Title
42773
    1SAPS     N    1   2.425   2.487   6.197 -0.2013 -0.0740  0.6147
    1SAPS   HN1    2   2.352   2.514   6.128  0.3262  1.9619  0.7762
    1SAPS   HN2    3   2.471   2.399   6.168 -3.1062 -1.3031 -0.6091
    1SAPS   HN3    4   2.372   2.453   6.280 -0.0361 -0.2192  0.6619
    1SAPS   C12    5   2.516   2.593   6.238  0.1544 -0.1982  0.3029
    1SAPS  H12A    6   2.478   2.686   6.199 -2.8930 -2.1047 -1.6437
    1SAPS   C13    7   2.515   2.608   6.393 -0.0902  0.4909  0.2094
    1SAPS  O13A    8   2.452   2.534   6.472  0.3327  0.1921  0.0107
    1SAPS  O13B    9   2.616   2.666   6.438  0.4707 -0.7334  0.0298
    1SAPS   C11   10   2.659   2.552   6.195 -0.2831 -0.0774  0.0524
    1SAPS  H11A   11   2.682   2.463   6.257  0.2482 -0.4937 -0.7274
    1SAPS  H11B   12   2.716   2.643   6.226 -1.0970  0.6316 -0.4867
    1SAPS     P   13   2.798   2.574   5.982  0.2781 -0.3548  0.0980
    1SAPS   O13   14   2.843   2.709   6.008  0.2919  0.7655 -0.5103
    1SAPS   O14   15   2.897   2.464   5.998  0.6619  0.5227 -0.9294
    1SAPS   O12   16   2.666   2.543   6.055  0.5033  0.3554 -0.6997
    1SAPS   O11   17   2.750   2.565   5.826 -0.6620 -0.6149 -0.0059
    1SAPS    C1   18   2.617   2.520   5.788 -0.1123  0.4103  0.0265
    1SAPS    HA   19   2.630   2.442   5.710 -2.0166  0.2591 -0.1951
    1SAPS    HB   20   2.560   2.481   5.875  1.4072  2.1012  1.8801
    1SAPS    C2   21   2.550   2.632   5.712 -0.1695 -0.4956  0.4129
    1SAPS    HS   22   2.448   2.597   5.686 -0.8419  0.4327  1.6934
    1SAPS   O21   23   2.637   2.679   5.600 -0.3383 -0.4931  0.2578
    1SAPS   C21   24   2.620   2.614   5.492  0.2485 -0.5423 -0.2202
    1SAPS   O22   25   2.557   2.510   5.470 -0.2690 -0.4298  0.2272
    1SAPS   C22   26   2.693   2.687   5.385 -0.1153 -0.5572  0.0820
    1SAPS   H2R   27   2.672   2.795   5.393  0.7504 -0.3968  0.3572
    1SAPS   H2S   28   2.800   2.686   5.414 -0.4157 -1.6932  1.2469
    1SAPS    C3   29   2.525   2.753   5.801 -0.0338  0.1397  0.9013
    1SAPS    HX   30   2.621   2.807   5.812  0.5736 -0.6095 -0.4998
    1SAPS    HY   31   2.491   2.721   5.902 -0.3460 -0.2569  0.6681
    1SAPS   O31   32   2.408   2.824   5.735  0.0602  0.2574 -0.5584
    1SAPS   C31   33   2.434   2.936   5.666  0.6507 -1.2690  0.2144
    1SAPS   O32   34   2.542   2.983   5.637 -0.2056 -0.1978 -0.6454
    1SAPS   C32   35   2.300   3.001   5.626  0.2419  0.5185  0.4848
    1SAPS   H2X   36   2.263   3.059   5.713 -0.3608 -0.5269  0.9504
    1SAPS   H2Y   37   2.225   2.922   5.606 -1.1215  1.9213 -0.0824
    1SAPS   C23   38   2.671   2.647   5.237  0.1771 -0.8304  0.7315
    1SAPS   H3R   39   2.569   2.606   5.219  0.6600 -2.3979  1.3822
    1SAPS   H3S   40   2.738   2.562   5.213  1.3328  0.1276  0.4638
    1SAPS   C24   41   2.686   2.761   5.130  0.2355  0.1260 -0.1347
    1SAPS   H4R   42   2.624   2.848   5.162 -2.2110 -2.0181  1.3181
    1SAPS   H4S   43   2.644   2.726   5.033  0.6217  0.0586 -0.2809
    1SAPS   C25   44   2.825   2.806   5.124  0.4425 -0.2689  0.0175
    1SAPS   H5R   45   2.880   2.812   5.218  0.1105 -0.4315  0.2249
    1SAPS   C26   46   2.888   2.844   5.007 -0.4609  0.2285 -0.1025
    1SAPS   H6R   47   2.993   2.876   5.004 -0.1143 -0.6752  1.4757
    1SAPS   C27   48   2.821   2.870   4.877  0.2957  0.5734 -0.3201
    1SAPS   H7R   49   2.808   2.979   4.865 -0.5743  0.7229  1.5252
    1SAPS   H7S   50   2.718   2.830   4.870  0.0686  1.4062 -2.2043
    1SAPS   C28   51   2.907   2.795   4.773  0.3560 -0.5743  1.0692
    1SAPS   H8R   52   2.931   2.689   4.790  2.7182  0.1323  2.7570
    1SAPS   C29   53   2.969   2.847   4.662 -0.1985  0.3945  0.1732
    1SAPS   H9R   54   3.017   2.769   4.600 -0.2685  0.0566  0.5367
    1SAPS  C210   55   2.953   2.989   4.617 -0.2871 -1.0686 -0.1117
    1SAPS  H10R   56   2.934   3.054   4.706 -0.9220  0.6509 -1.4325
    1SAPS  H10S   57   2.861   3.011   4.559  1.1695  1.4757 -1.6465
    1SAPS  C211   58   3.073   3.031   4.531  0.2624  0.0846 -0.8684
    1SAPS  H11R   59   3.170   3.031   4.584  0.6731  1.3092 -1.5893
    1SAPS  C212   60   3.078   3.078   4.405 -0.0429 -1.3488 -0.9704
    1SAPS  H12R   61   3.175   3.120   4.375 -0.8269  0.6384 -0.8157
    1SAPS  C213   62   2.958   3.107   4.317 -0.3370 -0.3050 -0.0654
    1SAPS  H13R   63   2.977   3.212   4.285 -0.7357 -0.0534  0.5141
    1SAPS  H13S   64   2.867   3.104   4.379  0.1574  0.5995  0.7410
    1SAPS  C214   65   2.950   3.015   4.200  0.3076  0.5385  0.8775
    1SAPS  H14R   66   2.900   2.918   4.216  0.4517  0.3829  0.4099
    1SAPS  C215   67   2.986   3.051   4.075 -0.1010  0.4877  0.2625
    1SAPS  H15R   68   2.969   2.980   3.993  0.9248  1.3211 -0.7152
    1SAPS  C216   69   3.049   3.181   4.032  0.3740 -0.5375  0.5633
    1SAPS  H16R   70   3.102   3.166   3.936  1.8594 -1.2625  1.4624
    1SAPS  H16S   71   3.129   3.207   4.105 -0.4868  1.4783  0.8422
    1SAPS  C217   72   2.948   3.304   4.009  0.8944  0.1838 -0.4936
    1SAPS  H17R   73   2.888   3.329   4.099  1.1135  2.6099 -0.9586
    1SAPS  H17S   74   2.867   3.283   3.935 -0.2236  3.1034 -0.2075
    1SAPS  C218   75   3.015   3.439   3.957  0.0558  0.0005  0.4833
    1SAPS  H18R   76   3.099   3.462   4.027 -0.3886  0.8203  0.7723
    1SAPS  H18S   77   2.935   3.514   3.973  0.8072  0.4976  2.2736
    1SAPS  C219   78   3.073   3.424   3.816  0.1020  0.3338 -0.6165
    1SAPS  H19R   79   2.988   3.409   3.746 -1.9110  0.1323  1.6899
    1SAPS  H19S   80   3.147   3.341   3.816 -1.4689 -1.2569 -3.5782
    1SAPS  C220   81   3.147   3.557   3.789 -0.5175 -0.3423 -0.1869
    1SAPS  H20R   82   3.067   3.632   3.809 -0.5958 -0.6521  0.7186
    1SAPS  H20S   83   3.179   3.561   3.683  0.7230 -0.0943  0.1835
    1SAPS  H20T   84   3.238   3.567   3.852 -1.0301  1.3840  0.3303
    1SAPS   C33   85   2.317   3.092   5.511 -0.2297 -1.0736  0.7602
    1SAPS   H3X   86   2.403   3.159   5.531 -0.1325  0.1883 -3.0961
    1SAPS   H3Y   87   2.226   3.154   5.497 -1.0904 -1.9158  2.3305
    1SAPS   C34   88   2.332   3.018   5.382  0.0689  0.4866 -0.1647
    1SAPS   H4X   89   2.243   2.958   5.353  1.1259 -2.1242  1.6177
    1SAPS   H4Y   90   2.409   2.938   5.384 -1.2325 -0.8137  2.1210
    1SAPS   C35   91   2.354   3.127   5.276 -0.0901  0.0898  0.2091
    1SAPS   H5X   92   2.427   3.202   5.315  0.2847 -0.6813  1.0284
    1SAPS   H5Y   93   2.261   3.187   5.260  0.2500  1.0473  1.5574
    1SAPS   C36   94   2.405   3.060   5.146 -0.6564  0.6607 -0.1695
    1SAPS   H6X   95   2.343   2.968   5.137  1.5992 -1.2276  1.8982
    1SAPS   H6Y   96   2.510   3.027   5.160 -0.0616  1.5519 -2.1040
    1SAPS   C37   97   2.395   3.150   5.024 -0.1772 -0.3894  0.5912
    1SAPS   H7X   98   2.436   3.253   5.032 -0.7474  0.1177 -2.0528
    1SAPS   H7Y   99   2.286   3.152   5.003 -0.3794  0.3029  1.6118
    1SAPS   C38  100   2.473   3.090   4.909 -0.4684  0.4021 -0.5048
    1SAPS   H8X  101   2.464   2.979   4.916  0.8173  0.2554 -0.8721
    1SAPS   H8Y  102   2.581   3.114   4.923 -0.2452  0.6258 -2.3177
    1SAPS   C39  103   2.426   3.125   4.768  0.3009 -0.8690 -0.2168
    1SAPS   H9X  104   2.393   3.231   4.762 -0.8165 -1.1670  0.3964
    1SAPS   H9Y  105   2.337   3.061   4.756 -2.6147  2.9677 -0.8770
    1SAPS  C310  106   2.530   3.105   4.654  0.2505  0.6648 -0.5849
    1SAPS  H10X  107   2.589   3.013   4.674  0.4681  1.1864  1.3230
    1SAPS  H10Y  108   2.602   3.189   4.665  1.8541 -1.0194  3.2873
    1SAPS  C311  109   2.465   3.096   4.520 -0.2292  0.2319  0.0354
    1SAPS  H11X  110   2.410   3.191   4.501 -1.5082  0.0668  2.4198
    1SAPS  H11Y  111   2.394   3.011   4.531 -1.0600  1.2055  3.3782
    1SAPS  C312  112   2.564   3.096   4.404  0.2554 -0.2826 -1.3066
    1SAPS  H12X  113   2.631   3.009   4.422 -0.1814  0.0396  2.7789
    1SAPS  H12Y  114   2.632   3.184   4.409 -0.3014  0.1648 -1.5033
    1SAPS  C313  115   2.496   3.098   4.269 -0.2163 -0.5399  0.1655
    1SAPS  H13X  116   2.435   3.189   4.249  0.0680 -0.1634  0.9628
    1SAPS  H13Y  117   2.422   3.016   4.277 -1.7222  0.8848  2.1719
    1SAPS  C314  118   2.603   3.080   4.168 -0.2659  0.0508  0.3091
    1SAPS  H14X  119   2.665   2.990   4.187  1.4598  0.1679 -3.7336
    1SAPS  H14Y  120   2.675   3.163   4.184  0.6484 -0.4355 -1.0906
    1SAPS  C315  121   2.540   3.059   4.026 -0.8588  0.2401  0.3700
    1SAPS  H15X  122   2.483   3.153   4.007  0.2167  0.5684 -1.3949
    1SAPS  H15Y  123   2.471   2.971   4.031  1.5204 -1.6980  1.2001
    1SAPS  C316  124   2.641   3.032   3.916 -0.1622 -0.7336  0.6402
    1SAPS  H16X  125   2.668   2.926   3.932  1.8322 -0.2114  0.9745
    1SAPS  H16Y  126   2.727   3.099   3.937  1.0165 -1.0950 -2.5146
    1SAPS  C317  127   2.601   3.054   3.766  0.0769  0.5262  0.1349
    1SAPS  H17X  128   2.688   3.100   3.714  1.0697  0.4824  1.6940
    1SAPS  H17Y  129   2.527   3.136   3.766 -0.1098  0.3747  1.4242
    1SAPS  C318  130   2.519   2.935   3.704 -1.0105  0.1248 -0.2252
    1SAPS  H18X  131   2.579   2.842   3.698  0.0017  0.4683  2.7151
    1SAPS  H18Y  132   2.485   2.957   3.601  0.0400 -1.4343 -0.9493
    1SAPS  H18Z  133   2.434   2.902   3.768 -0.2221  0.5398  1.0710
    2SAPS     N  134   3.496   5.937   7.146 -0.3289  0.1602  0.2787
    2SAPS   HN1  135   3.582   5.965   7.198  1.4085  0.0118 -2.3467
    2SAPS   HN2  136   3.511   5.846   7.099  3.0144  1.6618 -1.9372
    2SAPS   HN3  137   3.490   6.013   7.075  0.6313 -0.7415 -0.7936
    2SAPS   C12  138   3.372   5.921   7.226 -0.0065 -0.4994  0.3567
    2SAPS  H12A  139   3.396   5.863   7.314  1.7959 -0.4429 -0.0682
    2SAPS   C13  140   3.327   6.056   7.288 -1.1407  0.2883 -0.3916
    2SAPS  O13A  141   3.391   6.162   7.271  0.1764 -0.4575  0.2145
    2SAPS  O13B  142   3.218   6.054   7.351  0.0052  0.5309 -0.7046
    2SAPS   C11  143   3.256   5.846   7.160 -0.0231 -0.0213 -0.3872
    2SAPS  H11A  144   3.225   5.896   7.066 -0.6352  1.7967  0.7234
    2SAPS  H11B  145   3.173   5.835   7.234  1.4019 -2.1474  1.0231
    2SAPS     P  146   3.195   5.627   7.040  0.1821 -0.0638 -0.2150
    2SAPS   O13  147   3.271   5.505   7.021  0.4546  0.0873  0.1673
    2SAPS   O14  148   3.063   5.627   7.104  0.2639  0.5833 -0.2338
    2SAPS   O12  149   3.292   5.709   7.128 -0.1408  0.1896 -0.1282
    2SAPS   O11  150   3.193   5.714   6.911  0.0255  0.1498 -0.3755
    2SAPS    C1  151   3.071   5.717   6.837 -0.7784 -0.2407  0.3863
    2SAPS    HA  152   2.985   5.753   6.898  0.7420  1.5725  1.5950
    2SAPS    HB  153   3.085   5.786   6.751  1.7624 -0.0965  0.8399
    2SAPS    C2  154   3.049   5.572   6.763  0.2922 -0.0970 -0.3654
    2SAPS    HS  155   3.071   5.491   6.835  0.1557 -0.1097 -0.3368
    2SAPS   O21  156   3.131   5.567   6.648  0.3253  0.6375 -0.0716
    2SAPS   C21  157   3.138   5.443   6.593 -0.4489  0.1941 -0.2311
    2SAPS   O22  158   3.084   5.341   6.628 -0.1886  0.0107 -0.1939
    2SAPS   C22  159   3.220   5.451   6.459  0.2087  0.2502 -0.1621
    2SAPS   H2R  160   3.222   5.559   6.433  0.5095 -0.4232 -3.4910
    2SAPS   H2S  161   3.316   5.402   6.488 -0.8240 -0.7327  1.7266
    2SAPS    C3  162   2.893   5.557   6.735 -0.6321 -0.4376  0.0826
    2SAPS    HX  163   2.855   5.581   6.837  2.8558  4.5825  0.5527
    2SAPS    HY  164   2.857   5.459   6.697 -2.2731  0.8973 -2.0270
    2SAPS   O31  165   2.851   5.669   6.653 -0.3387  0.3616  0.2998
    2SAPS   C31  166   2.821   5.636   6.530 -0.5488 -0.6462 -0.6461
    2SAPS   O32  167   2.806   5.524   6.482 -0.2924  0.2224 -0.3426
    2SAPS   C32  168   2.786   5.765   6.443  0.1314  0.1288 -0.0858
    2SAPS   H2X  169   2.815   5.854   6.504  1.1294  1.7104 -2.6942
    2SAPS   H2Y  170   2.676   5.758   6.437  0.2747 -1.2143 -2.5413
    2SAPS   C23  171   3.153   5.366   6.347  0.5969  0.5067  0.1985
    2SAPS   H3R  172   3.076   5.296   6.387  2.5310 -1.1420  1.2104
    2SAPS   H3S  173   3.237   5.301   6.314 -0.4177 -0.0395 -1.4421
    2SAPS   C24  174   3.089   5.433   6.232  0.2677 -0.2404  0.5049
    2SAPS   H4R  175   3.017   5.502   6.281  1.2515  0.2954  1.2417
    2SAPS   H4S  176   3.034   5.351   6.180 -0.1377  0.1514  0.3136
    2SAPS   C25  177   3.191   5.500   6.141  0.3126 -0.0184  0.5208
    2SAPS   H5R  178   3.228   5.596   6.179  3.8776 -1.4230  1.0762
    2SAPS   C26  179   3.228   5.455   6.016 -0.3237  0.7475 -0.6766
    2SAPS   H6R  180   3.313   5.508   5.971  1.2096  1.8122  3.0239
    2SAPS   C27  181   3.175   5.325   5.966 -0.1364  0.8301 -0.6815
    2SAPS   H7R  182   3.066   5.347   5.958 -0.5389 -0.6929  0.1214
    2SAPS   H7S  183   3.180   5.236   6.032 -4.6204  0.1142 -1.0066
    2SAPS   C28  184   3.218   5.299   5.823 -0.6477  0.1311  0.5248
    2SAPS   H8R  185   3.321   5.261   5.818 -0.6948  0.1958 -2.1048
    2SAPS   C29  186   3.162   5.295   5.706  0.1018 -0.3644  0.7464
    2SAPS   H9R  187   3.233   5.265   5.628 -0.2992 -0.6430  0.4853
    2SAPS  C210  188   3.018   5.324   5.681  0.4867  0.1528 -0.0871
    2SAPS  H10R  189   2.970   5.348   5.779  2.1620 -3.0168  1.6527
    2SAPS  H10S  190   2.965   5.236   5.639  0.1588  0.1370  0.3561
    2SAPS  C211  191   3.008   5.455   5.609  0.8070 -0.4019  0.0204
    2SAPS  H11R  192   2.989   5.546   5.668 -3.0816 -0.7745 -0.4198
    2SAPS  C212  193   2.995   5.453   5.473 -0.0718 -1.3164  0.3608
    2SAPS  H12R  194   2.975   5.554   5.433  0.3945 -1.5171 -0.3856
    2SAPS  C213  195   3.010   5.334   5.380 -0.5529 -0.5020  0.3896
    2SAPS  H13R  196   3.060   5.249   5.431 -1.0343  0.5354  2.7284
    2SAPS  H13S  197   3.079   5.354   5.295 -1.0087 -1.7807 -0.3011
    2SAPS  C214  198   2.884   5.282   5.326 -0.3526  0.0340 -0.1076
    2SAPS  H14R  199   2.844   5.191   5.374  1.2811 -1.8498 -2.1040
    2SAPS  C215  200   2.811   5.336   5.230  0.2121  0.0503 -0.1611
    2SAPS  H15R  201   2.720   5.292   5.186 -0.7908  0.4345  1.4330
    2SAPS  C216  202   2.858   5.457   5.157  0.1461  0.2960  0.4432
    2SAPS  H16R  203   2.926   5.523   5.214  0.4805 -0.1601  0.5803
    2SAPS  H16S  204   2.769   5.515   5.126 -0.6652 -2.7071 -3.5774
    2SAPS  C217  205   2.922   5.438   5.014 -0.3248  0.7312  0.5665
    2SAPS  H17R  206   3.023   5.394   5.022 -1.0551 -0.8557  1.5120
    2SAPS  H17S  207   2.930   5.542   4.975  0.2947  0.2049 -0.7716
    2SAPS  C218  208   2.823   5.361   4.909  0.5967 -0.0748 -0.0634
    2SAPS  H18R  209   2.726   5.415   4.906  0.7338  0.1251 -1.1484
    2SAPS  H18S  210   2.807   5.256   4.942 -2.0303  0.1274 -0.4825
    2SAPS  C219  211   2.892   5.359   4.776 -0.1235 -0.2202  0.4290
    2SAPS  H19R  212   3.002   5.357   4.793 -0.1128 -1.4026  0.3166
    2SAPS  H19S  213   2.876   5.465   4.746 -2.8543 -1.0997 -1.7048
    2SAPS  C220  214   2.849   5.261   4.666  0.2167 -0.2792  0.2314
    2SAPS  H20R  215   2.738   5.259   4.663  0.2136  0.5349 -0.8267
    2SAPS  H20S  216   2.893   5.159   4.676  0.1671 -0.8161 -3.4298
    2SAPS  H20T  217   2.885   5.298   4.567  0.3765  0.8661  0.7093
    2SAPS   C33  218   2.850   5.779   6.301  0.4845 -0.3841 -0.3177
    2SAPS   H3X  219   2.805   5.701   6.235 -1.6604 -0.6323  1.3014
    2SAPS   H3Y  220   2.959   5.761   6.302  0.5513 -0.3870  3.2517
    2SAPS   C34  221   2.822   5.920   6.249  0.1010  0.1896 -1.2116
    2SAPS   H4X  222   2.848   5.990   6.331  0.3450 -0.9097 -0.3405
    2SAPS   H4Y  223   2.714   5.938   6.227  0.4287  1.7043 -1.7289
    2SAPS   C35  224   2.906   5.963   6.128  0.2149 -0.0712  0.4163
    2SAPS   H5X  225   3.015   5.963   6.153  1.0258  1.1094 -2.7282
    2SAPS   H5Y  226   2.866   6.062   6.099  2.1072  1.1172  1.6045
    2SAPS   C36  227   2.911   5.864   6.011 -0.0334 -0.0675  0.3951
    2SAPS   H6X  228   2.806   5.831   6.004 -1.3042  2.9744  2.7559
    2SAPS   H6Y  229   2.965   5.775   6.050 -1.5600  0.4488  4.0856
    2SAPS   C37  230   2.966   5.933   5.887 -0.0102 -0.1356  0.1965
    2SAPS   H7X  231   3.075   5.945   5.906 -0.2281 -1.1782  2.4569
    2SAPS   H7Y  232   2.930   6.037   5.872  1.4751  0.4023  0.2584
    2SAPS   C38  233   2.936   5.855   5.764  0.2778  0.5616  0.8784
    2SAPS   H8X  234   2.965   5.748   5.773  0.1911  0.4441 -0.1334
    2SAPS   H8Y  235   3.004   5.878   5.679 -1.3836  1.1696 -0.3612
    2SAPS   C39  236   2.789   5.855   5.707 -0.0469 -0.1869 -0.0715
    2SAPS   H9X  237   2.758   5.961   5.697  2.8779  0.7861  0.1329
    2SAPS   H9Y  238   2.722   5.811   5.784  0.6812 -2.0078 -0.4261
    2SAPS  C310  239   2.762   5.779   5.574  0.0076 -0.2922 -0.2758
    2SAPS  H10X  240   2.655   5.751   5.566  0.1977 -1.5532  1.1500
    2SAPS  H10Y  241   2.815   5.682   5.570  1.2739  0.3615  0.0565
    2SAPS  C311  242   2.808   5.869   5.447  1.0529 -0.1618 -0.1551
    2SAPS  H11X  243   2.917   5.882   5.459  1.4434  0.4659 -3.4265
    2SAPS  H11Y  244   2.768   5.972   5.447  1.1031 -0.1406 -0.7346
    2SAPS  C312  245   2.771   5.817   5.311 -0.0918  0.2833  0.4109
    2SAPS  H12X  246   2.684   5.750   5.327  1.1142 -1.6902 -0.9546
    2SAPS  H12Y  247   2.845   5.741   5.279 -0.4991 -0.8239  1.9456
    2SAPS  C313  248   2.739   5.919   5.200 -0.5104  0.5482 -0.8456
    2SAPS  H13X  249   2.668   5.990   5.246 -0.3720 -0.3950  0.9257
    2SAPS  H13Y  250   2.690   5.873   5.112 -0.8545  1.6530 -1.2405
    2SAPS  C314  251   2.852   6.016   5.158  0.1466  0.2587  0.1926
    2SAPS  H14X  252   2.932   5.946   5.126 -1.2148 -1.3230  0.0470
    2SAPS  H14Y  253   2.897   6.074   5.241 -0.4199  1.9967 -0.6619
    2SAPS  C315  254   2.814   6.106   5.033 -0.5527  0.0926 -0.1683
    2SAPS  H15X  255   2.778   6.199   5.083 -1.1160  0.3880 -1.1129
    2SAPS  H15Y  256   2.731   6.050   4.986  0.9297 -2.5862  0.2114
    2SAPS  C316  257   2.935   6.122   4.940  0.0950  0.4748  0.1006
    2SAPS  H16X  258   2.966   6.020   4.909 -0.4142  0.7557 -1.4022
    2SAPS  H16Y  259   3.016   6.178   4.993 -1.1479  4.2712 -1.6114
    2SAPS  C317  260   2.909   6.196   4.808  0.0249 -0.3124  0.2024
    2SAPS  H17X  261   3.002   6.200   4.747 -0.6182  2.3892 -0.7413
    2SAPS  H17Y  262   2.886   6.303   4.826  0.4126 -0.4505  1.6336
    2SAPS  C318  263   2.799   6.134   4.716  0.6586 -0.2387  0.0345
    2SAPS  H18X  264   2.706   6.194   4.728 -0.2327 -1.2748 -1.4018
    2SAPS  H18Y  265   2.781   6.035   4.764 -2.0871  0.1237 -0.0841
    2SAPS  H18Z  266   2.818   6.125   4.607  0.2665  3.5639 -0.4922
    3SAPS     N  267   3.801   4.791   6.893 -0.1313  0.1359 -0.4930
    3SAPS   HN1  268   3.720   4.768   6.832  0.7535 -2.1542 -0.9086
    3SAPS   HN2  269   3.854   4.871   6.852 -0.3599  1.1349  1.0919
    3SAPS   HN3  270   3.860   4.705   6.893 -0.8898 -0.4092  1.2387
    3SAPS   C12  271   3.746   4.826   7.027  0.2123  0.6904  0.3853
    3SAPS  H12A  272   3.704   4.734   7.066  0.0629  1.1837  1.4196
    3SAPS   C13  273   3.849   4.868   7.137  0.0969  0.1397 -0.4521
    3SAPS  O13A  274   3.970   4.890   7.116 -0.2271  0.3560 -0.0346
    3SAPS  O13B  275   3.806   4.865   7.257  0.3325  0.0243 -0.1890
    3SAPS   C11  276   3.631   4.936   7.021  0.2902  0.0876 -0.4022
    3SAPS  H11A  277   3.596   4.950   7.125  0.9963  1.2187 -0.2970
    3SAPS  H11B  278   3.556   4.895   6.950  0.3601 -0.2534 -0.2810
    3SAPS     P  279   3.611   5.194   7.011  0.1438  0.1477 -0.1129
    3SAPS   O13  280   3.492   5.162   7.099 -0.4244 -0.0610  0.6619
    3SAPS   O14  281   3.707   5.280   7.082 -0.0793 -0.0025  0.1569
    3SAPS   O12  282   3.684   5.059   6.964 -0.2273  0.3254  0.4951
    3SAPS   O11  283   3.563   5.259   6.877  0.4209 -0.2597  0.1465
    3SAPS    C1  284   3.466   5.183   6.806  0.2121 -0.6056  0.0336
    3SAPS    HA  285   3.442   5.080   6.840  0.6424 -0.5192  0.6097
    3SAPS    HB  286   3.373   5.243   6.813  0.5563 -0.3035  3.0202
    3SAPS    C2  287   3.494   5.180   6.656 -0.0200 -0.6307  0.7887
    3SAPS    HS  288   3.583   5.115   6.644 -0.1629 -0.7720  0.4572
    3SAPS   O21  289   3.526   5.309   6.602  0.2575 -0.3654  0.4733
    3SAPS   C21  290   3.611   5.324   6.498 -0.5526 -0.5954 -0.2408
    3SAPS   O22  291   3.673   5.232   6.448  0.6696  0.4181  0.4565
    3SAPS   C22  292   3.622   5.470   6.443  0.3212 -0.7465 -0.7786
    3SAPS   H2R  293   3.525   5.485   6.391  0.9881  0.2573 -1.7638
    3SAPS   H2S  294   3.605   5.538   6.530 -0.8215 -0.3611 -1.2878
    3SAPS    C3  295   3.378   5.113   6.584 -0.2651  0.2977  0.5406
    3SAPS    HX  296   3.290   5.180   6.593 -0.0561  0.8744 -1.3033
    3SAPS    HY  297   3.349   5.014   6.626 -0.8843 -0.2690 -1.1411
    3SAPS   O31  298   3.391   5.091   6.443 -0.3541 -0.0068 -0.2516
    3SAPS   C31  299   3.470   4.995   6.400 -0.7649  0.2052  0.9248
    3SAPS   O32  300   3.527   4.909   6.467  0.2309  0.0466 -0.0832
    3SAPS   C32  301   3.496   5.017   6.250  0.2153  0.0865  0.2171
    3SAPS   H2X  302   3.572   5.096   6.237 -1.5324  1.9762  1.0020
    3SAPS   H2Y  303   3.403   5.044   6.196 -0.5531 -0.6702  1.1331
    3SAPS   C23  304   3.748   5.511   6.364 -0.0197 -0.2468  0.1291
    3SAPS   H3R  305   3.837   5.509   6.430 -0.6862  3.5997  1.4312
    3SAPS   H3S  306   3.744   5.619   6.338 -1.0898  0.1504  1.8124
    3SAPS   C24  307   3.768   5.434   6.229  0.0174 -0.0803 -0.1488
    3SAPS   H4R  308   3.791   5.328   6.251  1.7136 -0.5047 -3.4166
    3SAPS   H4S  309   3.855   5.466   6.168 -0.7350 -0.6946 -1.5926
    3SAPS   C25  310   3.643   5.431   6.142  0.3504  0.0304 -0.3338
    3SAPS   H5R  311   3.561   5.364   6.172  0.4503  0.2424  0.4563
    3SAPS   C26  312   3.632   5.493   6.025  0.5660  0.6561 -0.0125
    3SAPS   H6R  313   3.556   5.464   5.952  3.0664 -1.1569 -2.1012
    3SAPS   C27  314   3.733   5.586   5.970  0.3322 -0.4328  0.3223
    3SAPS   H7R  315   3.788   5.642   6.048  0.8938 -1.0205  0.3613
    3SAPS   H7S  316   3.686   5.670   5.913  1.1463 -1.3514 -1.8157
    3SAPS   C28  317   3.830   5.514   5.877  0.0532  0.1157  0.2532
    3SAPS   H8R  318   3.923   5.480   5.926  0.6567 -0.0550 -0.9685
    3SAPS   C29  319   3.809   5.483   5.744  0.2761 -0.0091  0.2118
    3SAPS   H9R  320   3.885   5.427   5.688  1.9335  1.0060  1.3274
    3SAPS  C210  321   3.679   5.504   5.671  0.3324 -0.8295 -0.3366
    3SAPS  H10R  322   3.699   5.582   5.594  0.2173 -1.9209 -1.4995
    3SAPS  H10S  323   3.613   5.566   5.735  0.3842  0.8335 -1.7897
    3SAPS  C211  324   3.599   5.395   5.611 -0.4713 -0.4436  0.6651
    3SAPS  H11R  325   3.552   5.329   5.685  0.8819 -1.5707  0.5549
    3SAPS  C212  326   3.588   5.351   5.487 -0.4668 -1.3357 -0.2131
    3SAPS  H12R  327   3.525   5.266   5.459  1.0755 -2.8461  0.7767
    3SAPS  C213  328   3.645   5.418   5.367 -0.1492 -0.0222  0.2650
    3SAPS  H13R  329   3.692   5.337   5.307  1.0649  1.6579 -1.1339
    3SAPS  H13S  330   3.736   5.475   5.392  1.2937 -3.0067  2.4547
    3SAPS  C214  331   3.554   5.484   5.270 -0.4324 -0.7836  0.3202
    3SAPS  H14R  332   3.478   5.545   5.321  0.2081 -1.5650  2.2956
    3SAPS  C215  333   3.543   5.472   5.137 -0.0330 -0.3218 -0.5456
    3SAPS  H15R  334   3.470   5.542   5.093 -2.3507 -0.9982  1.9604
    3SAPS  C216  335   3.625   5.382   5.047  0.2167 -0.3173 -0.0210
    3SAPS  H16R  336   3.552   5.343   4.973 -0.3947 -0.5118  0.6681
    3SAPS  H16S  337   3.676   5.297   5.097  0.7968 -0.2068 -0.4271
    3SAPS  C217  338   3.734   5.476   4.987 -0.6046  0.3646 -0.2608
    3SAPS  H17R  339   3.803   5.517   5.064  1.3460 -1.5566 -0.8800
    3SAPS  H17S  340   3.681   5.562   4.939 -3.1678 -1.1425 -0.3219
    3SAPS  C218  341   3.819   5.400   4.888  0.0259  0.0697 -0.2934
    3SAPS  H18R  342   3.847   5.297   4.917  3.2963  1.7190  3.4147
    3SAPS  H18S  343   3.918   5.450   4.882  0.2675 -0.3817 -0.1080
    3SAPS  C219  344   3.761   5.384   4.747 -0.5272 -1.0497  0.1310
    3SAPS  H19R  345   3.668   5.324   4.745 -1.0146 -0.3044 -1.8978
    3SAPS  H19S  346   3.733   5.483   4.704  2.6929  0.3805  1.0279
    3SAPS  C220  347   3.862   5.346   4.637  0.2143 -0.3687 -0.7873
    3SAPS  H20R  348   3.797   5.331   4.548 -3.0668 -0.8174  1.4943
    3SAPS  H20S  349   3.897   5.245   4.668 -2.0356 -0.5136  1.6720
    3SAPS  H20T  350   3.941   5.422   4.624 -1.7351  1.7912 -0.5704
    3SAPS   C33  351   3.547   4.888   6.176  0.6774  0.1508 -0.5763
    3SAPS   H3X  352   3.488   4.794   6.186 -1.7199  1.7455  1.6764
    3SAPS   H3Y  353   3.641   4.868   6.232  0.0268 -0.3444  0.3838
    3SAPS   C34  354   3.572   4.909   6.028  0.3613 -0.2703  0.3913
    3SAPS   H4X  355   3.637   4.822   6.002  0.0862 -0.2895 -0.2474
    3SAPS   H4Y  356   3.630   5.004   6.028 -0.5546  0.3205 -1.0077
    3SAPS   C35  357   3.456   4.925   5.932  0.5127 -0.4269 -0.6921
    3SAPS   H5X  358   3.398   4.832   5.916  1.1117 -0.5390 -2.4108
    3SAPS   H5Y  359   3.390   5.006   5.969  0.8811 -0.4789  0.1010
    3SAPS   C36  360   3.503   4.945   5.786 -0.2224  1.0526 -0.2750
    3SAPS   H6X  361   3.589   4.878   5.764 -1.2013 -0.0487 -0.8440
    3SAPS   H6Y  362   3.541   5.050   5.791 -0.1322  0.9549  1.8305
    3SAPS   C37  363   3.387   4.928   5.688  0.0108 -0.3615  0.5416
    3SAPS   H7X  364   3.317   5.002   5.733  0.2873 -0.6862  1.5181
    3SAPS   H7Y  365   3.337   4.829   5.681  1.5589 -1.0953 -0.5443
    3SAPS   C38  366   3.426   4.978   5.551  0.0335 -0.2060  0.0826
    3SAPS   H8X  367   3.491   4.907   5.495 -0.3424 -2.7957  2.6964
    3SAPS   H8Y  368   3.485   5.071   5.569 -0.3150 -0.2017  1.2833
    3SAPS   C39  369   3.298   5.006   5.467 -0.1515  0.6374 -0.2725
    3SAPS   H9X  370   3.221   5.057   5.529 -0.6068 -0.8792  0.4623
    3SAPS   H9Y  371   3.242   4.913   5.443 -0.6259  0.9393 -0.3604
    3SAPS  C310  372   3.329   5.074   5.335 -0.2218  0.5659  0.4219
    3SAPS  H10X  373   3.438   5.059   5.322 -0.0865 -0.0841  2.0475
    3SAPS  H10Y  374   3.302   5.181   5.344  0.6690  0.8467 -0.1271
    3SAPS  C311  375   3.247   5.021   5.213  0.1626  0.0908  0.6672
    3SAPS  H11X  376   3.140   5.040   5.235  0.5017  0.9492  1.6533
    3SAPS  H11Y  377   3.271   4.914   5.197 -0.3633  0.0268  0.2771
    3SAPS  C312  378   3.300   5.100   5.090 -1.2543  0.7565 -0.9921
    3SAPS  H12X  379   3.410   5.088   5.074 -1.3256 -0.3702 -0.7020
    3SAPS  H12Y  380   3.283   5.208   5.112 -3.0211  0.0644  1.2854
    3SAPS  C313  381   3.234   5.066   4.963 -0.3846 -0.0668  0.3679
    3SAPS  H13X  382   3.128   5.094   4.979 -0.0124 -0.3343  4.3359
    3SAPS  H13Y  383   3.230   4.960   4.929 -0.4632  0.3349 -0.9422
    3SAPS  C314  384   3.289   5.154   4.843  0.0806  0.0600 -0.1784
    3SAPS  H14X  385   3.398   5.133   4.840  0.1339  0.3780 -0.5091
    3SAPS  H14Y  386   3.274   5.262   4.868  1.4226 -0.1933  2.0324
    3SAPS  C315  387   3.237   5.114   4.704 -0.3821 -0.1108 -0.1509
    3SAPS  H15X  388   3.294   5.181   4.636 -1.0091  0.6831  0.0850
    3SAPS  H15Y  389   3.128   5.133   4.699 -0.7619 -1.6108  1.3456
    3SAPS  C316  390   3.262   4.964   4.659 -0.2732  0.1861 -0.1954
    3SAPS  H16X  391   3.205   4.881   4.707 -0.8140  0.0387 -1.0745
    3SAPS  H16Y  392   3.371   4.940   4.667  0.3310  2.1459 -1.8138
    3SAPS  C317  393   3.238   4.953   4.510  0.3503  0.5821 -0.9776
    3SAPS  H17X  394   3.286   5.039   4.457 -0.3081 -0.3229 -3.1686
    3SAPS  H17Y  395   3.128   4.962   4.498  0.1267 -2.1560 -1.5794
    3SAPS  C318  396   3.270   4.819   4.445  0.4954  0.8963  0.1626
    3SAPS  H18X  397   3.376   4.795   4.420 -0.0357 -1.8342  0.3227
    3SAPS  H18Y  398   3.229   4.817   4.342  3.0793  0.7948 -0.9618
    3SAPS  H18Z  399   3.225   4.733   4.499  3.4472 -0.3558  0.8457
    4SAPS     N  400   1.789   2.597   6.829  0.0669 -0.0580  0.0085
    4SAPS   HN1  401   1.805   2.508   6.881  2.8373  0.8406  0.8832
    4SAPS   HN2  402   1.879   2.650   6.835 -0.3010  0.8008 -1.5179
    4SAPS   HN3  403   1.723   2.653   6.887 -0.2455 -1.1139  0.6963
    4SAPS   C12  404   1.742   2.555   6.694  0.1634 -0.2162  0.3286
    4SAPS  H12A  405   1.667   2.479   6.710  1.0800 -1.1407  0.3454
    4SAPS   C13  406   1.670   2.665   6.608  0.0871 -0.6902 -0.2466
    4SAPS  O13A  407   1.656   2.784   6.644  0.2791  0.4826 -0.6790
    4SAPS  O13B  408   1.638   2.635   6.486 -0.9727  0.2123 -0.4219
    4SAPS   C11  409   1.862   2.493   6.612  0.1342  0.3433  0.6904
    4SAPS  H11A  410   1.936   2.574   6.593 -0.8187  1.5003  1.7619
    4SAPS  H11B  411   1.819   2.471   6.512 -0.1196  1.1832  0.6076
    4SAPS     P  412   2.009   2.269   6.590  0.0997 -0.1948 -0.0806
    4SAPS   O13  413   2.148   2.283   6.653 -0.1213 -0.0689  0.0676
    4SAPS   O14  414   1.951   2.137   6.595  0.1184  0.8277  0.2733
    4SAPS   O12  415   1.916   2.368   6.670 -0.8208 -0.4701  0.0432
    4SAPS   O11  416   2.019   2.315   6.437 -0.2181 -0.0266  0.3590
    4SAPS    C1  417   1.924   2.300   6.334  0.2110 -0.2093  0.0974
    4SAPS    HA  418   1.913   2.196   6.296 -0.8959 -0.4488  0.9949
    4SAPS    HB  419   1.824   2.330   6.374  0.2721 -0.8999  0.7924
    4SAPS    C2  420   1.960   2.394   6.213  0.1151 -0.0824  0.1780
    4SAPS    HS  421   1.878   2.401   6.138  1.2057 -0.7702 -1.1184
    4SAPS   O21  422   2.079   2.334   6.156 -0.2590 -0.6290 -0.5864
    4SAPS   C21  423   2.057   2.226   6.083 -0.2323 -0.7175 -0.2125
    4SAPS   O22  424   1.947   2.170   6.064  0.1062  0.6643  0.2503
    4SAPS   C22  425   2.188   2.168   6.025  0.1657  0.1385 -0.6480
    4SAPS   H2R  426   2.276   2.165   6.093  1.4825  0.1520 -2.3011
    4SAPS   H2S  427   2.169   2.064   5.993  2.2742 -0.4955 -0.0114
    4SAPS    C3  428   1.987   2.543   6.250 -0.1921  0.0279  0.5076
    4SAPS    HX  429   2.081   2.551   6.307 -0.9590 -1.4513  2.0667
    4SAPS    HY  430   1.900   2.562   6.316  0.2262 -2.8343  2.0340
    4SAPS   O31  431   1.980   2.627   6.125  0.2790  0.2071  0.0438
    4SAPS   C31  432   2.087   2.639   6.054  0.8653 -0.1966 -0.2446
    4SAPS   O32  433   2.194   2.583   6.076 -0.6020  0.0349 -0.1120
    4SAPS   C32  434   2.044   2.731   5.936 -0.2606  0.4065  0.3810
    4SAPS   H2X  435   2.064   2.836   5.968 -0.8993  0.9484 -0.9434
    4SAPS   H2Y  436   1.934   2.731   5.919 -0.0144  1.4289 -1.4211
    4SAPS   C23  437   2.222   2.243   5.898 -0.3464 -0.3767 -0.6570
    4SAPS   H3R  438   2.222   2.353   5.914  1.6538 -0.3851 -0.3608
    4SAPS   H3S  439   2.139   2.216   5.829 -0.5787 -0.2599 -0.4257
    4SAPS   C24  440   2.356   2.203   5.832  0.4909 -0.9572 -0.3882
    4SAPS   H4R  441   2.346   2.092   5.824 -2.6853 -0.7887 -0.0323
    4SAPS   H4S  442   2.445   2.218   5.897 -0.3170  0.0152  0.5237
    4SAPS   C25  443   2.372   2.266   5.704  0.2263 -0.0508 -0.0595
    4SAPS   H5R  444   2.336   2.369   5.692 -2.0887 -0.8975 -0.8263
    4SAPS   C26  445   2.441   2.207   5.607 -0.0739 -0.2487 -0.3794
    4SAPS   H6R  446   2.449   2.251   5.507  1.8645 -1.0243 -0.6042
    4SAPS   C27  447   2.512   2.072   5.605 -0.7180 -0.9857  0.2701
    4SAPS   H7R  448   2.487   2.025   5.507 -4.8251 -0.6041  0.9499
    4SAPS   H7S  449   2.467   2.006   5.683  0.0481 -0.3557  1.2703
    4SAPS   C28  450   2.667   2.083   5.630 -0.5763  0.3435  0.1174
    4SAPS   H8R  451   2.685   2.109   5.735 -0.5072  0.7885 -0.0030
    4SAPS   C29  452   2.768   2.084   5.538  0.9377  0.1013 -0.3095
    4SAPS   H9R  453   2.873   2.095   5.571  0.7009 -0.5731  0.6923
    4SAPS  C210  454   2.757   2.058   5.386 -0.2453 -0.3272  0.3855
    4SAPS  H10R  455   2.651   2.042   5.358 -0.2413 -0.2160  0.3019
    4SAPS  H10S  456   2.813   1.966   5.360 -2.6773 -1.4289 -1.2979
    4SAPS  C211  457   2.811   2.175   5.312  0.3799  0.1182 -0.0519
    4SAPS  H11R  458   2.778   2.273   5.349  0.1425  1.1771 -2.8545
    4SAPS  C212  459   2.912   2.174   5.226 -0.5464 -0.1866 -0.5337
    4SAPS  H12R  460   2.932   2.273   5.182 -0.3363 -0.4583 -1.0509
    4SAPS  C213  461   2.990   2.057   5.182 -0.0176  1.2606 -0.2337
    4SAPS  H13R  462   2.999   1.973   5.254  0.5397  1.4168 -0.1157
    4SAPS  H13S  463   3.095   2.089   5.202 -0.1413  0.6192  1.6696
    4SAPS  C214  464   2.952   2.004   5.048 -1.4226 -0.1194  0.1750
    4SAPS  H14R  465   2.849   1.965   5.049 -1.3642 -0.2735  0.3022
    4SAPS  C215  466   3.027   1.995   4.936  0.6336  0.4696  0.6027
    4SAPS  H15R  467   2.978   1.959   4.844  0.2004 -0.5423  1.2082
    4SAPS  C216  468   3.175   2.042   4.923  0.7450 -0.1025  0.1299
    4SAPS  H16R  469   3.232   1.994   5.005 -1.0217  1.5746  2.4568
    4SAPS  H16S  470   3.182   2.153   4.926 -3.9764  0.4924 -2.1629
    4SAPS  C217  471   3.236   1.986   4.785  0.8999  0.5228 -0.0907
    4SAPS  H17R  472   3.163   2.013   4.706 -1.5539  0.2645  1.9369
    4SAPS  H17S  473   3.235   1.876   4.799 -0.7972  0.8514  4.1528
    4SAPS  C218  474   3.365   2.042   4.742 -0.7480 -0.4526  0.1833
    4SAPS  H18R  475   3.436   2.020   4.825 -2.3569  2.3947  2.5229
    4SAPS  H18S  476   3.364   2.153   4.738 -0.7627 -0.4800 -1.1058
    4SAPS  C219  477   3.420   1.978   4.608  0.7265 -0.3446 -0.4453
    4SAPS  H19R  478   3.343   1.997   4.530  2.1651  1.7898 -1.4326
    4SAPS  H19S  479   3.418   1.867   4.606 -3.3622 -0.4405  0.9299
    4SAPS  C220  480   3.556   2.038   4.572 -0.4003 -0.7403  0.2054
    4SAPS  H20R  481   3.573   2.030   4.462 -2.3805 -0.8626 -0.1327
    4SAPS  H20S  482   3.637   2.000   4.637  2.0739  0.5444 -1.9254
    4SAPS  H20T  483   3.554   2.148   4.590 -4.0916 -0.9185  1.8227
    4SAPS   C33  484   2.132   2.703   5.810  0.2459  0.0883 -0.5118
    4SAPS   H3X  485   2.238   2.711   5.843  0.4725 -1.3273 -0.8194
    4SAPS   H3Y  486   2.108   2.794   5.750 -0.2486  0.9893  1.0134
    4SAPS   C34  487   2.087   2.576   5.733 -0.3501  0.4296  0.4229
    4SAPS   H4X  488   1.977   2.568   5.723 -0.2711  1.4658 -1.8940
    4SAPS   H4Y  489   2.124   2.486   5.786  1.4495  1.5845  1.2399
    4SAPS   C35  490   2.153   2.572   5.593  0.4261  0.2354 -0.0976
    4SAPS   H5X  491   2.168   2.469   5.555 -3.1526 -0.5605  0.2263
    4SAPS   H5Y  492   2.256   2.614   5.601  0.6806  0.0005 -1.8475
    4SAPS   C36  493   2.084   2.644   5.474  0.2499  0.0908 -0.6216
    4SAPS   H6X  494   2.073   2.753   5.493 -0.2706  0.3186 -2.1321
    4SAPS   H6Y  495   1.981   2.604   5.461 -0.2475  1.2310 -0.3593
    4SAPS   C37  496   2.169   2.630   5.348 -1.2813  0.8469  0.3322
    4SAPS   H7X  497   2.203   2.524   5.340 -0.8818  0.9339  0.8077
    4SAPS   H7Y  498   2.264   2.684   5.367  0.1333 -1.6823  0.9306
    4SAPS   C38  499   2.104   2.672   5.219 -0.1379  0.2031 -0.1344
    4SAPS   H8X  500   2.052   2.764   5.251 -1.8995  0.0797 -2.4481
    4SAPS   H8Y  501   2.026   2.610   5.169  0.1518 -0.4734  0.2345
    4SAPS   C39  502   2.197   2.701   5.109 -0.0842  0.1395  0.2699
    4SAPS   H9X  503   2.259   2.613   5.080  0.2892  0.7681 -0.9020
    4SAPS   H9Y  504   2.272   2.767   5.159  0.5752 -0.0433 -0.4663
    4SAPS  C310  505   2.146   2.770   4.986 -0.4826 -0.3541 -0.2619
    4SAPS  H10X  506   2.237   2.793   4.927  0.2706  1.6751  1.5710
    4SAPS  H10Y  507   2.095   2.864   5.017  0.4481  0.6823 -1.7202
    4SAPS  C311  508   2.037   2.687   4.901 -0.7514 -0.1681 -0.2016
    4SAPS  H11X  509   1.934   2.716   4.931 -0.7598  0.3524 -0.7230
    4SAPS  H11Y  510   2.057   2.585   4.940  1.4167  0.6211  0.9151
    4SAPS  C312  511   2.047   2.716   4.751 -0.0899 -0.2446  0.6495
    4SAPS  H12X  512   2.145   2.675   4.718  0.1369 -0.6770  1.8234
    4SAPS  H12Y  513   2.046   2.827   4.741  0.3469 -0.2540  0.4982
    4SAPS  C313  514   1.935   2.673   4.669  0.6014 -0.4439  0.4320
    4SAPS  H13X  515   1.836   2.709   4.701 -0.5493 -2.5266 -0.5338
    4SAPS  H13Y  516   1.923   2.563   4.655  2.3535 -0.7059  0.7152
    4SAPS  C314  517   1.956   2.711   4.516  0.0736 -0.9071 -0.7792
    4SAPS  H14X  518   2.040   2.645   4.485  0.3669 -1.8591  1.7707
    4SAPS  H14Y  519   1.990   2.817   4.511 -3.3865  0.3196 -1.3123
    4SAPS  C315  520   1.840   2.687   4.422  0.4578  0.1138  0.2783
    4SAPS  H15X  521   1.772   2.775   4.415  0.4545 -0.0542 -3.4775
    4SAPS  H15Y  522   1.766   2.608   4.448 -1.8543  2.0419 -0.0965
    4SAPS  C316  523   1.881   2.646   4.277 -0.0993  0.1478 -0.5994
    4SAPS  H16X  524   1.953   2.562   4.285 -1.2928 -0.7222  2.2825
    4SAPS  H16Y  525   1.918   2.736   4.223  0.3987 -1.4944 -3.1599
    4SAPS  C317  526   1.746   2.619   4.201 -0.6088  0.3044  0.3044
    4SAPS  H17X  527   1.676   2.702   4.227  0.0127  0.3193  2.0820
    4SAPS  H17Y  528   1.708   2.519   4.232  0.8362  0.7852  4.2178
    4SAPS  C318  529   1.764   2.610   4.039  0.1449  0.0980 -0.9798
    4SAPS  H18X  530   1.775   2.712   3.996 -1.1666  0.8508  0.3469
    4SAPS  H18Y  531   1.673   2.564   3.995 -0.5860  0.6752 -0.1214
    4SAPS  H18Z  532   1.837   2.533   4.006  1.2561  0.5854  0.2548
    5SAPS     N  533   4.191   4.584   6.819  0.1602  0.0494 -0.3080
    5SAPS   HN1  534   4.128   4.612   6.742  0.5954  2.7094  0.2245
    5SAPS   HN2  535   4.187   4.653   6.897 -0.0561 -0.7929  0.4500
    5SAPS   HN3  536   4.290   4.587   6.788  1.1989  0.6648  2.6797
    5SAPS   C12  537   4.157   4.440   6.858 -0.3420  0.1869  0.2904
    5SAPS  H12A  538   4.215   4.412   6.945 -0.8758 -1.3095  0.1900
    5SAPS   C13  539   4.008   4.418   6.899 -0.5156  0.3518 -0.4336
    5SAPS  O13A  540   3.931   4.517   6.910  0.1851 -0.0787  0.2253
    5SAPS  O13B  541   3.979   4.301   6.925  0.1298  0.4565 -0.2182
    5SAPS   C11  542   4.208   4.343   6.748  0.4066 -0.3403  0.3370
    5SAPS  H11A  543   4.141   4.363   6.663  0.6445 -1.3370 -0.0964
    5SAPS  H11B  544   4.190   4.237   6.779 -0.6117  0.8728  4.5854
    5SAPS     P  545   4.447   4.268   6.660 -0.0199  0.3982 -0.1020
    5SAPS   O13  546   4.569   4.348   6.630  0.3219 -0.0854  0.3354
    5SAPS   O14  547   4.475   4.163   6.765 -0.0535  0.1069 -0.0142
    5SAPS   O12  548   4.347   4.368   6.713  0.5291 -0.5645 -0.4447
    5SAPS   O11  549   4.382   4.199   6.538 -0.1726 -0.1758  0.2107
    5SAPS    C1  550   4.343   4.243   6.406 -0.2731 -0.3876  0.0836
    5SAPS    HA  551   4.239   4.211   6.383 -0.4381  0.9117 -1.1108
    5SAPS    HB  552   4.345   4.354   6.400 -1.0563 -0.2252  2.1163
    5SAPS    C2  553   4.440   4.191   6.298 -1.0346 -0.0604 -0.2501
    5SAPS    HS  554   4.545   4.199   6.334 -0.6089 -1.4955 -1.0803
    5SAPS   O21  555   4.415   4.260   6.172 -0.5191 -0.6609  0.0105
    5SAPS   C21  556   4.530   4.299   6.109 -0.7162  0.0777 -0.3932
    5SAPS   O22  557   4.642   4.276   6.148  0.3979  0.4958 -0.0507
    5SAPS   C22  558   4.484   4.382   5.991 -0.2068  0.1140  0.5017
    5SAPS   H2R  559   4.376   4.366   5.971  0.2342 -0.8459 -1.3252
    5SAPS   H2S  560   4.508   4.488   6.012 -1.0800 -0.0667  2.6289
    5SAPS    C3  561   4.414   4.036   6.265 -0.6029 -1.0194  1.0734
    5SAPS    HX  562   4.303   4.026   6.258 -0.4681 -1.6061 -0.9448
    5SAPS    HY  563   4.438   3.968   6.349 -1.3526 -0.6699  1.5920
    5SAPS   O31  564   4.472   4.007   6.143  0.0421  0.5053  0.5144
    5SAPS   C31  565   4.416   3.913   6.066  0.3332 -0.0676 -0.1038
    5SAPS   O32  566   4.319   3.844   6.095 -0.0078  0.0056  0.2996
    5SAPS   C32  567   4.500   3.896   5.933 -0.4022 -0.1127 -0.0187
    5SAPS   H2X  568   4.607   3.914   5.958  1.0271  0.2258 -5.1620
    5SAPS   H2Y  569   4.461   3.974   5.864  0.0363 -0.1908 -0.3608
    5SAPS   C23  570   4.566   4.365   5.857  0.0250  0.6824  0.3670
    5SAPS   H3R  571   4.515   4.293   5.790 -0.6577  0.8365  0.7120
    5SAPS   H3S  572   4.672   4.341   5.879  0.2036  1.5111  0.4418
    5SAPS   C24  573   4.584   4.498   5.788  0.0424  0.8096 -0.3366
    5SAPS   H4R  574   4.655   4.478   5.705  1.0087 -1.3024  0.9334
    5SAPS   H4S  575   4.632   4.569   5.858 -1.9337  0.8006  1.1289
    5SAPS   C25  576   4.452   4.549   5.740 -0.1094 -0.3008 -0.3976
    5SAPS   H5R  577   4.409   4.615   5.816 -5.0695 -0.4301 -2.6971
    5SAPS   C26  578   4.376   4.517   5.634  0.0811 -0.0777 -0.3277
    5SAPS   H6R  579   4.279   4.566   5.615  0.2121  1.3736  2.2936
    5SAPS   C27  580   4.427   4.421   5.532 -0.8623  0.0868 -0.0596
    5SAPS   H7R  581   4.347   4.345   5.518 -1.4107  1.0958 -3.3261
    5SAPS   H7S  582   4.498   4.353   5.584 -1.1811  0.1604  0.4699
    5SAPS   C28  583   4.469   4.481   5.408 -1.0510 -0.5152  0.3658
    5SAPS   H8R  584   4.574   4.514   5.420  0.0258 -3.2137 -0.8846
    5SAPS   C29  585   4.403   4.509   5.296  0.9632 -0.5963 -0.0242
    5SAPS   H9R  586   4.458   4.553   5.212  1.5147  0.1699  0.7223
    5SAPS  C210  587   4.258   4.486   5.287  0.5439 -0.2360  0.1736
    5SAPS  H10R  588   4.214   4.427   5.370 -0.4810  0.4419  0.1260
    5SAPS  H10S  589   4.231   4.433   5.194 -0.2205 -0.1901  0.3644
    5SAPS  C211  590   4.190   4.624   5.283 -0.4455  1.4145  0.2679
    5SAPS  H11R  591   4.190   4.684   5.375  1.2516  0.7298  0.7508
    5SAPS  C212  592   4.156   4.685   5.165 -0.0925 -0.0473  0.4077
    5SAPS  H12R  593   4.102   4.781   5.170 -0.3283  0.2724 -4.0214
    5SAPS  C213  594   4.182   4.633   5.023 -0.1669 -0.0875 -0.0713
    5SAPS  H13R  595   4.256   4.551   5.015  1.1418  0.9495  0.9898
    5SAPS  H13S  596   4.214   4.718   4.960 -0.4747  1.1736  1.4141
    5SAPS  C214  597   4.055   4.575   4.965  0.2150 -0.1116  1.0957
    5SAPS  H14R  598   3.977   4.528   5.027 -0.6106  0.3260  0.4140
    5SAPS  C215  599   4.036   4.569   4.829  0.3905 -0.7891  0.2184
    5SAPS  H15R  600   3.944   4.518   4.795 -1.5103  1.9807  0.8625
    5SAPS  C216  601   4.129   4.619   4.719  0.4732 -0.3502  0.0415
    5SAPS  H16R  602   4.160   4.523   4.672 -2.1617 -0.2400 -2.2010
    5SAPS  H16S  603   4.219   4.669   4.760  1.8403 -0.7312 -2.2975
    5SAPS  C217  604   4.064   4.717   4.616  0.3978  0.3522 -0.6040
    5SAPS  H17R  605   4.153   4.760   4.567  2.2073  0.9495  2.8964
    5SAPS  H17S  606   4.008   4.799   4.666 -0.3509 -0.1775 -0.5567
    5SAPS  C218  607   3.974   4.637   4.523 -0.0829 -0.3559 -0.3231
    5SAPS  H18R  608   3.893   4.584   4.578  0.2464 -1.4832 -0.8789
    5SAPS  H18S  609   4.042   4.565   4.473 -0.4949 -1.8154  1.1342
    5SAPS  C219  610   3.904   4.724   4.420 -0.0657 -0.4733 -0.1727
    5SAPS  H19R  611   3.975   4.801   4.383 -1.4206  0.5372 -0.7682
    5SAPS  H19S  612   3.822   4.782   4.468  0.5881 -0.7132  1.2776
    5SAPS  C220  613   3.842   4.651   4.301  0.4035  0.2200  0.6488
    5SAPS  H20R  614   3.755   4.593   4.338 -0.5910  0.9415 -0.4901
    5SAPS  H20S  615   3.926   4.583   4.273  0.2472 -0.0046  0.7287
    5SAPS  H20T  616   3.811   4.721   4.221 -1.5468  0.6827  1.7574
    5SAPS   C33  617   4.496   3.756   5.882  0.1950  0.0912  0.4061
    5SAPS   H3X  618   4.393   3.730   5.851  0.7778 -1.5640 -0.2917
    5SAPS   H3Y  619   4.525   3.685   5.963 -0.5755 -0.9503 -0.2049
    5SAPS   C34  620   4.600   3.748   5.771  0.2512 -0.1509  0.1866
    5SAPS   H4X  621   4.704   3.760   5.810  0.3629  1.7371 -0.5866
    5SAPS   H4Y  622   4.569   3.838   5.714 -0.2302  0.4661  1.3800
    5SAPS   C35  623   4.585   3.639   5.666 -0.1915  0.3818 -0.0444
    5SAPS   H5X  624   4.482   3.598   5.671 -0.1674 -0.1750 -2.5883
    5SAPS   H5Y  625   4.648   3.549   5.685  0.8733  1.2709  0.8053
    5SAPS   C36  626   4.608   3.690   5.520 -0.6143  0.8810 -0.3900
    5SAPS   H6X  627   4.615   3.799   5.505  1.3784  0.4965 -2.8813
    5SAPS   H6Y  628   4.514   3.654   5.474  0.1295  1.0413 -2.1371
    5SAPS   C37  629   4.722   3.617   5.455 -0.5073  0.6179 -0.7713
    5SAPS   H7X  630   4.724   3.508   5.475  1.2873  1.0922  2.3846
    5SAPS   H7Y  631   4.812   3.654   5.508 -1.7018  1.4231  0.7902
    5SAPS   C38  632   4.756   3.654   5.313 -0.3542 -0.0056 -0.7843
    5SAPS   H8X  633   4.803   3.559   5.279  0.3760  0.2752 -0.5765
    5SAPS   H8Y  634   4.826   3.740   5.306 -1.4280  1.0287  0.6726
    5SAPS   C39  635   4.632   3.691   5.220 -0.7527 -0.0324 -0.8733
    5SAPS   H9X  636   4.606   3.794   5.253  0.5568 -0.4865  1.8089
    5SAPS   H9Y  637   4.556   3.612   5.238  0.3894 -0.7046  1.3464
    5SAPS  C310  638   4.677   3.712   5.079  0.1069 -0.5353  0.3034
    5SAPS  H10X  639   4.581   3.702   5.025 -1.2168  0.5574  2.3508
    5SAPS  H10Y  640   4.738   3.628   5.038  2.1646  0.9162  0.2166
    5SAPS  C311  641   4.748   3.846   5.059 -0.1324  0.7183 -0.4475
    5SAPS  H11X  642   4.855   3.827   5.080 -0.4068 -0.3866  0.0317
    5SAPS  H11Y  643   4.721   3.930   5.126 -1.7236 -0.6107  0.6608
    5SAPS  C312  644   4.753   3.903   4.920 -0.2479 -0.3806 -0.5550
    5SAPS  H12X  645   4.768   3.832   4.836  0.3364  0.6219 -1.3099
    5SAPS  H12Y  646   4.844   3.965   4.909  0.5984 -1.3606  0.6633
    5SAPS  C313  647   4.641   3.996   4.896  0.4622  0.2740  0.0759
    5SAPS  H13X  648   4.614   4.068   4.976  0.6648  0.2367  0.1799
    5SAPS  H13Y  649   4.562   3.919   4.907  1.1785 -0.3785  0.8733
    5SAPS  C314  650   4.623   4.056   4.757  1.2066 -0.0207 -0.0297
    5SAPS  H14X  651   4.652   3.974   4.687  0.6323  0.7631 -1.2314
    5SAPS  H14Y  652   4.686   4.143   4.730 -1.4965  1.6979 -1.2740
    5SAPS  C315  653   4.477   4.096   4.719 -0.0832  0.0487 -0.9363
    5SAPS  H15X  654   4.423   4.012   4.670 -0.7217  0.5156 -1.0512
    5SAPS  H15Y  655   4.485   4.176   4.642  1.6330  1.9463  1.0808
    5SAPS  C316  656   4.391   4.155   4.835 -0.3862  0.4012  0.3603
    5SAPS  H16X  657   4.450   4.223   4.899  1.4475  1.6102 -2.4302
    5SAPS  H16Y  658   4.358   4.067   4.895  1.7618 -0.9076 -0.2717
    5SAPS  C317  659   4.261   4.233   4.787  0.2619  0.2281  0.7185
    5SAPS  H17X  660   4.215   4.170   4.708 -0.3852  0.3447  0.9988
    5SAPS  H17Y  661   4.292   4.330   4.742  0.9948  1.0427  2.8692
    5SAPS  C318  662   4.158   4.250   4.903 -0.3770 -0.6319 -0.2038
    5SAPS  H18X  663   4.191   4.331   4.972 -0.2889 -0.0902 -0.8700
    5SAPS  H18Y  664   4.148   4.154   4.957  2.4749 -1.1961 -0.5183
    5SAPS  H18Z  665   4.067   4.290   4.854 -1.0599 -1.4953  0.3478
    6SAPS     N  666   6.324   4.102   7.198  0.2513 -0.6274  0.2835
    6SAPS   HN1  667   6.269   4.136   7.280 -0.9151  0.7942 -1.0347
    6SAPS   HN2  668   6.254   4.108   7.122  0.3444  0.0013  0.2352
    6SAPS   HN3  669   6.360   4.005   7.203  0.9053 -0.4571 -0.8190
    6SAPS   C12  670   6.437   4.190   7.179 -0.1412  0.1709 -0.3010
    6SAPS  H12A  671   6.402   4.290   7.160  1.2541  0.5060 -1.3180
    6SAPS   C13  672   6.550   4.200   7.288 -0.0156 -0.3230 -0.9585
    6SAPS  O13A  673   6.545   4.128   7.392  0.1323  0.6906  0.9392
    6SAPS  O13B  674   6.641   4.287   7.274 -0.0399 -0.3153  0.1000
    6SAPS   C11  675   6.508   4.156   7.039 -0.3328  0.2738 -0.4106
    6SAPS  H11A  676   6.559   4.057   7.044 -0.1851  0.3348 -0.6602
    6SAPS  H11B  677   6.585   4.229   7.006  0.7587 -0.6348  0.0407
    6SAPS     P  678   6.407   4.046   6.819  0.1975 -0.1642 -0.2809
    6SAPS   O13  679   6.454   3.917   6.879  0.1102  0.1238 -0.1701
    6SAPS   O14  680   6.279   4.045   6.737  0.2345 -0.6924 -1.1880
    6SAPS   O12  681   6.398   4.150   6.939  0.1203 -0.1348 -0.1986
    6SAPS   O11  682   6.530   4.103   6.732 -0.1654  0.4647 -0.2535
    6SAPS    C1  683   6.545   4.237   6.707 -0.4373  0.2476 -0.0388
    6SAPS    HA  684   6.449   4.293   6.709 -1.6651 -1.6887 -1.3882
    6SAPS    HB  685   6.619   4.272   6.783  0.7887 -2.5901  0.2162
    6SAPS    C2  686   6.602   4.262   6.565 -0.7092  0.5512 -0.3765
    6SAPS    HS  687   6.707   4.224   6.563 -0.3262  1.5309  0.1092
    6SAPS   O21  688   6.594   4.401   6.523 -0.0110  0.3354 -0.6364
    6SAPS   C21  689   6.689   4.471   6.590 -0.3223 -0.9535  0.4221
    6SAPS   O22  690   6.796   4.432   6.635 -0.1480  0.3203 -0.8481
    6SAPS   C22  691   6.645   4.619   6.590  0.4924  0.3649 -0.0620
    6SAPS   H2R  692   6.606   4.647   6.490 -1.0272  0.2195  0.4732
    6SAPS   H2S  693   6.562   4.628   6.663  0.7127 -1.1706  0.4297
    6SAPS    C3  694   6.532   4.178   6.452 -0.4890 -0.1065 -0.6341
    6SAPS    HX  695   6.447   4.242   6.421  0.8742  1.1320 -1.9743
    6SAPS    HY  696   6.481   4.092   6.502 -1.8509  1.6340  1.1686
    6SAPS   O31  697   6.620   4.146   6.345 -0.2676 -0.1790 -0.2851
    6SAPS   C31  698   6.661   4.020   6.337 -0.6952 -0.2075 -0.1800
    6SAPS   O32  699   6.647   3.938   6.426  0.8965  0.8723  0.1457
    6SAPS   C32  700   6.746   4.006   6.209  0.2997  0.3341 -0.2750
    6SAPS   H2X  701   6.851   4.015   6.241  0.2226 -0.2934  0.1619
    6SAPS   H2Y  702   6.712   4.091   6.145 -0.1495  2.5762  2.7145
    6SAPS   C23  703   6.752   4.726   6.625 -0.0717  1.0448 -0.0868
    6SAPS   H3R  704   6.813   4.684   6.707 -2.4411 -0.1257  1.1848
    6SAPS   H3S  705   6.697   4.807   6.677  2.7595  2.4536  0.9560
    6SAPS   C24  706   6.836   4.788   6.515  1.2924  0.0628 -0.6815
    6SAPS   H4R  707   6.892   4.873   6.559  0.4178  0.3722 -0.1532
    6SAPS   H4S  708   6.765   4.845   6.451  0.4812 -1.2800 -1.0241
    6SAPS   C25  709   6.930   4.701   6.438  0.0373  0.1940 -0.0808
    6SAPS   H5R  710   7.024   4.665   6.482  0.8862  1.0451 -1.1507
    6SAPS   C26  711   6.909   4.638   6.317  0.0894  0.4681  0.0178
    6SAPS   H6R  712   6.993   4.577   6.279 -0.2809  0.0488 -0.1289
    6SAPS   C27  713   6.788   4.640   6.228  0.0536  0.3638  0.4426
    6SAPS   H7R  714   6.818   4.678   6.129  1.4002  0.7977  1.0012
    6SAPS   H7S  715   6.714   4.720   6.249  0.4901  1.0785 -0.6791
    6SAPS   C28  716   6.716   4.507   6.225  0.2452  0.2674  0.2900
    6SAPS   H8R  717   6.656   4.494   6.317 -0.5246  2.2926  0.1403
    6SAPS   C29  718   6.724   4.408   6.139  0.1841  0.4679 -0.0754
    6SAPS   H9R  719   6.681   4.311   6.166 -0.3084 -0.3639 -3.4923
    6SAPS  C210  720   6.805   4.414   6.012  0.2039 -0.0821 -0.3361
    6SAPS  H10R  721   6.861   4.510   6.008  0.3257 -0.1837 -1.4027
    6SAPS  H10S  722   6.730   4.400   5.931 -0.3268  0.5523  0.0455
    6SAPS  C211  723   6.896   4.290   6.011  0.2613 -0.7294  0.2653
    6SAPS  H11R  724   6.935   4.261   6.110 -2.3433 -2.2085  0.9663
    6SAPS  C212  725   6.929   4.221   5.901 -0.0914 -0.5862  0.7533
    6SAPS  H12R  726   6.983   4.127   5.920  1.4256  0.2315  0.6611
    6SAPS  C213  727   6.878   4.252   5.761 -0.3446  0.0548 -1.1061
    6SAPS  H13R  728   6.856   4.358   5.737 -1.9956 -0.7817 -3.7852
    6SAPS  H13S  729   6.773   4.218   5.763  0.1041 -1.4179  0.9643
    6SAPS  C214  730   6.966   4.189   5.650  0.5080 -0.5611 -0.6615
    6SAPS  H14R  731   7.062   4.240   5.636 -0.5631  2.4150  1.7450
    6SAPS  C215  732   6.934   4.074   5.577 -0.0036  0.0077  0.3209
    6SAPS  H15R  733   6.999   4.053   5.492 -1.1766 -0.6104 -0.4430
    6SAPS  C216  734   6.822   3.981   5.576  0.3285  0.4365 -0.5178
    6SAPS  H16R  735   6.763   3.994   5.669 -0.8208 -2.5699 -0.7356
    6SAPS  H16S  736   6.866   3.880   5.589  2.0731  0.9363 -2.1063
    6SAPS  C217  737   6.721   3.994   5.459 -0.7585 -0.0786 -0.4011
    6SAPS  H17R  738   6.706   4.102   5.435 -1.0355  0.0537  0.3403
    6SAPS  H17S  739   6.626   3.938   5.478  0.5833 -1.6680  2.0903
    6SAPS  C218  740   6.775   3.953   5.315 -0.0467  0.1289  0.0274
    6SAPS  H18R  741   6.826   4.044   5.279  1.9232 -1.8223 -2.4951
    6SAPS  H18S  742   6.676   3.946   5.264 -0.8007  0.7035  1.3615
    6SAPS  C219  743   6.837   3.820   5.298  0.5322  0.0070 -0.0407
    6SAPS  H19R  744   6.775   3.740   5.343  1.9741 -1.0448  0.1515
    6SAPS  H19S  745   6.932   3.822   5.354  0.5275  0.5271 -0.0437
    6SAPS  C220  746   6.854   3.783   5.149  0.6872 -0.7618 -0.5432
    6SAPS  H20R  747   6.870   3.673   5.144  2.3762 -0.5403 -0.3745
    6SAPS  H20S  748   6.939   3.833   5.098  0.5935 -1.5738 -1.5424
    6SAPS  H20T  749   6.767   3.814   5.087 -2.0801 -3.1860  1.8224
    6SAPS   C33  750   6.723   3.872   6.133 -0.0063  0.4733  0.4087
    6SAPS   H3X  751   6.622   3.867   6.088 -0.4081 -1.9281  1.4792
    6SAPS   H3Y  752   6.737   3.789   6.205 -0.3004 -0.2034 -0.2966
    6SAPS   C34  753   6.829   3.836   6.024 -0.3555  0.3226 -0.5941
    6SAPS   H4X  754   6.920   3.812   6.084 -0.6872 -3.2824 -1.2727
    6SAPS   H4Y  755   6.843   3.918   5.950  3.5393  0.7645  0.3870
    6SAPS   C35  756   6.800   3.703   5.940 -0.2840  0.2133 -0.1868
    6SAPS   H5X  757   6.711   3.721   5.876 -0.0623 -0.6665 -0.7576
    6SAPS   H5Y  758   6.781   3.615   6.005 -0.2068  0.8468  0.7086
    6SAPS   C36  759   6.924   3.668   5.860  0.2501  0.4990 -0.0533
    6SAPS   H6X  760   6.997   3.631   5.936 -1.7234 -2.2872  0.6333
    6SAPS   H6Y  761   6.974   3.756   5.814  3.1836 -0.0826  1.7776
    6SAPS   C37  762   6.895   3.557   5.756 -0.2367 -0.2594  0.2805
    6SAPS   H7X  763   6.850   3.612   5.671  4.2052  3.4077 -0.0673
    6SAPS   H7Y  764   6.835   3.474   5.798  0.3033 -1.2412 -0.8258
    6SAPS   C38  765   7.017   3.482   5.705 -0.1784  0.0195  0.0472
    6SAPS   H8X  766   7.045   3.397   5.771 -0.6450 -0.9984 -1.0224
    6SAPS   H8Y  767   7.099   3.556   5.713 -1.9440  2.0735  0.2931
    6SAPS   C39  768   7.001   3.419   5.567 -0.1604  0.0862 -0.0924
    6SAPS   H9X  769   6.930   3.335   5.558  0.3951 -0.1896 -3.3089
    6SAPS   H9Y  770   7.096   3.366   5.545  1.2082  0.0738  4.7324
    6SAPS  C310  771   6.967   3.516   5.455  0.6027  0.1667 -0.2114
    6SAPS  H10X  772   7.036   3.602   5.468 -0.2870  0.5809  2.3274
    6SAPS  H10Y  773   6.861   3.547   5.462  0.2014 -1.2714  0.2930
    6SAPS  C311  774   6.989   3.458   5.317  0.6040 -0.2584 -0.0753
    6SAPS  H11X  775   6.922   3.510   5.245  0.9663  0.3869  0.0434
    6SAPS  H11Y  776   6.949   3.355   5.315  1.3094 -0.5495  0.2695
    6SAPS  C312  777   7.136   3.453   5.276 -0.5533 -0.5755 -0.0550
    6SAPS  H12X  778   7.189   3.374   5.333 -0.4347  0.7652  1.7860
    6SAPS  H12Y  779   7.184   3.551   5.297 -1.0567 -0.3916  0.2484
    6SAPS  C313  780   7.160   3.438   5.121  0.5722 -0.2435  0.0064
    6SAPS  H13X  781   7.110   3.529   5.081 -3.1017 -1.5261  1.2431
    6SAPS  H13Y  782   7.097   3.355   5.083 -0.9296  0.8385  0.0376
    6SAPS  C314  783   7.305   3.423   5.068 -0.0631  0.0354 -0.8501
    6SAPS  H14X  784   7.304   3.408   4.958  1.4557 -1.3676 -0.7221
    6SAPS  H14Y  785   7.346   3.335   5.122  1.3088  1.1542 -0.0057
    6SAPS  C315  786   7.408   3.537   5.094  0.0638 -1.0742 -0.4023
    6SAPS  H15X  787   7.425   3.551   5.203 -0.4623  0.0567 -0.4510
    6SAPS  H15Y  788   7.363   3.633   5.060 -2.8490 -1.9583  0.5866
    6SAPS  C316  789   7.543   3.514   5.034 -0.4328  0.1750 -0.5119
    6SAPS  H16X  790   7.588   3.418   5.069  1.9770  1.4077 -0.0526
    6SAPS  H16Y  791   7.601   3.603   5.067 -0.2238  0.0373 -0.5021
    6SAPS  C317  792   7.536   3.516   4.883 -0.2690  0.3253  0.4466
    6SAPS  H17X  793   7.440   3.566   4.858  1.3243  2.6680 -1.4463
    6SAPS  H17Y  794   7.533   3.411   4.844 -2.6156  0.4990  0.0064
    6SAPS  C318  795   7.655   3.587   4.814 -0.1733  0.2628 -0.1855
    6SAPS  H18X  796   7.665   3.560   4.707  0.0425 -0.5446  0.0287
    6SAPS  H18Y  797   7.742   3.548   4.871 -0.4806  0.6249  0.5471
    6SAPS  H18Z  798   7.633   3.691   4.845  0.5002 -0.5556  3.4909
    7SAPS     N  799   3.356   4.621   6.889  0.2285 -0.0291  0.4592
    7SAPS   HN1  800   3.443   4.625   6.832  0.4813 -0.1701  0.8298
    7SAPS   HN2  801   3.281   4.674   6.841 -0.5096 -2.6243 -1.4861
    7SAPS   HN3  802   3.371   4.662   6.983  2.4530 -0.3782  0.3163
    7SAPS   C12  803   3.304   4.477   6.888 -0.0355  0.0169 -0.2691
    7SAPS  H12A  804   3.375   4.419   6.946  0.7540 -2.3169 -3.3096
    7SAPS   C13  805   3.155   4.469   6.941 -0.1257  0.5970  0.0300
    7SAPS  O13A  806   3.103   4.562   7.009  0.1858 -0.4983 -0.8865
    7SAPS  O13B  807   3.099   4.359   6.938 -0.3013  0.1641 -0.2369
    7SAPS   C11  808   3.327   4.411   6.744  0.2071  0.2041  0.4644
    7SAPS  H11A  809   3.290   4.480   6.665  0.5957 -0.6213 -0.4573
    7SAPS  H11B  810   3.267   4.318   6.748 -0.1403  0.4558  1.4720
    7SAPS     P  811   3.519   4.303   6.595  0.3972 -0.3943 -0.1207
    7SAPS   O13  812   3.657   4.334   6.565 -0.6086  0.4374  0.2636
    7SAPS   O14  813   3.476   4.158   6.617 -0.8191  0.2667  1.0157
    7SAPS   O12  814   3.470   4.385   6.726  0.1117 -0.8889 -0.5218
    7SAPS   O11  815   3.436   4.365   6.481  0.0358  0.7410 -0.3200
    7SAPS    C1  816   3.452   4.493   6.432  0.2847  0.0050  0.3200
    7SAPS    HA  817   3.374   4.560   6.472 -1.2472 -2.5605  1.8818
    7SAPS    HB  818   3.549   4.543   6.458  1.6053 -2.4517  0.4243
    7SAPS    C2  819   3.454   4.491   6.278  0.5076 -0.6806  1.2056
    7SAPS    HS  820   3.490   4.589   6.241  2.2153 -1.3646  0.9472
    7SAPS   O21  821   3.327   4.441   6.232  0.1711  0.2957  0.3968
    7SAPS   C21  822   3.271   4.505   6.128 -0.1960 -0.3041 -0.0612
    7SAPS   O22  823   3.328   4.595   6.067  0.2697 -0.0947 -0.1349
    7SAPS   C22  824   3.144   4.442   6.084 -0.0396 -1.0922 -0.2283
    7SAPS   H2R  825   3.087   4.390   6.164  0.7534 -2.9256 -0.8121
    7SAPS   H2S  826   3.079   4.526   6.052 -0.2644 -0.9415  0.6152
    7SAPS    C3  827   3.559   4.395   6.223 -0.1845  0.1020 -0.2443
    7SAPS    HX  828   3.519   4.294   6.245  0.7101 -0.1331  0.3616
    7SAPS    HY  829   3.650   4.415   6.283 -0.3683 -0.2485  0.1536
    7SAPS   O31  830   3.590   4.416   6.086  0.1910 -0.4934 -0.0600
    7SAPS   C31  831   3.662   4.522   6.058  0.0919  0.3185 -0.4272
    7SAPS   O32  832   3.703   4.605   6.133 -0.4719  0.0454 -0.0096
    7SAPS   C32  833   3.718   4.504   5.913  0.6707 -0.8261  0.0123
    7SAPS   H2X  834   3.641   4.531   5.838  0.8284 -0.0439  0.1318
    7SAPS   H2Y  835   3.751   4.398   5.901  0.9803 -0.6622 -0.6129
    7SAPS   C23  836   3.167   4.348   5.964  0.2712  0.1249  0.1499
    7SAPS   H3R  837   3.216   4.256   6.004  0.6201 -0.3888 -1.3932
    7SAPS   H3S  838   3.229   4.391   5.883  1.5703 -0.1982  0.9476
    7SAPS   C24  839   3.031   4.305   5.903  0.4259  0.1721 -0.3842
    7SAPS   H4R  840   3.052   4.236   5.818  1.7424  1.1604 -0.8840
    7SAPS   H4S  841   2.966   4.389   5.869 -0.3973  0.1188  1.0022
    7SAPS   C25  842   2.949   4.221   6.006  0.3119  0.7937 -0.7432
    7SAPS   H5R  843   2.899   4.275   6.087  0.6267 -2.0751  1.5371
    7SAPS   C26  844   2.915   4.091   6.002  0.4744 -0.0187  0.3731
    7SAPS   H6R  845   2.872   4.046   6.093  2.6667 -0.5835  1.1892
    7SAPS   C27  846   2.948   3.995   5.894 -0.3585  0.2165 -0.0233
    7SAPS   H7R  847   3.028   4.036   5.829  0.0937 -0.5948  0.0019
    7SAPS   H7S  848   2.868   3.999   5.816 -0.1179  1.3127 -0.2227
    7SAPS   C28  849   2.983   3.852   5.929 -0.7639  0.3225 -0.1484
    7SAPS   H8R  850   3.058   3.844   6.009 -0.0092  1.4973 -0.7015
    7SAPS   C29  851   2.909   3.740   5.887 -0.1774 -0.5729  0.2704
    7SAPS   H9R  852   2.951   3.642   5.912  0.0868 -0.8533 -1.1573
    7SAPS  C210  853   2.797   3.741   5.783 -0.5315 -0.0173  0.3106
    7SAPS  H10R  854   2.791   3.838   5.730 -1.9468  0.1025  0.6547
    7SAPS  H10S  855   2.704   3.697   5.826  0.6654 -2.8480  0.2684
    7SAPS  C211  856   2.846   3.649   5.673 -0.4209 -0.3977 -0.0970
    7SAPS  H11R  857   2.858   3.548   5.715  1.4526  0.3112  1.2202
    7SAPS  C212  858   2.864   3.671   5.544  0.0181  1.3064  0.0294
    7SAPS  H12R  859   2.894   3.586   5.482 -1.0164  0.4279  0.7106
    7SAPS  C213  860   2.860   3.810   5.484  0.0599 -0.2850  0.2220
    7SAPS  H13R  861   2.778   3.869   5.531 -0.4489 -0.9616  0.2130
    7SAPS  H13S  862   2.819   3.812   5.381  0.1765 -0.9620  0.1583
    7SAPS  C214  863   2.990   3.897   5.504 -0.3258  0.2082 -0.1189
    7SAPS  H14R  864   3.038   3.879   5.601  0.5538 -1.4350 -0.8218
    7SAPS  C215  865   3.066   3.954   5.410 -0.0440  0.2501 -0.0927
    7SAPS  H15R  866   3.166   3.988   5.441  0.6398 -1.2202 -0.6119
    7SAPS  C216  867   3.018   3.980   5.266  0.3915  0.6872 -0.5196
    7SAPS  H16R  868   2.909   3.999   5.273 -0.3765 -1.3875 -4.0658
    7SAPS  H16S  869   3.036   3.894   5.197 -0.4870  0.5509 -0.5885
    7SAPS  C217  870   3.103   4.084   5.192 -0.1781  0.0814 -0.0022
    7SAPS  H17R  871   3.128   4.170   5.258  1.4686  1.9008 -2.7856
    7SAPS  H17S  872   3.047   4.125   5.106  2.5843  1.3457 -1.3469
    7SAPS  C218  873   3.233   4.020   5.137  0.5584  0.1963 -0.2842
    7SAPS  H18R  874   3.198   3.950   5.058  2.3952 -0.2053 -0.7964
    7SAPS  H18S  875   3.282   3.968   5.222 -0.8378  1.1021  1.1253
    7SAPS  C219  876   3.327   4.120   5.062  0.1807 -0.2406 -0.2519
    7SAPS  H19R  877   3.426   4.069   5.059  0.5696  0.4954 -0.1944
    7SAPS  H19S  878   3.345   4.215   5.116 -0.5790 -0.6561  0.7737
    7SAPS  C220  879   3.289   4.146   4.919  0.2884  0.1708  1.4176
    7SAPS  H20R  880   3.273   4.049   4.868  2.1605 -0.0365  1.1286
    7SAPS  H20S  881   3.368   4.205   4.867  1.5009 -0.6361  2.2763
    7SAPS  H20T  882   3.195   4.204   4.914  0.3816  0.4137  2.2344
    7SAPS   C33  883   3.838   4.594   5.880 -0.1419 -0.2947 -0.3239
    7SAPS   H3X  884   3.912   4.596   5.964  1.1923  0.0323 -1.4660
    7SAPS   H3Y  885   3.794   4.695   5.866  0.7271  0.1062 -0.2636
    7SAPS   C34  886   3.922   4.535   5.766  0.5762  0.1699  0.6763
    7SAPS   H4X  887   3.982   4.451   5.807 -0.7614 -0.9246  0.4459
    7SAPS   H4Y  888   4.000   4.608   5.734 -0.9464  1.0238 -1.2744
    7SAPS   C35  889   3.834   4.491   5.647  0.1119 -0.0723 -0.3210
    7SAPS   H5X  890   3.759   4.566   5.616  0.0016 -0.3544 -0.7362
    7SAPS   H5Y  891   3.788   4.394   5.677  2.6421 -1.6369 -1.1391
    7SAPS   C36  892   3.910   4.440   5.523  0.3138 -0.0961 -0.0047
    7SAPS   H6X  893   3.985   4.364   5.551  1.0502  0.5478 -0.2138
    7SAPS   H6Y  894   3.968   4.524   5.479  0.2190 -0.4188 -0.7549
    7SAPS   C37  895   3.816   4.379   5.423  0.6337  0.0662 -0.7154
    7SAPS   H7X  896   3.730   4.441   5.389 -0.7092 -1.1832  0.2689
    7SAPS   H7Y  897   3.759   4.296   5.470  0.0734 -0.3463 -2.0825
    7SAPS   C38  898   3.893   4.307   5.302  0.2245 -0.4887 -0.8904
    7SAPS   H8X  899   3.971   4.253   5.359 -0.1720  0.5695  0.7181
    7SAPS   H8Y  900   3.932   4.383   5.230  0.1851 -0.0922 -0.4972
    7SAPS   C39  901   3.806   4.188   5.233 -0.1222 -0.7852  0.0532
    7SAPS   H9X  902   3.786   4.112   5.311 -0.1700 -0.1621  0.6569
    7SAPS   H9Y  903   3.873   4.135   5.162  0.5682  2.1108 -1.6081
    7SAPS  C310  904   3.678   4.235   5.161 -0.3649  0.2502 -0.2315
    7SAPS  H10X  905   3.619   4.280   5.244  1.3421 -2.1582  2.4850
    7SAPS  H10Y  906   3.616   4.148   5.128 -0.7383  0.0064  1.0331
    7SAPS  C311  907   3.712   4.325   5.045 -0.0679 -0.0645  0.1402
    7SAPS  H11X  908   3.776   4.408   5.080  1.7893 -0.0334 -2.9443
    7SAPS  H11Y  909   3.618   4.367   5.003 -0.9213  1.2128  3.0890
    7SAPS  C312  910   3.791   4.251   4.933  0.0307  0.2796 -0.2506
    7SAPS  H12X  911   3.896   4.229   4.964 -0.4918  0.0246  1.4765
    7SAPS  H12Y  912   3.781   4.314   4.843  0.3865 -0.8733 -1.1225
    7SAPS  C313  913   3.724   4.114   4.894 -0.0952  0.3229 -0.1869
    7SAPS  H13X  914   3.614   4.134   4.894 -0.5297 -1.7109  1.5958
    7SAPS  H13Y  915   3.740   4.039   4.975 -0.3100  1.9329  1.4119
    7SAPS  C314  916   3.768   4.058   4.755  0.3284  0.1987  0.8973
    7SAPS  H14X  917   3.871   4.018   4.769  1.0360  1.1296 -1.1825
    7SAPS  H14Y  918   3.773   4.135   4.675  0.3592 -2.2836 -1.6768
    7SAPS  C315  919   3.681   3.926   4.717  0.2671  0.2467  0.1546
    7SAPS  H15X  920   3.680   3.858   4.804 -0.9098 -1.0693 -0.8449
    7SAPS  H15Y  921   3.734   3.873   4.634  1.4345  0.2611  0.8624
    7SAPS  C316  922   3.538   3.963   4.674 -0.9195  0.5939  0.2907
    7SAPS  H16X  923   3.545   4.029   4.585  1.0749  0.5800  0.3843
    7SAPS  H16Y  924   3.486   4.007   4.762 -3.5302 -1.8265  0.0748
    7SAPS  C317  925   3.463   3.842   4.631 -0.0434  0.6015  1.1539
    7SAPS  H17X  926   3.484   3.752   4.693  0.2417  0.5195  0.9399
    7SAPS  H17Y  927   3.487   3.823   4.524 -1.0023  0.4711  0.9532
    7SAPS  C318  928   3.316   3.859   4.643  0.4960 -0.3102 -0.1235
    7SAPS  H18X  929   3.282   3.872   4.747  2.1102 -0.3707  0.4479
    7SAPS  H18Y  930   3.261   3.773   4.600 -0.5476  1.1127 -1.7716
    7SAPS  H18Z  931   3.277   3.951   4.593  1.2076  0.1037  0.0623
    8SAPS     N  932   1.911   5.265   6.565 -0.0706 -0.0142  0.0017
    8SAPS   HN1  933   1.836   5.272   6.493 -0.6463  0.4623  0.6448
    8SAPS   HN2  934   1.977   5.344   6.551  0.1076 -0.4664 -2.2459
    8SAPS   HN3  935   1.960   5.174   6.551 -0.7373 -0.6756  1.7176
    8SAPS   C12  936   1.844   5.265   6.697 -0.4717  0.4775 -0.1843
    8SAPS  H12A  937   1.788   5.355   6.720 -0.4790  0.6248 -0.7691
    8SAPS   C13  938   1.751   5.148   6.709 -0.4328 -0.2469 -0.2200
    8SAPS  O13A  939   1.744   5.049   6.628  0.1909 -0.3956 -0.2425
    8SAPS  O13B  940   1.685   5.147   6.820  0.0784 -0.2938 -0.9125
    8SAPS   C11  941   1.947   5.247   6.813  0.8611  0.1518  0.0505
    8SAPS  H11A  942   2.012   5.164   6.778  2.3073  0.6084  1.5070
    8SAPS  H11B  943   1.897   5.217   6.907 -0.6984 -0.1250 -0.8440
    8SAPS     P  944   2.161   5.400   6.798 -0.1863  0.3301 -0.2977
    8SAPS   O13  945   2.177   5.537   6.837 -0.4274 -0.1296  0.1874
    8SAPS   O14  946   2.255   5.300   6.858 -0.1266 -0.2022  0.5004
    8SAPS   O12  947   2.016   5.368   6.842  0.1339 -0.1010 -0.3469
    8SAPS   O11  948   2.146   5.386   6.640  0.0329 -0.1572  0.0544
    8SAPS    C1  949   2.255   5.433   6.560  0.4740  0.8764 -0.1437
    8SAPS    HA  950   2.263   5.544   6.555  0.0653  0.8873 -0.6430
    8SAPS    HB  951   2.347   5.396   6.610  0.7999  2.0553  0.1543
    8SAPS    C2  952   2.250   5.367   6.418  0.3195  0.0523  0.9300
    8SAPS    HS  953   2.328   5.411   6.352 -0.2316  1.0794  0.9451
    8SAPS   O21  954   2.117   5.391   6.358 -0.3159 -0.4509 -0.3045
    8SAPS   C21  955   2.094   5.526   6.336 -0.1350 -0.2356 -0.3151
    8SAPS   O22  956   2.178   5.617   6.353  0.2209  0.2093  0.6181
    8SAPS   C22  957   1.962   5.541   6.254  0.3437 -0.4371  0.3260
    8SAPS   H2R  958   1.973   5.476   6.165  0.1473  1.7482 -1.3583
    8SAPS   H2S  959   1.877   5.507   6.318  0.2955 -1.0640 -0.0683
    8SAPS    C3  960   2.286   5.210   6.425  0.2532  0.3016 -0.7736
    8SAPS    HX  961   2.233   5.163   6.511  1.3797  2.0636  0.9812
    8SAPS    HY  962   2.395   5.196   6.447 -0.0371 -0.3853  0.3132
    8SAPS   O31  963   2.256   5.159   6.297  0.0832  0.2369  0.5371
    8SAPS   C31  964   2.135   5.124   6.285  1.0795 -0.0998 -0.1768
    8SAPS   O32  965   2.038   5.127   6.362 -0.2662 -0.6979 -0.4634
    8SAPS   C32  966   2.117   5.057   6.146  0.6791 -0.4898 -0.2039
    8SAPS   H2X  967   2.023   4.998   6.142  1.4426 -1.6703 -1.9343
    8SAPS   H2Y  968   2.191   4.974   6.142 -1.4576 -2.5370  0.2031
    8SAPS   C23  969   1.938   5.693   6.227 -0.0709  0.6781 -0.0839
    8SAPS   H3R  970   2.025   5.745   6.183  0.9489 -1.9534 -1.3335
    8SAPS   H3S  971   1.920   5.734   6.329  0.2142 -0.4897  0.4527
    8SAPS   C24  972   1.809   5.707   6.142 -0.0225  0.2023 -0.1926
    8SAPS   H4R  973   1.786   5.816   6.145 -0.2816  0.1283  0.5757
    8SAPS   H4S  974   1.726   5.644   6.181  0.5195 -1.1231 -1.0747
    8SAPS   C25  975   1.841   5.661   6.001  0.2142  0.4319  0.2710
    8SAPS   H5R  976   1.939   5.699   5.968  1.0451 -0.6995  1.3628
    8SAPS   C26  977   1.760   5.581   5.934 -0.4840  0.9706  0.3278
    8SAPS   H6R  978   1.787   5.547   5.833 -1.1917  0.9303  0.1486
    8SAPS   C27  979   1.624   5.533   5.984  0.0745  0.2482  0.4602
    8SAPS   H7R  980   1.558   5.510   5.898  1.2604  0.5872 -0.5645
    8SAPS   H7S  981   1.575   5.615   6.040 -0.9656  0.9776 -1.4128
    8SAPS   C28  982   1.637   5.406   6.066  0.2519  0.5963 -0.7173
    8SAPS   H8R  983   1.694   5.417   6.159  1.1574 -1.1430 -1.0331
    8SAPS   C29  984   1.598   5.286   6.031 -0.2670  0.4051 -0.4018
    8SAPS   H9R  985   1.624   5.207   6.103 -0.4917  0.6442 -0.0583
    8SAPS  C210  986   1.522   5.235   5.911  0.1054  0.2279 -0.2049
    8SAPS  H10R  987   1.590   5.251   5.825  1.2403  0.5883  0.7428
    8SAPS  H10S  988   1.431   5.297   5.895 -0.9549 -1.3813 -0.8004
    8SAPS  C211  989   1.482   5.093   5.915  0.2352 -0.7082 -0.7299
    8SAPS  H11R  990   1.455   5.054   6.014 -2.6897  0.2081 -1.0573
    8SAPS  C212  991   1.475   5.004   5.819  0.9027  0.4310 -0.7037
    8SAPS  H12R  992   1.456   4.900   5.846  0.3564  0.4128 -1.1349
    8SAPS  C213  993   1.510   5.026   5.669 -0.1766  0.0330 -0.4345
    8SAPS  H13R  994   1.554   5.125   5.646 -1.2421  0.5734 -0.2109
    8SAPS  H13S  995   1.417   5.019   5.608 -1.5875  0.1153  1.6051
    8SAPS  C214  996   1.624   4.928   5.634 -0.3768  0.6521 -0.3373
    8SAPS  H14R  997   1.698   4.896   5.709  0.6058 -1.1590 -1.9874
    8SAPS  C215  998   1.624   4.850   5.523  0.6806  0.4153  0.2037
    8SAPS  H15R  999   1.710   4.784   5.499 -0.4950 -0.9134 -0.4939
    8SAPS  C216 1000   1.523   4.845   5.410  0.2515 -0.5363  0.9545
    8SAPS  H16R 1001   1.417   4.860   5.439 -0.6120 -0.1450 -2.0519
    8SAPS  H16S 1002   1.529   4.750   5.352 -1.4753  1.2364 -2.4631
    8SAPS  C217 1003   1.551   4.960   5.302 -0.0191  0.1886  0.1722
    8SAPS  H17R 1004   1.650   4.962   5.252  0.3477  1.6667  0.8989
    8SAPS  H17S 1005   1.557   5.059   5.353  0.0916 -1.0938  2.8440
    8SAPS  C218 1006   1.443   4.955   5.190  0.3563  0.1433  0.7159
    8SAPS  H18R 1007   1.429   4.846   5.178 -0.4351  0.2088  0.9973
    8SAPS  H18S 1008   1.488   5.004   5.101  0.7319  1.7091  1.7230
    8SAPS  C219 1009   1.306   5.014   5.230 -0.9237 -0.0008  0.2924
    8SAPS  H19R 1010   1.276   4.956   5.320 -1.6797 -2.3376 -1.3744
    8SAPS  H19S 1011   1.236   4.993   5.146  0.8460 -1.1804 -0.9577
    8SAPS  C220 1012   1.313   5.169   5.251  0.1767  0.1993  0.7327
    8SAPS  H20R 1013   1.394   5.196   5.322  1.6809  1.6769 -1.4400
    8SAPS  H20S 1014   1.219   5.211   5.292  0.5888  0.2572  1.6421
    8SAPS  H20T 1015   1.334   5.231   5.161 -1.4844  2.0728  1.5677
    8SAPS   C33 1016   2.152   5.155   6.042  0.2335 -0.2093 -0.0005
    8SAPS   H3X 1017   2.210   5.098   5.966 -0.0357  1.0556 -1.1997
    8SAPS   H3Y 1018   2.231   5.230   6.064 -0.0058  0.5233 -1.4648
    8SAPS   C34 1019   2.039   5.201   5.956  0.2208 -0.4622 -0.3727
    8SAPS   H4X 1020   1.983   5.273   6.020  0.0116 -0.8206 -0.1504
    8SAPS   H4Y 1021   1.968   5.116   5.945 -0.1249 -0.4193  1.3576
    8SAPS   C35 1022   2.094   5.261   5.827  0.4786  0.1854  0.3416
    8SAPS   H5X 1023   2.109   5.178   5.754 -3.0944  0.4556 -0.9072
    8SAPS   H5Y 1024   2.193   5.309   5.839  1.3983 -1.3295 -0.8231
    8SAPS   C36 1025   2.007   5.359   5.749  0.4334 -0.3803 -0.2656
    8SAPS   H6X 1026   2.070   5.385   5.661  0.7405 -0.8560 -0.1911
    8SAPS   H6Y 1027   1.984   5.448   5.812  1.5887 -1.6819  2.1531
    8SAPS   C37 1028   1.877   5.284   5.693  0.6996 -0.3861  0.5467
    8SAPS   H7X 1029   1.807   5.266   5.777 -0.6599 -1.1977 -0.7235
    8SAPS   H7Y 1030   1.906   5.184   5.656 -0.2518 -1.0006  1.4170
    8SAPS   C38 1031   1.802   5.356   5.570 -0.8758 -0.4714 -0.5016
    8SAPS   H8X 1032   1.779   5.458   5.607  1.7951 -0.0607  0.2220
    8SAPS   H8Y 1033   1.707   5.299   5.556 -1.1775 -0.4895  1.3224
    8SAPS   C39 1034   1.891   5.352   5.444 -0.6221 -0.3620  0.8562
    8SAPS   H9X 1035   1.919   5.247   5.422 -0.2049 -0.9143  3.6675
    8SAPS   H9Y 1036   1.982   5.410   5.469  0.5721 -0.7305 -2.2180
    8SAPS  C310 1037   1.825   5.402   5.311 -0.0108 -0.2985 -0.2478
    8SAPS  H10X 1038   1.904   5.390   5.233 -0.7612  0.7106 -1.1916
    8SAPS  H10Y 1039   1.799   5.510   5.308  1.3170  0.0346 -2.7158
    8SAPS  C311 1040   1.707   5.312   5.272 -0.5299  0.5162 -0.4150
    8SAPS  H11X 1041   1.640   5.337   5.356  1.3669  0.3513  1.2233
    8SAPS  H11Y 1042   1.740   5.206   5.281 -1.5723  0.3084  1.3492
    8SAPS  C312 1043   1.648   5.353   5.140  0.3958  0.1703  0.2022
    8SAPS  H12X 1044   1.609   5.457   5.144  0.8283  0.3147  0.8275
    8SAPS  H12Y 1045   1.564   5.281   5.128  2.1098 -1.4648 -4.4053
    8SAPS  C313 1046   1.742   5.329   5.015 -0.7037 -0.2403  0.5450
    8SAPS  H13X 1047   1.804   5.238   5.029 -1.2183 -1.0947 -2.2158
    8SAPS  H13Y 1048   1.824   5.405   5.007 -0.4357 -0.5376  0.4402
    8SAPS  C314 1049   1.667   5.329   4.879  0.8595 -0.3726 -0.4701
    8SAPS  H14X 1050   1.740   5.314   4.797  2.1352 -0.0030  0.5697
    8SAPS  H14Y 1051   1.635   5.433   4.856  2.6339  0.2090 -0.3854
    8SAPS  C315 1052   1.555   5.234   4.849  0.1293  0.3209  0.5106
    8SAPS  H15X 1053   1.507   5.261   4.752  0.4729 -0.9491 -0.0306
    8SAPS  H15Y 1054   1.483   5.258   4.931 -0.4227 -0.9472  0.4219
    8SAPS  C316 1055   1.587   5.087   4.856  0.1293 -0.5783 -0.5364
    8SAPS  H16X 1056   1.498   5.033   4.895  1.4250 -2.6028 -0.2359
    8SAPS  H16Y 1057   1.667   5.067   4.930  2.0757 -2.6531 -2.9773
    8SAPS  C317 1058   1.641   5.036   4.724  0.2256 -0.2350 -0.0710
    8SAPS  H17X 1059   1.704   5.113   4.672 -1.4755 -0.2687 -2.3614
    8SAPS  H17Y 1060   1.548   5.018   4.665 -0.6624 -0.0842  1.2574
    8SAPS  C318 1061   1.728   4.909   4.727  0.2654  0.1440 -0.1176
    8SAPS  H18X 1062   1.771   4.887   4.627 -0.6572  0.7345 -0.6599
    8SAPS  H18Y 1063   1.671   4.820   4.764 -0.5844 -0.2157 -2.1540
    8SAPS  H18Z 1064   1.810   4.928   4.799  1.2698  0.9460 -1.4293
    9SAPS     N 1065   6.011   4.112   6.794 -0.2296 -0.1401 -0.8338
    9SAPS   HN1 1066   5.967   4.021   6.819  1.7885 -0.7271  0.9165
    9SAPS   HN2 1067   5.973   4.153   6.706  0.1138  1.2037 -0.3806
    9SAPS   HN3 1068   6.111   4.091   6.773 -0.1991 -0.2661 -0.5755
    9SAPS   C12 1069   6.006   4.215   6.909  0.3037 -0.9413 -0.0248
    9SAPS  H12A 1070   5.907   4.241   6.941 -0.2139  1.1760 -2.9087
    9SAPS   C13 1071   6.070   4.161   7.037 -0.5193  0.0118  0.0892
    9SAPS  O13A 1072   6.112   4.044   7.035  0.0405 -0.5790 -0.0051
    9SAPS  O13B 1073   6.055   4.229   7.143  0.6216 -0.0105  0.2629
    9SAPS   C11 1074   6.092   4.343   6.863  0.2614  0.0978 -0.2011
    9SAPS  H11A 1075   6.200   4.328   6.841 -0.1199 -0.8844 -1.4957
    9SAPS  H11B 1076   6.090   4.409   6.953  0.4338  3.5538 -2.5614
    9SAPS     P 1077   5.990   4.561   6.745  0.2550 -0.3288 -0.0588
    9SAPS   O13 1078   5.840   4.557   6.753 -0.2863 -0.5052 -0.2806
    9SAPS   O14 1079   6.065   4.633   6.845 -0.4368  0.1963 -0.8371
    9SAPS   O12 1080   6.032   4.415   6.752  0.4930  0.8250 -0.3038
    9SAPS   O11 1081   6.033   4.606   6.603  0.0742  0.3527  0.2041
    9SAPS    C1 1082   6.001   4.504   6.500  0.6535 -0.0015  0.7619
    9SAPS    HA 1083   5.924   4.429   6.528 -0.9771  2.0525  2.1648
    9SAPS    HB 1084   5.949   4.556   6.416  0.8185  0.0112  0.6671
    9SAPS    C2 1085   6.132   4.441   6.455  0.4509 -0.4301  0.0673
    9SAPS    HS 1086   6.189   4.408   6.545  0.3176 -0.0629  0.2880
    9SAPS   O21 1087   6.208   4.535   6.368 -0.1364 -0.1671  0.9298
    9SAPS   C21 1088   6.293   4.613   6.424 -0.2828  1.1115 -0.6274
    9SAPS   O22 1089   6.316   4.610   6.543 -0.0595  0.7264  0.4223
    9SAPS   C22 1090   6.362   4.706   6.332  0.6863 -0.0783  0.0407
    9SAPS   H2R 1091   6.322   4.808   6.352 -1.7844 -0.8707 -0.5295
    9SAPS   H2S 1092   6.468   4.691   6.361  1.3206 -0.8360 -2.4863
    9SAPS    C3 1093   6.099   4.312   6.371 -0.3148  0.1284 -0.1542
    9SAPS    HX 1094   6.058   4.227   6.430 -0.9940 -0.9782 -2.0946
    9SAPS    HY 1095   6.197   4.278   6.332  0.1091 -0.9955  1.7644
    9SAPS   O31 1096   6.001   4.341   6.277 -0.0806  0.1574 -0.2410
    9SAPS   C31 1097   6.050   4.375   6.153 -0.4321 -0.2202  0.4705
    9SAPS   O32 1098   6.168   4.363   6.122  0.3988 -0.6402 -0.0627
    9SAPS   C32 1099   5.945   4.436   6.067 -0.2571  0.0598 -1.0340
    9SAPS   H2X 1100   5.928   4.540   6.102 -1.5140 -0.8501  1.3024
    9SAPS   H2Y 1101   5.845   4.388   6.075 -0.4000  0.2258 -1.7480
    9SAPS   C23 1102   6.343   4.676   6.178  0.5503 -0.3328 -0.4774
    9SAPS   H3R 1103   6.233   4.676   6.165  0.4744  0.8346  0.0428
    9SAPS   H3S 1104   6.376   4.575   6.145  2.4824 -0.0881  0.5999
    9SAPS   C24 1105   6.415   4.771   6.096 -0.1085  0.1810 -0.8396
    9SAPS   H4R 1106   6.519   4.737   6.080 -0.3505 -2.3716  2.0412
    9SAPS   H4S 1107   6.416   4.868   6.151  0.1174  0.7311 -1.7949
    9SAPS   C25 1108   6.346   4.803   5.967 -0.0827  0.5078 -0.5548
    9SAPS   H5R 1109   6.269   4.881   5.979 -0.4134  0.3043 -1.2829
    9SAPS   C26 1110   6.326   4.730   5.860  0.4085 -0.1187 -0.5440
    9SAPS   H6R 1111   6.276   4.768   5.769  2.2587  0.9675 -1.1566
    9SAPS   C27 1112   6.390   4.602   5.834 -1.1136  0.0136 -0.2930
    9SAPS   H7R 1113   6.319   4.529   5.789 -2.6492  1.2471  0.0738
    9SAPS   H7S 1114   6.411   4.557   5.933 -1.2199 -1.1945 -0.8054
    9SAPS   C28 1115   6.533   4.611   5.780  0.0066 -0.3134  0.0145
    9SAPS   H8R 1116   6.598   4.664   5.852  0.0907  2.9985 -2.2438
    9SAPS   C29 1117   6.571   4.582   5.655 -0.0632 -0.0227 -0.8046
    9SAPS   H9R 1118   6.675   4.595   5.621  0.9655 -2.0137  1.2779
    9SAPS  C210 1119   6.470   4.521   5.563 -0.7771  0.2705 -0.4476
    9SAPS  H10R 1120   6.454   4.583   5.472 -1.9551  0.3436 -0.2077
    9SAPS  H10S 1121   6.363   4.524   5.594 -0.6213 -1.2939  0.3790
    9SAPS  C211 1122   6.499   4.374   5.529 -0.1952  0.2876 -0.4570
    9SAPS  H11R 1123   6.533   4.314   5.615  0.0999  2.3788  0.9518
    9SAPS  C212 1124   6.471   4.309   5.413  0.3080  0.0363 -0.3038
    9SAPS  H12R 1125   6.480   4.199   5.408 -1.0567 -0.0651 -0.8209
    9SAPS  C213 1126   6.426   4.369   5.287 -0.3784 -0.0521  0.5466
    9SAPS  H13R 1127   6.364   4.457   5.313  0.0568 -0.0929  1.7684
    9SAPS  H13S 1128   6.364   4.292   5.237  0.3934  1.3490 -2.9327
    9SAPS  C214 1129   6.539   4.404   5.193  0.4177  0.1200  0.2835
    9SAPS  H14R 1130   6.598   4.491   5.227 -0.4814  1.0931 -0.5440
    9SAPS  C215 1131   6.571   4.349   5.079 -0.2971 -0.5016  0.1508
    9SAPS  H15R 1132   6.648   4.392   5.014 -0.6328 -0.0714  0.0322
    9SAPS  C216 1133   6.493   4.232   5.017  0.2044 -0.5218  1.0386
    9SAPS  H16R 1134   6.428   4.270   4.935 -0.3663  0.7906  2.0585
    9SAPS  H16S 1135   6.422   4.179   5.083 -0.0001 -2.4472 -0.6117
    9SAPS  C217 1136   6.583   4.120   4.952  0.4348 -0.4331  0.5158
    9SAPS  H17R 1137   6.507   4.043   4.924 -1.8131  1.6516  0.6196
    9SAPS  H17S 1138   6.657   4.075   5.022  1.2801  2.5290  1.6770
    9SAPS  C218 1139   6.646   4.156   4.822 -0.8134  0.4351  0.2994
    9SAPS  H18R 1140   6.720   4.083   4.783 -0.6838  0.7126  0.0269
    9SAPS  H18S 1141   6.691   4.257   4.832 -0.7139  0.4628 -0.3876
    9SAPS  C219 1142   6.545   4.176   4.712  0.6153  0.7911  0.4096
    9SAPS  H19R 1143   6.490   4.273   4.717 -1.8611 -0.4297 -1.2051
    9SAPS  H19S 1144   6.465   4.100   4.722  1.2559  0.0907  0.2665
    9SAPS  C220 1145   6.612   4.166   4.581  0.2390 -0.7460  0.0410
    9SAPS  H20R 1146   6.689   4.245   4.569  1.1126 -1.2862  1.7474
    9SAPS  H20S 1147   6.539   4.164   4.497 -0.7917 -2.6613  0.9132
    9SAPS  H20T 1148   6.653   4.063   4.570 -1.4104 -1.3999 -0.3853
    9SAPS   C33 1149   5.992   4.454   5.919  0.1826 -0.1041 -0.5926
    9SAPS   H3X 1150   6.021   4.356   5.875  3.8614  0.5260  0.1146
    9SAPS   H3Y 1151   6.083   4.516   5.912  0.2739 -0.1791 -0.1020
    9SAPS   C34 1152   5.881   4.516   5.840  0.0733 -0.3997 -0.9112
    9SAPS   H4X 1153   5.865   4.618   5.880  1.1575 -0.4960 -0.1795
    9SAPS   H4Y 1154   5.790   4.453   5.847 -0.9346  1.1315  0.4315
    9SAPS   C35 1155   5.925   4.539   5.695  0.4066 -0.2710 -0.6766
    9SAPS   H5X 1156   5.946   4.436   5.657  0.5430 -0.3300 -0.4460
    9SAPS   H5Y 1157   6.022   4.593   5.685 -0.6498  1.5379 -1.6987
    9SAPS   C36 1158   5.822   4.613   5.614  0.6290  0.0543 -0.0831
    9SAPS   H6X 1159   5.791   4.697   5.680  1.1958 -0.2870  0.6270
    9SAPS   H6Y 1160   5.733   4.547   5.614  0.8184 -0.2857  2.3291
    9SAPS   C37 1161   5.866   4.649   5.477  0.2501 -0.1342  0.5031
    9SAPS   H7X 1162   5.931   4.739   5.478  0.5099 -0.2791 -1.2135
    9SAPS   H7Y 1163   5.772   4.674   5.423  0.5424 -2.3658 -1.2116
    9SAPS   C38 1164   5.929   4.544   5.389  0.5845 -0.0070 -0.3063
    9SAPS   H8X 1165   5.866   4.454   5.376 -1.6726  1.3495  0.6661
    9SAPS   H8Y 1166   6.022   4.506   5.437  1.0961  0.6332 -0.7514
    9SAPS   C39 1167   5.957   4.599   5.248  0.6792 -0.5310  0.7301
    9SAPS   H9X 1168   6.033   4.680   5.253  1.7183 -1.0343 -3.4343
    9SAPS   H9Y 1169   5.864   4.647   5.211  1.4637  0.2968 -0.2376
    9SAPS  C310 1170   6.024   4.499   5.153  0.1457  0.4290 -0.2923
    9SAPS  H10X 1171   5.962   4.412   5.126 -1.2147  1.2749  0.0330
    9SAPS  H10Y 1172   6.117   4.464   5.203  0.5770  2.4953  0.4528
    9SAPS  C311 1173   6.076   4.567   5.028 -0.4467 -0.5629 -0.2240
    9SAPS  H11X 1174   6.146   4.645   5.063 -0.6990 -1.3001  2.1485
    9SAPS  H11Y 1175   5.999   4.624   4.972 -1.4304 -1.4487  0.1880
    9SAPS  C312 1176   6.156   4.474   4.934 -0.2126  1.0606 -0.3546
    9SAPS  H12X 1177   6.097   4.385   4.901  3.6677 -1.7878 -0.2088
    9SAPS  H12Y 1178   6.244   4.434   4.987  0.0300  0.5242 -1.1494
    9SAPS  C313 1179   6.208   4.556   4.818 -0.4669  0.5947 -0.1905
    9SAPS  H13X 1180   6.310   4.585   4.851  0.1178 -2.1548  0.6936
    9SAPS  H13Y 1181   6.149   4.648   4.798 -0.3580  0.3466 -1.8055
    9SAPS  C314 1182   6.231   4.462   4.691 -0.3426  0.0559  0.3117
    9SAPS  H14X 1183   6.139   4.402   4.681  0.0067 -0.9236  2.2879
    9SAPS  H14Y 1184   6.316   4.394   4.718 -0.4909  0.2392  1.2899
    9SAPS  C315 1185   6.266   4.529   4.566 -0.3011  0.4198  0.1745
    9SAPS  H15X 1186   6.245   4.461   4.480 -2.9179 -0.3722  1.3422
    9SAPS  H15Y 1187   6.374   4.554   4.554 -0.3603  0.6379  0.0972
    9SAPS  C316 1188   6.186   4.653   4.525 -0.7432  0.3091 -0.5015
    9SAPS  H16X 1189   6.215   4.739   4.589 -0.0809  1.1476 -1.8664
    9SAPS  H16Y 1190   6.080   4.620   4.523 -0.3770 -1.1063  1.2437
    9SAPS  C317 1191   6.217   4.720   4.388 -0.0768  0.1616 -0.4006
    9SAPS  H17X 1192   6.142   4.800   4.372  1.8499  2.5654  1.7840
    9SAPS  H17Y 1193   6.212   4.631   4.321 -1.2074 -1.6492  1.9199
    9SAPS  C318 1194   6.354   4.794   4.378 -0.7665  0.3812 -0.2488
    9SAPS  H18X 1195   6.369   4.876   4.452  2.5532  0.7995 -1.1887
    9SAPS  H18Y 1196   6.354   4.839   4.276 -1.3636  1.7979  0.3568
    9SAPS  H18Z 1197   6.436   4.719   4.379 -0.6271  0.5339  0.3276
   10SAPS     N 1198   0.230   2.772   6.464 -0.1910  0.0034 -0.2097
   10SAPS   HN1 1199   0.151   2.839   6.467  0.3948  0.8096 -1.6109
   10SAPS   HN2 1200   0.203   2.700   6.394 -1.7772  2.1119 -1.9311
   10SAPS   HN3 1201   0.239   2.724   6.555 -0.3546  1.1074  0.4038
   10SAPS   C12 1202   0.351   2.848   6.432 -0.3072 -0.1323  0.0437
   10SAPS  H12A 1203   0.349   2.922   6.510  1.9623  0.9504 -0.8514
   10SAPS   C13 1204   0.472   2.758   6.463 -0.0722 -0.8836  0.2282
   10SAPS  O13A 1205   0.455   2.647   6.519 -0.4324  0.3581  0.9765
   10SAPS  O13B 1206   0.590   2.815   6.465 -0.0826 -0.4375  0.3840
   10SAPS   C11 1207   0.355   2.892   6.290 -0.1207  0.2953  0.6709
   10SAPS  H11A 1208   0.360   2.798   6.230  3.5670 -1.3514  3.1886
   10SAPS  H11B 1209   0.445   2.952   6.262  0.7651 -1.9160 -1.5655
   10SAPS     P 1210   0.197   3.108   6.255  0.0564  0.4690 -0.3305
   10SAPS   O13 1211   0.052   3.116   6.238 -0.0277 -0.6614 -0.4759
   10SAPS   O14 1212   0.255   3.172   6.376 -0.1177 -0.2440 -0.0253
   10SAPS   O12 1213   0.232   2.948   6.252 -0.1938 -0.5643  0.1749
   10SAPS   O11 1214   0.268   3.159   6.127  0.0286 -0.3046  0.1967
   10SAPS    C1 1215   0.246   3.124   5.986  0.3727  0.2395 -0.5969
   10SAPS    HA 1216   0.240   3.014   5.976 -0.3440  0.4020 -2.1767
   10SAPS    HB 1217   0.150   3.173   5.958  0.5901  0.1210 -1.5786
   10SAPS    C2 1218   0.360   3.174   5.899  0.0364  0.3798  1.2523
   10SAPS    HS 1219   0.390   3.278   5.926  1.5623 -0.4973  3.2196
   10SAPS   O21 1220   0.334   3.163   5.761  0.7393  0.0400 -0.1511
   10SAPS   C21 1221   0.380   3.253   5.674  0.0999  0.6720 -0.0630
   10SAPS   O22 1222   0.448   3.346   5.713 -0.1115 -0.1248  0.3171
   10SAPS   C22 1223   0.337   3.207   5.534  0.7067 -0.1744 -0.2641
   10SAPS   H2R 1224   0.355   3.100   5.508  0.7205  0.5323 -3.6993
   10SAPS   H2S 1225   0.229   3.230   5.521  0.2131 -1.8711  0.5431
   10SAPS    C3 1226   0.493   3.095   5.936 -0.0690 -0.6024  0.3673
   10SAPS    HX 1227   0.495   3.099   6.047  0.9575  1.8990  0.3033
   10SAPS    HY 1228   0.580   3.151   5.896 -1.4334  1.5761  0.2943
   10SAPS   O31 1229   0.492   2.955   5.897 -0.0500  0.7672  0.1334
   10SAPS   C31 1230   0.556   2.915   5.792  0.6196 -0.3434 -0.2304
   10SAPS   O32 1231   0.631   2.978   5.715 -0.3787 -0.0813  0.2113
   10SAPS   C32 1232   0.511   2.766   5.764  0.3437 -0.4982  0.3692
   10SAPS   H2X 1233   0.400   2.766   5.764  0.2739  0.5247 -2.0790
   10SAPS   H2Y 1234   0.549   2.706   5.850 -1.1216 -0.2436  1.2264
   10SAPS   C23 1235   0.412   3.285   5.427 -0.2047  0.4819 -0.0564
   10SAPS   H3R 1236   0.380   3.390   5.439  4.7731  1.9799  3.2276
   10SAPS   H3S 1237   0.380   3.246   5.328  1.1824  1.3965 -0.9066
   10SAPS   C24 1238   0.564   3.285   5.429 -0.3046 -0.1484  0.1569
   10SAPS   H4R 1239   0.594   3.337   5.523  1.8166  1.4572 -1.3007
   10SAPS   H4S 1240   0.603   3.348   5.347 -2.6796 -1.1392 -1.8379
   10SAPS   C25 1241   0.624   3.146   5.433  0.3103  0.1475 -0.5742
   10SAPS   H5R 1242   0.627   3.104   5.534 -0.3251 -0.5537 -0.8441
   10SAPS   C26 1243   0.686   3.078   5.334 -0.2761  0.1533  0.0208
   10SAPS   H6R 1244   0.726   2.978   5.355  0.2373  0.6848  1.7292
   10SAPS   C27 1245   0.710   3.132   5.191  0.0226  0.1197 -0.2181
   10SAPS   H7R 1246   0.637   3.214   5.178 -0.2280  0.2205  1.5913
   10SAPS   H7S 1247   0.690   3.054   5.114  0.6828 -0.6580  0.3803
   10SAPS   C28 1248   0.850   3.186   5.177  0.2520 -0.3213 -0.7977
   10SAPS   H8R 1249   0.924   3.185   5.259 -1.4498 -1.6645  0.7883
   10SAPS   C29 1250   0.896   3.239   5.064 -0.7748  0.4855  0.4962
   10SAPS   H9R 1251   0.999   3.275   5.055 -1.0535  1.7379  1.9498
   10SAPS  C210 1252   0.821   3.247   4.928  0.0610  0.3653 -0.6521
   10SAPS  H10R 1253   0.812   3.354   4.901  1.3737  1.2396  2.0460
   10SAPS  H10S 1254   0.719   3.203   4.933  0.0289  0.4899 -0.2022
   10SAPS  C211 1255   0.894   3.173   4.817  0.0698  0.1116  0.3144
   10SAPS  H11R 1256   0.900   3.065   4.833  2.2551 -0.2816 -2.4269
   10SAPS  C212 1257   0.929   3.218   4.699  0.4791 -0.3709 -0.9782
   10SAPS  H12R 1258   0.988   3.154   4.632 -0.0553  1.0120 -2.8425
   10SAPS  C213 1259   0.919   3.367   4.658 -0.2303  0.1204 -0.5851
   10SAPS  H13R 1260   0.913   3.430   4.749  1.5465 -0.2122 -0.2054
   10SAPS  H13S 1261   0.832   3.390   4.593 -0.7004 -0.2915 -0.1167
   10SAPS  C214 1262   1.036   3.411   4.593 -0.0751  0.4434  0.3527
   10SAPS  H14R 1263   1.128   3.373   4.639  0.0665  0.2659 -0.0821
   10SAPS  C215 1264   1.042   3.506   4.502  1.0534  0.4668 -0.2689
   10SAPS  H15R 1265   1.139   3.532   4.456  1.8833  0.5888  1.4564
   10SAPS  C216 1266   0.933   3.581   4.436 -0.5218  0.4484 -0.0354
   10SAPS  H16R 1267   0.838   3.571   4.493 -0.5682  2.9756  0.4428
   10SAPS  H16S 1268   0.908   3.539   4.336  0.6545 -0.2253 -0.0725
   10SAPS  C217 1269   0.952   3.731   4.422  0.4824 -0.2123  0.2016
   10SAPS  H17R 1270   0.970   3.765   4.527 -2.4571  0.1987  0.6747
   10SAPS  H17S 1271   0.855   3.777   4.392 -0.0214 -1.6582 -0.4633
   10SAPS  C218 1272   1.065   3.772   4.331  0.7595 -0.2800 -0.3432
   10SAPS  H18R 1273   1.052   3.735   4.227  2.8913 -0.8084 -0.4665
   10SAPS  H18S 1274   1.163   3.732   4.362  0.5460  0.8569  1.9840
   10SAPS  C219 1275   1.072   3.924   4.324  0.3271  0.1142  0.5231
   10SAPS  H19R 1276   1.073   3.954   4.431 -2.1065 -0.6374  0.8249
   10SAPS  H19S 1277   0.978   3.967   4.283 -1.2311 -1.9347  1.7645
   10SAPS  C220 1278   1.193   3.975   4.245  0.2510 -0.2896  0.1582
   10SAPS  H20R 1279   1.180   3.935   4.142 -0.6573  1.6832 -0.5519
   10SAPS  H20S 1280   1.278   3.927   4.296  0.6242 -2.6737 -2.4834
   10SAPS  H20T 1281   1.209   4.085   4.241 -2.7576  0.2282 -0.2245
   10SAPS   C33 1282   0.546   2.706   5.616  0.3173 -0.6307  0.9704
   10SAPS   H3X 1283   0.653   2.722   5.588  0.0892 -0.3332  0.2277
   10SAPS   H3Y 1284   0.493   2.765   5.537  0.5088  0.1505  1.4170
   10SAPS   C34 1285   0.506   2.558   5.600  0.2066 -0.0384 -0.4165
   10SAPS   H4X 1286   0.401   2.551   5.637 -0.5919 -0.7548 -2.6276
   10SAPS   H4Y 1287   0.571   2.505   5.672  1.1702  1.0797 -0.4485
   10SAPS   C35 1288   0.531   2.495   5.462  1.3470  0.1617 -0.5613
   10SAPS   H5X 1289   0.491   2.393   5.473 -0.6528  1.0719  1.4701
   10SAPS   H5Y 1290   0.638   2.491   5.432  1.2311 -0.7687 -0.8640
   10SAPS   C36 1291   0.443   2.546   5.354  0.1978  0.4693 -0.2475
   10SAPS   H6X 1292   0.473   2.650   5.329  4.5535 -0.8157 -1.2716
   10SAPS   H6Y 1293   0.337   2.540   5.387 -0.2179 -1.7515 -1.7430
   10SAPS   C37 1294   0.455   2.464   5.222 -0.6257  0.0442  0.1268
   10SAPS   H7X 1295   0.393   2.526   5.154 -0.4576  1.1875  0.9849
   10SAPS   H7Y 1296   0.406   2.364   5.224 -0.8926  0.1846  0.5740
   10SAPS   C38 1297   0.598   2.448   5.167 -0.0921  0.4182 -0.5534
   10SAPS   H8X 1298   0.636   2.351   5.205 -0.7043 -0.7200 -2.6801
   10SAPS   H8Y 1299   0.671   2.521   5.209 -0.0244  0.3474 -0.5471
   10SAPS   C39 1300   0.612   2.455   5.013 -0.5098  0.1418  0.4397
   10SAPS   H9X 1301   0.717   2.448   4.978 -1.0879 -0.2672 -1.2657
   10SAPS   H9Y 1302   0.580   2.556   4.978  1.2706  0.2020 -1.2180
   10SAPS  C310 1303   0.544   2.339   4.936  0.0524  0.0615  0.3663
   10SAPS  H10X 1304   0.470   2.298   5.007 -0.8797  0.9214 -0.0875
   10SAPS  H10Y 1305   0.630   2.269   4.924  1.4697  1.7593  0.1601
   10SAPS  C311 1306   0.482   2.374   4.800  0.3561  0.7624 -0.9511
   10SAPS  H11X 1307   0.384   2.426   4.811 -0.6244 -1.2042  0.1848
   10SAPS  H11Y 1308   0.464   2.274   4.754 -0.1932 -1.2806  3.1820
   10SAPS  C312 1309   0.560   2.467   4.705  1.0961 -0.7554 -0.5366
   10SAPS  H12X 1310   0.659   2.418   4.696  1.2875 -0.6168  0.6835
   10SAPS  H12Y 1311   0.572   2.567   4.752 -1.2999 -1.1420  1.0737
   10SAPS  C313 1312   0.512   2.476   4.562  0.5899 -0.5476 -0.2445
   10SAPS  H13X 1313   0.426   2.546   4.570  1.4524  0.4276  0.7162
   10SAPS  H13Y 1314   0.474   2.373   4.542  0.1484  0.0698 -2.9664
   10SAPS  C314 1315   0.608   2.531   4.461  0.3524  0.2487 -0.5577
   10SAPS  H14X 1316   0.690   2.457   4.447  0.3564  0.1233  0.0915
   10SAPS  H14Y 1317   0.633   2.625   4.515 -2.0227 -0.4462  2.0254
   10SAPS  C315 1318   0.534   2.552   4.326 -0.1262 -0.6619 -0.0115
   10SAPS  H15X 1319   0.443   2.604   4.362  0.2206 -0.9082  1.2662
   10SAPS  H15Y 1320   0.516   2.453   4.279  1.0372 -0.0441 -1.8730
   10SAPS  C316 1321   0.619   2.645   4.234 -0.5940 -1.0048  0.4709
   10SAPS  H16X 1322   0.725   2.613   4.219 -0.7602 -0.8277 -1.3761
   10SAPS  H16Y 1323   0.611   2.754   4.252  1.3219 -0.2051 -2.6473
   10SAPS  C317 1324   0.563   2.629   4.096  0.8130 -0.5623  0.5811
   10SAPS  H17X 1325   0.468   2.687   4.091 -0.5267 -2.6858  0.2318
   10SAPS  H17Y 1326   0.545   2.520   4.086 -0.2535 -0.4475  1.0534
   10SAPS  C318 1327   0.658   2.670   3.989  0.4389  0.4348  0.1236
   10SAPS  H18X 1328   0.654   2.780   3.975  0.6993  0.1303 -2.8372
   10SAPS  H18Y 1329   0.626   2.633   3.890  0.5831  2.8124 -0.8735
   10SAPS  H18Z 1330   0.752   2.620   4.021 -0.6587 -1.0213  1.2205
   11SAPS     N 1331   1.315   3.509   1.680 -0.1044  0.1688 -0.0555
   11SAPS   HN1 1332   1.344   3.594   1.732  2.3157 -0.1480 -0.7539
   11SAPS   HN2 1333   1.358   3.501   1.585  0.7489 -2.5989  0.4677
   11SAPS   HN3 1334   1.212   3.515   1.679 -0.1882 -1.0115 -0.6958
   11SAPS   C12 1335   1.356   3.384   1.748  0.1933 -0.8631  0.1997
   11SAPS  H12A 1336   1.288   3.373   1.831 -1.7044  1.8299 -0.8536
   11SAPS   C13 1337   1.344   3.249   1.652  0.1380 -0.2497 -0.5163
   11SAPS  O13A 1338   1.335   3.278   1.528  0.0620  0.0947 -0.0004
   11SAPS  O13B 1339   1.401   3.143   1.696  0.2396 -0.0540  0.4995
   11SAPS   C11 1340   1.503   3.388   1.802  0.0506 -0.7915 -0.0627
   11SAPS  H11A 1341   1.559   3.434   1.718 -0.5995  2.3416  1.0820
   11SAPS  H11B 1342   1.548   3.292   1.834  1.2767 -0.2857 -0.2082
   11SAPS     P 1343   1.637   3.558   1.951  0.0144  0.0921 -0.0674
   11SAPS   O13 1344   1.750   3.510   1.871  0.3901 -0.3278  0.2926
   11SAPS   O14 1345   1.600   3.700   1.955  0.1335  0.3232  0.5091
   11SAPS   O12 1346   1.506   3.470   1.919  0.1539  0.1748  0.2953
   11SAPS   O11 1347   1.665   3.530   2.101 -0.2241  0.7153  0.2319
   11SAPS    C1 1348   1.565   3.542   2.200 -0.0823  0.1116 -1.1214
   11SAPS    HA 1349   1.577   3.643   2.244  2.8210 -0.4750 -0.3393
   11SAPS    HB 1350   1.466   3.516   2.158  0.5007 -1.4304 -1.6018
   11SAPS    C2 1351   1.586   3.450   2.317 -0.9120 -0.3774 -0.0456
   11SAPS    HS 1352   1.505   3.459   2.393  0.2985  3.2657  1.0009
   11SAPS   O21 1353   1.714   3.492   2.373  0.5347  0.6688  0.2815
   11SAPS   C21 1354   1.744   3.446   2.495  0.5121 -0.2016 -0.2145
   11SAPS   O22 1355   1.664   3.404   2.580 -0.2287  0.0287  0.1271
   11SAPS   C22 1356   1.886   3.465   2.511 -0.3849 -0.0295 -0.2112
   11SAPS   H2R 1357   1.936   3.375   2.472 -0.9436 -1.3405  1.9211
   11SAPS   H2S 1358   1.923   3.551   2.450  1.3079  0.3787  1.2827
   11SAPS    C3 1359   1.602   3.302   2.263  0.4131 -0.5881 -0.6487
   11SAPS    HX 1360   1.683   3.310   2.187  2.4547  2.3322  1.6004
   11SAPS    HY 1361   1.510   3.277   2.206 -0.2443  0.2748  0.0079
   11SAPS   O31 1362   1.638   3.209   2.357  0.4975  0.4319 -0.0937
   11SAPS   C31 1363   1.533   3.163   2.440 -0.4646 -0.0284  0.0301
   11SAPS   O32 1364   1.416   3.173   2.413 -0.5619  0.0331 -0.3911
   11SAPS   C32 1365   1.594   3.080   2.547 -0.5129 -0.4427 -0.7633
   11SAPS   H2X 1366   1.691   3.123   2.579 -0.6339 -0.9467  0.3307
   11SAPS   H2Y 1367   1.617   2.986   2.493 -1.4379 -0.1304 -1.7332
   11SAPS   C23 1368   1.932   3.485   2.664  0.0265 -1.1302 -0.3896
   11SAPS   H3R 1369   1.875   3.562   2.718 -2.5123 -2.0229 -1.6318
   11SAPS   H3S 1370   2.030   3.534   2.646 -0.5210 -0.0457 -0.4777
   11SAPS   C24 1371   1.961   3.362   2.756 -0.1462 -0.2790 -0.6398
   11SAPS   H4R 1372   2.042   3.394   2.825 -0.8997  0.3911 -0.0451
   11SAPS   H4S 1373   1.997   3.288   2.681  3.0101  2.5772 -2.2186
   11SAPS   C25 1374   1.846   3.299   2.830 -0.1998 -0.0512 -0.8474
   11SAPS   H5R 1375   1.743   3.329   2.805 -1.1096 -0.4267  2.0612
   11SAPS   C26 1376   1.876   3.228   2.943  0.0467  0.2734  0.6705
   11SAPS   H6R 1377   1.790   3.190   3.001  0.6737  0.2186  1.5905
   11SAPS   C27 1378   2.012   3.189   2.987 -0.6497 -0.1579 -0.5009
   11SAPS   H7R 1379   2.081   3.174   2.901  0.6666  1.6798  0.1790
   11SAPS   H7S 1380   1.991   3.088   3.029 -2.2400  0.8921  1.3459
   11SAPS   C28 1381   2.076   3.275   3.095 -0.1154 -0.9452  0.2012
   11SAPS   H8R 1382   2.114   3.370   3.053 -1.6509 -0.6023 -0.4790
   11SAPS   C29 1383   2.115   3.250   3.221  0.2885 -0.4917  0.5885
   11SAPS   H9R 1384   2.168   3.332   3.272 -3.2607  2.3575  0.0780
   11SAPS  C210 1385   2.074   3.121   3.301 -0.8702  0.4247 -0.0530
   11SAPS  H10R 1386   2.089   3.024   3.249  0.6821 -0.7862  2.4453
   11SAPS  H10S 1387   1.963   3.127   3.305 -0.8179  1.0091  0.5710
   11SAPS  C211 1388   2.149   3.109   3.435  0.4784  0.2025 -0.6671
   11SAPS  H11R 1389   2.222   3.028   3.446  1.3669  1.1482  0.6493
   11SAPS  C212 1390   2.136   3.188   3.544 -0.9674  0.0936 -0.4627
   11SAPS  H12R 1391   2.200   3.170   3.631 -1.4190  1.8990  0.2912
   11SAPS  C213 1392   2.046   3.308   3.551  0.4114 -0.5381  0.2877
   11SAPS  H13R 1393   1.995   3.320   3.453 -0.3362 -1.2009  0.5836
   11SAPS  H13S 1394   2.104   3.401   3.566  1.5768 -1.1268 -0.4115
   11SAPS  C214 1395   1.941   3.299   3.658  0.6794  0.0708  0.0832
   11SAPS  H14R 1396   1.899   3.198   3.669 -0.8738  0.2818 -2.7667
   11SAPS  C215 1397   1.902   3.392   3.744 -0.0841 -0.2401 -0.1636
   11SAPS  H15R 1398   1.815   3.371   3.808 -0.4163 -0.3401 -0.6400
   11SAPS  C216 1399   1.948   3.526   3.750 -0.4157 -0.0335  0.9138
   11SAPS  H16R 1400   1.863   3.598   3.757  0.2885  1.1506 -1.6504
   11SAPS  H16S 1401   1.996   3.563   3.657  0.7241  0.1072  1.5396
   11SAPS  C217 1402   2.053   3.550   3.868 -0.1125 -0.3847  0.9156
   11SAPS  H17R 1403   2.102   3.649   3.854 -0.2220 -0.1679  1.9718
   11SAPS  H17S 1404   2.124   3.465   3.871 -2.2578 -2.2297  3.5464
   11SAPS  C218 1405   1.987   3.559   4.008  0.3563 -0.3259 -0.8217
   11SAPS  H18R 1406   1.970   3.451   4.029 -0.4670 -0.1290 -0.4547
   11SAPS  H18S 1407   1.886   3.603   3.997 -0.0842 -0.5876  1.5842
   11SAPS  C219 1408   2.062   3.631   4.119 -0.0864 -0.2587 -0.8292
   11SAPS  H19R 1409   2.064   3.742   4.112 -0.0948 -0.1681  0.3194
   11SAPS  H19S 1410   2.164   3.586   4.121  0.5375  1.0031  2.4017
   11SAPS  C220 1411   2.011   3.591   4.262 -0.2534 -0.0419  0.4996
   11SAPS  H20R 1412   1.997   3.481   4.258 -3.3446  0.2303  1.3623
   11SAPS  H20S 1413   1.910   3.636   4.266 -0.3621 -0.0678 -1.2084
   11SAPS  H20T 1414   2.074   3.620   4.349 -0.4136 -0.9406  0.9282
   11SAPS   C33 1415   1.491   3.056   2.662 -0.6839 -0.2148 -0.9332
   11SAPS   H3X 1416   1.393   3.022   2.623  0.3120 -2.1027 -1.9673
   11SAPS   H3Y 1417   1.471   3.148   2.721  1.9072  0.3256 -0.7527
   11SAPS   C34 1418   1.549   2.948   2.761  0.5478 -0.1281  0.7679
   11SAPS   H4X 1419   1.652   2.981   2.790  0.7879  0.9257 -1.1082
   11SAPS   H4Y 1420   1.552   2.847   2.716 -1.2014 -0.4867  1.4084
   11SAPS   C35 1421   1.470   2.950   2.888 -0.0477 -0.0101 -0.2265
   11SAPS   H5X 1422   1.473   3.055   2.924  0.8830  1.0925 -3.1912
   11SAPS   H5Y 1423   1.529   2.901   2.968 -0.9471  1.1360  1.1984
   11SAPS   C36 1424   1.326   2.895   2.874  0.1278  0.2082  0.4790
   11SAPS   H6X 1425   1.323   2.793   2.828 -1.7633  1.5613 -2.7212
   11SAPS   H6Y 1426   1.275   2.963   2.803  1.4369  0.9647  0.2420
   11SAPS   C37 1427   1.253   2.906   3.013 -0.0907  0.3651 -0.2788
   11SAPS   H7X 1428   1.145   2.899   2.989 -0.0754  0.6437 -0.4294
   11SAPS   H7Y 1429   1.270   3.007   3.057 -0.8544  0.0427  0.7951
   11SAPS   C38 1430   1.293   2.789   3.106 -0.0237 -1.0718  0.3166
   11SAPS   H8X 1431   1.402   2.800   3.125 -0.3041  1.0306  0.9265
   11SAPS   H8Y 1432   1.288   2.692   3.052 -0.9625 -0.1503 -1.3502
   11SAPS   C39 1433   1.219   2.784   3.236 -0.2583  0.1739  0.7328
   11SAPS   H9X 1434   1.247   2.872   3.298 -0.3480  2.3764 -2.1494
   11SAPS   H9Y 1435   1.260   2.701   3.297  0.7244  1.3921  1.7968
   11SAPS  C310 1436   1.063   2.769   3.224  0.3410 -0.0522  0.0588
   11SAPS  H10X 1437   1.037   2.664   3.197  0.3622 -0.2403  0.7518
   11SAPS  H10Y 1438   1.028   2.827   3.136  0.3386 -0.9354 -0.5318
   11SAPS  C311 1439   0.983   2.810   3.347  0.0366  0.4534  0.0770
   11SAPS  H11X 1440   0.876   2.828   3.323  0.3181 -0.7846 -2.4464
   11SAPS  H11Y 1441   1.030   2.904   3.384  0.1678  0.7279 -0.7644
   11SAPS  C312 1442   0.994   2.702   3.461 -0.4012  0.0818 -0.2810
   11SAPS  H12X 1443   1.098   2.684   3.495 -0.9602 -0.0538  1.4508
   11SAPS  H12Y 1444   0.966   2.602   3.422 -0.0135 -0.5213  0.9170
   11SAPS  C313 1445   0.914   2.752   3.584  0.2513 -0.2277  0.2949
   11SAPS  H13X 1446   0.818   2.698   3.600  0.7051 -1.4383 -0.8574
   11SAPS  H13Y 1447   0.893   2.859   3.566  0.6493 -0.1093  0.5254
   11SAPS  C314 1448   0.999   2.737   3.714  0.0898  0.1937  0.2681
   11SAPS  H14X 1449   1.049   2.637   3.718  1.7194  1.0226  2.9362
   11SAPS  H14Y 1450   0.921   2.729   3.793  1.7612 -1.2619  1.8952
   11SAPS  C315 1451   1.085   2.862   3.751  0.4825  0.0790  0.2701
   11SAPS  H15X 1452   1.019   2.949   3.770  0.3047 -0.0893  0.4256
   11SAPS  H15Y 1453   1.160   2.886   3.672 -0.0649  1.2039  0.0814
   11SAPS  C316 1454   1.173   2.847   3.875 -0.4053  0.0886 -0.0099
   11SAPS  H16X 1455   1.253   2.922   3.891  1.9788 -2.4000  0.4477
   11SAPS  H16Y 1456   1.242   2.764   3.848 -0.1792  0.3953 -0.3846
   11SAPS  C317 1457   1.099   2.831   4.007  0.0924  0.7703 -0.6801
   11SAPS  H17X 1458   1.027   2.748   3.992 -1.1728  1.4651  1.1890
   11SAPS  H17Y 1459   1.045   2.925   4.032  1.4988  0.9628  1.9983
   11SAPS  C318 1460   1.187   2.781   4.119 -0.6399  0.6492 -1.0511
   11SAPS  H18X 1461   1.237   2.683   4.105  1.2683  1.1612  1.5704
   11SAPS  H18Y 1462   1.126   2.762   4.209 -0.0964  0.3209 -0.7497
   11SAPS  H18Z 1463   1.272   2.847   4.147  1.2919 -1.8327 -0.7656
   12SAPS     N 1464   1.014   4.267   2.172  0.9116 -0.6974 -0.0295
   12SAPS   HN1 1465   1.026   4.249   2.274  1.6116 -0.4536 -0.0646
   12SAPS   HN2 1466   1.023   4.368   2.148 -0.2142 -0.9418 -1.6229
   12SAPS   HN3 1467   0.918   4.233   2.150  0.8533 -0.4663 -0.1304
   12SAPS   C12 1468   1.114   4.211   2.077 -0.3399 -0.1248  0.6301
   12SAPS  H12A 1469   1.137   4.111   2.110 -2.6712 -0.3591  1.6637
   12SAPS   C13 1470   1.051   4.202   1.938 -0.1940  0.0695  0.1683
   12SAPS  O13A 1471   0.942   4.257   1.914 -0.7131 -0.2060 -0.3859
   12SAPS  O13B 1472   1.130   4.161   1.841 -0.0295 -0.4797 -0.3052
   12SAPS   C11 1473   1.246   4.298   2.075  0.3978 -0.3122  0.3813
   12SAPS  H11A 1474   1.223   4.406   2.062 -1.6903 -0.8597 -0.8511
   12SAPS  H11B 1475   1.302   4.275   1.982 -0.3866 -0.3749 -0.0814
   12SAPS     P 1476   1.483   4.218   2.157  0.0197  0.2434 -0.2372
   12SAPS   O13 1477   1.481   4.120   2.048  0.4347  0.3454 -0.2709
   12SAPS   O14 1478   1.583   4.332   2.149 -0.2086  0.2869  0.8934
   12SAPS   O12 1479   1.338   4.280   2.193 -0.1973  0.1839  0.2554
   12SAPS   O11 1480   1.492   4.142   2.296  0.1612 -0.0930  0.0257
   12SAPS    C1 1481   1.403   4.033   2.321  0.5248 -0.3257  0.6165
   12SAPS    HA 1482   1.300   4.076   2.317  1.1681  1.2444  0.2527
   12SAPS    HB 1483   1.409   3.948   2.250  1.3755  0.6342 -0.5015
   12SAPS    C2 1484   1.419   3.985   2.470  0.0198  0.7568  0.1463
   12SAPS    HS 1485   1.320   3.943   2.500  0.3559 -0.3077 -0.1898
   12SAPS   O21 1486   1.471   4.089   2.555 -0.4683 -0.1733  0.1913
   12SAPS   C21 1487   1.382   4.154   2.612  0.8500 -0.4239  0.5655
   12SAPS   O22 1488   1.261   4.133   2.601  0.4865  0.1896  0.1142
   12SAPS   C22 1489   1.436   4.271   2.693 -0.6149 -0.0946 -0.1281
   12SAPS   H2R 1490   1.464   4.356   2.629 -1.1766  1.8273  2.0362
   12SAPS   H2S 1491   1.354   4.308   2.759 -0.5766  1.4928 -0.9336
   12SAPS    C3 1492   1.516   3.870   2.483  0.0304  0.0237 -0.1271
   12SAPS    HX 1493   1.609   3.928   2.502 -1.1497  0.9549  3.5164
   12SAPS    HY 1494   1.514   3.815   2.387  0.0747  1.4178 -0.9524
   12SAPS   O31 1495   1.497   3.785   2.600  0.0673  0.1862  0.0237
   12SAPS   C31 1496   1.422   3.677   2.572 -0.1490 -0.1563  0.2419
   12SAPS   O32 1497   1.359   3.670   2.467 -0.3524  0.1057  0.0860
   12SAPS   C32 1498   1.407   3.585   2.689  0.6384  0.0093 -0.1821
   12SAPS   H2X 1499   1.370   3.641   2.778 -1.0877  0.0737 -0.8987
   12SAPS   H2Y 1500   1.503   3.540   2.721  0.3579 -0.0182  0.6447
   12SAPS   C23 1501   1.568   4.233   2.774 -0.2403 -0.2862 -0.0310
   12SAPS   H3R 1502   1.647   4.231   2.696  1.3044  0.3731  1.4521
   12SAPS   H3S 1503   1.552   4.142   2.836  1.7987 -0.2148  0.6824
   12SAPS   C24 1504   1.596   4.348   2.872 -0.3976 -0.7472 -0.5835
   12SAPS   H4R 1505   1.695   4.322   2.915 -0.9508 -1.3546  0.3512
   12SAPS   H4S 1506   1.523   4.349   2.956  1.9131 -0.9064  1.5289
   12SAPS   C25 1507   1.610   4.487   2.813  0.3126  0.2942  0.8393
   12SAPS   H5R 1508   1.671   4.491   2.722  0.7240  0.4479  1.1202
   12SAPS   C26 1509   1.533   4.590   2.849 -0.3869 -0.2417 -0.0106
   12SAPS   H6R 1510   1.540   4.686   2.795 -0.5752  0.4440  1.1461
   12SAPS   C27 1511   1.445   4.592   2.969 -0.0892 -0.2655 -0.2916
   12SAPS   H7R 1512   1.446   4.693   3.016 -2.0682 -0.0549 -0.6117
   12SAPS   H7S 1513   1.489   4.532   3.050  0.3857  0.9575  0.3857
   12SAPS   C28 1514   1.303   4.552   2.937  0.4549 -0.2313 -0.4068
   12SAPS   H8R 1515   1.272   4.509   2.841 -1.3450  0.1043 -0.0183
   12SAPS   C29 1516   1.204   4.591   3.017 -0.6146  0.7187 -0.5788
   12SAPS   H9R 1517   1.100   4.576   2.985 -0.9190  1.3069  0.0994
   12SAPS  C210 1518   1.209   4.667   3.149 -0.1856 -0.3871  0.7749
   12SAPS  H10R 1519   1.120   4.734   3.153  0.1511  0.5965 -3.2833
   12SAPS  H10S 1520   1.291   4.742   3.148 -1.6153  1.2580  0.3270
   12SAPS  C211 1521   1.246   4.590   3.271 -0.1308  0.4017 -0.1846
   12SAPS  H11R 1522   1.343   4.543   3.254  0.3243  1.2142  0.0869
   12SAPS  C212 1523   1.174   4.573   3.381  0.1184  0.6423  0.4227
   12SAPS  H12R 1524   1.225   4.526   3.466  0.4778 -0.0478 -0.1644
   12SAPS  C213 1525   1.044   4.639   3.411  0.8178 -0.0922  0.1451
   12SAPS  H13R 1526   1.021   4.723   3.343  0.6685  0.2074  0.5602
   12SAPS  H13S 1527   1.057   4.680   3.514  2.3655 -1.1709  0.4188
   12SAPS  C214 1528   0.930   4.541   3.415  0.1505  0.2201  0.4147
   12SAPS  H14R 1529   0.892   4.508   3.317  0.2102 -0.7019  0.6850
   12SAPS  C215 1530   0.864   4.487   3.520 -0.3553 -0.4570  0.7201
   12SAPS  H15R 1531   0.778   4.426   3.491 -0.1162 -0.3933 -0.1434
   12SAPS  C216 1532   0.911   4.518   3.667  0.2559  1.2472 -0.2880
   12SAPS  H16R 1533   0.836   4.493   3.744  0.7394 -1.1128 -0.5032
   12SAPS  H16S 1534   0.912   4.629   3.681 -0.9599  1.4208 -1.3637
   12SAPS  C217 1535   1.053   4.458   3.707  0.5504 -0.7894 -0.5329
   12SAPS  H17R 1536   1.134   4.518   3.662 -0.2894  0.7112 -0.1298
   12SAPS  H17S 1537   1.064   4.353   3.672 -0.9470 -0.5049 -1.9710
   12SAPS  C218 1538   1.076   4.451   3.859  0.4720 -0.2492 -1.3315
   12SAPS  H18R 1539   1.005   4.384   3.912  1.0030  0.4045  0.2505
   12SAPS  H18S 1540   1.048   4.547   3.906  1.8724 -0.8636  0.8719
   12SAPS  C219 1541   1.220   4.406   3.902  0.8173 -0.4540  0.3232
   12SAPS  H19R 1542   1.298   4.473   3.858 -2.3029  2.2042 -1.6530
   12SAPS  H19S 1543   1.238   4.318   3.837  1.0556 -0.7331  0.7663
   12SAPS  C220 1544   1.244   4.393   4.047  0.3215 -0.0820 -0.4331
   12SAPS  H20R 1545   1.182   4.309   4.086  1.3210 -1.2965 -1.3455
   12SAPS  H20S 1546   1.224   4.489   4.099  0.3276  0.5492 -1.5599
   12SAPS  H20T 1547   1.348   4.366   4.073 -0.0365 -1.5395 -0.4039
   12SAPS   C33 1548   1.312   3.469   2.654  0.1624 -0.0648  0.4562
   12SAPS   H3X 1549   1.354   3.426   2.560  1.2260 -0.1240  0.9425
   12SAPS   H3Y 1550   1.206   3.497   2.636  0.4679  0.1079 -1.2532
   12SAPS   C34 1551   1.309   3.362   2.763 -0.8103  0.1326  0.0007
   12SAPS   H4X 1552   1.418   3.344   2.772 -0.9916 -1.6377 -1.0710
   12SAPS   H4Y 1553   1.257   3.281   2.709 -0.9152 -0.1102  0.4633
   12SAPS   C35 1554   1.238   3.407   2.891  0.1739  0.1097  1.0435
   12SAPS   H5X 1555   1.137   3.432   2.854  0.3752 -2.1973 -1.4160
   12SAPS   H5Y 1556   1.295   3.491   2.936  0.3164 -0.0651  1.1912
   12SAPS   C36 1557   1.224   3.297   2.993 -0.1721 -0.1324 -0.2096
   12SAPS   H6X 1558   1.323   3.273   3.039  0.5567  1.4662 -0.8460
   12SAPS   H6Y 1559   1.199   3.203   2.940  0.1347 -0.9314  0.9978
   12SAPS   C37 1560   1.111   3.324   3.096 -0.4934 -0.1554  0.1012
   12SAPS   H7X 1561   1.046   3.404   3.054 -0.1728 -1.0983 -2.2934
   12SAPS   H7Y 1562   1.158   3.377   3.182 -0.3556  1.0336 -0.6910
   12SAPS   C38 1563   1.022   3.198   3.143 -0.5987  0.7123 -0.4608
   12SAPS   H8X 1564   1.090   3.132   3.200 -2.0472 -0.8986 -0.5092
   12SAPS   H8Y 1565   0.979   3.147   3.054  0.7955  0.1511 -0.8397
   12SAPS   C39 1566   0.909   3.245   3.236 -0.2592 -0.2296  0.5991
   12SAPS   H9X 1567   0.834   3.163   3.232 -3.8734  2.8520 -2.1080
   12SAPS   H9Y 1568   0.862   3.332   3.185 -0.7565 -0.6521  0.3331
   12SAPS  C310 1569   0.963   3.282   3.377 -0.4232 -0.3969  0.0790
   12SAPS  H10X 1570   0.996   3.387   3.383  1.9526 -1.1301  1.1149
   12SAPS  H10Y 1571   1.051   3.220   3.405 -0.4296 -0.3845  0.1255
   12SAPS  C311 1572   0.859   3.254   3.486  0.0929  0.4473  0.1356
   12SAPS  H11X 1573   0.844   3.144   3.480  2.6233  0.0352  0.5002
   12SAPS  H11Y 1574   0.758   3.299   3.468 -0.1312 -0.5350 -1.3092
   12SAPS  C312 1575   0.909   3.267   3.623 -0.1677  0.0059 -0.2540
   12SAPS  H12X 1576   0.928   3.377   3.626  0.4641  0.0240 -2.6876
   12SAPS  H12Y 1577   0.995   3.202   3.648 -0.6954 -0.9228 -0.7848
   12SAPS  C313 1578   0.806   3.236   3.727  0.3301  0.2497 -0.0510
   12SAPS  H13X 1579   0.803   3.125   3.733  2.1957  0.0663 -1.6309
   12SAPS  H13Y 1580   0.707   3.274   3.694  0.6815  0.3799 -0.9652
   12SAPS  C314 1581   0.837   3.288   3.864 -0.3928  0.7570 -0.8393
   12SAPS  H14X 1582   0.768   3.252   3.943 -1.1304  2.9118 -0.4181
   12SAPS  H14Y 1583   0.831   3.399   3.863 -1.5063  0.7184 -2.9586
   12SAPS  C315 1584   0.984   3.264   3.903  0.3769 -0.0364  0.3696
   12SAPS  H15X 1585   1.051   3.322   3.836 -0.3534  1.6527  1.0463
   12SAPS  H15Y 1586   1.001   3.155   3.892 -0.0607 -0.1433  0.7668
   12SAPS  C316 1587   1.009   3.287   4.051 -0.5451 -0.1487 -0.1385
   12SAPS  H16X 1588   0.925   3.245   4.110  0.7276  1.0224  2.6975
   12SAPS  H16Y 1589   1.014   3.397   4.070 -0.7639 -0.1459 -0.0974
   12SAPS  C317 1590   1.145   3.230   4.098  0.9357 -0.0566 -0.3695
   12SAPS  H17X 1591   1.239   3.284   4.073  1.8845 -2.3990 -2.2625
   12SAPS  H17Y 1592   1.156   3.136   4.040 -0.6621 -0.4909 -0.0171
   12SAPS  C318 1593   1.132   3.204   4.245 -0.3892 -0.0426 -0.9924
   12SAPS  H18X 1594   1.213   3.137   4.280  0.3874  1.0075 -0.7206
   12SAPS  H18Y 1595   1.033   3.166   4.279  1.0650 -0.9948  2.6866
   12SAPS  H18Z 1596   1.145   3.303   4.295 -0.7737 -0.9467  0.9877
   13SAPS     N 1597   4.694   2.085   2.589  0.2947  0.4547  0.2775
   13SAPS   HN1 1598   4.658   2.145   2.666  3.2947 -0.4850  2.6151
   13SAPS   HN2 1599   4.663   1.987   2.605 -1.8307  0.9435 -0.5176
   13SAPS   HN3 1600   4.798   2.082   2.597  0.2605 -0.1968  0.5247
   13SAPS   C12 1601   4.630   2.134   2.457 -0.1410  0.3196  0.2356
   13SAPS  H12A 1602   4.708   2.161   2.387 -0.5279 -0.7761 -0.6568
   13SAPS   C13 1603   4.542   2.021   2.392 -0.4402 -0.0491  0.4236
   13SAPS  O13A 1604   4.542   1.910   2.449  0.3292  0.0138 -0.9039
   13SAPS  O13B 1605   4.466   2.057   2.301 -0.1282  0.0228 -0.0857
   13SAPS   C11 1606   4.540   2.252   2.499  0.3138  0.0702  1.0680
   13SAPS  H11A 1607   4.460   2.222   2.569 -3.2598  0.1089 -2.6137
   13SAPS  H11B 1608   4.482   2.288   2.411  1.5440 -1.1514 -0.2958
   13SAPS     P 1609   4.668   2.483   2.506  0.0081 -0.3365  0.2280
   13SAPS   O13 1610   4.730   2.458   2.372  0.0859 -1.1468 -0.3148
   13SAPS   O14 1611   4.561   2.583   2.505  0.5156 -0.0886  0.0031
   13SAPS   O12 1612   4.609   2.353   2.565  0.4451  0.8875  0.0841
   13SAPS   O11 1613   4.777   2.531   2.615 -0.2164 -0.4775 -0.5423
   13SAPS    C1 1614   4.822   2.456   2.728  0.1873  0.3111  0.0073
   13SAPS    HA 1615   4.794   2.349   2.712  1.0263  0.1403 -0.3701
   13SAPS    HB 1616   4.933   2.456   2.735  0.3650 -2.1787 -1.4652
   13SAPS    C2 1617   4.764   2.505   2.869  0.6071 -0.2322  0.4830
   13SAPS    HS 1618   4.655   2.523   2.852  0.3779 -1.0794  0.9815
   13SAPS   O21 1619   4.834   2.624   2.897  0.2243  0.1345 -0.4370
   13SAPS   C21 1620   4.751   2.726   2.946 -0.3921  0.0013 -0.6325
   13SAPS   O22 1621   4.634   2.733   2.948  0.4398  0.2771  0.2150
   13SAPS   C22 1622   4.844   2.825   3.023  0.0840  0.3229 -0.0563
   13SAPS   H2R 1623   4.917   2.776   3.092 -0.1862  1.2383  0.9142
   13SAPS   H2S 1624   4.917   2.875   2.957  0.7708 -1.9530 -1.1187
   13SAPS    C3 1625   4.782   2.390   2.975 -0.3612  0.2746 -0.0322
   13SAPS    HX 1626   4.888   2.359   2.983 -0.4018  0.4432  1.5976
   13SAPS    HY 1627   4.725   2.301   2.941  0.4369  0.3438 -1.5999
   13SAPS   O31 1628   4.746   2.430   3.111 -0.3149  0.1702  0.0106
   13SAPS   C31 1629   4.625   2.396   3.158 -0.9832 -0.7212 -0.1247
   13SAPS   O32 1630   4.535   2.334   3.100 -0.2125  0.6446 -0.0286
   13SAPS   C32 1631   4.608   2.444   3.301 -1.0223 -0.0331 -0.0069
   13SAPS   H2X 1632   4.701   2.502   3.321 -0.0490 -0.4929 -2.7736
   13SAPS   H2Y 1633   4.598   2.355   3.367 -2.7065 -0.5245 -0.8814
   13SAPS   C23 1634   4.767   2.937   3.096 -0.3848  0.1776  0.0406
   13SAPS   H3R 1635   4.675   2.967   3.042 -1.1393  0.0169  1.2112
   13SAPS   H3S 1636   4.831   3.027   3.108 -1.7139  1.1829 -0.2176
   13SAPS   C24 1637   4.713   2.890   3.236 -0.1067  0.7101 -0.3857
   13SAPS   H4R 1638   4.804   2.849   3.286 -2.1155 -0.8032  2.2830
   13SAPS   H4S 1639   4.651   2.801   3.216  2.1265 -0.8951 -0.5389
   13SAPS   C25 1640   4.648   3.002   3.309 -0.2087  0.0146 -0.1616
   13SAPS   H5R 1641   4.708   3.087   3.344  0.6542 -0.9861  0.8703
   13SAPS   C26 1642   4.520   3.029   3.326  0.0600 -0.3703  0.4238
   13SAPS   H6R 1643   4.482   3.124   3.366 -0.9077  0.4346 -2.1810
   13SAPS   C27 1644   4.397   2.950   3.281  0.3719  0.8005  0.0766
   13SAPS   H7R 1645   4.379   2.875   3.361  1.2412  2.0723  1.5270
   13SAPS   H7S 1646   4.428   2.897   3.188 -2.8950 -1.0442 -0.1511
   13SAPS   C28 1647   4.259   3.009   3.251 -0.2299  0.3720 -0.5752
   13SAPS   H8R 1648   4.226   3.001   3.147 -2.1154  2.8282 -0.2536
   13SAPS   C29 1649   4.178   3.066   3.343  0.2386 -0.2024  0.9896
   13SAPS   H9R 1650   4.082   3.099   3.301  0.6602 -1.6680 -1.3209
   13SAPS  C210 1651   4.202   3.078   3.497 -0.0017 -0.3487  1.4799
   13SAPS  H10R 1652   4.158   3.175   3.527  1.4308  0.7633  0.1271
   13SAPS  H10S 1653   4.311   3.090   3.512  0.1618  0.0932  0.1274
   13SAPS  C211 1654   4.153   2.962   3.579 -0.1924  0.2050 -0.4560
   13SAPS  H11R 1655   4.082   2.898   3.524 -0.0226  0.6183 -1.1845
   13SAPS  C212 1656   4.176   2.942   3.711  0.2607  0.6131  0.1713
   13SAPS  H12R 1657   4.131   2.848   3.744  0.4616  0.6169  0.4618
   13SAPS  C213 1658   4.254   3.031   3.809 -0.3329  0.3176 -0.1652
   13SAPS  H13R 1659   4.187   3.116   3.835 -1.8149 -0.8414 -0.0262
   13SAPS  H13S 1660   4.344   3.072   3.759  0.2931 -0.5596  0.2271
   13SAPS  C214 1661   4.290   2.963   3.939  0.0769  0.4546 -0.1567
   13SAPS  H14R 1662   4.281   2.854   3.933 -3.7405  0.7083 -1.7208
   13SAPS  C215 1663   4.337   3.022   4.045 -0.4960 -0.9667 -0.2216
   13SAPS  H15R 1664   4.372   2.954   4.125  1.0781 -1.9337 -1.6587
   13SAPS  C216 1665   4.361   3.170   4.064  0.3601  0.4617  0.0644
   13SAPS  H16R 1666   4.358   3.225   3.968  3.8779 -0.5031 -0.7409
   13SAPS  H16S 1667   4.457   3.196   4.113 -0.0555  0.1746  1.0603
   13SAPS  C217 1668   4.251   3.229   4.159  0.5802 -0.1639 -0.3169
   13SAPS  H17R 1669   4.245   3.176   4.257  1.1397  0.6651  0.1802
   13SAPS  H17S 1670   4.157   3.242   4.103 -0.4792 -2.3939  0.8068
   13SAPS  C218 1671   4.286   3.373   4.202 -0.3332 -0.9079  0.5020
   13SAPS  H18R 1672   4.278   3.435   4.110  0.1858 -0.2245  0.9021
   13SAPS  H18S 1673   4.387   3.370   4.248  0.1167 -2.0431 -0.5166
   13SAPS  C219 1674   4.186   3.437   4.299 -0.5531 -0.3173  0.3944
   13SAPS  H19R 1675   4.210   3.540   4.334 -0.3151 -1.5894  4.4129
   13SAPS  H19S 1676   4.188   3.374   4.390  0.4276 -0.3108  0.3911
   13SAPS  C220 1677   4.044   3.438   4.244 -0.2019  0.3462 -0.0416
   13SAPS  H20R 1678   4.017   3.521   4.176 -1.6782 -1.3213 -1.5932
   13SAPS  H20S 1679   3.977   3.451   4.332 -0.7168 -0.7116 -0.2596
   13SAPS  H20T 1680   4.013   3.353   4.181  1.1349 -0.7214  0.6792
   13SAPS   C33 1681   4.487   2.531   3.328 -0.0446  0.1477  0.0619
   13SAPS   H3X 1682   4.414   2.523   3.244 -0.5801  0.7454  0.4620
   13SAPS   H3Y 1683   4.511   2.640   3.332 -1.3739  0.4214  3.1963
   13SAPS   C34 1684   4.410   2.488   3.454  0.3625 -0.1363  0.3443
   13SAPS   H4X 1685   4.379   2.383   3.432 -0.4133  0.2831 -0.6125
   13SAPS   H4Y 1686   4.324   2.555   3.474  1.2825  1.1613  0.1085
   13SAPS   C35 1687   4.491   2.497   3.590 -0.6650 -0.4779 -0.2068
   13SAPS   H5X 1688   4.551   2.590   3.590 -3.4654  1.4378 -0.8614
   13SAPS   H5Y 1689   4.566   2.415   3.587  0.3488  0.4466 -0.9866
   13SAPS   C36 1690   4.404   2.475   3.711  0.4688 -0.2290  0.0961
   13SAPS   H6X 1691   4.409   2.365   3.728 -0.1432 -0.1950  0.5419
   13SAPS   H6Y 1692   4.306   2.510   3.673  0.9567 -0.4676 -1.4510
   13SAPS   C37 1693   4.431   2.566   3.833 -0.6490 -0.1364 -0.1817
   13SAPS   H7X 1694   4.419   2.674   3.806 -3.5957 -0.1521  0.7122
   13SAPS   H7Y 1695   4.536   2.546   3.861 -0.8697 -2.6696 -0.9449
   13SAPS   C38 1696   4.358   2.525   3.959 -0.6642 -0.0844  0.9119
   13SAPS   H8X 1697   4.380   2.416   3.965  1.7024  0.3029  0.2638
   13SAPS   H8Y 1698   4.251   2.550   3.950 -0.5487  0.7933  1.9043
   13SAPS   C39 1699   4.401   2.597   4.087  0.1045 -0.0025  0.2341
   13SAPS   H9X 1700   4.424   2.702   4.061 -0.0554 -0.1374 -0.4647
   13SAPS   H9Y 1701   4.506   2.565   4.109  0.1074  1.4354  2.7813
   13SAPS  C310 1702   4.313   2.566   4.208  0.6029  0.6744 -0.6065
   13SAPS  H10X 1703   4.321   2.456   4.218  0.2429  0.6873 -0.1654
   13SAPS  H10Y 1704   4.208   2.589   4.182 -0.2341 -0.5765  1.4728
   13SAPS  C311 1705   4.347   2.633   4.337 -0.3244 -0.2345  1.2774
   13SAPS  H11X 1706   4.338   2.743   4.326 -0.7756 -0.1290  2.4857
   13SAPS  H11Y 1707   4.454   2.622   4.366  0.4630 -2.7220 -1.9866
   13SAPS  C312 1708   4.261   2.580   4.453  0.3228  0.2451 -0.1910
   13SAPS  H12X 1709   4.288   2.627   4.550  2.7631  0.4498 -0.9072
   13SAPS  H12Y 1710   4.284   2.472   4.464  2.1369  0.5890 -0.2991
   13SAPS  C313 1711   4.109   2.594   4.433  0.4761 -0.4889 -0.0441
   13SAPS  H13X 1712   4.075   2.527   4.351 -1.3347 -1.5392  1.4854
   13SAPS  H13Y 1713   4.081   2.697   4.401 -0.1154  0.1469  2.3350
   13SAPS  C314 1714   4.019   2.554   4.554  0.6055 -0.7119  0.3007
   13SAPS  H14X 1715   4.026   2.625   4.639  0.7268 -0.8588  0.4136
   13SAPS  H14Y 1716   4.045   2.458   4.602 -2.4272 -0.9063  1.7949
   13SAPS  C315 1717   3.868   2.555   4.509  0.6100  0.6242  0.0821
   13SAPS  H15X 1718   3.843   2.495   4.419 -0.3711 -1.3475  1.5962
   13SAPS  H15Y 1719   3.830   2.655   4.479 -2.0494 -0.7558 -1.5251
   13SAPS  C316 1720   3.773   2.492   4.609 -0.1196 -0.0279 -0.0674
   13SAPS  H16X 1721   3.785   2.553   4.701  3.0883 -2.0642  1.0019
   13SAPS  H16Y 1722   3.807   2.388   4.629  1.0201  0.3089 -0.2325
   13SAPS  C317 1723   3.620   2.484   4.578  0.3260 -0.1583 -0.5511
   13SAPS  H17X 1724   3.609   2.419   4.488 -0.8084  0.4454 -0.8721
   13SAPS  H17Y 1725   3.588   2.590   4.564 -0.5644 -0.2810  0.4014
   13SAPS  C318 1726   3.529   2.428   4.690  0.5927 -0.6088  0.2427
   13SAPS  H18X 1727   3.425   2.411   4.655  0.1679 -0.1673  1.2442
   13SAPS  H18Y 1728   3.520   2.485   4.785 -1.1780  2.3595 -1.5418
   13SAPS  H18Z 1729   3.570   2.334   4.733  1.6168 -0.5041 -0.4832
   14SAPS     N 1730   2.519   3.125   2.045 -0.8211  0.4095  0.8491
   14SAPS   HN1 1731   2.541   3.132   2.147  0.6132  0.6147  0.5453
   14SAPS   HN2 1732   2.583   3.189   1.994 -1.6303  0.1568 -0.5483
   14SAPS   HN3 1733   2.420   3.154   2.031 -1.1633 -1.5645 -1.4525
   14SAPS   C12 1734   2.537   2.985   2.001  0.2026 -0.5470 -0.1472
   14SAPS  H12A 1735   2.462   2.926   2.052 -0.9859 -0.2803 -1.5383
   14SAPS   C13 1736   2.515   2.951   1.850 -0.5861 -0.4146  0.1502
   14SAPS  O13A 1737   2.482   3.039   1.768  0.1657 -0.0140 -0.1210
   14SAPS  O13B 1738   2.528   2.833   1.816 -0.2058  0.6903  0.1555
   14SAPS   C11 1739   2.682   2.932   2.038 -0.2051 -0.5041 -0.0790
   14SAPS  H11A 1740   2.752   2.965   1.958  0.4780  0.2667  0.8149
   14SAPS  H11B 1741   2.678   2.822   2.024 -2.0828 -0.5949  0.8499
   14SAPS     P 1742   2.825   2.901   2.256  0.1932  0.2268 -0.0527
   14SAPS   O13 1743   2.868   2.774   2.194 -0.5315 -0.6605  0.0887
   14SAPS   O14 1744   2.930   2.985   2.305 -0.1607 -0.8588 -1.0706
   14SAPS   O12 1745   2.731   2.983   2.164  0.0742 -0.0714  0.6446
   14SAPS   O11 1746   2.721   2.866   2.374  0.2915  0.2408  0.2561
   14SAPS    C1 1747   2.633   2.954   2.434  0.0771 -0.4154 -0.2546
   14SAPS    HA 1748   2.671   3.058   2.438  0.7892 -0.5952 -1.7047
   14SAPS    HB 1749   2.547   2.966   2.365  0.1507  4.0764  0.1482
   14SAPS    C2 1750   2.593   2.898   2.567  1.0803  1.0444 -0.2080
   14SAPS    HS 1751   2.527   2.962   2.630  0.7153 -1.5759  2.2779
   14SAPS   O21 1752   2.712   2.866   2.643  0.1873 -0.2665 -0.0554
   14SAPS   C21 1753   2.760   2.969   2.706 -1.1493  0.2330  0.5301
   14SAPS   O22 1754   2.714   3.082   2.706  0.2115 -0.3056  0.5534
   14SAPS   C22 1755   2.889   2.926   2.772 -0.3418 -0.5924  0.3667
   14SAPS   H2R 1756   2.862   2.892   2.874 -0.3366  0.6962  0.8153
   14SAPS   H2S 1757   2.934   2.841   2.716  0.4456 -0.1868  0.3589
   14SAPS    C3 1758   2.501   2.776   2.540  0.0150 -0.3941  0.0385
   14SAPS    HX 1759   2.562   2.701   2.485 -0.7247 -0.3584 -0.8574
   14SAPS    HY 1760   2.417   2.798   2.471  0.8768  1.1168 -0.5848
   14SAPS   O31 1761   2.458   2.712   2.659 -0.5256 -0.0684 -0.3502
   14SAPS   C31 1762   2.380   2.779   2.743 -0.1603 -0.5709  0.1045
   14SAPS   O32 1763   2.307   2.874   2.720  0.4996 -0.0589  0.1602
   14SAPS   C32 1764   2.399   2.722   2.882 -0.2149 -0.3571  0.3946
   14SAPS   H2X 1765   2.508   2.727   2.900  0.3938  1.0417 -2.9939
   14SAPS   H2Y 1766   2.363   2.617   2.884  0.6230 -0.6425  0.6062
   14SAPS   C23 1767   2.992   3.043   2.772 -0.2984 -0.9051  0.0819
   14SAPS   H3R 1768   2.963   3.121   2.845  2.3976  0.8515 -0.5988
   14SAPS   H3S 1769   3.016   3.086   2.672  0.0351  1.4878  1.1293
   14SAPS   C24 1770   3.134   3.000   2.815  0.9262 -0.2900  0.0731
   14SAPS   H4R 1771   3.180   2.950   2.727  0.3125  0.0040 -0.4286
   14SAPS   H4S 1772   3.126   2.928   2.899  0.6597 -0.2844  0.0523
   14SAPS   C25 1773   3.233   3.110   2.851 -0.3296 -0.2262  0.1888
   14SAPS   H5R 1774   3.252   3.186   2.774 -0.6512 -0.4272 -0.0911
   14SAPS   C26 1775   3.302   3.132   2.968  0.1067  0.1629 -0.6826
   14SAPS   H6R 1776   3.370   3.217   2.980 -1.0211  1.0680 -0.4456
   14SAPS   C27 1777   3.283   3.060   3.104 -0.7090 -0.0364  0.0456
   14SAPS   H7R 1778   3.227   2.970   3.072 -0.6262  0.3141 -1.1696
   14SAPS   H7S 1779   3.212   3.116   3.168 -2.1099  0.8080 -2.1130
   14SAPS   C28 1780   3.419   3.025   3.164 -0.0340  1.0655  0.4520
   14SAPS   H8R 1781   3.495   2.988   3.095 -0.1912  2.6513 -0.6318
   14SAPS   C29 1782   3.442   3.004   3.293  0.7176 -0.6640 -0.0209
   14SAPS   H9R 1783   3.545   2.992   3.328  0.6184  0.6115  0.7477
   14SAPS  C210 1784   3.347   3.026   3.408 -0.2714 -0.8488  0.4320
   14SAPS  H10R 1785   3.348   2.938   3.475  1.9365 -1.3304 -0.1595
   14SAPS  H10S 1786   3.241   3.021   3.373 -0.4812  1.1323  0.6296
   14SAPS  C211 1787   3.363   3.143   3.490  0.1652  0.4463 -0.2299
   14SAPS  H11R 1788   3.461   3.160   3.535 -0.8263 -1.5241  3.0288
   14SAPS  C212 1789   3.270   3.233   3.516 -0.7224 -0.1608 -0.5930
   14SAPS  H12R 1790   3.301   3.318   3.578  1.1200 -0.2448 -1.3328
   14SAPS  C213 1791   3.125   3.227   3.481 -0.0652 -0.6697  0.2449
   14SAPS  H13R 1792   3.112   3.194   3.375  2.0550 -2.0800  0.3609
   14SAPS  H13S 1793   3.079   3.327   3.491 -0.1435 -0.5230 -1.3177
   14SAPS  C214 1794   3.043   3.132   3.558  0.6217  0.6362 -1.0549
   14SAPS  H14R 1795   3.088   3.097   3.652 -1.4725 -0.2774 -0.3259
   14SAPS  C215 1796   2.917   3.083   3.527 -0.1152 -0.1267  0.2132
   14SAPS  H15R 1797   2.871   3.005   3.589  0.0377 -1.9472 -1.8387
   14SAPS  C216 1798   2.845   3.133   3.399 -0.7561 -0.2187  0.0901
   14SAPS  H16R 1799   2.876   3.078   3.307 -1.8209 -1.4704  0.4535
   14SAPS  H16S 1800   2.882   3.238   3.392  0.0444 -0.4584  0.5395
   14SAPS  C217 1801   2.695   3.135   3.426  0.2048 -0.2203 -0.8417
   14SAPS  H17R 1802   2.681   3.193   3.520  0.8949  0.1141 -0.9384
   14SAPS  H17S 1803   2.659   3.031   3.439 -2.3281  0.8090  1.4202
   14SAPS  C218 1804   2.603   3.208   3.333  0.3218 -0.3806  0.3232
   14SAPS  H18R 1805   2.642   3.306   3.300  0.1304 -0.4155 -0.0124
   14SAPS  H18S 1806   2.508   3.222   3.390 -0.1714  2.9705 -1.1188
   14SAPS  C219 1807   2.579   3.120   3.212  0.3480  0.6268  0.1051
   14SAPS  H19R 1808   2.483   3.156   3.168 -0.2950 -2.3739 -1.1622
   14SAPS  H19S 1809   2.559   3.012   3.228 -0.8842  1.1229  2.4248
   14SAPS  C220 1810   2.691   3.139   3.107 -0.2884 -0.5614 -0.2849
   14SAPS  H20R 1811   2.721   3.246   3.106 -1.6404 -0.1549  0.1447
   14SAPS  H20S 1812   2.648   3.120   3.006 -1.4376 -0.8740  0.2498
   14SAPS  H20T 1813   2.776   3.070   3.125 -0.6055 -0.6117  1.1088
   14SAPS   C33 1814   2.322   2.809   2.994 -0.4578  0.0943  0.4731
   14SAPS   H3X 1815   2.224   2.849   2.961 -0.7968 -2.5230 -2.0583
   14SAPS   H3Y 1816   2.379   2.901   3.021  0.2421 -0.6337  1.5275
   14SAPS   C34 1817   2.300   2.734   3.129 -0.3680 -0.1078  0.5298
   14SAPS   H4X 1818   2.240   2.641   3.120 -0.5469  0.0238  0.3376
   14SAPS   H4Y 1819   2.234   2.801   3.188 -0.4187  0.1709  0.1629
   14SAPS   C35 1820   2.432   2.715   3.219  0.3935  0.1460  0.6519
   14SAPS   H5X 1821   2.487   2.812   3.227  0.2749  0.4450 -1.4043
   14SAPS   H5Y 1822   2.494   2.643   3.161 -0.7231 -0.6581  0.4309
   14SAPS   C36 1823   2.392   2.662   3.363  0.1458 -0.1524 -0.2028
   14SAPS   H6X 1824   2.322   2.575   3.356 -0.5199  0.3988 -0.5311
   14SAPS   H6Y 1825   2.334   2.742   3.414 -3.6463 -2.9062  0.2418
   14SAPS   C37 1826   2.513   2.620   3.448 -0.3861 -1.0218 -0.0047
   14SAPS   H7X 1827   2.579   2.709   3.464 -0.1813 -1.0157 -0.8526
   14SAPS   H7Y 1828   2.578   2.541   3.406  0.5605  0.1099 -0.7421
   14SAPS   C38 1829   2.480   2.561   3.580  0.2727  0.3916 -0.5685
   14SAPS   H8X 1830   2.435   2.461   3.565 -0.1275  0.4883 -0.0724
   14SAPS   H8Y 1831   2.402   2.617   3.636  3.1872  3.0450  1.1780
   14SAPS   C39 1832   2.604   2.538   3.670  0.5069  0.4121 -0.3780
   14SAPS   H9X 1833   2.679   2.620   3.679  1.4980 -0.5954  0.9402
   14SAPS   H9Y 1834   2.661   2.451   3.630 -0.4103 -2.6857  4.2798
   14SAPS  C310 1835   2.558   2.498   3.815 -0.1970 -0.2231 -0.0671
   14SAPS  H10X 1836   2.643   2.451   3.868  0.4329  0.5148 -0.4118
   14SAPS  H10Y 1837   2.477   2.426   3.790  0.3354 -0.0985 -2.3475
   14SAPS  C311 1838   2.502   2.616   3.898  0.3783  0.0969  0.4098
   14SAPS  H11X 1839   2.406   2.644   3.851  0.1959 -1.2081 -0.0340
   14SAPS  H11Y 1840   2.560   2.709   3.878 -3.2012  2.4626  0.1153
   14SAPS  C312 1841   2.508   2.596   4.047  0.4758  0.5331  0.3036
   14SAPS  H12X 1842   2.612   2.572   4.076 -0.3770 -1.8924  1.6024
   14SAPS  H12Y 1843   2.462   2.499   4.073 -1.7393  0.6488 -2.6448
   14SAPS  C313 1844   2.442   2.704   4.133  0.6525  0.1070 -0.3594
   14SAPS  H13X 1845   2.341   2.731   4.097  0.0961 -1.3051  0.0585
   14SAPS  H13Y 1846   2.498   2.798   4.119 -0.1942  0.5879 -0.5489
   14SAPS  C314 1847   2.426   2.674   4.283  0.1252  0.4118 -0.4482
   14SAPS  H14X 1848   2.362   2.586   4.309 -0.7699  1.7364  2.1247
   14SAPS  H14Y 1849   2.356   2.751   4.322  1.9620  1.3172  1.2110
   14SAPS  C315 1850   2.557   2.663   4.355 -0.4034 -0.0848 -0.1151
   14SAPS  H15X 1851   2.616   2.757   4.348  0.1565 -0.1457  2.7709
   14SAPS  H15Y 1852   2.606   2.572   4.315 -1.2678 -0.6581  0.0796
   14SAPS  C316 1853   2.521   2.638   4.501 -0.9805 -1.0335 -1.2023
   14SAPS  H16X 1854   2.454   2.550   4.514 -1.3183 -0.5927  0.1750
   14SAPS  H16Y 1855   2.483   2.723   4.560  1.4199 -0.3916 -0.5027
   14SAPS  C317 1856   2.648   2.610   4.583  0.1427  0.2152  0.0626
   14SAPS  H17X 1857   2.698   2.706   4.607 -0.4928  0.4770  0.3500
   14SAPS  H17Y 1858   2.718   2.542   4.530 -0.6641 -2.3590  2.0837
   14SAPS  C318 1859   2.620   2.547   4.716 -0.6729  0.8435  0.5697
   14SAPS  H18X 1860   2.590   2.441   4.702  4.0142 -0.8127  1.4035
   14SAPS  H18Y 1861   2.547   2.607   4.775  0.3490  0.9098  1.8148
   14SAPS  H18Z 1862   2.713   2.541   4.777  0.1114  3.2527 -0.2443
   15SAPS     N 1863   3.374   4.631   2.084 -0.6562  0.2188 -0.2937
   15SAPS   HN1 1864   3.299   4.660   2.150 -1.6918 -1.5319 -0.6552
   15SAPS   HN2 1865   3.463   4.633   2.139 -1.5301 -0.1084  1.1928
   15SAPS   HN3 1866   3.378   4.698   2.004  1.2016  0.8067  0.2214
   15SAPS   C12 1867   3.338   4.491   2.047 -0.1536  0.3798  0.0425
   15SAPS  H12A 1868   3.252   4.485   1.982  0.1912  0.3117 -0.4233
   15SAPS   C13 1869   3.450   4.414   1.966  0.3790 -0.4605 -0.2338
   15SAPS  O13A 1870   3.555   4.468   1.927 -0.3135 -0.0148  0.0107
   15SAPS  O13B 1871   3.404   4.301   1.930 -0.0574  0.2647  0.4098
   15SAPS   C11 1872   3.298   4.434   2.182 -0.6779 -0.1356  0.1292
   15SAPS  H11A 1873   3.367   4.430   2.269 -1.8007 -2.6951  1.0174
   15SAPS  H11B 1874   3.275   4.328   2.156 -1.3260 -0.3118  1.3175
   15SAPS     P 1875   3.169   4.606   2.334  0.0230 -0.0819  0.0754
   15SAPS   O13 1876   3.230   4.731   2.281  0.1084  0.1882 -0.0852
   15SAPS   O14 1877   3.026   4.607   2.370 -0.1077  0.5664 -0.4690
   15SAPS   O12 1878   3.184   4.499   2.224 -0.3811 -0.1189 -0.0904
   15SAPS   O11 1879   3.251   4.544   2.453  0.2723  0.4226 -0.6026
   15SAPS    C1 1880   3.198   4.450   2.538 -0.4121 -0.6636 -0.2294
   15SAPS    HA 1881   3.137   4.375   2.483 -2.7226  0.2151  0.9605
   15SAPS    HB 1882   3.285   4.395   2.579  0.3115 -0.0719 -0.9440
   15SAPS    C2 1883   3.112   4.498   2.658 -0.6770  0.4582 -0.4236
   15SAPS    HS 1884   3.057   4.590   2.628 -0.1231  1.0664  0.3619
   15SAPS   O21 1885   3.196   4.533   2.775  0.5434  0.5006  0.2511
   15SAPS   C21 1886   3.143   4.632   2.847 -0.6577 -0.3618  0.1567
   15SAPS   O22 1887   3.042   4.695   2.825 -0.3056  0.1470  0.4074
   15SAPS   C22 1888   3.229   4.637   2.967  0.2520  0.1788  0.1890
   15SAPS   H2R 1889   3.253   4.532   2.993 -3.2705 -1.0323 -0.8274
   15SAPS   H2S 1890   3.323   4.692   2.946 -0.0351  0.2331 -1.0590
   15SAPS    C3 1891   3.006   4.390   2.700 -0.0076 -0.1124  0.4221
   15SAPS    HX 1892   3.070   4.310   2.744  0.1084  0.1575  0.7452
   15SAPS    HY 1893   2.964   4.352   2.605  1.5239  0.4284 -0.5104
   15SAPS   O31 1894   2.912   4.433   2.802 -0.4305 -0.0683  0.0791
   15SAPS   C31 1895   2.815   4.494   2.740  0.7537 -0.4274  0.3038
   15SAPS   O32 1896   2.813   4.529   2.620 -0.1856 -0.0943 -0.1347
   15SAPS   C32 1897   2.704   4.526   2.838 -0.4580  0.1581 -0.4518
   15SAPS   H2X 1898   2.610   4.521   2.778 -1.3466  0.1666  0.8955
   15SAPS   H2Y 1899   2.698   4.632   2.871 -3.2395 -0.9043  3.0443
   15SAPS   C23 1900   3.162   4.715   3.087 -0.1317 -0.2193  0.1309
   15SAPS   H3R 1901   3.078   4.656   3.129 -1.4652  1.5462  0.0313
   15SAPS   H3S 1902   3.124   4.814   3.057 -0.6071 -0.7604 -1.1012
   15SAPS   C24 1903   3.270   4.738   3.197 -0.4682 -0.0545  0.5624
   15SAPS   H4R 1904   3.347   4.812   3.164 -1.0500 -0.1881 -1.2348
   15SAPS   H4S 1905   3.327   4.643   3.210 -0.3573  0.0310  0.6968
   15SAPS   C25 1906   3.221   4.779   3.327 -0.1667 -0.1125 -0.0796
   15SAPS   H5R 1907   3.166   4.874   3.318 -0.0947 -0.2762 -3.4088
   15SAPS   C26 1908   3.221   4.713   3.442  0.2523  0.2419  0.4270
   15SAPS   H6R 1909   3.166   4.754   3.528 -1.3378 -0.3211 -0.2847
   15SAPS   C27 1910   3.273   4.573   3.458  0.1097  0.5284 -0.2677
   15SAPS   H7R 1911   3.383   4.575   3.467  0.3461 -2.0756 -1.6941
   15SAPS   H7S 1912   3.266   4.501   3.375 -0.3124  0.9524 -0.6040
   15SAPS   C28 1913   3.219   4.500   3.584 -0.4226  0.4876 -0.3459
   15SAPS   H8R 1914   3.295   4.486   3.662  0.3018  1.1978 -0.9034
   15SAPS   C29 1915   3.101   4.448   3.610 -0.1674  0.5926  0.2110
   15SAPS   H9R 1916   3.078   4.402   3.707 -0.0758  2.3247  1.0939
   15SAPS  C210 1917   2.979   4.463   3.530  0.3767 -0.3330  0.3955
   15SAPS  H10R 1918   2.894   4.398   3.559  0.3630 -0.8974 -0.8452
   15SAPS  H10S 1919   2.997   4.427   3.427 -1.3824  0.9169 -0.4112
   15SAPS  C211 1920   2.928   4.605   3.526 -0.0854 -0.1541  0.4473
   15SAPS  H11R 1921   2.963   4.648   3.431 -1.1323 -1.5769 -0.6197
   15SAPS  C212 1922   2.886   4.685   3.628 -0.2775  0.5799  0.3976
   15SAPS  H12R 1923   2.867   4.792   3.613 -1.5461  0.5556  1.6106
   15SAPS  C213 1924   2.847   4.627   3.760 -0.3420 -0.4396  0.1352
   15SAPS  H13R 1925   2.889   4.524   3.765  1.4871  0.1642 -1.3955
   15SAPS  H13S 1926   2.737   4.620   3.759 -0.4899  0.4634  2.8350
   15SAPS  C214 1927   2.878   4.704   3.888  0.1985  0.1097 -1.3257
   15SAPS  H14R 1928   2.797   4.704   3.962  0.1883 -2.4213 -1.2255
   15SAPS  C215 1929   2.997   4.745   3.937  0.4911 -0.2845 -0.2990
   15SAPS  H15R 1930   2.998   4.799   4.033  2.3868 -1.0139  0.1345
   15SAPS  C216 1931   3.130   4.745   3.870 -1.3950 -0.1983  0.3091
   15SAPS  H16R 1932   3.163   4.842   3.828  1.8310 -0.7477  1.3601
   15SAPS  H16S 1933   3.127   4.665   3.793 -3.5613 -0.2183  0.3373
   15SAPS  C217 1934   3.237   4.688   3.967 -0.4404 -1.0088  0.1856
   15SAPS  H17R 1935   3.245   4.745   4.062 -1.4674  1.3861 -1.0911
   15SAPS  H17S 1936   3.335   4.698   3.915 -2.1411  0.3071 -3.0326
   15SAPS  C218 1937   3.215   4.538   3.998  0.1172 -1.1760  0.3422
   15SAPS  H18R 1938   3.188   4.482   3.906  2.0387 -0.2444 -0.8543
   15SAPS  H18S 1939   3.129   4.531   4.067 -0.3400  2.5895  0.3732
   15SAPS  C219 1940   3.350   4.474   4.050  0.0614 -0.0854 -0.3711
   15SAPS  H19R 1941   3.426   4.489   3.970  0.4405  0.1774  0.0364
   15SAPS  H19S 1942   3.333   4.365   4.064 -0.1353  0.1441  1.4071
   15SAPS  C220 1943   3.412   4.535   4.176 -0.3697 -0.2979 -0.0726
   15SAPS  H20R 1944   3.510   4.582   4.155 -0.5862  1.3886  2.3140
   15SAPS  H20S 1945   3.428   4.453   4.249  3.5465  0.2893 -0.0975
   15SAPS  H20T 1946   3.349   4.621   4.209  0.9926  2.2347 -3.4904
   15SAPS   C33 1947   2.686   4.427   2.960 -0.8403  0.3270 -0.6662
   15SAPS   H3X 1948   2.723   4.325   2.933  1.6964  1.0701 -0.2772
   15SAPS   H3Y 1949   2.581   4.415   2.994 -0.5774 -1.0252 -0.2834
   15SAPS   C34 1950   2.762   4.467   3.080  0.2897  0.0755  0.0668
   15SAPS   H4X 1951   2.868   4.479   3.049 -0.2403  1.3411 -1.3463
   15SAPS   H4Y 1952   2.755   4.385   3.155  0.4407 -0.7725 -0.8196
   15SAPS   C35 1953   2.711   4.603   3.143  0.2070  0.0505  0.6734
   15SAPS   H5X 1954   2.706   4.685   3.067 -1.4244 -0.7169 -0.0908
   15SAPS   H5Y 1955   2.785   4.638   3.218 -0.4721  1.6149  0.6548
   15SAPS   C36 1956   2.570   4.590   3.214  0.5232  0.5409 -0.0437
   15SAPS   H6X 1957   2.545   4.484   3.196 -0.5412  0.8860 -0.6816
   15SAPS   H6Y 1958   2.500   4.652   3.154  1.5772  0.4986 -1.3841
   15SAPS   C37 1959   2.571   4.628   3.364 -0.8823 -0.1486 -0.2789
   15SAPS   H7X 1960   2.576   4.737   3.384 -1.4939 -0.2736  0.6287
   15SAPS   H7Y 1961   2.666   4.592   3.410 -0.6109  0.0545 -0.6783
   15SAPS   C38 1962   2.469   4.560   3.451 -0.0143 -0.3827 -0.1969
   15SAPS   H8X 1963   2.493   4.590   3.555 -0.0918 -1.3530  0.1120
   15SAPS   H8Y 1964   2.475   4.450   3.442 -2.7414 -0.5543 -0.6649
   15SAPS   C39 1965   2.330   4.624   3.413 -0.6723 -0.5783  0.2678
   15SAPS   H9X 1966   2.300   4.593   3.311 -0.6977 -0.7974  0.3423
   15SAPS   H9Y 1967   2.343   4.734   3.405 -0.1616 -0.5026  1.7938
   15SAPS  C310 1968   2.222   4.590   3.515  0.1936 -0.0955 -1.2130
   15SAPS  H10X 1969   2.217   4.482   3.539  0.8953 -0.0345 -0.7604
   15SAPS  H10Y 1970   2.122   4.618   3.477  0.8204  0.0119 -2.8556
   15SAPS  C311 1971   2.234   4.679   3.645 -0.2364  0.1107  0.2836
   15SAPS  H11X 1972   2.213   4.781   3.608  0.3447  0.1339  0.0198
   15SAPS  H11Y 1973   2.342   4.670   3.672  0.2341  1.7669 -0.9144
   15SAPS  C312 1974   2.121   4.650   3.745 -0.0284  0.4447  0.7504
   15SAPS  H12X 1975   2.121   4.539   3.757 -0.3979  0.4017  0.3841
   15SAPS  H12Y 1976   2.023   4.668   3.695  0.2373 -1.6123 -0.6506
   15SAPS  C313 1977   2.141   4.725   3.873 -1.2078  0.4193  0.0732
   15SAPS  H13X 1978   2.095   4.826   3.863 -0.6153  0.8595  1.4907
   15SAPS  H13Y 1979   2.242   4.741   3.914 -1.6489  2.6450  0.4058
   15SAPS  C314 1980   2.074   4.651   3.991  0.4186 -0.1093 -0.6736
   15SAPS  H14X 1981   2.140   4.567   4.021  0.7045  0.9068  1.6853
   15SAPS  H14Y 1982   1.978   4.602   3.962 -0.2436 -0.4183  1.8109
   15SAPS  C315 1983   2.043   4.745   4.116 -0.4535  0.7285  0.6232
   15SAPS  H15X 1984   1.971   4.822   4.081 -1.0260 -0.0410  0.0863
   15SAPS  H15Y 1985   2.129   4.808   4.148 -0.4321  0.8582  0.3183
   15SAPS  C316 1986   1.976   4.678   4.235  0.2490  0.1673  0.2698
   15SAPS  H16X 1987   2.057   4.639   4.300  1.1986 -1.3565 -1.7289
   15SAPS  H16Y 1988   1.909   4.596   4.203  0.5457 -0.7787  1.9442
   15SAPS  C317 1989   1.883   4.776   4.306 -0.3855 -0.0836 -0.0364
   15SAPS  H17X 1990   1.816   4.713   4.368 -0.0304  0.1849  0.6263
   15SAPS  H17Y 1991   1.815   4.821   4.231 -1.2869 -2.3563 -0.6491
   15SAPS  C318 1992   1.958   4.887   4.385  0.4862 -0.1663 -0.2344
   15SAPS  H18X 1993   1.879   4.957   4.421 -0.4240 -1.2906 -0.0011
   15SAPS  H18Y 1994   2.030   4.933   4.314 -0.0774 -0.2037 -0.8392
   15SAPS  H18Z 1995   2.010   4.843   4.472  0.8981  1.5677  0.4374
   16SAPS     N 1996   4.035   4.722   2.384 -0.1751 -0.1457  0.2404
   16SAPS   HN1 1997   4.128   4.744   2.425  0.1255  0.4957 -0.7434
   16SAPS   HN2 1998   3.969   4.687   2.456 -1.6455 -1.0221 -1.4326
   16SAPS   HN3 1999   4.037   4.651   2.308 -0.6853 -1.6290  1.5590
   16SAPS   C12 2000   3.970   4.852   2.335  0.1578 -0.0762  0.3032
   16SAPS  H12A 2001   3.979   4.908   2.427  0.2673  0.3098  0.0594
   16SAPS   C13 2002   4.055   4.927   2.227  0.6015  0.2488  0.5986
   16SAPS  O13A 2003   4.151   4.863   2.166 -0.0761 -0.2831 -0.3846
   16SAPS  O13B 2004   4.005   5.035   2.189 -0.2117 -0.1425 -0.4830
   16SAPS   C11 2005   3.815   4.838   2.317  0.2371  0.1753  0.2804
   16SAPS  H11A 2006   3.802   4.821   2.208 -0.4958 -1.2697  0.5668
   16SAPS  H11B 2007   3.760   4.932   2.340  1.4316  0.7391  0.9262
   16SAPS     P 2008   3.615   4.688   2.385  0.3961  0.2624  0.3296
   16SAPS   O13 2009   3.526   4.806   2.414  0.0023  0.1014  0.3543
   16SAPS   O14 2010   3.595   4.626   2.251  0.5005 -0.6280  0.2614
   16SAPS   O12 2011   3.770   4.729   2.399 -0.0175  0.2557  0.2191
   16SAPS   O11 2012   3.608   4.573   2.490 -0.0044  0.7288 -0.1639
   16SAPS    C1 2013   3.647   4.441   2.452  1.0442  0.2716 -0.3832
   16SAPS    HA 2014   3.562   4.383   2.410  2.5308 -2.1189 -0.2938
   16SAPS    HB 2015   3.735   4.440   2.385  1.4068  0.3579  0.0877
   16SAPS    C2 2016   3.711   4.361   2.570  0.6860 -0.2996  0.2795
   16SAPS    HS 2017   3.743   4.262   2.531 -0.1192 -0.7666  0.7888
   16SAPS   O21 2018   3.611   4.347   2.670 -0.4451  0.3966  0.5104
   16SAPS   C21 2019   3.610   4.230   2.731 -0.2390  0.1884  0.3202
   16SAPS   O22 2020   3.661   4.122   2.707 -0.1007 -0.5456  0.2357
   16SAPS   C22 2021   3.530   4.250   2.857  0.1899  0.0668 -0.4948
   16SAPS   H2R 2022   3.559   4.345   2.908  1.0055 -1.1113  1.2990
   16SAPS   H2S 2023   3.422   4.263   2.832 -0.2482  0.6917  1.5350
   16SAPS    C3 2024   3.837   4.425   2.629 -0.4746 -0.4463 -0.0113
   16SAPS    HX 2025   3.794   4.522   2.661 -0.1891 -0.5570  0.7298
   16SAPS    HY 2026   3.930   4.447   2.572  1.1100 -1.1509  2.1601
   16SAPS   O31 2027   3.874   4.363   2.757  0.1906 -0.0773  0.4555
   16SAPS   C31 2028   3.945   4.439   2.835  0.3418  0.1737 -0.2307
   16SAPS   O32 2029   3.978   4.555   2.810  0.7062  0.3374  0.4491
   16SAPS   C32 2030   3.993   4.367   2.962  0.2553  0.5147  0.4270
   16SAPS   H2X 2031   4.088   4.312   2.947  0.8900  1.4466  0.9296
   16SAPS   H2Y 2032   3.913   4.296   2.994  0.9219  0.2061  1.4722
   16SAPS   C23 2033   3.540   4.130   2.959 -0.6845 -1.0169  0.4843
   16SAPS   H3R 2034   3.648   4.116   2.985  0.4443  2.1212 -1.8199
   16SAPS   H3S 2035   3.509   4.036   2.908  0.3815 -0.0009 -2.2117
   16SAPS   C24 2036   3.470   4.142   3.089  0.2641  0.5671 -0.6687
   16SAPS   H4R 2037   3.473   4.041   3.135 -0.6596  0.0339 -1.7498
   16SAPS   H4S 2038   3.361   4.154   3.071  0.1552  0.3896 -0.1366
   16SAPS   C25 2039   3.514   4.239   3.196 -0.1808  0.5674 -0.0631
   16SAPS   H5R 2040   3.449   4.327   3.209  0.9077  1.3342  0.3695
   16SAPS   C26 2041   3.617   4.233   3.287 -0.0609  0.0185 -0.4120
   16SAPS   H6R 2042   3.628   4.322   3.350  0.5874  1.0111 -1.8857
   16SAPS   C27 2043   3.724   4.130   3.292 -0.4563 -0.0861 -0.3294
   16SAPS   H7R 2044   3.824   4.175   3.274  0.3882 -2.6804 -2.9357
   16SAPS   H7S 2045   3.702   4.062   3.207 -0.9279  1.6507 -1.6815
   16SAPS   C28 2046   3.717   4.048   3.418 -0.2712  0.4769  0.1241
   16SAPS   H8R 2047   3.618   4.004   3.439  0.2087 -0.5102  0.3429
   16SAPS   C29 2048   3.818   4.040   3.514  0.8077 -0.2271  0.4870
   16SAPS   H9R 2049   3.799   3.982   3.605  1.8216 -0.7309  0.3882
   16SAPS  C210 2050   3.956   4.101   3.505 -0.3691 -1.0859 -0.2074
   16SAPS  H10R 2051   3.986   4.156   3.596  4.2378 -0.9825 -1.5451
   16SAPS  H10S 2052   3.963   4.179   3.426 -0.2061  0.2049  1.0420
   16SAPS  C211 2053   4.068   3.998   3.477 -0.1520 -0.6715  0.2519
   16SAPS  H11R 2054   4.085   3.981   3.370  0.5466 -0.6926  0.3636
   16SAPS  C212 2055   4.137   3.921   3.562 -0.2775 -0.1968 -0.8400
   16SAPS  H12R 2056   4.218   3.857   3.523 -0.9122 -0.3089 -2.0104
   16SAPS  C213 2057   4.137   3.925   3.719 -0.5517  0.2843  0.2595
   16SAPS  H13R 2058   4.088   3.833   3.757 -0.3773  0.0808 -0.0032
   16SAPS  H13S 2059   4.064   4.004   3.748 -0.3510  1.8306 -2.8966
   16SAPS  C214 2060   4.271   3.962   3.779 -1.1064 -0.5137 -0.3706
   16SAPS  H14R 2061   4.330   4.041   3.729 -2.7395 -0.0831 -1.7140
   16SAPS  C215 2062   4.323   3.915   3.895 -0.7951 -1.0512  0.1361
   16SAPS  H15R 2063   4.427   3.951   3.905 -0.7802 -1.1664  0.4053
   16SAPS  C216 2064   4.265   3.829   4.006  0.2525 -0.0301  0.0671
   16SAPS  H16R 2065   4.312   3.728   4.009  0.2789  0.0044  1.5599
   16SAPS  H16S 2066   4.157   3.821   3.981  0.2153 -1.1201  0.5055
   16SAPS  C217 2067   4.275   3.907   4.144  0.0186  0.4473 -0.0054
   16SAPS  H17R 2068   4.222   3.841   4.216 -0.7356  0.6175 -0.3944
   16SAPS  H17S 2069   4.213   3.999   4.136 -2.0147 -0.8893 -0.3732
   16SAPS  C218 2070   4.416   3.930   4.194  0.3464  0.2469  0.0973
   16SAPS  H18R 2071   4.478   3.979   4.115 -0.4952 -1.8553 -1.9617
   16SAPS  H18S 2072   4.458   3.831   4.223 -1.0858 -0.0056  1.4137
   16SAPS  C219 2073   4.413   4.020   4.320  0.0100  0.1370 -0.2002
   16SAPS  H19R 2074   4.514   4.025   4.366  0.1135  0.3161 -0.4425
   16SAPS  H19S 2075   4.348   3.981   4.401 -1.5604  0.0390 -1.4616
   16SAPS  C220 2076   4.385   4.166   4.289  0.1847 -0.0067  0.4996
   16SAPS  H20R 2077   4.423   4.202   4.191  0.2328  0.0284  0.5312
   16SAPS  H20S 2078   4.426   4.231   4.370 -2.0002  1.7632  0.2521
   16SAPS  H20T 2079   4.275   4.171   4.292  0.0763 -2.0598  2.0190
   16SAPS   C33 2080   4.018   4.470   3.075  0.2534 -0.6052  0.5094
   16SAPS   H3X 2081   3.927   4.534   3.084  0.5300  0.0195 -0.8893
   16SAPS   H3Y 2082   4.099   4.545   3.065 -0.2371  0.1792  1.9921
   16SAPS   C34 2083   4.024   4.406   3.212 -0.1792  0.4844  0.5638
   16SAPS   H4X 2084   4.098   4.325   3.196 -1.3715 -0.8996  1.7337
   16SAPS   H4Y 2085   3.928   4.366   3.250 -1.1427  2.3405  0.2173
   16SAPS   C35 2086   4.084   4.486   3.321 -0.6140 -0.5405 -0.1157
   16SAPS   H5X 2087   4.048   4.449   3.420 -0.3396  0.4666  0.3700
   16SAPS   H5Y 2088   4.071   4.594   3.300  2.9619 -0.2737 -1.6867
   16SAPS   C36 2089   4.245   4.482   3.337  0.5092  0.4380 -0.8324
   16SAPS   H6X 2090   4.283   4.539   3.250 -2.8999  2.3827 -1.2188
   16SAPS   H6Y 2091   4.284   4.379   3.352  1.0457  0.9138  1.4161
   16SAPS   C37 2092   4.290   4.552   3.464 -0.4447  0.5110 -0.1212
   16SAPS   H7X 2093   4.282   4.485   3.552 -1.4569 -1.7644 -1.8526
   16SAPS   H7Y 2094   4.235   4.646   3.485  1.0132  1.3800 -0.0627
   16SAPS   C38 2095   4.438   4.600   3.466  0.7471  0.1153  1.1325
   16SAPS   H8X 2096   4.456   4.637   3.363 -1.0395  1.0271  1.1082
   16SAPS   H8Y 2097   4.496   4.505   3.460  0.1169 -0.2065 -0.3739
   16SAPS   C39 2098   4.462   4.695   3.577 -0.4911 -0.1918  0.3407
   16SAPS   H9X 2099   4.425   4.646   3.670  0.4012  1.4093  1.5999
   16SAPS   H9Y 2100   4.401   4.787   3.562  0.8845  0.6794 -0.0759
   16SAPS  C310 2101   4.605   4.737   3.585  0.2395 -0.1404  0.1755
   16SAPS  H10X 2102   4.629   4.803   3.499  0.7200  1.2538  1.3307
   16SAPS  H10Y 2103   4.675   4.651   3.578 -0.9549 -1.0434 -5.3495
   16SAPS  C311 2104   4.636   4.809   3.716  0.7650 -0.5420  0.0325
   16SAPS  H11X 2105   4.734   4.862   3.713  0.1652  0.7291  1.3483
   16SAPS  H11Y 2106   4.641   4.730   3.794  0.7688 -0.2217  0.3602
   16SAPS  C312 2107   4.551   4.928   3.774 -1.3209  0.0800  0.4295
   16SAPS  H12X 2108   4.448   4.892   3.797 -1.1519  0.1885  1.3950
   16SAPS  H12Y 2109   4.546   5.009   3.698  0.0320  0.3926  0.6522
   16SAPS  C313 2110   4.615   4.990   3.903 -0.1720 -0.3626  0.9578
   16SAPS  H13X 2111   4.554   5.074   3.943 -1.5869 -0.0818 -1.5597
   16SAPS  H13Y 2112   4.705   5.035   3.856 -1.4360 -0.0032 -1.2502
   16SAPS  C314 2113   4.659   4.890   4.016 -0.2412  0.3676 -0.4668
   16SAPS  H14X 2114   4.706   4.797   3.978 -2.4662 -0.2490 -1.9579
   16SAPS  H14Y 2115   4.568   4.869   4.077 -0.5424 -0.0429 -1.0482
   16SAPS  C315 2116   4.755   4.948   4.121  0.4233  0.2120  0.0699
   16SAPS  H15X 2117   4.841   4.981   4.058  0.2318  1.4374  0.4216
   16SAPS  H15Y 2118   4.781   4.858   4.181  0.4182  0.7895  0.9741
   16SAPS  C316 2119   4.700   5.047   4.221 -0.4398 -0.2706  0.4905
   16SAPS  H16X 2120   4.633   4.996   4.293 -2.1217  1.4618  0.2329
   16SAPS  H16Y 2121   4.643   5.124   4.165  2.1523 -0.3709 -2.5285
   16SAPS  C317 2122   4.811   5.104   4.309  0.1657 -0.4110  0.8928
   16SAPS  H17X 2123   4.881   5.162   4.246 -2.0996  1.1211 -0.3521
   16SAPS  H17Y 2124   4.865   5.016   4.350  1.8959 -0.5520 -1.4655
   16SAPS  C318 2125   4.751   5.193   4.420 -0.5018 -0.1817 -0.5163
   16SAPS  H18X 2126   4.715   5.292   4.386 -1.0184 -0.2856 -0.2762
   16SAPS  H18Y 2127   4.830   5.218   4.493 -0.0920  0.1812 -1.0798
   16SAPS  H18Z 2128   4.670   5.137   4.470  0.5311 -1.2155  0.0529
   17SAPS     N 2129   1.267   2.911   1.807 -0.5862 -0.2148 -0.2360
   17SAPS   HN1 2130   1.208   2.938   1.888 -0.2082  0.8604 -0.3043
   17SAPS   HN2 2131   1.340   2.844   1.837 -0.9160 -0.2078  0.6082
   17SAPS   HN3 2132   1.308   2.992   1.756  0.1238  0.3400  1.1707
   17SAPS   C12 2133   1.165   2.846   1.717  0.3788 -0.6183 -0.1861
   17SAPS  H12A 2134   1.225   2.807   1.635  0.3994 -1.7333  0.3432
   17SAPS   C13 2135   1.070   2.738   1.759  0.1266  0.5558 -0.7046
   17SAPS  O13A 2136   1.058   2.707   1.885 -0.5716  0.2243 -0.2107
   17SAPS  O13B 2137   0.996   2.672   1.677  0.0983  0.0757 -0.9802
   17SAPS   C11 2138   1.071   2.951   1.661 -0.6345 -0.4439  0.0169
   17SAPS  H11A 2139   1.005   2.911   1.581 -0.1865  1.5274 -1.4077
   17SAPS  H11B 2140   1.143   3.018   1.609 -0.0124  0.4262  1.8980
   17SAPS     P 2141   1.017   3.155   1.816 -0.2495  0.2559 -0.2147
   17SAPS   O13 2142   1.150   3.153   1.884 -0.0945 -0.2441  0.5927
   17SAPS   O14 2143   0.989   3.266   1.718 -0.2125  0.2055 -0.2586
   17SAPS   O12 2144   0.977   3.017   1.750 -0.1540  0.2321 -0.2357
   17SAPS   O11 2145   0.902   3.156   1.926  0.5056 -0.1104 -0.7546
   17SAPS    C1 2146   0.888   3.273   2.010 -0.0909  0.3887 -0.3650
   17SAPS    HA 2147   0.943   3.362   1.975 -1.6319  1.4965 -0.0480
   17SAPS    HB 2148   0.779   3.293   2.014 -0.6615 -1.3161 -3.7949
   17SAPS    C2 2149   0.945   3.246   2.155 -0.6181 -0.1959  0.5898
   17SAPS    HS 2150   1.054   3.230   2.140 -1.0308 -2.0688 -0.7632
   17SAPS   O21 2151   0.874   3.136   2.217  0.0828 -0.6037 -0.3994
   17SAPS   C21 2152   0.955   3.056   2.295 -0.3122  0.3870 -0.0033
   17SAPS   O22 2153   1.079   3.072   2.292  0.2193  0.1845 -0.8086
   17SAPS   C22 2154   0.884   2.945   2.363 -0.0155 -0.1581 -0.9083
   17SAPS   H2R 2155   0.850   2.877   2.282  1.0703 -3.3247  1.1127
   17SAPS   H2S 2156   0.956   2.881   2.417  0.8417  1.7955  0.3560
   17SAPS    C3 2157   0.930   3.377   2.235  0.1286  0.2250 -0.2523
   17SAPS    HX 2158   0.825   3.412   2.227 -0.3801 -1.3117 -0.5068
   17SAPS    HY 2159   0.993   3.452   2.182 -1.3378  2.1398  0.5912
   17SAPS   O31 2160   0.967   3.366   2.377  0.0350  0.3499 -0.0586
   17SAPS   C31 2161   0.870   3.356   2.470  0.7582  0.5504  0.7365
   17SAPS   O32 2162   0.752   3.346   2.443 -0.0656  0.6985 -0.8498
   17SAPS   C32 2163   0.937   3.344   2.605  0.1032  0.3421 -0.5312
   17SAPS   H2X 2164   1.023   3.413   2.592  0.2120  0.6150  1.4490
   17SAPS   H2Y 2165   0.973   3.239   2.608  0.4758  0.4842  0.3905
   17SAPS   C23 2166   0.776   3.001   2.461  0.0264  0.0559  0.6961
   17SAPS   H3R 2167   0.709   3.072   2.409 -0.3073 -0.4145  0.4817
   17SAPS   H3S 2168   0.818   3.058   2.547 -0.6896  0.3705  0.8432
   17SAPS   C24 2169   0.701   2.884   2.531  0.2805 -0.3740  0.0168
   17SAPS   H4R 2170   0.642   2.926   2.616  0.8096  1.4408 -0.4733
   17SAPS   H4S 2171   0.777   2.835   2.595  0.8650  1.2631  0.6187
   17SAPS   C25 2172   0.629   2.776   2.452  0.1410  0.2375  0.3655
   17SAPS   H5R 2173   0.679   2.739   2.362 -1.6442 -0.8689 -0.2216
   17SAPS   C26 2174   0.510   2.719   2.483  0.3410  0.2321  0.1220
   17SAPS   H6R 2175   0.466   2.648   2.411 -0.1003 -1.5625  2.0809
   17SAPS   C27 2176   0.431   2.745   2.603 -0.7127  0.4574 -0.5190
   17SAPS   H7R 2177   0.326   2.770   2.577 -1.2403 -1.2296 -0.1444
   17SAPS   H7S 2178   0.475   2.829   2.660  2.1111  0.3751 -2.4015
   17SAPS   C28 2179   0.444   2.617   2.677 -0.5997  0.1397 -0.4631
   17SAPS   H8R 2180   0.527   2.551   2.646 -0.7557  0.8712 -2.5667
   17SAPS   C29 2181   0.371   2.572   2.778  0.5456 -0.8945 -0.4343
   17SAPS   H9R 2182   0.395   2.480   2.833  1.4058 -0.0941  0.5766
   17SAPS  C210 2183   0.250   2.648   2.831 -0.1059  0.6448 -0.5045
   17SAPS  H10R 2184   0.199   2.706   2.752 -1.0943 -0.7623 -0.9382
   17SAPS  H10S 2185   0.287   2.727   2.901 -2.5603  2.4235 -1.0976
   17SAPS  C211 2186   0.151   2.566   2.907 -0.6134 -0.3731  0.2164
   17SAPS  H11R 2187   0.054   2.560   2.854 -1.0468 -0.0636  0.9507
   17SAPS  C212 2188   0.157   2.492   3.021  0.3051  0.5955 -0.2099
   17SAPS  H12R 2189   0.061   2.458   3.063  1.2330  0.7507  2.1966
   17SAPS  C213 2190   0.277   2.485   3.115  0.2146  0.3712  0.1218
   17SAPS  H13R 2191   0.368   2.506   3.055 -0.7528  1.4981 -0.9917
   17SAPS  H13S 2192   0.277   2.381   3.155 -0.6802  0.5734  0.6553
   17SAPS  C214 2193   0.258   2.597   3.218  0.0815 -0.0650 -0.8710
   17SAPS  H14R 2194   0.308   2.694   3.205 -0.0175  0.2409  0.7166
   17SAPS  C215 2195   0.191   2.572   3.337 -0.0387  0.3642 -0.3621
   17SAPS  H15R 2196   0.180   2.660   3.403 -0.1824 -0.7341  1.1277
   17SAPS  C216 2197   0.113   2.450   3.371 -0.5528 -0.3176 -0.0666
   17SAPS  H16R 2198   0.145   2.362   3.311 -0.9897  0.9316 -2.2069
   17SAPS  H16S 2199   0.009   2.465   3.333 -0.3800  1.2439  0.0015
   17SAPS  C217 2200   0.120   2.426   3.527  0.9332 -0.0790 -0.1000
   17SAPS  H17R 2201   0.106   2.516   3.590  2.5069  1.1688 -1.4353
   17SAPS  H17S 2202   0.217   2.378   3.551  0.2727 -0.9979  0.8430
   17SAPS  C218 2203   0.002   2.329   3.558  0.0173  0.4646 -0.0351
   17SAPS  H18R 2204  -0.092   2.367   3.513  0.9975  1.6062 -1.2302
   17SAPS  H18S 2205  -0.016   2.332   3.668  2.8106  0.1113  0.5049
   17SAPS  C219 2206   0.022   2.184   3.497 -0.6127 -0.3840 -0.0148
   17SAPS  H19R 2207   0.023   2.188   3.386  1.6398  1.2557 -0.0074
   17SAPS  H19S 2208  -0.064   2.122   3.531  0.1623 -1.0214  0.8330
   17SAPS  C220 2209   0.150   2.107   3.531 -0.1549 -0.7722  0.0931
   17SAPS  H20R 2210   0.133   2.003   3.495  0.6559 -0.0529 -2.5514
   17SAPS  H20S 2211   0.174   2.103   3.639  1.1140 -0.1940 -0.1523
   17SAPS  H20T 2212   0.239   2.152   3.482 -0.2496 -0.8591 -0.1580
   17SAPS   C33 2213   0.862   3.387   2.734  0.2646  0.7614 -0.4224
   17SAPS   H3X 2214   0.806   3.481   2.714 -0.5797  0.4315  0.3444
   17SAPS   H3Y 2215   0.940   3.398   2.811 -1.0860 -4.1614  2.0297
   17SAPS   C34 2216   0.762   3.276   2.780 -0.0717  0.0548  0.3252
   17SAPS   H4X 2217   0.821   3.184   2.758  1.7998  1.0914  0.7696
   17SAPS   H4Y 2218   0.677   3.261   2.710  0.1210 -1.0976  0.3153
   17SAPS   C35 2219   0.705   3.302   2.913  0.0187  0.0535  0.4835
   17SAPS   H5X 2220   0.669   3.406   2.923 -0.9162 -0.3151  1.1140
   17SAPS   H5Y 2221   0.794   3.306   2.979  1.0321  3.0688 -0.8893
   17SAPS   C36 2222   0.603   3.196   2.957  0.5013  0.3009  0.0770
   17SAPS   H6X 2223   0.499   3.210   2.922 -0.6462 -3.5472  1.4731
   17SAPS   H6Y 2224   0.594   3.219   3.065  0.2845 -0.0514  0.1321
   17SAPS   C37 2225   0.643   3.049   2.952  0.3021  0.2491 -0.7146
   17SAPS   H7X 2226   0.750   3.034   2.979  0.3272  3.0353  1.0355
   17SAPS   H7Y 2227   0.630   3.009   2.849 -1.2622 -0.9796 -0.0833
   17SAPS   C38 2228   0.572   2.950   3.051 -0.0304  0.0810 -0.0384
   17SAPS   H8X 2229   0.612   2.851   3.020 -2.6025 -0.9657 -0.2813
   17SAPS   H8Y 2230   0.464   2.937   3.026 -0.3920  1.7351  0.5192
   17SAPS   C39 2231   0.610   2.974   3.196  0.2296 -0.6138 -0.1619
   17SAPS   H9X 2232   0.574   3.075   3.225  1.9813  0.3668 -1.2203
   17SAPS   H9Y 2233   0.720   2.978   3.205  0.1011 -0.4968  1.7962
   17SAPS  C310 2234   0.562   2.871   3.295  0.2757  0.4884 -0.0036
   17SAPS  H10X 2235   0.612   2.774   3.273 -1.1261  0.3961 -3.2771
   17SAPS  H10Y 2236   0.455   2.854   3.269  0.4502 -0.6148 -0.0337
   17SAPS  C311 2237   0.574   2.916   3.440 -0.1566  0.2306  0.1207
   17SAPS  H11X 2238   0.524   3.015   3.443 -2.1412 -0.7536  1.0839
   17SAPS  H11Y 2239   0.679   2.931   3.472  0.0796  1.7170 -1.2090
   17SAPS  C312 2240   0.495   2.815   3.524  0.9442 -0.9520  0.0844
   17SAPS  H12X 2241   0.540   2.715   3.508  1.3994 -0.8452  0.6896
   17SAPS  H12Y 2242   0.392   2.804   3.483  1.0704 -2.4406  0.0939
   17SAPS  C313 2243   0.482   2.850   3.674  0.2712  0.3979  0.5751
   17SAPS  H13X 2244   0.493   2.959   3.693  2.3285  0.4284 -0.5266
   17SAPS  H13Y 2245   0.567   2.793   3.719  0.8254 -0.0796 -0.9904
   17SAPS  C314 2246   0.349   2.805   3.733  0.0528  0.4948  0.0795
   17SAPS  H14X 2247   0.355   2.697   3.756  1.3330  0.8967  1.9503
   17SAPS  H14Y 2248   0.263   2.813   3.663 -1.1024  0.3970  1.4401
   17SAPS  C315 2249   0.312   2.878   3.859 -0.2779 -0.2090  0.0440
   17SAPS  H15X 2250   0.306   2.982   3.822  3.2215 -0.5603 -1.9391
   17SAPS  H15Y 2251   0.403   2.866   3.921 -0.9636  1.6496  1.4996
   17SAPS  C316 2252   0.190   2.809   3.934 -0.1538 -0.3701 -0.1082
   17SAPS  H16X 2253   0.209   2.703   3.958 -0.6567 -0.1992  1.1683
   17SAPS  H16Y 2254   0.097   2.816   3.875 -0.7864  0.8269  0.9659
   17SAPS  C317 2255   0.150   2.891   4.058  0.2165 -0.1651  0.4146
   17SAPS  H17X 2256   0.059   2.848   4.106 -0.9471  0.8884 -0.7651
   17SAPS  H17Y 2257   0.137   2.994   4.018 -0.8682 -0.5920 -0.3861
   17SAPS  C318 2258   0.257   2.879   4.168  0.9015 -0.5473 -0.0913
   17SAPS  H18X 2259   0.228   2.950   4.248  0.3728  0.1137 -0.8450
   17SAPS  H18Y 2260   0.350   2.925   4.127  0.2255 -0.2225 -1.3335
   17SAPS  H18Z 2261   0.272   2.776   4.205 -0.5413 -0.4996  0.6658
   18SAPS     N 2262   2.556   2.335   6.641  0.3259 -0.2263  0.0986
   18SAPS   HN1 2263   2.515   2.242   6.664  0.6622  0.1496  2.3944
   18SAPS   HN2 2264   2.545   2.397   6.724 -0.7966 -0.3533  0.0679
   18SAPS   HN3 2265   2.504   2.374   6.559  1.9306  1.3549 -0.2188
   18SAPS   C12 2266   2.697   2.309   6.598 -0.4184  0.2071 -0.1319
   18SAPS  H12A 2267   2.739   2.396   6.551 -1.7238 -0.3311 -2.4217
   18SAPS   C13 2268   2.800   2.260   6.705  1.2440  0.2087  0.1993
   18SAPS  O13A 2269   2.757   2.213   6.816  0.7509  0.4752 -0.6205
   18SAPS  O13B 2270   2.920   2.250   6.666 -0.2487  0.2164 -0.0398
   18SAPS   C11 2271   2.694   2.202   6.483 -0.4845  0.0502 -0.2170
   18SAPS  H11A 2272   2.797   2.184   6.446 -1.2279 -0.2788 -2.2561
   18SAPS  H11B 2273   2.640   2.248   6.398 -0.0770 -1.8873 -1.6171
   18SAPS     P 2274   2.545   1.983   6.441  0.6975  0.0179 -0.3229
   18SAPS   O13 2275   2.571   1.842   6.477  0.1620 -0.0002 -0.2897
   18SAPS   O14 2276   2.402   2.029   6.449 -0.4534 -0.1838  0.0174
   18SAPS   O12 2277   2.635   2.080   6.531  0.4894  0.2135  0.1622
   18SAPS   O11 2278   2.591   2.013   6.290  0.3604  0.0703  0.3987
   18SAPS    C1 2279   2.701   1.955   6.225 -0.3981 -0.0861 -0.1339
   18SAPS    HA 2280   2.785   2.028   6.227 -0.2733 -0.2377  0.4613
   18SAPS    HB 2281   2.745   1.867   6.277 -1.3361 -0.1196  0.6420
   18SAPS    C2 2282   2.679   1.918   6.071 -0.2956  0.3080  0.3403
   18SAPS    HS 2283   2.690   2.011   6.011 -1.0853  0.6439  0.6964
   18SAPS   O21 2284   2.543   1.888   6.043 -0.0909  0.4947  1.0255
   18SAPS   C21 2285   2.487   1.781   6.097  0.5375  0.2170 -0.0794
   18SAPS   O22 2286   2.540   1.703   6.171 -0.1784 -0.6380 -0.1412
   18SAPS   C22 2287   2.346   1.768   6.041  0.8448  0.2347  0.0456
   18SAPS   H2R 2288   2.289   1.834   6.109  0.9216 -0.5844  0.9323
   18SAPS   H2S 2289   2.333   1.797   5.935  3.8788 -2.2993 -1.2063
   18SAPS    C3 2290   2.777   1.814   6.019  0.1973  0.3161  0.6673
   18SAPS    HX 2291   2.773   1.716   6.071 -1.9656  0.7126  1.3512
   18SAPS    HY 2292   2.882   1.848   6.029  0.9205 -1.5568 -0.0253
   18SAPS   O31 2293   2.761   1.800   5.878  0.4538  0.1624  0.2544
   18SAPS   C31 2294   2.706   1.690   5.832  0.1930  0.7965  0.4898
   18SAPS   O32 2295   2.647   1.611   5.908  0.6601  0.3371 -0.3046
   18SAPS   C32 2296   2.715   1.682   5.681  0.2136  0.1888  0.6650
   18SAPS   H2X 2297   2.784   1.763   5.649  0.7601 -0.3412  0.4886
   18SAPS   H2Y 2298   2.618   1.681   5.626  1.2810  0.3207 -1.3006
   18SAPS   C23 2299   2.289   1.623   6.060 -0.3346 -0.1749  0.8717
   18SAPS   H3R 2300   2.304   1.598   6.167 -0.1557 -1.2119  0.6158
   18SAPS   H3S 2301   2.347   1.552   5.997 -0.2153  1.5986 -1.1292
   18SAPS   C24 2302   2.137   1.582   6.029  1.0359  0.4125 -0.4602
   18SAPS   H4R 2303   2.116   1.481   6.069  0.6495  0.7040  0.0809
   18SAPS   H4S 2304   2.135   1.569   5.918 -0.5830 -0.0683 -0.3943
   18SAPS   C25 2305   2.051   1.688   6.096 -0.1677  0.2576 -0.2726
   18SAPS   H5R 2306   2.082   1.717   6.197  0.0537  2.2538 -0.8682
   18SAPS   C26 2307   1.962   1.764   6.026  0.5639 -0.2690  0.2695
   18SAPS   H6R 2308   1.912   1.843   6.084 -0.3782  0.6313 -1.7033
   18SAPS   C27 2309   1.907   1.745   5.884  0.5505  0.1067 -1.7598
   18SAPS   H7R 2310   1.800   1.772   5.876  0.4140  0.3496  0.3436
   18SAPS   H7S 2311   1.906   1.636   5.861 -1.2384 -0.5184  0.8346
   18SAPS   C28 2312   1.983   1.820   5.774  0.2840  0.0402 -0.2101
   18SAPS   H8R 2313   2.056   1.888   5.821  0.9555 -1.4197  0.9451
   18SAPS   C29 2314   1.989   1.802   5.645  0.9033 -0.3782  0.5973
   18SAPS   H9R 2315   2.055   1.877   5.598  0.2546  0.9463  1.7272
   18SAPS  C210 2316   1.917   1.707   5.552  0.2732 -0.5205 -0.2831
   18SAPS  H10R 2317   1.891   1.612   5.603  2.1501 -0.2745  1.2564
   18SAPS  H10S 2318   1.990   1.670   5.477  1.3358 -0.1705  0.5665
   18SAPS  C211 2319   1.797   1.776   5.489 -0.2593 -0.1478  0.5056
   18SAPS  H11R 2320   1.700   1.769   5.541  0.1597 -1.5313  1.1459
   18SAPS  C212 2321   1.785   1.816   5.360  0.4145  0.2641  0.0659
   18SAPS  H12R 2322   1.681   1.851   5.351 -0.8784 -2.2732  3.0950
   18SAPS  C213 2323   1.880   1.798   5.248  1.1126  0.0642  0.6140
   18SAPS  H13R 2324   1.977   1.800   5.301  1.7548  0.1304 -0.5395
   18SAPS  H13S 2325   1.871   1.879   5.171 -1.7204 -0.3537  0.3982
   18SAPS  C214 2326   1.853   1.666   5.179  0.0246  0.0404  0.3538
   18SAPS  H14R 2327   1.827   1.580   5.243 -2.3527  0.6899  0.3766
   18SAPS  C215 2328   1.815   1.651   5.043 -0.2079  0.0826 -0.3493
   18SAPS  H15R 2329   1.806   1.546   5.010 -0.9235 -0.0253  0.1758
   18SAPS  C216 2330   1.812   1.754   4.940 -0.2107  0.4539  0.3045
   18SAPS  H16R 2331   1.903   1.818   4.930  0.9819 -0.8561  2.2192
   18SAPS  H16S 2332   1.735   1.828   4.970 -0.4292  1.1731 -1.8449
   18SAPS  C217 2333   1.755   1.696   4.811 -0.2275  0.2880  0.1368
   18SAPS  H17R 2334   1.645   1.705   4.808 -0.1023  1.9942 -1.6463
   18SAPS  H17S 2335   1.766   1.586   4.800 -0.3909  0.3544 -0.7570
   18SAPS  C218 2336   1.805   1.762   4.680 -0.2572 -0.3507 -0.3051
   18SAPS  H18R 2337   1.916   1.759   4.679 -0.2560 -1.4696 -2.5217
   18SAPS  H18S 2338   1.783   1.869   4.697  0.7902 -0.4407  2.0753
   18SAPS  C219 2339   1.750   1.702   4.549 -0.5457  0.2761 -0.1274
   18SAPS  H19R 2340   1.639   1.710   4.552 -0.4675  1.2962  1.8020
   18SAPS  H19S 2341   1.771   1.593   4.550  0.7919  0.4864  1.8728
   18SAPS  C220 2342   1.792   1.781   4.420 -0.1426  0.2023 -0.8351
   18SAPS  H20R 2343   1.900   1.773   4.398 -0.0204  0.8157 -0.4966
   18SAPS  H20S 2344   1.766   1.889   4.432  1.2127  0.6448 -1.7246
   18SAPS  H20T 2345   1.726   1.748   4.337 -0.6161  2.1369 -1.3001
   18SAPS   C33 2346   2.794   1.550   5.641 -0.3728  0.0118 -0.3760
   18SAPS   H3X 2347   2.729   1.463   5.664 -1.7404  0.5983 -1.8677
   18SAPS   H3Y 2348   2.880   1.543   5.711 -1.0147  1.1152  0.5567
   18SAPS   C34 2349   2.833   1.529   5.500 -0.1290  0.0033  0.2765
   18SAPS   H4X 2350   2.853   1.422   5.480  1.0251  0.0696  0.9981
   18SAPS   H4Y 2351   2.930   1.584   5.493 -1.2990  2.4174  1.6351
   18SAPS   C35 2352   2.741   1.581   5.387  0.4346 -0.4575 -0.3469
   18SAPS   H5X 2353   2.733   1.692   5.394  1.8649 -0.4409  2.6032
   18SAPS   H5Y 2354   2.645   1.527   5.379 -0.6224  1.5049 -2.2672
   18SAPS   C36 2355   2.820   1.563   5.256  1.1229  0.1775 -0.3137
   18SAPS   H6X 2356   2.862   1.460   5.259 -0.0003 -0.6390 -4.9572
   18SAPS   H6Y 2357   2.895   1.644   5.242 -0.1146  1.5371  0.7177
   18SAPS   C37 2358   2.734   1.567   5.134  0.5298 -0.8265 -0.2981
   18SAPS   H7X 2359   2.691   1.668   5.145 -1.5947 -1.6764 -0.4078
   18SAPS   H7Y 2360   2.662   1.484   5.148  0.8905 -0.7959  2.0350
   18SAPS   C38 2361   2.809   1.545   5.000  0.1725 -0.2756  0.1597
   18SAPS   H8X 2362   2.857   1.445   5.003 -0.1461 -0.5999 -2.9776
   18SAPS   H8Y 2363   2.894   1.617   5.001  0.3338 -0.4096  2.2762
   18SAPS   C39 2364   2.727   1.554   4.874  0.2845 -0.4546  0.1844
   18SAPS   H9X 2365   2.702   1.659   4.849  1.0329 -0.8900 -2.7480
   18SAPS   H9Y 2366   2.633   1.496   4.884  0.3003 -0.7722 -1.2196
   18SAPS  C310 2367   2.797   1.505   4.751  0.4633 -0.0900 -0.4540
   18SAPS  H10X 2368   2.798   1.394   4.761  0.2466  0.0054  0.7500
   18SAPS  H10Y 2369   2.906   1.527   4.750  0.9960 -2.3314  0.7641
   18SAPS  C311 2370   2.725   1.536   4.618  0.2855 -0.1900  0.0620
   18SAPS  H11X 2371   2.787   1.491   4.538  2.3817  1.2913  0.7847
   18SAPS  H11Y 2372   2.726   1.647   4.610  2.6241 -0.1373  0.4497
   18SAPS  C312 2373   2.580   1.488   4.613 -0.7637 -0.2318 -0.1566
   18SAPS  H12X 2374   2.505   1.544   4.674  0.0288  1.3042 -0.5388
   18SAPS  H12Y 2375   2.592   1.381   4.636  1.2424 -0.5515 -2.3109
   18SAPS  C313 2376   2.519   1.495   4.471 -0.3078 -0.1294 -0.2803
   18SAPS  H13X 2377   2.437   1.419   4.463 -0.3218  0.0555 -2.4455
   18SAPS  H13Y 2378   2.603   1.483   4.399  1.1410  1.1871  1.1284
   18SAPS  C314 2379   2.454   1.620   4.433  1.0038 -0.3976 -0.1429
   18SAPS  H14X 2380   2.435   1.618   4.324  0.5610  3.1440 -0.2738
   18SAPS  H14Y 2381   2.522   1.705   4.453  2.2501 -1.4221  0.0833
   18SAPS  C315 2382   2.318   1.644   4.508 -0.5481  0.7459  0.5270
   18SAPS  H15X 2383   2.337   1.686   4.609  0.4018 -0.0399  0.6941
   18SAPS  H15Y 2384   2.271   1.550   4.544 -3.1115  0.2935 -3.3498
   18SAPS  C316 2385   2.215   1.711   4.426 -0.0230  0.1372 -0.4393
   18SAPS  H16X 2386   2.118   1.706   4.479  0.7112 -1.2647  0.8357
   18SAPS  H16Y 2387   2.204   1.666   4.325 -0.8082  0.4221 -0.4863
   18SAPS  C317 2388   2.239   1.864   4.408  0.1957  0.0497 -0.2583
   18SAPS  H17X 2389   2.331   1.884   4.350 -0.6470  2.1707 -0.9679
   18SAPS  H17Y 2390   2.261   1.901   4.511 -0.7732  0.5885 -0.2307
   18SAPS  C318 2391   2.124   1.944   4.348 -0.1789  0.1883  0.1911
   18SAPS  H18X 2392   2.034   1.964   4.410 -0.0867  2.9653 -0.4447
   18SAPS  H18Y 2393   2.086   1.897   4.255 -2.5198  1.2972  0.5068
   18SAPS  H18Z 2394   2.157   2.042   4.308  3.5668 -0.7032  0.6962
   19SAPS     N 2395   2.243   0.208   1.956  0.2002  0.0209 -0.3726
   19SAPS   HN1 2396   2.163   0.174   1.900 -0.6977  0.5874  0.5384
   19SAPS   HN2 2397   2.213   0.224   2.054  0.0697  1.4684 -0.6220
   19SAPS   HN3 2398   2.263   0.302   1.917  1.0407 -0.2896 -0.7132
   19SAPS   C12 2399   2.364   0.120   1.963 -0.6531 -0.4009  0.3250
   19SAPS  H12A 2400   2.366   0.078   1.864  2.2875  3.2810 -1.4492
   19SAPS   C13 2401   2.490   0.201   1.983 -0.3106 -0.1074 -0.3758
   19SAPS  O13A 2402   2.489   0.329   1.973  0.0088 -0.0115  0.4667
   19SAPS  O13B 2403   2.597   0.134   1.976  0.3325  0.6831  0.2730
   19SAPS   C11 2404   2.340   0.004   2.060 -0.0861 -0.1857 -0.5226
   19SAPS  H11A 2405   2.409  -0.083   2.060  0.8205  0.5150 -1.3985
   19SAPS  H11B 2406   2.242  -0.022   2.016 -1.1402  2.6531 -0.0870
   19SAPS     P 2407   2.315  -0.042   2.321 -0.4021 -0.0225 -0.0780
   19SAPS   O13 2408   2.441  -0.113   2.336 -0.5532  0.1923  0.1790
   19SAPS   O14 2409   2.292   0.045   2.441  0.1991 -0.0505 -0.2401
   19SAPS   O12 2410   2.314   0.046   2.188  0.2053 -0.0684  0.0619
   19SAPS   O11 2411   2.211  -0.147   2.295 -0.1102  0.2944  0.0255
   19SAPS    C1 2412   2.080  -0.141   2.250 -0.0061  0.3680  0.3880
   19SAPS    HA 2413   2.065  -0.044   2.199 -2.4530 -1.1088 -1.9588
   19SAPS    HB 2414   2.072  -0.221   2.173 -1.7755  0.3838  0.5020
   19SAPS    C2 2415   1.979  -0.159   2.374  0.8779 -0.0677 -0.4707
   19SAPS    HS 2416   2.005  -0.068   2.433 -0.4083  0.5223 -0.7640
   19SAPS   O21 2417   2.010  -0.280   2.452 -0.7579  0.1100  0.4351
   19SAPS   C21 2418   2.015  -0.255   2.584 -0.5972  0.4184 -0.2773
   19SAPS   O22 2419   1.975  -0.156   2.643  0.7684 -0.4496 -0.3143
   19SAPS   C22 2420   2.092  -0.374   2.647  0.3072 -0.8038  0.4778
   19SAPS   H2R 2421   2.016  -0.454   2.657 -0.8710  0.1180 -0.6412
   19SAPS   H2S 2422   2.166  -0.413   2.574 -2.0566  1.0607 -3.2321
   19SAPS    C3 2423   1.826  -0.148   2.329 -0.7228 -0.0569 -0.7395
   19SAPS    HX 2424   1.802  -0.234   2.263  0.8224 -0.8129 -0.3613
   19SAPS    HY 2425   1.807  -0.059   2.266 -1.0731 -0.0364 -0.6059
   19SAPS   O31 2426   1.728  -0.153   2.439 -0.1327 -0.1100  0.2594
   19SAPS   C31 2427   1.713  -0.032   2.498 -0.5806  0.2830 -0.1846
   19SAPS   O32 2428   1.749   0.074   2.447  0.3573  0.2600 -0.6134
   19SAPS   C32 2429   1.643  -0.062   2.640 -0.7768  0.1486  0.0396
   19SAPS   H2X 2430   1.709  -0.132   2.694 -0.4477 -1.4924 -2.3173
   19SAPS   H2Y 2431   1.541  -0.106   2.634 -0.6128 -0.1237 -1.0760
   19SAPS   C23 2432   2.153  -0.349   2.788 -0.1138 -1.0033  0.3461
   19SAPS   H3R 2433   2.071  -0.345   2.862  0.5998 -0.8309  1.1460
   19SAPS   H3S 2434   2.206  -0.252   2.796 -0.6273 -0.5446 -1.5152
   19SAPS   C24 2435   2.256  -0.459   2.815  0.3046 -0.7210  0.2111
   19SAPS   H4R 2436   2.319  -0.428   2.901  1.6134 -1.0496 -0.6151
   19SAPS   H4S 2437   2.328  -0.467   2.731  1.9923 -1.4901  1.6792
   19SAPS   C25 2438   2.191  -0.595   2.808  0.3019  0.1150 -0.0574
   19SAPS   H5R 2439   2.186  -0.629   2.704 -1.0703  0.9622 -0.3077
   19SAPS   C26 2440   2.148  -0.658   2.914 -0.0085  0.0073  0.3696
   19SAPS   H6R 2441   2.093  -0.752   2.901  0.0070  0.2144 -1.5142
   19SAPS   C27 2442   2.160  -0.615   3.056 -0.4430 -0.0743  0.4851
   19SAPS   H7R 2443   2.242  -0.539   3.067  0.1423 -0.6086 -0.1020
   19SAPS   H7S 2444   2.195  -0.698   3.120 -1.9447 -0.9838  0.1648
   19SAPS   C28 2445   2.031  -0.551   3.106  0.4669 -0.2105  0.3705
   19SAPS   H8R 2446   1.996  -0.467   3.045  1.9075 -0.2586 -0.5544
   19SAPS   C29 2447   1.958  -0.589   3.213 -1.0422  0.1943 -0.4031
   19SAPS   H9R 2448   1.864  -0.540   3.242 -1.8860 -0.7532 -1.4617
   19SAPS  C210 2449   2.002  -0.708   3.299 -0.5049  0.3399  0.5906
   19SAPS  H10R 2450   2.083  -0.664   3.361 -0.7345  0.3240  0.9014
   19SAPS  H10S 2451   2.053  -0.785   3.237  1.4428  2.2249 -0.2929
   19SAPS  C211 2452   1.898  -0.760   3.397  0.1984 -0.0486  0.1740
   19SAPS  H11R 2453   1.820  -0.821   3.348 -1.1900  0.8077  1.2468
   19SAPS  C212 2454   1.868  -0.715   3.513 -0.2274 -0.2777  0.1834
   19SAPS  H12R 2455   1.777  -0.760   3.557 -0.8739  1.2995  0.5089
   19SAPS  C213 2456   1.930  -0.624   3.601  0.4252  1.0385 -0.9984
   19SAPS  H13R 2457   1.884  -0.524   3.585  1.9810  1.5825 -2.3566
   19SAPS  H13S 2458   2.037  -0.608   3.577  0.9087 -0.4289 -0.0100
   19SAPS  C214 2459   1.922  -0.674   3.754  0.2460 -1.0557  0.9589
   19SAPS  H14R 2460   1.980  -0.765   3.773  0.6444 -0.7553  1.1806
   19SAPS  C215 2461   1.862  -0.612   3.855 -0.1942 -0.5660 -0.1069
   19SAPS  H15R 2462   1.841  -0.675   3.943 -0.0341 -1.5437 -0.7509
   19SAPS  C216 2463   1.777  -0.489   3.850  0.0730 -0.9327 -0.5336
   19SAPS  H16R 2464   1.752  -0.451   3.749 -0.2456 -0.9291 -0.4557
   19SAPS  H16S 2465   1.816  -0.402   3.906  0.7701 -0.2849 -1.9789
   19SAPS  C217 2466   1.641  -0.523   3.907 -0.3095  0.1756 -0.7093
   19SAPS  H17R 2467   1.593  -0.604   3.848  1.6286  0.9164 -3.5376
   19SAPS  H17S 2468   1.572  -0.437   3.897 -0.1800  0.3117 -0.4535
   19SAPS  C218 2469   1.649  -0.557   4.060 -0.1496  0.2001 -0.2184
   19SAPS  H18R 2470   1.705  -0.653   4.066 -2.2457 -1.0105  0.9008
   19SAPS  H18S 2471   1.548  -0.570   4.105  0.6277 -1.3690  1.2009
   19SAPS  C219 2472   1.725  -0.466   4.147 -0.0685  0.2704 -0.2700
   19SAPS  H19R 2473   1.833  -0.452   4.125  0.5784  0.6484  2.6859
   19SAPS  H19S 2474   1.739  -0.499   4.252  4.7320  0.9403 -0.4670
   19SAPS  C220 2475   1.662  -0.328   4.176  0.2452 -0.2231  0.0576
   19SAPS  H20R 2476   1.559  -0.343   4.216  0.7286 -3.4844  0.4016
   19SAPS  H20S 2477   1.661  -0.259   4.089  1.4290 -0.6403 -0.3101
   19SAPS  H20T 2478   1.712  -0.257   4.245 -3.2300  1.0094  1.5143
   19SAPS   C33 2479   1.628   0.071   2.713  0.2767 -0.3515 -0.1662
   19SAPS   H3X 2480   1.541   0.127   2.674 -1.2724 -1.8888  0.9542
   19SAPS   H3Y 2481   1.717   0.136   2.698  0.1216 -0.6713 -2.9937
   19SAPS   C34 2482   1.617   0.052   2.870  0.3541 -0.3722  1.0445
   19SAPS   H4X 2483   1.706  -0.004   2.905  0.8379  0.7584  1.6723
   19SAPS   H4Y 2484   1.526  -0.009   2.887 -0.2528 -0.1371 -1.0485
   19SAPS   C35 2485   1.599   0.193   2.938 -0.9817  0.2420  0.3063
   19SAPS   H5X 2486   1.493   0.224   2.929 -1.9473 -2.7285  0.2706
   19SAPS   H5Y 2487   1.658   0.269   2.883 -0.7016 -1.0158 -1.2171
   19SAPS   C36 2488   1.661   0.196   3.082 -0.4430  0.2626  0.0905
   19SAPS   H6X 2489   1.759   0.143   3.090 -0.9346 -0.4871  1.5469
   19SAPS   H6Y 2490   1.586   0.134   3.134  0.4677 -0.1532  0.9419
   19SAPS   C37 2491   1.672   0.340   3.137  0.3852  0.0038  0.1102
   19SAPS   H7X 2492   1.572   0.387   3.129  0.4543  0.3437  1.1505
   19SAPS   H7Y 2493   1.750   0.390   3.076  0.4820 -0.3404 -0.0491
   19SAPS   C38 2494   1.702   0.346   3.285  0.5292 -0.3685  0.1681
   19SAPS   H8X 2495   1.802   0.302   3.305  0.9601 -0.8839 -2.6324
   19SAPS   H8Y 2496   1.630   0.286   3.345 -0.1155  0.3665  0.1403
   19SAPS   C39 2497   1.714   0.490   3.343 -0.2596  0.4988  0.2823
   19SAPS   H9X 2498   1.610   0.520   3.369 -0.4837  0.0533 -0.0744
   19SAPS   H9Y 2499   1.760   0.548   3.260  0.2876  0.4401  0.5398
   19SAPS  C310 2500   1.803   0.505   3.468  0.4057  0.4345 -0.0616
   19SAPS  H10X 2501   1.815   0.615   3.477  2.2960  0.1606  1.2702
   19SAPS  H10Y 2502   1.902   0.461   3.441 -0.8078 -1.5080 -1.6986
   19SAPS  C311 2503   1.749   0.440   3.591  0.1465  0.0670  0.2309
   19SAPS  H11X 2504   1.678   0.359   3.565  1.0473  0.0629 -2.6093
   19SAPS  H11Y 2505   1.690   0.521   3.638  1.3512  2.2983 -1.8668
   19SAPS  C312 2506   1.859   0.404   3.688 -0.2083  0.0451 -0.1042
   19SAPS  H12X 2507   1.910   0.502   3.705 -0.5119 -0.0352  1.4354
   19SAPS  H12Y 2508   1.931   0.332   3.645  1.6214  0.1595  2.5513
   19SAPS  C313 2509   1.800   0.349   3.819 -0.3650  1.0209  0.3318
   19SAPS  H13X 2510   1.778   0.240   3.809  0.6759  0.7297  0.9934
   19SAPS  H13Y 2511   1.718   0.411   3.861 -1.9331 -0.0902 -0.9350
   19SAPS  C314 2512   1.911   0.369   3.933  0.3797 -0.0939  0.3591
   19SAPS  H14X 2513   1.969   0.462   3.915  0.6522 -0.0019  1.6128
   19SAPS  H14Y 2514   1.973   0.277   3.924  1.3675  0.7072 -1.9783
   19SAPS  C315 2515   1.837   0.363   4.069  0.5647 -0.0236  0.5852
   19SAPS  H15X 2516   1.916   0.356   4.147  2.2642  0.4887 -1.0147
   19SAPS  H15Y 2517   1.776   0.271   4.074 -1.5523  1.2566 -0.4861
   19SAPS  C316 2518   1.734   0.472   4.116 -0.0661  0.3788  0.1690
   19SAPS  H16X 2519   1.646   0.455   4.051 -0.1600  0.2607  0.3280
   19SAPS  H16Y 2520   1.770   0.576   4.100 -1.9281  0.7666 -1.9954
   19SAPS  C317 2521   1.698   0.464   4.261  0.6937 -0.0700 -0.2454
   19SAPS  H17X 2522   1.735   0.549   4.323 -0.6376 -0.3298  0.9656
   19SAPS  H17Y 2523   1.734   0.364   4.296 -0.0654 -0.2801 -0.0476
   19SAPS  C318 2524   1.546   0.473   4.287  0.4654 -0.0220 -0.3050
   19SAPS  H18X 2525   1.516   0.410   4.373  0.2177 -1.3288 -1.3088
   19SAPS  H18Y 2526   1.488   0.429   4.203 -1.0376 -0.5097  0.9417
   19SAPS  H18Z 2527   1.507   0.575   4.303 -0.5998  0.0793 -2.9265
   20SAPS     N 2528   6.127   4.766   2.205  0.0200  0.1135 -0.2516
   20SAPS   HN1 2529   6.151   4.673   2.166 -2.4054 -0.0481 -1.5843
   20SAPS   HN2 2530   6.206   4.830   2.224 -0.0239  0.7353 -1.9705
   20SAPS   HN3 2531   6.093   4.750   2.302 -0.0716  0.8821 -0.1552
   20SAPS   C12 2532   6.011   4.837   2.147 -1.0530  0.3893 -0.2503
   20SAPS  H12A 2533   6.035   4.891   2.057 -1.2589 -0.5996 -0.9229
   20SAPS   C13 2534   5.905   4.737   2.112 -0.2254  0.0278  0.3839
   20SAPS  O13A 2535   5.928   4.611   2.102 -0.3344  0.0411 -0.1244
   20SAPS  O13B 2536   5.802   4.784   2.054  0.0191  1.0090 -0.2830
   20SAPS   C11 2537   5.957   4.934   2.256  0.4146 -0.1323 -1.1778
   20SAPS  H11A 2538   5.911   4.877   2.341  1.4602  0.6685 -0.0444
   20SAPS  H11B 2539   5.874   4.994   2.213 -0.1234 -1.6766 -2.3769
   20SAPS     P 2540   6.029   5.156   2.384  0.1970  0.3033 -0.1879
   20SAPS   O13 2541   6.156   5.206   2.437  0.3978 -0.1284  0.2847
   20SAPS   O14 2542   5.952   5.239   2.290 -0.1973 -0.2661  0.1970
   20SAPS   O12 2543   6.060   5.012   2.314  0.0820 -0.5677 -1.0315
   20SAPS   O11 2544   5.944   5.110   2.507  0.5537  0.1066 -0.1945
   20SAPS    C1 2545   5.960   4.993   2.592 -0.7915 -0.3128 -0.3461
   20SAPS    HA 2546   5.867   4.933   2.595  0.4533 -2.3792 -1.1865
   20SAPS    HB 2547   6.047   4.930   2.563 -1.5789 -2.7382  2.2368
   20SAPS    C2 2548   5.989   5.057   2.730 -0.5245  0.2426  0.3318
   20SAPS    HS 2549   6.077   5.119   2.700 -0.5137 -0.4100 -1.0836
   20SAPS   O21 2550   6.009   4.953   2.825  0.0600 -0.3030 -0.4144
   20SAPS   C21 2551   6.131   4.917   2.859  0.4875 -0.2422 -0.1639
   20SAPS   O22 2552   6.231   4.972   2.824 -0.2063 -0.2583 -0.3800
   20SAPS   C22 2553   6.120   4.783   2.938 -0.1269  0.0174  0.1557
   20SAPS   H2R 2554   6.015   4.773   2.972  0.0173  2.1160  1.3542
   20SAPS   H2S 2555   6.149   4.702   2.867 -2.9118 -2.2614  1.4113
   20SAPS    C3 2556   5.869   5.148   2.782 -0.3793  0.1528  0.1734
   20SAPS    HX 2557   5.780   5.082   2.791  0.7580 -1.3970  0.4840
   20SAPS    HY 2558   5.854   5.226   2.704  2.4429  0.8384  0.2078
   20SAPS   O31 2559   5.908   5.210   2.903 -0.5476 -0.6958  0.0694
   20SAPS   C31 2560   5.838   5.317   2.931 -0.1075 -0.0141  0.0506
   20SAPS   O32 2561   5.748   5.360   2.863 -0.8528 -0.1653 -0.6383
   20SAPS   C32 2562   5.894   5.377   3.054  0.4572  0.0083 -0.3724
   20SAPS   H2X 2563   5.968   5.453   3.023 -0.4775  1.0931  0.0003
   20SAPS   H2Y 2564   5.948   5.298   3.111  1.8120  0.5649 -0.8332
   20SAPS   C23 2565   6.218   4.781   3.053  0.1689  0.3362 -0.4611
   20SAPS   H3R 2566   6.322   4.806   3.024 -0.5142 -0.1282 -3.5901
   20SAPS   H3S 2567   6.222   4.678   3.093 -0.9412  0.8884  1.1902
   20SAPS   C24 2568   6.173   4.876   3.164 -0.9657  0.3752  0.0128
   20SAPS   H4R 2569   6.062   4.872   3.155 -0.9921 -0.6189  0.6187
   20SAPS   H4S 2570   6.202   4.981   3.142  0.3868  0.4796  2.0477
   20SAPS   C25 2571   6.224   4.844   3.303 -0.2949  0.1610  0.4168
   20SAPS   H5R 2572   6.329   4.813   3.318 -0.4368  0.6831  2.9127
   20SAPS   C26 2573   6.145   4.837   3.409 -1.1827  0.4339  0.2522
   20SAPS   H6R 2574   6.189   4.807   3.506  0.2976  1.6050 -0.0149
   20SAPS   C27 2575   5.997   4.848   3.431  0.0576  0.0137 -0.3598
   20SAPS   H7R 2576   5.962   4.787   3.517 -3.1940 -1.9212 -2.8117
   20SAPS   H7S 2577   5.950   4.796   3.345 -2.3203  1.8344 -0.2766
   20SAPS   C28 2578   5.954   4.999   3.424  0.4840  0.0005 -0.1263
   20SAPS   H8R 2579   5.981   5.047   3.329  1.7648 -0.2756  0.0863
   20SAPS   C29 2580   5.893   5.066   3.525  0.0393 -1.4671  0.2573
   20SAPS   H9R 2581   5.871   5.171   3.498  0.8836 -0.7049  2.3676
   20SAPS  C210 2582   5.846   5.023   3.663 -0.1593  0.3653 -0.3959
   20SAPS  H10R 2583   5.912   5.071   3.737 -0.2685 -2.4969  1.7557
   20SAPS  H10S 2584   5.861   4.914   3.678 -2.3575  0.2756  1.8020
   20SAPS  C211 2585   5.698   5.058   3.685 -0.0438  0.3945  0.5723
   20SAPS  H11R 2586   5.632   5.043   3.598  0.1844 -0.9412  0.6072
   20SAPS  C212 2587   5.653   5.119   3.792  0.3846 -0.1715  0.0628
   20SAPS  H12R 2588   5.549   5.153   3.797  1.2461  2.7004 -0.0101
   20SAPS  C213 2589   5.718   5.153   3.928 -0.6222 -0.1619  0.1430
   20SAPS  H13R 2590   5.655   5.237   3.966 -3.0840 -1.3838 -0.9764
   20SAPS  H13S 2591   5.823   5.184   3.911 -0.4206 -0.5114  0.7375
   20SAPS  C214 2592   5.732   5.042   4.025  0.1222  0.3569  0.0297
   20SAPS  H14R 2593   5.716   4.946   3.975  0.5936  1.2315 -1.8655
   20SAPS  C215 2594   5.793   5.046   4.144  0.6188 -0.1380  0.4566
   20SAPS  H15R 2595   5.790   4.956   4.207 -0.1938 -0.5990 -0.2058
   20SAPS  C216 2596   5.840   5.175   4.212  0.4314  0.8914  0.2030
   20SAPS  H16R 2597   5.808   5.267   4.158  1.9469  0.6669 -1.1686
   20SAPS  H16S 2598   5.951   5.175   4.211  0.4371  1.1330 -0.7882
   20SAPS  C217 2599   5.770   5.178   4.351 -0.3878  0.7269 -0.1713
   20SAPS  H17R 2600   5.816   5.268   4.398  2.2651 -0.4358 -0.3764
   20SAPS  H17S 2601   5.797   5.090   4.412 -0.0337  1.7876  1.2630
   20SAPS  C218 2602   5.622   5.196   4.348 -0.3911 -0.7823 -0.7910
   20SAPS  H18R 2603   5.561   5.110   4.310 -1.9844  0.8901 -2.2590
   20SAPS  H18S 2604   5.590   5.280   4.282 -0.4298 -0.2011 -0.0419
   20SAPS  C219 2605   5.571   5.221   4.487  0.0169 -0.2543 -0.4234
   20SAPS  H19R 2606   5.467   5.259   4.489 -0.1382 -0.6554  1.2819
   20SAPS  H19S 2607   5.634   5.296   4.541  2.6749 -1.7887 -1.2024
   20SAPS  C220 2608   5.567   5.093   4.572  0.0487  0.1712 -0.1403
   20SAPS  H20R 2609   5.669   5.079   4.614 -1.0359 -1.1887  2.2133
   20SAPS  H20S 2610   5.528   5.000   4.526 -1.7578  1.5657 -1.5874
   20SAPS  H20T 2611   5.501   5.109   4.660 -1.0487 -0.2685 -0.8664
   20SAPS   C33 2612   5.776   5.448   3.133  0.4021 -0.0107  0.1925
   20SAPS   H3X 2613   5.713   5.366   3.173 -0.7922  0.3992 -0.7966
   20SAPS   H3Y 2614   5.712   5.517   3.073  0.7569 -0.9661 -1.3328
   20SAPS   C34 2615   5.827   5.528   3.254  0.3447 -0.6619  0.3637
   20SAPS   H4X 2616   5.747   5.604   3.264 -0.7281 -1.9203  1.7868
   20SAPS   H4Y 2617   5.921   5.579   3.225 -0.0529  0.8792  1.6503
   20SAPS   C35 2618   5.853   5.458   3.387  0.1312  0.3447  0.0592
   20SAPS   H5X 2619   5.908   5.365   3.363 -1.9588 -0.6060 -1.2990
   20SAPS   H5Y 2620   5.759   5.427   3.437  0.1434  0.8393  0.4057
   20SAPS   C36 2621   5.925   5.556   3.486 -0.1185  0.1828 -0.4258
   20SAPS   H6X 2622   5.888   5.656   3.517  1.5901  0.2520  1.6428
   20SAPS   H6Y 2623   6.023   5.588   3.443  0.0836  1.8151  1.1029
   20SAPS   C37 2624   5.943   5.478   3.617 -0.1956  0.2714 -0.3085
   20SAPS   H7X 2625   5.995   5.384   3.591 -0.9133 -0.7576  1.7868
   20SAPS   H7Y 2626   5.843   5.451   3.656  0.2027  0.1625  0.6446
   20SAPS   C38 2627   6.009   5.562   3.732 -0.6537 -0.1676  0.0777
   20SAPS   H8X 2628   5.959   5.659   3.754 -1.1309 -0.4923  0.4693
   20SAPS   H8Y 2629   6.109   5.587   3.692 -0.9974  0.7147 -0.2445
   20SAPS   C39 2630   6.035   5.489   3.866 -0.5153  0.1480  0.0678
   20SAPS   H9X 2631   6.099   5.551   3.932 -1.0427  2.6969 -1.6550
   20SAPS   H9Y 2632   6.090   5.395   3.847  0.2064  0.6839 -0.5165
   20SAPS  C310 2633   5.908   5.450   3.944  0.2288 -0.2446  0.4134
   20SAPS  H10X 2634   5.948   5.383   4.023 -2.2809 -2.1957  0.1650
   20SAPS  H10Y 2635   5.840   5.395   3.875 -1.1021  0.2363  1.2905
   20SAPS  C311 2636   5.822   5.568   4.000 -0.2244  0.6525  0.1679
   20SAPS  H11X 2637   5.725   5.533   4.041 -0.9061  2.6659  0.4039
   20SAPS  H11Y 2638   5.796   5.637   3.917 -2.4475  0.9319  1.0265
   20SAPS  C312 2639   5.888   5.649   4.109  0.1828 -0.1359 -0.2840
   20SAPS  H12X 2640   5.990   5.672   4.071  1.5559 -0.7635  2.6680
   20SAPS  H12Y 2641   5.891   5.603   4.211 -1.4183 -0.5388 -0.3923
   20SAPS  C313 2642   5.806   5.776   4.130  0.0406 -0.2013 -0.1540
   20SAPS  H13X 2643   5.706   5.748   4.170 -0.8507  2.4603 -0.3350
   20SAPS  H13Y 2644   5.807   5.827   4.031  2.0930 -0.0501 -0.1014
   20SAPS  C314 2645   5.871   5.872   4.232 -0.7471 -0.6737 -0.0531
   20SAPS  H14X 2646   5.978   5.842   4.225 -0.7047 -0.2969 -1.3047
   20SAPS  H14Y 2647   5.833   5.852   4.335 -1.0184  0.2374  0.0293
   20SAPS  C315 2648   5.854   6.023   4.195 -0.5426  0.7293  0.1759
   20SAPS  H15X 2649   5.746   6.048   4.185 -0.4124  0.5567 -2.3554
   20SAPS  H15Y 2650   5.905   6.030   4.096 -0.0439 -0.2360  0.3580
   20SAPS  C316 2651   5.908   6.127   4.283 -0.4055 -0.3578 -0.0024
   20SAPS  H16X 2652   5.882   6.226   4.239  0.3235  0.2836  0.9582
   20SAPS  H16Y 2653   6.019   6.117   4.293 -0.3839  0.3496  0.5265
   20SAPS  C317 2654   5.862   6.122   4.428  0.2499  0.3506  0.2582
   20SAPS  H17X 2655   5.866   6.017   4.463  0.2870  0.6713  1.2574
   20SAPS  H17Y 2656   5.755   6.152   4.431  0.9670  3.1197  1.3987
   20SAPS  C318 2657   5.942   6.222   4.515 -0.1066  0.1155  0.1904
   20SAPS  H18X 2658   5.961   6.312   4.452 -1.0380 -0.5979 -1.1701
   20SAPS  H18Y 2659   6.045   6.185   4.530 -0.0275 -0.2228 -1.0543
   20SAPS  H18Z 2660   5.905   6.239   4.618 -0.9779  2.5286 -0.4383
   21CHL1    C3 2661   1.265   6.050   2.820  0.0068 -0.6496 -0.9282
   21CHL1    H3 2662   1.233   6.157   2.820  0.9542 -0.3522 -1.1455
   21CHL1    O3 2663   1.293   6.022   2.689  0.2062 -0.4355  0.5489
   21CHL1   H3' 2664   1.229   5.953   2.670 -2.0822  1.2594  1.7118
   21CHL1    C4 2665   1.390   6.045   2.908  0.2771  0.2285  0.0641
   21CHL1   H4A 2666   1.419   5.938   2.898  0.7221  0.5607 -3.7748
   21CHL1   H4B 2667   1.467   6.108   2.858  0.1576  2.4672  2.5036
   21CHL1    C5 2668   1.355   6.089   3.050  0.5307  0.5512  0.5621
   21CHL1    C6 2669   1.423   6.193   3.108 -0.2172  0.0285  0.3281
   21CHL1    H6 2670   1.503   6.241   3.050  0.4368 -2.5589 -1.0932
   21CHL1    C7 2671   1.410   6.234   3.252  0.2750 -0.5422  0.8320
   21CHL1   H7A 2672   1.508   6.245   3.303 -0.3662  0.7297  1.8709
   21CHL1   H7B 2673   1.351   6.328   3.253 -0.7483 -1.0358 -2.1497
   21CHL1    C8 2674   1.337   6.124   3.329  0.1792  0.4057  0.3260
   21CHL1    H8 2675   1.403   6.036   3.341 -0.3010  0.1937  1.7056
   21CHL1   C14 2676   1.302   6.181   3.470 -0.2924 -0.2253  0.4825
   21CHL1   H14 2677   1.240   6.273   3.463  1.7209  1.2276  0.9232
   21CHL1   C15 2678   1.408   6.245   3.558 -0.4515 -0.0949 -0.5850
   21CHL1  H15A 2679   1.503   6.189   3.549 -1.0368 -1.5154  1.3655
   21CHL1  H15B 2680   1.422   6.353   3.533 -0.0270 -0.4509 -1.9541
   21CHL1   C16 2681   1.348   6.234   3.704 -0.4930 -0.3067  0.3290
   21CHL1  H16A 2682   1.432   6.179   3.752 -0.7191 -1.0101 -0.0788
   21CHL1  H16B 2683   1.344   6.330   3.760  0.2971 -0.6003  0.9161
   21CHL1   C17 2684   1.210   6.162   3.692  0.0556  0.1089 -0.0935
   21CHL1   H17 2685   1.138   6.240   3.661  2.2977  2.4723  0.2775
   21CHL1   C13 2686   1.220   6.082   3.555  0.7747  0.1670 -0.9419
   21CHL1   C18 2687   1.286   5.946   3.577  0.2290 -0.4065  0.1655
   21CHL1  H18A 2688   1.212   5.874   3.618 -0.3034 -0.1233 -0.2880
   21CHL1  H18B 2689   1.319   5.913   3.476  2.2525 -1.3272  1.0668
   21CHL1  H18C 2690   1.378   5.956   3.639 -0.6727  1.0195  1.3328
   21CHL1   C12 2691   1.081   6.064   3.481 -0.7993 -0.4257  0.5164
   21CHL1  H12A 2692   1.017   5.994   3.539  2.5177 -1.5291  3.1384
   21CHL1  H12B 2693   1.031   6.162   3.468  0.6392  0.5624  2.0716
   21CHL1   C11 2694   1.103   6.008   3.337 -0.0831 -0.0126  0.0682
   21CHL1  H11A 2695   1.134   5.903   3.355  0.8749 -0.0425 -1.5679
   21CHL1  H11B 2696   1.004   5.999   3.287  1.0657 -0.6623 -2.2168
   21CHL1    C9 2697   1.211   6.076   3.252 -0.3956  0.1008  0.5138
   21CHL1    H9 2698   1.169   6.175   3.223  1.6209  0.3868 -1.7068
   21CHL1   C10 2699   1.237   6.006   3.119  0.1369 -0.0295  1.0967
   21CHL1   C19 2700   1.288   5.862   3.147  0.6815 -0.3740 -0.4455
   21CHL1  H19A 2701   1.373   5.876   3.219 -1.0827 -0.6788  1.8143
   21CHL1  H19B 2702   1.211   5.802   3.199 -0.3628  0.0590 -1.4621
   21CHL1  H19C 2703   1.318   5.805   3.057  1.4009 -1.8087  0.6463
   21CHL1    C1 2704   1.110   5.993   3.026 -0.2125  0.3196 -0.0942
   21CHL1   H1A 2705   1.044   5.911   3.064 -1.5375  0.9599 -0.9288
   21CHL1   H1B 2706   1.054   6.088   3.018  0.1930  0.4843 -1.1929
   21CHL1    C2 2707   1.148   5.969   2.876 -0.1323 -0.0179  0.3492
   21CHL1   H2A 2708   1.059   5.985   2.811 -1.6385 -0.9465  2.0901
   21CHL1   H2B 2709   1.174   5.862   2.859 -1.5521 -0.2655 -0.3907
   21CHL1   C20 2710   1.153   6.089   3.818 -0.3678 -0.5265  0.2061
   21CHL1   H20 2711   1.117   5.987   3.790  3.6632 -2.3879  1.1773
   21CHL1   C21 2712   1.029   6.176   3.873 -0.3635  0.3430  0.0905
   21CHL1  H21A 2713   1.051   6.258   3.945 -2.3890 -1.3163  2.7896
   21CHL1  H21B 2714   0.964   6.106   3.929  0.5707 -0.2125  0.5085
   21CHL1  H21C 2715   0.961   6.212   3.793 -1.5951  2.1592  1.8634
   21CHL1   C22 2716   1.259   6.055   3.928 -0.3419 -0.0968  0.4696
   21CHL1  H22A 2717   1.334   5.993   3.874  0.1009  1.1087 -0.3572
   21CHL1  H22B 2718   1.305   6.148   3.968 -0.6135  0.6379 -0.8432
   21CHL1   C23 2719   1.205   5.977   4.043  0.1318  0.2723  0.7960
   21CHL1  H23A 2720   1.115   6.036   4.072  0.3272  1.6510 -1.1783
   21CHL1  H23B 2721   1.170   5.877   4.012 -1.8884  0.0651  3.4218
   21CHL1   C24 2722   1.306   5.948   4.155  0.4328  0.6616  0.3408
   21CHL1  H24A 2723   1.398   5.901   4.115  1.1846  0.6529  1.9687
   21CHL1  H24B 2724   1.334   6.045   4.202  0.8319 -1.2365  4.4558
   21CHL1   C25 2725   1.236   5.879   4.277  0.0246 -0.0833 -0.0328
   21CHL1   H25 2726   1.132   5.918   4.276  0.3057  0.7229  0.5616
   21CHL1   C26 2727   1.234   5.729   4.257 -0.3365  0.0979 -0.1295
   21CHL1  H26A 2728   1.178   5.698   4.167  2.5430 -0.9288 -1.6870
   21CHL1  H26B 2729   1.335   5.692   4.230  0.0329  1.0962 -0.1554
   21CHL1  H26C 2730   1.196   5.679   4.348 -0.8967 -1.7074 -1.3115
   21CHL1   C27 2731   1.286   5.907   4.416  1.0987  0.8692 -0.2361
   21CHL1  H27A 2732   1.283   6.015   4.440 -0.8111  0.4173  2.0535
   21CHL1  H27B 2733   1.227   5.869   4.503  0.6208  0.1432 -0.8626
   21CHL1  H27C 2734   1.390   5.875   4.438  0.7880 -0.4392 -0.5412
   22CHL1    C3 2735   3.929   1.460   6.074 -0.0633 -0.2272 -0.1342
   22CHL1    H3 2736   3.998   1.534   6.028 -0.4142  1.0270  1.2966
   22CHL1    O3 2737   3.936   1.479   6.215  0.3247  0.0420 -0.2387
   22CHL1   H3' 2738   3.868   1.423   6.253 -0.3712  0.5036 -0.7845
   22CHL1    C4 2739   3.791   1.502   6.021  0.6816 -0.4581  0.6017
   22CHL1   H4A 2740   3.711   1.434   6.057  1.0657 -0.6539  1.1014
   22CHL1   H4B 2741   3.770   1.609   6.038  2.1167  0.3669 -2.1986
   22CHL1    C5 2742   3.798   1.490   5.865 -0.3837  0.1194 -0.1898
   22CHL1    C6 2743   3.778   1.599   5.789 -0.4828 -0.2393  0.4815
   22CHL1    H6 2744   3.770   1.699   5.834  0.9713  0.3188 -0.4284
   22CHL1    C7 2745   3.784   1.593   5.638 -0.4226  0.1551  0.0582
   22CHL1   H7A 2746   3.702   1.649   5.587  0.2217  0.7441 -0.3393
   22CHL1   H7B 2747   3.876   1.647   5.609 -1.0169  0.9964 -0.3053
   22CHL1    C8 2748   3.789   1.447   5.576 -0.7198 -0.6250  0.1468
   22CHL1    H8 2749   3.684   1.411   5.579 -1.6074  1.5260 -1.8869
   22CHL1   C14 2750   3.833   1.453   5.430 -0.0990  0.0648  0.9124
   22CHL1   H14 2751   3.939   1.486   5.423 -0.3462  0.7163  0.1039
   22CHL1   C15 2752   3.751   1.547   5.345  0.0128  0.6933  0.1609
   22CHL1  H15A 2753   3.641   1.535   5.357  0.0813  0.3575  0.5033
   22CHL1  H15B 2754   3.767   1.653   5.374 -0.7448  0.9257 -0.2471
   22CHL1   C16 2755   3.787   1.499   5.202 -0.1850 -1.3780 -0.4465
   22CHL1  H16A 2756   3.697   1.500   5.136 -1.0951 -1.1397  0.7653
   22CHL1  H16B 2757   3.863   1.567   5.157  1.7299 -1.5348  2.2888
   22CHL1   C17 2758   3.858   1.362   5.212 -0.0668  0.6679  0.3379
   22CHL1   H17 2759   3.966   1.387   5.207 -0.6240  3.0767 -2.5855
   22CHL1   C13 2760   3.825   1.313   5.359  0.3252 -0.9605 -0.2399
   22CHL1   C18 2761   3.677   1.260   5.359 -1.2619 -0.0347  0.2520
   22CHL1  H18A 2762   3.591   1.323   5.329  0.1806  1.7950 -0.1946
   22CHL1  H18B 2763   3.674   1.167   5.298 -1.3108  1.2043 -1.6989
   22CHL1  H18C 2764   3.659   1.222   5.463 -0.3341  1.3891  0.9564
   22CHL1   C12 2765   3.932   1.217   5.426  0.1971 -0.0757  0.2828
   22CHL1  H12A 2766   3.925   1.116   5.379 -0.0642  0.1057 -0.0730
   22CHL1  H12B 2767   4.036   1.256   5.418  0.6391 -1.0364  1.0783
   22CHL1   C11 2768   3.903   1.209   5.580  0.6469  0.0447 -0.2648
   22CHL1  H11A 2769   3.805   1.160   5.602  1.1330 -0.5802  0.5415
   22CHL1  H11B 2770   3.979   1.149   5.635 -0.8492 -1.0898  0.6547
   22CHL1    C9 2771   3.885   1.356   5.650  0.2001 -0.1401 -0.0477
   22CHL1    H9 2772   3.982   1.410   5.648  0.1582 -0.0301  0.6732
   22CHL1   C10 2773   3.850   1.352   5.801  0.1885 -0.5782 -0.6371
   22CHL1   C19 2774   3.737   1.251   5.823  0.1218  0.3110  0.2569
   22CHL1  H19A 2775   3.776   1.147   5.813  0.6823  0.5345  0.1059
   22CHL1  H19B 2776   3.693   1.254   5.925 -0.2650 -2.2278  0.2454
   22CHL1  H19C 2777   3.655   1.268   5.750 -0.1801 -1.5808  0.0861
   22CHL1    C1 2778   3.975   1.308   5.877  0.8943 -0.6294  0.2445
   22CHL1   H1A 2779   4.008   1.205   5.852 -2.5444 -1.3687 -1.9597
   22CHL1   H1B 2780   4.054   1.380   5.846 -0.0552  0.0155 -0.7316
   22CHL1    C2 2781   3.974   1.324   6.032  0.4187  0.3796  0.1023
   22CHL1   H2A 2782   4.071   1.294   6.076 -0.3768  0.0213  1.6523
   22CHL1   H2B 2783   3.891   1.259   6.067  0.0765 -0.4327 -2.0602
   22CHL1   C20 2784   3.828   1.274   5.092 -0.3984  0.4072  0.2492
   22CHL1   H20 2785   3.722   1.241   5.091 -0.0201 -1.0583 -2.8725
   22CHL1   C21 2786   3.906   1.136   5.095 -0.2324 -0.3453  0.0622
   22CHL1  H21A 2787   3.917   1.098   4.991 -2.6030  2.5016 -1.3891
   22CHL1  H21B 2788   3.849   1.058   5.150 -0.9613 -0.0922 -0.3142
   22CHL1  H21C 2789   4.010   1.152   5.131 -0.3828  1.8609 -0.2885
   22CHL1   C22 2790   3.844   1.348   4.958 -0.2393 -0.3240 -0.8842
   22CHL1  H22A 2791   3.769   1.430   4.951 -0.5805 -0.6503 -1.1541
   22CHL1  H22B 2792   3.950   1.379   4.954  0.3748 -1.6488  2.2941
   22CHL1   C23 2793   3.812   1.262   4.839 -0.8370  0.0929  0.2211
   22CHL1  H23A 2794   3.754   1.171   4.865  0.3600 -0.7559  0.0465
   22CHL1  H23B 2795   3.746   1.323   4.774 -2.6902 -1.7892  0.2312
   22CHL1   C24 2796   3.932   1.220   4.746 -0.1858  0.0608 -0.0397
   22CHL1  H24A 2797   3.957   1.311   4.688  1.6349  1.0468  2.1414
   22CHL1  H24B 2798   4.010   1.204   4.824 -3.4801 -1.0981  3.3800
   22CHL1   C25 2799   3.928   1.095   4.649 -0.0551 -0.8228 -0.0550
   22CHL1   H25 2800   3.916   1.011   4.720  0.2163 -0.7047  0.1351
   22CHL1   C26 2801   3.806   1.083   4.557 -0.0760  0.1307  0.1538
   22CHL1  H26A 2802   3.826   0.993   4.494 -0.3753  0.6950 -0.7737
   22CHL1  H26B 2803   3.704   1.077   4.602 -1.2648 -1.5171 -2.4674
   22CHL1  H26C 2804   3.809   1.171   4.489 -1.8318  0.1222  0.0137
   22CHL1   C27 2805   4.061   1.086   4.577  0.0281  0.9103  0.5027
   22CHL1  H27A 2806   4.077   0.982   4.541 -1.5157  0.6358  0.5565
   22CHL1  H27B 2807   4.058   1.147   4.484  0.9772 -0.3779 -0.4219
   22CHL1  H27C 2808   4.144   1.135   4.631  0.2726  2.4969 -1.1987
   23CHL1    C3 2809   5.959   3.413   5.994 -0.0455 -0.1081  0.2893
   23CHL1    H3 2810   5.849   3.403   6.011 -0.2615  2.7905  1.0435
   23CHL1    O3 2811   6.000   3.450   6.121  0.9383  0.4069 -0.3265
   23CHL1   H3' 2812   5.984   3.375   6.180 -0.4622  2.0324  1.5177
   23CHL1    C4 2813   6.024   3.287   5.956 -0.5099  0.1614  0.0712
   23CHL1   H4A 2814   6.133   3.306   5.968 -0.3321 -0.3695 -0.6137
   23CHL1   H4B 2815   5.997   3.215   6.036  0.7520 -1.3944 -0.8132
   23CHL1    C5 2816   5.989   3.251   5.814  0.3794  0.7699  0.6382
   23CHL1    C6 2817   5.951   3.130   5.784 -0.1195  0.5071  0.2251
   23CHL1    H6 2818   5.945   3.050   5.859  1.6113  0.2148  0.0951
   23CHL1    C7 2819   5.922   3.082   5.644  0.0496  0.8339 -0.3402
   23CHL1   H7A 2820   5.974   2.985   5.627 -2.4816 -0.2968 -2.2159
   23CHL1   H7B 2821   5.815   3.055   5.638  0.1069  0.3331  0.6647
   23CHL1    C8 2822   5.972   3.183   5.533  0.6308 -0.8756  0.2861
   23CHL1    H8 2823   6.081   3.165   5.533  0.5122 -1.6608  1.0151
   23CHL1   C14 2824   5.924   3.149   5.403 -0.2437 -0.6316  0.5933
   23CHL1   H14 2825   5.815   3.170   5.413 -0.1924 -0.0369 -0.0013
   23CHL1   C15 2826   5.920   3.003   5.349 -0.6251 -0.1276 -0.0790
   23CHL1  H15A 2827   6.003   2.937   5.381 -2.8913 -2.0430  2.3235
   23CHL1  H15B 2828   5.828   2.959   5.394 -0.4801  1.6390  2.1089
   23CHL1   C16 2829   5.913   3.017   5.197 -0.1659 -0.2071  0.3714
   23CHL1  H16A 2830   6.005   2.975   5.152  1.3629  1.4865  1.7901
   23CHL1  H16B 2831   5.828   2.961   5.152  0.4175  0.9707 -2.3937
   23CHL1   C17 2832   5.918   3.169   5.157 -0.1034 -0.1173 -0.2202
   23CHL1   H17 2833   5.810   3.197   5.151 -0.2138 -0.2359  0.9879
   23CHL1   C13 2834   5.975   3.236   5.282 -0.4099  0.0220 -0.5604
   23CHL1   C18 2835   6.130   3.231   5.265  0.4187  0.3748 -0.3665
   23CHL1  H18A 2836   6.162   3.136   5.217 -2.8061 -1.5388  0.9248
   23CHL1  H18B 2837   6.160   3.315   5.200  3.3803 -0.5800 -0.3778
   23CHL1  H18C 2838   6.176   3.248   5.364 -0.1940 -0.2108  0.0370
   23CHL1   C12 2839   5.934   3.385   5.313 -0.0731 -0.0359  0.4275
   23CHL1  H12A 2840   5.977   3.456   5.239  0.2199 -1.1300 -0.4849
   23CHL1  H12B 2841   5.824   3.387   5.300  0.0838  0.0676 -1.0385
   23CHL1   C11 2842   5.984   3.428   5.453 -0.5043 -0.6075  0.0986
   23CHL1  H11A 2843   6.094   3.442   5.447 -0.4855 -0.5242  0.5913
   23CHL1  H11B 2844   5.937   3.525   5.483  5.2227  3.0273 -1.0869
   23CHL1    C9 2845   5.948   3.330   5.567  0.8317 -0.3554  0.6174
   23CHL1    H9 2846   5.837   3.334   5.574  0.5424 -2.7536 -1.2462
   23CHL1   C10 2847   6.005   3.362   5.706 -0.2711  0.0919 -0.1854
   23CHL1   C19 2848   6.155   3.397   5.686  0.0133  0.1153 -0.2394
   23CHL1  H19A 2849   6.211   3.324   5.624 -0.8439  0.3008 -1.2626
   23CHL1  H19B 2850   6.159   3.494   5.632 -0.0569  0.9500  1.2050
   23CHL1  H19C 2851   6.204   3.417   5.784 -1.2790 -0.4947  0.5701
   23CHL1    C1 2852   5.932   3.494   5.758 -0.3499 -0.3416  1.0412
   23CHL1   H1A 2853   5.969   3.575   5.692 -1.3110 -0.4729  0.3157
   23CHL1   H1B 2854   5.823   3.477   5.742 -0.4581  0.3742  1.0058
   23CHL1    C2 2855   5.980   3.529   5.893  0.1763 -0.5288 -0.6025
   23CHL1   H2A 2856   5.917   3.620   5.909  1.9460  1.0327 -1.9892
   23CHL1   H2B 2857   6.081   3.570   5.911  0.2434 -1.1500  0.5589
   23CHL1   C20 2858   5.980   3.203   5.020 -0.2311  0.2242 -0.2037
   23CHL1   H20 2859   6.091   3.205   5.027 -0.1950 -0.7057 -0.4749
   23CHL1   C21 2860   5.928   3.340   4.979  0.4675 -0.3916  0.2166
   23CHL1  H21A 2861   5.818   3.346   4.989  0.1522 -1.7399 -1.8385
   23CHL1  H21B 2862   5.947   3.344   4.869 -0.4907 -0.0353  0.0522
   23CHL1  H21C 2863   5.994   3.417   5.023  1.7740 -1.0226 -0.5796
   23CHL1   C22 2864   5.949   3.097   4.914 -0.2743  0.0218  0.1506
   23CHL1  H22A 2865   5.976   2.996   4.951 -0.0214  0.1081  0.2070
   23CHL1  H22B 2866   5.840   3.104   4.895 -0.6015  1.5644  2.3055
   23CHL1   C23 2867   6.025   3.108   4.780  0.0721  0.5981 -0.1249
   23CHL1  H23A 2868   6.002   3.206   4.732 -0.5740  1.0293  1.0094
   23CHL1  H23B 2869   6.133   3.084   4.788  0.1196 -0.3524 -2.7390
   23CHL1   C24 2870   5.959   3.000   4.684 -0.0146 -0.1709  0.1166
   23CHL1  H24A 2871   5.969   2.902   4.735  3.2087 -0.2191 -0.3892
   23CHL1  H24B 2872   5.849   3.010   4.684 -0.1572 -1.1743  2.4148
   23CHL1   C25 2873   6.007   3.015   4.539 -0.0573 -0.0405  0.0851
   23CHL1   H25 2874   6.000   3.117   4.495 -1.4492 -0.3259 -0.4198
   23CHL1   C26 2875   6.154   2.978   4.529 -0.3850 -0.4442  0.5494
   23CHL1  H26A 2876   6.182   3.003   4.424 -1.3303 -2.4592 -0.2373
   23CHL1  H26B 2877   6.203   3.053   4.595 -2.0361  1.5220 -0.3125
   23CHL1  H26C 2878   6.167   2.873   4.561 -0.1018  0.6099  4.3499
   23CHL1   C27 2879   5.932   2.904   4.463 -0.0923 -0.8335 -0.4168
   23CHL1  H27A 2880   5.947   2.805   4.512  0.9719  0.2458  1.5744
   23CHL1  H27B 2881   5.824   2.927   4.470 -0.1755 -1.1757 -0.5629
   23CHL1  H27C 2882   5.958   2.905   4.355 -0.7252  0.9548 -0.5802
   24CHL1    C3 2883   1.515   2.539   5.950 -0.4143 -0.1179 -0.5341
   24CHL1    H3 2884   1.578   2.448   5.942  0.0778  0.1121  0.5495
   24CHL1    O3 2885   1.502   2.565   6.090  0.0181 -0.3259  0.3289
   24CHL1   H3' 2886   1.420   2.614   6.096  1.0505  1.5905 -0.3753
   24CHL1    C4 2887   1.600   2.643   5.880  0.0653  0.2506  0.3808
   24CHL1   H4A 2888   1.544   2.735   5.907 -2.2789 -0.1069 -2.7543
   24CHL1   H4B 2889   1.706   2.646   5.916  1.1656 -0.2537 -2.5583
   24CHL1    C5 2890   1.601   2.647   5.731  1.2396  0.1002  0.1311
   24CHL1    C6 2891   1.713   2.664   5.662 -0.6657 -0.2597  0.6053
   24CHL1    H6 2892   1.806   2.676   5.719  0.2787 -0.3498 -0.8654
   24CHL1    C7 2893   1.717   2.671   5.509  0.3055 -0.2578 -0.4603
   24CHL1   H7A 2894   1.789   2.746   5.469 -0.3839  0.6944  0.0578
   24CHL1   H7B 2895   1.742   2.570   5.470 -0.1833  0.2947 -2.3300
   24CHL1    C8 2896   1.577   2.698   5.449 -0.3016  0.5481  0.1866
   24CHL1    H8 2897   1.549   2.804   5.467  0.1470  0.5075  1.1880
   24CHL1   C14 2898   1.588   2.669   5.302 -0.0687 -1.0160 -0.1504
   24CHL1   H14 2899   1.608   2.559   5.302  1.5589 -0.7791  2.2257
   24CHL1   C15 2900   1.706   2.715   5.212  0.0568  0.1064  0.8149
   24CHL1  H15A 2901   1.743   2.815   5.240  1.1955 -0.1322  0.2296
   24CHL1  H15B 2902   1.780   2.632   5.217  0.0588 -0.0429 -0.9629
   24CHL1   C16 2903   1.647   2.726   5.070  0.0708 -0.4307  0.2725
   24CHL1  H16A 2904   1.636   2.834   5.047 -0.3611 -0.1268  1.7798
   24CHL1  H16B 2905   1.714   2.681   4.994  1.6577 -0.7474  1.7918
   24CHL1   C17 2906   1.501   2.666   5.076 -0.1473 -0.1049 -0.2332
   24CHL1   H17 2907   1.508   2.556   5.065 -1.2762 -0.2570  0.3865
   24CHL1   C13 2908   1.462   2.690   5.225 -0.0574 -0.1522 -0.2547
   24CHL1   C18 2909   1.426   2.837   5.238 -0.1049 -0.1051  0.4042
   24CHL1  H18A 2910   1.500   2.913   5.204 -1.3035  1.9333  2.0989
   24CHL1  H18B 2911   1.335   2.854   5.177  1.1926  0.3274 -1.4859
   24CHL1  H18C 2912   1.388   2.862   5.340 -1.8273  0.7247 -0.4035
   24CHL1   C12 2913   1.354   2.600   5.280  0.0980 -0.1833 -0.4731
   24CHL1  H12A 2914   1.256   2.620   5.232 -0.3651  1.0796  0.9010
   24CHL1  H12B 2915   1.385   2.497   5.253  0.3590 -0.0828 -0.5643
   24CHL1   C11 2916   1.338   2.604   5.436 -1.1785  0.0850  0.4469
   24CHL1  H11A 2917   1.274   2.693   5.452 -1.1626  0.2314 -0.2647
   24CHL1  H11B 2918   1.283   2.521   5.484  1.6037 -0.9477  2.0887
   24CHL1    C9 2919   1.475   2.606   5.516  0.0075 -0.2648 -0.0104
   24CHL1    H9 2920   1.513   2.502   5.504 -1.9042 -1.0775  0.5995
   24CHL1   C10 2921   1.463   2.622   5.669  0.0895 -0.2582 -0.2207
   24CHL1   C19 2922   1.388   2.754   5.689  0.6652  0.4525 -0.4679
   24CHL1  H19A 2923   1.279   2.743   5.667  0.5918 -0.9012  0.4510
   24CHL1  H19B 2924   1.404   2.780   5.795  0.5765 -1.8862  0.1705
   24CHL1  H19C 2925   1.430   2.833   5.623 -0.9763  2.4825  0.8125
   24CHL1    C1 2926   1.407   2.490   5.729  0.4298 -0.3010 -0.7965
   24CHL1   H1A 2927   1.310   2.472   5.678  0.5119 -0.7955 -0.7773
   24CHL1   H1B 2928   1.476   2.408   5.703  1.6243  0.5253 -0.3341
   24CHL1    C2 2929   1.388   2.508   5.880  0.8120 -0.4862 -0.3634
   24CHL1   H2A 2930   1.359   2.413   5.930 -1.6059 -0.1063 -0.9209
   24CHL1   H2B 2931   1.316   2.585   5.917  1.1962 -0.1820 -0.2386
   24CHL1   C20 2932   1.395   2.714   4.976 -0.4400  0.6556 -0.4044
   24CHL1   H20 2933   1.345   2.811   4.999 -1.0858 -0.1549  1.8616
   24CHL1   C21 2934   1.286   2.609   4.943  0.7567  0.3787  0.2568
   24CHL1  H21A 2935   1.263   2.543   5.030 -1.3514 -0.4441 -0.8583
   24CHL1  H21B 2936   1.324   2.541   4.864  0.8762 -2.3691  2.5153
   24CHL1  H21C 2937   1.196   2.665   4.910  0.5874  0.0083  0.0913
   24CHL1   C22 2938   1.464   2.741   4.844  0.2783  0.2796  0.0073
   24CHL1  H22A 2939   1.548   2.812   4.861  1.4749 -1.2709  0.7820
   24CHL1  H22B 2940   1.506   2.644   4.810 -1.3228 -0.0833 -1.0569
   24CHL1   C23 2941   1.374   2.818   4.747  0.3691 -0.3341 -0.2101
   24CHL1  H23A 2942   1.268   2.784   4.747 -0.1318  1.1023  0.5287
   24CHL1  H23B 2943   1.364   2.915   4.800 -2.3330 -1.5057  1.6704
   24CHL1   C24 2944   1.435   2.825   4.611 -0.1367 -0.0274  0.1826
   24CHL1  H24A 2945   1.542   2.838   4.640  0.6017 -1.0138 -1.8285
   24CHL1  H24B 2946   1.432   2.725   4.561  0.4571  0.6701 -1.3073
   24CHL1   C25 2947   1.381   2.921   4.503  0.5878  0.5909  0.0069
   24CHL1   H25 2948   1.272   2.902   4.486  0.6204  0.5083 -0.1134
   24CHL1   C26 2949   1.391   3.072   4.543 -0.0150  0.5526  0.1069
   24CHL1  H26A 2950   1.350   3.141   4.466  1.7595  1.0986 -0.4188
   24CHL1  H26B 2951   1.349   3.087   4.645  0.5355 -1.4070  0.6648
   24CHL1  H26C 2952   1.501   3.088   4.537 -0.1273  1.2625 -0.1383
   24CHL1   C27 2953   1.443   2.901   4.361  0.5474 -0.0140 -0.0092
   24CHL1  H27A 2954   1.431   2.998   4.308 -0.0165 -0.1947 -0.2170
   24CHL1  H27B 2955   1.550   2.870   4.362  0.1393 -1.5574  1.8100
   24CHL1  H27C 2956   1.377   2.834   4.302 -4.6655  3.2241  1.4700
   25CHL1    C3 2957   4.379   6.432   6.474  0.1203  0.1978 -0.1820
   25CHL1    H3 2958   4.304   6.507   6.440  1.8806  0.8547 -2.8791
   25CHL1    O3 2959   4.379   6.428   6.619 -0.0947  0.6014  0.0403
   25CHL1   H3' 2960   4.472   6.434   6.642  0.3518  1.8343 -1.8965
   25CHL1    C4 2961   4.328   6.292   6.424  0.4658 -0.1386  0.7292
   25CHL1   H4A 2962   4.373   6.205   6.477 -0.8572  0.6602  3.3221
   25CHL1   H4B 2963   4.220   6.285   6.448  0.3473  0.1908  0.3052
   25CHL1    C5 2964   4.346   6.277   6.269  0.2952 -0.3980 -0.5867
   25CHL1    C6 2965   4.246   6.236   6.187  0.3933 -0.1073  0.3233
   25CHL1    H6 2966   4.148   6.212   6.230  0.4066  1.1753  1.1097
   25CHL1    C7 2967   4.261   6.228   6.036  0.1138  0.2502  0.0908
   25CHL1   H7A 2968   4.213   6.134   6.003  0.2530 -1.3250  3.8707
   25CHL1   H7B 2969   4.214   6.318   5.991 -0.1432 -1.0647 -2.3898
   25CHL1    C8 2970   4.410   6.216   5.990  0.1166 -0.1144  0.0069
   25CHL1    H8 2971   4.456   6.120   6.024  3.0271  1.4439  0.7726
   25CHL1   C14 2972   4.425   6.221   5.838  0.0249 -0.1704  0.7135
   25CHL1   H14 2973   4.373   6.315   5.808 -2.4582 -1.7990 -0.3476
   25CHL1   C15 2974   4.364   6.107   5.758 -0.7091 -0.1351 -0.2540
   25CHL1  H15A 2975   4.407   6.015   5.802  3.5292  1.2090 -1.0879
   25CHL1  H15B 2976   4.253   6.118   5.755 -0.8057  1.4231  3.4905
   25CHL1   C16 2977   4.433   6.139   5.618 -0.6842  0.3209 -0.2963
   25CHL1  H16A 2978   4.474   6.048   5.570 -0.6723  0.6065 -0.8404
   25CHL1  H16B 2979   4.356   6.176   5.546 -2.3257 -3.6977 -0.8615
   25CHL1   C17 2980   4.553   6.229   5.631  0.0945  0.3221 -0.7252
   25CHL1   H17 2981   4.521   6.333   5.612  0.6912  0.6310 -0.0819
   25CHL1   C13 2982   4.576   6.226   5.785  0.0769 -0.3378 -0.9569
   25CHL1   C18 2983   4.658   6.099   5.827  0.4679  0.3349  0.6194
   25CHL1  H18A 2984   4.604   6.007   5.795  1.6267 -0.4900  0.9687
   25CHL1  H18B 2985   4.760   6.101   5.783 -0.6958 -0.3555 -2.3456
   25CHL1  H18C 2986   4.663   6.104   5.938  1.1110  0.8879  0.5698
   25CHL1   C12 2987   4.635   6.354   5.847 -1.0961 -0.5451 -0.1313
   25CHL1  H12A 2988   4.738   6.374   5.811 -0.8278 -0.6425  0.5607
   25CHL1  H12B 2989   4.579   6.440   5.806 -0.0279  0.2985  0.1536
   25CHL1   C11 2990   4.625   6.358   5.995  0.4205 -0.2147  0.0158
   25CHL1  H11A 2991   4.697   6.281   6.028  0.4027 -1.0051 -1.6822
   25CHL1  H11B 2992   4.657   6.454   6.041  1.3199 -0.5370  0.0764
   25CHL1    C9 2993   4.484   6.326   6.064  0.0440  0.3466  0.7519
   25CHL1    H9 2994   4.428   6.418   6.035 -0.3957 -0.7508 -2.2190
   25CHL1   C10 2995   4.489   6.316   6.212  0.5263  0.3904 -0.9031
   25CHL1   C19 2996   4.577   6.187   6.259 -0.1897  0.3612  0.4289
   25CHL1  H19A 2997   4.556   6.087   6.215  1.5491  0.6529 -1.2588
   25CHL1  H19B 2998   4.684   6.209   6.236  0.2337 -1.3227  0.6497
   25CHL1  H19C 2999   4.578   6.167   6.368 -1.5945 -1.0466  0.2086
   25CHL1    C1 3000   4.537   6.444   6.280 -0.3906  0.0253 -0.0050
   25CHL1   H1A 3001   4.642   6.461   6.247 -0.2033 -2.8102 -1.1218
   25CHL1   H1B 3002   4.484   6.534   6.242  0.5422  0.0478 -1.3545
   25CHL1    C2 3003   4.523   6.452   6.435 -1.5561 -0.0866 -0.3430
   25CHL1   H2A 3004   4.563   6.552   6.462 -1.0707 -0.5542  0.7058
   25CHL1   H2B 3005   4.584   6.370   6.478 -0.8878  0.5433 -0.0849
   25CHL1   C20 3006   4.668   6.188   5.537  0.0348 -0.4216  0.7578
   25CHL1   H20 3007   4.686   6.082   5.564  0.3197 -0.7373 -0.5681
   25CHL1   C21 3008   4.802   6.265   5.568  0.4037 -0.5154  0.0374
   25CHL1  H21A 3009   4.837   6.253   5.673  0.0125 -0.4773  0.1733
   25CHL1  H21B 3010   4.789   6.374   5.548  0.3847 -0.1204  2.0370
   25CHL1  H21C 3011   4.887   6.227   5.508 -0.1395 -0.7697 -0.5868
   25CHL1   C22 3012   4.626   6.184   5.385  0.8404 -0.2750  0.3134
   25CHL1  H22A 3013   4.707   6.137   5.326  2.2938  1.5799  0.7084
   25CHL1  H22B 3014   4.529   6.133   5.374  0.5873  0.3757 -0.5718
   25CHL1   C23 3015   4.603   6.325   5.315 -0.3295  0.4139  0.3231
   25CHL1  H23A 3016   4.546   6.384   5.389 -2.0952 -0.9093  0.0770
   25CHL1  H23B 3017   4.699   6.375   5.291 -1.1060  1.9088  0.2123
   25CHL1   C24 3018   4.531   6.314   5.178  0.0514  0.1943 -0.3089
   25CHL1  H24A 3019   4.588   6.252   5.106 -1.3365  0.0245 -1.3078
   25CHL1  H24B 3020   4.433   6.262   5.188  0.4305 -0.8867 -1.8023
   25CHL1   C25 3021   4.512   6.446   5.102  0.7862  0.4207 -0.2154
   25CHL1   H25 3022   4.438   6.513   5.149 -2.0106 -1.4749 -1.6208
   25CHL1   C26 3023   4.651   6.513   5.079 -0.0373  0.0075  0.3658
   25CHL1  H26A 3024   4.688   6.551   5.176 -3.2622  1.5837  1.1195
   25CHL1  H26B 3025   4.717   6.443   5.023 -1.2334 -0.7851 -0.1048
   25CHL1  H26C 3026   4.637   6.608   5.023 -2.6923 -1.0192 -0.8662
   25CHL1   C27 3027   4.445   6.401   4.968 -0.7232 -0.5255  0.3111
   25CHL1  H27A 3028   4.525   6.338   4.925  1.8490  2.5496  0.1988
   25CHL1  H27B 3029   4.363   6.329   4.992 -0.9012 -1.0809 -1.8263
   25CHL1  H27C 3030   4.413   6.488   4.908  0.2756 -0.4271 -0.0954
   26CHL1    C3 3031   3.226   0.520   5.993  0.7844  0.0614 -0.3898
   26CHL1    H3 3032   3.318   0.552   5.939  1.1084 -1.8557 -1.0767
   26CHL1    O3 3033   3.254   0.521   6.132  0.1974  0.4161  0.1731
   26CHL1   H3' 3034   3.339   0.477   6.137  1.6338  3.1418  1.1757
   26CHL1    C4 3035   3.115   0.612   5.954  0.2252 -0.1651 -0.3152
   26CHL1   H4A 3036   3.021   0.585   6.006 -0.0643 -0.6071 -1.0383
   26CHL1   H4B 3037   3.151   0.712   5.986 -1.1690  1.4937 -3.4801
   26CHL1    C5 3038   3.087   0.604   5.811  0.6284  0.9128  0.1009
   26CHL1    C6 3039   3.096   0.709   5.732 -0.0950  0.7762  0.2973
   26CHL1    H6 3040   3.124   0.808   5.770  1.8492  0.7209 -0.8609
   26CHL1    C7 3041   3.059   0.713   5.586 -0.1639  0.1383 -0.4577
   26CHL1   H7A 3042   2.996   0.800   5.556 -0.3970  0.0210 -0.3070
   26CHL1   H7B 3043   3.151   0.708   5.523 -1.0168 -2.0053 -1.6366
   26CHL1    C8 3044   2.979   0.590   5.549 -0.3336 -0.0803 -0.2605
   26CHL1    H8 3045   2.876   0.590   5.592 -0.1751 -1.0366  0.1646
   26CHL1   C14 3046   2.960   0.580   5.396  0.5823 -0.6300  0.0130
   26CHL1   H14 3047   3.065   0.582   5.359  0.6332 -0.4124  0.1611
   26CHL1   C15 3048   2.890   0.706   5.332  0.5466  0.7166 -0.4322
   26CHL1  H15A 3049   2.792   0.731   5.378  0.8825 -0.9910  1.3430
   26CHL1  H15B 3050   2.941   0.804   5.338  0.7833  0.5218  1.5076
   26CHL1   C16 3051   2.870   0.650   5.191 -0.2596  0.0969 -0.0616
   26CHL1  H16A 3052   2.769   0.683   5.160  0.1139  1.3233 -0.0401
   26CHL1  H16B 3053   2.953   0.687   5.126  1.0020 -0.2418  1.2953
   26CHL1   C17 3054   2.894   0.494   5.185 -0.0866 -0.0037  0.0510
   26CHL1   H17 3055   2.994   0.475   5.141 -0.9041  1.4057 -2.6697
   26CHL1   C13 3056   2.898   0.451   5.332 -0.7254 -0.2604  0.2881
   26CHL1   C18 3057   2.745   0.439   5.391  0.3784  0.1934  0.0914
   26CHL1  H18A 3058   2.679   0.518   5.350 -2.7162 -1.4830  1.4644
   26CHL1  H18B 3059   2.698   0.342   5.366  3.0117 -1.4715  1.1230
   26CHL1  H18C 3060   2.740   0.448   5.502 -0.6011  1.7998 -0.0596
   26CHL1   C12 3061   2.988   0.339   5.378 -0.7831  0.0279 -0.2141
   26CHL1  H12A 3062   2.963   0.238   5.337 -0.6018 -0.4006  0.6946
   26CHL1  H12B 3063   3.094   0.363   5.354 -0.7753  1.0381  0.7480
   26CHL1   C11 3064   3.004   0.335   5.536  0.2766  0.6076 -0.5870
   26CHL1  H11A 3065   2.909   0.314   5.589  0.9763 -2.3576 -0.3362
   26CHL1  H11B 3066   3.078   0.256   5.558  0.3559  0.2652 -1.9807
   26CHL1    C9 3067   3.052   0.468   5.607 -0.0759  0.4626  0.4626
   26CHL1    H9 3068   3.157   0.476   5.572 -0.3070  0.6049 -0.2140
   26CHL1   C10 3069   3.051   0.463   5.760  0.4228 -0.2373  0.8596
   26CHL1   C19 3070   2.905   0.431   5.809  0.0581  0.2369 -0.2033
   26CHL1  H19A 3071   2.828   0.488   5.753 -0.3837 -1.1368 -1.0425
   26CHL1  H19B 3072   2.880   0.323   5.797  1.1812  0.0049 -0.5357
   26CHL1  H19C 3073   2.904   0.449   5.919  2.9230  2.8236 -0.4970
   26CHL1    C1 3074   3.161   0.365   5.814  0.2407 -1.0363 -0.1621
   26CHL1   H1A 3075   3.139   0.261   5.781  2.0109 -0.8562 -2.1387
   26CHL1   H1B 3076   3.247   0.402   5.754  0.7645 -0.1239  1.1101
   26CHL1    C2 3077   3.199   0.380   5.954  0.0246  0.6071 -0.0745
   26CHL1   H2A 3078   3.290   0.319   5.971  0.3108  1.0095 -0.1640
   26CHL1   H2B 3079   3.113   0.347   6.016 -0.6161  1.4799 -0.4860
   26CHL1   C20 3080   2.797   0.425   5.092 -0.5612 -0.0582 -0.5270
   26CHL1   H20 3081   2.695   0.414   5.135 -0.9084  0.0289 -1.2982
   26CHL1   C21 3082   2.845   0.275   5.072  0.6225 -0.4296 -0.7728
   26CHL1  H21A 3083   2.835   0.224   5.170 -0.7616 -2.9755 -2.1421
   26CHL1  H21B 3084   2.941   0.260   5.017 -0.5071  0.2138 -3.0554
   26CHL1  H21C 3085   2.763   0.224   5.017  1.1724  0.0466 -2.1011
   26CHL1   C22 3086   2.778   0.493   4.954  0.0425  0.7340  0.4550
   26CHL1  H22A 3087   2.720   0.587   4.968 -0.0875  0.5519  1.1529
   26CHL1  H22B 3088   2.878   0.506   4.908 -1.0506  1.6893 -1.8355
   26CHL1   C23 3089   2.697   0.402   4.850 -0.6952  0.0194 -0.4083
   26CHL1  H23A 3090   2.750   0.307   4.828 -0.9571  0.0994 -1.4542
   26CHL1  H23B 3091   2.599   0.378   4.898 -0.3572 -1.2635 -0.3236
   26CHL1   C24 3092   2.667   0.474   4.714 -0.4495  0.0007  0.0896
   26CHL1  H24A 3093   2.654   0.583   4.732  0.4278 -0.0806  1.3947
   26CHL1  H24B 3094   2.756   0.464   4.648 -0.1615  1.0850  0.2789
   26CHL1   C25 3095   2.545   0.425   4.642  0.0515 -0.2724 -0.1327
   26CHL1   H25 3096   2.457   0.438   4.710  1.4245  1.2765  1.4316
   26CHL1   C26 3097   2.523   0.507   4.517 -0.5050 -0.3983 -0.1289
   26CHL1  H26A 3098   2.619   0.509   4.460 -0.5423  2.2433 -0.2275
   26CHL1  H26B 3099   2.444   0.464   4.452 -1.8083 -0.7328  1.6258
   26CHL1  H26C 3100   2.487   0.608   4.546 -1.1416  0.3962 -3.3104
   26CHL1   C27 3101   2.561   0.276   4.610 -0.7094  0.3870  0.4623
   26CHL1  H27A 3102   2.648   0.272   4.541 -0.2032 -1.6836  1.1440
   26CHL1  H27B 3103   2.573   0.210   4.698 -1.9584 -1.9042 -0.9642
   26CHL1  H27C 3104   2.472   0.236   4.555 -0.1175  0.8754 -0.9030
   27CHL1    C3 3105   1.076   6.141   5.699 -0.3534 -0.0672 -0.2164
   27CHL1    H3 3106   1.138   6.049   5.697  0.8808  0.7403 -0.3232
   27CHL1    O3 3107   1.014   6.151   5.825 -0.5382  0.0594 -0.6574
   27CHL1   H3' 3108   0.981   6.065   5.851  1.9692 -0.3540  1.6279
   27CHL1    C4 3109   1.180   6.254   5.677 -0.1178  0.0634 -0.1743
   27CHL1   H4A 3110   1.124   6.345   5.706 -2.2939 -1.1020 -0.4862
   27CHL1   H4B 3111   1.246   6.248   5.766 -1.4319  1.7424  0.9872
   27CHL1    C5 3112   1.254   6.250   5.546 -0.0574  0.0884  0.1521
   27CHL1    C6 3113   1.389   6.246   5.545 -0.0553 -0.3103  1.0327
   27CHL1    H6 3114   1.441   6.241   5.642 -3.0075 -0.0828  2.7631
   27CHL1    C7 3115   1.468   6.245   5.417  0.0582  0.4688  1.0146
   27CHL1   H7A 3116   1.540   6.330   5.412  1.5092 -0.7945 -2.5086
   27CHL1   H7B 3117   1.531   6.154   5.410  0.1288  0.6496 -1.7951
   27CHL1    C8 3118   1.385   6.258   5.285 -0.3182  0.3441 -0.3524
   27CHL1    H8 3119   1.364   6.365   5.266 -4.1662 -0.0539  0.7391
   27CHL1   C14 3120   1.463   6.193   5.173  0.9369  0.4783 -0.6159
   27CHL1   H14 3121   1.463   6.084   5.195  0.6739  0.7509  0.7829
   27CHL1   C15 3122   1.604   6.246   5.151  0.9225 -0.0756  0.2943
   27CHL1  H15A 3123   1.609   6.357   5.149  1.4433 -0.0092  2.3688
   27CHL1  H15B 3124   1.669   6.204   5.231  0.7101 -2.1467 -0.5377
   27CHL1   C16 3125   1.632   6.190   5.008 -0.0878  0.6120  0.1251
   27CHL1  H16A 3126   1.666   6.283   4.957  0.4713 -0.4361 -1.4920
   27CHL1  H16B 3127   1.715   6.117   5.019  0.1724  0.8907  0.0413
   27CHL1   C17 3128   1.502   6.129   4.951 -0.0032 -0.0072 -0.0493
   27CHL1   H17 3129   1.515   6.025   4.988  2.5577  0.4861  0.6281
   27CHL1   C13 3130   1.398   6.200   5.040 -0.1855 -0.4609  0.6604
   27CHL1   C18 3131   1.383   6.348   4.987 -0.3723 -0.6607 -0.5964
   27CHL1  H18A 3132   1.478   6.401   4.963 -2.2809  3.4547  0.0539
   27CHL1  H18B 3133   1.319   6.344   4.897 -2.3449  2.7578  0.4523
   27CHL1  H18C 3134   1.320   6.418   5.047 -0.4140 -0.1989 -1.1626
   27CHL1   C12 3135   1.268   6.127   5.046  0.3900  0.1483  0.5356
   27CHL1  H12A 3136   1.208   6.132   4.953  1.8270 -2.8683 -0.6994
   27CHL1  H12B 3137   1.282   6.020   5.073 -0.6859 -0.0728  0.2688
   27CHL1   C11 3138   1.182   6.182   5.164  0.1608  0.5790  0.4580
   27CHL1  H11A 3139   1.140   6.281   5.133  0.1627 -0.1315 -2.0155
   27CHL1  H11B 3140   1.099   6.108   5.169  0.4452  0.2119 -0.1263
   27CHL1    C9 3141   1.246   6.194   5.295  0.1925  0.0120 -0.2775
   27CHL1    H9 3142   1.265   6.089   5.325  1.7636  0.0853 -0.8794
   27CHL1   C10 3143   1.166   6.242   5.417 -0.0202 -0.1093  0.2264
   27CHL1   C19 3144   1.090   6.371   5.384 -0.6081 -0.0071 -0.8913
   27CHL1  H19A 3145   1.155   6.460   5.395 -0.2082 -0.5468  1.6503
   27CHL1  H19B 3146   1.033   6.360   5.288 -0.7128 -0.8669 -0.7450
   27CHL1  H19C 3147   1.012   6.392   5.460  0.7402  1.7794  0.0405
   27CHL1    C1 3148   1.052   6.135   5.446 -0.0052  0.1971 -0.0432
   27CHL1   H1A 3149   0.972   6.137   5.369  0.0851  2.3015 -0.1314
   27CHL1   H1B 3150   1.097   6.033   5.453 -0.3466 -0.0774 -1.4735
   27CHL1    C2 3151   0.976   6.143   5.584 -0.0649  0.0722 -0.0361
   27CHL1   H2A 3152   0.913   6.051   5.588  1.0160 -0.6596  1.1382
   27CHL1   H2B 3153   0.913   6.234   5.585 -0.4385 -0.1886  0.3007
   27CHL1   C20 3154   1.488   6.117   4.800  0.4381 -0.5735  0.6091
   27CHL1   H20 3155   1.468   6.218   4.758 -2.2552 -0.9074  0.9355
   27CHL1   C21 3156   1.367   6.034   4.761  0.1991 -0.1583 -0.4017
   27CHL1  H21A 3157   1.366   5.939   4.817  2.6571  0.1553  0.2905
   27CHL1  H21B 3158   1.359   6.024   4.650 -0.1875  1.3600 -0.5406
   27CHL1  H21C 3159   1.274   6.093   4.776 -1.4032 -2.3150 -1.4015
   27CHL1   C22 3160   1.609   6.052   4.728  0.0527  0.4976  0.4012
   27CHL1  H22A 3161   1.700   6.103   4.768 -0.4767  2.7785 -1.1215
   27CHL1  H22B 3162   1.605   5.948   4.766 -0.7055  0.9156  1.5374
   27CHL1   C23 3163   1.621   6.074   4.584 -0.4015 -0.2346  0.1152
   27CHL1  H23A 3164   1.534   6.034   4.528  0.8095 -2.5059 -0.2440
   27CHL1  H23B 3165   1.603   6.184   4.580 -2.0836 -0.5026 -1.8283
   27CHL1   C24 3166   1.761   6.057   4.517  0.2927  0.2732 -0.3504
   27CHL1  H24A 3167   1.845   6.091   4.583 -0.7497 -1.0818  1.7804
   27CHL1  H24B 3168   1.779   5.948   4.511 -0.1099  0.0154  1.9378
   27CHL1   C25 3169   1.780   6.126   4.383 -0.6799 -0.4186 -0.5338
   27CHL1   H25 3170   1.861   6.074   4.327  0.6340  0.6960  0.2683
   27CHL1   C26 3171   1.659   6.108   4.290  0.6866 -0.0794  1.1414
   27CHL1  H26A 3172   1.564   6.152   4.326 -0.2987  2.3697 -3.5586
   27CHL1  H26B 3173   1.690   6.171   4.203  1.0732 -1.2753  0.3936
   27CHL1  H26C 3174   1.634   6.003   4.265 -3.3738  0.8908  0.3670
   27CHL1   C27 3175   1.810   6.274   4.399 -0.1586  0.4239  0.1873
   27CHL1  H27A 3176   1.892   6.288   4.472 -0.8836 -0.9936  1.3335
   27CHL1  H27B 3177   1.721   6.316   4.451 -2.3096 -1.4368 -1.7962
   27CHL1  H27C 3178   1.833   6.331   4.307 -1.0967  1.5040  0.5921
   28CHL1    C3 3179   6.590   6.201   6.037  0.5940 -0.4395 -0.0243
   28CHL1    H3 3180   6.657   6.115   6.018  0.5763 -1.2098  2.8469
   28CHL1    O3 3181   6.583   6.217   6.181  0.6011  0.0891 -0.4285
   28CHL1   H3' 3182   6.517   6.282   6.205  1.4137  0.5250  0.7318
   28CHL1    C4 3183   6.634   6.336   5.972 -0.2563 -0.0028 -0.1071
   28CHL1   H4A 3184   6.577   6.424   6.007 -0.7237  0.0208 -0.8972
   28CHL1   H4B 3185   6.735   6.359   6.011 -0.9900  0.4691  1.5870
   28CHL1    C5 3186   6.630   6.345   5.819 -0.6361  0.7488 -0.2327
   28CHL1    C6 3187   6.734   6.384   5.739 -0.0758  0.1138  0.1257
   28CHL1    H6 3188   6.833   6.395   5.786  0.9939 -0.7779 -1.7807
   28CHL1    C7 3189   6.729   6.395   5.593 -0.1845 -0.0174 -0.5301
   28CHL1   H7A 3190   6.776   6.491   5.560 -0.3793  0.9151  1.7325
   28CHL1   H7B 3191   6.788   6.311   5.551 -1.3784  0.1616 -2.6998
   28CHL1    C8 3192   6.589   6.397   5.543  0.1364 -0.4322 -0.3294
   28CHL1    H8 3193   6.534   6.492   5.559 -1.3750 -1.4751  0.9220
   28CHL1   C14 3194   6.582   6.379   5.387  0.1646  0.0705 -0.1219
   28CHL1   H14 3195   6.629   6.279   5.375 -0.1311 -0.2313  1.1106
   28CHL1   C15 3196   6.680   6.465   5.305 -0.1094 -1.2321 -0.3001
   28CHL1  H15A 3197   6.679   6.569   5.345 -2.9557 -1.2507 -0.0845
   28CHL1  H15B 3198   6.780   6.421   5.285  0.8189  0.7898 -0.4329
   28CHL1   C16 3199   6.608   6.454   5.163 -0.0741  0.8008  0.0115
   28CHL1  H16A 3200   6.582   6.559   5.137 -3.6746 -0.1103 -0.5956
   28CHL1  H16B 3201   6.683   6.414   5.091 -1.3027 -0.2384 -0.7217
   28CHL1   C17 3202   6.487   6.360   5.176 -0.2979 -0.5058 -0.5044
   28CHL1   H17 3203   6.521   6.254   5.178  1.5756  0.0703  0.9478
   28CHL1   C13 3204   6.441   6.382   5.322 -0.4383 -0.8014  0.6667
   28CHL1   C18 3205   6.366   6.523   5.331  0.3198  0.7416  0.3104
   28CHL1  H18A 3206   6.273   6.519   5.272  2.6957  1.4953 -3.8637
   28CHL1  H18B 3207   6.351   6.541   5.440 -1.0303 -1.3240  0.5160
   28CHL1  H18C 3208   6.430   6.604   5.289  1.0588 -0.0692 -0.1539
   28CHL1   C12 3209   6.359   6.275   5.392  0.0399  0.0195 -0.0614
   28CHL1  H12A 3210   6.254   6.276   5.356  0.5606 -1.0321 -1.7379
   28CHL1  H12B 3211   6.400   6.172   5.376 -1.3900 -0.8602  1.6343
   28CHL1   C11 3212   6.354   6.284   5.545  0.0871 -0.4186 -0.8186
   28CHL1  H11A 3213   6.306   6.380   5.573 -0.1181 -0.8797  0.4689
   28CHL1  H11B 3214   6.299   6.198   5.589 -0.3869  0.3025  0.0442
   28CHL1    C9 3215   6.499   6.292   5.609 -0.0281 -0.2881 -0.4771
   28CHL1    H9 3216   6.556   6.201   5.580  2.9677  1.4712 -0.5284
   28CHL1   C10 3217   6.491   6.311   5.768  0.6668  0.7152  0.0509
   28CHL1   C19 3218   6.385   6.412   5.813  0.9262  0.2230  0.7477
   28CHL1  H19A 3219   6.382   6.440   5.921 -0.0363  0.3343  0.6995
   28CHL1  H19B 3220   6.402   6.509   5.762  1.9557  0.0475  0.7355
   28CHL1  H19C 3221   6.284   6.380   5.778  1.1077  0.4074  0.0405
   28CHL1    C1 3222   6.452   6.166   5.834 -0.6617 -0.3601 -0.2258
   28CHL1   H1A 3223   6.352   6.145   5.789 -0.1104 -1.2524 -1.0680
   28CHL1   H1B 3224   6.528   6.092   5.801 -1.7947 -0.7013 -2.2741
   28CHL1    C2 3225   6.450   6.161   5.985 -0.3379  0.2241  1.0410
   28CHL1   H2A 3226   6.422   6.056   6.011 -1.8380  0.1310 -0.7145
   28CHL1   H2B 3227   6.369   6.231   6.014  1.1064  1.9853  0.9389
   28CHL1   C20 3228   6.389   6.370   5.059  0.5310 -0.2771  0.3975
   28CHL1   H20 3229   6.334   6.466   5.067 -1.4832 -1.4189  0.9452
   28CHL1   C21 3230   6.278   6.265   5.084 -0.2778  0.2083  0.5373
   28CHL1  H21A 3231   6.206   6.291   5.165 -0.8158  1.2831 -0.2659
   28CHL1  H21B 3232   6.315   6.163   5.107 -0.5046 -0.4536 -1.8299
   28CHL1  H21C 3233   6.218   6.251   4.992 -0.6864 -0.4742  0.8946
   28CHL1   C22 3234   6.444   6.345   4.918 -0.4274 -0.0929 -0.2288
   28CHL1  H22A 3235   6.541   6.400   4.917  0.3903 -1.4436  0.7390
   28CHL1  H22B 3236   6.462   6.235   4.911 -0.2361 -0.0533 -0.3618
   28CHL1   C23 3237   6.344   6.401   4.809 -0.3563  0.2647 -0.0411
   28CHL1  H23A 3238   6.238   6.373   4.825 -0.3859 -0.6924 -1.6952
   28CHL1  H23B 3239   6.341   6.509   4.835 -1.3714  0.4119 -0.6944
   28CHL1   C24 3240   6.388   6.385   4.670  0.3955  0.9519 -0.6387
   28CHL1  H24A 3241   6.498   6.378   4.655  0.1678  0.8477 -2.5358
   28CHL1  H24B 3242   6.346   6.288   4.635 -0.1776  1.4720 -1.4300
   28CHL1   C25 3243   6.322   6.492   4.579  0.4613 -0.5099  0.3708
   28CHL1   H25 3244   6.214   6.497   4.604  0.0839 -0.7715 -1.1261
   28CHL1   C26 3245   6.393   6.629   4.604  0.2851 -0.3270  0.4880
   28CHL1  H26A 3246   6.502   6.615   4.590  0.2518 -0.1339  0.0266
   28CHL1  H26B 3247   6.366   6.688   4.514 -0.3757 -4.3290 -2.2151
   28CHL1  H26C 3248   6.371   6.683   4.698 -2.2202 -0.3135 -0.0290
   28CHL1   C27 3249   6.309   6.445   4.433 -0.1721 -0.0395  0.2987
   28CHL1  H27A 3250   6.406   6.408   4.392  0.7767  0.7161  1.7432
   28CHL1  H27B 3251   6.240   6.359   4.424  1.7621 -1.7749  1.0895
   28CHL1  H27C 3252   6.277   6.534   4.373  0.0407  1.3569  2.1637
   29CHL1    C3 3253   6.796   3.089   5.779  0.1156  0.7630 -0.3107
   29CHL1    H3 3254   6.802   3.189   5.732  3.0239  0.2847 -1.1722
   29CHL1    O3 3255   6.724   3.091   5.900  0.4456 -0.4456 -0.1943
   29CHL1   H3' 3256   6.721   2.997   5.919 -2.8754 -0.4829 -0.4186
   29CHL1    C4 3257   6.732   2.994   5.674 -0.0886  0.1446  0.5149
   29CHL1   H4A 3258   6.721   2.893   5.719 -2.4220  0.0966 -0.0403
   29CHL1   H4B 3259   6.629   3.035   5.670  0.2684  1.0749  0.6278
   29CHL1    C5 3260   6.810   2.985   5.545 -0.3969  0.3996 -0.3313
   29CHL1    C6 3261   6.761   3.029   5.435  0.7782 -0.8444  0.0776
   29CHL1    H6 3262   6.655   3.058   5.425  0.9542 -0.1251  0.1843
   29CHL1    C7 3263   6.844   3.027   5.308  0.2369 -0.3254 -0.0923
   29CHL1   H7A 3264   6.780   2.997   5.222 -0.1156 -0.6501  0.2799
   29CHL1   H7B 3265   6.873   3.130   5.280  2.0078 -1.0562 -1.1555
   29CHL1    C8 3266   6.964   2.933   5.313 -0.1528  0.3412  0.1563
   29CHL1    H8 3267   6.929   2.828   5.304  0.0319  0.3916 -1.5185
   29CHL1   C14 3268   7.046   2.969   5.193 -0.2281 -0.2211 -0.1043
   29CHL1   H14 3269   7.077   3.076   5.198 -0.3080  0.1173 -3.8333
   29CHL1   C15 3270   6.977   2.972   5.056 -0.5785 -0.4876 -0.7683
   29CHL1  H15A 3271   6.935   2.873   5.026  3.3868 -2.0280 -1.9484
   29CHL1  H15B 3272   6.905   3.055   5.044  1.9777  2.0899  0.6257
   29CHL1   C16 3273   7.101   2.989   4.960  0.6212 -0.1002 -0.7057
   29CHL1  H16A 3274   7.090   2.912   4.881  1.8247 -1.4566  0.4022
   29CHL1  H16B 3275   7.106   3.088   4.909  2.2539  1.3656  2.0849
   29CHL1   C17 3276   7.228   2.960   5.047 -0.1252 -0.8126  0.5643
   29CHL1   H17 3277   7.270   3.059   5.074  1.8548 -1.7144  0.9394
   29CHL1   C13 3278   7.167   2.890   5.170 -0.8452  0.1603  0.4448
   29CHL1   C18 3279   7.151   2.739   5.141 -0.7135  0.4255  0.6349
   29CHL1  H18A 3280   7.092   2.687   5.219  1.5098 -0.5813  1.7347
   29CHL1  H18B 3281   7.109   2.713   5.041 -0.0668  0.5857  0.3127
   29CHL1  H18C 3282   7.255   2.703   5.154 -0.9270 -0.5527 -0.2098
   29CHL1   C12 3283   7.257   2.916   5.296  0.0348  0.0285  0.2000
   29CHL1  H12A 3284   7.352   2.860   5.285 -0.0872  0.1610 -2.0939
   29CHL1  H12B 3285   7.294   3.020   5.301  0.3325 -0.0789  0.2951
   29CHL1   C11 3286   7.176   2.879   5.427 -0.8091  0.3110  0.3217
   29CHL1  H11A 3287   7.161   2.769   5.431  1.1169 -0.0146 -0.5442
   29CHL1  H11B 3288   7.245   2.893   5.512  0.9048 -2.9080 -0.4044
   29CHL1    C9 3289   7.043   2.953   5.439 -0.7964  0.2994  0.2748
   29CHL1    H9 3290   7.070   3.059   5.455  0.8293 -0.2398  1.4450
   29CHL1   C10 3291   6.953   2.929   5.565 -1.2789  0.3293 -1.1880
   29CHL1   C19 3292   6.956   2.781   5.602  0.5027 -0.0837 -0.1057
   29CHL1  H19A 3293   6.896   2.771   5.695  0.1239  1.6359 -0.1264
   29CHL1  H19B 3294   6.907   2.721   5.523 -1.8021 -1.1325  1.9646
   29CHL1  H19C 3295   7.060   2.746   5.618  0.4932  0.2168  0.6824
   29CHL1    C1 3296   7.017   3.011   5.679  0.3103  0.0334 -0.4561
   29CHL1   H1A 3297   7.112   2.958   5.701 -0.5321 -2.1908 -1.7810
   29CHL1   H1B 3298   7.030   3.116   5.645 -0.6711  0.2942 -0.0780
   29CHL1    C2 3299   6.936   3.021   5.805  0.0267 -0.0721 -0.7104
   29CHL1   H2A 3300   6.984   3.084   5.883 -0.0530 -2.2780  1.2375
   29CHL1   H2B 3301   6.914   2.928   5.861 -0.0199 -0.5263 -1.4814
   29CHL1   C20 3302   7.339   2.886   4.972 -0.1950  0.5253 -0.6239
   29CHL1   H20 3303   7.310   2.788   4.928 -0.6016  0.2934  0.1508
   29CHL1   C21 3304   7.466   2.864   5.055 -0.6452 -0.0877  0.3690
   29CHL1  H21A 3305   7.448   2.784   5.130  0.2671  1.1416  1.9610
   29CHL1  H21B 3306   7.495   2.952   5.116  1.6000 -0.4254 -0.1478
   29CHL1  H21C 3307   7.555   2.830   4.999 -1.5958  1.1293 -2.0298
   29CHL1   C22 3308   7.378   2.952   4.841 -0.1035  0.5256  0.4869
   29CHL1  H22A 3309   7.429   2.880   4.773  0.8937  1.8689 -0.2234
   29CHL1  H22B 3310   7.283   2.958   4.783 -0.1109  0.3135  0.4757
   29CHL1   C23 3311   7.442   3.086   4.844  0.0239  0.2348 -0.4247
   29CHL1  H23A 3312   7.388   3.133   4.929  0.3448 -0.8293  0.3858
   29CHL1  H23B 3313   7.547   3.085   4.880 -0.0792 -3.9588  0.2613
   29CHL1   C24 3314   7.431   3.160   4.720  0.1428 -0.5268 -0.1624
   29CHL1  H24A 3315   7.324   3.184   4.703  0.0528  0.1110  1.1854
   29CHL1  H24B 3316   7.488   3.255   4.712  2.6240 -2.0501 -2.4348
   29CHL1   C25 3317   7.473   3.090   4.592  0.1866  0.0282  0.0811
   29CHL1   H25 3318   7.428   2.990   4.575 -1.3004  0.5867  0.5629
   29CHL1   C26 3319   7.436   3.183   4.471 -0.1354 -0.2797  0.1130
   29CHL1  H26A 3320   7.496   3.276   4.489  2.0886 -1.4351 -0.9217
   29CHL1  H26B 3321   7.474   3.122   4.386  1.7882 -0.1538  0.8324
   29CHL1  H26C 3322   7.329   3.208   4.454 -0.4862 -2.3846 -1.0454
   29CHL1   C27 3323   7.621   3.055   4.596 -0.0519 -0.5262 -0.3707
   29CHL1  H27A 3324   7.663   2.999   4.509 -0.1418  0.2191 -0.8987
   29CHL1  H27B 3325   7.686   3.143   4.614  1.3920 -1.3078 -1.5520
   29CHL1  H27C 3326   7.631   2.988   4.684  3.0153  0.8186  0.3937
   30CHL1    C3 3327   2.817   3.306   5.459  0.0893 -0.7065  0.2830
   30CHL1    H3 3328   2.896   3.377   5.490 -2.0003  2.5520 -1.2777
   30CHL1    O3 3329   2.761   3.267   5.585 -0.2314  0.0204  0.4800
   30CHL1   H3' 3330   2.792   3.177   5.588 -0.4722 -0.0666  0.3921
   30CHL1    C4 3331   2.718   3.396   5.374  0.0223  0.4927  0.3521
   30CHL1   H4A 3332   2.629   3.334   5.354 -0.2136  0.6867  0.7892
   30CHL1   H4B 3333   2.670   3.476   5.434 -0.9904 -1.4649  2.2931
   30CHL1    C5 3334   2.775   3.434   5.240 -0.2355  0.6530  0.5273
   30CHL1    C6 3335   2.775   3.560   5.204 -0.1469  0.7149  0.0215
   30CHL1    H6 3336   2.726   3.629   5.274  0.2337  1.2796 -0.2585
   30CHL1    C7 3337   2.825   3.607   5.068 -0.5835  0.1809 -0.3887
   30CHL1   H7A 3338   2.748   3.671   5.021 -1.4964 -0.6300 -0.0254
   30CHL1   H7B 3339   2.910   3.672   5.100  1.1480 -1.6027 -1.1494
   30CHL1    C8 3340   2.863   3.489   4.976 -0.2611  0.0472 -0.0586
   30CHL1    H8 3341   2.762   3.457   4.941 -1.0794  3.0391 -0.6651
   30CHL1   C14 3342   2.947   3.545   4.860  0.5802  0.8627  0.4922
   30CHL1   H14 3343   3.042   3.573   4.911 -0.0988  0.8306  1.8219
   30CHL1   C15 3344   2.881   3.660   4.780 -0.2589 -0.2002  0.0682
   30CHL1  H15A 3345   2.772   3.642   4.770 -0.8270  1.9704  1.5925
   30CHL1  H15B 3346   2.889   3.757   4.835  1.2283 -0.0768 -0.3112
   30CHL1   C16 3347   2.958   3.662   4.646 -0.4040  0.1815  0.0329
   30CHL1  H16A 3348   2.891   3.654   4.558  0.8225  0.6901 -0.9730
   30CHL1  H16B 3349   3.017   3.756   4.640  1.6921 -1.0237  0.6689
   30CHL1   C17 3350   3.053   3.535   4.651  0.5885  0.4622 -0.3899
   30CHL1   H17 3351   3.144   3.573   4.702  1.3921  1.1473 -2.2266
   30CHL1   C13 3352   2.985   3.444   4.755  0.2957  0.7188  0.2627
   30CHL1   C18 3353   2.861   3.385   4.680  0.5952 -0.1299 -0.2375
   30CHL1  H18A 3354   2.810   3.458   4.613 -1.4753  0.9633  2.3428
   30CHL1  H18B 3355   2.892   3.290   4.632  0.0507 -0.1672 -0.5150
   30CHL1  H18C 3356   2.779   3.349   4.745  0.0878 -2.3382 -1.9942
   30CHL1   C12 3357   3.064   3.331   4.821  0.0020  0.5439 -0.6766
   30CHL1  H12A 3358   3.088   3.247   4.752 -2.8652 -1.3002  0.3734
   30CHL1  H12B 3359   3.161   3.364   4.865 -0.5514  1.0702  0.1723
   30CHL1   C11 3360   2.987   3.264   4.935 -0.1379  0.0617  0.5775
   30CHL1  H11A 3361   2.901   3.211   4.889  0.8498 -0.9694 -0.1330
   30CHL1  H11B 3362   3.051   3.191   4.989 -0.0693 -0.9354 -0.8087
   30CHL1    C9 3363   2.928   3.366   5.038 -0.5631 -0.4633 -0.0026
   30CHL1    H9 3364   3.018   3.407   5.089 -2.3297  2.5316  0.9632
   30CHL1   C10 3365   2.846   3.312   5.163 -0.3866  0.4661 -0.2503
   30CHL1   C19 3366   2.739   3.223   5.109  0.1529  0.2885  0.2732
   30CHL1  H19A 3367   2.674   3.278   5.036 -0.4622  1.1881  1.4556
   30CHL1  H19B 3368   2.779   3.127   5.071  0.4501 -0.9931  3.5464
   30CHL1  H19C 3369   2.675   3.187   5.192 -0.9349  0.5373 -0.4347
   30CHL1    C1 3370   2.936   3.231   5.251 -0.2605 -0.3558 -0.5931
   30CHL1   H1A 3371   2.978   3.148   5.190  0.8064  1.2408 -2.1449
   30CHL1   H1B 3372   3.019   3.298   5.282 -1.3224  0.1072  1.4032
   30CHL1    C2 3373   2.871   3.186   5.387 -0.1165 -0.2633 -0.5599
   30CHL1   H2A 3374   2.944   3.126   5.445  0.4906  0.5690 -0.4487
   30CHL1   H2B 3375   2.784   3.120   5.364  0.1640 -1.2065  0.9668
   30CHL1   C20 3376   3.091   3.478   4.514 -0.4756 -0.0969  0.1896
   30CHL1   H20 3377   3.001   3.428   4.473 -0.8549  0.0163  0.8801
   30CHL1   C21 3378   3.213   3.381   4.512  0.2778  1.2647  0.1389
   30CHL1  H21A 3379   3.191   3.291   4.573 -1.1110  2.5001  1.5544
   30CHL1  H21B 3380   3.303   3.422   4.563  2.1273 -0.0460 -1.9100
   30CHL1  H21C 3381   3.234   3.348   4.408 -1.2171  1.7153 -0.3328
   30CHL1   C22 3382   3.131   3.593   4.410 -0.0127  0.3643  0.8077
   30CHL1  H22A 3383   3.046   3.664   4.416  1.3176  2.1696 -0.3293
   30CHL1  H22B 3384   3.231   3.630   4.443  0.7223 -1.7516  1.1025
   30CHL1   C23 3385   3.139   3.563   4.258 -0.4766  0.7036 -0.1978
   30CHL1  H23A 3386   3.216   3.484   4.248 -0.5596 -0.2065  4.2492
   30CHL1  H23B 3387   3.040   3.524   4.227 -0.9647  2.0047 -0.3499
   30CHL1   C24 3388   3.173   3.687   4.166  0.0987 -0.4955 -0.3022
   30CHL1  H24A 3389   3.126   3.685   4.066 -0.4072  0.4681 -0.0943
   30CHL1  H24B 3390   3.123   3.776   4.210  1.6699  1.0327 -1.5041
   30CHL1   C25 3391   3.324   3.712   4.152 -0.5331 -0.1875  0.7649
   30CHL1   H25 3392   3.371   3.617   4.119  0.7999  0.6428  0.2087
   30CHL1   C26 3393   3.338   3.812   4.034  0.3898  0.2656  0.3564
   30CHL1  H26A 3394   3.445   3.829   4.009  0.4516  0.4874  0.7630
   30CHL1  H26B 3395   3.299   3.759   3.944  0.5653 -2.5478  1.8611
   30CHL1  H26C 3396   3.288   3.910   4.052  2.2533  1.1280  1.1299
   30CHL1   C27 3397   3.398   3.774   4.271 -0.5008  0.5206  0.2770
   30CHL1  H27A 3398   3.417   3.691   4.342 -0.6989  1.1167  1.0345
   30CHL1  H27B 3399   3.496   3.805   4.228 -0.6325 -1.1642 -1.3567
   30CHL1  H27C 3400   3.331   3.850   4.317 -0.1892  0.7025  0.4358
   31CHL1    C3 3401   0.912   3.517   5.587 -0.8504 -0.0647 -0.4133
   31CHL1    H3 3402   0.994   3.559   5.649 -1.5386  0.8838 -0.1165
   31CHL1    O3 3403   0.844   3.431   5.686 -0.3067 -0.5040 -0.5298
   31CHL1   H3' 3404   0.839   3.349   5.637  1.5141  0.2470 -2.1168
   31CHL1    C4 3405   0.819   3.626   5.529 -0.6560 -0.0776  0.3727
   31CHL1   H4A 3406   0.738   3.572   5.477  0.3382 -2.1864  0.9210
   31CHL1   H4B 3407   0.782   3.686   5.616 -2.0381 -0.8348  0.3402
   31CHL1    C5 3408   0.888   3.720   5.424  0.1969 -0.4044 -1.1725
   31CHL1    C6 3409   0.909   3.852   5.444 -0.1330 -0.9629  0.1569
   31CHL1    H6 3410   0.891   3.907   5.538  1.4409 -0.2468  0.0620
   31CHL1    C7 3411   0.967   3.943   5.336 -0.0530  0.1342 -0.0571
   31CHL1   H7A 3412   0.907   4.037   5.325 -2.1796 -0.9142  1.6991
   31CHL1   H7B 3413   1.071   3.975   5.360  1.3400 -2.2749 -2.4381
   31CHL1    C8 3414   0.973   3.869   5.197  0.1937 -0.6661 -0.8707
   31CHL1    H8 3415   0.871   3.869   5.154  0.3060 -2.5416 -1.2095
   31CHL1   C14 3416   1.074   3.939   5.105  0.2033 -0.4804 -0.6314
   31CHL1   H14 3417   1.171   3.936   5.158 -0.3047 -1.0416  0.3080
   31CHL1   C15 3418   1.040   4.090   5.084 -0.7228  0.1179 -0.5200
   31CHL1  H15A 3419   0.932   4.089   5.060 -1.2688 -2.0419  1.6347
   31CHL1  H15B 3420   1.065   4.146   5.177 -0.4238 -0.6874 -0.1073
   31CHL1   C16 3421   1.135   4.120   4.963  0.6301  0.0474 -0.2172
   31CHL1  H16A 3422   1.085   4.174   4.879  1.3844 -2.4102 -2.3796
   31CHL1  H16B 3423   1.223   4.163   5.014 -0.1792 -1.2674  2.4489
   31CHL1   C17 3424   1.184   3.980   4.909 -0.2026  0.1941  0.0397
   31CHL1   H17 3425   1.276   3.962   4.969  0.2063  0.3178 -0.5401
   31CHL1   C13 3426   1.091   3.879   4.964  0.6069  0.4183  0.6870
   31CHL1   C18 3427   0.966   3.876   4.881  0.0871  0.8338 -0.1769
   31CHL1  H18A 3428   0.946   3.981   4.850  2.0712  0.9822 -1.1153
   31CHL1  H18B 3429   0.981   3.809   4.793 -1.0922  0.8724 -0.4299
   31CHL1  H18C 3430   0.879   3.832   4.935  1.2500 -1.3037  0.0489
   31CHL1   C12 3431   1.148   3.732   4.981  0.1747 -0.3400  0.0933
   31CHL1  H12A 3432   1.161   3.681   4.883  1.7230  0.2723 -0.0487
   31CHL1  H12B 3433   1.243   3.733   5.038 -0.9101 -1.7453  2.0048
   31CHL1   C11 3434   1.053   3.653   5.074 -0.2759  0.4857 -0.0203
   31CHL1  H11A 3435   0.966   3.625   5.010 -0.9026  0.2520  0.9201
   31CHL1  H11B 3436   1.110   3.562   5.103 -0.7773  0.4441  0.8439
   31CHL1    C9 3437   1.021   3.716   5.214 -0.1625 -0.0332  0.3220
   31CHL1    H9 3438   1.120   3.729   5.263  1.3685  1.5489 -2.8634
   31CHL1   C10 3439   0.927   3.636   5.306  0.2473  1.0525  0.0748
   31CHL1   C19 3440   0.812   3.593   5.215 -0.9599  0.1929  0.1911
   31CHL1  H19A 3441   0.838   3.519   5.136  0.9973  1.5135 -0.4791
   31CHL1  H19B 3442   0.730   3.545   5.272  0.2635  1.7859  3.5220
   31CHL1  H19C 3443   0.772   3.684   5.165  1.0924  1.4799  0.7456
   31CHL1    C1 3444   1.010   3.507   5.356  0.3470  0.2067  0.2276
   31CHL1   H1A 3445   1.012   3.451   5.260 -1.4783  3.0301 -1.6175
   31CHL1   H1B 3446   1.113   3.539   5.383  0.7877 -2.2332  1.7742
   31CHL1    C2 3447   0.947   3.421   5.473 -0.3095 -0.3877 -0.2156
   31CHL1   H2A 3448   1.017   3.341   5.506  0.3227  1.2441  2.8145
   31CHL1   H2B 3449   0.854   3.364   5.452 -0.3741 -1.0203  1.6197
   31CHL1   C20 3450   1.222   4.002   4.756  0.3513 -0.1285  0.1286
   31CHL1   H20 3451   1.126   4.030   4.706  1.7770  0.3021 -2.5516
   31CHL1   C21 3452   1.263   3.860   4.702 -0.1789 -0.0717 -0.2885
   31CHL1  H21A 3453   1.347   3.823   4.764  0.7817  1.0196 -0.8762
   31CHL1  H21B 3454   1.302   3.882   4.600  2.0541  1.0760  0.7257
   31CHL1  H21C 3455   1.181   3.786   4.699  0.3715 -0.7722  1.0920
   31CHL1   C22 3456   1.328   4.112   4.738 -0.3004  0.3614  0.7941
   31CHL1  H22A 3457   1.321   4.209   4.791  0.1714  2.4501 -2.6568
   31CHL1  H22B 3458   1.422   4.062   4.770  0.0847 -0.5964 -1.5887
   31CHL1   C23 3459   1.332   4.155   4.594 -0.4197 -0.5196 -0.4934
   31CHL1  H23A 3460   1.371   4.068   4.537 -0.4526 -0.0765 -1.2111
   31CHL1  H23B 3461   1.233   4.178   4.549 -1.0249 -0.5263  0.7922
   31CHL1   C24 3462   1.432   4.266   4.571  0.9157 -0.2780  0.5083
   31CHL1  H24A 3463   1.400   4.357   4.627 -0.8674  0.6609 -1.8421
   31CHL1  H24B 3464   1.537   4.247   4.599  0.7476  0.1341  1.4562
   31CHL1   C25 3465   1.430   4.313   4.422 -0.5172  0.0944 -0.2627
   31CHL1   H25 3466   1.325   4.308   4.386 -1.0508  2.7014  0.7551
   31CHL1   C26 3467   1.473   4.461   4.401  0.2971 -0.2939 -0.0832
   31CHL1  H26A 3468   1.498   4.488   4.296 -0.6075  5.3282  0.8111
   31CHL1  H26B 3469   1.393   4.534   4.426 -1.0931 -1.3979 -1.1001
   31CHL1  H26C 3470   1.556   4.483   4.471  0.6671 -0.8878 -0.3327
   31CHL1   C27 3471   1.520   4.224   4.331  0.0206 -0.1955 -0.2761
   31CHL1  H27A 3472   1.501   4.116   4.320  1.3269 -0.4424 -0.3460
   31CHL1  H27B 3473   1.522   4.267   4.229 -0.1712  0.6846  0.0770
   31CHL1  H27C 3474   1.624   4.221   4.372  0.1147 -3.3809 -0.5633
   32CHL1    C3 3475   1.651   1.251   6.027 -0.5300 -0.1942  0.1851
   32CHL1    H3 3476   1.713   1.163   6.053 -2.0319 -1.8410 -1.5570
   32CHL1    O3 3477   1.597   1.297   6.145 -0.1267 -0.0938 -0.2291
   32CHL1   H3' 3478   1.604   1.392   6.151 -1.5369  0.0258 -0.0923
   32CHL1    C4 3479   1.733   1.366   5.963  0.2410  0.9805 -0.2254
   32CHL1   H4A 3480   1.667   1.454   5.944  1.2516  1.8715  0.2859
   32CHL1   H4B 3481   1.805   1.401   6.040 -0.2584  1.3070  0.1004
   32CHL1    C5 3482   1.789   1.320   5.831  0.2480  0.2674 -0.5851
   32CHL1    C6 3483   1.919   1.332   5.805 -0.1534 -0.5895  0.1387
   32CHL1    H6 3484   1.979   1.372   5.888 -1.6322  0.6678  0.6372
   32CHL1    C7 3485   1.978   1.300   5.664  0.2967  0.5728  0.5248
   32CHL1   H7A 3486   2.048   1.382   5.638  0.5263 -0.2458 -1.7404
   32CHL1   H7B 3487   2.039   1.208   5.676  0.1506  0.5789  1.3694
   32CHL1    C8 3488   1.872   1.278   5.555 -0.0287  0.2314  0.6291
   32CHL1    H8 3489   1.834   1.374   5.515  2.2290  0.9001 -0.0574
   32CHL1   C14 3490   1.937   1.196   5.443  0.1775  0.5501  0.1958
   32CHL1   H14 3491   1.968   1.096   5.479 -2.2981 -0.4308 -0.2261
   32CHL1   C15 3492   2.062   1.261   5.382  0.0762  0.1010 -0.5279
   32CHL1  H15A 3493   2.044   1.370   5.371 -1.2021 -0.0114  0.2422
   32CHL1  H15B 3494   2.148   1.251   5.451  0.1600 -1.2638 -0.8003
   32CHL1   C16 3495   2.076   1.192   5.244  0.2867 -0.4775 -0.4123
   32CHL1  H16A 3496   2.068   1.275   5.171  0.4749  1.3590  1.5357
   32CHL1  H16B 3497   2.179   1.151   5.236  0.7578  0.1994  1.5345
   32CHL1   C17 3498   1.950   1.100   5.226 -0.0266 -0.2678  0.2123
   32CHL1   H17 3499   1.970   0.995   5.259  1.3865 -0.0524  0.1298
   32CHL1   C13 3500   1.845   1.155   5.319 -0.0912  0.1601 -0.0391
   32CHL1   C18 3501   1.790   1.290   5.266  0.5075 -0.4590 -0.2280
   32CHL1  H18A 3502   1.714   1.348   5.324  0.4332  1.8947 -2.5086
   32CHL1  H18B 3503   1.866   1.366   5.239 -0.5179  0.7427  0.1437
   32CHL1  H18C 3504   1.737   1.256   5.175  0.8417 -1.0242 -0.2108
   32CHL1   C12 3505   1.735   1.067   5.376  0.6163  0.4477  0.2541
   32CHL1  H12A 3506   1.659   1.052   5.296  2.1731  1.1140 -1.4030
   32CHL1  H12B 3507   1.783   0.977   5.420  2.2201  1.1448  0.0035
   32CHL1   C11 3508   1.663   1.136   5.491 -0.1444  0.1022 -0.4030
   32CHL1  H11A 3509   1.594   1.219   5.463 -0.6284  1.1105  3.2732
   32CHL1  H11B 3510   1.598   1.056   5.534  0.0575  0.9596  1.5880
   32CHL1    C9 3511   1.756   1.194   5.609 -0.1935  0.4192 -0.6589
   32CHL1    H9 3512   1.811   1.103   5.644 -1.7489 -1.3376 -2.4892
   32CHL1   C10 3513   1.681   1.264   5.731  0.0046 -0.1443 -0.8436
   32CHL1   C19 3514   1.595   1.381   5.680  0.7438  0.0288 -0.0672
   32CHL1  H19A 3515   1.668   1.452   5.636  2.1285 -1.9781 -1.1515
   32CHL1  H19B 3516   1.521   1.335   5.611 -0.4423  0.3317  0.9503
   32CHL1  H19C 3517   1.532   1.426   5.761 -1.4636  0.9603 -2.1654
   32CHL1    C1 3518   1.594   1.159   5.806 -0.3215 -0.8775 -0.1283
   32CHL1   H1A 3519   1.518   1.122   5.735  1.0184 -0.9874 -1.5649
   32CHL1   H1B 3520   1.659   1.070   5.826  0.7343 -0.1774 -0.3354
   32CHL1    C2 3521   1.541   1.203   5.932 -0.0740  0.0362 -0.3805
   32CHL1   H2A 3522   1.487   1.125   5.989  1.3934 -0.7984 -0.0768
   32CHL1   H2B 3523   1.457   1.274   5.917  1.2271  1.4181 -1.4574
   32CHL1   C20 3524   1.929   1.093   5.067  0.1673 -0.3917  0.1015
   32CHL1   H20 3525   1.903   1.193   5.027 -3.3840 -1.6784 -1.1464
   32CHL1   C21 3526   1.795   1.020   5.028  0.3066  0.4529  0.2478
   32CHL1  H21A 3527   1.709   1.034   5.097  1.2567 -0.9553  1.8004
   32CHL1  H21B 3528   1.830   0.915   5.036  1.5964  0.9354  1.4163
   32CHL1  H21C 3529   1.754   1.024   4.925 -1.3752  2.4081  0.9281
   32CHL1   C22 3530   2.051   1.035   4.991  0.1998 -0.2872  0.2144
   32CHL1  H22A 3531   2.050   1.035   4.880  1.4798  0.4078  0.1763
   32CHL1  H22B 3532   2.131   1.111   5.010 -1.1932  1.1386  0.5717
   32CHL1   C23 3533   2.119   0.897   5.016  0.6284  0.0946 -0.5756
   32CHL1  H23A 3534   2.137   0.882   5.124  0.1337 -0.3418 -0.5490
   32CHL1  H23B 3535   2.053   0.820   4.971  0.8303 -1.0934  1.0598
   32CHL1   C24 3536   2.273   0.900   4.974  1.2674  0.1673 -0.1329
   32CHL1  H24A 3537   2.270   0.927   4.866 -0.1396 -1.9880 -0.6826
   32CHL1  H24B 3538   2.325   0.986   5.022  1.1937  1.7250 -2.6776
   32CHL1   C25 3539   2.343   0.765   4.995  0.5904 -0.4423 -0.1661
   32CHL1   H25 3540   2.286   0.720   5.079 -0.2366  0.1745 -0.3739
   32CHL1   C26 3541   2.340   0.670   4.878  0.2758  0.1982 -0.2463
   32CHL1  H26A 3542   2.378   0.575   4.920  0.3000 -0.0748 -0.8792
   32CHL1  H26B 3543   2.231   0.653   4.866  0.5531 -0.9826 -1.3051
   32CHL1  H26C 3544   2.392   0.688   4.782  0.1064  0.5842 -0.2700
   32CHL1   C27 3545   2.483   0.784   5.039  0.1237 -0.5768 -0.6204
   32CHL1  H27A 3546   2.490   0.866   5.114 -2.3498 -2.1341  1.4949
   32CHL1  H27B 3547   2.516   0.690   5.089  0.6540 -2.0493 -3.5598
   32CHL1  H27C 3548   2.550   0.815   4.956  0.6888  1.5878  0.5747
   33CHL1    C3 3549   6.632   2.104   5.503 -0.0908  0.5992 -0.8289
   33CHL1    H3 3550   6.645   2.213   5.488 -0.1878  0.7037 -0.1867
   33CHL1    O3 3551   6.600   2.074   5.646 -0.3544  0.3227  0.8971
   33CHL1   H3' 3552   6.531   2.135   5.673 -2.1739 -0.7484 -0.9683
   33CHL1    C4 3553   6.514   2.046   5.422 -0.0589  0.3402  0.0660
   33CHL1   H4A 3554   6.486   1.943   5.452 -2.7954  0.7998 -0.6319
   33CHL1   H4B 3555   6.424   2.099   5.460 -1.1420 -1.3340 -0.0641
   33CHL1    C5 3556   6.537   2.058   5.272 -0.2552  0.8513 -0.3246
   33CHL1    C6 3557   6.450   2.118   5.195  0.7694  0.3718 -0.2007
   33CHL1    H6 3558   6.367   2.178   5.236  1.4535  2.2591 -1.4560
   33CHL1    C7 3559   6.453   2.120   5.047  0.4213 -0.5644 -0.4186
   33CHL1   H7A 3560   6.353   2.110   4.998  0.2540  1.2812 -0.5115
   33CHL1   H7B 3561   6.489   2.223   5.026  0.3985 -0.1399  1.4922
   33CHL1    C8 3562   6.557   2.023   4.983 -0.6945  0.2993 -0.1635
   33CHL1    H8 3563   6.500   1.929   4.966 -0.3210  0.4136 -2.3844
   33CHL1   C14 3564   6.592   2.070   4.844 -0.0418  0.3488 -0.7084
   33CHL1   H14 3565   6.637   2.169   4.864  0.2632  0.1777 -0.5390
   33CHL1   C15 3566   6.474   2.100   4.745 -0.7075  0.1618 -0.3176
   33CHL1  H15A 3567   6.407   2.012   4.753 -0.7343  0.2921  1.0658
   33CHL1  H15B 3568   6.433   2.201   4.769  0.3772  0.0188  2.5448
   33CHL1   C16 3569   6.542   2.104   4.608 -0.0930  0.2366 -0.1198
   33CHL1  H16A 3570   6.469   2.041   4.553  0.0846 -0.3182  0.2642
   33CHL1  H16B 3571   6.542   2.206   4.566 -0.5910  0.1547 -0.3259
   33CHL1   C17 3572   6.692   2.068   4.630 -0.1747 -0.1450 -0.5138
   33CHL1   H17 3573   6.754   2.156   4.657 -0.8163  0.3377 -0.5812
   33CHL1   C13 3574   6.688   1.984   4.765  0.0967  0.2403 -0.4822
   33CHL1   C18 3575   6.630   1.844   4.732 -0.3215  0.3763  0.3203
   33CHL1  H18A 3576   6.549   1.843   4.656  0.2452 -1.2510 -0.3120
   33CHL1  H18B 3577   6.707   1.784   4.678  0.7225  1.4474  0.5586
   33CHL1  H18C 3578   6.606   1.794   4.828  6.1220  0.5733  2.5533
   33CHL1   C12 3579   6.820   1.977   4.852  0.3385  0.0375  1.3459
   33CHL1  H12A 3580   6.897   1.911   4.806  0.5999  1.8562 -1.0035
   33CHL1  H12B 3581   6.863   2.079   4.853 -0.6037  0.4789 -0.3836
   33CHL1   C11 3582   6.790   1.916   4.993  0.2838 -0.2901  0.3515
   33CHL1  H11A 3583   6.763   1.809   4.980  0.1819 -0.4511  1.6857
   33CHL1  H11B 3584   6.885   1.925   5.050  0.5655 -0.8969 -0.0084
   33CHL1    C9 3585   6.686   2.008   5.068  0.0870  0.0750  0.1889
   33CHL1    H9 3586   6.742   2.104   5.074  0.0707  0.0532  0.7768
   33CHL1   C10 3587   6.668   1.976   5.222  0.3917 -0.3893 -0.9455
   33CHL1   C19 3588   6.641   1.823   5.249 -0.8601 -0.4988 -0.5449
   33CHL1  H19A 3589   6.732   1.770   5.213 -0.5988  0.3790 -1.2071
   33CHL1  H19B 3590   6.618   1.814   5.357  0.8903 -1.5485 -0.2195
   33CHL1  H19C 3591   6.560   1.799   5.177  2.1207  0.3580 -4.5560
   33CHL1    C1 3592   6.785   2.032   5.305 -0.4502 -0.0094 -0.1929
   33CHL1   H1A 3593   6.874   1.969   5.285 -0.3875  0.9053 -3.3930
   33CHL1   H1B 3594   6.827   2.128   5.268  1.2410 -0.5548  0.2225
   33CHL1    C2 3595   6.760   2.028   5.459  0.5706 -0.2798  0.1415
   33CHL1   H2A 3596   6.851   2.069   5.507  0.1236  1.8714 -0.7386
   33CHL1   H2B 3597   6.733   1.929   5.502  0.4652 -0.4645 -0.3351
   33CHL1   C20 3598   6.754   2.015   4.497  0.1015  0.4304 -0.2199
   33CHL1   H20 3599   6.718   1.913   4.474  3.1791 -0.4962 -1.5390
   33CHL1   C21 3600   6.913   2.002   4.511  0.1431  0.0057 -0.0159
   33CHL1  H21A 3601   6.951   1.953   4.419  0.0033  0.7585 -0.4876
   33CHL1  H21B 3602   6.953   1.938   4.592 -0.8953 -1.0510 -0.3191
   33CHL1  H21C 3603   6.946   2.108   4.520  1.3254 -0.5321  3.0323
   33CHL1   C22 3604   6.716   2.103   4.377 -0.6932 -0.4866  0.0556
   33CHL1  H22A 3605   6.607   2.096   4.354 -0.7113 -4.2786  0.7347
   33CHL1  H22B 3606   6.744   2.210   4.390 -1.3211 -0.4001  0.7737
   33CHL1   C23 3607   6.769   2.066   4.233 -0.3427 -0.0737 -0.9589
   33CHL1  H23A 3608   6.709   2.134   4.168 -3.0016  0.1017  1.4940
   33CHL1  H23B 3609   6.876   2.095   4.224 -0.7425  1.8256 -0.1081
   33CHL1   C24 3610   6.751   1.919   4.196  0.4465  0.2059  0.0785
   33CHL1  H24A 3611   6.787   1.901   4.093 -1.6729  1.0459 -0.8844
   33CHL1  H24B 3612   6.805   1.854   4.268 -1.1072 -0.1127  1.0091
   33CHL1   C25 3613   6.608   1.862   4.185 -0.1609 -0.2768 -0.1747
   33CHL1   H25 3614   6.548   1.891   4.274 -0.4648  2.4566 -1.1599
   33CHL1   C26 3615   6.530   1.928   4.071  0.1660 -0.5895 -0.0386
   33CHL1  H26A 3616   6.521   2.037   4.088  1.9919 -0.6458  1.7600
   33CHL1  H26B 3617   6.574   1.905   3.972  1.5410  1.0087  0.1490
   33CHL1  H26C 3618   6.431   1.883   4.052 -0.3194  0.5814 -0.3227
   33CHL1   C27 3619   6.604   1.707   4.177  0.5148 -0.0727 -0.2570
   33CHL1  H27A 3620   6.497   1.677   4.174  0.9186 -1.9836  1.7298
   33CHL1  H27B 3621   6.662   1.676   4.088  0.0292  0.2262 -0.6884
   33CHL1  H27C 3622   6.644   1.656   4.267  2.1923 -2.6253 -2.3198
   34CHL1    C3 3623   1.231   3.284   5.779  0.0902  0.1632 -0.5498
   34CHL1    H3 3624   1.133   3.318   5.740  0.4887  2.0273 -0.0478
   34CHL1    O3 3625   1.220   3.261   5.920  0.1767  0.1676  0.3189
   34CHL1   H3' 3626   1.311   3.236   5.936  0.5257  1.2779  0.2168
   34CHL1    C4 3627   1.279   3.157   5.705  0.1510  0.6074 -0.2420
   34CHL1   H4A 3628   1.370   3.107   5.744  0.3070  0.3135 -0.9792
   34CHL1   H4B 3629   1.198   3.086   5.732 -0.2872  0.7424 -1.1732
   34CHL1    C5 3630   1.292   3.185   5.551  0.3443  0.0617  0.2550
   34CHL1    C6 3631   1.222   3.121   5.459  0.5249 -0.1892 -0.1175
   34CHL1    H6 3632   1.159   3.036   5.488  1.2539  0.2998  3.2151
   34CHL1    C7 3633   1.233   3.144   5.312  0.3693 -0.4987 -0.3172
   34CHL1   H7A 3634   1.221   3.054   5.248  0.4324 -0.2762 -0.6439
   34CHL1   H7B 3635   1.141   3.199   5.282  0.3698 -0.2575  0.1109
   34CHL1    C8 3636   1.359   3.224   5.271  0.4770  0.4054  0.5038
   34CHL1    H8 3637   1.441   3.150   5.272 -1.3659 -1.7371  2.0364
   34CHL1   C14 3638   1.344   3.287   5.134  0.0512 -0.2633  0.5286
   34CHL1   H14 3639   1.253   3.349   5.146  0.8429  1.4934 -1.5826
   34CHL1   C15 3640   1.299   3.200   5.023 -0.2813 -0.0270  0.3204
   34CHL1  H15A 3641   1.371   3.117   5.006 -0.8839 -0.2889 -1.1838
   34CHL1  H15B 3642   1.201   3.148   5.037 -0.9620  0.0422 -3.1880
   34CHL1   C16 3643   1.324   3.283   4.898 -0.0556  0.2324  0.3068
   34CHL1  H16A 3644   1.382   3.221   4.827  0.0952  0.6314  0.0783
   34CHL1  H16B 3645   1.232   3.325   4.853 -0.5626 -0.8611  0.3081
   34CHL1   C17 3646   1.410   3.412   4.936  0.3556  0.1872 -0.1285
   34CHL1   H17 3647   1.341   3.498   4.947 -1.4484 -0.9390 -1.7908
   34CHL1   C13 3648   1.455   3.377   5.082  0.3493  0.1806 -0.0332
   34CHL1   C18 3649   1.576   3.284   5.063  0.1147 -0.0384  0.3193
   34CHL1  H18A 3650   1.569   3.210   4.980 -0.8054  0.5677 -0.1617
   34CHL1  H18B 3651   1.668   3.342   5.039  0.6703 -0.6836  0.8612
   34CHL1  H18C 3652   1.606   3.230   5.155 -1.1638 -1.2530  0.0578
   34CHL1   C12 3653   1.485   3.491   5.182  0.7440  0.2510  0.0301
   34CHL1  H12A 3654   1.571   3.553   5.149  1.0327 -0.1486  0.0317
   34CHL1  H12B 3655   1.398   3.561   5.184  0.1972 -0.4248  0.1239
   34CHL1   C11 3656   1.507   3.439   5.323  0.3898  0.6512 -0.3330
   34CHL1  H11A 3657   1.600   3.377   5.322 -0.4578 -0.7031 -2.0868
   34CHL1  H11B 3658   1.517   3.532   5.382  0.7416  0.3644  0.0675
   34CHL1    C9 3659   1.387   3.346   5.361 -0.2573 -0.3947 -0.5125
   34CHL1    H9 3660   1.292   3.404   5.352  0.5349  1.1052  0.3480
   34CHL1   C10 3661   1.380   3.311   5.516  0.1364  0.1149 -0.4124
   34CHL1   C19 3662   1.513   3.261   5.557  0.8595  0.4708 -0.0473
   34CHL1  H19A 3663   1.594   3.336   5.538  0.6161  0.1477 -2.8531
   34CHL1  H19B 3664   1.505   3.238   5.665  0.4964 -1.9076 -0.5320
   34CHL1  H19C 3665   1.544   3.172   5.498 -0.3940  0.9581 -1.5124
   34CHL1    C1 3666   1.337   3.432   5.598 -0.5263 -0.1110  0.0686
   34CHL1   H1A 3667   1.407   3.518   5.585 -0.3484 -0.3995 -0.9549
   34CHL1   H1B 3668   1.235   3.454   5.561 -0.5951 -1.3419 -0.5183
   34CHL1    C2 3669   1.327   3.406   5.752  0.0856 -0.4983  0.5759
   34CHL1   H2A 3670   1.271   3.490   5.799 -0.6297  1.5945 -3.6256
   34CHL1   H2B 3671   1.427   3.396   5.799  0.5436  1.5122  0.1206
   34CHL1   C20 3672   1.508   3.449   4.833 -0.1564 -0.4553 -0.7742
   34CHL1   H20 3673   1.581   3.370   4.806 -0.9857 -0.7242 -2.3278
   34CHL1   C21 3674   1.596   3.568   4.886 -0.3087  0.2583 -1.3104
   34CHL1  H21A 3675   1.523   3.649   4.907 -1.4475 -0.6471 -1.6649
   34CHL1  H21B 3676   1.662   3.613   4.809  0.7795  0.4648 -0.2771
   34CHL1  H21C 3677   1.658   3.539   4.974 -0.5986  1.4748 -0.6899
   34CHL1   C22 3678   1.445   3.490   4.704 -0.1804  0.1334  0.4095
   34CHL1  H22A 3679   1.345   3.441   4.696 -1.3226  2.0732  2.0078
   34CHL1  H22B 3680   1.439   3.601   4.703 -0.3229  0.1271 -0.2839
   34CHL1   C23 3681   1.523   3.447   4.572  0.5386  0.2014  0.1725
   34CHL1  H23A 3682   1.625   3.490   4.578  0.6158  0.2660 -1.2428
   34CHL1  H23B 3683   1.529   3.337   4.577  1.1564  0.0318 -2.6968
   34CHL1   C24 3684   1.439   3.488   4.443 -0.3306 -0.0556  0.1403
   34CHL1  H24A 3685   1.339   3.440   4.451 -0.2785 -0.0644  0.7574
   34CHL1  H24B 3686   1.424   3.597   4.458  1.3989  0.3247 -0.6093
   34CHL1   C25 3687   1.502   3.463   4.299 -0.3470  0.0499 -0.7383
   34CHL1   H25 3688   1.608   3.490   4.319 -1.1552  0.9735  3.1626
   34CHL1   C26 3689   1.509   3.316   4.260  0.4679  0.3224  0.3035
   34CHL1  H26A 3690   1.568   3.295   4.169  0.9801  0.9460  0.4911
   34CHL1  H26B 3691   1.552   3.251   4.340 -1.0164 -2.0223 -0.6844
   34CHL1  H26C 3692   1.405   3.277   4.249  0.3263  1.3607 -2.9865
   34CHL1   C27 3693   1.446   3.561   4.205  0.2480  0.0321 -0.5726
   34CHL1  H27A 3694   1.442   3.663   4.248  0.7144  0.1556 -0.8118
   34CHL1  H27B 3695   1.506   3.553   4.112 -0.2709 -0.4599 -0.8710
   34CHL1  H27C 3696   1.342   3.538   4.173 -0.7867  0.2664  2.3012
   35CHL1    C3 3697   1.881   6.319   6.272  0.4558  0.3814 -0.4165
   35CHL1    H3 3698   1.883   6.430   6.273 -1.7277  0.4673  1.2447
   35CHL1    O3 3699   1.845   6.277   6.408 -0.0066 -0.0490  0.4252
   35CHL1   H3' 3700   1.911   6.310   6.470  2.2810  0.2389 -2.0087
   35CHL1    C4 3701   1.779   6.277   6.169  0.5008 -0.6725 -0.3876
   35CHL1   H4A 3702   1.771   6.166   6.162  0.8438 -0.6396 -1.3714
   35CHL1   H4B 3703   1.679   6.312   6.201 -0.9324 -3.3878 -1.5515
   35CHL1    C5 3704   1.816   6.320   6.030 -0.2399  0.1101  0.4079
   35CHL1    C6 3705   1.726   6.385   5.956  0.1770 -0.7926 -0.4880
   35CHL1    H6 3706   1.626   6.390   6.001  0.5619  0.4392  0.2597
   35CHL1    C7 3707   1.740   6.434   5.816 -0.7180  0.4639 -0.5970
   35CHL1   H7A 3708   1.650   6.400   5.761 -1.8640 -0.2417  1.6113
   35CHL1   H7B 3709   1.735   6.545   5.818  0.2541  0.5074  0.7864
   35CHL1    C8 3710   1.869   6.386   5.754  0.2574  0.3644 -0.1442
   35CHL1    H8 3711   1.851   6.280   5.727 -0.8221 -0.4586  3.2600
   35CHL1   C14 3712   1.907   6.466   5.631 -1.2517  0.3088  0.6125
   35CHL1   H14 3713   1.916   6.571   5.666  0.4563  0.5056 -0.3611
   35CHL1   C15 3714   1.796   6.490   5.521  0.3955 -0.5478 -0.0619
   35CHL1  H15A 3715   1.732   6.402   5.499 -1.0989  0.5318 -0.1996
   35CHL1  H15B 3716   1.739   6.580   5.553  1.3944  0.2891 -0.5572
   35CHL1   C16 3717   1.882   6.529   5.398  0.0098 -0.3907 -0.5085
   35CHL1  H16A 3718   1.865   6.444   5.328 -0.0604 -0.2183 -0.7037
   35CHL1  H16B 3719   1.841   6.617   5.344 -1.2804 -0.2846  0.5874
   35CHL1   C17 3720   2.027   6.530   5.444 -0.3736  0.0581 -0.1548
   35CHL1   H17 3721   2.045   6.633   5.482  1.5671 -0.3700  0.2208
   35CHL1   C13 3722   2.034   6.433   5.569 -0.7247 -0.7825  0.0434
   35CHL1   C18 3723   2.030   6.285   5.522  0.5520  0.0100 -0.6466
   35CHL1  H18A 3724   2.120   6.250   5.467  1.3737 -0.8664  1.1668
   35CHL1  H18B 3725   2.019   6.216   5.609  0.6011  0.9843  0.1565
   35CHL1  H18C 3726   1.946   6.267   5.451  0.3564 -2.4279  0.0809
   35CHL1   C12 3727   2.154   6.458   5.664  0.6446  0.8447 -0.5954
   35CHL1  H12A 3728   2.247   6.421   5.617 -0.0623 -0.5433 -0.9687
   35CHL1  H12B 3729   2.154   6.567   5.683 -0.7722  0.6860  0.5452
   35CHL1   C11 3730   2.126   6.374   5.795  0.6250 -0.1776  0.0705
   35CHL1  H11A 3731   2.138   6.265   5.783  2.5934 -0.3927  2.8499
   35CHL1  H11B 3732   2.201   6.404   5.872  0.7401  0.6233 -0.3410
   35CHL1    C9 3733   1.983   6.386   5.857 -1.1021  0.0481  0.0267
   35CHL1    H9 3734   1.979   6.487   5.903 -0.2666  0.7794 -1.4498
   35CHL1   C10 3735   1.957   6.295   5.983 -0.0412  0.7183  0.7028
   35CHL1   C19 3736   1.977   6.149   5.948  0.5422  0.2511 -0.6610
   35CHL1  H19A 3737   1.945   6.107   6.046  0.3670  1.5827 -0.1172
   35CHL1  H19B 3738   1.918   6.098   5.870 -1.1897 -0.6309  1.1451
   35CHL1  H19C 3739   2.082   6.126   5.921  0.4535 -2.3854  0.9198
   35CHL1    C1 3740   2.061   6.325   6.090  0.4583 -0.6483 -0.1579
   35CHL1   H1A 3741   2.157   6.274   6.068 -0.2862 -1.9854 -0.4585
   35CHL1   H1B 3742   2.081   6.434   6.093 -1.1666 -0.3071 -0.5123
   35CHL1    C2 3743   2.018   6.271   6.236 -1.1110  0.6202 -0.0166
   35CHL1   H2A 3744   2.088   6.321   6.307  0.0650 -0.8224 -0.1163
   35CHL1   H2B 3745   2.033   6.162   6.227  1.0762  1.0342 -3.4869
   35CHL1   C20 3746   2.146   6.506   5.341  0.4291 -0.4292 -0.4277
   35CHL1   H20 3747   2.214   6.431   5.388 -0.9274 -0.1534  2.1739
   35CHL1   C21 3748   2.223   6.639   5.329 -0.7973 -0.1101 -0.6281
   35CHL1  H21A 3749   2.251   6.669   5.432  0.5512 -2.3105 -0.2944
   35CHL1  H21B 3750   2.151   6.711   5.284  0.7389  2.0433  0.1875
   35CHL1  H21C 3751   2.319   6.630   5.274  0.5052  0.3083  1.4477
   35CHL1   C22 3752   2.108   6.442   5.207 -0.6254 -0.3150 -0.3553
   35CHL1  H22A 3753   2.195   6.386   5.167  0.8671  3.0879 -2.3370
   35CHL1  H22B 3754   2.052   6.353   5.243  2.0366 -1.6701  0.7540
   35CHL1   C23 3755   2.043   6.526   5.099 -0.1612  0.7359 -0.4984
   35CHL1  H23A 3756   1.974   6.595   5.152 -0.0857 -0.1241  0.7707
   35CHL1  H23B 3757   2.114   6.600   5.056  1.5833 -2.3168 -3.2928
   35CHL1   C24 3758   1.960   6.447   4.997 -0.2190 -0.2886 -0.8273
   35CHL1  H24A 3759   1.925   6.350   5.037  0.5952 -0.8301 -1.4214
   35CHL1  H24B 3760   1.864   6.499   4.976 -1.4091 -2.7450 -1.8454
   35CHL1   C25 3761   2.031   6.429   4.863 -0.1614  0.8038  0.6159
   35CHL1   H25 3762   2.059   6.531   4.829  0.0716  0.7981  0.7857
   35CHL1   C26 3763   2.170   6.359   4.890  0.1308 -0.5155  0.0133
   35CHL1  H26A 3764   2.236   6.424   4.951 -1.3246 -0.7797  1.9743
   35CHL1  H26B 3765   2.141   6.265   4.943 -0.8663 -1.0237 -1.3706
   35CHL1  H26C 3766   2.218   6.315   4.800  0.1973 -0.5961  0.0876
   35CHL1   C27 3767   1.949   6.359   4.758 -0.1127  0.1719 -0.2638
   35CHL1  H27A 3768   1.935   6.254   4.790  1.2570 -0.2498 -0.9849
   35CHL1  H27B 3769   1.847   6.403   4.753 -0.7504 -0.9993  1.5719
   35CHL1  H27C 3770   1.997   6.363   4.658  0.4629  0.7712  0.0263
   36CHL1    C3 3771   5.453   1.113   6.176 -1.0274  0.0697  0.5300
   36CHL1    H3 3772   5.503   1.018   6.145 -1.7180 -0.1840  0.1521
   36CHL1    O3 3773   5.454   1.121   6.317  0.5475  0.5530 -0.3874
   36CHL1   H3' 3774   5.392   1.190   6.344 -1.2609 -0.8980 -0.6324
   36CHL1    C4 3775   5.536   1.237   6.130 -0.3318 -0.8637  0.3640
   36CHL1   H4A 3776   5.491   1.333   6.164  0.2913 -0.0492 -1.0247
   36CHL1   H4B 3777   5.639   1.229   6.171  0.3315  2.0408 -0.4688
   36CHL1    C5 3778   5.537   1.251   5.978  0.2740  0.0660 -0.0413
   36CHL1    C6 3779   5.646   1.257   5.911 -0.6459  0.6094  0.1826
   36CHL1    H6 3780   5.744   1.243   5.959 -0.5773  1.6044  0.3562
   36CHL1    C7 3781   5.656   1.277   5.759  0.7179  0.2352  0.1382
   36CHL1   H7A 3782   5.722   1.365   5.749 -0.1773  1.0167  0.8609
   36CHL1   H7B 3783   5.700   1.186   5.714  0.6739 -0.7941  2.0616
   36CHL1    C8 3784   5.513   1.315   5.693  0.3283 -0.8411  0.7439
   36CHL1    H8 3785   5.489   1.420   5.717  0.6870 -0.5360 -0.1858
   36CHL1   C14 3786   5.526   1.274   5.542  0.3148 -0.1917 -0.2835
   36CHL1   H14 3787   5.561   1.169   5.535 -0.5365 -0.5488  0.5384
   36CHL1   C15 3788   5.634   1.345   5.450 -0.5099 -0.0486 -0.9735
   36CHL1  H15A 3789   5.616   1.455   5.451 -1.4699 -0.1741 -2.3366
   36CHL1  H15B 3790   5.738   1.311   5.470  0.2903  2.4996 -0.3440
   36CHL1   C16 3791   5.591   1.296   5.315 -0.3020  0.3572 -0.1555
   36CHL1  H16A 3792   5.612   1.372   5.237  0.6470  1.4535  1.1340
   36CHL1  H16B 3793   5.655   1.208   5.294 -0.2602  0.0662  1.0902
   36CHL1   C17 3794   5.440   1.247   5.321 -0.2776 -0.1578 -0.1645
   36CHL1   H17 3795   5.450   1.137   5.325  3.3848  0.0203 -0.7954
   36CHL1   C13 3796   5.394   1.289   5.472 -0.0546  0.2906  0.3391
   36CHL1   C18 3797   5.353   1.446   5.470  0.2425  0.2530 -0.0155
   36CHL1  H18A 3798   5.339   1.487   5.572  0.2980  2.6281 -0.8972
   36CHL1  H18B 3799   5.438   1.507   5.434  0.3076 -0.2162 -0.6779
   36CHL1  H18C 3800   5.258   1.460   5.415 -0.0274  0.2322  0.4399
   36CHL1   C12 3801   5.290   1.198   5.531  0.4789 -0.0801  0.7513
   36CHL1  H12A 3802   5.194   1.209   5.477  0.9593  1.6757  0.1934
   36CHL1  H12B 3803   5.321   1.091   5.526  0.6499 -0.1110  1.9688
   36CHL1   C11 3804   5.271   1.233   5.681 -0.3561 -1.2223  0.4936
   36CHL1  H11A 3805   5.212   1.328   5.683 -2.3801 -2.3618 -0.9651
   36CHL1  H11B 3806   5.204   1.158   5.728 -0.2612 -0.7210  1.4517
   36CHL1    C9 3807   5.404   1.226   5.757  0.0206  0.2087  0.0301
   36CHL1    H9 3808   5.446   1.124   5.742 -1.2332 -0.2796 -0.2585
   36CHL1   C10 3809   5.396   1.251   5.915 -0.1953 -0.0156 -0.0428
   36CHL1   C19 3810   5.312   1.377   5.939 -0.4050  0.1639 -0.3636
   36CHL1  H19A 3811   5.295   1.390   6.048 -1.3746 -1.2362 -0.3273
   36CHL1  H19B 3812   5.359   1.467   5.895  0.1580 -0.6281 -1.4275
   36CHL1  H19C 3813   5.209   1.375   5.899  0.3993 -0.2851 -2.5331
   36CHL1    C1 3814   5.328   1.128   5.983 -0.1213 -0.5944  0.0827
   36CHL1   H1A 3815   5.226   1.127   5.938 -0.6639  0.6470  1.2328
   36CHL1   H1B 3816   5.376   1.038   5.937 -1.8876 -2.2186  1.2667
   36CHL1    C2 3817   5.313   1.128   6.132 -0.3024 -0.1652  0.0040
   36CHL1   H2A 3818   5.255   1.035   6.154 -0.0411 -0.7963 -1.7287
   36CHL1   H2B 3819   5.256   1.216   6.169 -2.0831 -0.6652 -1.3793
   36CHL1   C20 3820   5.342   1.283   5.210 -0.1576  0.3612 -0.1185
   36CHL1   H20 3821   5.307   1.387   5.222  0.5161  0.6014 -0.2220
   36CHL1   C21 3822   5.220   1.199   5.216  0.4550 -0.2581 -0.2289
   36CHL1  H21A 3823   5.240   1.091   5.234 -1.6609 -0.8962 -1.3497
   36CHL1  H21B 3824   5.170   1.208   5.118  0.7659  1.1120 -0.2737
   36CHL1  H21C 3825   5.153   1.241   5.294  0.5109  1.8172 -1.2316
   36CHL1   C22 3826   5.410   1.281   5.068  0.1459 -0.7089 -0.4408
   36CHL1  H22A 3827   5.337   1.338   5.007  0.2712 -1.9957 -1.8591
   36CHL1  H22B 3828   5.504   1.339   5.065 -0.8518  0.9615 -2.8079
   36CHL1   C23 3829   5.438   1.152   4.998 -0.3666 -0.5058 -0.3306
   36CHL1  H23A 3830   5.503   1.096   5.068 -0.7049  1.0099  1.2336
   36CHL1  H23B 3831   5.351   1.083   4.992  0.3102 -1.3670 -0.4706
   36CHL1   C24 3832   5.495   1.162   4.856  0.7750  0.1376 -0.3079
   36CHL1  H24A 3833   5.501   1.068   4.798 -1.4573  0.0106 -0.4510
   36CHL1  H24B 3834   5.416   1.220   4.802  0.4837 -1.7588 -2.0220
   36CHL1   C25 3835   5.627   1.232   4.831 -0.2629  0.0777  1.0732
   36CHL1   H25 3836   5.627   1.332   4.880 -0.1096  1.1363 -0.9568
   36CHL1   C26 3837   5.746   1.155   4.881  0.0418  0.1270  0.0311
   36CHL1  H26A 3838   5.742   1.142   4.991 -0.4565  0.3222  0.0371
   36CHL1  H26B 3839   5.745   1.056   4.829  1.7726  2.0753 -4.2018
   36CHL1  H26C 3840   5.843   1.202   4.855  1.0651 -0.8186  1.9162
   36CHL1   C27 3841   5.640   1.266   4.686 -0.5731 -0.2928  0.1806
   36CHL1  H27A 3842   5.644   1.170   4.630  0.4959  0.4097 -1.0077
   36CHL1  H27B 3843   5.551   1.325   4.654  0.0998  0.7259  0.1330
   36CHL1  H27C 3844   5.729   1.322   4.651 -1.0968  0.6303  0.2798
   37CHL1    C3 3845   6.190   5.873   5.924  0.0649  0.0879  0.7875
   37CHL1    H3 3846   6.206   5.982   5.905 -0.6147 -0.1948 -1.6523
   37CHL1    O3 3847   6.182   5.838   6.061  0.0388 -0.1872 -0.7873
   37CHL1   H3' 3848   6.194   5.743   6.066  1.4737  0.0331  1.6743
   37CHL1    C4 3849   6.068   5.814   5.854  0.6910  0.0030  0.4506
   37CHL1   H4A 3850   6.065   5.704   5.868  0.1868 -0.3032 -1.7645
   37CHL1   H4B 3851   5.984   5.856   5.914 -0.5266 -0.3989 -0.9219
   37CHL1    C5 3852   6.069   5.835   5.707 -0.2930  0.2612  0.7068
   37CHL1    C6 3853   5.982   5.907   5.644  0.0582 -0.5825  0.7081
   37CHL1    H6 3854   5.901   5.950   5.705 -1.3903 -2.5098  0.2529
   37CHL1    C7 3855   5.979   5.923   5.490 -0.2046 -0.3814  0.0336
   37CHL1   H7A 3856   5.880   5.925   5.439 -0.0506 -0.6451 -0.2757
   37CHL1   H7B 3857   6.025   6.024   5.488 -0.8110 -0.0693  0.8819
   37CHL1    C8 3858   6.078   5.836   5.423 -0.6203 -0.3349  0.4782
   37CHL1    H8 3859   6.033   5.735   5.416 -2.1204  0.3595 -0.6371
   37CHL1   C14 3860   6.101   5.892   5.283 -0.5215  0.0581  0.1334
   37CHL1   H14 3861   6.135   5.995   5.307  0.0582 -0.5221  2.0349
   37CHL1   C15 3862   5.980   5.910   5.193  0.5185 -0.0452  0.7729
   37CHL1  H15A 3863   5.901   5.835   5.215  1.0362 -0.2312  2.0956
   37CHL1  H15B 3864   5.939   6.010   5.219  0.5384 -0.5102  2.7246
   37CHL1   C16 3865   6.033   5.914   5.052 -0.8797  0.1903  0.1338
   37CHL1  H16A 3866   5.985   5.831   4.996  0.9832 -1.2830  0.5800
   37CHL1  H16B 3867   6.012   6.006   4.994 -1.7984 -0.5607 -0.7715
   37CHL1   C17 3868   6.188   5.899   5.062  0.0931  0.3276 -0.1786
   37CHL1   H17 3869   6.231   5.995   5.096  0.0577  0.0649  0.6394
   37CHL1   C13 3870   6.203   5.821   5.200 -0.1279  0.6394  0.8371
   37CHL1   C18 3871   6.162   5.667   5.173 -0.3653 -0.2484  0.1564
   37CHL1  H18A 3872   6.153   5.606   5.266 -1.6402  0.6188  0.6190
   37CHL1  H18B 3873   6.064   5.658   5.122 -0.1333  0.7029 -0.4785
   37CHL1  H18C 3874   6.235   5.614   5.107  0.4867  1.2959 -0.1855
   37CHL1   C12 3875   6.337   5.842   5.266 -0.1282 -0.5249 -0.7778
   37CHL1  H12A 3876   6.420   5.794   5.209 -1.2089 -2.0973 -1.0792
   37CHL1  H12B 3877   6.355   5.951   5.276 -0.4966 -0.4468 -0.9754
   37CHL1   C11 3878   6.339   5.783   5.409 -0.8706  0.4300 -0.2839
   37CHL1  H11A 3879   6.324   5.675   5.388 -0.0120  0.1467  0.4822
   37CHL1  H11B 3880   6.434   5.800   5.464 -1.6290  3.1623  0.3665
   37CHL1    C9 3881   6.222   5.843   5.493 -0.4913 -0.2704  0.2333
   37CHL1    H9 3882   6.247   5.951   5.498 -0.1191 -0.3902  1.0199
   37CHL1   C10 3883   6.205   5.796   5.636 -0.3094 -0.0956  0.1336
   37CHL1   C19 3884   6.212   5.642   5.632  0.4810 -0.3931  0.6008
   37CHL1  H19A 3885   6.184   5.601   5.731  2.1378  1.3772  1.8580
   37CHL1  H19B 3886   6.142   5.604   5.554  2.3809 -0.3585 -1.2068
   37CHL1  H19C 3887   6.312   5.606   5.600 -0.0490 -0.9131 -0.5389
   37CHL1    C1 3888   6.323   5.840   5.719 -0.1658  0.0113 -0.0730
   37CHL1   H1A 3889   6.417   5.791   5.686  0.6543  0.2198  1.8166
   37CHL1   H1B 3890   6.329   5.950   5.705 -3.6777  0.3674  0.2907
   37CHL1    C2 3891   6.316   5.807   5.872 -0.1387  0.1000  0.1262
   37CHL1   H2A 3892   6.406   5.853   5.918  1.7519 -2.0243 -1.2539
   37CHL1   H2B 3893   6.318   5.698   5.896  2.1415  0.1056  0.2039
   37CHL1   C20 3894   6.259   5.856   4.932  0.0026 -0.5146 -0.0080
   37CHL1   H20 3895   6.354   5.811   4.970  0.5114  0.9236  0.4646
   37CHL1   C21 3896   6.302   5.984   4.852 -0.8668 -0.4873  0.4351
   37CHL1  H21A 3897   6.214   6.049   4.837 -1.0154 -0.7978 -0.0674
   37CHL1  H21B 3898   6.357   5.961   4.757  0.1617  1.6232  0.4623
   37CHL1  H21C 3899   6.381   6.036   4.910 -2.0650  2.0693 -0.0834
   37CHL1   C22 3900   6.184   5.746   4.850 -0.6715  0.2803 -0.1380
   37CHL1  H22A 3901   6.145   5.669   4.920 -1.0087  3.0964  3.0408
   37CHL1  H22B 3902   6.100   5.794   4.795 -1.4831 -0.3238  0.5664
   37CHL1   C23 3903   6.279   5.674   4.753 -0.3316 -0.0997  0.6866
   37CHL1  H23A 3904   6.325   5.731   4.669 -0.1471 -1.7182 -0.3623
   37CHL1  H23B 3905   6.359   5.628   4.815 -2.4359 -2.1560  2.0197
   37CHL1   C24 3906   6.207   5.557   4.678  0.4407 -0.3560  0.0095
   37CHL1  H24A 3907   6.285   5.511   4.614  1.1645 -0.8518  1.2044
   37CHL1  H24B 3908   6.179   5.479   4.752  4.7612 -0.9663  1.2908
   37CHL1   C25 3909   6.079   5.588   4.597  0.8838  0.4827  0.0321
   37CHL1   H25 3910   6.001   5.629   4.665  0.1695 -0.5676 -0.1256
   37CHL1   C26 3911   6.117   5.686   4.484  0.4538 -0.2023  0.0362
   37CHL1  H26A 3912   6.135   5.783   4.536 -1.0092 -0.5710  1.2854
   37CHL1  H26B 3913   6.202   5.657   4.418 -0.3633 -0.3503 -0.9758
   37CHL1  H26C 3914   6.022   5.695   4.428  0.1768  1.0297  0.6779
   37CHL1   C27 3915   6.016   5.452   4.533 -0.5110 -0.8539 -0.1870
   37CHL1  H27A 3916   5.998   5.381   4.617 -3.2259 -1.2231 -0.9679
   37CHL1  H27B 3917   5.917   5.470   4.485 -1.0127 -1.3088  0.6451
   37CHL1  H27C 3918   6.080   5.402   4.458  0.6895 -0.6552  0.6784
   38CHL1    C3 3919   2.649   5.275   6.289  0.3489  0.6893  0.1224
   38CHL1    H3 3920   2.554   5.219   6.304  0.3241  1.3441  2.8262
   38CHL1    O3 3921   2.723   5.274   6.403 -0.1319 -0.0870 -0.1648
   38CHL1   H3' 3922   2.767   5.359   6.394 -0.9590  0.2239 -1.6398
   38CHL1    C4 3923   2.739   5.214   6.178 -0.1133  0.1618 -0.3566
   38CHL1   H4A 3924   2.832   5.273   6.182 -0.3286  0.4238  1.5619
   38CHL1   H4B 3925   2.773   5.114   6.211 -2.5162  0.4772  3.7546
   38CHL1    C5 3926   2.666   5.212   6.049  0.1717  0.4456  0.9415
   38CHL1    C6 3927   2.654   5.100   5.975  0.1887 -0.4939 -0.4967
   38CHL1    H6 3928   2.714   5.016   6.015 -1.6864 -0.8415  1.8653
   38CHL1    C7 3929   2.595   5.092   5.836 -0.3877 -0.5318 -0.3096
   38CHL1   H7A 3930   2.681   5.060   5.774  3.1997  0.6341  3.5687
   38CHL1   H7B 3931   2.511   5.020   5.833 -1.3098  0.5332 -1.3974
   38CHL1    C8 3932   2.573   5.236   5.774 -0.3025  0.3997  0.3113
   38CHL1    H8 3933   2.676   5.269   5.751 -0.6641  1.0017 -0.5442
   38CHL1   C14 3934   2.476   5.233   5.657 -0.0880  0.4364 -0.8884
   38CHL1   H14 3935   2.380   5.195   5.698  0.8891 -0.4134  0.6998
   38CHL1   C15 3936   2.504   5.130   5.547 -1.2192 -0.0454  0.1040
   38CHL1  H15A 3937   2.612   5.119   5.523 -1.1762 -0.6334  0.5563
   38CHL1  H15B 3938   2.475   5.029   5.583  0.2990 -0.3050  0.6699
   38CHL1   C16 3939   2.434   5.181   5.424  0.4468  0.0769  0.0014
   38CHL1  H16A 3940   2.502   5.194   5.337 -0.8813  2.6024 -0.7705
   38CHL1  H16B 3941   2.343   5.123   5.396  0.4778  0.7828 -1.6771
   38CHL1   C17 3942   2.374   5.318   5.466  0.0652  0.0473 -0.4296
   38CHL1   H17 3943   2.275   5.304   5.514  0.4119 -0.1300  0.2526
   38CHL1   C13 3944   2.463   5.369   5.584  0.5875  0.1173 -0.3175
   38CHL1   C18 3945   2.601   5.425   5.533 -0.0523  0.2393  0.2800
   38CHL1  H18A 3946   2.662   5.443   5.624 -1.4670  0.4479  1.2213
   38CHL1  H18B 3947   2.645   5.341   5.475 -0.6388  0.3270 -0.3041
   38CHL1  H18C 3948   2.591   5.516   5.471 -0.0943 -1.1788 -1.8952
   38CHL1   C12 3949   2.417   5.469   5.693 -0.2209 -0.5821 -0.4746
   38CHL1  H12A 3950   2.426   5.572   5.653  3.0456 -0.2630  0.7964
   38CHL1  H12B 3951   2.310   5.454   5.715  0.1095 -1.7676  0.4163
   38CHL1   C11 3952   2.492   5.468   5.823 -0.2699 -0.2578 -0.3813
   38CHL1  H11A 3953   2.583   5.529   5.806 -1.6198  2.1450  0.5202
   38CHL1  H11B 3954   2.427   5.522   5.895 -0.1301 -2.4245  1.4923
   38CHL1    C9 3955   2.527   5.333   5.884 -0.1483  0.3354  0.3724
   38CHL1    H9 3956   2.437   5.291   5.934  0.7826 -0.6499  1.2816
   38CHL1   C10 3957   2.622   5.352   6.005 -0.0085 -0.0512 -0.0674
   38CHL1   C19 3958   2.754   5.430   5.980  0.2614 -0.0505  0.3790
   38CHL1  H19A 3959   2.838   5.421   6.052  0.5239 -2.8103 -0.1723
   38CHL1  H19B 3960   2.786   5.409   5.876 -3.0566 -1.6323 -0.4563
   38CHL1  H19C 3961   2.729   5.537   5.963  1.0247 -0.4142 -4.2402
   38CHL1    C1 3962   2.547   5.427   6.116 -0.5117  0.0977  0.0683
   38CHL1   H1A 3963   2.517   5.528   6.079  0.3376  1.1090  1.9863
   38CHL1   H1B 3964   2.444   5.391   6.136  0.0215 -1.0172  0.8842
   38CHL1    C2 3965   2.612   5.426   6.258  0.2861  0.0746  0.2976
   38CHL1   H2A 3966   2.545   5.462   6.339  0.4489 -2.0441  1.4472
   38CHL1   H2B 3967   2.702   5.490   6.252 -1.3806  2.4574 -0.7118
   38CHL1   C20 3968   2.348   5.424   5.356 -0.7069  0.5736  0.0699
   38CHL1   H20 3969   2.440   5.452   5.299 -0.7491 -1.5442 -1.1166
   38CHL1   C21 3970   2.266   5.544   5.414  0.1900  0.4159 -0.3753
   38CHL1  H21A 3971   2.335   5.608   5.473  2.2627 -2.7187  0.8499
   38CHL1  H21B 3972   2.178   5.516   5.476  0.4126 -1.1268 -0.7213
   38CHL1  H21C 3973   2.234   5.601   5.324  1.2746  0.8062 -0.5311
   38CHL1   C22 3974   2.277   5.358   5.233  0.6765 -0.7828  0.1391
   38CHL1  H22A 3975   2.351   5.284   5.196  0.4631 -0.9885  0.1220
   38CHL1  H22B 3976   2.177   5.316   5.255 -0.6871  0.1857 -3.4975
   38CHL1   C23 3977   2.253   5.454   5.112 -0.4134 -0.5992  0.0500
   38CHL1  H23A 3978   2.157   5.509   5.121  1.0094  2.4117 -1.7073
   38CHL1  H23B 3979   2.344   5.518   5.104  0.1062 -1.3739 -0.3932
   38CHL1   C24 3980   2.230   5.380   4.979 -0.7845 -0.3590 -0.7128
   38CHL1  H24A 3981   2.312   5.305   4.975 -0.4809 -0.1538  1.0541
   38CHL1  H24B 3982   2.140   5.318   4.993 -0.9187  0.2717  1.5869
   38CHL1   C25 3983   2.241   5.470   4.859 -0.0736 -0.4990  0.3309
   38CHL1   H25 3984   2.189   5.564   4.887 -0.4715 -1.1000  1.7037
   38CHL1   C26 3985   2.387   5.503   4.834 -0.2801 -0.5210  0.2035
   38CHL1  H26A 3986   2.456   5.420   4.811  1.9707  1.5171 -0.8092
   38CHL1  H26B 3987   2.397   5.573   4.748  1.1362  0.6497  1.2665
   38CHL1  H26C 3988   2.432   5.562   4.917 -1.4841 -0.4997  0.8670
   38CHL1   C27 3989   2.178   5.409   4.737 -0.5462 -0.0266 -1.0235
   38CHL1  H27A 3990   2.231   5.315   4.708 -0.9374 -0.8529  0.7985
   38CHL1  H27B 3991   2.074   5.382   4.766 -0.5577  0.2176 -0.8406
   38CHL1  H27C 3992   2.174   5.479   4.651 -0.9952  2.1133  0.6725
   39CHL1    C3 3993   0.500   5.390   5.908  0.2265 -0.2742  0.0650
   39CHL1    H3 3994   0.429   5.305   5.907  0.7497 -0.7555  1.2924
   39CHL1    O3 3995   0.560   5.385   6.037 -0.3537 -0.2254 -0.0254
   39CHL1   H3' 3996   0.624   5.457   6.041 -1.2966  0.5697  1.9879
   39CHL1    C4 3997   0.601   5.352   5.801  0.2272 -0.0096 -0.4454
   39CHL1   H4A 3998   0.684   5.426   5.805 -1.4984  1.9599  0.4397
   39CHL1   H4B 3999   0.641   5.251   5.825 -1.5243 -0.5233  0.4344
   39CHL1    C5 4000   0.522   5.367   5.667 -0.0643 -0.3184 -0.1336
   39CHL1    C6 4001   0.517   5.273   5.567 -0.1837 -0.0436  0.2329
   39CHL1    H6 4002   0.565   5.177   5.588 -3.4531 -1.8244  0.1285
   39CHL1    C7 4003   0.470   5.295   5.431  0.0912 -0.6196  0.4439
   39CHL1   H7A 4004   0.537   5.253   5.353  0.8547  2.9778 -1.0467
   39CHL1   H7B 4005   0.368   5.251   5.424  0.1662 -0.5269 -3.1405
   39CHL1    C8 4006   0.447   5.446   5.396 -0.0814  0.0556  0.3073
   39CHL1    H8 4007   0.541   5.504   5.389 -1.8441  2.9930 -1.5513
   39CHL1   C14 4008   0.363   5.459   5.273 -0.1701 -0.4646  0.1232
   39CHL1   H14 4009   0.267   5.409   5.301  0.3671 -0.9112  1.2293
   39CHL1   C15 4010   0.409   5.384   5.151  0.1497  0.2669  0.1283
   39CHL1  H15A 4011   0.508   5.420   5.116 -0.2768 -0.9050 -2.4431
   39CHL1  H15B 4012   0.421   5.274   5.155  0.9110  0.2435 -1.9453
   39CHL1   C16 4013   0.319   5.432   5.043 -0.3012 -0.2937  0.0794
   39CHL1  H16A 4014   0.387   5.456   4.959 -1.6280 -0.2557 -1.0280
   39CHL1  H16B 4015   0.247   5.363   4.994  0.3703 -0.3282 -0.8714
   39CHL1   C17 4016   0.247   5.553   5.097  1.0127 -0.2680 -0.1193
   39CHL1   H17 4017   0.149   5.517   5.136  1.9705 -2.0574  0.7851
   39CHL1   C13 4018   0.318   5.592   5.230 -0.2948 -0.5670  0.3890
   39CHL1   C18 4019   0.446   5.674   5.204 -0.3184 -0.3609  0.3893
   39CHL1  H18A 4020   0.416   5.770   5.157 -1.9636 -2.1080 -2.3392
   39CHL1  H18B 4021   0.510   5.689   5.294 -1.6526  0.4910  1.2278
   39CHL1  H18C 4022   0.506   5.620   5.128 -1.5665 -0.2330 -0.7251
   39CHL1   C12 4023   0.232   5.657   5.345  0.5296 -0.1508  0.4034
   39CHL1  H12A 4024   0.192   5.758   5.326 -0.8814 -0.8668 -0.6320
   39CHL1  H12B 4025   0.147   5.587   5.361  0.4542  0.4191  2.8628
   39CHL1   C11 4026   0.301   5.649   5.476 -0.1613  0.1480 -0.2393
   39CHL1  H11A 4027   0.384   5.723   5.481  1.0285 -1.2063  1.5947
   39CHL1  H11B 4028   0.224   5.679   5.550  0.4949  1.2478  0.0231
   39CHL1    C9 4029   0.370   5.516   5.511 -0.6478  0.0579 -0.5027
   39CHL1    H9 4030   0.292   5.441   5.534  3.0759 -3.8910  0.7415
   39CHL1   C10 4031   0.460   5.509   5.639 -0.1518 -0.2309 -0.6734
   39CHL1   C19 4032   0.567   5.618   5.631 -0.0344 -0.0464  0.2842
   39CHL1  H19A 4033   0.528   5.718   5.601  0.4714 -0.7906 -3.2776
   39CHL1  H19B 4034   0.629   5.615   5.722 -0.7190 -1.7981  0.7284
   39CHL1  H19C 4035   0.635   5.595   5.546 -1.3930 -1.1609 -0.5609
   39CHL1    C1 4036   0.364   5.535   5.757 -0.3658  0.2172  0.0642
   39CHL1   H1A 4037   0.317   5.636   5.751  0.3159  0.5280 -0.0616
   39CHL1   H1B 4038   0.278   5.464   5.763 -0.9977  0.9093 -0.5044
   39CHL1    C2 4039   0.432   5.524   5.890  0.0343  0.6359 -0.5892
   39CHL1   H2A 4040   0.355   5.545   5.967 -0.0017  0.7058 -0.6439
   39CHL1   H2B 4041   0.509   5.603   5.905 -0.4329  1.0116 -0.1148
   39CHL1   C20 4042   0.226   5.654   4.988  0.0462 -0.1990 -0.1371
   39CHL1   H20 4043   0.326   5.690   4.959  0.7537  1.0961  3.4362
   39CHL1   C21 4044   0.151   5.776   5.059  0.5236 -0.4550 -0.6159
   39CHL1  H21A 4045   0.222   5.823   5.130  1.3011  3.7487 -3.7940
   39CHL1  H21B 4046   0.053   5.743   5.099  0.1429 -0.7752 -1.7512
   39CHL1  H21C 4047   0.132   5.866   4.996  1.3050 -0.3169 -0.6632
   39CHL1   C22 4048   0.134   5.612   4.871  0.3743  0.4579  0.4384
   39CHL1  H22A 4049   0.159   5.509   4.839 -2.6617  0.0831 -1.1109
   39CHL1  H22B 4050   0.028   5.606   4.905  0.6513  0.5546  1.3329
   39CHL1   C23 4051   0.148   5.697   4.747  0.0695 -0.0244 -0.4693
   39CHL1  H23A 4052   0.146   5.804   4.777  0.4071 -0.5604  1.6715
   39CHL1  H23B 4053   0.246   5.683   4.698  0.6294  1.9008  0.0265
   39CHL1   C24 4054   0.040   5.675   4.632 -0.3624  0.3033  0.5424
   39CHL1  H24A 4055   0.034   5.572   4.589 -1.1075  0.6256 -0.1503
   39CHL1  H24B 4056  -0.063   5.702   4.665 -0.1994 -1.6881  2.9566
   39CHL1   C25 4057   0.066   5.757   4.504  0.5363  0.1949  0.0102
   39CHL1   H25 4058   0.170   5.741   4.467  0.0083 -1.4353 -0.8486
   39CHL1   C26 4059  -0.014   5.705   4.389  0.5604 -0.4342 -0.4377
   39CHL1  H26A 4060  -0.014   5.594   4.378  1.9825 -0.4745 -0.1567
   39CHL1  H26B 4061  -0.120   5.738   4.401  1.3785  1.8643  1.1460
   39CHL1  H26C 4062   0.019   5.749   4.292 -0.6192 -0.3916 -0.8411
   39CHL1   C27 4063   0.042   5.911   4.518  0.0023 -0.0928 -0.5495
   39CHL1  H27A 4064   0.082   5.955   4.424 -0.0438  1.8848  0.3123
   39CHL1  H27B 4065  -0.067   5.921   4.535  0.2238  0.8320  0.3997
   39CHL1  H27C 4066   0.105   5.958   4.597  2.0806  0.5243 -2.4662
   40CHL1    C3 4067   1.571   3.774   5.837 -0.7032  0.1663  0.1984
   40CHL1    H3 4068   1.480   3.768   5.774 -1.5899 -1.0859  1.5302
   40CHL1    O3 4069   1.521   3.752   5.969  0.5450  0.3457 -0.2533
   40CHL1   H3' 4070   1.435   3.793   5.984  0.6647 -0.1635  2.4039
   40CHL1    C4 4071   1.676   3.666   5.792 -0.5707 -0.4817 -0.0778
   40CHL1   H4A 4072   1.759   3.664   5.866  1.9475  0.4154 -2.6943
   40CHL1   H4B 4073   1.635   3.563   5.804  1.8486 -1.5779 -0.5335
   40CHL1    C5 4074   1.732   3.701   5.656 -0.8430  0.1733  0.0083
   40CHL1    C6 4075   1.735   3.607   5.558  0.4866 -0.1308 -0.0835
   40CHL1    H6 4076   1.715   3.501   5.582 -1.7509  0.5608  1.4475
   40CHL1    C7 4077   1.780   3.641   5.420  0.0981  0.0180 -0.3938
   40CHL1   H7A 4078   1.841   3.557   5.378 -0.3862 -0.8359  0.5556
   40CHL1   H7B 4079   1.690   3.649   5.355 -0.3330 -1.1559  0.0252
   40CHL1    C8 4080   1.862   3.760   5.411 -0.8047  0.1415 -0.0171
   40CHL1    H8 4081   1.958   3.741   5.465 -1.7135  0.8260  1.9357
   40CHL1   C14 4082   1.895   3.806   5.271  0.8930 -0.2885 -0.2577
   40CHL1   H14 4083   1.799   3.854   5.241  1.3246  2.8131  2.6983
   40CHL1   C15 4084   1.927   3.703   5.155 -0.0121 -0.4796  0.9804
   40CHL1  H15A 4085   1.978   3.613   5.195 -0.4904 -0.5186  1.5068
   40CHL1  H15B 4086   1.832   3.663   5.115 -0.0078  2.5910 -2.7217
   40CHL1   C16 4087   2.015   3.779   5.055 -0.0616 -0.7302  0.2418
   40CHL1  H16A 4088   2.121   3.746   5.070  0.6401  1.6344  0.9168
   40CHL1  H16B 4089   1.984   3.768   4.949  0.1114  0.8252  0.0002
   40CHL1   C17 4090   2.012   3.924   5.110 -0.7285 -0.3263  0.7478
   40CHL1   H17 4091   1.922   3.969   5.065 -0.3249  2.6828  2.7202
   40CHL1   C13 4092   1.999   3.916   5.261  0.2445  0.4842  0.2644
   40CHL1   C18 4093   2.125   3.853   5.333  0.2001  0.3980 -0.3091
   40CHL1  H18A 4094   2.214   3.909   5.298  0.3025  0.7701  0.5188
   40CHL1  H18B 4095   2.129   3.851   5.444  1.0932 -2.5509 -0.3168
   40CHL1  H18C 4096   2.142   3.750   5.297 -2.6152  0.0111 -0.7898
   40CHL1   C12 4097   1.936   4.039   5.330  0.0880 -0.5629 -0.7675
   40CHL1  H12A 4098   2.005   4.124   5.349 -2.6844  1.5624  0.6564
   40CHL1  H12B 4099   1.848   4.065   5.266 -1.6766 -0.6388  1.5084
   40CHL1   C11 4100   1.882   4.014   5.467  0.2611  0.0340 -0.7382
   40CHL1  H11A 4101   1.972   4.018   5.532 -1.4287  1.7139  1.6987
   40CHL1  H11B 4102   1.804   4.090   5.492 -0.7701 -1.4641  0.7934
   40CHL1    C9 4103   1.803   3.881   5.490 -0.5232  0.8327  0.8748
   40CHL1    H9 4104   1.703   3.891   5.442  0.1033 -1.9173 -1.2922
   40CHL1   C10 4105   1.770   3.853   5.637  0.2826  0.6724 -0.4989
   40CHL1   C19 4106   1.911   3.856   5.714  0.1583  0.2092 -0.1959
   40CHL1  H19A 4107   1.977   3.785   5.661  0.0738  0.1417 -0.2108
   40CHL1  H19B 4108   1.955   3.958   5.718 -2.0325  1.3021 -1.5377
   40CHL1  H19C 4109   1.908   3.828   5.821  2.2919 -1.9938 -0.6253
   40CHL1    C1 4110   1.675   3.950   5.698  0.3317 -0.0868 -0.1427
   40CHL1   H1A 4111   1.727   4.049   5.697  2.1404 -0.9946 -1.4765
   40CHL1   H1B 4112   1.589   3.961   5.627  1.2263  0.6336 -1.1629
   40CHL1    C2 4113   1.627   3.920   5.837 -0.1965 -0.0369 -0.3223
   40CHL1   H2A 4114   1.553   3.994   5.874  1.0722  0.5674  1.1102
   40CHL1   H2B 4115   1.714   3.917   5.907  2.4943 -1.6705 -3.4596
   40CHL1   C20 4116   2.125   4.006   5.049 -0.0378  0.1862 -0.1849
   40CHL1   H20 4117   2.219   3.953   5.077  0.1472  0.8819  0.5459
   40CHL1   C21 4118   2.128   4.144   5.119 -0.0742 -0.2865  0.5705
   40CHL1  H21A 4119   2.204   4.211   5.074  0.2567 -2.3625 -2.2550
   40CHL1  H21B 4120   2.176   4.134   5.218 -0.7666  1.7905  1.1643
   40CHL1  H21C 4121   2.027   4.191   5.117 -0.3989 -0.8945 -2.1123
   40CHL1   C22 4122   2.119   4.025   4.901  0.4141  0.5526 -0.2783
   40CHL1  H22A 4123   2.013   4.000   4.876  0.7662 -1.3160 -0.0589
   40CHL1  H22B 4124   2.137   4.131   4.875 -0.9452  0.6347 -1.0072
   40CHL1   C23 4125   2.225   3.942   4.825 -0.6127 -0.1239 -0.0506
   40CHL1  H23A 4126   2.322   3.976   4.867 -1.5818 -1.0068  3.2109
   40CHL1  H23B 4127   2.219   3.834   4.852  2.4277 -1.0573 -2.5229
   40CHL1   C24 4128   2.216   3.956   4.673  1.2712 -0.8941  0.3859
   40CHL1  H24A 4129   2.126   3.911   4.627  0.2155  1.1987  0.2945
   40CHL1  H24B 4130   2.224   4.064   4.649 -1.4564 -0.7892 -0.2629
   40CHL1   C25 4131   2.327   3.876   4.595  0.1255  0.0988  0.1064
   40CHL1   H25 4132   2.314   3.768   4.616 -0.8571  0.1650 -0.1073
   40CHL1   C26 4133   2.283   3.883   4.444 -0.2443  0.6138  0.3938
   40CHL1  H26A 4134   2.178   3.846   4.437  0.4130 -1.1454 -1.1338
   40CHL1  H26B 4135   2.281   3.987   4.405  1.3888  0.8652  0.9154
   40CHL1  H26C 4136   2.358   3.824   4.386  0.1466 -0.3466  1.8224
   40CHL1   C27 4137   2.467   3.929   4.627 -0.4303  0.8679 -0.2711
   40CHL1  H27A 4138   2.547   3.869   4.578  0.1885  0.5409  1.1107
   40CHL1  H27B 4139   2.475   4.035   4.595  1.5112  0.4412 -1.3717
   40CHL1  H27C 4140   2.490   3.929   4.736  1.7760 -1.7622 -0.6161
   41CHL1    C3 4141   5.594   2.435   6.243 -0.1973  0.4156  0.2909
   41CHL1    H3 4142   5.572   2.539   6.211 -1.5831 -0.5189 -2.0007
   41CHL1    O3 4143   5.598   2.436   6.384 -0.2356 -0.6483 -0.5839
   41CHL1   H3' 4144   5.597   2.342   6.405  0.3701 -0.5335 -0.0426
   41CHL1    C4 4145   5.487   2.338   6.198  0.3960 -0.4344 -0.0401
   41CHL1   H4A 4146   5.514   2.235   6.230  0.3331 -0.2870  0.4988
   41CHL1   H4B 4147   5.392   2.359   6.251  0.6643 -1.0919  0.7190
   41CHL1    C5 4148   5.472   2.338   6.049  0.2408 -0.1543  0.2533
   41CHL1    C6 4149   5.345   2.359   5.993 -0.1962 -0.2758  0.1789
   41CHL1    H6 4150   5.259   2.373   6.060  0.3563  0.0349  0.8276
   41CHL1    C7 4151   5.325   2.350   5.844  0.1683  0.2030  0.0613
   41CHL1   H7A 4152   5.233   2.291   5.830  0.7767 -1.0508  1.1752
   41CHL1   H7B 4153   5.299   2.453   5.809  0.1177  0.2197  0.1483
   41CHL1    C8 4154   5.443   2.289   5.762 -0.0336  0.0401  0.0151
   41CHL1    H8 4155   5.435   2.179   5.771 -1.4396  0.2059  1.1348
   41CHL1   C14 4156   5.451   2.328   5.613 -0.0768  0.1604  0.9790
   41CHL1   H14 4157   5.477   2.436   5.610  0.2937  0.0536 -1.1923
   41CHL1   C15 4158   5.317   2.328   5.536  0.1942  0.0343  0.4540
   41CHL1  H15A 4159   5.255   2.238   5.557  1.1679 -1.3011 -1.9487
   41CHL1  H15B 4160   5.265   2.421   5.569  0.6772 -0.4593  2.8409
   41CHL1   C16 4161   5.356   2.326   5.388  0.3841  0.2457 -0.4147
   41CHL1  H16A 4162   5.290   2.246   5.347 -1.7197  1.9680 -0.5657
   41CHL1  H16B 4163   5.320   2.413   5.329 -1.1536 -0.1875 -0.1658
   41CHL1   C17 4164   5.513   2.309   5.385 -0.3529  0.5497  0.0265
   41CHL1   H17 4165   5.553   2.412   5.376  2.2377 -0.4249 -0.5107
   41CHL1   C13 4166   5.549   2.256   5.526  0.2371 -0.2117 -0.4828
   41CHL1   C18 4167   5.531   2.103   5.524 -0.3595 -0.0894 -0.0176
   41CHL1  H18A 4168   5.610   2.057   5.462  0.1696 -1.9324  1.9010
   41CHL1  H18B 4169   5.550   2.053   5.622  0.8200 -2.6772 -1.4728
   41CHL1  H18C 4170   5.428   2.073   5.493 -0.4122 -0.3111  0.3624
   41CHL1   C12 4171   5.683   2.295   5.586 -0.1471  0.1151 -0.6994
   41CHL1  H12A 4172   5.775   2.254   5.540  1.2758 -0.9060  2.6913
   41CHL1  H12B 4173   5.699   2.405   5.580  0.6092 -0.0305 -1.6605
   41CHL1   C11 4174   5.692   2.260   5.731 -0.3493  0.1672  0.4434
   41CHL1  H11A 4175   5.695   2.150   5.745  0.3277  0.0362 -0.6235
   41CHL1  H11B 4176   5.794   2.295   5.759  0.9149 -0.7439 -2.6309
   41CHL1    C9 4177   5.579   2.322   5.822 -0.8466  0.4365  0.4890
   41CHL1    H9 4178   5.587   2.432   5.818  1.2457  0.3273  0.8889
   41CHL1   C10 4179   5.598   2.299   5.975  0.2189  0.2875  0.0536
   41CHL1   C19 4180   5.622   2.146   6.006 -1.0897  0.0417  0.5685
   41CHL1  H19A 4181   5.523   2.101   5.983 -2.6986  3.0387  1.1149
   41CHL1  H19B 4182   5.709   2.112   5.947  0.4200  4.1402  0.1738
   41CHL1  H19C 4183   5.639   2.132   6.115  0.8683  0.9080  0.4116
   41CHL1    C1 4184   5.725   2.372   6.027 -0.0234 -0.0733 -0.2921
   41CHL1   H1A 4185   5.816   2.328   5.982  0.0239  0.1619 -0.4310
   41CHL1   H1B 4186   5.725   2.479   5.996  0.9976 -0.6026 -2.2891
   41CHL1    C2 4187   5.726   2.388   6.184 -0.5420  0.0600 -0.3656
   41CHL1   H2A 4188   5.807   2.461   6.207 -0.1537 -0.4358 -0.1470
   41CHL1   H2B 4189   5.752   2.290   6.230 -2.0722 -0.8549 -1.3601
   41CHL1   C20 4190   5.557   2.231   5.257 -0.6010 -0.0048  0.1611
   41CHL1   H20 4191   5.527   2.124   5.265 -2.7682  0.6161  1.0821
   41CHL1   C21 4192   5.709   2.244   5.245  0.0707  0.5606  0.4314
   41CHL1  H21A 4193   5.735   2.241   5.137 -1.5884  2.3335 -0.0842
   41CHL1  H21B 4194   5.753   2.169   5.313 -3.1057 -0.6734  1.3151
   41CHL1  H21C 4195   5.741   2.340   5.290  3.6974  0.3887 -1.4142
   41CHL1   C22 4196   5.497   2.289   5.120 -1.3009  0.2695 -0.2638
   41CHL1  H22A 4197   5.388   2.307   5.128 -1.2570 -0.1484  1.7624
   41CHL1  H22B 4198   5.534   2.393   5.130 -0.1024 -0.3011  1.8279
   41CHL1   C23 4199   5.521   2.217   4.989 -0.2090 -0.0053  0.2801
   41CHL1  H23A 4200   5.613   2.241   4.932  0.0913 -0.7095  0.4507
   41CHL1  H23B 4201   5.509   2.108   5.010  0.4779 -0.6458 -2.2372
   41CHL1   C24 4202   5.406   2.252   4.894  0.6928  0.6812  0.2528
   41CHL1  H24A 4203   5.318   2.216   4.951 -0.0666  2.0909  0.0235
   41CHL1  H24B 4204   5.390   2.362   4.898 -0.1450  0.5318  2.5702
   41CHL1   C25 4205   5.436   2.203   4.747 -0.5384 -0.4711 -0.0605
   41CHL1   H25 4206   5.544   2.225   4.730 -0.7520  1.3932  0.7949
   41CHL1   C26 4207   5.412   2.049   4.754  0.2370 -0.3591  0.3328
   41CHL1  H26A 4208   5.477   2.005   4.833 -2.1790  0.0814  2.7046
   41CHL1  H26B 4209   5.304   2.026   4.767  0.0594 -0.2624 -0.9117
   41CHL1  H26C 4210   5.437   1.996   4.660 -1.5735  0.7493 -0.8179
   41CHL1   C27 4211   5.344   2.248   4.638  0.3373  0.4158 -0.3632
   41CHL1  H27A 4212   5.381   2.345   4.599 -0.2286  0.5512 -0.5676
   41CHL1  H27B 4213   5.341   2.179   4.552 -0.1084 -1.4899  1.1104
   41CHL1  H27C 4214   5.239   2.262   4.673  0.9821  1.0528  1.4607
   42CHL1    C3 4215   4.884   6.984   6.178  0.2225 -0.1048 -0.3207
   42CHL1    H3 4216   4.795   7.032   6.133 -0.8537 -2.9490 -1.4971
   42CHL1    O3 4217   4.867   6.992   6.319  0.2828  0.4995 -0.2261
   42CHL1   H3' 4218   4.942   6.949   6.358 -0.4515 -0.4017  0.2221
   42CHL1    C4 4219   4.887   6.839   6.127  0.7969 -0.1701  0.1294
   42CHL1   H4A 4220   4.974   6.801   6.185  1.5339  1.8897  0.4771
   42CHL1   H4B 4221   4.800   6.777   6.157  0.8638 -1.0814 -1.4997
   42CHL1    C5 4222   4.899   6.838   5.979  0.4078  0.3225  0.0806
   42CHL1    C6 4223   4.799   6.782   5.903  0.9460  0.3604 -0.1212
   42CHL1    H6 4224   4.712   6.739   5.954 -0.9593  1.4416 -2.2629
   42CHL1    C7 4225   4.811   6.761   5.752  0.6688  0.3041 -0.4023
   42CHL1   H7A 4226   4.800   6.654   5.723 -0.1010  0.2188  0.1721
   42CHL1   H7B 4227   4.732   6.821   5.701  0.0084 -2.8232 -3.5227
   42CHL1    C8 4228   4.957   6.788   5.702 -0.1589 -0.2597 -0.1588
   42CHL1    H8 4229   5.027   6.705   5.725 -0.2865 -0.5748 -0.8751
   42CHL1   C14 4230   4.957   6.817   5.548  0.7864  0.1882 -0.2035
   42CHL1   H14 4231   4.893   6.907   5.530  2.1653  0.8432 -2.3405
   42CHL1   C15 4232   4.889   6.714   5.459 -0.4405  0.2692  0.6174
   42CHL1  H15A 4233   4.920   6.610   5.481 -0.0642  0.1120 -0.6003
   42CHL1  H15B 4234   4.780   6.720   5.437 -0.2657  0.4898 -0.2250
   42CHL1   C16 4235   4.943   6.758   5.318 -0.5749 -0.2087 -0.4601
   42CHL1  H16A 4236   4.985   6.681   5.250 -1.5385 -0.5723 -0.6652
   42CHL1  H16B 4237   4.863   6.809   5.260 -1.4380 -0.0236  0.8616
   42CHL1   C17 4238   5.055   6.872   5.339  0.5761  0.0906 -0.0025
   42CHL1   H17 4239   5.002   6.968   5.324  1.2902  0.7321  1.3759
   42CHL1   C13 4240   5.091   6.853   5.485 -0.2874  0.2294  0.2281
   42CHL1   C18 4241   5.192   6.735   5.503 -0.2315 -0.8746 -0.4369
   42CHL1  H18A 4242   5.149   6.636   5.476 -0.5526 -1.0417  0.6347
   42CHL1  H18B 4243   5.288   6.747   5.449  2.3097 -3.0261  3.1057
   42CHL1  H18C 4244   5.221   6.737   5.610 -1.1860  2.6815 -0.1118
   42CHL1   C12 4245   5.143   6.982   5.553  0.3692 -0.0886  0.5230
   42CHL1  H12A 4246   5.245   7.014   5.522  0.5855  0.3693  1.6680
   42CHL1  H12B 4247   5.063   7.056   5.526 -0.5700 -2.2336 -3.3821
   42CHL1   C11 4248   5.149   6.968   5.707  0.3747  0.1209  0.2799
   42CHL1  H11A 4249   5.235   6.901   5.727  1.4804  1.0655 -1.0889
   42CHL1  H11B 4250   5.186   7.066   5.743 -0.1857  0.1089  0.9025
   42CHL1    C9 4251   5.020   6.912   5.772  0.3727  0.0221  0.0868
   42CHL1    H9 4252   4.945   6.992   5.754  0.5041  0.1806  0.2457
   42CHL1   C10 4253   5.031   6.902   5.924 -0.3935  0.4477  0.3261
   42CHL1   C19 4254   5.141   6.806   5.972 -0.1237  0.3933 -0.8598
   42CHL1  H19A 4255   5.233   6.852   5.929 -1.4507  2.9653 -1.1595
   42CHL1  H19B 4256   5.151   6.805   6.082  0.4840 -0.1448 -0.9135
   42CHL1  H19C 4257   5.124   6.699   5.949 -1.8703  0.2035  1.0848
   42CHL1    C1 4258   5.049   7.041   5.983 -0.6991 -0.1835 -0.1133
   42CHL1   H1A 4259   5.155   7.075   5.978 -0.6842 -0.3086 -3.5256
   42CHL1   H1B 4260   4.981   7.107   5.925 -0.0160 -0.7399 -1.6301
   42CHL1    C2 4261   5.017   7.044   6.132  0.3012  0.1063  0.1153
   42CHL1   H2A 4262   5.016   7.149   6.167  1.6262  0.4618 -0.8553
   42CHL1   H2B 4263   5.104   6.986   6.169  0.9054 -1.9764 -3.9770
   42CHL1   C20 4264   5.167   6.874   5.233 -0.0019 -0.2191 -0.4323
   42CHL1   H20 4265   5.204   6.771   5.219 -0.4835 -0.2313 -1.7856
   42CHL1   C21 4266   5.284   6.971   5.264  0.2420 -0.8906 -0.0251
   42CHL1  H21A 4267   5.350   6.990   5.176 -1.1012  1.3182 -0.6351
   42CHL1  H21B 4268   5.349   6.922   5.340  1.5345  1.2672  0.3286
   42CHL1  H21C 4269   5.239   7.065   5.302  1.4370 -0.5243  0.5418
   42CHL1   C22 4270   5.108   6.920   5.094  0.3852 -0.0741 -0.4555
   42CHL1  H22A 4271   5.017   6.980   5.113 -0.4387 -0.6903 -2.2045
   42CHL1  H22B 4272   5.192   6.977   5.048  0.2601 -0.9213 -1.8011
   42CHL1   C23 4273   5.060   6.804   5.007  0.3757  0.5232  0.3661
   42CHL1  H23A 4274   5.133   6.721   5.001 -2.1527 -1.7260 -1.8081
   42CHL1  H23B 4275   4.968   6.764   5.054  2.1587 -1.3762  2.4917
   42CHL1   C24 4276   5.026   6.859   4.862 -0.1071  0.0921 -0.1781
   42CHL1  H24A 4277   5.102   6.934   4.831 -0.1099 -0.0537 -0.5511
   42CHL1  H24B 4278   5.033   6.776   4.788  1.9473  1.1889 -1.3068
   42CHL1   C25 4279   4.888   6.928   4.837  0.5094 -0.1379 -0.0318
   42CHL1   H25 4280   4.870   7.015   4.904 -0.5150 -0.5987  0.3244
   42CHL1   C26 4281   4.878   6.981   4.687 -0.9492 -0.3016  0.1575
   42CHL1  H26A 4282   4.871   6.890   4.624 -0.6409 -1.2947  1.4986
   42CHL1  H26B 4283   4.794   7.053   4.677 -0.3334  0.1082 -2.6831
   42CHL1  H26C 4284   4.981   7.021   4.678 -0.2377 -1.9031  0.6938
   42CHL1   C27 4285   4.780   6.826   4.865  0.7820  0.3224 -0.2885
   42CHL1  H27A 4286   4.807   6.725   4.830  1.1031  0.1272  0.5130
   42CHL1  H27B 4287   4.764   6.822   4.974  0.2852  0.6410 -0.3441
   42CHL1  H27C 4288   4.691   6.859   4.807  1.0205  1.2617 -0.1422
   43CHL1    C3 4289   5.933   0.737   6.126  0.0383  0.0605  1.0074
   43CHL1    H3 4290   6.008   0.819   6.119  2.3290 -2.0064  0.1847
   43CHL1    O3 4291   5.918   0.712   6.269  0.0765 -0.3431 -0.5461
   43CHL1   H3' 4292   5.862   0.633   6.269  0.4733 -0.9062 -5.1145
   43CHL1    C4 4293   5.801   0.786   6.067  0.2802 -0.0861 -0.5600
   43CHL1   H4A 4294   5.724   0.724   6.118  1.2364  0.1056  1.1910
   43CHL1   H4B 4295   5.785   0.888   6.110 -0.5919 -0.2209 -0.5509
   43CHL1    C5 4296   5.804   0.789   5.918 -0.1711  0.4396  0.6141
   43CHL1    C6 4297   5.774   0.901   5.853  0.4784 -1.0952 -0.3233
   43CHL1    H6 4298   5.719   0.976   5.910  0.8645 -0.8237 -0.3013
   43CHL1    C7 4299   5.773   0.920   5.704 -0.8118  0.0435  0.0925
   43CHL1   H7A 4300   5.669   0.955   5.687 -0.4075  1.8867  1.1263
   43CHL1   H7B 4301   5.852   0.993   5.677  1.1454 -2.1522 -0.4533
   43CHL1    C8 4302   5.795   0.794   5.623  0.3695 -0.7108 -0.3922
   43CHL1    H8 4303   5.698   0.740   5.616  0.2654 -0.6964  0.7451
   43CHL1   C14 4304   5.839   0.820   5.479  0.1667  0.1749 -0.4408
   43CHL1   H14 4305   5.933   0.876   5.501 -1.0023  1.6791  1.0347
   43CHL1   C15 4306   5.754   0.922   5.395 -0.5002 -0.3391  0.8000
   43CHL1  H15A 4307   5.646   0.898   5.406 -0.6252  1.0056  3.2139
   43CHL1  H15B 4308   5.767   1.030   5.421 -3.4739  0.1434  0.7099
   43CHL1   C16 4309   5.813   0.901   5.253  0.3487  0.6942  0.5758
   43CHL1  H16A 4310   5.730   0.866   5.189  2.2689  0.6577 -2.0286
   43CHL1  H16B 4311   5.863   0.989   5.207  1.8980 -1.1375 -1.4566
   43CHL1   C17 4312   5.914   0.774   5.263 -0.5841 -0.4160  1.0827
   43CHL1   H17 4313   6.010   0.826   5.283 -1.8265  2.4812  0.1689
   43CHL1   C13 4314   5.869   0.701   5.392  0.1071  0.4670  0.1576
   43CHL1   C18 4315   5.738   0.632   5.363  0.1221 -0.1711  0.8202
   43CHL1  H18A 4316   5.748   0.532   5.316  2.3729 -0.1522  1.1543
   43CHL1  H18B 4317   5.683   0.601   5.455  1.3340 -2.0988  0.9541
   43CHL1  H18C 4318   5.665   0.685   5.298 -0.5222 -0.7670  1.0356
   43CHL1   C12 4319   5.980   0.615   5.455  0.3878  0.3958 -0.9168
   43CHL1  H12A 4320   6.001   0.530   5.387  2.6033  0.5270 -0.4622
   43CHL1  H12B 4321   6.079   0.665   5.456  0.6365 -0.1072 -0.2186
   43CHL1   C11 4322   5.929   0.571   5.597 -0.2006 -0.4026 -0.4128
   43CHL1  H11A 4323   5.834   0.515   5.596 -0.0406 -0.7245  0.7893
   43CHL1  H11B 4324   6.009   0.515   5.649 -1.0604 -1.8928 -0.6544
   43CHL1    C9 4325   5.902   0.697   5.688 -0.2787 -0.3367 -0.1849
   43CHL1    H9 4326   5.994   0.759   5.695 -2.0246  2.5128 -0.6710
   43CHL1   C10 4327   5.868   0.670   5.841  0.2171 -0.5841 -0.1348
   43CHL1   C19 4328   5.760   0.552   5.851  0.4753  0.8303 -0.1380
   43CHL1  H19A 4329   5.803   0.458   5.810  0.6934  0.6262  0.5428
   43CHL1  H19B 4330   5.727   0.536   5.956  1.9623  0.6822  0.3338
   43CHL1  H19C 4331   5.674   0.590   5.792  0.8710  2.8265  0.4846
   43CHL1    C1 4332   5.996   0.626   5.907  0.1254  0.2635  0.1404
   43CHL1   H1A 4333   6.029   0.524   5.876  0.3926  0.2117  0.5960
   43CHL1   H1B 4334   6.081   0.696   5.898  2.0161 -1.8707  0.5223
   43CHL1    C2 4335   5.983   0.610   6.060  0.1023 -0.1131  0.5112
   43CHL1   H2A 4336   6.082   0.574   6.093  0.9499 -1.6445 -3.2288
   43CHL1   H2B 4337   5.915   0.524   6.082  1.8466 -1.3547  1.2654
   43CHL1   C20 4338   5.934   0.680   5.137  0.2269 -0.2466  0.1120
   43CHL1   H20 4339   5.868   0.592   5.147 -1.2753  0.4765 -2.6450
   43CHL1   C21 4340   6.085   0.645   5.120  0.6251 -0.1294 -0.1731
   43CHL1  H21A 4341   6.125   0.595   5.210  0.7209  1.2026  0.5571
   43CHL1  H21B 4342   6.150   0.735   5.116  1.4034 -0.6508  0.4291
   43CHL1  H21C 4343   6.084   0.577   5.032  0.6515 -1.2167  0.6548
   43CHL1   C22 4344   5.897   0.752   5.002  0.2449  0.2638  0.2425
   43CHL1  H22A 4345   5.797   0.799   5.012  0.6598  1.4906 -1.1338
   43CHL1  H22B 4346   5.966   0.839   4.993  0.2920  0.1346 -0.7157
   43CHL1   C23 4347   5.902   0.666   4.881  0.4711  0.2565  0.7255
   43CHL1  H23A 4348   6.002   0.621   4.867  1.3402  2.1840  0.4126
   43CHL1  H23B 4349   5.828   0.584   4.890 -0.6461  1.1666  0.2075
   43CHL1   C24 4350   5.865   0.742   4.753  0.4974  0.8551  0.0535
   43CHL1  H24A 4351   5.783   0.809   4.787 -1.5628 -0.8293 -1.2724
   43CHL1  H24B 4352   5.944   0.816   4.730  0.3513  0.7369 -0.9024
   43CHL1   C25 4353   5.808   0.664   4.634  0.2222  0.3298 -0.2015
   43CHL1   H25 4354   5.734   0.593   4.677  0.8041 -0.3723 -0.3439
   43CHL1   C26 4355   5.732   0.751   4.530  0.7658 -0.7733 -0.3596
   43CHL1  H26A 4356   5.795   0.832   4.486  0.6071  0.1046  0.9793
   43CHL1  H26B 4357   5.694   0.683   4.450 -2.0798  0.1189  0.1238
   43CHL1  H26C 4358   5.641   0.794   4.575 -0.5010 -0.7542 -2.7814
   43CHL1   C27 4359   5.919   0.586   4.564 -0.3144  0.5785 -0.1873
   43CHL1  H27A 4360   5.978   0.521   4.632 -1.4044  1.7609  1.9867
   43CHL1  H27B 4361   5.864   0.519   4.495  0.2178 -1.4575  1.2843
   43CHL1  H27C 4362   5.987   0.663   4.522  0.0840  1.2733  1.6367
   44CHL1    C3 4363   5.858   4.050   5.948 -0.3679 -0.3379  0.4568
   44CHL1    H3 4364   5.942   4.105   5.901 -0.8432  1.3967  1.5443
   44CHL1    O3 4365   5.870   4.070   6.087  0.3029  0.6998 -0.6864
   44CHL1   H3' 4366   5.938   4.006   6.109 -0.4984 -0.3440 -1.2077
   44CHL1    C4 4367   5.727   4.103   5.892  0.7755 -0.7444 -0.3438
   44CHL1   H4A 4368   5.649   4.042   5.942  1.0601 -2.3830 -1.8165
   44CHL1   H4B 4369   5.707   4.210   5.916 -1.1273 -1.0741 -0.3063
   44CHL1    C5 4370   5.716   4.090   5.745  0.0737  0.4078  0.1872
   44CHL1    C6 4371   5.713   4.192   5.657 -0.2506 -0.1195  0.2967
   44CHL1    H6 4372   5.727   4.299   5.681  2.7462 -0.1183 -0.9529
   44CHL1    C7 4373   5.686   4.180   5.510  0.1422 -0.8256  0.1786
   44CHL1   H7A 4374   5.591   4.231   5.483  1.7566  1.8325 -0.8116
   44CHL1   H7B 4375   5.770   4.227   5.455  0.2719 -0.9113  0.3051
   44CHL1    C8 4376   5.680   4.034   5.455 -1.0931 -0.3179  0.1395
   44CHL1    H8 4377   5.573   4.011   5.468 -0.5506 -2.1915  1.7345
   44CHL1   C14 4378   5.727   4.020   5.319  0.2876 -0.0516  0.5121
   44CHL1   H14 4379   5.838   4.028   5.319  0.4961 -1.7477 -1.8104
   44CHL1   C15 4380   5.695   4.136   5.225 -0.4803 -0.3944 -0.0671
   44CHL1  H15A 4381   5.599   4.189   5.239  1.2746  3.8028 -2.1903
   44CHL1  H15B 4382   5.769   4.218   5.237 -0.7447 -0.5646  3.6498
   44CHL1   C16 4383   5.690   4.070   5.087  0.5787 -0.8352  0.0194
   44CHL1  H16A 4384   5.583   4.072   5.056  0.0914 -0.8702  1.6193
   44CHL1  H16B 4385   5.751   4.127   5.013 -0.0109  0.3415  0.4113
   44CHL1   C17 4386   5.738   3.929   5.104  0.5497  0.5504  0.3284
   44CHL1   H17 4387   5.849   3.928   5.112  0.4766 -0.9000  1.9101
   44CHL1   C13 4388   5.701   3.890   5.247  0.0701 -0.2794 -0.3989
   44CHL1   C18 4389   5.548   3.853   5.236  0.4074 -0.4596  0.9747
   44CHL1  H18A 4390   5.490   3.940   5.198 -0.8434 -0.0425  3.6197
   44CHL1  H18B 4391   5.547   3.758   5.178  0.0744  1.3795 -2.2628
   44CHL1  H18C 4392   5.519   3.815   5.336 -0.2888 -1.2689  0.4819
   44CHL1   C12 4393   5.786   3.786   5.328 -0.6190  0.2270 -0.6519
   44CHL1  H12A 4394   5.775   3.684   5.286  0.1292 -0.9863  1.8949
   44CHL1  H12B 4395   5.896   3.804   5.326 -0.6120  0.4212  0.8491
   44CHL1   C11 4396   5.751   3.788   5.477 -0.5244 -0.9352  0.0311
   44CHL1  H11A 4397   5.643   3.764   5.489 -1.9057  3.8100 -0.8652
   44CHL1  H11B 4398   5.805   3.708   5.532  0.0660 -1.0629 -0.7079
   44CHL1    C9 4399   5.759   3.931   5.540  0.3489  0.3542 -0.6036
   44CHL1    H9 4400   5.865   3.963   5.532  0.9137 -0.4127  2.5572
   44CHL1   C10 4401   5.730   3.937   5.695 -0.1708 -0.2787 -0.4259
   44CHL1   C19 4402   5.596   3.873   5.735  0.2557 -0.0136 -0.5987
   44CHL1  H19A 4403   5.590   3.770   5.693  1.1573  0.0888 -0.9945
   44CHL1  H19B 4404   5.568   3.869   5.842 -3.9690 -1.8427 -1.5645
   44CHL1  H19C 4405   5.514   3.932   5.687  0.0839  1.2973  1.1837
   44CHL1    C1 4406   5.852   3.877   5.760  0.1082  0.1476 -0.3655
   44CHL1   H1A 4407   5.856   3.768   5.738  0.3175  0.3947 -1.6271
   44CHL1   H1B 4408   5.942   3.923   5.714  0.0187  0.5798 -0.1205
   44CHL1    C2 4409   5.864   3.897   5.909  0.2813 -0.1644  0.0986
   44CHL1   H2A 4410   5.955   3.847   5.948  1.6855  1.1388 -1.3113
   44CHL1   H2B 4411   5.780   3.850   5.963 -0.2020  1.7112  1.0757
   44CHL1   C20 4412   5.715   3.838   4.986  0.1148  0.2881 -0.3511
   44CHL1   H20 4413   5.605   3.825   4.980 -0.2378  2.7590 -0.1734
   44CHL1   C21 4414   5.775   3.696   5.000  0.3279  0.1569 -0.6141
   44CHL1  H21A 4415   5.723   3.632   5.075  0.1096 -0.5779 -1.3881
   44CHL1  H21B 4416   5.881   3.701   5.034  0.3816  1.8127 -0.9370
   44CHL1  H21C 4417   5.775   3.644   4.902  0.2071 -1.0255 -0.0094
   44CHL1   C22 4418   5.763   3.903   4.856  0.0948 -0.4106 -0.6240
   44CHL1  H22A 4419   5.731   3.837   4.773  0.9735  0.2089 -1.4804
   44CHL1  H22B 4420   5.690   3.987   4.853  0.5257  0.0878  1.5281
   44CHL1   C23 4421   5.911   3.938   4.832  0.4768  0.1500  0.1161
   44CHL1  H23A 4422   5.921   4.044   4.862  0.4668  0.0335  0.5308
   44CHL1  H23B 4423   5.979   3.866   4.881  1.3209 -0.0352 -1.2643
   44CHL1   C24 4424   5.947   3.931   4.685 -1.1584 -0.1977  0.6055
   44CHL1  H24A 4425   5.923   3.829   4.647 -1.2770  0.4296 -1.1049
   44CHL1  H24B 4426   5.873   3.996   4.634 -1.1191  0.2843  1.1585
   44CHL1   C25 4427   6.080   3.982   4.646 -0.2697  0.6832 -0.4108
   44CHL1   H25 4428   6.158   3.926   4.703 -1.6517 -1.9993 -0.9708
   44CHL1   C26 4429   6.097   3.938   4.499 -0.0153 -0.2394  0.0183
   44CHL1  H26A 4430   6.026   3.999   4.438  0.3922  0.1672 -0.0576
   44CHL1  H26B 4431   6.197   3.962   4.457 -0.2171 -0.4052 -0.5697
   44CHL1  H26C 4432   6.075   3.830   4.485 -0.8050 -0.2908  1.4504
   44CHL1   C27 4433   6.094   4.136   4.675 -0.1995  0.4742  0.1269
   44CHL1  H27A 4434   6.078   4.159   4.782 -3.2316  1.0916 -0.3859
   44CHL1  H27B 4435   6.195   4.163   4.638 -0.3033 -1.5277 -1.8837
   44CHL1  H27C 4436   6.018   4.190   4.616  0.8243 -1.0138 -2.7501
   45CHL1    C3 4437   5.556   3.259   6.119 -0.0381  0.1199  0.4358
   45CHL1    H3 4438   5.665   3.273   6.106  0.1297 -0.6465  0.9847
   45CHL1    O3 4439   5.537   3.256   6.258 -0.2659  0.3127 -0.3421
   45CHL1   H3' 4440   5.446   3.273   6.281 -0.4485 -2.1559  1.1626
   45CHL1    C4 4441   5.492   3.374   6.045 -0.4416 -0.5371 -0.7607
   45CHL1   H4A 4442   5.388   3.378   6.085  0.0634 -1.8776  0.7918
   45CHL1   H4B 4443   5.540   3.468   6.080  0.8855 -1.1540 -0.8807
   45CHL1    C5 4444   5.492   3.380   5.891 -0.1543 -0.0772  0.1162
   45CHL1    C6 4445   5.535   3.488   5.823 -0.9024  0.3218  0.2643
   45CHL1    H6 4446   5.571   3.584   5.862  0.6028 -0.2455  0.3234
   45CHL1    C7 4447   5.525   3.497   5.674  0.0654  0.1032 -0.6022
   45CHL1   H7A 4448   5.474   3.594   5.656  2.5066  2.1118  2.2492
   45CHL1   H7B 4449   5.632   3.510   5.645  0.3048 -1.1169 -0.3338
   45CHL1    C8 4450   5.458   3.371   5.604  0.3951  0.1670  0.2461
   45CHL1    H8 4451   5.352   3.401   5.622  1.0041  3.0732 -0.5038
   45CHL1   C14 4452   5.509   3.370   5.457 -0.6124 -0.0435 -0.7904
   45CHL1   H14 4453   5.617   3.345   5.459 -0.8399 -1.2001 -1.6381
   45CHL1   C15 4454   5.489   3.492   5.372  0.0088  0.1434  0.4040
   45CHL1  H15A 4455   5.388   3.535   5.390 -0.4070 -0.6206 -0.0635
   45CHL1  H15B 4456   5.554   3.574   5.409 -0.9869 -0.0694  2.8438
   45CHL1   C16 4457   5.510   3.441   5.226 -0.4171 -0.0362 -0.5051
   45CHL1  H16A 4458   5.413   3.465   5.177 -2.0487  0.1578  2.5264
   45CHL1  H16B 4459   5.586   3.505   5.178  3.4393 -0.1095  4.5809
   45CHL1   C17 4460   5.517   3.291   5.238 -0.1564  0.5782 -0.6356
   45CHL1   H17 4461   5.621   3.252   5.244 -0.7392 -0.8684  1.1815
   45CHL1   C13 4462   5.455   3.249   5.372 -0.0214 -0.8494  0.1193
   45CHL1   C18 4463   5.305   3.261   5.359  0.3940  0.6472  0.0467
   45CHL1  H18A 4464   5.267   3.355   5.313  0.2031  0.1494 -0.8321
   45CHL1  H18B 4465   5.259   3.169   5.318 -0.0194  1.7323 -2.0671
   45CHL1  H18C 4466   5.259   3.275   5.459 -2.1680  1.8038 -1.1999
   45CHL1   C12 4467   5.491   3.121   5.442 -0.4505  0.2527 -0.4651
   45CHL1  H12A 4468   5.442   3.030   5.402  1.7121 -1.1874 -0.0438
   45CHL1  H12B 4469   5.601   3.102   5.432 -0.5689 -1.9284  1.6488
   45CHL1   C11 4470   5.456   3.116   5.588 -0.0020  0.6507  0.2766
   45CHL1  H11A 4471   5.345   3.113   5.586 -0.0143  1.1599 -0.8645
   45CHL1  H11B 4472   5.502   3.020   5.621  0.5976  0.4494 -1.0474
   45CHL1    C9 4473   5.500   3.239   5.667  0.5806  0.1313 -0.4662
   45CHL1    H9 4474   5.610   3.240   5.681  0.2216  0.3675  3.6573
   45CHL1   C10 4475   5.452   3.244   5.820  0.3321 -0.7400  0.7998
   45CHL1   C19 4476   5.302   3.228   5.830  0.3430  0.3639  0.8132
   45CHL1  H19A 4477   5.252   3.301   5.762  0.7646  0.6318  0.7867
   45CHL1  H19B 4478   5.281   3.124   5.798 -0.9728  1.1750 -1.1895
   45CHL1  H19C 4479   5.263   3.246   5.932 -0.2231  2.0076  0.3405
   45CHL1    C1 4480   5.523   3.126   5.905 -0.5911  0.0424  0.2224
   45CHL1   H1A 4481   5.478   3.036   5.856 -0.2903  0.7709 -1.4438
   45CHL1   H1B 4482   5.627   3.143   5.870  0.0250  2.8613  2.9913
   45CHL1    C2 4483   5.512   3.126   6.061 -0.0058  0.3321  0.0580
   45CHL1   H2A 4484   5.568   3.036   6.094 -1.3603 -1.1322 -1.4732
   45CHL1   H2B 4485   5.407   3.103   6.089  0.1867 -0.3320  0.2501
   45CHL1   C20 4486   5.464   3.227   5.111  0.0586 -0.0119 -0.6067
   45CHL1   H20 4487   5.354   3.239   5.110  0.1250  0.6864 -0.5039
   45CHL1   C21 4488   5.497   3.083   5.111  0.4676 -0.0143 -0.5783
   45CHL1  H21A 4489   5.447   3.021   5.189  2.0991 -0.3455  0.2425
   45CHL1  H21B 4490   5.607   3.072   5.109  0.5633  0.9459 -1.4145
   45CHL1  H21C 4491   5.461   3.032   5.019 -2.5548  0.3038  0.3100
   45CHL1   C22 4492   5.510   3.291   4.978  0.3377 -0.1071  0.6834
   45CHL1  H22A 4493   5.497   3.401   4.978  0.9743 -0.0219 -0.0182
   45CHL1  H22B 4494   5.618   3.267   4.969 -0.1549 -2.0460 -0.7178
   45CHL1   C23 4495   5.422   3.244   4.858 -0.1762 -0.2636 -0.0382
   45CHL1  H23A 4496   5.455   3.140   4.836  0.4356 -0.2767  0.8633
   45CHL1  H23B 4497   5.318   3.255   4.895 -0.3525  1.1147 -0.8752
   45CHL1   C24 4498   5.434   3.345   4.740  0.6854 -0.0380  0.1231
   45CHL1  H24A 4499   5.382   3.302   4.651 -1.1261 -1.2423  1.6682
   45CHL1  H24B 4500   5.385   3.442   4.762 -0.0364  0.6117 -3.6114
   45CHL1   C25 4501   5.576   3.374   4.697  0.5635 -0.5816  0.1472
   45CHL1   H25 4502   5.634   3.401   4.788  1.8472 -1.1831 -0.4669
   45CHL1   C26 4503   5.655   3.256   4.637  0.6913 -0.2386 -0.4080
   45CHL1  H26A 4504   5.673   3.172   4.708  1.4967 -0.8450 -1.2998
   45CHL1  H26B 4505   5.602   3.219   4.547  1.1884 -2.1190  0.0167
   45CHL1  H26C 4506   5.757   3.285   4.604  0.8816 -1.5404 -1.0683
   45CHL1   C27 4507   5.569   3.493   4.595 -0.5145 -0.2679  0.3099
   45CHL1  H27A 4508   5.504   3.580   4.618 -1.8327 -0.9670 -0.6210
   45CHL1  H27B 4509   5.668   3.517   4.550  0.2702 -2.4439  0.7518
   45CHL1  H27C 4510   5.511   3.455   4.508  1.9008  0.3846 -1.7224
   46CHL1    C3 4511   4.685   6.819   2.962 -0.4609  0.1481 -0.1037
   46CHL1    H3 4512   4.675   6.709   2.955 -0.4252  0.1485 -0.1604
   46CHL1    O3 4513   4.711   6.875   2.832 -0.1654  0.1914  0.1624
   46CHL1   H3' 4514   4.643   6.842   2.772 -0.0417  0.4733 -0.1331
   46CHL1    C4 4515   4.551   6.868   3.018  0.4432 -0.1244 -0.0071
   46CHL1   H4A 4516   4.538   6.977   3.001  0.0506 -0.1996 -0.2193
   46CHL1   H4B 4517   4.461   6.834   2.962 -2.3857  0.4220  3.7805
   46CHL1    C5 4518   4.542   6.831   3.163  0.5201  0.2467 -0.1355
   46CHL1    C6 4519   4.426   6.775   3.216 -0.2692  0.0973  0.0870
   46CHL1    H6 4520   4.337   6.748   3.156 -1.1225 -0.3240  1.4838
   46CHL1    C7 4521   4.396   6.750   3.361 -0.7128  0.5173 -0.3550
   46CHL1   H7A 4522   4.291   6.773   3.390 -1.3756  0.2245 -2.3574
   46CHL1   H7B 4523   4.410   6.642   3.384  0.8416  0.2198 -2.3861
   46CHL1    C8 4524   4.494   6.821   3.455  0.8965  0.3062  0.0139
   46CHL1    H8 4525   4.460   6.927   3.458  0.3334  0.1082  2.0870
   46CHL1   C14 4526   4.498   6.764   3.600  0.6129  0.4879  0.3136
   46CHL1   H14 4527   4.527   6.657   3.590 -0.1371 -0.1136  3.5649
   46CHL1   C15 4528   4.359   6.736   3.671  0.5249  0.5651  0.4928
   46CHL1  H15A 4529   4.288   6.820   3.657  0.9631  0.6723 -1.3326
   46CHL1  H15B 4530   4.320   6.643   3.625 -0.2118  0.1370  1.9438
   46CHL1   C16 4531   4.402   6.701   3.815  0.3867 -0.5966 -0.2742
   46CHL1  H16A 4532   4.366   6.778   3.886  1.0271  1.2213 -1.8387
   46CHL1  H16B 4533   4.370   6.605   3.860 -1.7370  0.4780  0.6278
   46CHL1   C17 4534   4.557   6.715   3.821  0.3052 -0.0281  0.2217
   46CHL1   H17 4535   4.608   6.621   3.795  1.3299  0.3715  0.7292
   46CHL1   C13 4536   4.598   6.811   3.702  0.1718  0.1004  0.1183
   46CHL1   C18 4537   4.571   6.954   3.741 -0.1608 -0.6245  0.4940
   46CHL1  H18A 4538   4.673   6.991   3.763  0.0778  0.4191 -1.9845
   46CHL1  H18B 4539   4.524   7.016   3.661  0.5116 -0.5102  0.1853
   46CHL1  H18C 4540   4.500   6.966   3.826  0.5095 -0.0151  0.9814
   46CHL1   C12 4541   4.741   6.794   3.636 -0.8276  0.2172  0.2556
   46CHL1  H12A 4542   4.811   6.831   3.714 -2.0800  2.5758  0.3594
   46CHL1  H12B 4543   4.765   6.688   3.614  0.9401  0.8933 -1.3234
   46CHL1   C11 4544   4.751   6.862   3.495 -0.4698  0.6497 -0.0693
   46CHL1  H11A 4545   4.755   6.972   3.508  1.3132  0.8660 -2.0656
   46CHL1  H11B 4546   4.847   6.834   3.448 -1.3793 -0.4455 -1.3461
   46CHL1    C9 4547   4.641   6.815   3.400 -0.0656 -0.4382 -0.3250
   46CHL1    H9 4548   4.656   6.706   3.387  3.4925  0.1643 -2.5921
   46CHL1   C10 4549   4.661   6.874   3.256 -0.3269  0.7466  0.3751
   46CHL1   C19 4550   4.661   7.035   3.260  0.2833 -0.5367 -0.5754
   46CHL1  H19A 4551   4.561   7.069   3.293  0.7741  0.4169 -0.0220
   46CHL1  H19B 4552   4.745   7.083   3.315  0.7428 -1.0671 -0.7999
   46CHL1  H19C 4553   4.666   7.081   3.159  0.4764 -0.6606 -0.6226
   46CHL1    C1 4554   4.799   6.827   3.196 -0.9310  0.1849  0.1297
   46CHL1   H1A 4555   4.888   6.872   3.245  0.2604  1.1461 -2.6881
   46CHL1   H1B 4556   4.799   6.716   3.210  0.2499  0.2497  0.7807
   46CHL1    C2 4557   4.811   6.851   3.041 -0.4582 -0.3579 -0.5786
   46CHL1   H2A 4558   4.898   6.793   3.005  1.0110  0.6426  1.2190
   46CHL1   H2B 4559   4.846   6.953   3.017  0.0476 -0.2699  0.4948
   46CHL1   C20 4560   4.616   6.746   3.959  0.1520 -0.0143  0.0060
   46CHL1   H20 4561   4.571   6.839   3.998 -1.6114 -1.3233  1.2661
   46CHL1   C21 4562   4.769   6.754   3.959  0.5408 -0.1737 -0.0312
   46CHL1  H21A 4563   4.810   6.675   3.892  0.5826  0.5777 -0.9113
   46CHL1  H21B 4564   4.823   6.744   4.056  0.1637 -0.8881  0.1085
   46CHL1  H21C 4565   4.803   6.855   3.925  2.2924 -1.3537 -1.9990
   46CHL1   C22 4566   4.567   6.644   4.069  0.3825  0.0291 -0.1166
   46CHL1  H22A 4567   4.459   6.623   4.050 -0.6139  1.5201  3.1659
   46CHL1  H22B 4568   4.617   6.546   4.054  1.7592  0.3959  1.7202
   46CHL1   C23 4569   4.572   6.699   4.213 -0.2940 -0.7828  0.3315
   46CHL1  H23A 4570   4.678   6.712   4.246  0.2063 -1.9364 -0.7753
   46CHL1  H23B 4571   4.526   6.800   4.216 -0.3932 -0.7282 -1.8800
   46CHL1   C24 4572   4.516   6.600   4.315 -0.3457 -0.3054  0.4787
   46CHL1  H24A 4573   4.416   6.561   4.285  0.4437 -1.4174 -0.8311
   46CHL1  H24B 4574   4.572   6.504   4.308  0.6389  0.0672  2.4221
   46CHL1   C25 4575   4.519   6.641   4.463 -0.5787 -0.6371  0.2466
   46CHL1   H25 4576   4.616   6.681   4.500 -1.1707  0.1942  0.9192
   46CHL1   C26 4577   4.411   6.756   4.488  0.3423  0.0015 -0.1866
   46CHL1  H26A 4578   4.430   6.851   4.433 -0.4006  0.4978  0.3955
   46CHL1  H26B 4579   4.309   6.727   4.455  0.3565  1.1407 -1.3038
   46CHL1  H26C 4580   4.400   6.784   4.595 -1.2920  0.6179 -0.4834
   46CHL1   C27 4581   4.499   6.524   4.553 -0.1699 -0.4630  0.1070
   46CHL1  H27A 4582   4.573   6.442   4.542 -2.2677 -2.2997 -1.0755
   46CHL1  H27B 4583   4.510   6.561   4.657  1.5125  3.4675 -1.2872
   46CHL1  H27C 4584   4.396   6.487   4.532  0.4072 -0.6632 -2.7525
   47CHL1    C3 4585   3.826   3.192   6.113  0.1187  0.6985  0.5719
   47CHL1    H3 4586   3.872   3.292   6.097  1.1209 -0.0582 -1.8710
   47CHL1    O3 4587   3.817   3.159   6.250 -0.0375 -0.2559 -0.4613
   47CHL1   H3' 4588   3.910   3.155   6.273  0.6576  1.9293 -2.4232
   47CHL1    C4 4589   3.684   3.191   6.049 -1.0759  0.0577  0.0989
   47CHL1   H4A 4590   3.638   3.092   6.068  0.9282 -0.5601  2.1959
   47CHL1   H4B 4591   3.624   3.272   6.095  0.4137  1.0496  0.3830
   47CHL1    C5 4592   3.698   3.216   5.897  1.0797  0.5419  0.9864
   47CHL1    C6 4593   3.629   3.313   5.834  1.0081 -0.7532 -0.1725
   47CHL1    H6 4594   3.552   3.371   5.888  1.7125  0.2769 -0.2473
   47CHL1    C7 4595   3.630   3.335   5.686  0.3532 -0.3670 -0.4326
   47CHL1   H7A 4596   3.528   3.351   5.644  0.1496 -0.4855  0.0182
   47CHL1   H7B 4597   3.679   3.435   5.676 -0.1757 -0.2094 -1.7829
   47CHL1    C8 4598   3.708   3.234   5.604 -0.2352  0.5051  0.2046
   47CHL1    H8 4599   3.635   3.151   5.587 -1.3508  1.6508 -0.8286
   47CHL1   C14 4600   3.750   3.291   5.468  0.6237  0.2834 -0.0677
   47CHL1   H14 4601   3.818   3.374   5.497  1.3619 -0.1216 -0.6152
   47CHL1   C15 4602   3.641   3.359   5.374 -0.2498 -0.2046 -0.2583
   47CHL1  H15A 4603   3.554   3.291   5.366 -0.2736 -0.2790  0.5214
   47CHL1  H15B 4604   3.602   3.449   5.428 -0.7968 -1.2768  1.1912
   47CHL1   C16 4605   3.713   3.383   5.249  0.5173 -0.0979 -0.4438
   47CHL1  H16A 4606   3.647   3.351   5.166  0.6890 -0.3586 -0.4826
   47CHL1  H16B 4607   3.745   3.489   5.242  0.2624  0.0420  0.4743
   47CHL1   C17 4608   3.847   3.299   5.252 -0.0605  0.9503 -0.0065
   47CHL1   H17 4609   3.925   3.370   5.289  2.7423 -2.1836  0.5564
   47CHL1   C13 4610   3.831   3.197   5.370  0.7460 -0.5213  0.4170
   47CHL1   C18 4611   3.752   3.074   5.323 -0.2495  0.4447  0.3045
   47CHL1  H18A 4612   3.809   3.019   5.245  0.3908  2.3392 -0.6219
   47CHL1  H18B 4613   3.732   3.003   5.406  1.3454 -0.9089 -0.3981
   47CHL1  H18C 4614   3.657   3.109   5.278 -0.1067  2.7282  1.6013
   47CHL1   C12 4615   3.959   3.149   5.434  0.1759 -0.3114  0.1401
   47CHL1  H12A 4616   3.988   3.067   5.364 -0.0449  0.1622 -0.5154
   47CHL1  H12B 4617   4.036   3.229   5.431  0.3720 -0.5006  0.1015
   47CHL1   C11 4618   3.927   3.095   5.575  0.2612  0.7124 -0.5937
   47CHL1  H11A 4619   3.887   2.992   5.566 -0.3057  0.5223  2.8502
   47CHL1  H11B 4620   4.024   3.065   5.619 -1.1218 -1.1653  1.4175
   47CHL1    C9 4621   3.834   3.180   5.673 -0.4640  0.1316  0.0011
   47CHL1    H9 4622   3.900   3.266   5.697  0.3193 -0.5459  0.3410
   47CHL1   C10 4623   3.810   3.132   5.818 -0.0815  0.6728 -0.1293
   47CHL1   C19 4624   3.744   2.991   5.797  0.0052  0.8334 -0.1201
   47CHL1  H19A 4625   3.661   2.982   5.723 -0.1876 -0.3558  0.2178
   47CHL1  H19B 4626   3.826   2.919   5.777 -0.3636  0.3727  0.0110
   47CHL1  H19C 4627   3.695   2.961   5.892  0.4462 -1.2366 -0.4975
   47CHL1    C1 4628   3.944   3.122   5.903 -0.4550 -0.0546 -0.0092
   47CHL1   H1A 4629   4.015   3.045   5.866 -0.9204  0.1481 -1.3686
   47CHL1   H1B 4630   3.992   3.222   5.895 -1.2331  0.1824 -2.3447
   47CHL1    C2 4631   3.919   3.086   6.048  0.8496 -0.2891 -0.3702
   47CHL1   H2A 4632   4.015   3.084   6.103 -0.5557 -2.6341  2.2183
   47CHL1   H2B 4633   3.876   2.985   6.063  2.1278 -0.8702 -0.5511
   47CHL1   C20 4634   3.907   3.252   5.119  0.2868  0.1735 -0.1754
   47CHL1   H20 4635   3.857   3.160   5.082  0.4252  0.9159 -2.3161
   47CHL1   C21 4636   4.057   3.229   5.116 -0.1489  0.0761  0.2325
   47CHL1  H21A 4637   4.092   3.161   5.197  0.8284  0.1782 -0.0901
   47CHL1  H21B 4638   4.106   3.328   5.118 -0.4998  0.2451  0.7360
   47CHL1  H21C 4639   4.094   3.172   5.028  2.2096 -0.7222  1.6600
   47CHL1   C22 4640   3.891   3.356   5.006  0.4810 -0.2218 -0.1888
   47CHL1  H22A 4641   3.894   3.463   5.039 -3.0306  0.0282 -0.3055
   47CHL1  H22B 4642   3.965   3.337   4.926  0.0504 -1.7254 -0.2528
   47CHL1   C23 4643   3.770   3.317   4.913 -0.1937  0.1688  0.1336
   47CHL1  H23A 4644   3.799   3.220   4.866 -1.0185  0.8696 -1.9432
   47CHL1  H23B 4645   3.678   3.285   4.968 -0.6215 -2.1678 -1.7573
   47CHL1   C24 4646   3.725   3.422   4.805 -0.7630  0.9022 -0.9732
   47CHL1  H24A 4647   3.704   3.509   4.870 -2.0111  0.5806 -0.9308
   47CHL1  H24B 4648   3.814   3.437   4.740  2.9524 -0.2050  3.3252
   47CHL1   C25 4649   3.611   3.376   4.718  0.7161 -1.1321  0.5220
   47CHL1   H25 4650   3.619   3.271   4.683 -0.6631  0.4646 -5.9532
   47CHL1   C26 4651   3.483   3.385   4.798 -0.5126  0.0192 -0.1639
   47CHL1  H26A 4652   3.404   3.344   4.732  0.7555  0.3775 -2.0141
   47CHL1  H26B 4653   3.491   3.327   4.892 -1.0329  0.1931 -0.0114
   47CHL1  H26C 4654   3.476   3.495   4.812 -0.5651 -0.2455  2.2252
   47CHL1   C27 4655   3.593   3.460   4.591  0.9247  0.0240 -0.2883
   47CHL1  H27A 4656   3.488   3.472   4.557  0.2585 -0.1470  1.5852
   47CHL1  H27B 4657   3.616   3.565   4.621 -0.3601  0.3620 -0.4274
   47CHL1  H27C 4658   3.645   3.426   4.498  1.6119  1.1079 -0.3260
   48CHL1    C3 4659   4.829   5.528   5.999 -0.0847  0.2078  0.2925
   48CHL1    H3 4660   4.905   5.605   5.970  1.5999 -1.3438  0.4305
   48CHL1    O3 4661   4.830   5.514   6.138  0.4725 -0.2113  0.1213
   48CHL1   H3' 4662   4.750   5.465   6.159  0.3370  0.4594  1.2594
   48CHL1    C4 4663   4.682   5.556   5.956 -0.0960 -0.5259 -0.1610
   48CHL1   H4A 4664   4.605   5.478   5.971 -0.7244 -0.4688 -2.7215
   48CHL1   H4B 4665   4.650   5.644   6.016  0.6930 -0.0635 -0.3961
   48CHL1    C5 4666   4.688   5.587   5.807 -0.2915  1.2857 -0.3570
   48CHL1    C6 4667   4.660   5.709   5.759 -0.2315  0.3457 -0.2297
   48CHL1    H6 4668   4.634   5.792   5.826 -0.2728  1.6112 -1.7312
   48CHL1    C7 4669   4.672   5.753   5.616  0.4576  0.0498 -0.2060
   48CHL1   H7A 4670   4.592   5.824   5.587  0.0637 -0.6698 -0.9301
   48CHL1   H7B 4671   4.768   5.801   5.588  0.8247  0.0653  1.0246
   48CHL1    C8 4672   4.677   5.635   5.526  0.5225  0.2491  0.8301
   48CHL1    H8 4673   4.574   5.597   5.508  0.7645 -0.2273  0.4166
   48CHL1   C14 4674   4.738   5.676   5.392 -0.2719 -0.0046  0.9410
   48CHL1   H14 4675   4.848   5.687   5.404 -0.4085  1.4736  1.0211
   48CHL1   C15 4676   4.687   5.802   5.334 -0.5403  0.4469 -0.2578
   48CHL1  H15A 4677   4.576   5.797   5.325 -0.5002 -0.0586 -0.5373
   48CHL1  H15B 4678   4.715   5.896   5.386 -3.5479 -0.1806  2.8785
   48CHL1   C16 4679   4.735   5.793   5.187  0.4715 -0.4397  1.2465
   48CHL1  H16A 4680   4.651   5.826   5.123  0.8223 -1.5917  0.1559
   48CHL1  H16B 4681   4.814   5.869   5.170 -1.8565  1.7271 -0.6082
   48CHL1   C17 4682   4.774   5.642   5.160 -0.8501  0.5004 -0.6931
   48CHL1   H17 4683   4.885   5.638   5.169 -0.8102  1.0495 -0.8688
   48CHL1   C13 4684   4.726   5.563   5.284  0.0742 -0.3477 -0.0091
   48CHL1   C18 4685   4.581   5.509   5.254  0.2659  0.3739 -0.0647
   48CHL1  H18A 4686   4.530   5.451   5.334  1.1824 -1.6993 -0.9161
   48CHL1  H18B 4687   4.513   5.595   5.233  0.4179 -0.0118 -2.3697
   48CHL1  H18C 4688   4.569   5.443   5.165 -0.5974  0.0671  0.2650
   48CHL1   C12 4689   4.823   5.443   5.330 -0.0178 -0.4978 -0.2376
   48CHL1  H12A 4690   4.815   5.358   5.259  1.0257 -1.1241  0.3751
   48CHL1  H12B 4691   4.929   5.476   5.328 -0.4415  0.9171 -0.2853
   48CHL1   C11 4692   4.779   5.401   5.472 -0.0454 -0.1221  0.3198
   48CHL1  H11A 4693   4.686   5.340   5.465  1.6447 -2.7267 -1.2164
   48CHL1  H11B 4694   4.847   5.324   5.513 -1.4145 -1.9981 -0.7532
   48CHL1    C9 4695   4.770   5.518   5.578  0.5586 -0.2644 -0.3846
   48CHL1    H9 4696   4.867   5.571   5.575 -0.7958  2.3416 -1.9981
   48CHL1   C10 4697   4.735   5.461   5.720  0.0846  0.4192 -0.2221
   48CHL1   C19 4698   4.629   5.354   5.722  0.3152 -0.3162  0.7564
   48CHL1  H19A 4699   4.613   5.315   5.825 -1.0978 -0.1402  0.6221
   48CHL1  H19B 4700   4.534   5.386   5.673  1.4193  0.4788 -0.9686
   48CHL1  H19C 4701   4.654   5.261   5.666  2.7745  0.2637  0.8141
   48CHL1    C1 4702   4.862   5.398   5.778 -0.3768  0.3361 -0.3401
   48CHL1   H1A 4703   4.883   5.293   5.749  2.4723  0.2434  1.6282
   48CHL1   H1B 4704   4.945   5.460   5.740  2.5390 -2.1712  1.4493
   48CHL1    C2 4705   4.864   5.392   5.932 -0.1220 -0.6015  0.5106
   48CHL1   H2A 4706   4.967   5.361   5.959 -1.0457 -3.5111  0.9877
   48CHL1   H2B 4707   4.797   5.314   5.973 -2.1436  0.2315 -1.0190
   48CHL1   C20 4708   4.741   5.596   5.019  0.2755  0.7694  0.2523
   48CHL1   H20 4709   4.631   5.582   5.029  0.4153 -0.6528  0.0075
   48CHL1   C21 4710   4.804   5.457   4.991 -0.4587  0.2981  0.1106
   48CHL1  H21A 4711   4.911   5.463   5.021  0.0309  0.7025 -1.6050
   48CHL1  H21B 4712   4.756   5.377   5.051  0.2839 -0.0662  0.2317
   48CHL1  H21C 4713   4.795   5.432   4.883 -1.6575  1.9603 -0.2128
   48CHL1   C22 4714   4.756   5.697   4.902 -0.5114  0.0670 -0.3034
   48CHL1  H22A 4715   4.734   5.642   4.808 -0.4253  1.5227 -1.2104
   48CHL1  H22B 4716   4.674   5.771   4.897 -1.0956 -0.4040  1.4462
   48CHL1   C23 4717   4.889   5.771   4.897  0.0283  0.1681 -0.1955
   48CHL1  H23A 4718   4.923   5.826   4.987  0.8810 -0.0914 -0.3469
   48CHL1  H23B 4719   4.961   5.687   4.885 -1.6267 -1.1913 -1.1648
   48CHL1   C24 4720   4.910   5.851   4.768 -0.7886  0.3274 -0.5348
   48CHL1  H24A 4721   4.899   5.796   4.672  0.3712  0.1309 -0.5579
   48CHL1  H24B 4722   4.830   5.929   4.766  0.1520  1.3716  0.4393
   48CHL1   C25 4723   5.048   5.920   4.754  0.3213  0.3425  0.3090
   48CHL1   H25 4724   5.065   5.977   4.848  1.6661 -1.0701  0.9712
   48CHL1   C26 4725   5.169   5.823   4.746  0.3687 -0.4493  1.3623
   48CHL1  H26A 4726   5.148   5.753   4.663 -1.5817  0.3182  1.1480
   48CHL1  H26B 4727   5.257   5.884   4.718  0.7990 -0.7800  1.9583
   48CHL1  H26C 4728   5.205   5.770   4.837  0.0557 -0.9322  1.2119
   48CHL1   C27 4729   5.043   6.019   4.640 -0.1974 -0.2013 -0.2326
   48CHL1  H27A 4730   5.130   6.088   4.630  0.3318 -0.8294 -0.0484
   48CHL1  H27B 4731   5.039   5.960   4.547  0.3408 -1.9961  0.8409
   48CHL1  H27C 4732   4.959   6.091   4.650 -0.0998  0.0637 -1.2371
   49CHL1    C3 4733   3.441   5.905   3.007 -0.3061 -0.9678  0.1181
   49CHL1    H3 4734   3.545   5.891   3.044 -0.2500 -0.3191  0.2169
   49CHL1    O3 4735   3.429   5.959   2.875 -0.0184 -0.5030  0.3650
   49CHL1   H3' 4736   3.464   6.049   2.878 -0.5277 -0.0966 -2.4645
   49CHL1    C4 4737   3.372   5.766   3.026  0.6173  0.2639  0.2484
   49CHL1   H4A 4738   3.266   5.787   2.998  1.1791  2.4782 -0.3784
   49CHL1   H4B 4739   3.416   5.686   2.962 -1.8953 -0.7987 -0.2986
   49CHL1    C5 4740   3.376   5.735   3.179 -0.0961  0.2269 -0.4789
   49CHL1    C6 4741   3.433   5.626   3.217 -0.1236  0.6033 -0.2727
   49CHL1    H6 4742   3.482   5.557   3.147  0.5136 -1.0333  1.6664
   49CHL1    C7 4743   3.436   5.561   3.354 -0.1192 -0.3337  0.2984
   49CHL1   H7A 4744   3.388   5.462   3.339 -1.4232  0.2599  0.4039
   49CHL1   H7B 4745   3.538   5.559   3.398 -0.1753  0.8242  0.5158
   49CHL1    C8 4746   3.343   5.631   3.453 -0.4362  0.0638  0.6598
   49CHL1    H8 4747   3.239   5.604   3.426 -0.6842  3.2320 -2.1398
   49CHL1   C14 4748   3.370   5.584   3.597 -0.6085  0.2549 -0.0960
   49CHL1   H14 4749   3.479   5.608   3.602 -0.9315  1.9791 -0.4404
   49CHL1   C15 4750   3.364   5.437   3.638  0.4362 -0.1706  0.4760
   49CHL1  H15A 4751   3.265   5.400   3.606  0.9930 -0.0698 -1.5165
   49CHL1  H15B 4752   3.451   5.383   3.595  1.3552  1.8422 -0.3424
   49CHL1   C16 4753   3.367   5.452   3.791 -0.5762 -0.0043 -0.0750
   49CHL1  H16A 4754   3.277   5.396   3.821 -2.2027  0.8179 -2.9927
   49CHL1  H16B 4755   3.461   5.400   3.819 -1.1156 -1.0050 -0.0866
   49CHL1   C17 4756   3.357   5.601   3.825  0.0919 -0.3000  0.1858
   49CHL1   H17 4757   3.464   5.632   3.830  0.2741 -0.7201 -0.9017
   49CHL1   C13 4758   3.298   5.666   3.702  0.5520  0.1792 -0.6975
   49CHL1   C18 4759   3.144   5.640   3.692 -0.2500  1.1457  0.8590
   49CHL1  H18A 4760   3.086   5.719   3.746 -0.7012  0.4775  1.3676
   49CHL1  H18B 4761   3.116   5.649   3.585  0.7259 -2.9017  0.1085
   49CHL1  H18C 4762   3.122   5.539   3.732  1.2209  0.1515 -0.7427
   49CHL1   C12 4763   3.322   5.819   3.682  0.5006  0.5182 -0.0171
   49CHL1  H12A 4764   3.254   5.874   3.750  1.5812  1.5985  0.2203
   49CHL1  H12B 4765   3.427   5.847   3.708  1.0915 -0.4697 -1.2642
   49CHL1   C11 4766   3.292   5.862   3.537  0.1453 -0.6370 -0.0183
   49CHL1  H11A 4767   3.182   5.863   3.524  0.1401  0.6052 -0.0394
   49CHL1  H11B 4768   3.316   5.971   3.537 -2.3698 -0.0284  0.4370
   49CHL1    C9 4769   3.358   5.787   3.425 -0.3248 -0.4032  0.1291
   49CHL1    H9 4770   3.463   5.816   3.447 -0.5540  0.4510  0.1299
   49CHL1   C10 4771   3.317   5.839   3.280 -0.6955  0.5687  0.4441
   49CHL1   C19 4772   3.167   5.842   3.264 -0.2782 -0.2971 -0.1266
   49CHL1  H19A 4773   3.155   5.884   3.162 -2.5415 -2.1629 -0.7130
   49CHL1  H19B 4774   3.127   5.739   3.265  0.9213 -0.7882 -0.6937
   49CHL1  H19C 4775   3.119   5.906   3.341  0.2636 -0.9994  0.8086
   49CHL1    C1 4776   3.382   5.977   3.255 -0.3952  0.3858 -0.2110
   49CHL1   H1A 4777   3.328   6.055   3.313 -0.1693  1.0778 -0.9096
   49CHL1   H1B 4778   3.486   5.966   3.290 -1.0529 -0.8490  1.4704
   49CHL1    C2 4779   3.377   6.008   3.104 -0.4133  0.0146  0.0480
   49CHL1   H2A 4780   3.420   6.108   3.085  1.3076 -0.7913 -0.5599
   49CHL1   H2B 4781   3.270   6.010   3.074 -0.6518 -4.1207 -0.0342
   49CHL1   C20 4782   3.300   5.623   3.965  0.3953 -0.0574 -0.1637
   49CHL1   H20 4783   3.190   5.612   3.961  0.3513 -0.5487  1.6002
   49CHL1   C21 4784   3.316   5.772   4.010 -0.1190 -0.0120  0.2662
   49CHL1  H21A 4785   3.421   5.804   4.020 -1.3385  4.2903  1.2116
   49CHL1  H21B 4786   3.255   5.797   4.100 -0.6647  0.6493 -0.2760
   49CHL1  H21C 4787   3.267   5.841   3.938 -2.0470 -1.6959 -0.1478
   49CHL1   C22 4788   3.362   5.525   4.069 -0.2017  0.6296  0.5116
   49CHL1  H22A 4789   3.331   5.421   4.045  0.6700  0.2762  0.8755
   49CHL1  H22B 4790   3.473   5.528   4.070 -0.1849  0.4066 -0.3212
   49CHL1   C23 4791   3.322   5.553   4.216 -0.0068 -0.3546  0.4584
   49CHL1  H23A 4792   3.390   5.493   4.280 -0.0813 -2.2129 -1.1047
   49CHL1  H23B 4793   3.342   5.660   4.242 -0.6804 -0.2012  0.3765
   49CHL1   C24 4794   3.182   5.510   4.246 -0.6291 -0.2981  0.0389
   49CHL1  H24A 4795   3.117   5.593   4.209 -1.3907 -1.5095 -1.4446
   49CHL1  H24B 4796   3.166   5.426   4.176 -2.2248 -0.4308  0.5093
   49CHL1   C25 4797   3.141   5.456   4.378 -0.3490  0.2625 -0.0718
   49CHL1   H25 4798   3.031   5.450   4.365 -0.2592 -1.1187 -0.3190
   49CHL1   C26 4799   3.198   5.324   4.431  0.5821 -0.7178 -0.3707
   49CHL1  H26A 4800   3.304   5.349   4.453  0.0244  0.0860  1.6257
   49CHL1  H26B 4801   3.159   5.310   4.534  0.3361 -1.4476 -0.5590
   49CHL1  H26C 4802   3.173   5.240   4.363 -0.9884 -0.6112  0.0463
   49CHL1   C27 4803   3.159   5.563   4.486 -0.1001 -0.1184 -0.6088
   49CHL1  H27A 4804   3.148   5.526   4.590  3.1568  1.9772  0.6607
   49CHL1  H27B 4805   3.266   5.595   4.483 -0.1837  0.1012 -1.4211
   49CHL1  H27C 4806   3.084   5.637   4.453 -2.1735 -2.2944 -1.0348
   50CHL1    C3 4807   1.711   1.436   3.163 -0.0546  0.2262  0.4284
   50CHL1    H3 4808   1.631   1.513   3.173 -0.3279  0.2769 -1.7556
   50CHL1    O3 4809   1.751   1.421   3.029  0.1975  0.7140 -0.2842
   50CHL1   H3' 4810   1.679   1.463   2.981  0.6373  0.9383 -0.7538
   50CHL1    C4 4811   1.836   1.483   3.247  0.4519 -0.2792 -0.4789
   50CHL1   H4A 4812   1.925   1.417   3.236  0.2039 -1.0990  1.8991
   50CHL1   H4B 4813   1.884   1.573   3.203 -0.3444  0.4783  0.1764
   50CHL1    C5 4814   1.799   1.495   3.400 -0.4908 -0.2929 -0.3817
   50CHL1    C6 4815   1.820   1.610   3.473 -0.2278  0.2056  0.5316
   50CHL1    H6 4816   1.868   1.703   3.438 -0.8378  0.4951  0.4500
   50CHL1    C7 4817   1.805   1.612   3.624  0.3562  0.0049 -0.2203
   50CHL1   H7A 4818   1.898   1.645   3.675  0.8410 -0.6686 -0.6306
   50CHL1   H7B 4819   1.731   1.688   3.654  2.2526  1.8599  0.0009
   50CHL1    C8 4820   1.773   1.464   3.682 -0.1016 -0.7358 -0.3193
   50CHL1    H8 4821   1.863   1.400   3.699  1.5004  1.5883  0.3645
   50CHL1   C14 4822   1.709   1.478   3.815 -0.2549 -0.2022  0.5248
   50CHL1   H14 4823   1.620   1.545   3.808  0.3590  0.5535 -0.2159
   50CHL1   C15 4824   1.788   1.562   3.929 -0.1486  0.3375  0.1470
   50CHL1  H15A 4825   1.895   1.532   3.931 -0.8018 -2.5778  4.2002
   50CHL1  H15B 4826   1.778   1.670   3.908  0.4028  0.8027  2.0192
   50CHL1   C16 4827   1.715   1.518   4.056  0.4789  0.4353  0.2814
   50CHL1  H16A 4828   1.777   1.462   4.129  2.1818  0.3901 -1.1597
   50CHL1  H16B 4829   1.676   1.606   4.111  1.9529  0.6663  1.0080
   50CHL1   C17 4830   1.606   1.417   4.014 -0.3684 -0.7324  0.0687
   50CHL1   H17 4831   1.520   1.484   3.991  0.1106  0.3145  1.2269
   50CHL1   C13 4832   1.652   1.354   3.883 -0.5504  0.9468 -0.4886
   50CHL1   C18 4833   1.765   1.248   3.912  0.2048 -0.5053 -0.5232
   50CHL1  H18A 4834   1.791   1.199   3.816 -1.6106 -2.1269 -0.2496
   50CHL1  H18B 4835   1.854   1.300   3.954  1.0311 -1.9252 -0.4803
   50CHL1  H18C 4836   1.739   1.163   3.979 -2.2524 -0.8438 -1.7962
   50CHL1   C12 4837   1.543   1.301   3.795  0.2677 -1.0192  0.1946
   50CHL1  H12A 4838   1.501   1.206   3.834  0.4757 -0.2910  2.3500
   50CHL1  H12B 4839   1.457   1.371   3.793  0.0120 -1.2606  1.7155
   50CHL1   C11 4840   1.588   1.275   3.647  0.0448  0.0772 -0.9679
   50CHL1  H11A 4841   1.658   1.189   3.654  1.5161  1.2350 -0.8700
   50CHL1  H11B 4842   1.504   1.246   3.580 -0.6562  0.9787 -0.5033
   50CHL1    C9 4843   1.669   1.393   3.591 -0.1625  0.1939  0.6002
   50CHL1    H9 4844   1.593   1.473   3.589 -0.5683 -0.1694  1.1957
   50CHL1   C10 4845   1.731   1.366   3.449  0.4237 -0.9540  0.4905
   50CHL1   C19 4846   1.839   1.254   3.459  0.5006 -0.0235  0.1023
   50CHL1  H19A 4847   1.911   1.286   3.538 -0.0090  0.6081  0.3204
   50CHL1  H19B 4848   1.800   1.153   3.483  0.1991  0.2912  0.9794
   50CHL1  H19C 4849   1.894   1.237   3.364 -0.4393  0.5777 -0.5666
   50CHL1    C1 4850   1.618   1.312   3.360 -0.1798 -0.2680 -0.1676
   50CHL1   H1A 4851   1.595   1.209   3.392  1.7321 -0.1549  1.7719
   50CHL1   H1B 4852   1.533   1.384   3.365  0.0170 -0.1002  0.9826
   50CHL1    C2 4853   1.664   1.305   3.216  0.4167 -0.4984  0.3991
   50CHL1   H2A 4854   1.580   1.261   3.159  2.0516 -1.5374 -1.2971
   50CHL1   H2B 4855   1.743   1.228   3.216  0.1947 -0.7534  1.8065
   50CHL1   C20 4856   1.571   1.324   4.130 -0.1689 -0.2078  0.0973
   50CHL1   H20 4857   1.657   1.265   4.168  0.7310  0.4976 -0.8094
   50CHL1   C21 4858   1.442   1.233   4.105  0.0043  0.0376  0.2248
   50CHL1  H21A 4859   1.466   1.145   4.042  0.7394 -0.6888  1.4741
   50CHL1  H21B 4860   1.367   1.298   4.057 -1.6213 -2.1581 -0.3887
   50CHL1  H21C 4861   1.399   1.197   4.201  2.6918 -1.4921  0.9688
   50CHL1   C22 4862   1.537   1.411   4.257  0.0004  0.8092 -0.2525
   50CHL1  H22A 4863   1.611   1.492   4.274 -0.7065  1.1398  1.5186
   50CHL1  H22B 4864   1.441   1.465   4.248 -0.3714  0.0894 -0.7574
   50CHL1   C23 4865   1.523   1.317   4.384  0.0594  0.2635  0.2264
   50CHL1  H23A 4866   1.438   1.246   4.376 -0.4821  0.9019  0.1329
   50CHL1  H23B 4867   1.614   1.254   4.387 -0.2705 -0.1991  0.7421
   50CHL1   C24 4868   1.509   1.397   4.516  0.6476  0.3655 -0.3078
   50CHL1  H24A 4869   1.597   1.465   4.522  1.0652  0.0096 -1.9992
   50CHL1  H24B 4870   1.422   1.466   4.512  0.6962  0.6044  1.6883
   50CHL1   C25 4871   1.507   1.301   4.638  0.6833 -0.0806 -0.7688
   50CHL1   H25 4872   1.431   1.223   4.617  1.0767 -0.9927  1.0075
   50CHL1   C26 4873   1.641   1.225   4.655 -0.0584  0.0833 -0.4692
   50CHL1  H26A 4874   1.652   1.146   4.578 -0.7083 -0.9556  0.4832
   50CHL1  H26B 4875   1.718   1.304   4.667 -0.8206  0.7143  0.4298
   50CHL1  H26C 4876   1.635   1.166   4.749 -1.3841  0.1943 -0.4638
   50CHL1   C27 4877   1.465   1.366   4.774 -0.1111 -0.3083  0.0170
   50CHL1  H27A 4878   1.522   1.461   4.773  0.7978 -0.7294  2.5235
   50CHL1  H27B 4879   1.360   1.399   4.791  0.7452  1.9750  1.3388
   50CHL1  H27C 4880   1.502   1.310   4.863  3.7974 -0.4654 -1.5129
   51CHL1    C3 4881   3.193   7.009   3.065 -0.0848 -0.2454  0.6292
   51CHL1    H3 4882   3.297   7.014   3.103 -0.5394 -0.0838  1.9044
   51CHL1    O3 4883   3.190   7.046   2.929 -0.1420  0.3116  0.4100
   51CHL1   H3' 4884   3.101   7.040   2.894  0.5021 -0.3644 -1.1932
   51CHL1    C4 4885   3.129   6.881   3.099  0.1558 -0.2856  0.6698
   51CHL1   H4A 4886   3.022   6.883   3.069  0.1904 -0.4220  0.5367
   51CHL1   H4B 4887   3.172   6.800   3.036  0.9283  0.7182 -0.1132
   51CHL1    C5 4888   3.145   6.852   3.248  0.2927 -0.5854  0.6987
   51CHL1    C6 4889   3.199   6.731   3.281 -0.5102  0.6502 -0.2620
   51CHL1    H6 4890   3.236   6.668   3.200  1.1860  0.6214  0.4915
   51CHL1    C7 4891   3.199   6.691   3.426 -0.1332  0.2850 -0.3807
   51CHL1   H7A 4892   3.174   6.583   3.427  0.4130  0.1554  0.0648
   51CHL1   H7B 4893   3.304   6.693   3.463 -0.0483  0.3239 -0.6245
   51CHL1    C8 4894   3.118   6.775   3.525  0.3601  0.3416  0.2932
   51CHL1    H8 4895   3.014   6.736   3.520  1.3781 -2.6445  0.0206
   51CHL1   C14 4896   3.166   6.750   3.666  0.1874  0.0250 -0.3167
   51CHL1   H14 4897   3.270   6.791   3.664 -0.9442  3.1627 -0.9694
   51CHL1   C15 4898   3.177   6.606   3.712  0.6517 -0.3391 -0.2294
   51CHL1  H15A 4899   3.083   6.551   3.690  1.0381 -0.5641 -1.3550
   51CHL1  H15B 4900   3.263   6.551   3.667  1.2403  0.0974  0.3455
   51CHL1   C16 4901   3.170   6.614   3.867 -0.3757 -0.2936  0.7899
   51CHL1  H16A 4902   3.082   6.558   3.906 -0.0699 -0.8011  0.7657
   51CHL1  H16B 4903   3.267   6.572   3.903 -0.7594 -2.0043 -0.0651
   51CHL1   C17 4904   3.157   6.766   3.906  0.1915 -0.4574  0.0011
   51CHL1   H17 4905   3.257   6.813   3.917 -0.7372  1.8589 -0.9400
   51CHL1   C13 4906   3.093   6.835   3.779 -0.9841 -0.0846  0.0691
   51CHL1   C18 4907   2.947   6.819   3.776  0.1727 -0.3460  0.2585
   51CHL1  H18A 4908   2.905   6.885   3.854 -1.3543  1.2267 -1.7782
   51CHL1  H18B 4909   2.899   6.845   3.679  4.1817  1.1422 -1.5455
   51CHL1  H18C 4910   2.923   6.712   3.796 -1.4366  0.0621  0.6566
   51CHL1   C12 4911   3.122   6.984   3.744 -0.1730  0.0570  0.1826
   51CHL1  H12A 4912   3.057   7.049   3.806  1.4987  1.4662  0.5266
   51CHL1  H12B 4913   3.226   7.014   3.770 -0.0421 -0.6647  0.5196
   51CHL1   C11 4914   3.076   7.016   3.605  0.1132 -1.1823  0.9954
   51CHL1  H11A 4915   2.965   7.019   3.606  0.0319 -0.0040 -1.6699
   51CHL1  H11B 4916   3.106   7.119   3.574 -1.0022 -1.6268 -1.8817
   51CHL1    C9 4917   3.135   6.925   3.494 -0.2451 -0.1313 -0.6795
   51CHL1    H9 4918   3.245   6.941   3.495 -0.2979  0.2487 -0.2002
   51CHL1   C10 4919   3.083   6.963   3.345 -1.1863 -0.6379  0.5714
   51CHL1   C19 4920   2.929   6.964   3.328  0.2058  0.2144  0.5231
   51CHL1  H19A 4921   2.889   6.969   3.224 -0.1909  0.9924  0.7053
   51CHL1  H19B 4922   2.879   6.874   3.368  1.9993 -0.9873  0.1996
   51CHL1  H19C 4923   2.898   7.059   3.377  1.2876  2.3374 -2.5241
   51CHL1    C1 4924   3.139   7.102   3.296  0.1803  0.2630  0.3528
   51CHL1   H1A 4925   3.088   7.188   3.345  1.5901  0.7949  0.9578
   51CHL1   H1B 4926   3.248   7.116   3.313  0.7471  0.2657 -2.7172
   51CHL1    C2 4927   3.119   7.125   3.144 -0.6035  0.5446  0.1409
   51CHL1   H2A 4928   3.157   7.221   3.103 -0.1134  0.1840 -0.2653
   51CHL1   H2B 4929   3.012   7.122   3.113 -1.0033  2.5023  1.1471
   51CHL1   C20 4930   3.089   6.785   4.040  0.7587 -0.9262  0.2720
   51CHL1   H20 4931   2.985   6.748   4.027  0.0143  1.3693 -0.8554
   51CHL1   C21 4932   3.087   6.939   4.070 -0.2343 -0.6116 -0.4196
   51CHL1  H21A 4933   3.029   6.994   3.993  3.3378  2.6197 -1.0815
   51CHL1  H21B 4934   3.190   6.979   4.079 -1.0325  1.3016  0.8447
   51CHL1  H21C 4935   3.037   6.963   4.166  1.0669 -1.2115  0.4367
   51CHL1   C22 4936   3.166   6.705   4.145  0.3892  0.5105  0.2160
   51CHL1  H22A 4937   3.157   6.598   4.118  0.3344  0.2684  1.1517
   51CHL1  H22B 4938   3.272   6.739   4.146  0.2003  1.1076  0.9791
   51CHL1   C23 4939   3.105   6.723   4.281  0.5839  0.7503  0.0507
   51CHL1  H23A 4940   3.116   6.827   4.317  0.0242  0.5737  0.7731
   51CHL1  H23B 4941   2.995   6.705   4.280  0.9305 -1.8193 -0.5170
   51CHL1   C24 4942   3.167   6.624   4.389  0.5346 -0.0563 -0.7592
   51CHL1  H24A 4943   3.136   6.526   4.348 -3.5591  0.8559 -0.2944
   51CHL1  H24B 4944   3.277   6.637   4.392  0.6758 -1.0563 -1.2513
   51CHL1   C25 4945   3.094   6.643   4.527  0.7621 -0.2548  0.3468
   51CHL1   H25 4946   2.986   6.659   4.506  0.7453 -1.9953 -1.1704
   51CHL1   C26 4947   3.116   6.523   4.622  0.6478 -0.1652  0.1990
   51CHL1  H26A 4948   3.212   6.546   4.673  0.0262  1.0353  0.8784
   51CHL1  H26B 4949   3.039   6.520   4.703 -0.0699 -0.0249 -0.4652
   51CHL1  H26C 4950   3.117   6.426   4.568 -1.6667  0.6344 -1.4131
   51CHL1   C27 4951   3.139   6.777   4.584  0.0998 -0.1466 -0.1079
   51CHL1  H27A 4952   3.108   6.799   4.689  0.6933  2.1728 -0.3533
   51CHL1  H27B 4953   3.248   6.793   4.568  0.1185  1.0218  1.0259
   51CHL1  H27C 4954   3.081   6.860   4.538 -2.2510 -0.4436  2.0593
   52CHL1    C3 4955   0.313   3.803   5.912 -0.2476  0.0824  0.1743
   52CHL1    H3 4956   0.403   3.849   5.960  0.0173 -0.6903  0.4292
   52CHL1    O3 4957   0.235   3.736   6.014 -0.0245 -0.3114  0.0738
   52CHL1   H3' 4958   0.301   3.716   6.082 -1.4598  1.1490  2.0156
   52CHL1    C4 4959   0.229   3.927   5.858 -0.3234  0.4423  0.0128
   52CHL1   H4A 4960   0.135   3.872   5.832  0.9732 -1.2735 -1.3021
   52CHL1   H4B 4961   0.214   3.997   5.942 -2.7711 -0.7530  0.6879
   52CHL1    C5 4962   0.289   3.976   5.724  1.2710  0.1246  0.7907
   52CHL1    C6 4963   0.313   4.102   5.695 -1.2857 -1.4543  0.0133
   52CHL1    H6 4964   0.299   4.171   5.780 -0.1710 -1.4203  0.1778
   52CHL1    C7 4965   0.359   4.162   5.569  0.8466 -0.4852  0.2696
   52CHL1   H7A 4966   0.286   4.240   5.540  0.4729 -0.1397  2.0400
   52CHL1   H7B 4967   0.461   4.203   5.584  0.2741  0.9967  0.3210
   52CHL1    C8 4968   0.354   4.061   5.449  0.2721 -0.4313  0.8023
   52CHL1    H8 4969   0.250   4.058   5.410  1.2816  2.7756 -2.6820
   52CHL1   C14 4970   0.427   4.113   5.325 -1.1595 -0.3555 -0.4051
   52CHL1   H14 4971   0.527   4.116   5.374 -2.0341 -0.1589  1.4791
   52CHL1   C15 4972   0.411   4.257   5.274  0.0882  0.1637  0.9431
   52CHL1  H15A 4973   0.302   4.264   5.255  0.2796 -0.9350 -0.8517
   52CHL1  H15B 4974   0.444   4.321   5.358 -1.2771  0.0558  1.5705
   52CHL1   C16 4975   0.483   4.259   5.136  0.0910 -0.7085  0.3160
   52CHL1  H16A 4976   0.420   4.302   5.055  0.0897  0.5998  0.9909
   52CHL1  H16B 4977   0.565   4.334   5.141 -1.7030  1.3126  0.8469
   52CHL1   C17 4978   0.523   4.112   5.109  0.2479  0.1093 -0.4365
   52CHL1   H17 4979   0.629   4.115   5.141  1.0025  1.9991 -2.7993
   52CHL1   C13 4980   0.431   4.025   5.205  0.0949  0.1048 -0.0025
   52CHL1   C18 4981   0.294   4.009   5.140 -0.1380 -0.3458  0.2588
   52CHL1  H18A 4982   0.249   4.105   5.106 -0.2643 -1.2071 -2.2080
   52CHL1  H18B 4983   0.303   3.937   5.056  1.8275  0.1788 -0.0562
   52CHL1  H18C 4984   0.217   3.958   5.200 -0.8001 -0.4301 -0.6365
   52CHL1   C12 4985   0.491   3.888   5.252  0.2113 -0.1829 -0.1061
   52CHL1  H12A 4986   0.497   3.820   5.164 -0.4885  2.2388 -2.1483
   52CHL1  H12B 4987   0.589   3.920   5.293 -0.3897  2.3292 -0.4136
   52CHL1   C11 4988   0.405   3.829   5.363 -0.2428  0.0841  0.5367
   52CHL1  H11A 4989   0.304   3.801   5.328 -0.5057 -0.1284  1.4408
   52CHL1  H11B 4990   0.457   3.734   5.388  0.4598  0.2021 -0.4190
   52CHL1    C9 4991   0.398   3.923   5.491 -0.4771  0.2446 -0.5883
   52CHL1    H9 4992   0.504   3.936   5.521 -1.1971 -0.4185  2.6587
   52CHL1   C10 4993   0.318   3.872   5.617  0.1957  0.2082 -0.4462
   52CHL1   C19 4994   0.178   3.816   5.570  0.3472 -0.0843  0.5445
   52CHL1  H19A 4995   0.125   3.892   5.509  0.4272  0.9418  1.7316
   52CHL1  H19B 4996   0.186   3.724   5.508 -2.4923 -0.4416  0.5883
   52CHL1  H19C 4997   0.105   3.800   5.652  0.6388  0.9537  1.0149
   52CHL1    C1 4998   0.403   3.761   5.678 -0.8997  0.5589 -0.1806
   52CHL1   H1A 4999   0.428   3.687   5.600  0.5434  1.6682 -0.8395
   52CHL1   H1B 5000   0.502   3.806   5.701  1.1081 -2.1915 -2.7241
   52CHL1    C2 5001   0.347   3.700   5.808  0.5700  0.4360 -0.1786
   52CHL1   H2A 5002   0.424   3.634   5.852  0.6028  0.7450  0.2295
   52CHL1   H2B 5003   0.253   3.644   5.789 -0.5903  1.2057  2.7114
   52CHL1   C20 5004   0.536   4.076   4.959 -0.4216 -0.1220  0.2327
   52CHL1   H20 5005   0.433   4.080   4.918 -0.6054  0.7346  0.7605
   52CHL1   C21 5006   0.593   3.934   4.932 -0.2220 -0.8939 -0.2422
   52CHL1  H21A 5007   0.632   3.922   4.829  0.4869 -0.1111 -0.0719
   52CHL1  H21B 5008   0.512   3.861   4.951 -0.0106 -1.0103  0.2209
   52CHL1  H21C 5009   0.680   3.912   4.998 -0.0732  1.3138  0.3903
   52CHL1   C22 5010   0.627   4.178   4.891 -0.8726  0.3318 -0.0525
   52CHL1  H22A 5011   0.607   4.283   4.922 -0.3099  0.6707 -0.8220
   52CHL1  H22B 5012   0.731   4.141   4.902 -1.5832 -1.8764 -0.3581
   52CHL1   C23 5013   0.585   4.181   4.742  0.2860  0.7298  0.1838
   52CHL1  H23A 5014   0.596   4.083   4.689  3.1255  0.4104  1.1550
   52CHL1  H23B 5015   0.475   4.192   4.743  0.2093  0.0247  0.8567
   52CHL1   C24 5016   0.681   4.277   4.663  0.7111  0.7032 -0.2480
   52CHL1  H24A 5017   0.636   4.279   4.562 -0.5759 -2.9352  0.0919
   52CHL1  H24B 5018   0.681   4.374   4.718  0.8464  0.9798 -0.7367
   52CHL1   C25 5019   0.825   4.229   4.652 -0.5064 -0.4541 -0.0119
   52CHL1   H25 5020   0.868   4.217   4.754  0.0743  0.8660 -0.0787
   52CHL1   C26 5021   0.849   4.102   4.564  0.3038  0.5030 -0.3497
   52CHL1  H26A 5022   0.792   4.011   4.594  0.8279  0.2733 -0.0210
   52CHL1  H26B 5023   0.820   4.118   4.458  2.1233 -0.9698 -1.1308
   52CHL1  H26C 5024   0.957   4.076   4.570 -0.3498 -2.3276  0.9534
   52CHL1   C27 5025   0.909   4.342   4.598  0.0417 -0.3907  0.4548
   52CHL1  H27A 5026   0.900   4.439   4.651  1.7094  1.0365 -1.6885
   52CHL1  H27B 5027   1.016   4.314   4.611  0.2581  1.2628  2.6866
   52CHL1  H27C 5028   0.879   4.367   4.494 -0.2935 -0.0122  0.6378
   53CHL1    C3 5029   0.035   3.953   2.589  0.0088  0.0939 -0.5366
   53CHL1    H3 5030   0.084   3.854   2.577 -1.8307 -1.8292  4.8178
   53CHL1    O3 5031   0.019   4.019   2.466  0.0349  0.1570  0.1032
   53CHL1   H3' 5032  -0.040   3.955   2.427 -0.2334  0.6530 -0.3142
   53CHL1    C4 5033  -0.102   3.933   2.651  0.7695  0.1643 -0.6428
   53CHL1   H4A 5034  -0.150   4.034   2.652  0.8296  0.2028  0.6761
   53CHL1   H4B 5035  -0.162   3.864   2.588  0.1626 -0.3961  0.5149
   53CHL1    C5 5036  -0.101   3.886   2.797 -1.0934  0.2926  0.0972
   53CHL1    C6 5037  -0.163   3.778   2.842  0.2396  0.1478  0.2907
   53CHL1    H6 5038  -0.236   3.728   2.776 -1.0460 -0.6538  2.2286
   53CHL1    C7 5039  -0.169   3.731   2.982  0.0911 -0.2126  0.2776
   53CHL1   H7A 5040  -0.273   3.699   3.003 -1.0622  2.9656 -0.1017
   53CHL1   H7B 5041  -0.119   3.632   2.989 -2.6661 -1.9451 -2.1898
   53CHL1    C8 5042  -0.101   3.822   3.092 -0.2993 -0.0677 -1.3957
   53CHL1    H8 5043  -0.180   3.896   3.117 -0.3410  0.2722 -2.4694
   53CHL1   C14 5044  -0.062   3.746   3.216 -0.5787 -0.7494 -0.4528
   53CHL1   H14 5045   0.007   3.666   3.185  2.8598  0.2769  3.6096
   53CHL1   C15 5046  -0.163   3.666   3.291  0.3285  0.0854  0.4514
   53CHL1  H15A 5047  -0.260   3.720   3.295  0.5347  0.5876 -0.9629
   53CHL1  H15B 5048  -0.174   3.562   3.253 -1.0250 -0.1143  1.3473
   53CHL1   C16 5049  -0.105   3.644   3.428  0.0570 -0.8295  0.9211
   53CHL1  H16A 5050  -0.172   3.688   3.506  1.6201  1.2307  1.1883
   53CHL1  H16B 5051  -0.084   3.539   3.459  2.2743 -0.6452  0.1685
   53CHL1   C17 5052   0.027   3.727   3.433 -0.1736 -0.1044 -0.4116
   53CHL1   H17 5053   0.101   3.652   3.398  0.7150 -0.6845  2.4097
   53CHL1   C13 5054  -0.001   3.830   3.325 -0.9165  0.4757  0.4245
   53CHL1   C18 5055  -0.101   3.935   3.369 -0.1696 -0.4961  0.0197
   53CHL1  H18A 5056  -0.140   3.993   3.283 -1.3527 -0.7809  0.3475
   53CHL1  H18B 5057  -0.196   3.898   3.414 -0.9337  1.6811  0.3224
   53CHL1  H18C 5058  -0.054   4.012   3.434  0.5475  1.3860 -2.5860
   53CHL1   C12 5059   0.127   3.893   3.264 -0.1637  0.2157  0.0465
   53CHL1  H12A 5060   0.178   3.957   3.339 -0.1806 -1.6443  1.7273
   53CHL1  H12B 5061   0.196   3.809   3.239 -0.5554 -0.0044 -0.3124
   53CHL1   C11 5062   0.092   3.975   3.139 -0.7037 -0.1924  0.4583
   53CHL1  H11A 5063   0.034   4.068   3.158  0.1781  0.2592  1.0194
   53CHL1  H11B 5064   0.188   4.008   3.093  0.1780  0.7949  2.8078
   53CHL1    C9 5065   0.025   3.889   3.028  0.1211  0.0567  0.1269
   53CHL1    H9 5066   0.089   3.803   3.002  1.0872  0.4814  1.0375
   53CHL1   C10 5067  -0.007   3.960   2.891  0.4672  0.1220  0.1051
   53CHL1   C19 5068  -0.060   4.101   2.916  0.3854 -0.3255  0.0665
   53CHL1  H19A 5069  -0.153   4.099   2.977 -1.7144 -0.4209 -2.8850
   53CHL1  H19B 5070   0.026   4.158   2.957  0.9599  0.2644 -1.8672
   53CHL1  H19C 5071  -0.084   4.160   2.825  0.4324  0.7267  0.7273
   53CHL1    C1 5072   0.131   3.969   2.812  0.5180 -0.5980 -0.6751
   53CHL1   H1A 5073   0.204   4.023   2.875  2.0142 -0.0687 -2.7365
   53CHL1   H1B 5074   0.173   3.866   2.801  2.2440  0.2507 -2.7768
   53CHL1    C2 5075   0.126   4.031   2.678 -0.5114  0.1002 -0.0307
   53CHL1   H2A 5076   0.218   4.040   2.617 -0.8957  0.5969 -0.5464
   53CHL1   H2B 5077   0.098   4.138   2.694 -0.8589 -0.1394  1.0520
   53CHL1   C20 5078   0.074   3.776   3.573 -0.1054  0.6974  0.0643
   53CHL1   H20 5079   0.021   3.870   3.601 -2.5330  0.3495 -2.8705
   53CHL1   C21 5080   0.226   3.802   3.565 -0.1648  0.1919  0.6300
   53CHL1  H21A 5081   0.293   3.787   3.652 -0.4386  3.9649  1.6666
   53CHL1  H21B 5082   0.248   3.908   3.538  0.3099 -0.0208  0.1494
   53CHL1  H21C 5083   0.270   3.750   3.477  1.3742  2.7114 -0.2012
   53CHL1   C22 5084   0.049   3.661   3.682  0.1712 -0.3328 -1.3879
   53CHL1  H22A 5085  -0.061   3.650   3.692 -0.2047  2.3602 -1.6972
   53CHL1  H22B 5086   0.097   3.570   3.640  0.5564 -0.4058 -0.7936
   53CHL1   C23 5087   0.106   3.684   3.827  0.5215 -0.0714  0.6745
   53CHL1  H23A 5088   0.214   3.709   3.819  0.6556 -0.9928 -0.9279
   53CHL1  H23B 5089   0.056   3.780   3.852  1.1568  0.7899 -1.1733
   53CHL1   C24 5090   0.082   3.566   3.919 -0.0305 -0.4508  0.2356
   53CHL1  H24A 5091  -0.027   3.559   3.940  0.2655 -1.4401  1.5749
   53CHL1  H24B 5092   0.125   3.475   3.872 -0.4495 -0.5517  0.0374
   53CHL1   C25 5093   0.153   3.588   4.060  0.0391  0.7682  0.3364
   53CHL1   H25 5094   0.255   3.620   4.030 -0.2914  1.6470  0.1107
   53CHL1   C26 5095   0.079   3.697   4.146  0.1955 -0.0189 -0.0564
   53CHL1  H26A 5096   0.146   3.716   4.233  1.5929 -1.0785 -0.8621
   53CHL1  H26B 5097   0.068   3.788   4.083 -2.0139  0.5221  1.0161
   53CHL1  H26C 5098  -0.023   3.667   4.177  0.1210  1.4410  1.2940
   53CHL1   C27 5099   0.169   3.460   4.138  0.9778 -0.0181 -0.9244
   53CHL1  H27A 5100   0.070   3.420   4.168  1.0170  0.9682  0.6228
   53CHL1  H27B 5101   0.223   3.386   4.075  0.7289 -0.3785 -0.7161
   53CHL1  H27C 5102   0.231   3.481   4.228  2.8560  0.7314 -2.3228
   54CHL1    C3 5103   2.252   0.049   3.043  0.1492 -0.6115 -0.1392
   54CHL1    H3 5104   2.230   0.152   3.078 -0.0823 -0.9497  0.7231
   54CHL1    O3 5105   2.286   0.055   2.907  0.5586  0.3498 -0.1430
   54CHL1   H3' 5106   2.360   0.115   2.910  1.9814 -1.3400 -0.1824
   54CHL1    C4 5107   2.380  -0.008   3.121 -0.4768 -0.1681  0.1380
   54CHL1   H4A 5108   2.417  -0.097   3.066  0.5864  0.3099  0.0653
   54CHL1   H4B 5109   2.466   0.061   3.110 -1.9044  1.5320 -0.8379
   54CHL1    C5 5110   2.346  -0.045   3.260 -0.1083  0.2002 -0.3172
   54CHL1    C6 5111   2.439  -0.011   3.353 -0.8442  0.5498  0.2245
   54CHL1    H6 5112   2.536   0.025   3.316 -0.6137 -0.0802  0.2053
   54CHL1    C7 5113   2.432  -0.041   3.497 -0.2195 -0.2575 -0.4561
   54CHL1   H7A 5114   2.521  -0.088   3.542 -0.7869 -0.4459  0.4991
   54CHL1   H7B 5115   2.418   0.061   3.539  0.8652 -0.4517  0.4124
   54CHL1    C8 5116   2.306  -0.134   3.539 -1.0302 -0.4936  0.0162
   54CHL1    H8 5117   2.341  -0.240   3.530 -0.7660 -0.3404 -0.8840
   54CHL1   C14 5118   2.267  -0.109   3.683  0.7571  0.3363 -0.3053
   54CHL1   H14 5119   2.226  -0.006   3.675  0.4624  0.2087 -0.4567
   54CHL1   C15 5120   2.375  -0.123   3.793 -0.0411 -0.1192  0.0276
   54CHL1  H15A 5121   2.440  -0.213   3.787  0.3693  0.1951 -0.2796
   54CHL1  H15B 5122   2.437  -0.031   3.796  2.3423 -1.6685  0.0949
   54CHL1   C16 5123   2.294  -0.119   3.926  0.8156 -0.7701 -0.0687
   54CHL1  H16A 5124   2.340  -0.195   3.992  1.0483 -0.8743 -0.3505
   54CHL1  H16B 5125   2.314  -0.025   3.982  2.6885 -0.2214 -1.5282
   54CHL1   C17 5126   2.144  -0.134   3.883 -0.5414 -0.3786  0.0415
   54CHL1   H17 5127   2.100  -0.033   3.869 -1.3402 -0.5736  1.0260
   54CHL1   C13 5128   2.146  -0.190   3.737  0.0438  0.8816  0.6400
   54CHL1   C18 5129   2.180  -0.347   3.742 -0.0172 -0.7372 -0.8221
   54CHL1  H18A 5130   2.102  -0.406   3.794  0.9227 -1.4219 -0.1477
   54CHL1  H18B 5131   2.198  -0.373   3.636  1.4967  0.6661 -0.9486
   54CHL1  H18C 5132   2.277  -0.367   3.793 -0.3224 -0.0612  0.0392
   54CHL1   C12 5133   2.019  -0.170   3.649 -0.0274 -0.3250  1.0491
   54CHL1  H12A 5134   1.938  -0.245   3.652 -1.5843  0.9714 -2.6969
   54CHL1  H12B 5135   1.990  -0.064   3.668  1.1230  0.3587 -0.7624
   54CHL1   C11 5136   2.064  -0.190   3.498 -0.5321  0.0632  0.3792
   54CHL1  H11A 5137   2.077  -0.299   3.483 -0.1847  0.2483 -0.8205
   54CHL1  H11B 5138   1.978  -0.162   3.433 -0.1433  3.8102  1.2554
   54CHL1    C9 5139   2.187  -0.114   3.454  0.0478  0.2537  0.0469
   54CHL1    H9 5140   2.163  -0.006   3.470  2.4377  0.8158  0.1693
   54CHL1   C10 5141   2.211  -0.114   3.296  0.0853  0.0179  0.2545
   54CHL1   C19 5142   2.220  -0.266   3.258  0.3301  0.5848 -0.0641
   54CHL1  H19A 5143   2.305  -0.320   3.304 -0.8345  0.3999  1.9854
   54CHL1  H19B 5144   2.128  -0.323   3.281  0.0652 -0.7964 -3.9064
   54CHL1  H19C 5145   2.241  -0.271   3.149  1.3995  2.7567 -0.0161
   54CHL1    C1 5146   2.095  -0.041   3.216  0.2600  0.4093 -0.0052
   54CHL1   H1A 5147   1.999  -0.096   3.227  1.2240 -1.1937  0.8595
   54CHL1   H1B 5148   2.082   0.061   3.257 -0.4945 -0.1708  1.2537
   54CHL1    C2 5149   2.127  -0.036   3.063  0.0690 -0.2614 -0.1514
   54CHL1   H2A 5150   2.032  -0.002   3.016 -0.3959  0.3726  1.1822
   54CHL1   H2B 5151   2.154  -0.140   3.037  2.3819 -0.1047  1.3723
   54CHL1   C20 5152   2.052  -0.197   3.984 -0.4598 -0.3473 -0.7112
   54CHL1   H20 5153   2.056  -0.308   3.975  2.0091 -0.2260 -2.2963
   54CHL1   C21 5154   1.906  -0.152   3.955  0.0939 -0.4376 -0.3200
   54CHL1  H21A 5155   1.897  -0.041   3.945 -2.5003 -0.4972  0.5305
   54CHL1  H21B 5156   1.844  -0.183   4.042  2.5967 -0.1146  1.7022
   54CHL1  H21C 5157   1.851  -0.189   3.866 -0.6292  1.1062 -0.5546
   54CHL1   C22 5158   2.094  -0.156   4.124  0.7247 -0.1712 -0.4353
   54CHL1  H22A 5159   2.199  -0.188   4.146  0.0271 -0.4930  2.8820
   54CHL1  H22B 5160   2.084  -0.046   4.124 -2.0536 -0.3451 -1.3871
   54CHL1   C23 5161   2.007  -0.210   4.241 -1.2405  0.3014  0.2926
   54CHL1  H23A 5162   1.898  -0.187   4.239 -2.1096 -3.2792 -0.9006
   54CHL1  H23B 5163   2.014  -0.320   4.242  1.3792  0.3427  3.8031
   54CHL1   C24 5164   2.067  -0.167   4.378 -0.4540 -0.8041  0.2215
   54CHL1  H24A 5165   2.176  -0.186   4.383 -0.5645 -1.1791  1.6308
   54CHL1  H24B 5166   2.048  -0.059   4.393 -0.3653 -0.2094 -3.2263
   54CHL1   C25 5167   2.003  -0.236   4.497  0.1805  0.2090 -0.7417
   54CHL1   H25 5168   1.895  -0.247   4.474  0.1015  2.0091 -1.4128
   54CHL1   C26 5169   2.062  -0.380   4.526 -0.4830  0.9251 -0.4514
   54CHL1  H26A 5170   1.986  -0.443   4.577 -0.3509 -0.5517 -1.9911
   54CHL1  H26B 5171   2.079  -0.436   4.432  0.3777 -0.7716  0.6648
   54CHL1  H26C 5172   2.154  -0.372   4.588 -2.0011  1.3187  1.9130
   54CHL1   C27 5173   1.994  -0.159   4.628 -0.4398  0.0553 -0.5310
   54CHL1  H27A 5174   1.940  -0.062   4.622 -0.6143 -0.1090 -1.8183
   54CHL1  H27B 5175   1.936  -0.218   4.702  1.8607  0.9626  2.1815
   54CHL1  H27C 5176   2.094  -0.152   4.675 -0.9157 -1.8107  0.8708
   55CHL1    C3 5177   2.934   0.723   3.181  0.0985  0.2229  0.7191
   55CHL1    H3 5178   2.926   0.612   3.190  0.2559 -0.0517 -1.7409
   55CHL1    O3 5179   2.988   0.752   3.050  0.0554 -0.0604  0.2544
   55CHL1   H3' 5180   3.016   0.844   3.054 -1.3258  0.4052 -0.2005
   55CHL1    C4 5181   2.807   0.795   3.206 -0.2995  0.4765  0.1975
   55CHL1   H4A 5182   2.817   0.905   3.198  3.1012  0.3898  1.7267
   55CHL1   H4B 5183   2.736   0.762   3.127 -0.6549  0.0598  0.6770
   55CHL1    C5 5184   2.760   0.764   3.341 -0.3417 -0.2688 -0.5464
   55CHL1    C6 5185   2.642   0.698   3.365 -0.5794 -0.0185  0.3007
   55CHL1    H6 5186   2.592   0.670   3.271  1.4926  1.8446 -1.4939
   55CHL1    C7 5187   2.597   0.661   3.510  0.4718  0.0585 -0.8276
   55CHL1   H7A 5188   2.489   0.685   3.516  0.1705 -1.5288  0.7342
   55CHL1   H7B 5189   2.600   0.552   3.528 -1.2776 -0.1414 -1.5790
   55CHL1    C8 5190   2.672   0.734   3.623 -0.4224  0.6071 -0.8151
   55CHL1    H8 5191   2.640   0.840   3.623  0.5190  0.8997 -1.1371
   55CHL1   C14 5192   2.639   0.675   3.759  0.4276  0.0086  0.2951
   55CHL1   H14 5193   2.655   0.567   3.742  0.6724  0.3571 -2.0362
   55CHL1   C15 5194   2.491   0.679   3.802 -0.8532 -0.5495  0.2118
   55CHL1  H15A 5195   2.452   0.779   3.773  2.1743  0.5922 -0.3725
   55CHL1  H15B 5196   2.426   0.605   3.752 -2.5989 -0.1698  1.8255
   55CHL1   C16 5197   2.494   0.675   3.960 -0.0495  0.1003 -0.1390
   55CHL1  H16A 5198   2.437   0.763   3.997 -0.4781 -0.4319  0.4926
   55CHL1  H16B 5199   2.453   0.586   4.012 -0.7858 -0.8561 -2.2489
   55CHL1   C17 5200   2.646   0.686   3.994  0.1944  0.5102  0.1928
   55CHL1   H17 5201   2.680   0.580   3.997 -0.3331  0.3538  0.7526
   55CHL1   C13 5202   2.721   0.745   3.872  0.1554 -0.0931  0.4626
   55CHL1   C18 5203   2.697   0.899   3.876 -0.3757  0.1763  0.7427
   55CHL1  H18A 5204   2.599   0.920   3.925 -0.2050 -0.1464  1.2287
   55CHL1  H18B 5205   2.776   0.944   3.940  2.0343 -1.0841 -1.1832
   55CHL1  H18C 5206   2.691   0.949   3.777  0.6092 -0.0600  0.5602
   55CHL1   C12 5207   2.873   0.715   3.846  0.3394  0.4099 -0.6139
   55CHL1  H12A 5208   2.927   0.767   3.928 -0.0742  0.7755 -0.5677
   55CHL1  H12B 5209   2.888   0.605   3.846 -1.8367  0.0801 -0.4958
   55CHL1   C11 5210   2.915   0.782   3.714  0.3287 -0.1575 -0.7750
   55CHL1  H11A 5211   2.898   0.890   3.733 -2.0093 -0.7994  1.4263
   55CHL1  H11B 5212   3.023   0.769   3.692  0.5683  3.0183 -1.8971
   55CHL1    C9 5213   2.827   0.723   3.593  0.7345 -1.3051  0.2966
   55CHL1    H9 5214   2.842   0.613   3.580 -2.7741 -2.0272  1.2395
   55CHL1   C10 5215   2.860   0.793   3.456  0.5248 -0.1980 -1.2447
   55CHL1   C19 5216   2.874   0.944   3.482 -0.3784 -0.1688  0.2282
   55CHL1  H19A 5217   2.909   1.000   3.393  0.9230  0.3532  1.0426
   55CHL1  H19B 5218   2.773   0.982   3.509 -0.2489  1.2243 -1.0923
   55CHL1  H19C 5219   2.944   0.971   3.564 -1.6231 -1.8334  1.9406
   55CHL1    C1 5220   2.996   0.730   3.414  0.4707 -0.0238  0.3011
   55CHL1   H1A 5221   3.083   0.754   3.479  1.3959  1.0707 -1.2861
   55CHL1   H1B 5222   2.989   0.619   3.405  0.6825  0.0037 -0.2249
   55CHL1    C2 5223   3.041   0.764   3.275 -0.1292 -0.1255 -0.6388
   55CHL1   H2A 5224   3.138   0.715   3.251 -0.7163 -1.9487  0.5520
   55CHL1   H2B 5225   3.056   0.873   3.263 -0.1402 -0.1689 -1.0795
   55CHL1   C20 5226   2.678   0.741   4.137  0.0164  0.4906 -0.0140
   55CHL1   H20 5227   2.760   0.816   4.133 -0.8070  1.4629  0.7793
   55CHL1   C21 5228   2.736   0.627   4.228  0.2430  0.6211  0.1057
   55CHL1  H21A 5229   2.826   0.595   4.172 -1.1988 -1.3918 -1.2033
   55CHL1  H21B 5230   2.661   0.546   4.236 -0.6650  1.0778 -2.7406
   55CHL1  H21C 5231   2.776   0.674   4.320  2.9946  1.4191 -1.3714
   55CHL1   C22 5232   2.548   0.790   4.211  0.5060 -0.3824 -0.9775
   55CHL1  H22A 5233   2.497   0.863   4.144 -2.9185 -2.3877 -0.7838
   55CHL1  H22B 5234   2.476   0.708   4.231 -1.8996  1.2284 -2.4679
   55CHL1   C23 5235   2.573   0.867   4.348  0.0264  0.1504  0.3648
   55CHL1  H23A 5236   2.607   0.793   4.423 -1.9411 -0.4121  0.7481
   55CHL1  H23B 5237   2.666   0.924   4.324 -0.6164  0.6031 -1.1465
   55CHL1   C24 5238   2.456   0.950   4.398 -0.3135  0.2459  0.2433
   55CHL1  H24A 5239   2.434   1.016   4.311  2.0933  0.4471 -0.2723
   55CHL1  H24B 5240   2.360   0.896   4.416 -0.8538  1.1711  0.2646
   55CHL1   C25 5241   2.492   1.045   4.517 -0.6734  0.3942 -0.3460
   55CHL1   H25 5242   2.576   1.113   4.489 -0.6859  0.0567 -1.2259
   55CHL1   C26 5243   2.370   1.125   4.564 -0.9412  0.7735 -0.6640
   55CHL1  H26A 5244   2.312   1.148   4.472 -0.5861  0.2287 -1.0321
   55CHL1  H26B 5245   2.303   1.053   4.615  1.9114 -1.9913 -0.5370
   55CHL1  H26C 5246   2.406   1.207   4.629 -2.6187 -0.1501  1.5335
   55CHL1   C27 5247   2.535   0.960   4.644  0.3650  0.0632  0.4229
   55CHL1  H27A 5248   2.527   1.025   4.734  1.2651 -0.1768  0.6835
   55CHL1  H27B 5249   2.456   0.882   4.650  0.3361 -0.1233 -1.8607
   55CHL1  H27C 5250   2.635   0.913   4.641  0.0015 -0.6967  0.0911
   56CHL1    C3 5251   5.642   1.228   3.182 -0.1653  0.2524  0.3991
   56CHL1    H3 5252   5.721   1.261   3.252  1.5061 -0.2947 -1.1610
   56CHL1    O3 5253   5.700   1.190   3.061 -0.4673 -0.5551  0.3196
   56CHL1   H3' 5254   5.630   1.204   2.996 -0.9559 -1.1601  0.6960
   56CHL1    C4 5255   5.579   1.099   3.245 -0.3685  0.2731 -0.0263
   56CHL1   H4A 5256   5.501   1.055   3.180 -0.7117 -2.9566  2.3329
   56CHL1   H4B 5257   5.660   1.023   3.246  0.4111  1.0676 -0.7594
   56CHL1    C5 5258   5.520   1.131   3.381 -0.2531  0.2848 -0.2804
   56CHL1    C6 5259   5.566   1.068   3.491  0.1566 -0.6850  0.0247
   56CHL1    H6 5260   5.640   0.987   3.488  0.4141 -0.4402 -0.5079
   56CHL1    C7 5261   5.506   1.105   3.624  0.3164  0.0070  0.0264
   56CHL1   H7A 5262   5.490   1.009   3.676  2.3193  0.1422  0.9976
   56CHL1   H7B 5263   5.577   1.171   3.679 -2.2933  2.3623  0.8372
   56CHL1    C8 5264   5.365   1.168   3.612 -0.0536 -0.8009  0.2324
   56CHL1    H8 5265   5.296   1.094   3.566 -0.2444  1.3674 -3.2774
   56CHL1   C14 5266   5.322   1.213   3.747 -0.1553  0.7991  0.4585
   56CHL1   H14 5267   5.396   1.281   3.795  0.0396  1.1704 -0.3455
   56CHL1   C15 5268   5.297   1.098   3.850 -0.8106  0.0728  0.3806
   56CHL1  H15A 5269   5.245   1.017   3.794  1.2811  1.4831 -4.0437
   56CHL1  H15B 5270   5.394   1.070   3.894 -0.9572 -0.5411  0.3162
   56CHL1   C16 5271   5.207   1.161   3.960  0.0202  0.1059  0.5373
   56CHL1  H16A 5272   5.120   1.093   3.965 -0.6716  0.7920 -1.4208
   56CHL1  H16B 5273   5.265   1.170   4.055 -0.3297 -2.2892  1.0444
   56CHL1   C17 5274   5.173   1.310   3.912  0.3712 -0.5676  0.1906
   56CHL1   H17 5275   5.252   1.381   3.944  0.8663 -0.9139 -0.2478
   56CHL1   C13 5276   5.194   1.295   3.755  0.3007 -0.3468  0.9846
   56CHL1   C18 5277   5.067   1.229   3.701 -0.3991  0.5103 -0.0847
   56CHL1  H18A 5278   5.026   1.149   3.766  0.4480 -1.0936 -1.4142
   56CHL1  H18B 5279   4.996   1.306   3.663  1.8147  1.6044 -2.3091
   56CHL1  H18C 5280   5.090   1.183   3.602  0.9196  0.4490  0.2291
   56CHL1   C12 5281   5.226   1.426   3.673 -0.7308  0.0449 -0.0310
   56CHL1  H12A 5282   5.138   1.494   3.669 -0.8233 -0.1619 -2.2966
   56CHL1  H12B 5283   5.315   1.479   3.715  0.3551 -0.4491 -1.6151
   56CHL1   C11 5284   5.259   1.389   3.522 -0.1227  0.1647 -0.3804
   56CHL1  H11A 5285   5.171   1.335   3.482 -1.8688  2.5127  0.0949
   56CHL1  H11B 5286   5.283   1.480   3.463 -0.8348  0.1951 -0.6272
   56CHL1    C9 5287   5.377   1.289   3.515 -1.0607 -0.5800  0.1694
   56CHL1    H9 5288   5.457   1.357   3.552 -2.7524 -0.1635  3.3969
   56CHL1   C10 5289   5.421   1.246   3.370 -0.6606 -0.0086 -0.1286
   56CHL1   C19 5290   5.296   1.192   3.294  0.3764 -0.0736  0.3585
   56CHL1  H19A 5291   5.252   1.105   3.347 -1.4590 -0.2225 -1.3102
   56CHL1  H19B 5292   5.219   1.272   3.292 -1.0114 -1.3761  0.3648
   56CHL1  H19C 5293   5.326   1.170   3.190  1.2736  2.7314 -0.0610
   56CHL1    C1 5294   5.476   1.370   3.293 -0.0563 -0.5524  0.1288
   56CHL1   H1A 5295   5.394   1.443   3.277 -0.6118 -1.5588 -2.0226
   56CHL1   H1B 5296   5.554   1.417   3.357 -0.3946  1.0889 -0.6133
   56CHL1    C2 5297   5.539   1.336   3.161  0.5228 -1.0371  0.4070
   56CHL1   H2A 5298   5.595   1.422   3.120  1.5347 -0.7787  2.2320
   56CHL1   H2B 5299   5.461   1.303   3.089 -0.4177  2.8020 -0.5886
   56CHL1   C20 5300   5.042   1.363   3.975  0.4685  0.2580  0.2362
   56CHL1   H20 5301   4.952   1.303   3.950 -0.5664  1.6856  0.4547
   56CHL1   C21 5302   5.006   1.501   3.916 -0.9507 -0.3687 -0.8626
   56CHL1  H21A 5303   4.919   1.538   3.976  0.1105 -0.3800  0.7570
   56CHL1  H21B 5304   4.980   1.484   3.810 -2.3652  1.8911 -0.9643
   56CHL1  H21C 5305   5.090   1.573   3.922 -1.0958 -0.2543  0.0164
   56CHL1   C22 5306   5.043   1.365   4.132  0.1109 -0.6814  0.2535
   56CHL1  H22A 5307   4.947   1.414   4.163  0.3515  1.0185 -1.5042
   56CHL1  H22B 5308   5.050   1.262   4.173  3.1711 -0.9161 -0.6766
   56CHL1   C23 5309   5.160   1.451   4.185  0.2785 -0.9585  0.4554
   56CHL1  H23A 5310   5.257   1.403   4.164  1.4345  0.6883  1.7471
   56CHL1  H23B 5311   5.154   1.551   4.136  1.6545 -1.5397 -0.9854
   56CHL1   C24 5312   5.146   1.450   4.340  0.0960 -0.7347  0.7004
   56CHL1  H24A 5313   5.060   1.514   4.369  1.2292  1.6870 -0.9083
   56CHL1  H24B 5314   5.127   1.347   4.377 -0.7728 -1.3379 -1.3113
   56CHL1   C25 5315   5.265   1.516   4.410 -0.1764  0.5431 -0.2287
   56CHL1   H25 5316   5.238   1.501   4.517 -2.7674  0.2047 -0.8533
   56CHL1   C26 5317   5.398   1.433   4.390  0.4920  0.2290  0.0723
   56CHL1  H26A 5318   5.374   1.325   4.404  1.7382 -0.5303 -2.9516
   56CHL1  H26B 5319   5.440   1.451   4.289  3.4387 -0.4702  1.0780
   56CHL1  H26C 5320   5.473   1.470   4.464  0.1134 -0.7130  0.9520
   56CHL1   C27 5321   5.279   1.662   4.392  0.5398 -0.1141 -0.4522
   56CHL1  H27A 5322   5.345   1.698   4.474  0.7499  0.3200 -0.8047
   56CHL1  H27B 5323   5.320   1.691   4.292 -0.4964 -0.7489 -1.0757
   56CHL1  H27C 5324   5.182   1.713   4.411  1.1575  1.0966 -0.3994
   57CHL1    C3 5325   3.512   0.952   3.071 -0.1563 -0.6167  0.4260
   57CHL1    H3 5326   3.408   0.914   3.056 -0.4687  0.5669 -0.5991
   57CHL1    O3 5327   3.552   0.999   2.942  0.5384  0.0153  0.0337
   57CHL1   H3' 5328   3.647   0.984   2.941  0.3120 -2.3152 -2.8472
   57CHL1    C4 5329   3.516   1.074   3.167  0.4699  0.1602  0.2658
   57CHL1   H4A 5330   3.619   1.111   3.182  0.1897  0.9489  0.2695
   57CHL1   H4B 5331   3.451   1.150   3.119  0.6824 -1.2300 -2.4302
   57CHL1    C5 5332   3.463   1.040   3.306 -0.2016  0.0664  0.7935
   57CHL1    C6 5333   3.357   1.115   3.351  0.5811 -0.5075  0.2268
   57CHL1    H6 5334   3.323   1.205   3.297  2.7639  0.6822  0.7061
   57CHL1    C7 5335   3.307   1.098   3.492  0.5128  0.2583  0.3697
   57CHL1   H7A 5336   3.298   1.195   3.546 -0.5960  0.8454 -0.8253
   57CHL1   H7B 5337   3.203   1.057   3.488  0.2966  0.8929 -1.8947
   57CHL1    C8 5338   3.386   1.000   3.576 -0.9157 -0.3809 -0.4111
   57CHL1    H8 5339   3.474   1.054   3.619 -0.5580 -0.9677 -0.3955
   57CHL1   C14 5340   3.311   0.948   3.699 -0.7392 -0.3299  0.0885
   57CHL1   H14 5341   3.229   0.885   3.657 -0.5421 -1.0302  0.7402
   57CHL1   C15 5342   3.237   1.056   3.783  0.2293  0.3660  0.7346
   57CHL1  H15A 5343   3.304   1.142   3.805 -0.1181  0.5948  0.9140
   57CHL1  H15B 5344   3.150   1.093   3.725  0.8899  3.6001  1.5772
   57CHL1   C16 5345   3.194   0.991   3.912 -0.3264  0.1386 -0.3364
   57CHL1  H16A 5346   3.222   1.044   4.005 -1.1145 -2.6921  1.6844
   57CHL1  H16B 5347   3.083   0.982   3.923 -0.3858  1.0998 -0.1109
   57CHL1   C17 5348   3.258   0.850   3.909  0.8068  0.2899 -0.3749
   57CHL1   H17 5349   3.179   0.785   3.863  0.8996 -1.1279  1.3702
   57CHL1   C13 5350   3.374   0.853   3.799 -0.8024 -0.3673 -0.1965
   57CHL1   C18 5351   3.495   0.922   3.863 -1.5052  0.5987 -0.1193
   57CHL1  H18A 5352   3.467   1.011   3.923  1.3105 -0.0845  2.4357
   57CHL1  H18B 5353   3.565   0.861   3.924  0.8818  0.7739 -2.4713
   57CHL1  H18C 5354   3.561   0.952   3.779 -1.3909  1.2879  0.2065
   57CHL1   C12 5355   3.421   0.724   3.720 -0.0450  0.4343  0.1685
   57CHL1  H12A 5356   3.494   0.664   3.779  2.5387  1.5365 -1.7238
   57CHL1  H12B 5357   3.330   0.669   3.686 -0.8983  0.6443  2.0059
   57CHL1   C11 5358   3.504   0.774   3.597 -0.6652 -0.3140 -0.5928
   57CHL1  H11A 5359   3.605   0.805   3.633 -0.2720 -1.4716 -0.6324
   57CHL1  H11B 5360   3.515   0.679   3.541 -0.1125  0.0576 -1.1323
   57CHL1    C9 5361   3.444   0.882   3.497  0.1357 -0.4163  0.1250
   57CHL1    H9 5362   3.354   0.829   3.458 -2.2136  2.2230  1.5893
   57CHL1   C10 5363   3.533   0.921   3.372 -0.0611 -0.6250 -0.3105
   57CHL1   C19 5364   3.675   0.964   3.419 -0.1796  0.6213  0.0986
   57CHL1  H19A 5365   3.668   1.033   3.506  0.5693  0.6543  0.1434
   57CHL1  H19B 5366   3.739   0.877   3.445  1.5536  1.0759 -2.2773
   57CHL1  H19C 5367   3.730   1.015   3.337 -0.4102  0.4443 -0.1675
   57CHL1    C1 5368   3.552   0.805   3.270  0.4736  0.5780  0.3826
   57CHL1   H1A 5369   3.622   0.732   3.315 -1.5754  0.0969  3.0810
   57CHL1   H1B 5370   3.450   0.761   3.260  0.5581  0.7353 -1.5021
   57CHL1    C2 5371   3.600   0.849   3.126 -0.3500 -0.0783 -0.2035
   57CHL1   H2A 5372   3.613   0.758   3.063  0.4532 -0.4226  0.4432
   57CHL1   H2B 5373   3.705   0.882   3.139 -0.3394 -0.1392 -0.1361
   57CHL1   C20 5374   3.291   0.792   4.046 -0.0246 -0.6971  0.2810
   57CHL1   H20 5375   3.354   0.872   4.090  3.2454 -2.3906 -1.0188
   57CHL1   C21 5376   3.372   0.660   4.035 -0.5520  0.1470 -0.1652
   57CHL1  H21A 5377   3.408   0.628   4.135  1.4508 -1.2518 -1.2510
   57CHL1  H21B 5378   3.468   0.668   3.979 -0.5107 -3.7453 -0.9507
   57CHL1  H21C 5379   3.309   0.581   3.988 -0.6919  0.3366 -0.2986
   57CHL1   C22 5380   3.167   0.780   4.137  0.2684 -0.0526 -0.5045
   57CHL1  H22A 5381   3.100   0.868   4.120 -0.8163 -0.9417 -0.9622
   57CHL1  H22B 5382   3.116   0.688   4.102 -2.1166  1.2188 -0.6135
   57CHL1   C23 5383   3.180   0.763   4.288 -0.0757 -0.0430 -0.4850
   57CHL1  H23A 5384   3.234   0.666   4.289  0.5521  0.2977  0.7003
   57CHL1  H23B 5385   3.247   0.842   4.327 -1.7673  0.2792  1.9720
   57CHL1   C24 5386   3.053   0.758   4.377  0.0587  0.8399 -0.2083
   57CHL1  H24A 5387   3.026   0.861   4.407 -0.3586  0.5176  0.5293
   57CHL1  H24B 5388   2.973   0.701   4.325  2.1165 -0.5878 -2.0503
   57CHL1   C25 5389   3.086   0.679   4.515 -0.3839 -0.3819 -0.6194
   57CHL1   H25 5390   3.145   0.588   4.491 -4.3293 -3.4858  0.4880
   57CHL1   C26 5391   3.184   0.762   4.610 -0.5407  0.2249  0.1938
   57CHL1  H26A 5392   3.229   0.701   4.691 -0.6428  1.2459  1.0448
   57CHL1  H26B 5393   3.262   0.801   4.541 -0.6502 -0.7313 -0.4959
   57CHL1  H26C 5394   3.140   0.848   4.665  2.1610  1.1604  1.0307
   57CHL1   C27 5395   2.972   0.634   4.600  0.1570  0.0873 -0.2815
   57CHL1  H27A 5396   2.993   0.567   4.686 -0.0670  1.6977  1.0783
   57CHL1  H27B 5397   2.910   0.710   4.652  0.8604 -1.1392  2.5040
   57CHL1  H27C 5398   2.918   0.581   4.518  1.1792  0.0640 -0.9592
   58CHL1    C3 5399   3.836   2.541   3.272 -0.4757 -0.1738  0.0014
   58CHL1    H3 5400   3.731   2.571   3.291 -0.0948  0.5292  1.1236
   58CHL1    O3 5401   3.880   2.580   3.147 -0.0292 -0.1249 -0.0935
   58CHL1   H3' 5402   3.971   2.612   3.156  0.2261 -0.4023 -1.4793
   58CHL1    C4 5403   3.926   2.614   3.368  0.0116 -0.0275 -0.5018
   58CHL1   H4A 5404   4.027   2.597   3.326 -0.8464 -2.3348 -1.8512
   58CHL1   H4B 5405   3.915   2.725   3.363  0.6768  0.0528 -0.2307
   58CHL1    C5 5406   3.916   2.565   3.508  0.2019 -0.3780  0.0098
   58CHL1    C6 5407   3.883   2.654   3.611 -0.5296  0.7524 -0.1048
   58CHL1    H6 5408   3.874   2.763   3.599 -1.2625  0.9728  1.9802
   58CHL1    C7 5409   3.864   2.600   3.747 -0.1292  0.3847  0.2569
   58CHL1   H7A 5410   3.887   2.678   3.823 -3.0958  0.8759  0.7751
   58CHL1   H7B 5411   3.756   2.577   3.764 -0.0661  0.5753  0.9468
   58CHL1    C8 5412   3.939   2.464   3.773  0.7357 -1.0812  0.6438
   58CHL1    H8 5413   4.049   2.483   3.767  0.5163  0.1625 -4.7990
   58CHL1   C14 5414   3.887   2.419   3.904  0.3952 -0.6339 -0.8783
   58CHL1   H14 5415   3.777   2.404   3.897  0.3784 -1.2218  0.3479
   58CHL1   C15 5416   3.886   2.516   4.028 -0.0846 -0.2016 -0.1744
   58CHL1  H15A 5417   3.984   2.566   4.047  0.4868 -1.3505 -0.0028
   58CHL1  H15B 5418   3.817   2.601   4.013  1.2163  0.5553 -2.2369
   58CHL1   C16 5419   3.853   2.425   4.140  0.2843 -0.0534 -0.4007
   58CHL1  H16A 5420   3.918   2.452   4.227 -1.5778 -0.9248  1.3401
   58CHL1  H16B 5421   3.752   2.446   4.180  0.9550  4.3058 -0.4765
   58CHL1   C17 5422   3.858   2.284   4.086 -0.1294 -0.3707 -0.2818
   58CHL1   H17 5423   3.756   2.271   4.046 -0.0956  1.6305 -1.1297
   58CHL1   C13 5424   3.940   2.290   3.954  0.2585  0.1439 -0.3402
   58CHL1   C18 5425   4.093   2.306   3.980  0.6059  0.7478  0.2440
   58CHL1  H18A 5426   4.104   2.373   4.068 -0.7593  0.3902  0.7123
   58CHL1  H18B 5427   4.137   2.206   3.996 -2.7022 -0.8738  0.0969
   58CHL1  H18C 5428   4.136   2.362   3.894 -1.5204  1.4346 -0.4606
   58CHL1   C12 5429   3.916   2.180   3.848  0.2754 -0.2576  0.0448
   58CHL1  H12A 5430   3.965   2.082   3.863  0.8197  0.1953  1.2717
   58CHL1  H12B 5431   3.808   2.153   3.853 -0.0576  1.2542  2.5823
   58CHL1   C11 5432   3.947   2.222   3.699 -0.5247  0.2250 -0.3791
   58CHL1  H11A 5433   4.057   2.220   3.688 -0.5866 -1.0378 -0.9492
   58CHL1  H11B 5434   3.904   2.147   3.630  0.2223 -0.2305 -0.3549
   58CHL1    C9 5435   3.904   2.364   3.666 -0.7369  0.5921 -0.4400
   58CHL1    H9 5436   3.793   2.362   3.678 -0.7940 -1.0531 -0.9658
   58CHL1   C10 5437   3.940   2.413   3.519  0.2246  0.2792 -0.5176
   58CHL1   C19 5438   4.088   2.384   3.483 -0.5923  0.1806  0.0846
   58CHL1  H19A 5439   4.116   2.277   3.498 -1.6937 -0.1037  0.1937
   58CHL1  H19B 5440   4.104   2.410   3.376  1.7445  3.8754  1.1609
   58CHL1  H19C 5441   4.160   2.447   3.539  1.5982 -0.7436 -1.5467
   58CHL1    C1 5442   3.845   2.337   3.424 -0.0147  0.0185  0.3107
   58CHL1   H1A 5443   3.878   2.231   3.421  0.2413 -0.1041  3.5193
   58CHL1   H1B 5444   3.739   2.331   3.457  0.2539 -1.7956  0.9659
   58CHL1    C2 5445   3.849   2.388   3.283  0.3780  0.3466  0.6774
   58CHL1   H2A 5446   3.780   2.337   3.212  0.4614  1.6047 -0.3394
   58CHL1   H2B 5447   3.951   2.360   3.249  0.3118  1.5795 -0.6233
   58CHL1   C20 5448   3.880   2.177   4.187  0.1184  0.2167 -0.3012
   58CHL1   H20 5449   3.923   2.085   4.143  0.9613 -0.2256  1.3773
   58CHL1   C21 5450   3.744   2.142   4.247  0.2269  0.3298 -0.4260
   58CHL1  H21A 5451   3.754   2.065   4.326  1.4730  1.2360  0.3270
   58CHL1  H21B 5452   3.679   2.092   4.172  1.5376 -0.2996 -1.1845
   58CHL1  H21C 5453   3.697   2.237   4.281 -1.7041 -0.3826 -0.9609
   58CHL1   C22 5454   3.990   2.205   4.293  0.2578 -0.5333  0.0020
   58CHL1  H22A 5455   4.084   2.250   4.254  0.8741 -0.8810  1.0538
   58CHL1  H22B 5456   3.951   2.275   4.370  1.8725 -0.5523  0.8770
   58CHL1   C23 5457   4.030   2.087   4.381 -0.1164  0.3823 -0.2686
   58CHL1  H23A 5458   3.952   2.031   4.438  4.0285 -2.4232  3.3617
   58CHL1  H23B 5459   4.086   2.016   4.316 -0.1097  1.1748 -1.1416
   58CHL1   C24 5460   4.132   2.118   4.494 -0.4082 -0.2667  0.6578
   58CHL1  H24A 5461   4.236   2.146   4.465  0.4704  0.6987  4.2429
   58CHL1  H24B 5462   4.101   2.209   4.551 -1.4039  0.7541 -1.3712
   58CHL1   C25 5463   4.139   2.006   4.605 -0.2395 -0.4108 -0.7238
   58CHL1   H25 5464   4.222   2.017   4.677 -0.3582  0.5759 -0.7239
   58CHL1   C26 5465   4.010   2.002   4.693  0.6047  0.2837 -1.0665
   58CHL1  H26A 5466   4.026   1.931   4.777  1.6210  2.6460  0.8858
   58CHL1  H26B 5467   3.995   2.100   4.745  0.5847  0.1999 -0.9133
   58CHL1  H26C 5468   3.920   1.976   4.633 -1.5443  0.0803  1.9959
   58CHL1   C27 5469   4.148   1.865   4.542 -0.3588 -0.2722 -0.5373
   58CHL1  H27A 5470   4.132   1.783   4.614 -2.7253  1.4729  1.0846
   58CHL1  H27B 5471   4.060   1.860   4.474 -0.7422  2.3039 -0.3295
   58CHL1  H27C 5472   4.239   1.849   4.479  0.8779  0.3762  1.0283
   59CHL1    C3 5473   2.425   1.108   3.001  0.0103 -0.6190  0.5337
   59CHL1    H3 5474   2.321   1.071   3.012  0.1189 -0.4671  2.3847
   59CHL1    O3 5475   2.465   1.108   2.866  0.0928  0.5077  0.4657
   59CHL1   H3' 5476   2.553   1.144   2.875  1.0631 -1.9209  1.3750
   59CHL1    C4 5477   2.433   1.244   3.052 -0.3019  0.1694 -0.4962
   59CHL1   H4A 5478   2.538   1.279   3.039 -1.2410  2.8375 -1.5976
   59CHL1   H4B 5479   2.368   1.303   2.984 -0.3100 -0.5587 -1.1357
   59CHL1    C5 5480   2.379   1.253   3.194 -0.2747 -0.4623  0.7327
   59CHL1    C6 5481   2.268   1.328   3.216  0.2649  0.1728 -0.2540
   59CHL1    H6 5482   2.215   1.379   3.134  0.1725 -0.7340 -0.7662
   59CHL1    C7 5483   2.208   1.340   3.358  0.5529  0.3746  0.2559
   59CHL1   H7A 5484   2.174   1.444   3.375  1.0529  0.4519  0.8143
   59CHL1   H7B 5485   2.116   1.277   3.364 -0.5400  1.9920  1.0377
   59CHL1    C8 5486   2.309   1.288   3.460  0.6661  0.3160 -0.2215
   59CHL1    H8 5487   2.390   1.364   3.467  2.0445 -1.1798  0.6868
   59CHL1   C14 5488   2.242   1.275   3.596 -0.3793 -0.2492 -0.1516
   59CHL1   H14 5489   2.160   1.201   3.579  0.3925 -1.1314 -0.0860
   59CHL1   C15 5490   2.159   1.396   3.652 -0.2645 -0.1539  0.0285
   59CHL1  H15A 5491   2.228   1.481   3.634 -0.8711  0.2269 -0.5677
   59CHL1  H15B 5492   2.063   1.404   3.596  1.1405 -1.5336 -2.8440
   59CHL1   C16 5493   2.153   1.376   3.801 -0.3031  0.0509  0.0777
   59CHL1  H16A 5494   2.199   1.454   3.866 -2.3690  2.6321 -1.3686
   59CHL1  H16B 5495   2.049   1.348   3.830 -0.7380  0.9762 -0.5393
   59CHL1   C17 5496   2.238   1.247   3.832 -0.2712  0.4663  0.4033
   59CHL1   H17 5497   2.171   1.161   3.811 -1.2755  1.8057 -2.3111
   59CHL1   C13 5498   2.334   1.227   3.713 -0.2050  0.5333  0.9723
   59CHL1   C18 5499   2.459   1.310   3.741 -0.1578  0.0438  0.6289
   59CHL1  H18A 5500   2.522   1.320   3.650 -0.3907  0.7586  0.5332
   59CHL1  H18B 5501   2.442   1.417   3.769  0.1777  0.3377 -0.2571
   59CHL1  H18C 5502   2.523   1.258   3.815  2.3784 -1.1785 -2.2123
   59CHL1   C12 5503   2.364   1.082   3.676 -0.2994 -0.0213 -0.0013
   59CHL1  H12A 5504   2.434   1.027   3.743  1.7926  0.3548 -1.7863
   59CHL1  H12B 5505   2.268   1.025   3.677  0.1158 -0.7968 -1.4261
   59CHL1   C11 5506   2.433   1.077   3.544 -0.6977  0.2859  0.1934
   59CHL1  H11A 5507   2.541   1.100   3.558  0.6896 -3.6554 -2.2601
   59CHL1  H11B 5508   2.441   0.972   3.508  2.9369  0.5124 -0.0399
   59CHL1    C9 5509   2.365   1.148   3.423  0.2143 -0.1521  0.2588
   59CHL1    H9 5510   2.282   1.081   3.391  1.3031 -0.5903 -1.7985
   59CHL1   C10 5511   2.448   1.158   3.297 -0.4598  0.1484  0.2138
   59CHL1   C19 5512   2.590   1.207   3.325  0.0591 -0.6184 -0.3807
   59CHL1  H19A 5513   2.578   1.308   3.370  1.8508  0.5244 -2.2693
   59CHL1  H19B 5514   2.656   1.133   3.376 -0.3862  0.1661  1.4384
   59CHL1  H19C 5515   2.648   1.224   3.232  0.7984 -0.4577  0.1007
   59CHL1    C1 5516   2.463   1.020   3.232  0.1308  0.9114 -1.4115
   59CHL1   H1A 5517   2.510   0.948   3.302 -3.2130  1.3551  1.5606
   59CHL1   H1B 5518   2.371   0.958   3.242  0.4809  0.3456 -1.6004
   59CHL1    C2 5519   2.517   1.020   3.095  0.0844  0.3165 -0.2784
   59CHL1   H2A 5520   2.514   0.916   3.056 -2.0485  0.3074 -0.1590
   59CHL1   H2B 5521   2.623   1.051   3.081 -0.1115  1.7065  1.0917
   59CHL1   C20 5522   2.286   1.233   3.972 -0.2894 -0.5562 -0.0287
   59CHL1   H20 5523   2.359   1.314   3.986 -0.5312 -0.1842 -0.8375
   59CHL1   C21 5524   2.341   1.097   4.001 -0.2371 -0.6666 -0.3288
   59CHL1  H21A 5525   2.261   1.025   3.976 -0.6845 -0.7434  1.2332
   59CHL1  H21B 5526   2.377   1.090   4.106 -2.6264  0.8485  0.6840
   59CHL1  H21C 5527   2.422   1.078   3.927  0.4513  0.2063  0.1668
   59CHL1   C22 5528   2.185   1.275   4.086  0.2353  0.3132  0.6623
   59CHL1  H22A 5529   2.179   1.384   4.066 -1.4110  0.0955 -0.2454
   59CHL1  H22B 5530   2.087   1.229   4.060 -0.3513 -0.6776  4.1430
   59CHL1   C23 5531   2.230   1.250   4.229 -0.3584  0.0192 -0.4136
   59CHL1  H23A 5532   2.224   1.143   4.261 -0.5184 -1.0719 -3.7616
   59CHL1  H23B 5533   2.341   1.262   4.229 -0.3664  0.3322 -2.1937
   59CHL1   C24 5534   2.178   1.349   4.326 -0.1910  0.2547 -0.0393
   59CHL1  H24A 5535   2.237   1.342   4.419  2.0180  1.2352 -1.2918
   59CHL1  H24B 5536   2.181   1.453   4.286 -2.1054  0.3899  0.0572
   59CHL1   C25 5537   2.024   1.328   4.343 -0.2229  0.0280 -0.1307
   59CHL1   H25 5538   1.985   1.306   4.242 -0.6598  1.7427 -0.3621
   59CHL1   C26 5539   2.014   1.203   4.439  0.0344 -0.2874 -0.4947
   59CHL1  H26A 5540   2.076   1.121   4.398  3.3671  1.3409  0.8905
   59CHL1  H26B 5541   2.051   1.221   4.543 -0.9399  1.2425 -0.3744
   59CHL1  H26C 5542   1.912   1.160   4.451  0.4548 -0.8998  1.3597
   59CHL1   C27 5543   1.959   1.453   4.401  0.3556 -0.5218 -0.3729
   59CHL1  H27A 5544   2.018   1.511   4.474  0.7595 -0.4794 -0.7242
   59CHL1  H27B 5545   1.943   1.537   4.329  2.0960  0.4293  0.2967
   59CHL1  H27C 5546   1.866   1.429   4.456 -0.1177  0.5983 -0.6716
   60CHL1    C3 5547   2.938   6.484   2.791 -0.1967  0.5072 -0.4482
   60CHL1    H3 5548   2.948   6.378   2.820 -0.2749  0.6869  0.2479
   60CHL1    O3 5549   2.977   6.506   2.663  0.5679  0.6493  0.4879
   60CHL1   H3' 5550   3.073   6.503   2.659  0.6845  2.3418  1.2227
   60CHL1    C4 5551   2.793   6.530   2.816  0.0060 -0.0864  0.2831
   60CHL1   H4A 5552   2.788   6.640   2.806  1.6366  0.1814  2.0776
   60CHL1   H4B 5553   2.725   6.479   2.744 -1.2197 -1.8351  2.5416
   60CHL1    C5 5554   2.743   6.489   2.951 -0.1777  0.5688 -0.0931
   60CHL1    C6 5555   2.641   6.404   2.960 -0.1299  0.6968  0.1122
   60CHL1    H6 5556   2.589   6.371   2.869  1.6272 -1.0854 -0.3242
   60CHL1    C7 5557   2.590   6.364   3.094  0.2542 -0.0502  0.2462
   60CHL1   H7A 5558   2.480   6.379   3.103  0.1298 -1.7716  2.2026
   60CHL1   H7B 5559   2.611   6.256   3.108  0.3938 -0.3598 -2.0251
   60CHL1    C8 5560   2.652   6.448   3.209  0.1505 -0.5944 -0.3540
   60CHL1    H8 5561   2.608   6.550   3.201  2.6347  0.6280  0.5581
   60CHL1   C14 5562   2.612   6.394   3.345  0.6549 -0.9519  0.0254
   60CHL1   H14 5563   2.674   6.304   3.366  1.2741 -0.2554  1.3969
   60CHL1   C15 5564   2.469   6.350   3.369  0.6872  0.1003  0.4816
   60CHL1  H15A 5565   2.403   6.430   3.329 -0.9102 -1.1855  0.4700
   60CHL1  H15B 5566   2.452   6.252   3.319 -0.0657  1.1448 -1.4217
   60CHL1   C16 5567   2.451   6.346   3.519 -0.1211 -0.7606  0.3916
   60CHL1  H16A 5568   2.360   6.397   3.557 -1.1068  0.5957 -3.3046
   60CHL1  H16B 5569   2.437   6.244   3.561 -0.6667 -1.0809 -0.5347
   60CHL1   C17 5570   2.587   6.401   3.575 -0.6823  0.2748 -0.7552
   60CHL1   H17 5571   2.647   6.308   3.585  0.7928  1.0483 -1.9838
   60CHL1   C13 5572   2.656   6.482   3.464  0.8315  0.0107  0.3788
   60CHL1   C18 5573   2.591   6.621   3.454 -0.2681  0.4936 -0.4742
   60CHL1  H18A 5574   2.483   6.618   3.479 -0.3152  1.4723 -0.5127
   60CHL1  H18B 5575   2.635   6.688   3.530  0.2860 -0.9869  0.5612
   60CHL1  H18C 5576   2.601   6.670   3.355  0.3643 -0.0103 -0.6680
   60CHL1   C12 5577   2.805   6.480   3.461  0.2732  0.0335  0.0281
   60CHL1  H12A 5578   2.860   6.521   3.549 -0.7997 -0.4804  0.9559
   60CHL1  H12B 5579   2.838   6.374   3.454  1.7496  0.2859  2.0354
   60CHL1   C11 5580   2.864   6.532   3.324 -0.4924  0.6915 -0.5553
   60CHL1  H11A 5581   2.854   6.642   3.336 -0.4965  0.4932  1.5598
   60CHL1  H11B 5582   2.973   6.516   3.319 -0.3017  0.4641  2.5215
   60CHL1    C9 5583   2.799   6.466   3.199  0.0142  0.9174  0.2230
   60CHL1    H9 5584   2.836   6.362   3.187 -0.8915  0.5483  0.4946
   60CHL1   C10 5585   2.831   6.540   3.068 -0.2384 -1.3366  0.2418
   60CHL1   C19 5586   2.796   6.696   3.075  1.0867  0.2331 -1.0208
   60CHL1  H19A 5587   2.689   6.720   3.090  1.0586 -0.4646  0.0382
   60CHL1  H19B 5588   2.836   6.740   3.169 -1.2467 -3.2242  1.8756
   60CHL1  H19C 5589   2.844   6.747   2.989  1.9180 -1.2300 -1.4718
   60CHL1    C1 5590   2.986   6.529   3.031  0.5298  0.6882 -0.4108
   60CHL1   H1A 5591   3.049   6.589   3.100 -0.8484  1.5075  0.1826
   60CHL1   H1B 5592   3.015   6.422   3.043 -0.6136  0.3086 -0.8867
   60CHL1    C2 5593   3.028   6.564   2.887  0.2050 -0.7620  0.3892
   60CHL1   H2A 5594   3.135   6.536   2.870  0.8666  1.6236  0.2993
   60CHL1   H2B 5595   3.000   6.669   2.867 -0.4563 -1.0102 -0.0132
   60CHL1   C20 5596   2.575   6.461   3.722  0.9659  0.5483  0.2439
   60CHL1   H20 5597   2.488   6.531   3.722 -0.9681 -1.7292  0.3799
   60CHL1   C21 5598   2.699   6.524   3.771  0.5352 -0.8487  0.0119
   60CHL1  H21A 5599   2.682   6.585   3.862  3.0990  1.2104 -0.7737
   60CHL1  H21B 5600   2.746   6.597   3.702 -0.2630  0.7267  1.0709
   60CHL1  H21C 5601   2.771   6.445   3.801  2.1001  1.2445  2.0705
   60CHL1   C22 5602   2.525   6.357   3.826 -0.0886  0.0303  0.8184
   60CHL1  H22A 5603   2.450   6.291   3.777 -0.4184  1.0563 -0.1195
   60CHL1  H22B 5604   2.609   6.294   3.860  0.9645  2.0738  2.2160
   60CHL1   C23 5605   2.443   6.417   3.946 -0.6874 -0.4871 -0.4321
   60CHL1  H23A 5606   2.505   6.472   4.020 -2.9572  1.0594  0.4125
   60CHL1  H23B 5607   2.375   6.496   3.906  1.7366  1.9407 -0.0558
   60CHL1   C24 5608   2.362   6.314   4.029  0.2702 -0.0390 -0.3219
   60CHL1  H24A 5609   2.328   6.230   3.964 -1.4068 -0.3155  0.8636
   60CHL1  H24B 5610   2.427   6.264   4.104 -2.8124 -0.5710  2.1705
   60CHL1   C25 5611   2.244   6.393   4.094  0.1700  0.6747  0.2240
   60CHL1   H25 5612   2.174   6.427   4.014 -0.0152  2.7146  1.1843
   60CHL1   C26 5613   2.169   6.294   4.189  0.0504  0.0708  0.0309
   60CHL1  H26A 5614   2.079   6.336   4.239  0.6002  1.8730 -0.4038
   60CHL1  H26B 5615   2.149   6.202   4.129  1.1195 -1.5268  2.0126
   60CHL1  H26C 5616   2.233   6.265   4.274 -0.8434 -1.4866  0.2190
   60CHL1   C27 5617   2.280   6.520   4.179  0.2234 -0.6988  0.5684
   60CHL1  H27A 5618   2.321   6.479   4.273 -0.0240  0.9018  1.4061
   60CHL1  H27B 5619   2.356   6.591   4.139 -0.6012  0.2320  0.6290
   60CHL1  H27C 5620   2.185   6.575   4.196  1.4664  1.5697  0.4327
   61CHL1    C3 5621   4.330   5.171   6.172  0.8614  0.4195  0.1294
   61CHL1    H3 5622   4.425   5.157   6.115  0.7987  1.9543 -0.4036
   61CHL1    O3 5623   4.360   5.218   6.299 -0.0133  0.6844  0.0816
   61CHL1   H3' 5624   4.278   5.252   6.334 -1.0048 -3.0843  1.9961
   61CHL1    C4 5625   4.244   5.275   6.100  0.7275 -0.3643  0.0552
   61CHL1   H4A 5626   4.148   5.290   6.154  1.0175 -1.9915  1.0842
   61CHL1   H4B 5627   4.301   5.370   6.095 -2.0801  1.3774 -1.5260
   61CHL1    C5 5628   4.200   5.233   5.958  0.2002  0.2707  1.0703
   61CHL1    C6 5629   4.223   5.306   5.850  0.4603  0.4659  0.0431
   61CHL1    H6 5630   4.279   5.400   5.861  0.6521  0.5255 -1.2074
   61CHL1    C7 5631   4.176   5.262   5.716 -0.2864  0.8025  0.2762
   61CHL1   H7A 5632   4.137   5.352   5.664  1.0648  2.7979  2.5346
   61CHL1   H7B 5633   4.256   5.205   5.663 -1.7921 -1.7583  0.5976
   61CHL1    C8 5634   4.060   5.152   5.721 -0.4911  0.2466  0.2266
   61CHL1    H8 5635   3.964   5.193   5.759 -1.2621 -2.6293  1.7299
   61CHL1   C14 5636   4.026   5.101   5.580 -0.2537  0.1317  0.2717
   61CHL1   H14 5637   4.122   5.059   5.543 -0.6345 -0.7658  0.2756
   61CHL1   C15 5638   3.991   5.204   5.472  0.0027  0.4498  0.1021
   61CHL1  H15A 5639   3.903   5.268   5.496 -0.8486 -0.2694 -1.0068
   61CHL1  H15B 5640   4.089   5.254   5.460  0.8116 -1.0058  0.4984
   61CHL1   C16 5641   3.955   5.115   5.357  0.0963  0.0337  0.0877
   61CHL1  H16A 5642   3.875   5.161   5.296  0.1175 -1.8714 -1.4894
   61CHL1  H16B 5643   4.042   5.110   5.287  0.7523  0.7873  0.8363
   61CHL1   C17 5644   3.924   4.971   5.405 -0.7902 -0.2033  0.3555
   61CHL1   H17 5645   4.010   4.912   5.366 -1.7589 -1.1734 -0.3817
   61CHL1   C13 5646   3.933   4.981   5.563 -0.6511 -0.1246  0.2991
   61CHL1   C18 5647   3.796   5.014   5.625  0.4659 -0.1314 -0.2751
   61CHL1  H18A 5648   3.743   5.096   5.573  0.1560  0.3235  0.7251
   61CHL1  H18B 5649   3.726   4.928   5.624  0.5437 -0.1960 -0.3158
   61CHL1  H18C 5650   3.813   5.064   5.723 -0.1159 -0.7528  0.1523
   61CHL1   C12 5651   4.005   4.874   5.644 -0.1732 -0.3364  0.3898
   61CHL1  H12A 5652   3.945   4.781   5.632  0.3081 -0.4749 -1.1761
   61CHL1  H12B 5653   4.102   4.850   5.595 -1.6203 -0.0343 -2.8585
   61CHL1   C11 5654   4.026   4.904   5.790  0.3337 -0.5141 -1.0622
   61CHL1  H11A 5655   3.934   4.901   5.853  1.5173  0.4796  0.8299
   61CHL1  H11B 5656   4.080   4.818   5.836  1.2424  0.5040 -0.1638
   61CHL1    C9 5657   4.107   5.038   5.812 -0.2113 -0.0163 -0.4857
   61CHL1    H9 5658   4.207   5.005   5.777 -0.5002 -0.7047 -0.6784
   61CHL1   C10 5659   4.122   5.097   5.951  0.4175 -0.0279  0.5909
   61CHL1   C19 5660   3.983   5.114   6.013 -0.1114 -0.0270  0.2540
   61CHL1  H19A 5661   3.927   5.018   6.014 -0.5896  0.2277 -0.4749
   61CHL1  H19B 5662   3.979   5.142   6.120 -1.5439 -0.9791  0.4797
   61CHL1  H19C 5663   3.914   5.186   5.963 -2.1423 -2.6194 -0.8993
   61CHL1    C1 5664   4.207   4.992   6.035  0.5869 -0.3831  0.4120
   61CHL1   H1A 5665   4.145   4.903   6.058 -1.6126  1.0603  0.3809
   61CHL1   H1B 5666   4.300   4.972   5.978 -0.2366  0.2292 -1.2204
   61CHL1    C2 5667   4.255   5.035   6.172 -0.1576  0.0845 -0.2830
   61CHL1   H2A 5668   4.325   4.961   6.214 -1.7699 -0.3286  1.9224
   61CHL1   H2B 5669   4.162   5.047   6.233 -1.0247  2.3189 -1.8721
   61CHL1   C20 5670   3.806   4.907   5.337  0.6144 -0.8909 -0.2268
   61CHL1   H20 5671   3.711   4.949   5.376  1.1105  0.5776 -0.5396
   61CHL1   C21 5672   3.799   4.756   5.361 -0.4219  0.7199 -0.1293
   61CHL1  H21A 5673   3.805   4.728   5.468 -0.1856  0.6032 -0.1722
   61CHL1  H21B 5674   3.876   4.703   5.302 -1.4663 -1.3607  0.2666
   61CHL1  H21C 5675   3.700   4.709   5.338 -1.0162  0.8856  1.9469
   61CHL1   C22 5676   3.797   4.938   5.186 -0.4690  0.0889  0.2445
   61CHL1  H22A 5677   3.796   5.045   5.158  3.9760  0.1766 -0.3735
   61CHL1  H22B 5678   3.884   4.889   5.135 -1.0964  0.8380 -1.6354
   61CHL1   C23 5679   3.673   4.871   5.121 -0.1568 -0.1392  0.2124
   61CHL1  H23A 5680   3.669   4.761   5.112 -0.7450 -0.0665 -0.5366
   61CHL1  H23B 5681   3.585   4.902   5.182  0.1065  2.1262 -0.4841
   61CHL1   C24 5682   3.645   4.922   4.983  0.1989  0.0722  0.1170
   61CHL1  H24A 5683   3.542   4.894   4.953  0.6371 -1.5715  0.0631
   61CHL1  H24B 5684   3.642   5.033   4.984  2.1622  0.1671 -0.3235
   61CHL1   C25 5685   3.752   4.886   4.873 -0.3276  0.1898  0.1810
   61CHL1   H25 5686   3.854   4.896   4.915  0.6856  0.2032 -2.1249
   61CHL1   C26 5687   3.722   4.744   4.838  0.0074 -0.2480  0.4580
   61CHL1  H26A 5688   3.618   4.724   4.803  0.5197 -0.6951 -0.8736
   61CHL1  H26B 5689   3.792   4.710   4.759 -0.4450 -2.1357  0.8189
   61CHL1  H26C 5690   3.745   4.675   4.921 -1.5032 -1.8196 -0.3685
   61CHL1   C27 5691   3.754   4.980   4.758 -0.1930 -0.3249  0.4464
   61CHL1  H27A 5692   3.654   4.969   4.711  0.2446 -0.2253 -0.5358
   61CHL1  H27B 5693   3.762   5.088   4.780 -2.0045 -0.5112  2.3202
   61CHL1  H27C 5694   3.826   4.951   4.679 -0.2100 -0.4176  0.4643
   62CHL1    C3 5695   5.579   0.625   3.074  0.0385 -0.8985 -0.1116
   62CHL1    H3 5696   5.661   0.552   3.091 -0.1598 -0.8196  1.3581
   62CHL1    O3 5697   5.583   0.672   2.941  0.1906  0.0250 -0.6259
   62CHL1   H3' 5698   5.502   0.680   2.891  0.1153  1.0988 -0.3637
   62CHL1    C4 5699   5.447   0.553   3.091  0.0189 -0.5568  0.4746
   62CHL1   H4A 5700   5.366   0.614   3.045  0.4689  0.1640  0.6243
   62CHL1   H4B 5701   5.451   0.461   3.029  3.4646 -1.0147  1.1482
   62CHL1    C5 5702   5.417   0.517   3.233  0.5153 -0.4598 -0.8454
   62CHL1    C6 5703   5.420   0.391   3.281  0.2544  0.7690  0.3754
   62CHL1    H6 5704   5.440   0.301   3.221 -0.5490 -0.5539  2.0318
   62CHL1    C7 5705   5.402   0.356   3.421  0.5145 -0.2068  0.1290
   62CHL1   H7A 5706   5.331   0.271   3.424  0.8888 -0.5222  0.0885
   62CHL1   H7B 5707   5.499   0.325   3.464 -0.4534 -2.2971  0.9300
   62CHL1    C8 5708   5.346   0.464   3.510  1.1921  0.0510 -0.0124
   62CHL1    H8 5709   5.236   0.470   3.498  0.8256  1.9389  3.1790
   62CHL1   C14 5710   5.371   0.430   3.650 -0.2318  0.9542 -0.2085
   62CHL1   H14 5711   5.482   0.439   3.660 -0.0936 -1.5311  1.4570
   62CHL1   C15 5712   5.343   0.287   3.706  0.4752 -0.3834 -0.2900
   62CHL1  H15A 5713   5.242   0.259   3.669 -0.4537  1.4826  0.7136
   62CHL1  H15B 5714   5.415   0.205   3.685 -0.0445 -0.5625 -1.4501
   62CHL1   C16 5715   5.329   0.311   3.860 -0.3861  0.5623 -0.2219
   62CHL1  H16A 5716   5.222   0.295   3.883 -0.4699 -0.3643 -1.1843
   62CHL1  H16B 5717   5.389   0.239   3.920 -2.1960 -1.1600 -0.3606
   62CHL1   C17 5718   5.360   0.453   3.890 -0.1740 -0.3727  0.0889
   62CHL1   H17 5719   5.470   0.458   3.895 -0.1593  0.6948 -0.8863
   62CHL1   C13 5720   5.321   0.527   3.760  0.4007 -0.0611  0.0663
   62CHL1   C18 5721   5.173   0.538   3.750  0.0620 -0.3780 -0.0256
   62CHL1  H18A 5722   5.118   0.441   3.750 -0.8429  0.0614  2.4227
   62CHL1  H18B 5723   5.128   0.602   3.828  2.8575 -0.1567  1.5290
   62CHL1  H18C 5724   5.139   0.583   3.654 -2.2348 -0.3005  0.7714
   62CHL1   C12 5725   5.380   0.661   3.729  0.3089  0.1123 -0.7159
   62CHL1  H12A 5726   5.349   0.737   3.804  2.1854 -0.7094  1.0178
   62CHL1  H12B 5727   5.489   0.646   3.745  0.8636  0.4445 -3.6055
   62CHL1   C11 5728   5.361   0.710   3.583 -0.7471  0.1018  0.5699
   62CHL1  H11A 5729   5.257   0.734   3.553 -0.6792  0.1660  0.3863
   62CHL1  H11B 5730   5.417   0.806   3.575  0.0726 -0.4286 -0.2419
   62CHL1    C9 5731   5.406   0.600   3.483 -0.3960 -0.2888 -0.5723
   62CHL1    H9 5732   5.511   0.580   3.513 -1.0858 -1.5422  1.1651
   62CHL1   C10 5733   5.413   0.636   3.332 -0.6976  0.1464 -0.1467
   62CHL1   C19 5734   5.285   0.720   3.309  0.0689 -0.2300  0.7862
   62CHL1  H19A 5735   5.299   0.821   3.352  0.9808 -0.1651  0.3715
   62CHL1  H19B 5736   5.283   0.746   3.201  2.2226 -1.1988  0.4572
   62CHL1  H19C 5737   5.188   0.670   3.329  0.2179 -0.8444  0.0397
   62CHL1    C1 5738   5.543   0.710   3.314 -0.3946 -0.2594  0.0405
   62CHL1   H1A 5739   5.530   0.805   3.370  1.5065  3.2291 -4.7072
   62CHL1   H1B 5740   5.631   0.653   3.349  0.4631  0.9746 -0.0318
   62CHL1    C2 5741   5.578   0.750   3.166  0.4151  0.1442  0.0362
   62CHL1   H2A 5742   5.680   0.794   3.172  0.9993 -1.0384 -0.8756
   62CHL1   H2B 5743   5.514   0.834   3.130 -0.4265 -1.0566 -1.3573
   62CHL1   C20 5744   5.308   0.513   4.025  0.4458 -0.0835 -0.1859
   62CHL1   H20 5745   5.220   0.577   4.002 -0.6412 -1.7332 -0.8150
   62CHL1   C21 5746   5.413   0.605   4.085 -0.5081  0.5281  0.6687
   62CHL1  H21A 5747   5.489   0.551   4.145  1.5983  0.1321 -2.1315
   62CHL1  H21B 5748   5.375   0.685   4.153  1.2728  2.2415 -0.2534
   62CHL1  H21C 5749   5.465   0.664   4.006 -0.3624  1.1022  1.1846
   62CHL1   C22 5750   5.263   0.404   4.124 -0.5701 -0.4121 -0.3230
   62CHL1  H22A 5751   5.180   0.340   4.087 -2.8701  0.1400  3.3509
   62CHL1  H22B 5752   5.355   0.342   4.136  1.4373  2.2350 -1.1455
   62CHL1   C23 5753   5.207   0.454   4.255  0.1667 -0.5958  0.2148
   62CHL1  H23A 5754   5.219   0.369   4.325  1.5179 -1.0867 -0.5664
   62CHL1  H23B 5755   5.272   0.526   4.309 -0.2096 -2.3019  3.1276
   62CHL1   C24 5756   5.062   0.510   4.252 -0.1202 -0.6039 -0.5882
   62CHL1  H24A 5757   5.067   0.585   4.170 -0.4805 -1.5675 -1.5278
   62CHL1  H24B 5758   4.991   0.429   4.222 -0.8898 -0.6868  1.3094
   62CHL1   C25 5759   4.990   0.574   4.374 -0.5421 -0.6334 -0.5294
   62CHL1   H25 5760   5.007   0.493   4.448  2.7163 -0.9273 -1.4324
   62CHL1   C26 5761   5.072   0.697   4.421  0.1804  0.1829  0.1339
   62CHL1  H26A 5762   5.034   0.746   4.513 -0.9057 -0.6702  0.1673
   62CHL1  H26B 5763   5.174   0.657   4.436 -0.5372 -2.5507 -1.5585
   62CHL1  H26C 5764   5.072   0.771   4.338 -0.9896  0.7244  0.5856
   62CHL1   C27 5765   4.840   0.597   4.345 -0.3681  0.1493 -0.9911
   62CHL1  H27A 5766   4.837   0.675   4.266  3.1802  0.4763 -0.9714
   62CHL1  H27B 5767   4.774   0.512   4.317 -0.7649  1.1840 -3.4986
   62CHL1  H27C 5768   4.795   0.642   4.436  0.2829  0.5697 -0.8764
   63CHL1    C3 5769   6.003   4.431   2.683 -0.3748 -0.3095  0.6611
   63CHL1    H3 5770   6.055   4.530   2.679 -2.1739  0.6265 -0.7922
   63CHL1    O3 5771   5.983   4.390   2.545 -0.2446  0.7198 -0.9197
   63CHL1   H3' 5772   5.930   4.311   2.553  1.1298 -0.4542 -2.7023
   63CHL1    C4 5773   6.085   4.330   2.761  0.6051 -0.4083 -0.3261
   63CHL1   H4A 5774   6.030   4.235   2.746 -0.6047  0.1078  0.6834
   63CHL1   H4B 5775   6.186   4.310   2.717  1.0264 -0.6226  0.6974
   63CHL1    C5 5776   6.085   4.337   2.912 -0.5608 -0.3646 -0.0056
   63CHL1    C6 5777   6.203   4.358   2.976  0.5447  0.0931 -0.0812
   63CHL1    H6 5778   6.289   4.362   2.907 -2.3921  1.1985 -4.0612
   63CHL1    C7 5779   6.212   4.371   3.124 -0.1131 -0.3525  0.4098
   63CHL1   H7A 5780   6.285   4.298   3.168 -3.0499 -3.5944  0.3451
   63CHL1   H7B 5781   6.228   4.478   3.150 -2.2203 -0.0028  0.4250
   63CHL1    C8 5782   6.081   4.338   3.197  0.5116 -0.0533  0.2652
   63CHL1    H8 5783   6.071   4.227   3.188 -0.4220 -0.0095  0.6778
   63CHL1   C14 5784   6.094   4.371   3.345  0.4977 -0.0359  0.1747
   63CHL1   H14 5785   6.118   4.479   3.340  1.7070 -0.3413 -1.3603
   63CHL1   C15 5786   6.216   4.315   3.426 -0.6330  0.7133  0.0159
   63CHL1  H15A 5787   6.231   4.208   3.402  1.5332  1.1121 -0.6527
   63CHL1  H15B 5788   6.309   4.370   3.400  1.4328 -2.4642  0.2161
   63CHL1   C16 5789   6.162   4.341   3.572  0.1071 -0.0224  0.3358
   63CHL1  H16A 5790   6.171   4.244   3.626 -2.2798 -0.5550 -0.1111
   63CHL1  H16B 5791   6.231   4.417   3.615  0.1531  1.7106 -2.5699
   63CHL1   C17 5792   6.018   4.394   3.564 -0.3248  0.5832  0.4721
   63CHL1   H17 5793   6.022   4.504   3.548 -0.3255  0.9294  2.5733
   63CHL1   C13 5794   5.966   4.352   3.427 -0.3775  0.5382 -0.5526
   63CHL1   C18 5795   5.923   4.205   3.433 -0.1969 -0.3202  0.2880
   63CHL1  H18A 5796   5.915   4.152   3.335  0.1769 -3.9227  2.0096
   63CHL1  H18B 5797   6.005   4.151   3.485 -0.1870 -1.1905 -0.6037
   63CHL1  H18C 5798   5.822   4.189   3.477 -1.1168  0.5671 -1.3921
   63CHL1   C12 5799   5.855   4.438   3.360 -0.0073  0.6480  0.2355
   63CHL1  H12A 5800   5.758   4.426   3.413 -0.1206  0.1727 -0.0745
   63CHL1  H12B 5801   5.883   4.545   3.373  1.2345  0.4729 -0.9037
   63CHL1   C11 5802   5.834   4.403   3.212  0.4442 -0.8977 -1.0913
   63CHL1  H11A 5803   5.779   4.307   3.224 -0.7535  0.0834  3.2351
   63CHL1  H11B 5804   5.758   4.475   3.173 -0.2292  0.3188  2.1412
   63CHL1    C9 5805   5.963   4.411   3.127  0.6668 -0.5563  0.1404
   63CHL1    H9 5806   6.005   4.514   3.127 -0.7035  0.0341 -1.3950
   63CHL1   C10 5807   5.945   4.364   2.983 -1.4877 -0.1532 -0.3869
   63CHL1   C19 5808   5.866   4.237   2.976  0.4614  0.3778  0.4845
   63CHL1  H19A 5809   5.759   4.257   2.999  0.5362  0.6700  0.5828
   63CHL1  H19B 5810   5.884   4.189   2.877  0.7346  0.3831  0.5309
   63CHL1  H19C 5811   5.904   4.159   3.045 -0.8019 -0.7166 -0.0063
   63CHL1    C1 5812   5.872   4.481   2.907 -0.0863 -0.0495 -0.0037
   63CHL1   H1A 5813   5.772   4.499   2.951  0.1163 -4.2962  2.6838
   63CHL1   H1B 5814   5.938   4.570   2.916  1.2487 -0.8484 -1.3394
   63CHL1    C2 5815   5.869   4.462   2.748 -0.4433 -0.4431 -0.2210
   63CHL1   H2A 5816   5.813   4.534   2.685 -2.0062 -1.4758 -0.0858
   63CHL1   H2B 5817   5.809   4.369   2.736  1.4380 -1.6224 -0.9038
   63CHL1   C20 5818   5.920   4.372   3.681  0.7205  0.3614  0.2710
   63CHL1   H20 5819   5.820   4.369   3.634  1.3242 -2.3761 -1.0215
   63CHL1   C21 5820   5.947   4.495   3.766  0.0278 -0.5048 -0.0771
   63CHL1  H21A 5821   6.055   4.512   3.783 -0.0356  0.9283 -0.8902
   63CHL1  H21B 5822   5.898   4.487   3.865  2.3099 -0.0133  1.1508
   63CHL1  H21C 5823   5.912   4.581   3.704  0.3113 -1.0509 -1.0183
   63CHL1   C22 5824   5.935   4.243   3.770  0.5857 -0.1489  0.2326
   63CHL1  H22A 5825   5.958   4.147   3.718 -0.0405 -0.8377  1.2008
   63CHL1  H22B 5826   6.018   4.258   3.843 -0.8525  0.1233  1.8619
   63CHL1   C23 5827   5.803   4.213   3.852 -0.9389 -0.1796 -0.1981
   63CHL1  H23A 5828   5.778   4.293   3.924 -3.4234 -2.2830  1.4687
   63CHL1  H23B 5829   5.723   4.203   3.775 -0.7230  1.2458 -0.6332
   63CHL1   C24 5830   5.794   4.089   3.946 -0.2904 -0.4801 -0.6332
   63CHL1  H24A 5831   5.790   4.000   3.880  0.6336 -2.4424  1.7907
   63CHL1  H24B 5832   5.882   4.089   4.014  0.3659  0.8205 -1.4644
   63CHL1   C25 5833   5.672   4.075   4.036  0.1660 -0.4949  0.1038
   63CHL1   H25 5834   5.675   3.979   4.091  0.4460 -0.4235  0.2156
   63CHL1   C26 5835   5.660   4.187   4.146  0.6272 -0.3761 -0.1527
   63CHL1  H26A 5836   5.761   4.210   4.185 -0.4683  1.8389  1.6505
   63CHL1  H26B 5837   5.614   4.282   4.109  2.2208  0.5550  0.1595
   63CHL1  H26C 5838   5.582   4.152   4.217  0.2574 -1.4302 -1.0562
   63CHL1   C27 5839   5.539   4.067   3.956  0.0961 -0.0418  0.0936
   63CHL1  H27A 5840   5.528   4.165   3.906 -0.0251  1.6543  3.2269
   63CHL1  H27B 5841   5.550   3.985   3.882 -0.5553 -0.4363  0.4251
   63CHL1  H27C 5842   5.447   4.043   4.013  0.6737 -0.2904  0.9484
   64CHL1    C3 5843   2.379   4.244   2.829  0.7610  0.0262  0.1214
   64CHL1    H3 5844   2.461   4.201   2.889 -0.0494  0.0269  1.2524
   64CHL1    O3 5845   2.416   4.286   2.705  0.1871  0.1167 -0.5973
   64CHL1   H3' 5846   2.439   4.210   2.651  2.9865  0.9687 -0.7709
   64CHL1    C4 5847   2.271   4.144   2.810  0.4365  0.6799 -0.0001
   64CHL1   H4A 5848   2.187   4.191   2.754  0.9663 -1.3317 -2.6921
   64CHL1   H4B 5849   2.321   4.060   2.757  1.9551  1.5205  0.0350
   64CHL1    C5 5850   2.215   4.084   2.938 -0.1744  0.0401  0.0439
   64CHL1    C6 5851   2.221   3.956   2.969 -0.1165  0.2479 -1.0671
   64CHL1    H6 5852   2.262   3.883   2.898 -1.5620 -2.4553  0.6821
   64CHL1    C7 5853   2.169   3.901   3.094  0.3614  0.1144 -0.3395
   64CHL1   H7A 5854   2.098   3.818   3.073  1.2662 -0.3388 -1.8058
   64CHL1   H7B 5855   2.256   3.869   3.155  0.1993 -1.0144 -0.6719
   64CHL1    C8 5856   2.081   4.006   3.174 -0.5545  0.3134 -0.0334
   64CHL1    H8 5857   1.983   4.017   3.123 -0.9090  0.6538  0.7048
   64CHL1   C14 5858   2.065   3.948   3.311 -0.5333  0.7823 -0.5133
   64CHL1   H14 5859   2.167   3.953   3.354 -0.1653  1.4152 -1.4225
   64CHL1   C15 5860   2.011   3.805   3.338  0.5776 -0.1518 -0.0993
   64CHL1  H15A 5861   1.929   3.787   3.265  1.1860  1.3884 -1.2113
   64CHL1  H15B 5862   2.092   3.730   3.330  0.1542 -1.1474  3.4223
   64CHL1   C16 5863   1.949   3.809   3.477  0.0559 -0.1094 -0.4107
   64CHL1  H16A 5864   1.844   3.774   3.471  0.0253 -0.7651  2.3162
   64CHL1  H16B 5865   1.994   3.728   3.539 -0.8086 -0.7710 -0.6181
   64CHL1   C17 5866   1.976   3.958   3.524 -0.1746  0.9120  0.1441
   64CHL1   H17 5867   2.080   3.961   3.562  0.3760 -0.2175 -1.1997
   64CHL1   C13 5868   1.976   4.036   3.392  0.0835  0.3459 -0.0941
   64CHL1   C18 5869   1.835   4.056   3.338  0.4537 -0.2314  0.2675
   64CHL1  H18A 5870   1.833   4.106   3.239  1.3082 -0.0927  0.3107
   64CHL1  H18B 5871   1.770   3.967   3.331  0.4205 -0.1709 -0.2293
   64CHL1  H18C 5872   1.794   4.129   3.412  0.4919  0.7102 -0.6210
   64CHL1   C12 5873   2.052   4.172   3.408 -0.9695 -0.2158  0.2456
   64CHL1  H12A 5874   1.981   4.241   3.458 -1.4267 -0.1730 -0.4409
   64CHL1  H12B 5875   2.142   4.152   3.469 -2.1132  0.0527  2.0936
   64CHL1   C11 5876   2.080   4.240   3.272 -0.0592  0.5936 -0.2219
   64CHL1  H11A 5877   1.979   4.257   3.228 -0.1560  1.1518  0.2100
   64CHL1  H11B 5878   2.124   4.340   3.285  0.9992  0.2309 -0.8986
   64CHL1    C9 5879   2.156   4.139   3.180 -0.7123  0.0452  0.2300
   64CHL1    H9 5880   2.257   4.119   3.221 -1.1343 -3.3909 -0.0867
   64CHL1   C10 5881   2.172   4.191   3.043 -0.8338  0.3760  0.8185
   64CHL1   C19 5882   2.043   4.254   2.980  0.2735  0.0561 -0.1525
   64CHL1  H19A 5883   2.060   4.307   2.884  1.4824 -0.3791 -0.1954
   64CHL1  H19B 5884   1.968   4.174   2.966 -0.5667  0.0391  3.4131
   64CHL1  H19C 5885   2.004   4.337   3.043  3.3863  2.0989 -0.7032
   64CHL1    C1 5886   2.273   4.313   3.045 -0.0301  0.6959 -0.6188
   64CHL1   H1A 5887   2.216   4.396   3.094 -4.2829 -0.4419 -3.0694
   64CHL1   H1B 5888   2.358   4.282   3.108  0.4405 -1.6918 -2.3124
   64CHL1    C2 5889   2.317   4.359   2.907 -0.0209 -0.1969 -0.2974
   64CHL1   H2A 5890   2.397   4.437   2.912  2.3023 -2.4116 -0.6797
   64CHL1   H2B 5891   2.239   4.397   2.838  1.6652  0.7893 -1.7699
   64CHL1   C20 5892   1.887   4.002   3.642  0.7912  0.1747  0.3267
   64CHL1   H20 5893   1.868   4.111   3.638 -2.5607 -0.3251 -2.0871
   64CHL1   C21 5894   1.957   3.959   3.775 -0.1548  0.7961 -0.2646
   64CHL1  H21A 5895   1.961   3.848   3.781 -3.2949  0.6983  3.3116
   64CHL1  H21B 5896   1.907   3.985   3.871 -1.6694  0.6827 -0.9990
   64CHL1  H21C 5897   2.061   3.997   3.779  0.8078 -1.7274  2.7984
   64CHL1   C22 5898   1.743   3.936   3.647 -0.1212 -0.5388  0.3586
   64CHL1  H22A 5899   1.715   3.946   3.540  2.0955 -1.2272 -0.3565
   64CHL1  H22B 5900   1.740   3.829   3.678 -0.8470 -0.4868  0.4933
   64CHL1   C23 5901   1.636   4.009   3.730  0.2288  0.1896  0.3018
   64CHL1  H23A 5902   1.683   4.064   3.815  2.1519 -1.2988  0.2676
   64CHL1  H23B 5903   1.585   4.090   3.673  0.8502 -0.6933 -1.5833
   64CHL1   C24 5904   1.524   3.917   3.785 -0.7720 -0.2838  0.8980
   64CHL1  H24A 5905   1.435   3.921   3.718 -2.4577 -2.7607  2.7738
   64CHL1  H24B 5906   1.560   3.814   3.765 -0.2896 -0.0325  0.4530
   64CHL1   C25 5907   1.490   3.922   3.931 -0.1520  0.3224 -1.5845
   64CHL1   H25 5908   1.584   3.911   3.989 -0.4910  1.6018 -0.7629
   64CHL1   C26 5909   1.431   4.056   3.974  0.0752  0.9637  0.2465
   64CHL1  H26A 5910   1.330   4.066   3.929 -0.0842  1.4811  0.7087
   64CHL1  H26B 5911   1.416   4.066   4.084  0.5639 -2.2965  0.6978
   64CHL1  H26C 5912   1.499   4.138   3.943  0.0049  1.1987  0.7066
   64CHL1   C27 5913   1.397   3.813   3.982  0.6791  0.1681 -0.1670
   64CHL1  H27A 5914   1.291   3.839   3.960  0.5258  0.4510  0.8548
   64CHL1  H27B 5915   1.422   3.714   3.938  1.3122  0.8642 -1.4490
   64CHL1  H27C 5916   1.403   3.812   4.092 -1.8710  0.0618  0.0296
   65CHL1    C3 5917   6.981   6.964   2.558  0.4093 -0.7603  0.6691
   65CHL1    H3 5918   6.900   6.891   2.578 -0.7873  0.4781  0.4626
   65CHL1    O3 5919   7.001   6.956   2.416 -0.3219 -0.5398 -0.7455
   65CHL1   H3' 5920   7.057   7.034   2.411 -1.1605  0.2301  0.7982
   65CHL1    C4 5921   6.933   7.112   2.602  0.0641 -0.0306 -0.2371
   65CHL1   H4A 5922   7.003   7.194   2.572 -1.0947  1.0844  0.0308
   65CHL1   H4B 5923   6.841   7.138   2.546  0.4491  2.6712  0.2284
   65CHL1    C5 5924   6.927   7.131   2.755  0.1835  0.1623 -0.2658
   65CHL1    C6 5925   6.818   7.168   2.824  0.0672  0.4809  1.0308
   65CHL1    H6 5926   6.732   7.191   2.760  1.3964 -0.1225 -1.0701
   65CHL1    C7 5927   6.816   7.186   2.973  0.2582 -0.0350  0.2156
   65CHL1   H7A 5928   6.758   7.278   2.999  0.5624  0.2995 -0.2673
   65CHL1   H7B 5929   6.763   7.096   3.011 -1.9149  0.7082 -0.8668
   65CHL1    C8 5930   6.952   7.188   3.050  0.3751 -0.2758 -0.5181
   65CHL1    H8 5931   6.998   7.284   3.016 -2.4496  1.1043 -0.7573
   65CHL1   C14 5932   6.944   7.180   3.199 -0.8265 -0.0846  0.0059
   65CHL1   H14 5933   6.908   7.076   3.216 -3.5610  0.9634  1.0487
   65CHL1   C15 5934   6.841   7.268   3.285  0.7214  0.4169  0.2107
   65CHL1  H15A 5935   6.838   7.378   3.272  1.3925  0.3314 -0.8322
   65CHL1  H15B 5936   6.741   7.220   3.287  1.0466 -0.2733  0.2535
   65CHL1   C16 5937   6.899   7.250   3.431  0.2291  0.7393  0.0617
   65CHL1  H16A 5938   6.946   7.344   3.467  2.5091 -0.7349  1.1191
   65CHL1  H16B 5939   6.828   7.199   3.500 -1.3497  1.5332 -0.9125
   65CHL1   C17 5940   7.023   7.152   3.421 -0.2767  0.5342  0.8536
   65CHL1   H17 5941   6.988   7.048   3.434  0.6313 -0.0682 -1.1758
   65CHL1   C13 5942   7.076   7.180   3.280  0.2617 -0.0071 -0.2393
   65CHL1   C18 5943   7.143   7.319   3.264 -0.0071 -1.2904  0.5255
   65CHL1  H18A 5944   7.231   7.332   3.331 -0.9839  1.4707  1.3979
   65CHL1  H18B 5945   7.177   7.337   3.160  1.5075  2.0279  1.4689
   65CHL1  H18C 5946   7.077   7.401   3.297  1.3261  0.3793 -0.7799
   65CHL1   C12 5947   7.163   7.066   3.216  0.4110 -0.2237 -0.0399
   65CHL1  H12A 5948   7.263   7.081   3.262  0.0849  0.7209  0.3823
   65CHL1  H12B 5949   7.116   6.969   3.239 -0.8393  0.4109  0.1636
   65CHL1   C11 5950   7.182   7.069   3.069 -0.1244  0.2544 -0.8447
   65CHL1  H11A 5951   7.256   7.149   3.048  1.3891 -0.5794  0.8929
   65CHL1  H11B 5952   7.231   6.970   3.050  0.1824  0.7755 -3.0192
   65CHL1    C9 5953   7.049   7.081   2.995  0.1589  0.2815  0.1228
   65CHL1    H9 5954   6.996   6.985   3.014 -0.0528 -0.0122 -1.7513
   65CHL1   C10 5955   7.055   7.087   2.835  0.3816 -0.5793  0.0905
   65CHL1   C19 5956   7.145   7.210   2.795 -0.5079  0.3376 -0.3215
   65CHL1  H19A 5957   7.241   7.206   2.850 -0.4568  0.8595 -0.3767
   65CHL1  H19B 5958   7.184   7.221   2.691  0.5231  1.0440  0.1303
   65CHL1  H19C 5959   7.099   7.308   2.819  0.6012  0.8237 -0.1207
   65CHL1    C1 5960   7.112   6.950   2.777  0.5423 -1.0543 -1.0100
   65CHL1   H1A 5961   7.212   6.925   2.820  0.6534  0.3428 -0.4169
   65CHL1   H1B 5962   7.042   6.872   2.814  2.3867 -1.8882  0.9904
   65CHL1    C2 5963   7.114   6.937   2.625 -0.5963  0.6898 -0.4414
   65CHL1   H2A 5964   7.150   6.834   2.604 -0.8172  0.8366 -1.6442
   65CHL1   H2B 5965   7.187   7.009   2.583  0.6214 -0.2368  0.0227
   65CHL1   C20 5966   7.126   7.173   3.538 -0.0307 -0.3696  0.1562
   65CHL1   H20 5967   7.182   7.268   3.523 -0.5347 -0.0819  0.0769
   65CHL1   C21 5968   7.227   7.048   3.552 -0.2243 -0.5413 -0.1495
   65CHL1  H21A 5969   7.167   6.954   3.552  0.7504 -1.1772 -0.6818
   65CHL1  H21B 5970   7.281   7.052   3.649  1.0404  0.9739 -0.8886
   65CHL1  H21C 5971   7.289   7.049   3.460  1.4179 -2.0257  0.8808
   65CHL1   C22 5972   7.075   7.196   3.688  0.7999 -0.5573 -0.0030
   65CHL1  H22A 5973   7.149   7.238   3.759  0.1390 -2.5639  1.9826
   65CHL1  H22B 5974   7.008   7.282   3.668  0.6789 -0.8705 -1.0193
   65CHL1   C23 5975   6.999   7.086   3.758  0.4190  0.2771  0.7128
   65CHL1  H23A 5976   6.922   7.047   3.689 -0.6595  1.0020  1.4804
   65CHL1  H23B 5977   7.066   6.998   3.776 -2.1317 -1.8012  0.5916
   65CHL1   C24 5978   6.934   7.125   3.896  0.3425 -0.1453  0.0454
   65CHL1  H24A 5979   6.916   7.033   3.955  0.7941 -0.1092  0.2398
   65CHL1  H24B 5980   7.014   7.178   3.953  1.0788 -1.6794  0.4956
   65CHL1   C25 5981   6.791   7.188   3.893 -0.5948  0.3227  0.0652
   65CHL1   H25 5982   6.805   7.288   3.846  0.8264  0.7256  1.2470
   65CHL1   C26 5983   6.700   7.098   3.808  0.1404  0.2930  0.2965
   65CHL1  H26A 5984   6.692   6.991   3.838  0.7722 -1.0377 -3.7193
   65CHL1  H26B 5985   6.597   7.139   3.796  0.2012  0.2693 -0.3541
   65CHL1  H26C 5986   6.741   7.092   3.705 -0.9908  2.3653 -0.3395
   65CHL1   C27 5987   6.738   7.199   4.036 -1.0128  0.4076  0.1856
   65CHL1  H27A 5988   6.721   7.103   4.090 -1.2817 -0.5274 -1.5127
   65CHL1  H27B 5989   6.819   7.247   4.096  1.6407 -4.1334  0.6589
   65CHL1  H27C 5990   6.656   7.275   4.042 -1.4383 -0.1366  2.1070
   66CHL1    C3 5991   4.401   2.002   3.160  0.7159 -0.0025 -0.1950
   66CHL1    H3 5992   4.420   2.108   3.137 -0.8963  0.1010 -1.2630
   66CHL1    O3 5993   4.363   1.934   3.044  0.6146  0.0889  0.6776
   66CHL1   H3' 5994   4.424   1.862   3.026 -0.4171 -0.4588 -0.7806
   66CHL1    C4 5995   4.524   1.921   3.211 -0.2765  0.5938  0.1846
   66CHL1   H4A 5996   4.508   1.811   3.217 -1.6052  0.7200 -0.5694
   66CHL1   H4B 5997   4.603   1.939   3.135 -0.2731  1.4372  0.3719
   66CHL1    C5 5998   4.554   1.967   3.350  0.2444  0.6392  0.0664
   66CHL1    C6 5999   4.675   2.015   3.386 -0.2553  0.1881  0.1888
   66CHL1    H6 6000   4.752   2.023   3.308  0.5729 -1.1490  0.8536
   66CHL1    C7 6001   4.726   2.056   3.526 -0.4825 -0.1255  0.0719
   66CHL1   H7A 6002   4.826   2.013   3.546  0.1243  0.7801 -0.9119
   66CHL1   H7B 6003   4.722   2.166   3.531 -0.4941  0.0026 -1.8018
   66CHL1    C8 6004   4.627   1.996   3.626  0.5659  0.4411  0.1980
   66CHL1    H8 6005   4.652   1.889   3.639 -1.9919 -0.3139 -0.4850
   66CHL1   C14 6006   4.648   2.075   3.756 -1.0308  0.2666 -0.5590
   66CHL1   H14 6007   4.625   2.182   3.739 -3.5789  0.3428  2.4000
   66CHL1   C15 6008   4.796   2.087   3.807  0.6179  0.4249  1.0651
   66CHL1  H15A 6009   4.839   1.985   3.821 -0.4624  0.1105  2.2902
   66CHL1  H15B 6010   4.859   2.145   3.737 -2.4095 -0.9397 -3.2071
   66CHL1   C16 6011   4.775   2.143   3.951 -0.1085 -0.1198 -0.0172
   66CHL1  H16A 6012   4.848   2.092   4.018  0.1103 -1.5877 -1.3047
   66CHL1  H16B 6013   4.791   2.253   3.946 -1.5328  0.1361  0.6263
   66CHL1   C17 6014   4.626   2.127   3.992 -0.4738  0.4143  1.1160
   66CHL1   H17 6015   4.581   2.228   3.980  1.1464  0.9018 -1.5984
   66CHL1   C13 6016   4.570   2.032   3.882  0.5868  0.3185  0.4616
   66CHL1   C18 6017   4.591   1.882   3.914 -0.5509  0.1324 -0.0741
   66CHL1  H18A 6018   4.530   1.866   4.006  1.3931  0.6694  1.3754
   66CHL1  H18B 6019   4.569   1.810   3.833  0.1406 -0.2256  0.0438
   66CHL1  H18C 6020   4.697   1.870   3.947 -1.1682  0.9950  2.5195
   66CHL1   C12 6021   4.423   2.058   3.847  0.0072 -0.0743  0.1319
   66CHL1  H12A 6022   4.346   2.029   3.922 -2.5392  2.3671 -1.3332
   66CHL1  H12B 6023   4.426   2.167   3.829  0.1512  0.0273  0.7523
   66CHL1   C11 6024   4.382   1.996   3.714 -0.1867  0.3637  0.4105
   66CHL1  H11A 6025   4.375   1.886   3.734  0.4674  0.0382 -1.0549
   66CHL1  H11B 6026   4.279   2.024   3.683  0.5179  2.3979 -0.1835
   66CHL1    C9 6027   4.477   2.013   3.591 -0.3433 -0.7350  0.2147
   66CHL1    H9 6028   4.464   2.122   3.575 -2.2065 -0.9519  0.0868
   66CHL1   C10 6029   4.439   1.951   3.453 -0.6726 -0.0342  0.0333
   66CHL1   C19 6030   4.413   1.797   3.480  0.3689  0.1404 -0.0362
   66CHL1  H19A 6031   4.330   1.782   3.553  0.1014  2.4733  0.2028
   66CHL1  H19B 6032   4.381   1.747   3.387  1.6490 -2.2803  0.7411
   66CHL1  H19C 6033   4.506   1.756   3.524  0.0708 -0.2514  0.2331
   66CHL1    C1 6034   4.314   2.032   3.398 -0.3082 -0.4435 -0.0404
   66CHL1   H1A 6035   4.229   2.024   3.468  0.4156  1.4603  1.1243
   66CHL1   H1B 6036   4.339   2.140   3.391 -1.5883  0.0895  2.4732
   66CHL1    C2 6037   4.284   1.985   3.260  0.1582  0.2614 -0.1571
   66CHL1   H2A 6038   4.188   2.034   3.232  0.1478  0.3467  0.0248
   66CHL1   H2B 6039   4.271   1.875   3.266 -1.9699  0.5088  0.6751
   66CHL1   C20 6040   4.602   2.091   4.136  0.1907 -0.0608 -0.1695
   66CHL1   H20 6041   4.633   1.989   4.166 -1.1709 -0.5178 -0.2798
   66CHL1   C21 6042   4.453   2.104   4.163 -0.1003  0.1821 -0.0568
   66CHL1  H21A 6043   4.412   2.204   4.138 -1.9533 -0.0616  1.7379
   66CHL1  H21B 6044   4.429   2.082   4.270 -0.1527 -0.7000 -0.2395
   66CHL1  H21C 6045   4.397   2.028   4.105  0.2882  0.3944 -0.7201
   66CHL1   C22 6046   4.680   2.182   4.236 -0.0337 -0.2083  0.3894
   66CHL1  H22A 6047   4.650   2.161   4.341 -0.0622  2.0438  0.8933
   66CHL1  H22B 6048   4.788   2.159   4.223  0.4253  0.3621  2.7029
   66CHL1   C23 6049   4.651   2.334   4.230 -0.2396  1.6095 -0.5399
   66CHL1  H23A 6050   4.676   2.390   4.138  0.6960  1.5876 -0.3057
   66CHL1  H23B 6051   4.541   2.343   4.241 -0.1088  1.4082  1.2655
   66CHL1   C24 6052   4.710   2.407   4.354 -0.3657 -0.0534 -0.2958
   66CHL1  H24A 6053   4.665   2.508   4.366 -0.0705 -0.0020  0.4409
   66CHL1  H24B 6054   4.688   2.350   4.447  0.6625 -1.1834 -0.7208
   66CHL1   C25 6055   4.867   2.425   4.353 -0.2926  0.7618  0.7293
   66CHL1   H25 6056   4.897   2.318   4.364 -4.2948 -0.5795  0.3010
   66CHL1   C26 6057   4.924   2.485   4.222 -0.2774 -0.4830 -0.7289
   66CHL1  H26A 6058   4.859   2.571   4.192 -0.3748 -0.4298 -0.3710
   66CHL1  H26B 6059   5.027   2.518   4.245 -0.5033 -1.0330  1.2477
   66CHL1  H26C 6060   4.919   2.416   4.135 -2.1177 -1.9397  0.4451
   66CHL1   C27 6061   4.906   2.507   4.473 -0.3938 -0.3408  1.1244
   66CHL1  H27A 6062   4.854   2.462   4.560 -0.6657  1.4701  1.9362
   66CHL1  H27B 6063   4.861   2.608   4.464  1.8928  0.5953 -1.0538
   66CHL1  H27C 6064   5.016   2.521   4.485 -0.0504 -1.0734 -0.8312
   67CHL1    C3 6065   4.023   5.975   2.889 -0.4666 -0.5522  0.5339
   67CHL1    H3 6066   4.106   5.902   2.899 -1.0489 -1.7174 -2.2087
   67CHL1    O3 6067   3.996   6.019   2.762 -0.1640  0.2056 -0.3992
   67CHL1   H3' 6068   3.916   6.070   2.775  0.5146  1.3383 -0.5019
   67CHL1    C4 6069   3.896   5.910   2.928 -0.2433  0.3742 -0.6943
   67CHL1   H4A 6070   3.812   5.979   2.909 -0.3033 -0.1730 -2.6094
   67CHL1   H4B 6071   3.882   5.822   2.863 -0.6260 -0.9456  1.0870
   67CHL1    C5 6072   3.883   5.881   3.079  0.2660  0.0952 -0.0206
   67CHL1    C6 6073   3.857   5.761   3.132  0.2573 -0.0051  0.0269
   67CHL1    H6 6074   3.840   5.672   3.070  0.6329 -1.1765  1.5361
   67CHL1    C7 6075   3.862   5.736   3.281 -0.3182 -0.5298 -0.1279
   67CHL1   H7A 6076   3.787   5.661   3.317 -1.4097  0.2290 -0.7784
   67CHL1   H7B 6077   3.964   5.700   3.307 -0.7982 -0.3875  2.1908
   67CHL1    C8 6078   3.836   5.864   3.370  0.0759  0.7067  0.1370
   67CHL1    H8 6079   3.731   5.896   3.355 -0.1023 -0.1879 -0.6029
   67CHL1   C14 6080   3.848   5.841   3.519  0.1009 -0.2337  0.3925
   67CHL1   H14 6081   3.953   5.810   3.535  0.1630 -0.3226 -0.1776
   67CHL1   C15 6082   3.758   5.726   3.586 -0.1546 -0.9901  0.5980
   67CHL1  H15A 6083   3.653   5.743   3.555  0.1931  0.7430  0.2776
   67CHL1  H15B 6084   3.805   5.628   3.566  1.8455  0.5925 -3.5937
   67CHL1   C16 6085   3.770   5.764   3.735 -0.6425 -0.0373  0.3034
   67CHL1  H16A 6086   3.666   5.780   3.769 -0.5476 -1.8279  1.5762
   67CHL1  H16B 6087   3.814   5.673   3.781 -0.8676 -0.5587 -0.4726
   67CHL1   C17 6088   3.848   5.895   3.746  0.2686  0.5237 -0.5917
   67CHL1   H17 6089   3.955   5.871   3.762 -0.3420 -1.4528  0.7846
   67CHL1   C13 6090   3.833   5.968   3.610  0.3872 -0.5677 -0.6809
   67CHL1   C18 6091   3.693   6.029   3.582 -0.0514  0.6953  0.1228
   67CHL1  H18A 6092   3.673   6.108   3.657 -0.0534  1.7704 -0.9849
   67CHL1  H18B 6093   3.679   6.080   3.484  0.3617 -0.8843 -0.7927
   67CHL1  H18C 6094   3.612   5.955   3.601 -2.5736  2.3384 -3.2195
   67CHL1   C12 6095   3.952   6.063   3.570  0.2417  0.5583  0.4526
   67CHL1  H12A 6096   3.954   6.154   3.634 -1.8060  0.8640  0.1679
   67CHL1  H12B 6097   4.044   6.010   3.604  0.0303 -1.4976 -1.8916
   67CHL1   C11 6098   3.937   6.097   3.418  0.0159 -0.5606  0.1868
   67CHL1  H11A 6099   3.840   6.151   3.425  0.1543 -0.4060  0.9943
   67CHL1  H11B 6100   4.004   6.173   3.372 -1.6032  0.1515 -1.1100
   67CHL1    C9 6101   3.931   5.973   3.321 -0.1968 -0.3321 -0.7581
   67CHL1    H9 6102   4.030   5.923   3.315  0.0425  0.2874 -2.5901
   67CHL1   C10 6103   3.915   6.008   3.170 -0.7485 -0.2225  1.0295
   67CHL1   C19 6104   3.799   6.104   3.163 -0.1798  0.3345  0.1926
   67CHL1  H19A 6105   3.826   6.196   3.219 -0.3145  0.8201 -0.5220
   67CHL1  H19B 6106   3.789   6.144   3.060 -2.8796  0.0235  0.2602
   67CHL1  H19C 6107   3.700   6.059   3.187 -0.2847 -0.5803 -1.7141
   67CHL1    C1 6108   4.050   6.080   3.118  0.8893  0.0335  1.0000
   67CHL1   H1A 6109   4.045   6.178   3.171 -1.7617  0.1371  0.6676
   67CHL1   H1B 6110   4.136   6.017   3.150 -0.4343 -2.6868 -0.5212
   67CHL1    C2 6111   4.054   6.103   2.964 -0.1992 -0.0986  0.7266
   67CHL1   H2A 6112   4.155   6.132   2.929 -0.0187  0.9676  2.0616
   67CHL1   H2B 6113   3.985   6.188   2.949 -1.8857 -1.7031 -1.1994
   67CHL1   C20 6114   3.817   5.970   3.877 -0.3803 -0.2194 -0.8097
   67CHL1   H20 6115   3.707   5.984   3.883 -0.5616 -0.5890 -2.5484
   67CHL1   C21 6116   3.889   6.109   3.885 -0.4450  0.1396 -0.4166
   67CHL1  H21A 6117   3.857   6.154   3.981 -0.2573 -0.3361 -0.1300
   67CHL1  H21B 6118   3.871   6.185   3.806 -0.3322 -1.3151 -1.8923
   67CHL1  H21C 6119   3.998   6.091   3.895 -0.1765 -0.0727 -2.9589
   67CHL1   C22 6120   3.855   5.887   4.000  0.7377 -0.0315 -0.0997
   67CHL1  H22A 6121   3.826   5.781   3.981  1.4359 -0.7126  2.2601
   67CHL1  H22B 6122   3.966   5.892   4.005  0.6948  1.9967 -0.4680
   67CHL1   C23 6123   3.794   5.930   4.136  0.0803  0.1093  0.1806
   67CHL1  H23A 6124   3.806   6.034   4.173 -1.5694  1.6262 -3.1534
   67CHL1  H23B 6125   3.684   5.924   4.123  0.0076  0.9513  0.3656
   67CHL1   C24 6126   3.840   5.841   4.247 -0.0114 -0.2720 -0.1152
   67CHL1  H24A 6127   3.950   5.839   4.254 -0.0493  0.3587  0.8332
   67CHL1  H24B 6128   3.791   5.884   4.338 -0.3317  0.3525 -0.5747
   67CHL1   C25 6129   3.796   5.692   4.227  0.2704 -0.2063 -0.7108
   67CHL1   H25 6130   3.847   5.648   4.139  0.5305 -2.2312  0.3874
   67CHL1   C26 6131   3.839   5.617   4.357 -0.6089  0.3999 -0.6000
   67CHL1  H26A 6132   3.786   5.651   4.449  2.5898  0.7956  1.2748
   67CHL1  H26B 6133   3.801   5.514   4.369 -0.2372  0.0151 -2.4501
   67CHL1  H26C 6134   3.947   5.618   4.384 -0.3663 -2.3794 -1.2079
   67CHL1   C27 6135   3.640   5.692   4.236  0.0270 -0.2471 -0.3134
   67CHL1  H27A 6136   3.587   5.730   4.147 -0.6298 -1.8967 -0.6589
   67CHL1  H27B 6137   3.604   5.587   4.244  0.0672 -0.3454 -1.3346
   67CHL1  H27C 6138   3.603   5.744   4.327 -1.8359 -1.8294 -0.1001
   68CHL1    C3 6139   0.139   6.553   2.770 -0.4479 -0.2697 -0.1638
   68CHL1    H3 6140   0.075   6.639   2.800 -1.6375 -1.9328  2.4693
   68CHL1    O3 6141   0.102   6.512   2.645 -0.0663  0.4346  0.7261
   68CHL1   H3' 6142   0.045   6.578   2.605 -1.1039 -0.1484  1.2073
   68CHL1    C4 6143   0.294   6.573   2.781 -0.0738  0.0765 -0.1156
   68CHL1   H4A 6144   0.338   6.474   2.755 -0.3774  0.0985 -0.7277
   68CHL1   H4B 6145   0.337   6.638   2.702  1.4041 -0.7823 -0.0424
   68CHL1    C5 6146   0.335   6.611   2.919 -0.4936 -0.7079  0.2624
   68CHL1    C6 6147   0.409   6.726   2.942  0.5428  0.2354  0.8133
   68CHL1    H6 6148   0.441   6.785   2.855 -0.2457  0.7148  0.8380
   68CHL1    C7 6149   0.449   6.774   3.079 -0.6452 -0.6449 -0.2689
   68CHL1   H7A 6150   0.554   6.810   3.070 -1.0243  0.7973  0.7392
   68CHL1   H7B 6151   0.394   6.867   3.104  2.2864  1.2191 -0.2662
   68CHL1    C8 6152   0.430   6.673   3.194 -0.8294 -0.2045 -0.0630
   68CHL1    H8 6153   0.515   6.603   3.176 -1.3901 -1.8046  2.9185
   68CHL1   C14 6154   0.435   6.729   3.334 -0.3617 -0.3301 -0.0466
   68CHL1   H14 6155   0.351   6.801   3.342 -0.6183 -0.0759 -3.5714
   68CHL1   C15 6156   0.561   6.822   3.354  0.1722  0.1983  0.5117
   68CHL1  H15A 6157   0.660   6.788   3.317 -0.9408 -2.1167 -0.4658
   68CHL1  H15B 6158   0.546   6.922   3.307 -0.4326 -0.6068 -1.0382
   68CHL1   C16 6159   0.570   6.842   3.506 -0.2951  0.5630 -0.6380
   68CHL1  H16A 6160   0.676   6.824   3.533  0.2513  2.0542 -1.6249
   68CHL1  H16B 6161   0.561   6.951   3.528  4.1239  1.1527 -0.9073
   68CHL1   C17 6162   0.465   6.737   3.564 -0.7261 -0.1830 -0.6334
   68CHL1   H17 6163   0.374   6.793   3.594 -1.5557 -2.1896  0.8084
   68CHL1   C13 6164   0.433   6.634   3.450 -0.5458 -0.3069 -0.1137
   68CHL1   C18 6165   0.557   6.535   3.444 -0.1284 -0.6243 -0.6909
   68CHL1  H18A 6166   0.548   6.471   3.354  3.1797  0.1898 -1.7451
   68CHL1  H18B 6167   0.659   6.579   3.444  0.0413 -1.0113 -0.8174
   68CHL1  H18C 6168   0.545   6.460   3.525  1.5689  0.3218  0.5057
   68CHL1   C12 6169   0.303   6.551   3.439 -0.2502 -0.4534  0.9741
   68CHL1  H12A 6170   0.288   6.466   3.508  2.3686 -0.7565  1.2521
   68CHL1  H12B 6171   0.219   6.623   3.452 -0.3561 -0.3397 -0.2614
   68CHL1   C11 6172   0.266   6.498   3.294 -0.5178  0.5767 -0.3274
   68CHL1  H11A 6173   0.322   6.402   3.303  1.4128  1.6931  0.3386
   68CHL1  H11B 6174   0.159   6.469   3.296 -0.6594  1.0204 -1.3711
   68CHL1    C9 6175   0.303   6.594   3.180  0.6788 -0.4472  0.3969
   68CHL1    H9 6176   0.230   6.678   3.182 -0.5867 -1.4934  0.0185
   68CHL1   C10 6177   0.279   6.527   3.035 -0.1018 -0.9441 -0.1513
   68CHL1   C19 6178   0.351   6.388   3.024  0.1409 -0.1571  0.0396
   68CHL1  H19A 6179   0.339   6.335   2.928  2.1348  0.8453 -0.8149
   68CHL1  H19B 6180   0.461   6.401   3.025  0.2034 -0.6038 -0.5643
   68CHL1  H19C 6181   0.314   6.320   3.105 -0.9445 -0.0893 -0.3865
   68CHL1    C1 6182   0.128   6.498   3.020  0.0035  0.4949  0.6496
   68CHL1   H1A 6183   0.088   6.418   3.086 -3.7766  0.4913 -1.3611
   68CHL1   H1B 6184   0.072   6.593   3.036 -0.7723 -0.0141  1.0013
   68CHL1    C2 6185   0.091   6.446   2.875  0.2910  0.7972  0.3398
   68CHL1   H2A 6186  -0.017   6.425   2.864  0.0591  1.8258  0.5438
   68CHL1   H2B 6187   0.150   6.352   2.862  0.1941  0.7747  0.0582
   68CHL1   C20 6188   0.501   6.676   3.707 -0.4165 -0.5727  0.6575
   68CHL1   H20 6189   0.585   6.607   3.686  0.4613  0.6288  0.0695
   68CHL1   C21 6190   0.388   6.580   3.758 -0.2894 -0.2538 -0.2566
   68CHL1  H21A 6191   0.376   6.499   3.683 -1.4948 -1.2167  0.9363
   68CHL1  H21B 6192   0.291   6.632   3.774 -0.0034 -0.0499  0.9467
   68CHL1  H21C 6193   0.428   6.532   3.851  1.2415  2.2217  0.4656
   68CHL1   C22 6194   0.540   6.778   3.813  0.1375 -0.3653 -0.4235
   68CHL1  H22A 6195   0.630   6.830   3.774 -1.0533  0.7922 -1.7697
   68CHL1  H22B 6196   0.457   6.852   3.807 -0.3642 -0.8968 -0.1236
   68CHL1   C23 6197   0.569   6.722   3.950  0.2508 -0.5532  0.2094
   68CHL1  H23A 6198   0.599   6.812   4.009 -0.8638 -0.7713  1.1383
   68CHL1  H23B 6199   0.475   6.683   3.994 -0.2219  0.3936  0.0744
   68CHL1   C24 6200   0.674   6.611   3.951 -0.0925 -0.2354  0.0594
   68CHL1  H24A 6201   0.666   6.521   3.886  1.7273 -0.8745  0.6668
   68CHL1  H24B 6202   0.760   6.670   3.914  1.3905 -1.5632  1.2616
   68CHL1   C25 6203   0.710   6.569   4.095 -0.6777  0.0955  0.2763
   68CHL1   H25 6204   0.689   6.652   4.166  1.5218 -1.2621  2.6677
   68CHL1   C26 6205   0.634   6.447   4.145  0.1988 -0.3577  0.2526
   68CHL1  H26A 6206   0.526   6.468   4.162  0.9902  1.7906  3.3712
   68CHL1  H26B 6207   0.636   6.369   4.066 -0.0665  0.3295 -0.4484
   68CHL1  H26C 6208   0.677   6.409   4.240  1.8982 -2.0750 -1.1357
   68CHL1   C27 6209   0.864   6.544   4.110  0.1043  0.2242  0.3760
   68CHL1  H27A 6210   0.883   6.537   4.219 -1.4724 -0.3409  0.6362
   68CHL1  H27B 6211   0.892   6.450   4.059 -0.3653  0.9631 -1.3338
   68CHL1  H27C 6212   0.924   6.627   4.066 -0.7303  0.9684  0.5986
   69CHL1    C3 6213   6.363   4.154   5.943  0.6442 -0.5081 -0.3185
   69CHL1    H3 6214   6.397   4.241   5.883 -0.5709 -0.4290 -0.9224
   69CHL1    O3 6215   6.349   4.173   6.085 -0.1732 -0.5883  0.1264
   69CHL1   H3' 6216   6.290   4.248   6.093 -1.4874 -1.5149 -0.4494
   69CHL1    C4 6217   6.221   4.112   5.894 -0.1677 -0.1108  0.2738
   69CHL1   H4A 6218   6.177   4.033   5.959  0.0962 -0.8281 -0.4094
   69CHL1   H4B 6219   6.155   4.201   5.909  0.5205  0.3451  0.6423
   69CHL1    C5 6220   6.227   4.069   5.746 -0.5892 -0.1513  0.8097
   69CHL1    C6 6221   6.150   4.128   5.652  0.1765 -0.4252 -0.3925
   69CHL1    H6 6222   6.096   4.218   5.686  2.5603  0.3741  1.5863
   69CHL1    C7 6223   6.157   4.094   5.508  0.6550  0.6380  0.2645
   69CHL1   H7A 6224   6.055   4.107   5.467  0.3953  2.5864  1.4081
   69CHL1   H7B 6225   6.225   4.169   5.462 -0.4029  0.8889 -0.9379
   69CHL1    C8 6226   6.214   3.950   5.484  0.1976  0.3055  0.3575
   69CHL1    H8 6227   6.136   3.883   5.525  0.7188  0.6890  2.0641
   69CHL1   C14 6228   6.239   3.932   5.334 -0.4003 -0.4102 -0.1528
   69CHL1   H14 6229   6.329   3.992   5.311 -0.5207 -0.2003 -0.0727
   69CHL1   C15 6230   6.142   3.980   5.225 -0.0662 -1.1057  0.7689
   69CHL1  H15A 6231   6.039   3.962   5.263 -0.0072  0.0383  1.5232
   69CHL1  H15B 6232   6.157   4.089   5.212 -1.6179 -0.8484  0.9890
   69CHL1   C16 6233   6.167   3.896   5.098 -0.6564 -0.3704  0.2892
   69CHL1  H16A 6234   6.091   3.821   5.068 -0.1073 -0.3455 -1.2487
   69CHL1  H16B 6235   6.193   3.965   5.016  0.2309  2.4079  2.7359
   69CHL1   C17 6236   6.302   3.817   5.137  0.4627 -0.6706 -0.5360
   69CHL1   H17 6237   6.383   3.891   5.121  0.8915 -1.2795 -1.2069
   69CHL1   C13 6238   6.294   3.792   5.292  0.5450 -0.1003  1.0437
   69CHL1   C18 6239   6.178   3.688   5.325  0.1449 -0.6515 -0.0073
   69CHL1  H18A 6240   6.096   3.694   5.251  2.4026 -2.8522 -2.9368
   69CHL1  H18B 6241   6.210   3.581   5.324 -1.1273 -1.0654  0.9810
   69CHL1  H18C 6242   6.129   3.697   5.424 -1.0602 -0.2148 -0.6303
   69CHL1   C12 6243   6.422   3.759   5.372  0.1755 -0.4535 -0.2141
   69CHL1  H12A 6244   6.433   3.650   5.359 -0.7210 -0.5509 -0.2110
   69CHL1  H12B 6245   6.510   3.812   5.330 -0.6513 -1.0106 -2.8261
   69CHL1   C11 6246   6.401   3.786   5.525  0.3825  0.8700  0.8090
   69CHL1  H11A 6247   6.326   3.712   5.557  0.2031  1.3196  1.4405
   69CHL1  H11B 6248   6.496   3.773   5.581  0.9304 -1.2488 -0.4976
   69CHL1    C9 6249   6.341   3.924   5.560 -0.1716  0.3296 -0.2273
   69CHL1    H9 6250   6.405   4.000   5.510 -0.5829 -1.3637 -3.6545
   69CHL1   C10 6251   6.325   3.958   5.711  0.3615 -0.3399 -0.1531
   69CHL1   C19 6252   6.272   3.825   5.780 -0.9285  0.8794  0.4383
   69CHL1  H19A 6253   6.171   3.794   5.746 -2.2448  1.1671  3.6942
   69CHL1  H19B 6254   6.349   3.748   5.757  0.7315  2.8087 -0.8227
   69CHL1  H19C 6255   6.262   3.835   5.891  0.0212  0.1534  0.5998
   69CHL1    C1 6256   6.467   4.001   5.760  0.0455 -0.1732  0.3680
   69CHL1   H1A 6257   6.538   3.916   5.756  0.5244  0.1966  0.8165
   69CHL1   H1B 6258   6.504   4.080   5.691 -0.7320 -1.5323 -1.6873
   69CHL1    C2 6259   6.463   4.041   5.915  0.1983  0.5986  0.1540
   69CHL1   H2A 6260   6.565   4.057   5.958  0.3160  1.4332 -0.4087
   69CHL1   H2B 6261   6.424   3.947   5.959 -1.0775  1.5813  1.2046
   69CHL1   C20 6262   6.339   3.699   5.052 -0.2292  0.6377  0.5097
   69CHL1   H20 6263   6.298   3.602   5.087  2.0965 -1.2697 -1.6131
   69CHL1   C21 6264   6.492   3.690   5.053  0.4439 -0.6178 -0.5993
   69CHL1  H21A 6265   6.534   3.745   4.967  0.6129 -0.1484 -0.2201
   69CHL1  H21B 6266   6.522   3.584   5.039 -2.9650 -1.5542 -1.8014
   69CHL1  H21C 6267   6.546   3.724   5.144  0.2887  0.3139 -0.8378
   69CHL1   C22 6268   6.282   3.698   4.904 -0.5332  0.2601 -0.5680
   69CHL1  H22A 6269   6.174   3.675   4.913 -0.9229  2.5874  2.1010
   69CHL1  H22B 6270   6.291   3.801   4.863  1.2260 -0.5037 -2.2533
   69CHL1   C23 6271   6.338   3.588   4.807  0.5661 -0.4887 -0.1941
   69CHL1  H23A 6272   6.439   3.609   4.767  0.8439  0.5201  0.9852
   69CHL1  H23B 6273   6.358   3.494   4.861  1.3459 -0.7197 -0.8703
   69CHL1   C24 6274   6.248   3.554   4.687 -0.1134 -0.0173  0.5294
   69CHL1  H24A 6275   6.143   3.535   4.718 -0.9128  1.6541 -0.9613
   69CHL1  H24B 6276   6.242   3.649   4.629 -0.8189  0.4345  1.3216
   69CHL1   C25 6277   6.310   3.441   4.600 -0.1101 -0.3021 -0.7238
   69CHL1   H25 6278   6.402   3.479   4.550 -1.0628  2.4484 -0.5604
   69CHL1   C26 6279   6.335   3.314   4.685  0.0173 -0.6054  0.3400
   69CHL1  H26A 6280   6.249   3.305   4.755  0.0454 -1.1797  0.3036
   69CHL1  H26B 6281   6.341   3.225   4.620  3.1336 -1.6579  1.8977
   69CHL1  H26C 6282   6.427   3.311   4.747  0.1802  2.2699  0.3818
   69CHL1   C27 6283   6.212   3.406   4.483 -0.2711  0.5102 -1.2228
   69CHL1  H27A 6284   6.198   3.485   4.406  0.5353  1.7444 -0.1353
   69CHL1  H27B 6285   6.242   3.307   4.441 -0.3481  0.4243 -1.0751
   69CHL1  H27C 6286   6.117   3.369   4.527  0.2594 -1.3636 -1.5188
   70CHL1    C3 6287   1.455   6.460   2.454 -0.9626 -0.3577 -0.1654
   70CHL1    H3 6288   1.519   6.543   2.415 -2.4176  1.1262  0.5007
   70CHL1    O3 6289   1.417   6.369   2.350 -0.5559  0.1237  0.0197
   70CHL1   H3' 6290   1.500   6.349   2.306 -0.4553  2.5730 -1.1239
   70CHL1    C4 6291   1.533   6.379   2.564 -0.1501  0.3226  0.6687
   70CHL1   H4A 6292   1.471   6.289   2.583  2.4116 -1.6963 -0.1096
   70CHL1   H4B 6293   1.623   6.342   2.512 -0.1805  0.8886  0.1871
   70CHL1    C5 6294   1.556   6.461   2.690 -0.0883 -0.4208  0.4037
   70CHL1    C6 6295   1.677   6.467   2.750  0.0725 -0.4213  0.6969
   70CHL1    H6 6296   1.757   6.408   2.703 -1.5754 -0.2444 -2.6292
   70CHL1    C7 6297   1.710   6.551   2.868 -0.1056  0.2518  0.1882
   70CHL1   H7A 6298   1.790   6.508   2.931  0.4766  1.1411  0.0668
   70CHL1   H7B 6299   1.751   6.647   2.831  0.5213 -0.7945 -1.9968
   70CHL1    C8 6300   1.577   6.579   2.951  0.2175 -0.5459  0.1121
   70CHL1    H8 6301   1.542   6.482   2.992 -2.3694 -0.1883 -1.0068
   70CHL1   C14 6302   1.600   6.689   3.059 -0.5774  0.0671 -0.2316
   70CHL1   H14 6303   1.628   6.785   3.010  1.5654  1.1371  2.7791
   70CHL1   C15 6304   1.724   6.680   3.155 -1.0907  0.5183 -0.0310
   70CHL1  H15A 6305   1.720   6.578   3.197 -2.6137 -0.0326 -1.3896
   70CHL1  H15B 6306   1.808   6.700   3.086 -1.0588 -1.9473 -0.7783
   70CHL1   C16 6307   1.696   6.784   3.266  0.3408 -0.4745 -0.4150
   70CHL1  H16A 6308   1.701   6.714   3.352 -0.9115  0.2473  0.2633
   70CHL1  H16B 6309   1.773   6.865   3.268 -0.2393  0.0701  1.0572
   70CHL1   C17 6310   1.551   6.832   3.245 -0.0299 -0.2286  1.2566
   70CHL1   H17 6311   1.565   6.915   3.172 -4.0767 -1.8863 -1.8016
   70CHL1   C13 6312   1.484   6.730   3.147 -0.2305 -0.5732  0.4166
   70CHL1   C18 6313   1.439   6.610   3.224  0.6246 -0.9607  0.3757
   70CHL1  H18A 6314   1.438   6.523   3.156  0.7303  0.5161 -1.6263
   70CHL1  H18B 6315   1.508   6.596   3.310  0.1223  0.3813  1.0298
   70CHL1  H18C 6316   1.338   6.626   3.267  0.9163 -0.3408  0.8498
   70CHL1   C12 6317   1.371   6.779   3.047  0.7047  0.0848  0.2268
   70CHL1  H12A 6318   1.278   6.802   3.103  0.3767 -0.5289 -0.0642
   70CHL1  H12B 6319   1.398   6.879   3.008 -1.1879  0.9525  1.0032
   70CHL1   C11 6320   1.347   6.678   2.944  0.9478  0.3617 -0.2591
   70CHL1  H11A 6321   1.293   6.593   2.991 -0.5672  0.9613 -0.8158
   70CHL1  H11B 6322   1.277   6.722   2.869  0.7101  2.5938  1.1623
   70CHL1    C9 6323   1.469   6.630   2.858 -0.5293  0.0867 -0.8005
   70CHL1    H9 6324   1.516   6.716   2.806  0.4391 -0.8699 -1.5897
   70CHL1   C10 6325   1.425   6.529   2.745 -0.1125 -0.2146  0.6380
   70CHL1   C19 6326   1.330   6.416   2.811  0.0848  0.3082  0.2731
   70CHL1  H19A 6327   1.305   6.350   2.726 -1.9922  1.3856 -0.0233
   70CHL1  H19B 6328   1.373   6.378   2.906  2.7845  2.5059  0.0624
   70CHL1  H19C 6329   1.232   6.468   2.826 -0.5246 -0.7271 -0.0527
   70CHL1    C1 6330   1.362   6.614   2.637 -0.5765  0.4344 -0.0583
   70CHL1   H1A 6331   1.270   6.671   2.664 -0.8785 -0.1297  0.1339
   70CHL1   H1B 6332   1.438   6.689   2.607 -1.5402  0.8862 -1.5095
   70CHL1    C2 6333   1.327   6.532   2.509 -0.1415  0.2351  0.0984
   70CHL1   H2A 6334   1.285   6.597   2.428  1.9406 -0.1588 -1.3916
   70CHL1   H2B 6335   1.245   6.461   2.533 -0.1384  0.9084  2.3373
   70CHL1   C20 6336   1.477   6.887   3.370 -0.3971  1.2608  0.4583
   70CHL1   H20 6337   1.404   6.812   3.408  2.2980 -0.2216  3.1715
   70CHL1   C21 6338   1.386   7.001   3.329 -1.0638  0.7929  0.3599
   70CHL1  H21A 6339   1.320   7.030   3.413 -0.0331 -0.4275  1.6337
   70CHL1  H21B 6340   1.327   6.988   3.236  0.3726  0.3029 -0.5167
   70CHL1  H21C 6341   1.441   7.092   3.297 -1.6684  1.5985  1.5194
   70CHL1   C22 6342   1.570   6.928   3.486  0.0728 -0.2156  0.2379
   70CHL1  H22A 6343   1.643   6.849   3.513  0.1249 -0.2612 -0.0422
   70CHL1  H22B 6344   1.631   7.017   3.459  0.5205 -0.5599  0.1238
   70CHL1   C23 6345   1.491   6.969   3.608  0.8139  0.3760  1.1265
   70CHL1  H23A 6346   1.430   7.059   3.587  3.7343  2.5783  1.5373
   70CHL1  H23B 6347   1.421   6.889   3.640  0.7742  0.3067  0.8715
   70CHL1   C24 6348   1.588   6.993   3.730 -0.3270 -0.1672 -0.2714
   70CHL1  H24A 6349   1.636   6.898   3.760 -0.1123 -0.5419 -1.7201
   70CHL1  H24B 6350   1.671   7.058   3.695 -1.2078  1.4923  0.6011
   70CHL1   C25 6351   1.514   7.047   3.859  0.2426  0.3956  0.5064
   70CHL1   H25 6352   1.434   6.972   3.879 -0.3410  0.5652 -1.0356
   70CHL1   C26 6353   1.599   7.039   3.986 -0.4029  0.3955 -0.8090
   70CHL1  H26A 6354   1.643   6.938   3.997  0.7196  0.7960 -1.3884
   70CHL1  H26B 6355   1.696   7.094   3.975 -0.4047  0.2660 -1.5291
   70CHL1  H26C 6356   1.540   7.066   4.076  0.0467 -5.1775  1.5393
   70CHL1   C27 6357   1.457   7.186   3.831 -0.6170  0.1341  0.1489
   70CHL1  H27A 6358   1.528   7.254   3.778 -1.4185  0.2265 -0.8539
   70CHL1  H27B 6359   1.373   7.174   3.759  0.0421 -0.8980 -0.4817
   70CHL1  H27C 6360   1.406   7.235   3.917 -0.5624 -2.4858  1.7766
   71CHL1    C3 6361   5.320   6.354   3.296 -0.8494  0.2449  0.2422
   71CHL1    H3 6362   5.213   6.330   3.311 -0.6071  0.5273  2.7961
   71CHL1    O3 6363   5.374   6.288   3.186 -0.1382  0.2125 -0.3661
   71CHL1   H3' 6364   5.458   6.331   3.165  1.5248 -1.6669  1.9017
   71CHL1    C4 6365   5.338   6.513   3.285 -0.0463 -0.5822  0.1988
   71CHL1   H4A 6366   5.446   6.535   3.272  0.1550 -0.5069  1.7900
   71CHL1   H4B 6367   5.280   6.537   3.193 -0.3239  2.0642  0.9949
   71CHL1    C5 6368   5.283   6.574   3.407 -0.6514  0.7269 -0.0111
   71CHL1    C6 6369   5.176   6.652   3.397 -0.1159  0.1873 -0.0535
   71CHL1    H6 6370   5.133   6.660   3.296  1.7593 -1.5833 -1.0758
   71CHL1    C7 6371   5.123   6.735   3.516 -0.1912 -0.0778  0.7827
   71CHL1   H7A 6372   5.094   6.837   3.483 -2.6009 -0.8567  0.3139
   71CHL1   H7B 6373   5.032   6.692   3.562  0.0995 -0.2113  1.2414
   71CHL1    C8 6374   5.237   6.742   3.624 -1.0458 -0.1029 -0.2769
   71CHL1    H8 6375   5.327   6.795   3.586 -0.7926 -0.9010 -0.8091
   71CHL1   C14 6376   5.181   6.807   3.753  1.3016 -0.2412  0.4787
   71CHL1   H14 6377   5.103   6.730   3.773 -0.7501  0.7462 -2.8489
   71CHL1   C15 6378   5.114   6.939   3.745 -0.2032 -0.2744  0.6767
   71CHL1  H15A 6379   5.186   7.012   3.702 -0.6204  0.0486  0.5279
   71CHL1  H15B 6380   5.018   6.936   3.689 -0.8485  1.5303  1.6035
   71CHL1   C16 6381   5.083   6.969   3.890  0.1983 -0.4319  0.5528
   71CHL1  H16A 6382   5.081   7.079   3.908 -0.5573 -0.3191 -0.1804
   71CHL1  H16B 6383   4.976   6.944   3.903 -0.1401  0.5504 -0.2631
   71CHL1   C17 6384   5.179   6.875   3.974 -0.1691 -0.1801  0.0744
   71CHL1   H17 6385   5.118   6.794   4.018 -0.2432  0.4061  1.0787
   71CHL1   C13 6386   5.276   6.812   3.873  0.4426 -0.1101  0.3484
   71CHL1   C18 6387   5.398   6.914   3.848  0.6472  1.0453 -0.0607
   71CHL1  H18A 6388   5.435   6.902   3.744 -1.0290  1.5602 -0.7421
   71CHL1  H18B 6389   5.375   7.022   3.857 -1.8038  0.5883 -0.3007
   71CHL1  H18C 6390   5.485   6.893   3.913  0.4571 -0.5835 -0.2965
   71CHL1   C12 6391   5.326   6.670   3.911  0.4540 -0.1458  0.0516
   71CHL1  H12A 6392   5.409   6.690   3.981  1.6482  1.6258 -1.7608
   71CHL1  H12B 6393   5.235   6.614   3.943 -0.8378  0.9774 -1.4657
   71CHL1   C11 6394   5.386   6.595   3.796  0.1097 -0.1896  0.8839
   71CHL1  H11A 6395   5.486   6.641   3.781  0.0297  0.3481  1.9446
   71CHL1  H11B 6396   5.411   6.492   3.831  1.0363  0.3827  1.9629
   71CHL1    C9 6397   5.296   6.602   3.663  0.7746  0.5790  0.2311
   71CHL1    H9 6398   5.209   6.535   3.681  0.5020 -0.2527 -3.2664
   71CHL1   C10 6399   5.355   6.531   3.540  0.5950 -0.3704  0.9165
   71CHL1   C19 6400   5.499   6.570   3.528  0.8979  0.0167  0.5523
   71CHL1  H19A 6401   5.500   6.681   3.522 -2.3614  0.0795 -0.8269
   71CHL1  H19B 6402   5.566   6.523   3.604  0.9866  1.7059  1.5915
   71CHL1  H19C 6403   5.542   6.556   3.427 -1.4795  0.1240 -0.5425
   71CHL1    C1 6404   5.348   6.375   3.548  0.3369 -0.3107  0.1037
   71CHL1   H1A 6405   5.409   6.349   3.637 -0.5868  0.8964  1.1252
   71CHL1   H1B 6406   5.246   6.333   3.565  1.6460 -2.5394  3.6007
   71CHL1    C2 6407   5.391   6.305   3.421 -0.1458 -0.8122  0.3109
   71CHL1   H2A 6408   5.360   6.199   3.435 -1.2522 -1.2442 -3.9618
   71CHL1   H2B 6409   5.501   6.310   3.406 -0.5316  1.2098 -2.4942
   71CHL1   C20 6410   5.234   6.958   4.097  0.2186  0.1585  0.3529
   71CHL1   H20 6411   5.304   7.039   4.064  0.6091  0.1971  1.2432
   71CHL1   C21 6412   5.313   6.849   4.183  1.2381 -0.4695 -0.1742
   71CHL1  H21A 6413   5.247   6.759   4.189 -1.0141  1.1480  0.9494
   71CHL1  H21B 6414   5.324   6.891   4.285 -1.6533  0.3421 -0.0837
   71CHL1  H21C 6415   5.410   6.838   4.131  2.6980  1.6046  1.9390
   71CHL1   C22 6416   5.125   7.025   4.180 -0.3099 -0.1002  0.0630
   71CHL1  H22A 6417   5.182   7.066   4.266 -0.1193  1.7278 -0.8841
   71CHL1  H22B 6418   5.089   7.117   4.127 -1.5367 -0.1242  0.8280
   71CHL1   C23 6419   4.999   6.941   4.224 -0.3568 -0.6224  0.1146
   71CHL1  H23A 6420   4.939   6.900   4.140 -2.1420  0.3930  0.8503
   71CHL1  H23B 6421   5.041   6.851   4.274  0.3253 -1.0389 -1.1650
   71CHL1   C24 6422   4.896   7.021   4.307 -0.4193  0.0497  0.2887
   71CHL1  H24A 6423   4.823   6.951   4.353  1.8819 -0.8637  2.7962
   71CHL1  H24B 6424   4.947   7.075   4.389  1.6545  0.2125 -1.0337
   71CHL1   C25 6425   4.821   7.141   4.238  0.1392  0.3095 -0.4473
   71CHL1   H25 6426   4.895   7.198   4.177  0.0977  0.1290 -0.6690
   71CHL1   C26 6427   4.707   7.079   4.155  0.1388  0.3607 -0.6678
   71CHL1  H26A 6428   4.655   7.165   4.107 -1.9085 -0.1647  0.4892
   71CHL1  H26B 6429   4.749   7.006   4.083 -0.4053  0.5440 -1.1852
   71CHL1  H26C 6430   4.644   7.020   4.225  1.3389  0.3531  0.4443
   71CHL1   C27 6431   4.760   7.229   4.349 -0.3583  0.0239 -0.1706
   71CHL1  H27A 6432   4.689   7.169   4.410  0.5248  0.0076  0.8604
   71CHL1  H27B 6433   4.841   7.267   4.414 -1.8039  0.0081  1.7079
   71CHL1  H27C 6434   4.701   7.312   4.303  0.0612 -0.1515 -1.0516
   72CHL1    C3 6435   5.838   2.663   2.610  0.3141 -0.2450  1.3221
   72CHL1    H3 6436   5.822   2.556   2.632  0.0958 -0.3987  0.4348
   72CHL1    O3 6437   5.835   2.674   2.471  0.3093 -0.0885 -0.4070
   72CHL1   H3' 6438   5.854   2.764   2.442 -0.1862  0.4578  0.8855
   72CHL1    C4 6439   5.724   2.753   2.655  0.2956  0.4594  0.8030
   72CHL1   H4A 6440   5.731   2.856   2.613 -0.6352  0.4709  0.6471
   72CHL1   H4B 6441   5.630   2.707   2.619  0.7536  0.2780 -0.1958
   72CHL1    C5 6442   5.729   2.746   2.809  0.5296  1.0509 -0.9427
   72CHL1    C6 6443   5.617   2.720   2.878 -1.0592  0.4930  0.3234
   72CHL1    H6 6444   5.524   2.705   2.821 -0.6950 -0.4086 -0.0572
   72CHL1    C7 6445   5.616   2.705   3.025  0.2090 -0.5272 -0.0042
   72CHL1   H7A 6446   5.517   2.745   3.057 -0.8671  0.4585 -3.9759
   72CHL1   H7B 6447   5.620   2.596   3.047  0.1874 -0.6476 -0.5785
   72CHL1    C8 6448   5.729   2.784   3.095  0.2625  0.5420  0.3923
   72CHL1    H8 6449   5.706   2.892   3.084  2.1879  0.8545 -1.1880
   72CHL1   C14 6450   5.735   2.747   3.247  0.3287 -0.3458 -0.4942
   72CHL1   H14 6451   5.740   2.636   3.259  1.0653 -0.4285 -1.4803
   72CHL1   C15 6452   5.606   2.768   3.336  0.3979  0.7076 -0.0171
   72CHL1  H15A 6453   5.556   2.862   3.304 -0.8922  0.8798  2.2935
   72CHL1  H15B 6454   5.526   2.694   3.314  0.5545  0.8198 -1.0264
   72CHL1   C16 6455   5.653   2.776   3.474 -1.0495 -0.6520  0.7080
   72CHL1  H16A 6456   5.641   2.881   3.508 -1.2400 -0.6667  0.6872
   72CHL1  H16B 6457   5.605   2.710   3.549 -0.5992 -2.2812 -0.3935
   72CHL1   C17 6458   5.807   2.751   3.465 -0.5249  0.2716 -0.2984
   72CHL1   H17 6459   5.831   2.643   3.469 -1.1189  0.1339 -0.3981
   72CHL1   C13 6460   5.852   2.796   3.328 -0.2176 -0.0243 -0.3758
   72CHL1   C18 6461   5.849   2.952   3.325  0.0431 -1.0761  0.3529
   72CHL1  H18A 6462   5.840   2.999   3.225 -0.7021 -3.2332 -0.6529
   72CHL1  H18B 6463   5.764   3.002   3.376  1.9212  2.0738  0.6551
   72CHL1  H18C 6464   5.938   2.997   3.374 -1.1492 -0.9172  2.5144
   72CHL1   C12 6465   5.969   2.728   3.253  0.1356  0.3908 -0.6934
   72CHL1  H12A 6466   6.066   2.756   3.300  0.0362 -1.4743  0.7123
   72CHL1  H12B 6467   5.963   2.617   3.260 -0.2159  0.5314  2.0772
   72CHL1   C11 6468   5.978   2.780   3.109  0.3292 -0.1349 -0.2686
   72CHL1  H11A 6469   5.991   2.891   3.104 -2.2474  0.2388 -0.2346
   72CHL1  H11B 6470   6.071   2.737   3.068  0.9687 -1.3835  2.2531
   72CHL1    C9 6471   5.860   2.743   3.022  0.0385  0.0989 -0.3466
   72CHL1    H9 6472   5.875   2.633   3.020 -0.1354  0.0760 -0.5480
   72CHL1   C10 6473   5.868   2.784   2.874  0.0859  0.8294 -1.2001
   72CHL1   C19 6474   5.883   2.939   2.864  0.0050  0.3542  0.3195
   72CHL1  H19A 6475   5.795   2.992   2.907  1.8168  2.2513  1.8576
   72CHL1  H19B 6476   5.973   2.974   2.918 -0.0777 -0.0949  0.7532
   72CHL1  H19C 6477   5.889   2.985   2.763  2.7615 -0.9851 -0.2174
   72CHL1    C1 6478   5.991   2.720   2.806  0.6763  0.5056 -0.9111
   72CHL1   H1A 6479   6.086   2.770   2.835  0.4386 -0.0566  0.9672
   72CHL1   H1B 6480   6.011   2.619   2.847  1.2855  1.8081  2.3243
   72CHL1    C2 6481   5.973   2.714   2.658 -0.7751  0.2594  0.5530
   72CHL1   H2A 6482   6.051   2.661   2.601 -2.7671 -0.7748 -1.3910
   72CHL1   H2B 6483   5.980   2.817   2.616 -1.2397 -0.2398 -0.8246
   72CHL1   C20 6484   5.885   2.805   3.590  0.3199 -0.3164  0.6630
   72CHL1   H20 6485   5.883   2.916   3.591  2.2631 -0.0715 -2.9862
   72CHL1   C21 6486   6.026   2.765   3.573  0.0222 -0.2661 -0.2910
   72CHL1  H21A 6487   6.078   2.780   3.670  1.1896 -0.8278 -0.8123
   72CHL1  H21B 6488   6.084   2.821   3.498  0.8218 -0.9751 -0.2100
   72CHL1  H21C 6489   6.032   2.656   3.551 -3.2127 -0.7320  0.4672
   72CHL1   C22 6490   5.821   2.742   3.721  0.9165  0.0903 -0.3660
   72CHL1  H22A 6491   5.865   2.799   3.805 -0.3585  1.1436 -0.3742
   72CHL1  H22B 6492   5.714   2.766   3.737  1.1208  0.4638  0.4971
   72CHL1   C23 6493   5.840   2.588   3.741  0.0076 -0.4657 -0.4414
   72CHL1  H23A 6494   5.747   2.538   3.707 -1.2373  1.0868  0.5096
   72CHL1  H23B 6495   5.924   2.540   3.688  0.4904 -0.7106  0.5210
   72CHL1   C24 6496   5.851   2.554   3.890  0.3923  0.3465 -0.2883
   72CHL1  H24A 6497   5.938   2.609   3.931  1.7230 -1.6904 -0.2219
   72CHL1  H24B 6498   5.759   2.590   3.940  2.0167 -0.2302  3.4350
   72CHL1   C25 6499   5.868   2.410   3.931  0.2925  0.2403 -0.7090
   72CHL1   H25 6500   5.804   2.335   3.881 -0.9377 -0.4408  1.7350
   72CHL1   C26 6501   6.018   2.377   3.926  0.2375 -0.7962  0.0560
   72CHL1  H26A 6502   6.040   2.389   3.818  0.0390  1.7604  0.2383
   72CHL1  H26B 6503   6.073   2.451   3.987 -1.3568 -0.2019  0.8416
   72CHL1  H26C 6504   6.053   2.284   3.974  2.5925  1.4513  3.0882
   72CHL1   C27 6505   5.826   2.400   4.081  0.0397  0.3550  0.0551
   72CHL1  H27A 6506   5.865   2.489   4.135 -1.4716  2.2145 -1.7442
   72CHL1  H27B 6507   5.715   2.401   4.082 -0.0628 -2.4211 -0.9282
   72CHL1  H27C 6508   5.861   2.309   4.134 -2.8050 -1.8249 -1.4971
   73CHL1    C3 6509   6.485   6.706   2.690  0.1636 -0.3635 -0.0344
   73CHL1    H3 6510   6.384   6.680   2.728  0.2028 -0.1420  0.2151
   73CHL1    O3 6511   6.470   6.732   2.553 -0.0692  0.1485 -0.5442
   73CHL1   H3' 6512   6.555   6.774   2.539  1.4768 -2.3395  0.6375
   73CHL1    C4 6513   6.534   6.835   2.760 -0.1337  0.0005 -0.0873
   73CHL1   H4A 6514   6.613   6.882   2.698  1.7746 -2.6734  0.1062
   73CHL1   H4B 6515   6.446   6.902   2.754 -1.1278 -0.9630  2.3771
   73CHL1    C5 6516   6.584   6.826   2.899 -0.1313  0.6828  0.4965
   73CHL1    C6 6517   6.547   6.908   2.994  0.1893 -0.7257  0.3967
   73CHL1    H6 6518   6.479   6.993   2.976  0.1892 -0.8368 -0.1468
   73CHL1    C7 6519   6.585   6.906   3.141  0.0688  0.1353 -0.1811
   73CHL1   H7A 6520   6.593   7.007   3.188 -1.1196  0.9080 -1.5474
   73CHL1   H7B 6521   6.500   6.853   3.188 -0.2428 -1.0596 -2.0085
   73CHL1    C8 6522   6.709   6.814   3.163  0.6535 -0.1597 -0.3430
   73CHL1    H8 6523   6.799   6.871   3.132 -0.4502  0.1971 -3.2130
   73CHL1   C14 6524   6.717   6.773   3.315  0.1380 -0.7288 -0.2773
   73CHL1   H14 6525   6.621   6.720   3.335 -1.1872  0.8417 -2.0368
   73CHL1   C15 6526   6.713   6.893   3.411 -0.0937 -0.6155 -0.7546
   73CHL1  H15A 6527   6.791   6.969   3.390  1.9794 -2.5695 -0.5004
   73CHL1  H15B 6528   6.616   6.947   3.419  0.8693  1.1546 -0.5978
   73CHL1   C16 6529   6.750   6.826   3.543  0.2863 -0.2270 -0.0345
   73CHL1  H16A 6530   6.804   6.894   3.611 -1.0393  2.3379 -1.3686
   73CHL1  H16B 6531   6.653   6.792   3.585  1.7252 -2.3861  1.7468
   73CHL1   C17 6532   6.816   6.691   3.504  0.0675  0.3579 -0.1690
   73CHL1   H17 6533   6.740   6.611   3.521  0.8078 -0.0611  1.4163
   73CHL1   C13 6534   6.838   6.689   3.355 -0.4287 -0.2369  0.5184
   73CHL1   C18 6535   6.970   6.752   3.321 -0.3263 -0.2500 -0.0111
   73CHL1  H18A 6536   6.969   6.852   3.369  2.1374 -0.6600  1.0316
   73CHL1  H18B 6537   7.051   6.685   3.357 -1.6265 -2.3827 -0.8612
   73CHL1  H18C 6538   6.989   6.761   3.212  2.8437  0.5742  0.5234
   73CHL1   C12 6539   6.818   6.552   3.272  0.3964  0.1291 -0.4315
   73CHL1  H12A 6540   6.904   6.484   3.290 -1.0276 -1.6994 -0.1764
   73CHL1  H12B 6541   6.727   6.503   3.314 -0.8106 -0.0011 -3.0273
   73CHL1   C11 6542   6.796   6.574   3.122  0.3661  0.1563  0.6189
   73CHL1  H11A 6543   6.891   6.627   3.097  0.7132 -1.1367 -1.0163
   73CHL1  H11B 6544   6.790   6.478   3.067  1.1684 -1.2281  2.7976
   73CHL1    C9 6545   6.684   6.683   3.085 -0.5293  0.6449 -0.6508
   73CHL1    H9 6546   6.582   6.649   3.115 -0.6803  1.1442 -0.5895
   73CHL1   C10 6547   6.672   6.704   2.934  0.0568  0.2194 -0.1980
   73CHL1   C19 6548   6.808   6.718   2.868 -0.3048 -0.2989  0.0524
   73CHL1  H19A 6549   6.803   6.735   2.759  2.0829 -2.3017 -0.4758
   73CHL1  H19B 6550   6.865   6.796   2.924  0.5308  0.0732 -1.2879
   73CHL1  H19C 6551   6.851   6.616   2.869 -0.4853 -0.4018 -1.3939
   73CHL1    C1 6552   6.612   6.579   2.870  0.4978 -0.4348 -0.0892
   73CHL1   H1A 6553   6.664   6.481   2.883  0.8450 -0.0321  1.9035
   73CHL1   H1B 6554   6.510   6.568   2.913  0.0147  1.9657 -0.5067
   73CHL1    C2 6555   6.583   6.587   2.719  0.4480 -0.5020  0.0817
   73CHL1   H2A 6556   6.542   6.490   2.682  0.8082 -0.6137 -0.0236
   73CHL1   H2B 6557   6.670   6.609   2.653 -0.7014  2.3962 -0.6524
   73CHL1   C20 6558   6.934   6.648   3.597 -0.4324 -0.1632 -0.3926
   73CHL1   H20 6559   7.011   6.727   3.592 -1.5442  0.9242 -0.6529
   73CHL1   C21 6560   6.989   6.513   3.556 -0.1211 -0.1027  1.0879
   73CHL1  H21A 6561   7.050   6.465   3.636  1.1112  1.0938  0.8962
   73CHL1  H21B 6562   7.054   6.521   3.467 -1.9162  1.8879 -0.1420
   73CHL1  H21C 6563   6.901   6.452   3.524  1.7042 -1.9458 -0.7284
   73CHL1   C22 6564   6.889   6.638   3.753  0.4384 -0.4248  0.5745
   73CHL1  H22A 6565   6.822   6.724   3.774 -1.5606 -2.1535  1.5733
   73CHL1  H22B 6566   6.820   6.551   3.750 -0.1537  0.0627 -1.6889
   73CHL1   C23 6567   7.002   6.632   3.852  0.5147 -0.5056  0.0613
   73CHL1  H23A 6568   7.043   6.529   3.850 -0.9680 -1.1365  0.8869
   73CHL1  H23B 6569   7.078   6.704   3.814  0.6677 -2.2495 -3.3316
   73CHL1   C24 6570   6.973   6.671   3.992 -0.4068  0.4363 -0.2173
   73CHL1  H24A 6571   6.901   6.756   3.991 -1.1079 -0.1491 -0.5095
   73CHL1  H24B 6572   6.917   6.589   4.043 -0.7970 -0.7705 -2.4869
   73CHL1   C25 6573   7.104   6.715   4.069 -0.0596 -0.6644 -0.3348
   73CHL1   H25 6574   7.155   6.795   4.011 -0.2767  0.1183  0.5241
   73CHL1   C26 6575   7.067   6.756   4.211  0.0530  0.4068  0.1450
   73CHL1  H26A 6576   7.149   6.800   4.272 -0.0346  0.8170 -0.0253
   73CHL1  H26B 6577   6.992   6.837   4.219  0.6026  0.8154  1.4481
   73CHL1  H26C 6578   7.024   6.671   4.267 -2.0133  1.8412  0.8418
   73CHL1   C27 6579   7.203   6.598   4.087  0.0497  0.2464  0.0764
   73CHL1  H27A 6580   7.215   6.573   3.980 -0.8929  0.1220 -0.0096
   73CHL1  H27B 6581   7.301   6.624   4.132 -0.7278  0.2671  1.8390
   73CHL1  H27C 6582   7.164   6.508   4.138 -0.5177 -0.9346 -2.2876
   74CHL1    C3 6583   6.314   5.285   2.908 -0.3730  0.2940 -0.2872
   74CHL1    H3 6584   6.247   5.197   2.922  0.7829 -0.8271 -1.4930
   74CHL1    O3 6585   6.291   5.336   2.780 -1.1997 -0.4067 -0.3210
   74CHL1   H3' 6586   6.246   5.420   2.791 -1.3076 -0.3225 -1.2741
   74CHL1    C4 6587   6.290   5.391   3.020  0.7378 -0.0694 -0.6107
   74CHL1   H4A 6588   6.356   5.474   2.987 -1.4558  1.6019 -1.0315
   74CHL1   H4B 6589   6.190   5.439   3.018 -0.1916 -1.8646  0.5433
   74CHL1    C5 6590   6.312   5.348   3.159 -0.8536 -0.5862 -0.3098
   74CHL1    C6 6591   6.213   5.347   3.255  0.1333 -0.5616 -0.4746
   74CHL1    H6 6592   6.115   5.389   3.227  1.0106  0.2717 -2.4468
   74CHL1    C7 6593   6.225   5.314   3.396  0.3271 -0.8009 -0.6379
   74CHL1   H7A 6594   6.164   5.390   3.451 -0.1438 -2.1967  0.8727
   74CHL1   H7B 6595   6.165   5.223   3.416  0.4814 -0.5584  1.1368
   74CHL1    C8 6596   6.372   5.303   3.425  0.1179 -0.1211 -0.3480
   74CHL1    H8 6597   6.417   5.404   3.431 -1.8525  0.7975 -0.1993
   74CHL1   C14 6598   6.387   5.230   3.562 -0.5775 -0.4468 -0.0004
   74CHL1   H14 6599   6.356   5.125   3.547 -0.8077 -0.7828  2.4869
   74CHL1   C15 6600   6.303   5.284   3.670  1.0290 -1.1404  0.0597
   74CHL1  H15A 6601   6.300   5.395   3.665  3.0135 -1.0669 -0.1601
   74CHL1  H15B 6602   6.203   5.235   3.665  0.4547  0.1090 -1.4816
   74CHL1   C16 6603   6.363   5.243   3.805 -0.5649 -0.4936 -0.6244
   74CHL1  H16A 6604   6.391   5.331   3.867 -3.9334  0.2061  0.1111
   74CHL1  H16B 6605   6.299   5.188   3.877 -1.6729 -0.2956 -1.4253
   74CHL1   C17 6606   6.489   5.164   3.757  0.1639  0.0589  0.9482
   74CHL1   H17 6607   6.451   5.061   3.742 -0.3797  0.2582  0.9381
   74CHL1   C13 6608   6.526   5.226   3.618 -0.5001  0.4113 -0.1794
   74CHL1   C18 6609   6.595   5.370   3.646  0.6676  0.1367  0.7434
   74CHL1  H18A 6610   6.549   5.424   3.732 -1.1967  2.6868 -1.6620
   74CHL1  H18B 6611   6.701   5.345   3.667  0.5530 -0.8321  0.1975
   74CHL1  H18C 6612   6.597   5.440   3.560  2.4342 -0.2295  0.4680
   74CHL1   C12 6613   6.601   5.141   3.513  0.0840  0.4079  0.1904
   74CHL1  H12A 6614   6.710   5.137   3.533  0.2937 -3.2240 -0.9757
   74CHL1  H12B 6615   6.573   5.034   3.518  2.0675 -0.1154  0.9778
   74CHL1   C11 6616   6.598   5.205   3.375  0.7470  0.5369  0.2678
   74CHL1  H11A 6617   6.657   5.296   3.400 -0.3621  0.7142  2.4884
   74CHL1  H11B 6618   6.662   5.149   3.304 -1.2016 -1.9916  0.3819
   74CHL1    C9 6619   6.457   5.228   3.318 -0.2207  0.3322 -0.0558
   74CHL1    H9 6620   6.407   5.129   3.321 -0.8900  0.6792  2.7198
   74CHL1   C10 6621   6.453   5.297   3.177 -0.1365  0.1422  0.0887
   74CHL1   C19 6622   6.557   5.409   3.172 -0.0768  0.3309 -0.3560
   74CHL1  H19A 6623   6.562   5.448   3.069 -1.8576 -0.1221 -0.6655
   74CHL1  H19B 6624   6.526   5.491   3.241  1.4045 -0.0749  0.8423
   74CHL1  H19C 6625   6.663   5.391   3.198 -0.1393 -0.9610 -0.9192
   74CHL1    C1 6626   6.487   5.191   3.068  0.5384 -0.1492 -0.6860
   74CHL1   H1A 6627   6.593   5.158   3.073  0.1224 -1.5838 -0.8501
   74CHL1   H1B 6628   6.425   5.099   3.080  0.4536  0.0856  0.8696
   74CHL1    C2 6629   6.460   5.236   2.925  0.7284  0.0145 -0.1310
   74CHL1   H2A 6630   6.486   5.161   2.846  1.8263 -0.9015  1.0568
   74CHL1   H2B 6631   6.522   5.325   2.903 -0.2290  0.9149  0.7146
   74CHL1   C20 6632   6.602   5.146   3.859  0.0784  0.7997  0.4990
   74CHL1   H20 6633   6.647   5.237   3.905  3.3288  0.6103 -1.9517
   74CHL1   C21 6634   6.724   5.075   3.788 -0.8213  0.2136 -0.6995
   74CHL1  H21A 6635   6.777   5.151   3.726  1.6026  2.4336  3.6554
   74CHL1  H21B 6636   6.685   4.991   3.727 -2.3211  2.1320 -2.5801
   74CHL1  H21C 6637   6.802   5.040   3.858 -1.8404 -0.2288  0.2366
   74CHL1   C22 6638   6.549   5.057   3.977  0.2143 -0.3404  0.6340
   74CHL1  H22A 6639   6.459   5.105   4.020 -1.7985 -0.3571 -3.1504
   74CHL1  H22B 6640   6.512   4.964   3.930  1.9113 -2.0626  2.5159
   74CHL1   C23 6641   6.655   5.007   4.079 -0.5771 -0.7288 -0.0084
   74CHL1  H23A 6642   6.597   4.957   4.160  0.6887  0.1601  1.5047
   74CHL1  H23B 6643   6.724   4.926   4.043  0.8373  0.4622 -0.0740
   74CHL1   C24 6644   6.718   5.119   4.159 -0.3911  0.8642  0.2203
   74CHL1  H24A 6645   6.763   5.194   4.091  1.1855 -0.9076 -0.7633
   74CHL1  H24B 6646   6.635   5.165   4.217 -1.5909 -0.8327 -0.0737
   74CHL1   C25 6647   6.830   5.074   4.260  0.5832 -0.1757  0.1310
   74CHL1   H25 6648   6.870   5.172   4.292 -1.1830  1.3639 -2.0261
   74CHL1   C26 6649   6.780   4.986   4.378  0.3810  0.3448  0.2423
   74CHL1  H26A 6650   6.696   5.022   4.441 -0.7056 -1.1668 -0.2855
   74CHL1  H26B 6651   6.758   4.880   4.353  0.7496  0.1073  0.9206
   74CHL1  H26C 6652   6.865   4.963   4.445 -0.5761 -0.3087  1.2619
   74CHL1   C27 6653   6.946   5.009   4.178 -0.0660  0.2316 -0.0928
   74CHL1  H27A 6654   6.931   4.900   4.159  3.4024 -0.5082  0.6327
   74CHL1  H27B 6655   6.978   5.062   4.085 -0.2402 -0.6134 -0.6487
   74CHL1  H27C 6656   7.038   5.009   4.240 -0.1525 -1.2212  0.0691
   75CHL1    C3 6657   6.312   5.853   3.100  0.7425 -0.6441  0.1931
   75CHL1    H3 6658   6.419   5.880   3.092  0.4935 -0.0094 -1.5113
   75CHL1    O3 6659   6.253   5.810   2.974  0.3743 -0.2113  0.3412
   75CHL1   H3' 6660   6.161   5.789   2.995  0.7504 -0.4357  1.9261
   75CHL1    C4 6661   6.291   5.743   3.206  0.6880  0.1852 -0.4099
   75CHL1   H4A 6662   6.193   5.692   3.194  0.6518 -1.2528  4.0126
   75CHL1   H4B 6663   6.353   5.654   3.181  0.4572  0.0072 -0.3611
   75CHL1    C5 6664   6.303   5.777   3.357 -0.4487 -0.1407  0.2665
   75CHL1    C6 6665   6.378   5.703   3.437 -0.6932 -0.4040  0.7552
   75CHL1    H6 6666   6.437   5.618   3.400  1.4061  1.0886  0.5065
   75CHL1    C7 6667   6.386   5.728   3.584  0.5031  0.2129 -0.2266
   75CHL1   H7A 6668   6.364   5.630   3.632 -0.1809 -0.1516 -1.2492
   75CHL1   H7B 6669   6.492   5.748   3.610  0.3719  2.2739 -1.1159
   75CHL1    C8 6670   6.288   5.828   3.634 -0.2052 -0.3980 -0.0125
   75CHL1    H8 6671   6.191   5.775   3.643 -0.3013 -0.2205  0.0022
   75CHL1   C14 6672   6.334   5.889   3.769 -0.8732 -0.3444  0.3050
   75CHL1   H14 6673   6.430   5.941   3.747 -0.1266 -0.4045  3.0549
   75CHL1   C15 6674   6.376   5.784   3.875 -0.1926 -0.1074 -0.8883
   75CHL1  H15A 6675   6.308   5.696   3.866 -1.9239  1.2529 -1.7887
   75CHL1  H15B 6676   6.483   5.757   3.864  0.1962  1.2383 -0.6124
   75CHL1   C16 6677   6.364   5.858   4.008 -0.1015 -0.5812  0.6402
   75CHL1  H16A 6678   6.300   5.789   4.067 -0.9638 -1.0913 -0.8394
   75CHL1  H16B 6679   6.461   5.881   4.057 -0.2090  0.1523  0.5133
   75CHL1   C17 6680   6.304   6.002   3.971  1.1936 -0.0666  0.4132
   75CHL1   H17 6681   6.395   6.065   3.953  0.3686  1.6439  1.8778
   75CHL1   C13 6682   6.242   5.981   3.832  0.5153 -0.1110 -0.2536
   75CHL1   C18 6683   6.096   5.928   3.835 -0.7528 -0.4220 -0.0093
   75CHL1  H18A 6684   6.062   5.898   3.733  0.4731  2.6212 -1.4299
   75CHL1  H18B 6685   6.081   5.837   3.897  1.0816 -1.2969 -0.7649
   75CHL1  H18C 6686   6.022   6.002   3.874 -0.5110  0.6253 -1.4516
   75CHL1   C12 6687   6.242   6.104   3.738  0.5813 -0.4354 -0.0095
   75CHL1  H12A 6688   6.177   6.187   3.773  2.7177  1.2176  0.2788
   75CHL1  H12B 6689   6.339   6.157   3.726  0.0907  0.7894  1.1324
   75CHL1   C11 6690   6.194   6.068   3.599 -0.7572  0.1326  0.7134
   75CHL1  H11A 6691   6.084   6.057   3.606 -1.0793  2.6212  0.1498
   75CHL1  H11B 6692   6.221   6.147   3.526  2.0557 -1.1679  0.2080
   75CHL1    C9 6693   6.269   5.947   3.541  0.3065 -0.2769 -0.0086
   75CHL1    H9 6694   6.375   5.978   3.528  0.2314 -0.6364 -1.7942
   75CHL1   C10 6695   6.225   5.906   3.401 -0.3987 -0.6978  0.7251
   75CHL1   C19 6696   6.066   5.882   3.392 -0.2451  0.3745  0.3574
   75CHL1  H19A 6697   6.006   5.971   3.421  2.1159  1.7190  1.4295
   75CHL1  H19B 6698   6.041   5.860   3.286 -2.0602  2.8388  0.1741
   75CHL1  H19C 6699   6.041   5.794   3.456 -1.2657 -0.1688 -0.7402
   75CHL1    C1 6700   6.270   6.018   3.306 -0.7511  0.4665  0.3212
   75CHL1   H1A 6701   6.227   6.116   3.334  2.2358  1.1734  2.9522
   75CHL1   H1B 6702   6.378   6.033   3.325 -0.2975 -1.1084 -0.7921
   75CHL1    C2 6703   6.253   5.994   3.150 -0.5967 -0.1450 -0.1497
   75CHL1   H2A 6704   6.312   6.065   3.089  1.0722 -2.6606 -1.6653
   75CHL1   H2B 6705   6.146   6.008   3.124  0.2568  0.8900 -3.6586
   75CHL1   C20 6706   6.231   6.074   4.082  1.1142 -0.3619 -0.1938
   75CHL1   H20 6707   6.137   6.016   4.099 -0.2853  0.8542 -3.0168
   75CHL1   C21 6708   6.182   6.211   4.039 -0.6240 -0.3887 -0.3560
   75CHL1  H21A 6709   6.264   6.276   4.003 -0.3166  0.0590  1.0627
   75CHL1  H21B 6710   6.144   6.261   4.131 -0.6533  1.3533 -1.2702
   75CHL1  H21C 6711   6.102   6.209   3.962 -1.6481  0.8585  0.6189
   75CHL1   C22 6712   6.311   6.075   4.221  0.4151  0.5845 -0.3287
   75CHL1  H22A 6713   6.252   6.133   4.295  0.1350 -2.2403  1.8498
   75CHL1  H22B 6714   6.302   5.966   4.244 -1.5028  0.5453 -1.0225
   75CHL1   C23 6715   6.454   6.120   4.230  0.5268 -0.3947 -0.1689
   75CHL1  H23A 6716   6.519   6.064   4.159  0.7129  1.5551 -1.6496
   75CHL1  H23B 6717   6.460   6.226   4.195  0.6022  0.4899  2.3524
   75CHL1   C24 6718   6.502   6.097   4.376  0.1197 -1.0422 -0.4401
   75CHL1  H24A 6719   6.462   6.174   4.446  1.7454 -1.0841  0.5893
   75CHL1  H24B 6720   6.453   6.002   4.406 -0.1365 -0.6883  0.2865
   75CHL1   C25 6721   6.658   6.090   4.381 -0.4754 -0.0238  0.0832
   75CHL1   H25 6722   6.708   6.167   4.319  0.0426 -1.5724 -1.5291
   75CHL1   C26 6723   6.701   6.098   4.527 -0.3810  0.4254  0.2830
   75CHL1  H26A 6724   6.680   5.997   4.568 -0.2328  0.6773  0.9979
   75CHL1  H26B 6725   6.807   6.127   4.546  0.1371 -1.3913  0.2882
   75CHL1  H26C 6726   6.642   6.161   4.597  0.5060 -0.4869  1.9047
   75CHL1   C27 6727   6.719   5.964   4.313  0.1110  0.5645 -0.4548
   75CHL1  H27A 6728   6.706   5.969   4.202  0.2219  0.1807 -0.4868
   75CHL1  H27B 6729   6.828   5.958   4.332  0.3814  1.4708 -1.6068
   75CHL1  H27C 6730   6.668   5.871   4.346  0.6456 -0.0980 -1.4237
   76CHL1    C3 6731   4.372   5.669   3.202  0.5379 -0.0989 -0.1284
   76CHL1    H3 6732   4.461   5.733   3.218 -0.4204  1.1259  0.5475
   76CHL1    O3 6733   4.342   5.652   3.066 -0.4710 -0.1081  0.2042
   76CHL1   H3' 6734   4.263   5.604   3.042 -1.0381  0.3196  1.1523
   76CHL1    C4 6735   4.387   5.528   3.258 -0.4451 -0.0071 -0.2589
   76CHL1   H4A 6736   4.296   5.475   3.220 -0.1269 -0.3713 -0.5327
   76CHL1   H4B 6737   4.479   5.489   3.208  0.1323  1.0342 -0.0271
   76CHL1    C5 6738   4.394   5.529   3.411 -0.3148 -0.0793 -0.3307
   76CHL1    C6 6739   4.489   5.453   3.474  0.4233  0.1079 -0.1630
   76CHL1    H6 6740   4.559   5.395   3.412  1.3150  1.1474 -0.1553
   76CHL1    C7 6741   4.492   5.433   3.624  0.1312 -0.5473  0.3479
   76CHL1   H7A 6742   4.497   5.327   3.657  2.4991 -0.5985 -0.0129
   76CHL1   H7B 6743   4.587   5.482   3.653  0.0555 -2.2121  3.9886
   76CHL1    C8 6744   4.380   5.505   3.707  0.6780 -0.0296 -0.5452
   76CHL1    H8 6745   4.296   5.431   3.704  0.4792  0.1505  0.3004
   76CHL1   C14 6746   4.421   5.539   3.849 -0.4648 -0.2420 -0.0334
   76CHL1   H14 6747   4.491   5.624   3.830  0.7930 -0.9388  1.3276
   76CHL1   C15 6748   4.503   5.429   3.926 -0.2708 -0.7170  0.1257
   76CHL1  H15A 6749   4.460   5.327   3.913  2.1482 -1.9648  1.3495
   76CHL1  H15B 6750   4.613   5.437   3.913 -0.0512 -1.5336  1.2654
   76CHL1   C16 6751   4.471   5.463   4.074  0.0278 -0.5271 -0.1995
   76CHL1  H16A 6752   4.430   5.373   4.124  0.1142 -1.0161 -0.9843
   76CHL1  H16B 6753   4.566   5.492   4.125 -0.7243  0.9692  0.3910
   76CHL1   C17 6754   4.385   5.586   4.076  0.1206  0.1118 -0.0904
   76CHL1   H17 6755   4.462   5.665   4.073  1.5135 -1.1727  0.6219
   76CHL1   C13 6756   4.307   5.591   3.938  0.0129 -0.3205 -0.2602
   76CHL1   C18 6757   4.191   5.489   3.954 -0.0468  0.1382  0.2078
   76CHL1  H18A 6758   4.226   5.403   4.015 -3.5821  0.1395  2.5695
   76CHL1  H18B 6759   4.111   5.540   4.013  0.2912 -1.7625  2.4646
   76CHL1  H18C 6760   4.157   5.458   3.853  2.6117  0.2003 -0.7891
   76CHL1   C12 6761   4.260   5.721   3.876 -0.4807 -0.2874 -0.5685
   76CHL1  H12A 6762   4.177   5.770   3.930  0.9063 -0.0984  1.5329
   76CHL1  H12B 6763   4.340   5.799   3.873 -0.6792 -0.0880 -0.6939
   76CHL1   C11 6764   4.215   5.701   3.725  0.0848 -0.7153 -0.9005
   76CHL1  H11A 6765   4.133   5.627   3.738 -0.3792  0.3113  3.3038
   76CHL1  H11B 6766   4.165   5.795   3.691 -1.1622 -0.6424  1.0079
   76CHL1    C9 6767   4.328   5.633   3.640 -0.1884 -0.0252  0.0728
   76CHL1    H9 6768   4.411   5.707   3.633  1.0410 -1.2731  1.0087
   76CHL1   C10 6769   4.290   5.607   3.491 -0.7976  0.0235 -0.3432
   76CHL1   C19 6770   4.147   5.538   3.485  0.6058  0.4250  0.2492
   76CHL1  H19A 6771   4.137   5.499   3.382  2.3682 -2.3713  1.0265
   76CHL1  H19B 6772   4.151   5.451   3.553  1.2344 -0.5639 -1.0162
   76CHL1  H19C 6773   4.062   5.603   3.514  0.1098 -0.8977  1.9385
   76CHL1    C1 6774   4.282   5.750   3.415 -1.1418 -0.0712 -0.1411
   76CHL1   H1A 6775   4.199   5.813   3.453  0.1431  1.9703 -0.6287
   76CHL1   H1B 6776   4.379   5.799   3.431 -1.1282 -0.2706  0.3952
   76CHL1    C2 6777   4.261   5.746   3.265 -0.3825  0.1891  0.3591
   76CHL1   H2A 6778   4.267   5.845   3.214 -0.5487  0.0867  0.1373
   76CHL1   H2B 6779   4.161   5.703   3.241 -0.3104 -0.3220  0.9403
   76CHL1   C20 6780   4.306   5.612   4.208 -0.5387 -0.4722  1.1779
   76CHL1   H20 6781   4.202   5.576   4.195 -0.3473 -0.9202  0.8449
   76CHL1   C21 6782   4.311   5.765   4.232 -0.3126 -0.9854  0.4559
   76CHL1  H21A 6783   4.312   5.815   4.134 -1.7117 -1.6750  0.0638
   76CHL1  H21B 6784   4.397   5.794   4.297  1.5184 -3.0294 -0.9011
   76CHL1  H21C 6785   4.212   5.796   4.273 -0.4848  0.5149 -1.0278
   76CHL1   C22 6786   4.375   5.535   4.323  1.0070  0.3141 -0.0825
   76CHL1  H22A 6787   4.367   5.426   4.306 -1.9715  0.4019  0.1396
   76CHL1  H22B 6788   4.483   5.561   4.320  1.2616 -0.7912 -2.0455
   76CHL1   C23 6789   4.328   5.569   4.469  0.8436 -0.8596 -0.0263
   76CHL1  H23A 6790   4.357   5.673   4.494  0.6111 -0.9746  0.7441
   76CHL1  H23B 6791   4.217   5.560   4.468  0.6582  0.6853  1.7647
   76CHL1   C24 6792   4.398   5.471   4.566 -0.7435 -0.1334 -0.9687
   76CHL1  H24A 6793   4.368   5.368   4.540 -2.2770 -0.6975  2.4992
   76CHL1  H24B 6794   4.509   5.473   4.563 -0.7441  0.8428 -0.6393
   76CHL1   C25 6795   4.358   5.472   4.721  0.3864 -0.4304  0.0754
   76CHL1   H25 6796   4.376   5.573   4.763 -1.9036 -1.2715  3.4694
   76CHL1   C26 6797   4.206   5.446   4.745  0.0096  0.1713  0.0412
   76CHL1  H26A 6798   4.145   5.530   4.704 -0.1011 -0.2510 -0.6875
   76CHL1  H26B 6799   4.179   5.353   4.691  1.1083  1.0751 -2.1707
   76CHL1  H26C 6800   4.186   5.434   4.854  0.2187 -0.7289 -0.0109
   76CHL1   C27 6801   4.449   5.368   4.791  0.2559  0.0725  0.6052
   76CHL1  H27A 6802   4.556   5.395   4.787  0.2425  0.0778  0.2681
   76CHL1  H27B 6803   4.438   5.363   4.901  0.6698  0.1622  0.6519
   76CHL1  H27C 6804   4.438   5.264   4.753 -2.6422  0.1516  0.9977
   77SOPE     N 6805   1.656   2.877   6.350  0.3263  0.4941 -0.0142
   77SOPE   HN1 6806   1.636   2.793   6.407  0.8476 -0.3378 -1.0238
   77SOPE   HN2 6807   1.687   2.962   6.403 -1.0586  1.3062 -0.4586
   77SOPE   HN3 6808   1.565   2.905   6.309 -0.3711  0.9991  1.7501
   77SOPE   C12 6809   1.755   2.837   6.243  0.0855 -0.2556 -0.2691
   77SOPE  H12A 6810   1.705   2.752   6.191  1.9718 -1.6737  0.1404
   77SOPE  H12B 6811   1.843   2.791   6.293  0.8228  1.2057 -0.1743
   77SOPE   C11 6812   1.799   2.949   6.149 -0.1969  0.4811 -0.9692
   77SOPE  H11A 6813   1.709   2.966   6.086  0.8103 -0.6765 -2.8265
   77SOPE  H11B 6814   1.866   2.908   6.071 -0.5299 -0.2711 -0.8669
   77SOPE     P 6815   2.018   3.059   6.235  0.3373 -0.2716  0.4254
   77SOPE   O13 6816   2.055   2.920   6.264 -0.5673  0.3689  0.2599
   77SOPE   O14 6817   2.062   3.159   6.334  0.0125 -0.0416  0.1043
   77SOPE   O12 6818   1.865   3.061   6.213 -0.2626 -0.1411  0.4179
   77SOPE   O11 6819   2.070   3.087   6.088  0.0698 -0.0711 -0.3346
   77SOPE    C1 6820   2.060   3.206   6.020  0.4684 -0.7727  0.0690
   77SOPE    HA 6821   2.119   3.208   5.926 -2.0588  1.2547 -1.5992
   77SOPE    HB 6822   2.074   3.295   6.084  1.6268 -1.1863  0.4149
   77SOPE    C2 6823   1.923   3.209   5.937  0.1823  0.1689  0.3996
   77SOPE    HS 6824   1.840   3.182   6.005  0.0306 -0.0652  0.1242
   77SOPE   O21 6825   1.926   3.106   5.831  0.4015  0.3553 -1.0937
   77SOPE   C21 6826   1.804   3.084   5.770 -0.1224 -0.6741 -1.0411
   77SOPE   O22 6827   1.699   3.119   5.820  0.5345  0.1450 -0.0504
   77SOPE   C22 6828   1.824   3.014   5.641 -0.1231  0.1908 -0.4768
   77SOPE   H2R 6829   1.728   3.000   5.587  0.1829 -0.7619 -0.8041
   77SOPE   H2S 6830   1.868   2.912   5.652 -2.1158 -0.7733 -1.0762
   77SOPE    C3 6831   1.892   3.355   5.885 -0.0277  0.1385  0.6595
   77SOPE    HX 6832   1.895   3.428   5.968  1.1749  1.1097 -0.2081
   77SOPE    HY 6833   1.786   3.350   5.850  0.7339 -1.4270 -1.7300
   77SOPE   O31 6834   1.970   3.391   5.768 -0.0377  0.4150  0.3314
   77SOPE   C31 6835   2.085   3.447   5.794 -0.0821  0.3102  0.1757
   77SOPE   O32 6836   2.118   3.482   5.908  0.1594 -0.1524 -0.0575
   77SOPE   C32 6837   2.166   3.467   5.664 -0.1009 -0.2997 -0.1860
   77SOPE   H2X 6838   2.110   3.553   5.620  0.8869  2.4516  3.3889
   77SOPE   H2Y 6839   2.156   3.384   5.591  3.7464 -0.2665 -0.9620
   77SOPE   C23 6840   1.908   3.090   5.540  0.3851 -0.0682 -0.1592
   77SOPE   H3R 6841   2.012   3.088   5.581  1.4073 -1.5075 -2.5886
   77SOPE   H3S 6842   1.874   3.195   5.545  0.6421  0.1040 -1.5209
   77SOPE   C24 6843   1.902   3.041   5.394 -0.7465 -0.3829  0.0595
   77SOPE   H4R 6844   1.941   2.937   5.387 -1.6405 -0.6365 -1.7487
   77SOPE   H4S 6845   1.794   3.031   5.372 -1.1678  0.7532  1.4441
   77SOPE   C25 6846   1.975   3.130   5.298  0.7511  0.3093  0.9543
   77SOPE   H5R 6847   1.941   3.232   5.326  0.5649  0.3955  0.4258
   77SOPE   H5S 6848   2.085   3.135   5.305  0.6999  1.8496  0.9989
   77SOPE   C26 6849   1.935   3.084   5.155 -0.0774 -0.3849 -0.0227
   77SOPE   H6R 6850   1.985   2.989   5.126  0.0885 -0.9546  1.9382
   77SOPE   H6S 6851   1.825   3.071   5.149 -0.3739  0.5670  2.2692
   77SOPE   C27 6852   1.969   3.184   5.041 -0.6134  0.5616 -0.7719
   77SOPE   H7R 6853   1.894   3.266   5.038 -0.5746  0.5707 -2.5497
   77SOPE   H7S 6854   2.072   3.214   5.069 -0.8718  0.2936  0.5058
   77SOPE   C28 6855   1.983   3.110   4.905  0.6551 -1.1686 -0.1641
   77SOPE   H8R 6856   2.027   3.189   4.841  0.0621 -0.7772 -0.0983
   77SOPE   H8S 6857   2.068   3.038   4.902  0.6564 -1.1580 -3.2996
   77SOPE   C29 6858   1.854   3.048   4.863 -0.7559  0.2799  0.3988
   77SOPE   H91 6859   1.822   2.965   4.927  0.6301 -0.2182  0.4768
   77SOPE  C210 6860   1.784   3.089   4.763 -0.2540 -0.0701  0.6983
   77SOPE  H101 6861   1.690   3.033   4.747 -1.2329  1.6521  0.1747
   77SOPE  C211 6862   1.819   3.203   4.659  0.4545 -0.5487 -0.2032
   77SOPE  H11R 6863   1.917   3.250   4.681 -0.6026  1.1935  0.9812
   77SOPE  H11S 6864   1.745   3.284   4.674  1.3751  0.3628 -0.5149
   77SOPE  C212 6865   1.810   3.158   4.514  0.1821 -0.3861  0.4000
   77SOPE  H12R 6866   1.710   3.121   4.486  0.0892 -0.1877  0.4665
   77SOPE  H12S 6867   1.877   3.071   4.498 -0.2838 -0.5000 -1.0911
   77SOPE  C213 6868   1.867   3.257   4.408 -0.1893  0.3325  0.4302
   77SOPE  H13R 6869   1.946   3.322   4.451  1.1509  0.1057 -1.5571
   77SOPE  H13S 6870   1.783   3.324   4.379  1.4247  1.8156 -1.0883
   77SOPE  C214 6871   1.915   3.190   4.277  0.3927 -0.2917  0.3889
   77SOPE  H14R 6872   1.917   3.258   4.190  1.1904 -1.2859 -0.4031
   77SOPE  H14S 6873   1.862   3.098   4.244  0.7286 -0.3554  0.0129
   77SOPE  C215 6874   2.061   3.133   4.298 -0.3584  0.3686  0.1463
   77SOPE  H15R 6875   2.062   3.062   4.384  0.1201  2.7453  2.2493
   77SOPE  H15S 6876   2.131   3.217   4.318 -0.0966 -0.0185  0.8875
   77SOPE  C216 6877   2.114   3.083   4.166 -0.0780 -0.5274  1.1462
   77SOPE  H16R 6878   2.033   3.029   4.113 -0.5948  1.9126 -0.7215
   77SOPE  H16S 6879   2.201   3.016   4.186  0.2307  0.0748  1.8887
   77SOPE  C217 6880   2.153   3.196   4.064 -0.0826 -0.5125  0.4281
   77SOPE  H17R 6881   2.236   3.262   4.098 -1.2720  1.3121 -0.0496
   77SOPE  H17S 6882   2.064   3.261   4.052  0.5530  0.6932  1.8327
   77SOPE  C218 6883   2.191   3.145   3.926 -0.6541  0.2373  0.0591
   77SOPE  H18R 6884   2.102   3.112   3.869  0.0547 -0.0512 -0.9055
   77SOPE  H18S 6885   2.263   3.060   3.918 -0.2695  0.5788 -0.1464
   77SOPE  H18T 6886   2.239   3.227   3.869  1.4248 -0.7704  0.2668
   77SOPE   C33 6887   2.312   3.519   5.684  0.2374  0.2599  0.2025
   77SOPE   H3X 6888   2.379   3.433   5.701 -2.4864 -1.3824  4.5668
   77SOPE   H3Y 6889   2.316   3.587   5.772  1.5702  0.7622 -0.2335
   77SOPE   C34 6890   2.357   3.596   5.556 -0.1073 -0.8390  0.1753
   77SOPE   H4X 6891   2.453   3.644   5.583 -0.0950 -1.2420  0.8645
   77SOPE   H4Y 6892   2.283   3.675   5.532  1.6620  0.2839 -1.9812
   77SOPE   C35 6893   2.363   3.522   5.426  0.1909  0.2395 -0.0588
   77SOPE   H5X 6894   2.265   3.472   5.412 -0.0216  0.5955  0.1469
   77SOPE   H5Y 6895   2.430   3.434   5.439  1.1659  0.8059 -1.0702
   77SOPE   C36 6896   2.402   3.619   5.308 -0.2589  0.3498  0.4578
   77SOPE   H6X 6897   2.512   3.621   5.324  0.3130  2.0959 -2.8007
   77SOPE   H6Y 6898   2.361   3.715   5.345 -3.1687 -1.4629  2.3198
   77SOPE   C37 6899   2.356   3.576   5.170  0.1898  0.4175  0.5442
   77SOPE   H7X 6900   2.245   3.583   5.172  0.1067 -0.5711 -0.0330
   77SOPE   H7Y 6901   2.368   3.466   5.166 -2.5944  0.0653  0.0631
   77SOPE   C38 6902   2.432   3.624   5.040 -0.8164  0.4027 -0.3910
   77SOPE   H8X 6903   2.543   3.620   5.048 -0.6699  3.6210  0.4697
   77SOPE   H8Y 6904   2.405   3.730   5.021  0.4714  0.5584 -1.4335
   77SOPE   C39 6905   2.406   3.532   4.911 -0.2443  0.9307  1.2854
   77SOPE   H9X 6906   2.447   3.431   4.932  0.0824  1.0906  1.4127
   77SOPE   H9Y 6907   2.470   3.578   4.834  3.1974 -2.0099  2.1177
   77SOPE  C310 6908   2.256   3.526   4.868 -0.1873 -1.1536 -0.6748
   77SOPE  H10X 6909   2.215   3.627   4.887  2.0815 -0.0658 -1.2522
   77SOPE  H10Y 6910   2.204   3.451   4.932 -1.1490  1.3483  1.6511
   77SOPE  C311 6911   2.234   3.492   4.733  0.0789 -0.1307 -0.8162
   77SOPE  H11X 6912   2.257   3.385   4.714  0.7334  0.0286 -0.9343
   77SOPE  H11Y 6913   2.298   3.549   4.663  0.1724 -1.0663 -1.5106
   77SOPE  C312 6914   2.087   3.503   4.691 -0.0034  1.1267 -0.5129
   77SOPE  H12X 6915   2.029   3.453   4.770  0.3238  1.0757 -0.3038
   77SOPE  H12Y 6916   2.072   3.445   4.597  0.9795  1.6552 -1.0222
   77SOPE  C313 6917   2.028   3.639   4.653 -0.4149 -0.5234 -0.5875
   77SOPE  H13X 6918   2.077   3.694   4.570 -0.3619 -1.0519 -0.9150
   77SOPE  H13Y 6919   2.035   3.712   4.736  1.4573 -1.9530  0.6023
   77SOPE  C314 6920   1.875   3.613   4.635 -0.3335 -0.5504  0.1384
   77SOPE  H14X 6921   1.846   3.556   4.727 -1.2324 -0.8426 -0.3140
   77SOPE  H14Y 6922   1.849   3.558   4.542  0.8631 -0.3390 -0.3337
   77SOPE  C315 6923   1.806   3.748   4.618  0.6655 -0.2068  0.1516
   77SOPE  H15X 6924   1.853   3.814   4.694  0.5296  0.4976 -0.3706
   77SOPE  H15Y 6925   1.699   3.748   4.644 -0.4152 -0.3076 -3.6405
   77SOPE  C316 6926   1.816   3.816   4.478 -0.1974  0.2838 -0.0560
   77SOPE  H16X 6927   1.905   3.782   4.422  1.4058  2.3549  1.0837
   77SOPE  H16Y 6928   1.813   3.925   4.502 -3.1109  0.3305 -0.2258
   77SOPE  C317 6929   1.707   3.777   4.372 -0.6007  0.3005  0.0901
   77SOPE  H17X 6930   1.615   3.793   4.432  0.7081  2.7216  1.6532
   77SOPE  H17Y 6931   1.710   3.668   4.349 -1.4663 -0.5597  3.4051
   77SOPE  C318 6932   1.718   3.866   4.245  0.3509  0.2768 -1.1388
   77SOPE  H18X 6933   1.645   3.823   4.173 -1.1651 -0.1033  0.5377
   77SOPE  H18Y 6934   1.822   3.871   4.207  0.4783  0.4546 -0.7808
   77SOPE  H18Z 6935   1.684   3.969   4.270  1.4954  0.3649  0.1340
   78SOPE     N 6936   0.587   2.550   6.115 -0.0381  0.4803 -0.5696
   78SOPE   HN1 6937   0.634   2.526   6.026  0.2150  3.1491 -1.2456
   78SOPE   HN2 6938   0.490   2.561   6.078 -0.2476 -1.1633 -0.5762
   78SOPE   HN3 6939   0.625   2.640   6.152  2.0526 -0.6576  0.1962
   78SOPE   C12 6940   0.596   2.447   6.224  0.2221 -0.4491 -0.0938
   78SOPE  H12A 6941   0.525   2.474   6.305  1.7718  1.4280  0.7444
   78SOPE  H12B 6942   0.702   2.458   6.258  0.2712  2.0332 -0.8588
   78SOPE   C11 6943   0.565   2.299   6.180 -0.6545 -0.0603 -0.6140
   78SOPE  H11A 6944   0.576   2.242   6.275  1.7333 -0.5213 -1.0833
   78SOPE  H11B 6945   0.646   2.271   6.108  0.0167  1.1389 -0.3593
   78SOPE     P 6946   0.341   2.180   6.170  0.1292 -0.0379 -0.5811
   78SOPE   O13 6947   0.218   2.182   6.089  0.3530 -0.2784  0.1933
   78SOPE   O14 6948   0.313   2.199   6.311  0.5739 -0.7767  0.4524
   78SOPE   O12 6949   0.434   2.297   6.120 -0.2592 -0.0468 -0.2358
   78SOPE   O11 6950   0.419   2.047   6.151 -0.1187 -0.1722  0.1163
   78SOPE    C1 6951   0.376   1.952   6.048 -0.4833 -0.2267 -0.6593
   78SOPE    HA 6952   0.266   1.958   6.029 -0.5633  3.2511  0.2794
   78SOPE    HB 6953   0.417   1.850   6.065  1.3284  0.1233 -2.5472
   78SOPE    C2 6954   0.434   1.985   5.903  0.8616 -0.3446  0.4870
   78SOPE    HS 6955   0.416   2.090   5.872  0.3534 -0.4206  0.5182
   78SOPE   O21 6956   0.385   1.884   5.806  0.0327 -0.1299  0.3027
   78SOPE   C21 6957   0.387   1.934   5.679  0.1856 -0.5026  0.4825
   78SOPE   O22 6958   0.416   2.050   5.651  0.4116  0.2507  0.1693
   78SOPE   C22 6959   0.347   1.827   5.580 -0.0829  0.4569 -0.0190
   78SOPE   H2R 6960   0.283   1.755   5.635 -0.0539 -0.3272 -0.9904
   78SOPE   H2S 6961   0.443   1.776   5.557  0.6726  1.7849  0.0746
   78SOPE    C3 6962   0.590   1.977   5.920 -0.0709 -0.2791 -0.5342
   78SOPE    HX 6963   0.619   1.879   5.962 -4.8832 -1.4161  0.6408
   78SOPE    HY 6964   0.617   2.048   6.001  0.4911 -1.3508  0.2339
   78SOPE   O31 6965   0.665   1.991   5.794  0.0094 -0.2458 -0.1655
   78SOPE   C31 6966   0.676   2.117   5.762 -0.7082  0.6313  0.1023
   78SOPE   O32 6967   0.652   2.213   5.832 -0.3343  0.3404  0.2151
   78SOPE   C32 6968   0.737   2.119   5.621  0.3376 -0.6257 -0.6333
   78SOPE   H2X 6969   0.657   2.107   5.545  0.5172 -0.9515 -0.7737
   78SOPE   H2Y 6970   0.810   2.041   5.591  1.0620 -0.1539 -0.1362
   78SOPE   C23 6971   0.271   1.876   5.455  0.3841  0.0074  1.0173
   78SOPE   H3R 6972   0.194   1.950   5.485 -1.7326 -0.1767 -3.1721
   78SOPE   H3S 6973   0.210   1.792   5.415  1.0995 -0.9050  1.8064
   78SOPE   C24 6974   0.352   1.935   5.336 -0.4024 -0.3570 -0.0315
   78SOPE   H4R 6975   0.283   1.915   5.251 -1.3962 -1.7010  1.0455
   78SOPE   H4S 6976   0.353   2.043   5.358 -0.0212 -0.9604  3.4917
   78SOPE   C25 6977   0.491   1.877   5.324 -0.2191 -0.2454 -0.2612
   78SOPE   H5R 6978   0.546   1.883   5.420 -0.5190 -2.0279  0.0428
   78SOPE   H5S 6979   0.489   1.768   5.308  2.2314 -0.3621 -0.0741
   78SOPE   C26 6980   0.560   1.931   5.202 -0.2199 -0.0650 -0.0554
   78SOPE   H6R 6981   0.510   1.887   5.113  1.4691 -0.8029 -0.6672
   78SOPE   H6S 6982   0.547   2.042   5.195  0.3666 -0.0145 -0.3982
   78SOPE   C27 6983   0.707   1.903   5.180 -0.2167  0.2839  0.1173
   78SOPE   H7R 6984   0.718   1.793   5.189  0.4608  0.5198  3.3434
   78SOPE   H7S 6985   0.738   1.940   5.080 -0.2334  3.3880  1.1665
   78SOPE   C28 6986   0.797   1.962   5.292  0.5378 -0.3244 -0.1201
   78SOPE   H8R 6987   0.787   2.072   5.305 -0.9746 -0.7260  3.2465
   78SOPE   H8S 6988   0.761   1.920   5.388 -2.1060 -0.3552 -1.0247
   78SOPE   C29 6989   0.942   1.912   5.275 -1.2408 -0.1419 -0.3668
   78SOPE   H91 6990   0.967   1.804   5.274 -1.4333 -0.1955  0.2881
   78SOPE  C210 6991   1.045   1.989   5.219 -0.2235 -0.1748  0.2620
   78SOPE  H101 6992   1.142   1.939   5.216 -1.1314 -2.0894  0.9905
   78SOPE  C211 6993   1.026   2.132   5.169 -0.0014 -0.7003 -0.0329
   78SOPE  H11R 6994   1.114   2.190   5.204  0.0532 -1.0511  0.4252
   78SOPE  H11S 6995   0.950   2.190   5.225  0.5340  1.6160 -1.5624
   78SOPE  C212 6996   1.006   2.149   5.017 -0.5899 -0.4969 -0.1790
   78SOPE  H12R 6997   0.910   2.096   4.997 -0.2184 -2.0364  1.8066
   78SOPE  H12S 6998   1.087   2.103   4.958 -2.2276 -2.5318 -0.9553
   78SOPE  C213 6999   0.995   2.295   4.966  0.1362 -0.0320  0.1461
   78SOPE  H13R 7000   1.056   2.354   5.038  4.5149 -2.3646 -1.2641
   78SOPE  H13S 7001   0.891   2.332   4.975 -0.3836 -1.3465 -0.0900
   78SOPE  C214 7002   1.055   2.316   4.823 -0.1112 -0.3064 -0.3639
   78SOPE  H14R 7003   1.166   2.314   4.835  0.0530  1.1602 -1.4374
   78SOPE  H14S 7004   1.029   2.421   4.801  1.2292 -0.1161 -1.1176
   78SOPE  C215 7005   1.001   2.216   4.722 -0.2400  0.4181  0.4195
   78SOPE  H15R 7006   0.998   2.111   4.758 -0.0098  0.7114  1.3289
   78SOPE  H15S 7007   1.076   2.215   4.640 -1.1601  1.1929 -0.4586
   78SOPE  C216 7008   0.862   2.245   4.659  0.4234 -0.4006 -0.1141
   78SOPE  H16R 7009   0.831   2.347   4.630 -2.8625 -1.3850 -0.4570
   78SOPE  H16S 7010   0.792   2.216   4.740  1.3189 -0.5593  0.6173
   78SOPE  C217 7011   0.827   2.158   4.530 -0.1656 -0.1127  0.0770
   78SOPE  H17R 7012   0.723   2.177   4.496 -0.3145  0.6308  0.8973
   78SOPE  H17S 7013   0.834   2.057   4.575  0.3413  1.4095  3.8645
   78SOPE  C218 7014   0.914   2.178   4.408 -0.1225  0.0050 -0.3186
   78SOPE  H18R 7015   1.018   2.168   4.445 -0.8556 -0.4945  1.7739
   78SOPE  H18S 7016   0.899   2.279   4.364 -0.3849  0.2554  0.3331
   78SOPE  H18T 7017   0.904   2.102   4.328 -0.5537  1.5973 -1.8360
   78SOPE   C33 7018   0.819   2.249   5.602  0.5390  0.2732  0.2583
   78SOPE   H3X 7019   0.761   2.338   5.635  1.4385  0.6865  0.7628
   78SOPE   H3Y 7020   0.833   2.259   5.492 -3.1027  0.8073 -0.2721
   78SOPE   C34 7021   0.953   2.251   5.670  0.4246  0.1068 -0.3725
   78SOPE   H4X 7022   0.948   2.193   5.764 -0.7464  2.0132  0.7891
   78SOPE   H4Y 7023   0.974   2.357   5.695 -1.6717  0.7018 -0.9348
   78SOPE   C35 7024   1.072   2.206   5.584  0.0015  0.6172  0.0888
   78SOPE   H5X 7025   1.080   2.290   5.511 -1.0627  0.0814 -0.6738
   78SOPE   H5Y 7026   1.051   2.120   5.517  2.5540 -0.4385  0.5158
   78SOPE   C36 7027   1.207   2.171   5.660  0.0263 -0.5699 -0.6804
   78SOPE   H6X 7028   1.189   2.094   5.738 -1.7259  0.2842 -0.1979
   78SOPE   H6Y 7029   1.236   2.266   5.710  2.3657 -2.4126  1.7582
   78SOPE   C37 7030   1.308   2.100   5.568 -0.1576 -0.5265  0.4277
   78SOPE   H7X 7031   1.264   2.009   5.523  2.3930 -0.5873 -2.2409
   78SOPE   H7Y 7032   1.400   2.081   5.627 -0.4596  0.6605  1.3330
   78SOPE   C38 7033   1.359   2.181   5.449  0.1978  0.2060 -0.1940
   78SOPE   H8X 7034   1.415   2.267   5.490  0.7347 -0.1446 -0.1651
   78SOPE   H8Y 7035   1.283   2.232   5.387  1.3167 -0.0934 -1.8900
   78SOPE   C39 7036   1.464   2.088   5.359  0.1594 -0.1235  1.0254
   78SOPE   H9X 7037   1.399   2.010   5.314  0.0983  0.2047  0.5318
   78SOPE   H9Y 7038   1.533   2.031   5.425  0.0161 -0.3167  1.0114
   78SOPE  C310 7039   1.541   2.168   5.250  0.0360  0.1650 -0.5984
   78SOPE  H10X 7040   1.584   2.268   5.275  0.4971 -0.1859  0.0292
   78SOPE  H10Y 7041   1.467   2.190   5.170 -2.4741 -0.4913  1.4403
   78SOPE  C311 7042   1.645   2.076   5.182 -0.1429 -0.6104 -0.1687
   78SOPE  H11X 7043   1.599   1.976   5.168  0.4961 -1.2681  1.9567
   78SOPE  H11Y 7044   1.734   2.059   5.247  1.0470 -0.0845 -1.6057
   78SOPE  C312 7045   1.701   2.116   5.044 -0.4831  0.1903 -0.3169
   78SOPE  H12X 7046   1.633   2.098   4.959 -0.7423  1.8890 -0.5065
   78SOPE  H12Y 7047   1.773   2.032   5.029 -0.8990 -0.1574 -0.4057
   78SOPE  C313 7048   1.772   2.252   5.039 -0.1565 -0.1768 -0.0528
   78SOPE  H13X 7049   1.840   2.257   5.126 -0.7890  1.2717  0.3891
   78SOPE  H13Y 7050   1.712   2.343   5.060  0.8437  0.1076  1.7862
   78SOPE  C314 7051   1.853   2.272   4.903 -0.3063  0.0540 -0.7649
   78SOPE  H14X 7052   1.886   2.378   4.897  2.0498 -0.4389  1.4042
   78SOPE  H14Y 7053   1.789   2.254   4.814 -2.8182 -0.2498  0.9916
   78SOPE  C315 7054   1.979   2.181   4.894  0.1586 -0.4386 -0.0327
   78SOPE  H15X 7055   1.949   2.075   4.879  2.2594 -0.9384 -1.0621
   78SOPE  H15Y 7056   2.038   2.182   4.988  3.3793  1.7530 -1.8689
   78SOPE  C316 7057   2.066   2.224   4.773  0.1381  0.1040 -0.5193
   78SOPE  H16X 7058   2.161   2.167   4.765  0.5006  1.0047 -3.8308
   78SOPE  H16Y 7059   2.098   2.326   4.802 -0.3510  0.2628 -0.5367
   78SOPE  C317 7060   2.006   2.218   4.639 -0.1826 -0.3933 -0.2529
   78SOPE  H17X 7061   1.904   2.261   4.632  0.5882  1.3980 -0.9312
   78SOPE  H17Y 7062   2.002   2.111   4.609 -0.2557 -1.1766  2.3073
   78SOPE  C318 7063   2.080   2.306   4.533 -0.4570 -0.3068  0.0476
   78SOPE  H18X 7064   2.059   2.410   4.564  1.3386  0.3937 -0.9645
   78SOPE  H18Y 7065   2.027   2.293   4.436 -1.0184  0.4683  0.2372
   78SOPE  H18Z 7066   2.188   2.281   4.536 -0.2991  0.3893  2.4526
   79SOPE     N 7067   5.138   1.624   6.562 -0.0877 -0.2001 -0.4995
   79SOPE   HN1 7068   5.103   1.551   6.628 -0.4080  2.7138  2.8109
   79SOPE   HN2 7069   5.237   1.601   6.540  0.0745 -1.2073  1.1223
   79SOPE   HN3 7070   5.142   1.709   6.621 -1.6172  0.0633 -0.7413
   79SOPE   C12 7071   5.053   1.642   6.438 -0.1482 -0.3692 -0.4804
   79SOPE  H12A 7072   5.133   1.664   6.364  1.7993  1.1013  1.9217
   79SOPE  H12B 7073   4.993   1.735   6.445 -1.7143 -1.4853  2.2930
   79SOPE   C11 7074   4.965   1.521   6.415 -0.7444  0.3507  0.0017
   79SOPE  H11A 7075   5.028   1.445   6.365  2.1831  2.6737 -0.1252
   79SOPE  H11B 7076   4.886   1.541   6.340 -1.2273 -2.0099 -0.2001
   79SOPE     P 7077   4.766   1.498   6.585  0.2326  0.2938  0.3617
   79SOPE   O13 7078   4.771   1.543   6.727  0.2727  0.6563 -1.0128
   79SOPE   O14 7079   4.671   1.386   6.556  0.9065 -0.1808 -0.5791
   79SOPE   O12 7080   4.911   1.464   6.536 -0.3673 -0.3258  1.0612
   79SOPE   O11 7081   4.737   1.619   6.491  0.8541  0.2170  0.4166
   79SOPE    C1 7082   4.603   1.643   6.437  0.1816  0.2010  0.3425
   79SOPE    HA 7083   4.599   1.754   6.426  1.6970  0.2242 -0.2070
   79SOPE    HB 7084   4.526   1.611   6.510  0.2333 -0.3173  0.1738
   79SOPE    C2 7085   4.585   1.570   6.303 -0.0352 -0.3793  0.7795
   79SOPE    HS 7086   4.595   1.461   6.325 -1.9074 -1.2601 -2.1302
   79SOPE   O21 7087   4.683   1.618   6.206 -0.1612 -0.5160  0.2508
   79SOPE   C21 7088   4.737   1.516   6.123  0.3460 -0.3242  0.6932
   79SOPE   O22 7089   4.698   1.405   6.125 -0.3829  0.4254  0.0779
   79SOPE   C22 7090   4.839   1.581   6.035 -0.3715 -0.7392 -0.8576
   79SOPE   H2R 7091   4.921   1.608   6.105 -1.0116  0.4703 -0.5548
   79SOPE   H2S 7092   4.794   1.673   5.992  2.8535  1.0000 -0.8049
   79SOPE    C3 7093   4.444   1.591   6.249  0.7225  0.5634  0.3402
   79SOPE    HX 7094   4.449   1.700   6.229  1.0859  0.1985 -1.7826
   79SOPE    HY 7095   4.358   1.579   6.318 -0.0467  0.7848 -0.5572
   79SOPE   O31 7096   4.421   1.509   6.132 -0.8300  0.3227  0.5603
   79SOPE   C31 7097   4.386   1.382   6.144 -0.2662 -0.1482 -0.6360
   79SOPE   O32 7098   4.372   1.326   6.252  0.6549  0.1980 -0.1623
   79SOPE   C32 7099   4.369   1.319   6.007  0.1392  0.1829 -0.1425
   79SOPE   H2X 7100   4.340   1.403   5.941  0.5315  1.5375  1.3474
   79SOPE   H2Y 7101   4.285   1.247   6.017  1.3888 -1.1356  1.3860
   79SOPE   C23 7102   4.871   1.495   5.915 -0.0223 -0.2325 -0.6403
   79SOPE   H3R 7103   4.779   1.451   5.870 -1.0854  0.5229  0.6918
   79SOPE   H3S 7104   4.926   1.406   5.952 -1.0921 -0.5990  0.1186
   79SOPE   C24 7105   4.954   1.570   5.816 -0.2574 -0.3685 -0.0399
   79SOPE   H4R 7106   4.907   1.669   5.802 -1.9981 -1.1290  0.2356
   79SOPE   H4S 7107   5.055   1.591   5.858 -0.6841  1.9404 -0.0375
   79SOPE   C25 7108   4.972   1.495   5.687 -0.0634 -0.0912 -0.4281
   79SOPE   H5R 7109   5.046   1.548   5.625 -0.2414  1.2595  0.4722
   79SOPE   H5S 7110   5.008   1.394   5.715 -1.3628 -0.5205 -0.2322
   79SOPE   C26 7111   4.837   1.473   5.616 -0.0256  0.2982 -1.0304
   79SOPE   H6R 7112   4.844   1.362   5.608  2.1413  0.4431 -2.2127
   79SOPE   H6S 7113   4.752   1.506   5.679 -0.0241 -0.7215 -0.4629
   79SOPE   C27 7114   4.822   1.519   5.474  0.2772  0.0763 -0.4036
   79SOPE   H7R 7115   4.713   1.513   5.450  0.8766 -1.3301 -3.2357
   79SOPE   H7S 7116   4.848   1.627   5.473 -1.0983  0.4517  1.1207
   79SOPE   C28 7117   4.906   1.450   5.366 -0.0298 -1.1931 -0.1994
   79SOPE   H8R 7118   4.930   1.517   5.281 -1.9314 -0.9911 -0.6208
   79SOPE   H8S 7119   5.002   1.431   5.418 -0.8617 -3.0668  0.7773
   79SOPE   C29 7120   4.859   1.316   5.317  0.4606  0.0585  0.6151
   79SOPE   H91 7121   4.883   1.236   5.389  2.7075 -0.9147 -1.1171
   79SOPE  C210 7122   4.806   1.285   5.198 -0.6117 -0.0815  0.0475
   79SOPE  H101 7123   4.758   1.190   5.172 -0.6258  0.0687 -0.4796
   79SOPE  C211 7124   4.781   1.383   5.089  0.6943 -0.0228  0.3125
   79SOPE  H11R 7125   4.776   1.325   4.995 -0.0395  1.4707 -0.6129
   79SOPE  H11S 7126   4.870   1.449   5.085  1.0105 -0.4275  0.5428
   79SOPE  C212 7127   4.653   1.463   5.113  0.4477 -0.1018  0.4774
   79SOPE  H12R 7128   4.651   1.497   5.219 -1.2185 -0.6040  0.6302
   79SOPE  H12S 7129   4.565   1.401   5.090  1.4425 -1.2798 -0.2826
   79SOPE  C213 7130   4.653   1.592   5.025  0.3717  0.4522  0.4377
   79SOPE  H13R 7131   4.737   1.657   5.059 -1.6517  2.4716  1.8069
   79SOPE  H13S 7132   4.559   1.635   5.064  1.0158  1.7632  0.6318
   79SOPE  C214 7133   4.660   1.572   4.871  0.2988  0.6301  0.4883
   79SOPE  H14R 7134   4.594   1.492   4.832  0.2160  0.6972  0.4912
   79SOPE  H14S 7135   4.763   1.554   4.834 -0.4467 -0.8365 -0.9871
   79SOPE  C215 7136   4.609   1.689   4.780 -0.2612 -0.1425  0.5846
   79SOPE  H15R 7137   4.686   1.769   4.775  0.2864 -0.5602  1.8933
   79SOPE  H15S 7138   4.514   1.734   4.817 -0.2875 -0.2495  0.6468
   79SOPE  C216 7139   4.587   1.645   4.635 -0.1630 -0.3761  0.0944
   79SOPE  H16R 7140   4.497   1.582   4.624 -1.5401  0.4115  4.7771
   79SOPE  H16S 7141   4.673   1.590   4.592 -1.3740  0.3282 -3.5594
   79SOPE  C217 7142   4.557   1.766   4.544  0.0595 -0.2446 -0.0940
   79SOPE  H17R 7143   4.646   1.833   4.551 -0.1715 -0.0982  2.2027
   79SOPE  H17S 7144   4.471   1.825   4.582 -0.0614 -0.8317  0.5426
   79SOPE  C218 7145   4.525   1.729   4.402  0.4428  0.0390 -0.3025
   79SOPE  H18R 7146   4.428   1.675   4.400 -1.3329  2.9540  0.8251
   79SOPE  H18S 7147   4.596   1.660   4.353  0.0146 -0.5553 -0.0965
   79SOPE  H18T 7148   4.499   1.825   4.351 -3.7331  0.1907  1.6773
   79SOPE   C33 7149   4.496   1.245   5.954  0.4778 -0.0903  0.8694
   79SOPE   H3X 7150   4.556   1.204   6.039  0.4750 -2.7989 -0.3466
   79SOPE   H3Y 7151   4.562   1.316   5.900 -1.0037  0.0377 -0.8518
   79SOPE   C34 7152   4.456   1.128   5.872  0.1219 -0.0701  0.4347
   79SOPE   H4X 7153   4.372   1.072   5.917  0.6795 -0.9674  0.3904
   79SOPE   H4Y 7154   4.534   1.053   5.845  3.1810  3.3415 -1.0563
   79SOPE   C35 7155   4.403   1.173   5.731 -0.0811 -0.0566  0.1300
   79SOPE   H5X 7156   4.479   1.228   5.671 -2.2462  3.0358 -0.0206
   79SOPE   H5Y 7157   4.328   1.252   5.754 -1.3111 -0.8061 -1.1754
   79SOPE   C36 7158   4.339   1.071   5.644 -0.1028  0.6151 -0.2499
   79SOPE   H6X 7159   4.263   1.018   5.705  0.1847 -1.4696 -1.6123
   79SOPE   H6Y 7160   4.418   0.999   5.613 -0.7984 -0.9951  1.4908
   79SOPE   C37 7161   4.273   1.123   5.519 -0.0424 -0.0272 -0.4103
   79SOPE   H7X 7162   4.269   1.233   5.535  2.7760 -0.0269  0.9740
   79SOPE   H7Y 7163   4.171   1.081   5.505  0.0861 -0.4772 -0.0010
   79SOPE   C38 7164   4.351   1.100   5.394 -0.4089  0.3808 -1.0534
   79SOPE   H8X 7165   4.347   0.993   5.365 -0.8521  0.7054 -2.3012
   79SOPE   H8Y 7166   4.456   1.120   5.423 -1.6485  1.8618  3.0254
   79SOPE   C39 7167   4.308   1.196   5.278  0.0551  0.5608 -0.1534
   79SOPE   H9X 7168   4.353   1.296   5.295  2.9669 -0.5600 -0.5939
   79SOPE   H9Y 7169   4.197   1.193   5.273  0.0945 -0.0896 -0.8078
   79SOPE  C310 7170   4.367   1.150   5.148  0.1069  0.3106 -0.1490
   79SOPE  H10X 7171   4.345   1.041   5.146 -1.4819  0.6102 -0.0238
   79SOPE  H10Y 7172   4.477   1.158   5.162  0.1884  1.5916 -1.3481
   79SOPE  C311 7173   4.313   1.220   5.029  1.4593  0.0154 -0.0161
   79SOPE  H11X 7174   4.336   1.327   5.046  1.5952  0.3261 -1.9644
   79SOPE  H11Y 7175   4.203   1.202   5.036  1.4874 -0.3034 -0.3465
   79SOPE  C312 7176   4.362   1.182   4.890  0.8223  0.5181 -0.1401
   79SOPE  H12X 7177   4.311   1.255   4.824  0.3601 -0.5504 -1.0108
   79SOPE  H12Y 7178   4.330   1.075   4.888  1.3592  0.3544 -0.1593
   79SOPE  C313 7179   4.513   1.185   4.870  0.1032  1.0828 -0.4028
   79SOPE  H13X 7180   4.560   1.108   4.934 -0.7816 -0.8452 -1.9710
   79SOPE  H13Y 7181   4.552   1.287   4.889  1.2084  0.9247 -1.6569
   79SOPE  C314 7182   4.538   1.138   4.725 -0.3824  0.0805 -0.0518
   79SOPE  H14X 7183   4.475   1.213   4.672 -1.5448 -0.2024  0.8782
   79SOPE  H14Y 7184   4.497   1.041   4.690  0.2860  0.4111 -1.8639
   79SOPE  C315 7185   4.686   1.144   4.680  0.6967  0.7961  0.0237
   79SOPE  H15X 7186   4.742   1.075   4.746  0.7605 -0.2286 -1.0797
   79SOPE  H15Y 7187   4.723   1.247   4.699 -0.8614  0.8616  3.3017
   79SOPE  C316 7188   4.700   1.104   4.529 -0.1284  0.1828 -0.0177
   79SOPE  H16X 7189   4.622   1.156   4.470  1.0821  0.9510 -0.9975
   79SOPE  H16Y 7190   4.685   0.994   4.518  1.2246  0.1578 -2.3515
   79SOPE  C317 7191   4.836   1.141   4.467 -0.1173  0.1504  0.4303
   79SOPE  H17X 7192   4.918   1.083   4.516 -0.4294  0.0875  0.8849
   79SOPE  H17Y 7193   4.856   1.247   4.494 -3.7891  0.6425  1.7930
   79SOPE  C318 7194   4.851   1.121   4.314  0.0055 -0.2275  0.5022
   79SOPE  H18X 7195   4.844   1.224   4.274 -0.4932  0.2382  1.7213
   79SOPE  H18Y 7196   4.774   1.049   4.279 -1.6936  1.3488  0.8009
   79SOPE  H18Z 7197   4.951   1.072   4.311  0.2411  0.2772 -0.3174
   80SOPE     N 7198   0.074   1.833   6.665  0.0586 -0.0078  0.5338
   80SOPE   HN1 7199   0.019   1.909   6.709  0.4071 -0.4678  1.7878
   80SOPE   HN2 7200   0.013   1.757   6.627  1.2626  0.7311 -3.4036
   80SOPE   HN3 7201   0.124   1.806   6.752 -2.7878  2.2172  3.0951
   80SOPE   C12 7202   0.158   1.880   6.552  0.3990  0.2342  0.0230
   80SOPE  H12A 7203   0.227   1.797   6.527  1.1676  1.2033 -1.2535
   80SOPE  H12B 7204   0.217   1.964   6.595 -1.3067  2.1527 -1.1939
   80SOPE   C11 7205   0.090   1.951   6.434  0.5171  0.3773 -0.0846
   80SOPE  H11A 7206   0.156   1.931   6.346  0.0544  0.1753 -0.3923
   80SOPE  H11B 7207   0.096   2.060   6.452 -2.3154  0.3812  1.5186
   80SOPE     P 7208  -0.146   1.999   6.335  0.2817 -0.6737 -0.1346
   80SOPE   O13 7209  -0.113   2.143   6.343  0.1550  0.5150 -0.2066
   80SOPE   O14 7210  -0.288   1.970   6.367  0.2589  0.1717  0.1164
   80SOPE   O12 7211  -0.045   1.905   6.412  0.2014  0.3350  0.1182
   80SOPE   O11 7212  -0.116   1.968   6.181 -0.2342  0.1746  0.4103
   80SOPE    C1 7213  -0.012   1.881   6.135  0.1850  0.1674 -0.0531
   80SOPE    HA 7214  -0.014   1.787   6.194  0.4201 -0.3344 -0.8216
   80SOPE    HB 7215   0.088   1.925   6.153  0.1092  0.2647  0.1309
   80SOPE    C2 7216  -0.024   1.867   5.984 -0.1370 -0.7017 -0.7901
   80SOPE    HS 7217   0.056   1.795   5.958 -0.9857 -1.9141 -0.1459
   80SOPE   O21 7218  -0.001   2.000   5.929 -0.0792 -0.5015  0.4112
   80SOPE   C21 7219   0.026   2.008   5.803 -0.1704 -0.2439 -0.0412
   80SOPE   O22 7220   0.045   1.908   5.729 -0.5891 -0.3288 -0.0678
   80SOPE   C22 7221   0.047   2.155   5.767 -0.1512 -0.1948 -0.2256
   80SOPE   H2R 7222   0.115   2.203   5.841 -0.8169  1.4039 -0.6165
   80SOPE   H2S 7223  -0.055   2.198   5.771 -0.6091 -1.0419 -1.8606
   80SOPE    C3 7224  -0.165   1.801   5.951 -0.0889 -0.1698 -0.2386
   80SOPE    HX 7225  -0.242   1.872   5.989  0.1467 -0.6716  1.2392
   80SOPE    HY 7226  -0.180   1.712   6.015  0.2228  0.5960  0.9211
   80SOPE   O31 7227  -0.197   1.778   5.817  0.9460 -0.0008 -0.0547
   80SOPE   C31 7228  -0.130   1.671   5.765  0.0834 -0.2769  0.1256
   80SOPE   O32 7229  -0.050   1.598   5.829 -0.5289 -0.1806  0.0266
   80SOPE   C32 7230  -0.176   1.648   5.617  0.0461  0.0045 -1.2354
   80SOPE   H2X 7231  -0.201   1.747   5.573 -3.4399 -0.7749 -1.2833
   80SOPE   H2Y 7232  -0.266   1.584   5.625  0.3449 -0.2351  0.9913
   80SOPE   C23 7233   0.106   2.194   5.632  0.2122  0.4376  1.0062
   80SOPE   H3R 7234   0.061   2.123   5.560 -2.4531 -1.3383  4.1577
   80SOPE   H3S 7235   0.216   2.190   5.645  0.4941  1.2781 -0.8017
   80SOPE   C24 7236   0.064   2.339   5.587  0.7034  1.2875  0.2616
   80SOPE   H4R 7237  -0.047   2.342   5.579  0.6673 -0.1788 -0.1369
   80SOPE   H4S 7238   0.107   2.410   5.660  2.2385 -0.1790  0.8548
   80SOPE   C25 7239   0.115   2.376   5.448  0.3155  1.3281  0.2131
   80SOPE   H5R 7240   0.081   2.479   5.424  0.9817  1.2407 -1.2437
   80SOPE   H5S 7241   0.223   2.359   5.427  0.5122  2.4033  0.2700
   80SOPE   C26 7242   0.045   2.293   5.339  0.1118  0.7767 -0.5755
   80SOPE   H6R 7243   0.064   2.183   5.344 -0.8845  0.6534  1.3119
   80SOPE   H6S 7244  -0.065   2.310   5.348 -0.2821 -1.3382 -0.8823
   80SOPE   C27 7245   0.093   2.342   5.198  0.1935  0.4049 -0.4610
   80SOPE   H7R 7246   0.064   2.449   5.199  2.2904  1.0328  0.0119
   80SOPE   H7S 7247   0.204   2.340   5.184  0.1841  0.7265 -0.5822
   80SOPE   C28 7248   0.013   2.260   5.085  0.4355 -0.3294 -0.3866
   80SOPE   H8R 7249  -0.004   2.154   5.115  2.6824 -0.4618  0.6074
   80SOPE   H8S 7250  -0.085   2.312   5.073  0.0086 -0.8812  0.5999
   80SOPE   C29 7251   0.100   2.255   4.962  0.2752 -0.4963 -0.1555
   80SOPE   H91 7252   0.112   2.352   4.910 -1.5898  1.2954  2.4762
   80SOPE  C210 7253   0.153   2.148   4.904 -0.5035 -0.1069  0.4000
   80SOPE  H101 7254   0.222   2.166   4.821 -0.7149 -3.6300 -0.7217
   80SOPE  C211 7255   0.170   2.009   4.959 -0.2679  0.2763 -0.0230
   80SOPE  H11R 7256   0.091   1.939   4.925  0.7698 -0.2886 -1.3431
   80SOPE  H11S 7257   0.154   2.017   5.069  0.1103  1.5578 -0.0462
   80SOPE  C212 7258   0.319   1.954   4.945 -0.0391  0.1504  0.3761
   80SOPE  H12R 7259   0.318   1.857   5.000 -0.0103 -0.2108 -0.2476
   80SOPE  H12S 7260   0.397   2.015   4.995  0.3444 -0.5971  0.7068
   80SOPE  C213 7261   0.361   1.933   4.801 -0.1272 -0.6795  0.8222
   80SOPE  H13R 7262   0.409   2.019   4.748 -1.4112 -0.6269 -0.3026
   80SOPE  H13S 7263   0.268   1.919   4.743 -0.9985 -1.5738  2.3595
   80SOPE  C214 7264   0.448   1.814   4.774 -0.0682 -0.3025  1.1174
   80SOPE  H14R 7265   0.431   1.727   4.841  0.6039 -0.3440  1.2354
   80SOPE  H14S 7266   0.548   1.855   4.799 -0.7363  0.8112  2.0949
   80SOPE  C215 7267   0.470   1.778   4.621 -0.8544 -0.2035 -0.3846
   80SOPE  H15R 7268   0.379   1.808   4.565  0.1661 -1.2855 -2.7618
   80SOPE  H15S 7269   0.467   1.668   4.609 -0.2227 -0.5141  1.8334
   80SOPE  C216 7270   0.596   1.862   4.561 -0.8761  0.6423  0.5469
   80SOPE  H16R 7271   0.693   1.812   4.586 -1.8797 -0.9388  1.4339
   80SOPE  H16S 7272   0.594   1.966   4.601  1.5642  1.6222 -1.5536
   80SOPE  C217 7273   0.598   1.886   4.414 -0.3966 -0.0314 -0.1002
   80SOPE  H17R 7274   0.660   1.971   4.379 -2.5092  0.6767 -2.3569
   80SOPE  H17S 7275   0.493   1.913   4.387  0.1078  0.3747 -1.7426
   80SOPE  C218 7276   0.638   1.761   4.328  1.0848 -0.1749  0.3863
   80SOPE  H18R 7277   0.578   1.678   4.372 -1.6040  2.8510  2.9218
   80SOPE  H18S 7278   0.746   1.738   4.339  1.7389  2.6330  0.6984
   80SOPE  H18T 7279   0.617   1.771   4.220  0.9905 -1.8664  0.2233
   80SOPE   C33 7280  -0.061   1.588   5.531 -0.2925 -0.2617 -0.5011
   80SOPE   H3X 7281  -0.035   1.483   5.558 -1.3797 -0.1160  1.2097
   80SOPE   H3Y 7282   0.037   1.635   5.552  0.5401 -1.6903 -1.0201
   80SOPE   C34 7283  -0.088   1.600   5.384  0.3504 -0.1786 -0.1921
   80SOPE   H4X 7284  -0.104   1.710   5.385 -1.5355 -0.4146  1.4109
   80SOPE   H4Y 7285  -0.178   1.540   5.357 -0.7922  1.1760  0.5101
   80SOPE   C35 7286   0.024   1.559   5.281  0.1202 -0.3966 -0.7746
   80SOPE   H5X 7287   0.047   1.450   5.285 -0.6342 -0.5215  1.9721
   80SOPE   H5Y 7288   0.102   1.626   5.323  0.3481 -2.1505  1.7589
   80SOPE   C36 7289  -0.003   1.591   5.132 -0.0494 -0.2029 -0.2087
   80SOPE   H6X 7290  -0.088   1.659   5.110 -2.7005 -3.5003 -1.0813
   80SOPE   H6Y 7291  -0.048   1.502   5.082 -0.6053 -2.5335  3.9428
   80SOPE   C37 7292   0.112   1.637   5.047 -1.2825 -0.9325 -0.3870
   80SOPE   H7X 7293   0.200   1.572   5.068  1.3157  1.8234 -1.9721
   80SOPE   H7Y 7294   0.137   1.737   5.088 -0.3213 -1.6087  0.7508
   80SOPE   C38 7295   0.074   1.652   4.899 -0.4680  0.0579  0.5117
   80SOPE   H8X 7296   0.156   1.711   4.853 -0.6989  0.9588  1.2289
   80SOPE   H8Y 7297  -0.024   1.703   4.891  0.3064  1.5465  0.1145
   80SOPE   C39 7298   0.059   1.514   4.831  0.2165 -0.2319  0.1347
   80SOPE   H9X 7299  -0.016   1.446   4.879 -0.1298 -0.4081 -0.6425
   80SOPE   H9Y 7300   0.158   1.468   4.853 -0.5367 -1.7041  0.6687
   80SOPE  C310 7301   0.029   1.535   4.684 -0.8941 -0.1429 -0.1322
   80SOPE  H10X 7302   0.070   1.449   4.628  0.0549  0.4431 -0.3523
   80SOPE  H10Y 7303   0.091   1.617   4.643  1.0094 -1.2759  0.3462
   80SOPE  C311 7304  -0.117   1.551   4.655  0.5577 -0.6504  0.6911
   80SOPE  H11X 7305  -0.168   1.607   4.736 -2.4124  1.3883 -2.3133
   80SOPE  H11Y 7306  -0.167   1.452   4.649  0.1835 -0.3785 -1.4466
   80SOPE  C312 7307  -0.150   1.625   4.519  0.2296  0.5990  0.7314
   80SOPE  H12X 7308  -0.114   1.730   4.522  1.9065  0.0582  0.2452
   80SOPE  H12Y 7309  -0.259   1.629   4.494  0.0906  0.5895  1.3217
   80SOPE  C313 7310  -0.079   1.574   4.395  0.4669 -0.2646  0.3414
   80SOPE  H13X 7311   0.030   1.569   4.418  0.0313 -0.8553  2.4971
   80SOPE  H13Y 7312  -0.094   1.649   4.315  0.8500  0.2659  0.7566
   80SOPE  C314 7313  -0.137   1.436   4.344 -0.2817 -0.3932  0.5076
   80SOPE  H14X 7314  -0.248   1.441   4.347 -0.2178  1.2302  0.6769
   80SOPE  H14Y 7315  -0.128   1.366   4.430 -0.8863 -2.0105 -0.6961
   80SOPE  C315 7316  -0.088   1.381   4.205  0.0599 -0.4897 -0.0959
   80SOPE  H15X 7317  -0.107   1.274   4.185  1.1412 -0.6168 -0.5045
   80SOPE  H15Y 7318   0.023   1.378   4.199  0.2293 -1.3961  2.3922
   80SOPE  C316 7319  -0.151   1.457   4.080 -0.4854 -0.2542  0.1709
   80SOPE  H16X 7320  -0.116   1.561   4.096 -0.5818  0.0610 -1.4936
   80SOPE  H16Y 7321  -0.260   1.473   4.088 -0.7707 -2.0300  0.1688
   80SOPE  C317 7322  -0.100   1.396   3.945 -0.0266 -0.0597  0.6005
   80SOPE  H17X 7323  -0.149   1.297   3.955 -0.1312 -0.3533 -2.1648
   80SOPE  H17Y 7324   0.010   1.389   3.949  0.0583  1.0207  0.5380
   80SOPE  C318 7325  -0.145   1.476   3.831 -0.0542 -0.6522  0.2413
   80SOPE  H18X 7326  -0.114   1.435   3.733  1.0686  1.9523 -0.5997
   80SOPE  H18Y 7327  -0.083   1.569   3.823  0.7119 -1.1020  0.8256
   80SOPE  H18Z 7328  -0.255   1.494   3.837  0.0644 -0.3776  2.0949
   81SOPE     N 7329   3.560   6.546   6.976 -0.0585  0.0321 -0.0253
   81SOPE   HN1 7330   3.592   6.584   6.884  1.6166  0.0404  0.5280
   81SOPE   HN2 7331   3.614   6.602   7.045 -0.9935  0.5808  0.2725
   81SOPE   HN3 7332   3.573   6.444   6.992 -3.8529 -0.2878  2.1990
   81SOPE   C12 7333   3.414   6.563   6.996 -0.8295  0.0192  0.3045
   81SOPE  H12A 7334   3.378   6.658   6.951 -2.2902 -1.4401 -1.8530
   81SOPE  H12B 7335   3.395   6.553   7.105  1.4485  0.6680  0.8237
   81SOPE   C11 7336   3.330   6.472   6.909 -0.4035  0.0878  0.5780
   81SOPE  H11A 7337   3.372   6.497   6.808  3.1795  0.3223  1.9705
   81SOPE  H11B 7338   3.223   6.500   6.915 -0.4288  0.8106 -1.8682
   81SOPE     P 7339   3.427   6.235   6.860  0.2543 -0.5639  0.5845
   81SOPE   O13 7340   3.464   6.128   6.958  0.0340  0.0152 -0.3093
   81SOPE   O14 7341   3.529   6.309   6.779 -0.0559 -0.4682 -0.0715
   81SOPE   O12 7342   3.333   6.335   6.934 -0.4689 -0.0550 -0.4974
   81SOPE   O11 7343   3.334   6.159   6.754 -0.1711 -0.2035  0.3513
   81SOPE    C1 7344   3.201   6.196   6.711 -0.0731 -0.5867  0.1684
   81SOPE    HA 7345   3.161   6.291   6.754 -2.2103 -1.0293 -0.7183
   81SOPE    HB 7346   3.129   6.120   6.746  0.4847 -0.8455  0.7783
   81SOPE    C2 7347   3.205   6.210   6.555  0.1447 -0.3572 -0.1719
   81SOPE    HS 7348   3.102   6.221   6.516 -0.5676 -0.0200  1.6769
   81SOPE   O21 7349   3.269   6.101   6.492  0.1094  0.1229  0.1656
   81SOPE   C21 7350   3.215   5.981   6.510 -0.2116  0.7141 -0.0338
   81SOPE   O22 7351   3.096   5.967   6.533  0.0459 -0.4818 -0.0003
   81SOPE   C22 7352   3.323   5.872   6.492 -0.4205 -0.0328 -0.8237
   81SOPE   H2R 7353   3.277   5.797   6.561 -2.5433  2.2907  0.4260
   81SOPE   H2S 7354   3.419   5.906   6.536  1.5893 -4.0763 -1.5195
   81SOPE    C3 7355   3.277   6.332   6.504 -0.0493  0.2192 -1.0847
   81SOPE    HX 7356   3.378   6.324   6.549 -0.3007  0.1231 -0.5344
   81SOPE    HY 7357   3.232   6.425   6.543  0.0370  0.9676 -2.6905
   81SOPE   O31 7358   3.286   6.336   6.357 -0.6764  0.4062  0.0178
   81SOPE   C31 7359   3.387   6.278   6.295 -0.0359  0.4061  1.0079
   81SOPE   O32 7360   3.483   6.222   6.345  0.0808 -0.6568  0.0881
   81SOPE   C32 7361   3.359   6.303   6.145 -0.2516 -0.3590  0.1071
   81SOPE   H2X 7362   3.327   6.409   6.132  0.2898  0.0506  1.8099
   81SOPE   H2Y 7363   3.263   6.254   6.118  0.1315 -1.4314  0.6258
   81SOPE   C23 7364   3.338   5.813   6.352  0.1378  0.4918 -0.3878
   81SOPE   H3R 7365   3.241   5.803   6.299  1.2288 -1.2657 -2.1956
   81SOPE   H3S 7366   3.399   5.721   6.363 -0.2465  0.4146  1.1939
   81SOPE   C24 7367   3.405   5.918   6.263  0.0616 -0.3632  0.7586
   81SOPE   H4R 7368   3.330   5.997   6.241  2.6471  2.1335  0.2889
   81SOPE   H4S 7369   3.485   5.971   6.318 -0.8823  0.8316  1.0084
   81SOPE   C25 7370   3.447   5.856   6.129  0.0329  0.4283  0.0065
   81SOPE   H5R 7371   3.538   5.913   6.099  0.4598 -1.3770 -2.4054
   81SOPE   H5S 7372   3.490   5.756   6.151  3.3346  2.3554  3.6204
   81SOPE   C26 7373   3.339   5.852   6.016 -0.3709 -0.6257  0.0011
   81SOPE   H6R 7374   3.251   5.800   6.060 -1.0038  1.6546  1.6120
   81SOPE   H6S 7375   3.304   5.954   5.988 -0.4195 -1.0118 -1.4107
   81SOPE   C27 7376   3.392   5.778   5.893  0.0303  0.0752 -0.2471
   81SOPE   H7R 7377   3.477   5.834   5.849 -1.1764  1.9972 -0.2317
   81SOPE   H7S 7378   3.433   5.680   5.926 -0.7768 -0.0017  0.5858
   81SOPE   C28 7379   3.283   5.749   5.791 -0.0494 -0.1464  0.5529
   81SOPE   H8R 7380   3.192   5.704   5.837  0.9174 -0.8857  1.7935
   81SOPE   H8S 7381   3.246   5.848   5.755  0.1450 -0.1513  0.3358
   81SOPE   C29 7382   3.336   5.667   5.678 -0.1292  0.0358  0.0566
   81SOPE   H91 7383   3.365   5.563   5.701  1.6376  0.6156  0.6521
   81SOPE  C210 7384   3.358   5.706   5.554  0.3899 -0.0138  0.0522
   81SOPE  H101 7385   3.406   5.635   5.485 -0.3071  0.0271 -0.4846
   81SOPE  C211 7386   3.337   5.837   5.495  0.3340 -0.5372  0.4597
   81SOPE  H11R 7387   3.429   5.865   5.439 -0.1402 -0.4456 -0.2882
   81SOPE  H11S 7388   3.327   5.916   5.572 -2.0641 -0.4538  0.1264
   81SOPE  C212 7389   3.207   5.856   5.404  0.0790 -0.5647  1.2511
   81SOPE  H12R 7390   3.187   5.962   5.377 -0.4214 -1.1558 -0.8427
   81SOPE  H12S 7391   3.120   5.827   5.467 -0.8245 -2.5055 -0.7690
   81SOPE  C213 7392   3.194   5.772   5.271  0.6728  0.6582  0.2236
   81SOPE  H13R 7393   3.100   5.791   5.216  0.1495 -0.4678  0.7003
   81SOPE  H13S 7394   3.189   5.664   5.296 -3.5772  0.4682 -0.6995
   81SOPE  C214 7395   3.315   5.789   5.180  0.0318 -0.7414  0.2536
   81SOPE  H14R 7396   3.403   5.742   5.228  2.0927  2.8683  0.3759
   81SOPE  H14S 7397   3.344   5.896   5.180  1.5463 -1.1230  1.4557
   81SOPE  C215 7398   3.287   5.729   5.036  0.0638  0.1955  0.0610
   81SOPE  H15R 7399   3.189   5.770   5.006  0.7996  3.1722  1.3330
   81SOPE  H15S 7400   3.276   5.622   5.064 -0.0815  0.0995 -0.3553
   81SOPE  C216 7401   3.402   5.750   4.931  0.7323  0.6954  0.0221
   81SOPE  H16R 7402   3.505   5.743   4.974  0.1044 -1.9081  1.2751
   81SOPE  H16S 7403   3.402   5.859   4.906  1.9622  0.4794 -1.0372
   81SOPE  C217 7404   3.375   5.671   4.806  0.4053 -0.4556 -0.0342
   81SOPE  H17R 7405   3.280   5.720   4.774  0.3977 -0.6794 -0.3545
   81SOPE  H17S 7406   3.364   5.564   4.834  0.8681 -0.3798  0.4658
   81SOPE  C218 7407   3.476   5.698   4.692  0.0971  0.9651 -0.4163
   81SOPE  H18R 7408   3.566   5.639   4.719 -1.7442 -1.3564  1.0058
   81SOPE  H18S 7409   3.491   5.808   4.688 -0.7489  1.2366  2.0325
   81SOPE  H18T 7410   3.450   5.659   4.591 -1.5650 -0.8500  0.6559
   81SOPE   C33 7411   3.481   6.276   6.052  0.4634  0.1974 -0.7767
   81SOPE   H3X 7412   3.535   6.184   6.083  0.4973 -0.3333 -2.3490
   81SOPE   H3Y 7413   3.543   6.368   6.060 -0.8465  1.0994 -0.4601
   81SOPE   C34 7414   3.427   6.268   5.911  0.2256  0.1244 -0.3899
   81SOPE   H4X 7415   3.361   6.355   5.891 -1.3762 -0.9332  0.1408
   81SOPE   H4Y 7416   3.368   6.174   5.912  2.1410 -1.1993  2.2085
   81SOPE   C35 7417   3.531   6.253   5.798 -1.1103  0.3865  0.4837
   81SOPE   H5X 7418   3.593   6.164   5.820 -1.0086  0.4187  0.3276
   81SOPE   H5Y 7419   3.598   6.342   5.807 -1.2297  0.8477 -2.3674
   81SOPE   C36 7420   3.482   6.256   5.653  0.1165 -0.0636  0.3465
   81SOPE   H6X 7421   3.419   6.345   5.634 -1.2743 -1.2078 -0.6863
   81SOPE   H6Y 7422   3.406   6.175   5.647 -1.3627  1.1031  2.2151
   81SOPE   C37 7423   3.582   6.227   5.542 -0.4140  0.1832  0.5315
   81SOPE   H7X 7424   3.615   6.120   5.541 -1.3921 -0.1224  0.2524
   81SOPE   H7Y 7425   3.670   6.292   5.562 -0.0105  0.2514 -1.2493
   81SOPE   C38 7426   3.539   6.256   5.395 -0.0268 -0.3450 -0.8165
   81SOPE   H8X 7427   3.626   6.253   5.325  0.2396  2.5395 -0.7635
   81SOPE   H8Y 7428   3.502   6.361   5.403 -1.7775 -1.0734  2.1137
   81SOPE   C39 7429   3.433   6.151   5.348  0.4718 -0.0361  0.6298
   81SOPE   H9X 7430   3.354   6.145   5.426 -1.3695  0.8776 -1.0792
   81SOPE   H9Y 7431   3.479   6.053   5.322 -0.8633 -0.2695 -1.0143
   81SOPE  C310 7432   3.373   6.200   5.216  0.7882  0.1642  0.8219
   81SOPE  H10X 7433   3.303   6.287   5.216 -1.4842 -1.5361 -0.7499
   81SOPE  H10Y 7434   3.311   6.124   5.164  0.4858  1.0743 -0.1944
   81SOPE  C311 7435   3.484   6.229   5.114 -0.1548  0.4335  0.0500
   81SOPE  H11X 7436   3.543   6.135   5.112 -2.0171 -0.7728 -1.1214
   81SOPE  H11Y 7437   3.555   6.306   5.152 -1.5822  1.2085  1.2183
   81SOPE  C312 7438   3.432   6.265   4.973  0.2609  0.2405 -0.3704
   81SOPE  H12X 7439   3.520   6.279   4.907  0.2840 -3.6697 -1.4128
   81SOPE  H12Y 7440   3.378   6.361   4.985  2.5210  1.4774  0.4662
   81SOPE  C313 7441   3.358   6.155   4.912  0.2842  0.3914  0.5059
   81SOPE  H13X 7442   3.264   6.127   4.964 -0.9420 -1.3563 -2.4061
   81SOPE  H13Y 7443   3.418   6.061   4.915  1.8368  1.3597  1.5064
   81SOPE  C314 7444   3.341   6.188   4.765  0.0427 -0.1750 -0.1819
   81SOPE  H14X 7445   3.443   6.191   4.720  0.5805 -1.1254  0.9277
   81SOPE  H14Y 7446   3.278   6.277   4.744 -0.7246 -0.5693  0.4058
   81SOPE  C315 7447   3.271   6.066   4.700  0.4216 -0.3585  1.0959
   81SOPE  H15X 7448   3.175   6.068   4.755  0.0453 -1.3606  0.4971
   81SOPE  H15Y 7449   3.338   5.981   4.725  0.8192  0.0548  1.4501
   81SOPE  C316 7450   3.263   6.079   4.547  0.7110  0.3928  0.0706
   81SOPE  H16X 7451   3.359   6.063   4.493  0.9255  2.4339 -0.2026
   81SOPE  H16Y 7452   3.214   6.173   4.516 -2.4032 -1.0330  0.2780
   81SOPE  C317 7453   3.178   5.968   4.480  0.9390  0.1341  0.2856
   81SOPE  H17X 7454   3.077   5.965   4.527  0.3896 -0.0162 -0.8746
   81SOPE  H17Y 7455   3.227   5.869   4.497  0.0784 -0.1333  1.3134
   81SOPE  C318 7456   3.164   6.001   4.330  0.5611 -0.1207 -0.1650
   81SOPE  H18X 7457   3.123   5.915   4.272 -1.0758 -0.4725  1.4202
   81SOPE  H18Y 7458   3.267   6.021   4.292  0.0764  0.5018 -1.1591
   81SOPE  H18Z 7459   3.095   6.086   4.313 -1.5871 -1.3106  2.0060
   82SOPE     N 7460   0.652   4.563   6.742  0.3339 -0.0702  0.9614
   82SOPE   HN1 7461   0.665   4.622   6.658 -2.1581 -1.8581 -0.8357
   82SOPE   HN2 7462   0.660   4.623   6.826 -2.0373 -1.1022  2.0290
   82SOPE   HN3 7463   0.732   4.498   6.741  2.3720  2.2913 -0.3195
   82SOPE   C12 7464   0.515   4.505   6.727  0.7800 -0.0556 -0.3105
   82SOPE  H12A 7465   0.446   4.591   6.734  1.0888  0.6600 -4.0949
   82SOPE  H12B 7466   0.498   4.437   6.813  2.2895 -0.6592 -0.4553
   82SOPE   C11 7467   0.503   4.426   6.594  0.2286 -0.1742 -0.1956
   82SOPE  H11A 7468   0.586   4.352   6.593  2.3095  1.8705  2.9257
   82SOPE  H11B 7469   0.522   4.493   6.507  0.3750 -0.4738 -0.3984
   82SOPE     P 7470   0.241   4.430   6.528  0.4263 -0.0907  0.4200
   82SOPE   O13 7471   0.199   4.539   6.618 -0.4522  0.3012  0.2952
   82SOPE   O14 7472   0.146   4.322   6.511 -0.2178  0.0462 -0.1482
   82SOPE   O12 7473   0.372   4.366   6.576 -0.2102  0.0221  0.3546
   82SOPE   O11 7474   0.284   4.486   6.385 -0.4195 -0.0532 -0.9698
   82SOPE    C1 7475   0.305   4.622   6.364  0.0888 -0.8854  0.0116
   82SOPE    HA 7476   0.367   4.673   6.441 -2.3020 -0.6194  1.9058
   82SOPE    HB 7477   0.207   4.675   6.361  0.2902 -0.3446  1.7911
   82SOPE    C2 7478   0.376   4.652   6.229 -0.5739  0.1477 -0.3167
   82SOPE    HS 7479   0.377   4.763   6.232 -2.0558  0.1871  3.3301
   82SOPE   O21 7480   0.300   4.600   6.119 -0.0847 -0.2210  0.2237
   82SOPE   C21 7481   0.196   4.678   6.078 -0.1429 -0.4595  0.4923
   82SOPE   O22 7482   0.179   4.794   6.121 -0.3094 -0.0629  0.1072
   82SOPE   C22 7483   0.115   4.602   5.971 -0.5124 -0.2862 -1.5013
   82SOPE   H2R 7484   0.031   4.560   6.029 -0.5255  3.1778  1.3198
   82SOPE   H2S 7485   0.178   4.527   5.919 -1.2865 -2.1606  0.1664
   82SOPE    C3 7486   0.526   4.604   6.221  0.5946 -0.2523 -0.5410
   82SOPE    HX 7487   0.535   4.496   6.246 -0.8256 -0.4535 -0.8143
   82SOPE    HY 7488   0.578   4.668   6.296 -0.4387  0.2654 -0.2396
   82SOPE   O31 7489   0.589   4.631   6.094  0.5824 -0.5853  0.1824
   82SOPE   C31 7490   0.572   4.543   6.002 -0.0090  0.4579  0.1804
   82SOPE   O32 7491   0.519   4.433   6.021 -0.5995 -0.0487  0.7181
   82SOPE   C32 7492   0.632   4.587   5.872  0.0646 -0.4200  0.5351
   82SOPE   H2X 7493   0.704   4.511   5.835 -0.1591  0.2633 -1.4781
   82SOPE   H2Y 7494   0.678   4.687   5.887 -0.8704 -0.0670  1.1599
   82SOPE   C23 7495   0.058   4.716   5.881 -0.5825  0.1831 -0.4458
   82SOPE   H3R 7496   0.134   4.791   5.850  0.5566 -0.2527  1.1342
   82SOPE   H3S 7497  -0.028   4.766   5.931 -0.9228 -1.3718  0.5714
   82SOPE   C24 7498  -0.018   4.659   5.761 -0.5780  0.0081  0.1213
   82SOPE   H4R 7499  -0.070   4.565   5.786 -0.9263  0.7328  2.2678
   82SOPE   H4S 7500  -0.085   4.728   5.705  0.8779  0.5702 -1.0060
   82SOPE   C25 7501   0.083   4.623   5.647 -0.0417 -0.0898 -0.1382
   82SOPE   H5R 7502   0.126   4.715   5.602 -3.1887 -0.1033 -3.6535
   82SOPE   H5S 7503   0.171   4.567   5.687  0.2284  1.3744  1.4146
   82SOPE   C26 7504   0.007   4.561   5.532  0.0501  0.4134 -0.3803
   82SOPE   H6R 7505  -0.038   4.467   5.570 -1.3322  1.0037 -0.4910
   82SOPE   H6S 7506  -0.080   4.627   5.511 -1.6373 -2.1194 -1.7835
   82SOPE   C27 7507   0.094   4.557   5.402  0.3349 -0.1183 -0.6489
   82SOPE   H7R 7508   0.100   4.657   5.354  0.8215 -0.3748 -1.1236
   82SOPE   H7S 7509   0.200   4.549   5.435 -0.1792  0.2638  1.2650
   82SOPE   C28 7510   0.060   4.449   5.305  0.1521 -0.3552  0.3661
   82SOPE   H8R 7511   0.115   4.358   5.336  1.1172 -0.6095 -1.8465
   82SOPE   H8S 7512  -0.051   4.441   5.306  0.0484  0.8470  0.2406
   82SOPE   C29 7513   0.108   4.474   5.168 -0.1726  0.5039 -0.0843
   82SOPE   H91 7514   0.210   4.516   5.167 -0.5427  1.4870  0.9098
   82SOPE  C210 7515   0.045   4.456   5.048 -0.2854 -0.8466  0.0675
   82SOPE  H101 7516   0.090   4.487   4.954 -0.7299  1.1699  0.4764
   82SOPE  C211 7517  -0.083   4.393   5.031 -1.2111  0.4461 -0.0509
   82SOPE  H11R 7518  -0.134   4.455   4.954 -2.5008  1.8843  1.8705
   82SOPE  H11S 7519  -0.147   4.403   5.121 -1.7631 -2.3342 -0.0280
   82SOPE  C212 7520  -0.064   4.245   4.984  0.2454  0.0400 -0.6611
   82SOPE  H12R 7521  -0.158   4.187   4.999 -0.0383  0.6289 -0.1188
   82SOPE  H12S 7522   0.012   4.216   5.059  0.9661  1.0038 -0.9975
   82SOPE  C213 7523  -0.018   4.234   4.837  0.0247 -0.8369 -0.5636
   82SOPE  H13R 7524   0.063   4.309   4.821 -1.3668  1.8284  3.2786
   82SOPE  H13S 7525  -0.099   4.274   4.773  0.3668  0.9385  0.0503
   82SOPE  C214 7526   0.017   4.096   4.781 -0.6078 -0.1449 -0.1332
   82SOPE  H14R 7527  -0.058   4.017   4.804  2.3872 -2.7382  1.3513
   82SOPE  H14S 7528   0.113   4.056   4.819  0.7434  1.3104 -1.8736
   82SOPE  C215 7529   0.039   4.090   4.634  0.2724 -0.2704  0.8325
   82SOPE  H15R 7530  -0.030   4.156   4.577  1.4036  1.4317  1.3716
   82SOPE  H15S 7531   0.021   3.985   4.602 -1.8162 -0.5191  2.5956
   82SOPE  C216 7532   0.187   4.134   4.597 -0.2147  0.0495  0.1562
   82SOPE  H16R 7533   0.266   4.111   4.671 -1.0147  1.2757  1.4305
   82SOPE  H16S 7534   0.177   4.244   4.594  0.2488  0.0678 -1.8449
   82SOPE  C217 7535   0.233   4.079   4.461 -0.2560 -0.2798  0.2555
   82SOPE  H17R 7536   0.153   4.096   4.386  0.0929  0.8217  0.1065
   82SOPE  H17S 7537   0.257   3.973   4.483  0.4727  0.2893  2.4865
   82SOPE  C218 7538   0.355   4.140   4.404 -0.2570  0.1736 -0.2895
   82SOPE  H18R 7539   0.360   4.156   4.294  0.6466 -3.3893 -0.9008
   82SOPE  H18S 7540   0.442   4.076   4.429 -0.3476 -0.1062 -0.6768
   82SOPE  H18T 7541   0.375   4.239   4.448  1.0634  0.1708 -0.8559
   82SOPE   C33 7542   0.522   4.592   5.767 -0.1834  0.0633  0.0376
   82SOPE   H3X 7543   0.435   4.656   5.792 -0.9812 -0.6973 -0.7220
   82SOPE   H3Y 7544   0.472   4.493   5.754 -1.6173  0.3126  2.9674
   82SOPE   C34 7545   0.570   4.644   5.630 -0.2457  1.0398  0.6327
   82SOPE   H4X 7546   0.643   4.571   5.589  0.1376  1.2693  0.8970
   82SOPE   H4Y 7547   0.629   4.734   5.655 -0.6674  0.5576  3.7875
   82SOPE   C35 7548   0.469   4.683   5.521 -0.2344 -1.0019  0.8655
   82SOPE   H5X 7549   0.374   4.721   5.565 -0.5659 -0.7747 -0.0151
   82SOPE   H5Y 7550   0.436   4.605   5.449 -1.2257  0.4651 -0.3403
   82SOPE   C36 7551   0.536   4.789   5.435 -0.1600 -0.0298  0.7186
   82SOPE   H6X 7552   0.622   4.733   5.391  0.2834 -0.0100  1.5229
   82SOPE   H6Y 7553   0.580   4.870   5.496  2.9078 -0.6664 -0.4462
   82SOPE   C37 7554   0.447   4.845   5.323 -0.5813  0.3685  0.3671
   82SOPE   H7X 7555   0.503   4.917   5.259 -2.7524  1.2023 -0.6864
   82SOPE   H7Y 7556   0.367   4.913   5.359  0.4390  1.4087  0.7107
   82SOPE   C38 7557   0.390   4.732   5.237  0.7911  0.6678 -0.3362
   82SOPE   H8X 7558   0.296   4.694   5.284  0.1451  2.4794 -0.1031
   82SOPE   H8Y 7559   0.464   4.649   5.241  0.7239  0.6325  0.3684
   82SOPE   C39 7560   0.342   4.773   5.096 -0.1524 -0.6082  0.8199
   82SOPE   H9X 7561   0.343   4.685   5.029 -0.1259  0.0077  0.0028
   82SOPE   H9Y 7562   0.418   4.849   5.065  0.5617 -0.2514  3.1736
   82SOPE  C310 7563   0.209   4.836   5.105  0.0256  0.1386  0.4313
   82SOPE  H10X 7564   0.209   4.922   5.174  0.6559 -0.2100  0.8783
   82SOPE  H10Y 7565   0.127   4.765   5.129 -1.8082  2.7816  2.5764
   82SOPE  C311 7566   0.166   4.890   4.969 -0.3870 -0.6750 -0.0289
   82SOPE  H11X 7567   0.238   4.968   4.937 -1.8360  0.1966 -1.2329
   82SOPE  H11Y 7568   0.067   4.938   4.982 -0.2754 -0.2481 -0.7076
   82SOPE  C312 7569   0.155   4.781   4.859  0.1597  0.0837  0.1615
   82SOPE  H12X 7570   0.089   4.699   4.895 -1.7548  1.8306  0.9011
   82SOPE  H12Y 7571   0.256   4.738   4.845 -0.5116 -1.5427  0.1228
   82SOPE  C313 7572   0.094   4.841   4.734 -0.6079 -0.4801  0.1510
   82SOPE  H13X 7573   0.150   4.933   4.706  0.6644 -0.4377  2.5340
   82SOPE  H13Y 7574  -0.013   4.866   4.751 -0.1041  2.0688 -0.0402
   82SOPE  C314 7575   0.091   4.747   4.614  0.6043 -0.2806 -0.1284
   82SOPE  H14X 7576   0.195   4.723   4.583  0.8431  0.7570 -0.1742
   82SOPE  H14Y 7577   0.044   4.794   4.525  0.2236  0.3717  0.4074
   82SOPE  C315 7578   0.018   4.616   4.633 -0.1521  0.9792  0.1894
   82SOPE  H15X 7579  -0.073   4.636   4.694 -2.1538 -2.3788 -1.3916
   82SOPE  H15Y 7580   0.079   4.550   4.698 -0.9513 -2.1556 -2.0506
   82SOPE  C316 7581  -0.024   4.540   4.499 -0.3361  0.6464 -0.3300
   82SOPE  H16X 7582  -0.079   4.618   4.442 -1.0217 -1.1654 -2.2738
   82SOPE  H16Y 7583  -0.096   4.462   4.530  1.4468 -0.3625  1.5429
   82SOPE  C317 7584   0.097   4.480   4.420  0.8254 -0.2998  0.1726
   82SOPE  H17X 7585   0.176   4.461   4.495  0.5206 -2.2979  0.0197
   82SOPE  H17Y 7586   0.133   4.558   4.349 -1.3893 -0.0189 -0.7049
   82SOPE  C318 7587   0.057   4.360   4.329 -0.0790 -0.1597  0.3257
   82SOPE  H18X 7588   0.032   4.277   4.398 -1.7676  1.1042  1.3218
   82SOPE  H18Y 7589   0.140   4.324   4.264 -1.5111  0.1229 -1.7602
   82SOPE  H18Z 7590  -0.034   4.385   4.271 -0.2251 -0.5426  0.3896
   83SOPE     N 7591   6.993   4.331   2.409  0.5219  0.6481  0.3604
   83SOPE   HN1 7592   6.969   4.360   2.505  0.9596  2.0885  0.0594
   83SOPE   HN2 7593   6.922   4.263   2.375 -0.0008  0.4736  1.7339
   83SOPE   HN3 7594   7.079   4.273   2.406 -0.5028 -0.9347 -0.1290
   83SOPE   C12 7595   6.994   4.455   2.339  0.4160 -0.0778  0.7133
   83SOPE  H12A 7596   6.889   4.490   2.323  0.3741 -0.3866  0.3114
   83SOPE  H12B 7597   7.025   4.435   2.234 -1.5451 -0.9768  0.2654
   83SOPE   C11 7598   7.087   4.550   2.412 -0.3163  0.5543  0.0743
   83SOPE  H11A 7599   7.077   4.558   2.523  2.8603  1.0023  0.4122
   83SOPE  H11B 7600   7.058   4.651   2.375 -0.0067 -0.3092 -2.7015
   83SOPE     P 7601   7.343   4.616   2.359 -0.0484  0.3842  0.3972
   83SOPE   O13 7602   7.290   4.740   2.300 -0.0239 -0.2385 -0.2134
   83SOPE   O14 7603   7.452   4.546   2.288  0.3938 -0.3440  0.8086
   83SOPE   O12 7604   7.221   4.517   2.383  0.0575  0.3998 -1.1163
   83SOPE   O11 7605   7.391   4.651   2.504  0.6882 -0.2744  0.4352
   83SOPE    C1 7606   7.434   4.568   2.607  0.5215 -0.2905 -0.1053
   83SOPE    HA 7607   7.539   4.603   2.620 -0.1079  1.6155  0.2101
   83SOPE    HB 7608   7.445   4.460   2.583  2.2413 -0.4487  1.1658
   83SOPE    C2 7609   7.351   4.578   2.735 -0.4684  0.7943 -0.4486
   83SOPE    HS 7610   7.241   4.575   2.717 -0.5405 -0.3318  0.0923
   83SOPE   O21 7611   7.385   4.698   2.811 -0.9373 -0.3376 -0.1242
   83SOPE   C21 7612   7.317   4.806   2.777 -0.3983  0.7694  0.6852
   83SOPE   O22 7613   7.230   4.816   2.691 -0.5302 -0.1360 -0.1982
   83SOPE   C22 7614   7.371   4.925   2.852  0.1621  0.2804  0.0583
   83SOPE   H2R 7615   7.327   5.018   2.810  1.6352  0.2813 -1.5830
   83SOPE   H2S 7616   7.476   4.929   2.818 -0.6875  0.1816 -2.8910
   83SOPE    C3 7617   7.371   4.455   2.835 -0.1138 -0.3465 -0.0603
   83SOPE    HX 7618   7.478   4.460   2.864  0.1880 -3.6937 -0.1079
   83SOPE    HY 7619   7.338   4.361   2.785  2.1608 -2.5034  2.1690
   83SOPE   O31 7620   7.280   4.477   2.947  0.0109  0.4223  0.3004
   83SOPE   C31 7621   7.334   4.468   3.068  0.0120 -0.8649  0.4805
   83SOPE   O32 7622   7.445   4.431   3.089 -0.0302  0.2009 -0.4405
   83SOPE   C32 7623   7.249   4.533   3.179 -0.1080 -0.6479 -0.1028
   83SOPE   H2X 7624   7.145   4.561   3.149 -0.1958  0.7362  1.3491
   83SOPE   H2Y 7625   7.315   4.620   3.200 -1.6437  2.0773 -4.9574
   83SOPE   C23 7626   7.356   4.918   3.003  0.3913 -0.5182 -0.6336
   83SOPE   H3R 7627   7.405   5.005   3.049 -0.6380 -0.8706  1.2235
   83SOPE   H3S 7628   7.391   4.824   3.052  1.2753  0.2269  0.1939
   83SOPE   C24 7629   7.207   4.919   3.041 -0.3389 -0.2693 -0.2505
   83SOPE   H4R 7630   7.157   4.997   2.978 -0.8257 -0.5102 -0.1726
   83SOPE   H4S 7631   7.152   4.831   3.001  1.0035 -0.3864 -1.9504
   83SOPE   C25 7632   7.185   4.924   3.192  0.6192  0.1100 -0.8247
   83SOPE   H5R 7633   7.238   4.843   3.246 -1.5379 -0.6356  0.2886
   83SOPE   H5S 7634   7.235   5.017   3.226  1.2693 -1.0419  1.6003
   83SOPE   C26 7635   7.033   4.917   3.219 -0.0400 -0.1586 -0.3820
   83SOPE   H6R 7636   6.982   4.997   3.161  0.7748 -0.2594 -1.2668
   83SOPE   H6S 7637   6.993   4.824   3.175 -1.9986  0.5736 -0.2267
   83SOPE   C27 7638   6.995   4.938   3.370  0.7762 -0.0039  0.3816
   83SOPE   H7R 7639   7.041   5.038   3.387 -0.6003  1.2690 -2.6894
   83SOPE   H7S 7640   6.886   4.958   3.383  0.2394 -0.9293 -2.2133
   83SOPE   C28 7641   7.042   4.840   3.471 -0.3438  0.5522 -0.1149
   83SOPE   H8R 7642   7.153   4.831   3.474 -0.4260 -0.5132  0.4538
   83SOPE   H8S 7643   7.017   4.887   3.568  2.4054 -2.3852  2.2304
   83SOPE   C29 7644   6.994   4.706   3.447 -0.4342 -0.4765 -0.0411
   83SOPE   H91 7645   7.033   4.665   3.353 -2.6484 -1.1306 -0.7457
   83SOPE  C210 7646   6.887   4.642   3.504 -0.4881 -0.2420 -0.5806
   83SOPE  H101 7647   6.862   4.546   3.457 -0.1951 -0.2055 -0.8134
   83SOPE  C211 7648   6.799   4.695   3.613 -0.3302  0.6495  0.1651
   83SOPE  H11R 7649   6.832   4.797   3.644  0.0690  0.7339 -0.5033
   83SOPE  H11S 7650   6.800   4.625   3.699  0.2261 -1.6460 -1.6035
   83SOPE  C212 7651   6.646   4.695   3.590  0.5647 -0.3665  0.2641
   83SOPE  H12R 7652   6.614   4.597   3.548 -2.4767  0.6949 -0.1707
   83SOPE  H12S 7653   6.617   4.771   3.514  1.0930 -0.3838  0.0389
   83SOPE  C213 7654   6.564   4.720   3.717  0.0295 -0.2042 -0.9933
   83SOPE  H13R 7655   6.584   4.814   3.773 -2.4244 -0.1437 -0.1297
   83SOPE  H13S 7656   6.597   4.637   3.783  0.1849 -0.1536 -1.0063
   83SOPE  C214 7657   6.408   4.704   3.696 -1.0584  0.3543 -0.4380
   83SOPE  H14R 7658   6.394   4.608   3.641 -0.1326  0.4742 -0.9078
   83SOPE  H14S 7659   6.364   4.784   3.633  4.0966  4.4546  0.4563
   83SOPE  C215 7660   6.336   4.696   3.828 -0.6963 -0.0445  0.5278
   83SOPE  H15R 7661   6.395   4.664   3.917 -0.4027 -0.4782  0.1821
   83SOPE  H15S 7662   6.271   4.606   3.840  0.5206 -0.6690  3.1002
   83SOPE  C216 7663   6.260   4.825   3.862 -0.0649  0.3559 -0.5258
   83SOPE  H16R 7664   6.171   4.828   3.795 -0.9593  1.5146  0.6667
   83SOPE  H16S 7665   6.322   4.909   3.823  1.5991 -1.1195 -1.1821
   83SOPE  C217 7666   6.216   4.843   4.006  0.4666 -0.6810 -0.1882
   83SOPE  H17R 7667   6.304   4.862   4.072 -0.0666  0.2857  0.2794
   83SOPE  H17S 7668   6.168   4.748   4.035 -1.0817 -0.1663 -0.9640
   83SOPE  C218 7669   6.106   4.954   4.022  0.3193 -0.2403 -0.0278
   83SOPE  H18R 7670   6.061   4.952   4.123 -1.0840 -0.9128 -0.6320
   83SOPE  H18S 7671   6.024   4.922   3.954  1.4249 -1.9084 -0.6399
   83SOPE  H18T 7672   6.142   5.052   3.984 -3.7077  0.6647 -2.1237
   83SOPE   C33 7673   7.230   4.440   3.307 -0.5811 -0.7941 -0.9664
   83SOPE   H3X 7674   7.191   4.497   3.394 -0.3968 -0.5888 -1.0188
   83SOPE   H3Y 7675   7.331   4.400   3.331 -0.2349 -0.7332 -2.2631
   83SOPE   C34 7676   7.133   4.325   3.276 -0.0803 -0.2933  0.0980
   83SOPE   H4X 7677   7.187   4.248   3.216  2.9954  0.5142  1.5964
   83SOPE   H4Y 7678   7.048   4.364   3.217 -0.6678 -0.9974  0.4712
   83SOPE   C35 7679   7.064   4.282   3.406  0.8151 -0.0431 -0.0068
   83SOPE   H5X 7680   7.001   4.194   3.379 -1.1902  1.5250 -0.6555
   83SOPE   H5Y 7681   7.001   4.369   3.434  1.0390  0.4133 -0.8907
   83SOPE   C36 7682   7.157   4.244   3.519 -0.4584  0.0350  0.1076
   83SOPE   H6X 7683   7.225   4.330   3.537 -2.3928  1.2621  2.0139
   83SOPE   H6Y 7684   7.222   4.166   3.473  0.3907  0.7072  0.1360
   83SOPE   C37 7685   7.101   4.199   3.651 -0.0122 -0.8000 -0.2837
   83SOPE   H7X 7686   7.022   4.123   3.635 -0.0475 -0.7529 -0.3344
   83SOPE   H7Y 7687   7.053   4.281   3.709  1.5955 -2.1610  3.2847
   83SOPE   C38 7688   7.203   4.141   3.754 -0.1109 -0.2907  0.4736
   83SOPE   H8X 7689   7.285   4.216   3.756  0.1437 -0.5750  0.6624
   83SOPE   H8Y 7690   7.234   4.039   3.722 -1.0282 -0.4185 -0.0549
   83SOPE   C39 7691   7.145   4.140   3.893 -0.5481  0.3622 -0.2585
   83SOPE   H9X 7692   7.062   4.067   3.901 -1.1431  0.9894 -0.6398
   83SOPE   H9Y 7693   7.099   4.235   3.927 -1.4735 -0.0014 -0.4787
   83SOPE  C310 7694   7.254   4.108   4.006 -0.4251 -0.3022  0.3861
   83SOPE  H10X 7695   7.194   4.077   4.094 -1.3574  2.8286  0.9656
   83SOPE  H10Y 7696   7.320   4.194   4.029 -1.5308  1.2117 -1.7460
   83SOPE  C311 7697   7.346   3.987   3.977 -0.7675  0.6883  0.0996
   83SOPE  H11X 7698   7.419   4.021   3.901 -0.6147  1.2174  0.4686
   83SOPE  H11Y 7699   7.287   3.901   3.940 -1.1424  1.4135 -1.0212
   83SOPE  C312 7700   7.418   3.943   4.096 -0.1620  0.1451 -0.0017
   83SOPE  H12X 7701   7.353   3.885   4.166 -0.1968  2.0301  1.6187
   83SOPE  H12Y 7702   7.440   4.039   4.146 -0.2638  1.2882 -2.0526
   83SOPE  C313 7703   7.550   3.877   4.066  0.2892 -0.0314  0.8690
   83SOPE  H13X 7704   7.600   3.921   3.977  0.4072 -3.7018 -1.0708
   83SOPE  H13Y 7705   7.531   3.775   4.028  0.4119  0.9846 -2.1859
   83SOPE  C314 7706   7.634   3.860   4.191 -0.0903 -0.0537 -0.5561
   83SOPE  H14X 7707   7.670   3.959   4.227  0.5387 -0.8359  1.0554
   83SOPE  H14Y 7708   7.727   3.801   4.175 -0.5234 -1.3965  1.5124
   83SOPE  C315 7709   7.566   3.792   4.315  0.6146 -0.3265 -0.7813
   83SOPE  H15X 7710   7.489   3.853   4.368  1.7751  0.5072  0.0047
   83SOPE  H15Y 7711   7.646   3.766   4.388  2.4750  2.9474 -1.4602
   83SOPE  C316 7712   7.500   3.660   4.264  0.3164  0.4821 -1.0067
   83SOPE  H16X 7713   7.570   3.611   4.192  2.4047  1.4616  0.2581
   83SOPE  H16Y 7714   7.405   3.687   4.215  0.3663  2.2368 -0.1974
   83SOPE  C317 7715   7.471   3.561   4.380 -0.0266 -0.2967  0.0776
   83SOPE  H17X 7716   7.574   3.536   4.413  1.0315  1.6892 -1.4626
   83SOPE  H17Y 7717   7.411   3.473   4.347 -0.7987  0.4809 -0.6483
   83SOPE  C318 7718   7.393   3.629   4.494 -0.6343  0.0996 -0.1658
   83SOPE  H18X 7719   7.376   3.568   4.585  1.0235 -0.8903 -0.4798
   83SOPE  H18Y 7720   7.296   3.661   4.450 -0.4569  0.5673 -0.2201
   83SOPE  H18Z 7721   7.428   3.724   4.541  1.0203  0.0357 -1.1939
   84SOPE     N 7722   0.957   2.447   1.860 -0.0467 -0.5538  0.2756
   84SOPE   HN1 7723   0.973   2.548   1.877  0.2942 -0.5139 -0.2607
   84SOPE   HN2 7724   0.943   2.418   1.761  3.2714 -2.5247  0.2498
   84SOPE   HN3 7725   0.878   2.411   1.918  1.4952 -2.0596  1.5475
   84SOPE   C12 7726   1.081   2.382   1.914  0.0260 -1.0322 -0.0068
   84SOPE  H12A 7727   1.176   2.416   1.867  0.9922 -2.2548  0.9696
   84SOPE  H12B 7728   1.081   2.278   1.875 -1.5086 -1.2647  0.5398
   84SOPE   C11 7729   1.082   2.382   2.070  0.2072 -0.6709 -1.2553
   84SOPE  H11A 7730   1.184   2.338   2.071  0.2066 -0.9018 -3.8914
   84SOPE  H11B 7731   1.012   2.305   2.108  2.4467 -2.7135 -1.0400
   84SOPE     P 7732   1.176   2.569   2.214  0.2429  0.2759 -0.3542
   84SOPE   O13 7733   1.141   2.710   2.236 -0.5829 -0.4107 -1.0737
   84SOPE   O14 7734   1.303   2.542   2.149 -0.4983  0.8313 -0.0067
   84SOPE   O12 7735   1.063   2.509   2.127  0.6599  0.5825 -0.0921
   84SOPE   O11 7736   1.158   2.480   2.347  0.7395 -0.2093  0.3335
   84SOPE    C1 7737   1.252   2.501   2.453 -0.5264  0.2326  0.2451
   84SOPE    HA 7738   1.318   2.588   2.435 -1.6560  0.9949 -0.3019
   84SOPE    HB 7739   1.323   2.416   2.464 -0.2620  0.5272  0.8583
   84SOPE    C2 7740   1.186   2.531   2.588  0.4897 -0.4213  0.1376
   84SOPE    HS 7741   1.263   2.527   2.667 -0.2149 -1.8752  0.7919
   84SOPE   O21 7742   1.084   2.432   2.628  0.3685 -0.0766  0.7755
   84SOPE   C21 7743   1.117   2.305   2.641 -0.1196 -0.2235  0.3351
   84SOPE   O22 7744   1.226   2.253   2.624 -0.8180 -0.7384 -0.0595
   84SOPE   C22 7745   0.989   2.226   2.671  0.1662 -0.1249 -0.5789
   84SOPE   H2R 7746   0.911   2.258   2.598  0.0000  2.1692  0.5205
   84SOPE   H2S 7747   0.959   2.254   2.774  0.2555  0.7370 -0.7856
   84SOPE    C3 7748   1.124   2.669   2.576 -0.1441  0.8246 -0.1700
   84SOPE    HX 7749   1.052   2.666   2.492 -0.2641  1.7693 -0.1136
   84SOPE    HY 7750   1.194   2.747   2.539  1.2293 -0.5670 -0.6001
   84SOPE   O31 7751   1.053   2.720   2.689 -0.3097  0.3915  0.2711
   84SOPE   C31 7752   0.929   2.669   2.711 -0.3068 -0.4633 -0.1878
   84SOPE   O32 7753   0.869   2.602   2.630 -0.1916  0.1666 -0.2900
   84SOPE   C32 7754   0.881   2.709   2.849  0.3644 -0.0345 -0.0066
   84SOPE   H2X 7755   0.841   2.813   2.846  0.6093  0.0602 -0.0539
   84SOPE   H2Y 7756   0.972   2.706   2.913 -0.1345 -2.7512  0.6770
   84SOPE   C23 7757   1.006   2.071   2.665 -0.0315  0.1295 -0.5658
   84SOPE   H3R 7758   1.078   2.054   2.582  0.0894  0.4707 -0.5303
   84SOPE   H3S 7759   0.911   2.024   2.633  0.2228 -0.8953  0.1235
   84SOPE   C24 7760   1.045   2.007   2.806 -0.8654  0.7517  0.0961
   84SOPE   H4R 7761   1.073   1.903   2.781  0.8118 -0.0686  4.5329
   84SOPE   H4S 7762   1.121   2.068   2.860 -0.7386 -1.4613  2.5763
   84SOPE   C25 7763   0.930   1.991   2.905 -0.0596  0.5320 -0.0091
   84SOPE   H5R 7764   0.903   2.088   2.951 -0.4427  0.1515  0.5902
   84SOPE   H5S 7765   0.837   1.958   2.854  1.4524  0.5325 -2.9205
   84SOPE   C26 7766   0.969   1.906   3.024  0.3318 -0.1401 -0.1892
   84SOPE   H6R 7767   0.998   1.801   3.003  0.1024 -0.6130  1.6104
   84SOPE   H6S 7768   1.067   1.948   3.056  0.3119  1.9950 -2.6288
   84SOPE   C27 7769   0.868   1.917   3.143 -0.5493 -0.0255  0.1177
   84SOPE   H7R 7770   0.862   2.024   3.173  0.0782  0.1933 -0.5292
   84SOPE   H7S 7771   0.766   1.882   3.115  0.4002 -0.5548 -3.0068
   84SOPE   C28 7772   0.916   1.831   3.260  0.0290 -0.9686 -0.1144
   84SOPE   H8R 7773   0.948   1.729   3.230  2.1451 -1.0846  2.2316
   84SOPE   H8S 7774   1.008   1.878   3.299  0.3375 -1.3279 -0.4077
   84SOPE   C29 7775   0.814   1.825   3.372 -0.0916 -0.3756 -0.9033
   84SOPE   H91 7776   0.786   1.919   3.422  0.4242 -0.8656  0.3408
   84SOPE  C210 7777   0.752   1.716   3.416  0.0821 -0.2247  0.1335
   84SOPE  H101 7778   0.671   1.724   3.491  2.2202 -2.7187  3.0067
   84SOPE  C211 7779   0.777   1.572   3.375 -0.1380 -0.2412 -0.5356
   84SOPE  H11R 7780   0.886   1.551   3.380 -0.1696 -0.2269  0.4162
   84SOPE  H11S 7781   0.744   1.573   3.269 -2.7577  0.3256  0.2091
   84SOPE  C212 7782   0.707   1.462   3.459  0.1398  0.1840 -0.3898
   84SOPE  H12R 7783   0.707   1.364   3.405 -0.0547  0.4629 -0.9052
   84SOPE  H12S 7784   0.601   1.488   3.476  0.6020  1.8302  0.1236
   84SOPE  C213 7785   0.774   1.449   3.601  0.5986 -0.2455  0.4972
   84SOPE  H13R 7786   0.752   1.544   3.653 -1.7910 -0.6003  0.2239
   84SOPE  H13S 7787   0.884   1.443   3.584  0.4623 -2.7849  0.1113
   84SOPE  C214 7788   0.725   1.328   3.686 -0.2548 -0.2211  0.7889
   84SOPE  H14R 7789   0.776   1.347   3.783 -0.5306 -2.2630  1.3810
   84SOPE  H14S 7790   0.766   1.241   3.632 -3.4566 -1.4685  0.1379
   84SOPE  C215 7791   0.572   1.314   3.705 -0.9111  0.0842  0.1377
   84SOPE  H15R 7792   0.561   1.215   3.753 -1.4380  0.3536  0.5864
   84SOPE  H15S 7793   0.523   1.305   3.605  0.2512  1.5533 -0.6068
   84SOPE  C216 7794   0.513   1.427   3.791 -0.0604 -0.5135 -1.2906
   84SOPE  H16R 7795   0.404   1.408   3.783 -0.3882 -1.9063  3.3507
   84SOPE  H16S 7796   0.540   1.525   3.745 -1.1001  0.4355  0.0353
   84SOPE  C217 7797   0.560   1.435   3.940  0.2123 -0.0141  0.6437
   84SOPE  H17R 7798   0.668   1.462   3.936 -0.0588  0.9324 -1.5788
   84SOPE  H17S 7799   0.549   1.333   3.983  2.0010 -2.3434 -3.7314
   84SOPE  C218 7800   0.473   1.543   4.013 -0.4183  0.1217  0.0384
   84SOPE  H18R 7801   0.482   1.639   3.959  1.8212 -0.4679 -0.7761
   84SOPE  H18S 7802   0.518   1.563   4.112 -1.5442  2.0047  0.2173
   84SOPE  H18T 7803   0.364   1.522   4.022 -1.2020  2.5187 -2.3936
   84SOPE   C33 7804   0.773   2.626   2.919  0.1479 -1.0421  0.2312
   84SOPE   H3X 7805   0.679   2.634   2.860  1.1847 -0.9740 -1.4921
   84SOPE   H3Y 7806   0.755   2.666   3.021 -1.4003 -2.6957  0.6405
   84SOPE   C34 7807   0.810   2.478   2.943 -0.1107 -0.1871  0.6347
   84SOPE   H4X 7808   0.913   2.488   2.983  1.1630  1.8436 -2.6934
   84SOPE   H4Y 7809   0.814   2.423   2.846 -0.8938  0.0129  0.4820
   84SOPE   C35 7810   0.731   2.402   3.038 -1.0054  0.0215  0.2726
   84SOPE   H5X 7811   0.784   2.305   3.037  0.5340  0.8486 -0.6361
   84SOPE   H5Y 7812   0.629   2.376   3.002 -0.6057 -2.4829  0.7937
   84SOPE   C36 7813   0.717   2.460   3.183  0.3521 -0.4225 -0.0109
   84SOPE   H6X 7814   0.673   2.562   3.181  0.0749 -0.5077  0.9295
   84SOPE   H6Y 7815   0.820   2.481   3.218  0.2011 -0.4872  0.4860
   84SOPE   C37 7816   0.644   2.373   3.284  0.0931 -0.8831 -0.5037
   84SOPE   H7X 7817   0.681   2.268   3.274 -1.3517 -1.4002 -0.6736
   84SOPE   H7Y 7818   0.540   2.375   3.247  0.9717 -0.6275 -3.2067
   84SOPE   C38 7819   0.662   2.420   3.439 -0.9133 -0.3890 -0.0728
   84SOPE   H8X 7820   0.652   2.530   3.452  0.0200  0.0141 -2.3460
   84SOPE   H8Y 7821   0.768   2.397   3.463 -1.1120 -0.8979  0.3247
   84SOPE   C39 7822   0.566   2.356   3.527 -0.4245 -0.8692  0.1273
   84SOPE   H9X 7823   0.574   2.245   3.525  0.4739 -0.7983 -0.8557
   84SOPE   H9Y 7824   0.468   2.394   3.491  0.2589  0.1466 -0.7288
   84SOPE  C310 7825   0.579   2.413   3.678  0.1819 -0.1736  0.0548
   84SOPE  H10X 7826   0.623   2.515   3.674 -0.9352  0.3853  1.1280
   84SOPE  H10Y 7827   0.650   2.350   3.736  1.1906 -2.0835 -3.0301
   84SOPE  C311 7828   0.450   2.434   3.757 -0.4499 -0.6068  0.0623
   84SOPE  H11X 7829   0.367   2.485   3.702  1.3029  1.5111 -0.7589
   84SOPE  H11Y 7830   0.474   2.507   3.837 -2.0994  1.2052 -0.9801
   84SOPE  C312 7831   0.396   2.307   3.834  0.0623 -0.4068  0.5038
   84SOPE  H12X 7832   0.476   2.267   3.899  0.9087 -0.6690 -0.6686
   84SOPE  H12Y 7833   0.377   2.229   3.757 -0.6535 -0.6485  0.9150
   84SOPE  C313 7834   0.269   2.332   3.910  0.6921  0.8070 -0.1262
   84SOPE  H13X 7835   0.198   2.392   3.850  1.4987  1.3804 -0.5254
   84SOPE  H13Y 7836   0.292   2.400   3.995  0.1207  1.3030 -0.3729
   84SOPE  C314 7837   0.194   2.201   3.958  0.0072  0.1056 -0.3327
   84SOPE  H14X 7838   0.163   2.145   3.868 -1.1127  0.8181 -0.4128
   84SOPE  H14Y 7839   0.102   2.229   4.013  1.9250  3.3214  1.5474
   84SOPE  C315 7840   0.273   2.116   4.056  0.2390  0.0959 -0.5701
   84SOPE  H15X 7841   0.308   2.179   4.141 -1.3509 -0.6017  0.6570
   84SOPE  H15Y 7842   0.361   2.065   4.011 -1.3764 -2.5154 -0.9825
   84SOPE  C316 7843   0.179   2.014   4.101  0.4987 -0.2395  0.7575
   84SOPE  H16X 7844   0.146   1.949   4.018 -0.7244  1.7718 -0.4160
   84SOPE  H16Y 7845   0.093   2.059   4.156  1.6480  2.6640  0.3603
   84SOPE  C317 7846   0.247   1.905   4.189 -0.2284 -0.0219 -0.3600
   84SOPE  H17X 7847   0.305   1.961   4.267 -0.6680 -0.0663  0.0068
   84SOPE  H17Y 7848   0.336   1.868   4.135  0.6877 -0.7174  1.5243
   84SOPE  C318 7849   0.158   1.796   4.247  0.7282 -0.3400 -0.4038
   84SOPE  H18X 7850   0.209   1.716   4.304 -2.3284 -0.6585  2.1823
   84SOPE  H18Y 7851   0.108   1.741   4.163 -0.4749 -1.4094  0.9633
   84SOPE  H18Z 7852   0.079   1.835   4.315  1.1028 -3.2127  1.8907
   85SOPE     N 7853   2.084   5.759   2.229 -0.0389 -0.2009 -0.3283
   85SOPE   HN1 7854   2.115   5.661   2.242 -0.1173 -0.0776  0.8981
   85SOPE   HN2 7855   2.093   5.813   2.318  0.9483 -0.5864 -0.1859
   85SOPE   HN3 7856   1.986   5.754   2.193  0.5329 -0.6153 -1.8943
   85SOPE   C12 7857   2.161   5.817   2.115 -0.1565 -0.5067 -0.4929
   85SOPE  H12A 7858   2.139   5.926   2.112 -2.5966 -0.9448 -0.6964
   85SOPE  H12B 7859   2.135   5.769   2.018  0.5022 -0.7292 -0.5671
   85SOPE   C11 7860   2.311   5.791   2.130 -0.3448 -0.2325 -0.4512
   85SOPE  H11A 7861   2.367   5.851   2.055 -0.0402  0.0256 -0.0250
   85SOPE  H11B 7862   2.338   5.687   2.100 -1.0621 -1.0390  1.5306
   85SOPE     P 7863   2.446   5.735   2.364  0.0869  0.3888  0.0494
   85SOPE   O13 7864   2.548   5.819   2.431  0.2321 -1.0265  0.1086
   85SOPE   O14 7865   2.499   5.617   2.287  0.1037 -0.1579 -0.2060
   85SOPE   O12 7866   2.363   5.827   2.265  0.5943 -0.4551  0.3769
   85SOPE   O11 7867   2.345   5.680   2.463  0.0499 -0.4437  0.1714
   85SOPE    C1 7868   2.372   5.581   2.566 -0.5041  0.6809 -0.0136
   85SOPE    HA 7869   2.468   5.526   2.558 -0.9629  0.1081 -2.1011
   85SOPE    HB 7870   2.296   5.501   2.562 -2.2477  2.2004  1.2126
   85SOPE    C2 7871   2.364   5.639   2.708 -0.5982  0.8229 -0.2091
   85SOPE    HS 7872   2.259   5.657   2.740 -1.1742 -2.1540 -0.1404
   85SOPE   O21 7873   2.446   5.759   2.708 -0.1261  0.6509 -0.0705
   85SOPE   C21 7874   2.375   5.870   2.733  0.3088 -0.9052 -0.6624
   85SOPE   O22 7875   2.255   5.880   2.728  0.0381 -0.5427 -0.8752
   85SOPE   C22 7876   2.461   5.989   2.773  0.1379 -0.8353 -0.7826
   85SOPE   H2R 7877   2.492   6.042   2.681  0.5480  0.6826  0.1810
   85SOPE   H2S 7878   2.555   5.938   2.805 -0.8128 -1.9904  0.2589
   85SOPE    C3 7879   2.424   5.536   2.810  0.0059 -0.5901 -0.5048
   85SOPE    HX 7880   2.522   5.495   2.778 -0.5328 -0.5262 -2.3706
   85SOPE    HY 7881   2.366   5.441   2.815  0.8621 -1.0615  1.2659
   85SOPE   O31 7882   2.431   5.595   2.947 -0.2092 -0.3117 -0.4400
   85SOPE   C31 7883   2.512   5.528   3.028  0.7999  0.2167 -0.5595
   85SOPE   O32 7884   2.591   5.439   2.997 -0.3920 -0.6021  0.2091
   85SOPE   C32 7885   2.498   5.586   3.167 -0.2074 -0.7410 -0.2931
   85SOPE   H2X 7886   2.396   5.566   3.206 -0.3558  0.1454 -0.1970
   85SOPE   H2Y 7887   2.504   5.697   3.168 -1.3427 -0.6604  1.0130
   85SOPE   C23 7888   2.397   6.086   2.886 -0.0418  0.1032  0.0224
   85SOPE   H3R 7889   2.293   6.118   2.863 -1.2507 -3.4871 -0.1650
   85SOPE   H3S 7890   2.470   6.169   2.881 -1.2173  1.0735 -1.8062
   85SOPE   C24 7891   2.424   6.016   3.017 -0.2678  0.0024 -0.5205
   85SOPE   H4R 7892   2.469   5.915   3.004  1.4887  0.6401  0.2466
   85SOPE   H4S 7893   2.489   6.082   3.078 -0.5037 -0.2182 -0.0215
   85SOPE   C25 7894   2.303   6.004   3.103 -0.1021  0.4826  0.6381
   85SOPE   H5R 7895   2.269   6.108   3.127 -0.7647 -0.1865  2.9331
   85SOPE   H5S 7896   2.226   5.946   3.048  0.7824 -0.2256  0.1375
   85SOPE   C26 7897   2.325   5.938   3.239 -0.4783 -0.1635 -0.0382
   85SOPE   H6R 7898   2.328   5.829   3.221  0.0792 -0.1038 -0.3068
   85SOPE   H6S 7899   2.421   5.969   3.284 -1.2032  0.6404  1.0240
   85SOPE   C27 7900   2.216   5.966   3.348  0.2644  0.1277 -0.3887
   85SOPE   H7R 7901   2.204   6.075   3.367 -1.9904 -0.3732  1.5519
   85SOPE   H7S 7902   2.121   5.924   3.311 -0.0741  2.1976 -2.0353
   85SOPE   C28 7903   2.264   5.893   3.477  0.0950  0.3913 -0.4813
   85SOPE   H8R 7904   2.269   5.785   3.451 -0.2011  0.4296 -0.7099
   85SOPE   H8S 7905   2.361   5.937   3.508 -0.2361  2.3494 -2.0258
   85SOPE   C29 7906   2.152   5.896   3.584 -0.4246 -0.0280  0.2549
   85SOPE   H91 7907   2.058   5.845   3.557 -0.0382 -0.6926  0.1387
   85SOPE  C210 7908   2.158   5.953   3.705  0.1837  0.2237  0.4386
   85SOPE  H101 7909   2.078   5.947   3.780 -0.5119  1.4420 -0.1716
   85SOPE  C211 7910   2.275   6.038   3.747 -0.1349 -0.1193  0.0859
   85SOPE  H11R 7911   2.238   6.130   3.798 -0.7632 -0.2220 -0.1772
   85SOPE  H11S 7912   2.340   6.078   3.666  0.3548 -0.6026  0.2400
   85SOPE  C212 7913   2.364   5.966   3.848 -0.0747  0.0191  0.7844
   85SOPE  H12R 7914   2.448   6.039   3.852  0.3201 -0.4378  1.0430
   85SOPE  H12S 7915   2.405   5.866   3.822 -1.5131 -0.0748 -1.3684
   85SOPE  C213 7916   2.298   5.948   3.984  0.0444  0.4963  0.1859
   85SOPE  H13R 7917   2.243   5.851   3.983 -0.8580  0.9683  1.6505
   85SOPE  H13S 7918   2.221   6.027   3.999  1.1302  1.3404  1.6107
   85SOPE  C214 7919   2.405   5.945   4.095  0.6069  0.8446 -0.4876
   85SOPE  H14R 7920   2.458   6.042   4.091  1.9543  0.1102 -0.8516
   85SOPE  H14S 7921   2.473   5.862   4.067 -1.4501  0.2526 -4.4904
   85SOPE  C215 7922   2.345   5.928   4.233  0.0436  0.2914  0.0670
   85SOPE  H15R 7923   2.258   5.992   4.257  0.2372  0.2751  0.8202
   85SOPE  H15S 7924   2.421   5.932   4.314  1.0400 -0.6799 -0.7818
   85SOPE  C216 7925   2.293   5.782   4.261  0.1399 -0.2628 -0.2587
   85SOPE  H16R 7926   2.373   5.712   4.291  0.0558 -0.4854 -0.5575
   85SOPE  H16S 7927   2.247   5.741   4.169 -0.3458 -0.5887  0.1238
   85SOPE  C217 7928   2.183   5.770   4.375 -0.0232  0.4599  0.0315
   85SOPE  H17R 7929   2.234   5.798   4.470  0.7931  0.9636 -0.5410
   85SOPE  H17S 7930   2.154   5.663   4.378  2.5684 -0.2966  1.2772
   85SOPE  C218 7931   2.047   5.848   4.353 -0.7298 -0.4962  0.4161
   85SOPE  H18R 7932   2.072   5.955   4.367  0.1944 -0.6407 -0.0604
   85SOPE  H18S 7933   1.965   5.804   4.414  0.5456 -0.8269  1.9597
   85SOPE  H18T 7934   2.028   5.840   4.244 -0.8733 -0.0786  0.4067
   85SOPE   C33 7935   2.592   5.542   3.289 -0.1537 -0.5702  0.3802
   85SOPE   H3X 7936   2.687   5.599   3.274 -0.9658  0.1316 -3.0224
   85SOPE   H3Y 7937   2.600   5.432   3.282 -0.6886 -0.6271  0.6002
   85SOPE   C34 7938   2.535   5.580   3.429  0.1640 -0.4095  0.8643
   85SOPE   H4X 7939   2.445   5.517   3.446 -1.6546  1.2570 -1.8033
   85SOPE   H4Y 7940   2.499   5.684   3.415 -0.3769 -0.5827  0.9355
   85SOPE   C35 7941   2.644   5.582   3.542  0.2568 -0.3430  0.0651
   85SOPE   H5X 7942   2.717   5.655   3.504  0.0427 -0.8356 -1.3447
   85SOPE   H5Y 7943   2.689   5.480   3.546 -0.0843 -0.5296 -0.6706
   85SOPE   C36 7944   2.584   5.616   3.684  0.5504  0.4711 -0.5793
   85SOPE   H6X 7945   2.524   5.706   3.660 -0.0604  0.1903 -0.1317
   85SOPE   H6Y 7946   2.666   5.634   3.757 -0.2418 -2.5773  1.2377
   85SOPE   C37 7947   2.497   5.501   3.733 -0.1638  0.0954 -0.3600
   85SOPE   H7X 7948   2.564   5.422   3.773 -0.2045  0.3850  0.2997
   85SOPE   H7Y 7949   2.440   5.461   3.646 -0.3230  0.2938 -0.3496
   85SOPE   C38 7950   2.400   5.538   3.843 -0.0283  0.3451 -0.1181
   85SOPE   H8X 7951   2.328   5.455   3.858  1.1790 -0.7180  0.0247
   85SOPE   H8Y 7952   2.337   5.624   3.812 -0.1102  0.4707  0.3906
   85SOPE   C39 7953   2.469   5.573   3.977  0.6191  0.5211  0.0518
   85SOPE   H9X 7954   2.389   5.606   4.046  0.4680 -3.3342  2.0321
   85SOPE   H9Y 7955   2.553   5.646   3.974  1.9116 -0.9268 -0.3824
   85SOPE  C310 7956   2.515   5.449   4.048 -0.3395 -0.3148 -0.4926
   85SOPE  H10X 7957   2.598   5.406   3.989  0.5991  1.0648 -0.2439
   85SOPE  H10Y 7958   2.426   5.383   4.047 -0.3434 -0.3162 -0.1858
   85SOPE  C311 7959   2.567   5.469   4.190  0.1420 -0.2134  0.4277
   85SOPE  H11X 7960   2.601   5.375   4.238 -0.2710 -0.1217  0.8962
   85SOPE  H11Y 7961   2.476   5.503   4.244  0.1760  0.0097  0.3489
   85SOPE  C312 7962   2.685   5.568   4.206  0.2697  0.5295  0.5620
   85SOPE  H12X 7963   2.663   5.670   4.169 -0.7638  0.6452  1.4526
   85SOPE  H12Y 7964   2.760   5.530   4.132  0.4375 -2.0647  1.9388
   85SOPE  C313 7965   2.747   5.569   4.347 -0.0601  0.2914 -0.3925
   85SOPE  H13X 7966   2.847   5.618   4.341 -0.8946  2.0002 -0.9043
   85SOPE  H13Y 7967   2.758   5.465   4.386 -1.3311  0.0595 -0.6138
   85SOPE  C314 7968   2.664   5.651   4.447  0.0657  0.5647 -0.1744
   85SOPE  H14X 7969   2.557   5.620   4.437 -0.3836  1.3219  1.8640
   85SOPE  H14Y 7970   2.670   5.759   4.424  2.8205  0.7541  0.9976
   85SOPE  C315 7971   2.704   5.630   4.596  0.4047 -0.3198 -0.6528
   85SOPE  H15X 7972   2.815   5.640   4.585  0.3087  0.7343 -0.8178
   85SOPE  H15Y 7973   2.683   5.525   4.626  1.3263 -0.4548 -0.4276
   85SOPE  C316 7974   2.654   5.739   4.684 -0.3435 -0.4101 -0.9425
   85SOPE  H16X 7975   2.546   5.738   4.709 -0.4567  2.3391 -0.9540
   85SOPE  H16Y 7976   2.664   5.841   4.641 -0.0708 -0.5385 -1.1868
   85SOPE  C317 7977   2.718   5.731   4.826 -1.1926 -0.1612 -1.3882
   85SOPE  H17X 7978   2.711   5.631   4.873  3.2160 -0.7940 -1.5747
   85SOPE  H17Y 7979   2.677   5.812   4.890  2.6153  1.1846 -0.3354
   85SOPE  C318 7980   2.871   5.767   4.825  0.4617  0.4031  0.4513
   85SOPE  H18X 7981   2.890   5.814   4.925 -0.0032 -0.9633  1.2053
   85SOPE  H18Y 7982   2.892   5.837   4.742  0.2592 -0.7735 -0.6131
   85SOPE  H18Z 7983   2.939   5.680   4.812  1.6948  1.5096 -0.8381
   86SOPE     N 7984   3.092   2.449   2.474  0.5419  0.1305 -0.2484
   86SOPE   HN1 7985   3.169   2.498   2.423  0.4658  2.4784  1.7195
   86SOPE   HN2 7986   3.095   2.350   2.443  2.3792 -0.4115  1.4101
   86SOPE   HN3 7987   2.997   2.485   2.451  0.1641  0.9911  2.3659
   86SOPE   C12 7988   3.100   2.452   2.622 -1.2083 -0.2749 -0.0057
   86SOPE  H12A 7989   3.008   2.406   2.662 -1.8749  0.4377 -0.6772
   86SOPE  H12B 7990   3.107   2.557   2.658  2.9582 -0.7424  1.0779
   86SOPE   C11 7991   3.226   2.378   2.664 -0.6582 -0.0256  0.5265
   86SOPE  H11A 7992   3.256   2.396   2.770  0.0804  2.0895  0.0011
   86SOPE  H11B 7993   3.311   2.418   2.605  0.3367 -2.8828 -0.1303
   86SOPE     P 7994   3.194   2.127   2.711  0.2555  0.4211  0.2207
   86SOPE   O13 7995   3.291   2.102   2.816 -0.3274  0.5229  0.3070
   86SOPE   O14 7996   3.163   2.005   2.625  0.8007  0.4116 -0.2698
   86SOPE   O12 7997   3.225   2.248   2.622 -0.0035  0.3812 -0.5776
   86SOPE   O11 7998   3.059   2.178   2.782 -0.9831  0.4579 -0.4284
   86SOPE    C1 7999   3.029   2.127   2.915 -0.1503  0.7863  0.4160
   86SOPE    HA 8000   2.952   2.194   2.959 -3.6035 -2.9284  0.6573
   86SOPE    HB 8001   3.118   2.143   2.978  0.6711 -1.1171 -0.1813
   86SOPE    C2 8002   2.982   1.979   2.917 -0.3697  1.3117 -0.2033
   86SOPE    HS 8003   3.060   1.922   2.862 -1.1585 -0.8592  0.8266
   86SOPE   O21 8004   2.850   1.967   2.858 -0.2054 -0.6286 -0.2320
   86SOPE   C21 8005   2.819   1.841   2.825 -0.2843  0.1740 -0.5402
   86SOPE   O22 8006   2.890   1.744   2.828  0.0599  0.2257 -0.3940
   86SOPE   C22 8007   2.683   1.835   2.759 -0.0616 -0.5498  0.4909
   86SOPE   H2R 8008   2.698   1.781   2.664  2.3455  0.1515  0.4131
   86SOPE   H2S 8009   2.653   1.939   2.734 -2.6516 -1.7263 -1.8348
   86SOPE    C3 8010   2.975   1.917   3.065 -0.1405 -0.6037 -0.3328
   86SOPE    HX 8011   2.941   1.812   3.068 -2.7778  0.1934  0.1305
   86SOPE    HY 8012   2.894   1.967   3.122 -0.3652  0.1387 -1.2760
   86SOPE   O31 8013   3.102   1.936   3.130 -0.3319  0.4137 -0.6122
   86SOPE   C31 8014   3.169   1.827   3.167 -0.6139  0.6319  0.6744
   86SOPE   O32 8015   3.124   1.713   3.151 -0.0394 -0.8952  0.9100
   86SOPE   C32 8016   3.302   1.865   3.240  0.6978  0.0762 -0.1635
   86SOPE   H2X 8017   3.288   1.959   3.298 -1.0541  1.2123 -2.2678
   86SOPE   H2Y 8018   3.371   1.877   3.154 -0.1791 -0.9612 -1.0469
   86SOPE   C23 8019   2.587   1.756   2.849  0.0287  0.5912 -0.4269
   86SOPE   H3R 8020   2.617   1.649   2.860 -1.3805  0.1958 -0.2008
   86SOPE   H3S 8021   2.487   1.753   2.801 -0.6274 -0.0593  0.9041
   86SOPE   C24 8022   2.560   1.829   2.984 -0.3205  0.7892  0.5313
   86SOPE   H4R 8023   2.491   1.762   3.040 -0.9797  2.2684  1.5643
   86SOPE   H4S 8024   2.656   1.833   3.040 -1.6416  1.0088  2.9116
   86SOPE   C25 8025   2.485   1.964   2.986  1.0957  0.3003 -0.2565
   86SOPE   H5R 8026   2.542   2.040   2.927  1.4071 -0.0382 -0.3963
   86SOPE   H5S 8027   2.384   1.956   2.939  1.0817 -2.9443  0.1260
   86SOPE   C26 8028   2.471   2.025   3.128  0.3424  0.5789 -0.7433
   86SOPE   H6R 8029   2.442   1.956   3.209  0.5633 -0.9557 -1.9168
   86SOPE   H6S 8030   2.576   2.054   3.152  0.8463 -0.6164 -1.4160
   86SOPE   C27 8031   2.369   2.135   3.123 -0.2345  0.4664 -0.4640
   86SOPE   H7R 8032   2.381   2.209   3.041  0.4584  0.8041 -0.0713
   86SOPE   H7S 8033   2.277   2.078   3.097 -0.2406 -0.1251  0.7562
   86SOPE   C28 8034   2.364   2.208   3.250  0.0403  0.5259 -0.3856
   86SOPE   H8R 8035   2.283   2.284   3.244 -1.8278 -1.2721  0.7153
   86SOPE   H8S 8036   2.337   2.135   3.329 -0.9856  3.0911  1.8072
   86SOPE   C29 8037   2.494   2.277   3.284 -0.2074 -0.9669 -0.2837
   86SOPE   H91 8038   2.517   2.360   3.214  0.1046 -1.7610 -1.1411
   86SOPE  C210 8039   2.589   2.251   3.379  0.1442  0.3336  0.7014
   86SOPE  H101 8040   2.673   2.320   3.394  1.9130 -1.4005 -0.6392
   86SOPE  C211 8041   2.588   2.132   3.482  0.2848 -0.0985  0.7937
   86SOPE  H11R 8042   2.675   2.063   3.482  0.0968 -0.3416  0.6936
   86SOPE  H11S 8043   2.502   2.066   3.455 -2.1994  2.6686  1.3305
   86SOPE  C212 8044   2.545   2.173   3.623 -0.3838 -0.2660  0.7289
   86SOPE  H12R 8045   2.447   2.224   3.614  1.1745  2.9073  0.0541
   86SOPE  H12S 8046   2.626   2.248   3.641 -0.6217  0.0271  0.5868
   86SOPE  C213 8047   2.554   2.064   3.731  0.0079 -0.0484  0.2190
   86SOPE  H13R 8048   2.657   2.023   3.736  0.2335 -0.0087 -2.7135
   86SOPE  H13S 8049   2.487   1.981   3.700 -0.1634  1.2630 -3.3705
   86SOPE  C214 8050   2.514   2.125   3.865  0.6946 -0.2203 -0.3019
   86SOPE  H14R 8051   2.410   2.163   3.870  0.0640 -2.0562  2.2976
   86SOPE  H14S 8052   2.583   2.212   3.876 -1.2981  1.2063  1.8569
   86SOPE  C215 8053   2.511   2.037   3.995 -0.8335 -0.0020  0.1434
   86SOPE  H15R 8054   2.616   2.005   4.011 -0.7055  0.4159  0.1396
   86SOPE  H15S 8055   2.453   1.945   3.971  1.9808 -1.4303 -1.7990
   86SOPE  C216 8056   2.461   2.114   4.121 -0.3659  0.1151  0.3082
   86SOPE  H16R 8057   2.364   2.069   4.150 -1.0260  0.9411 -0.5508
   86SOPE  H16S 8058   2.441   2.220   4.092 -0.9368  0.3552  1.5188
   86SOPE  C217 8059   2.553   2.109   4.242  0.3021  0.7556  0.5115
   86SOPE  H17R 8060   2.569   2.006   4.280 -0.5207  1.4079  2.7388
   86SOPE  H17S 8061   2.485   2.152   4.318  0.1805  0.7681  0.3951
   86SOPE  C218 8062   2.674   2.193   4.232  0.1225  0.3143 -0.1777
   86SOPE  H18R 8063   2.735   2.182   4.324 -0.6808 -0.6880  0.2545
   86SOPE  H18S 8064   2.642   2.298   4.219 -0.5690  0.2367  0.7329
   86SOPE  H18T 8065   2.740   2.163   4.148  0.2308  0.1116 -0.0222
   86SOPE   C33 8066   3.346   1.752   3.341  0.4617 -0.3937  1.1077
   86SOPE   H3X 8067   3.457   1.745   3.343  0.4099 -1.6777  0.8336
   86SOPE   H3Y 8068   3.318   1.655   3.293 -0.9080 -0.8753  2.8031
   86SOPE   C34 8069   3.282   1.756   3.481 -0.4435  0.1531  0.2720
   86SOPE   H4X 8070   3.175   1.752   3.453 -1.0597  2.0456  2.0916
   86SOPE   H4Y 8071   3.309   1.847   3.538 -1.0151  0.3123  0.2977
   86SOPE   C35 8072   3.339   1.639   3.559 -0.2839  0.7751 -0.5005
   86SOPE   H5X 8073   3.450   1.646   3.562  0.3825 -2.2224 -5.7675
   86SOPE   H5Y 8074   3.302   1.549   3.507  0.8127  0.5702 -0.9612
   86SOPE   C36 8075   3.277   1.635   3.701  1.3596  0.3370 -0.2049
   86SOPE   H6X 8076   3.168   1.623   3.682  1.0706  2.1204  0.1286
   86SOPE   H6Y 8077   3.295   1.730   3.755 -0.1614  0.3338  0.3649
   86SOPE   C37 8078   3.334   1.522   3.793  0.6177 -0.2998 -0.0974
   86SOPE   H7X 8079   3.443   1.532   3.812  1.1731 -2.0709 -1.9997
   86SOPE   H7Y 8080   3.324   1.426   3.739 -0.1927  0.2018 -0.8801
   86SOPE   C38 8081   3.258   1.533   3.925 -0.5732  0.0947  0.1668
   86SOPE   H8X 8082   3.150   1.552   3.913 -0.6144  0.8072  1.4549
   86SOPE   H8Y 8083   3.293   1.627   3.973 -1.4253 -0.8596  2.8324
   86SOPE   C39 8084   3.278   1.408   4.011  0.7258 -0.3360 -0.2384
   86SOPE   H9X 8085   3.248   1.314   3.959 -1.1030 -0.4272  0.9095
   86SOPE   H9Y 8086   3.211   1.403   4.099  1.6211  0.1285  0.4783
   86SOPE  C310 8087   3.426   1.387   4.051  0.4288 -0.3058 -0.6052
   86SOPE  H10X 8088   3.461   1.482   4.097 -1.8771  0.1028  0.4611
   86SOPE  H10Y 8089   3.491   1.373   3.961  0.4323 -1.4851 -0.4294
   86SOPE  C311 8090   3.440   1.269   4.144 -0.7082  0.2370 -0.5418
   86SOPE  H11X 8091   3.549   1.256   4.161 -1.1499 -0.1269  2.6429
   86SOPE  H11Y 8092   3.401   1.176   4.096  0.4330  1.3164 -3.8362
   86SOPE  C312 8093   3.391   1.291   4.282  0.0762  0.5681 -0.6982
   86SOPE  H12X 8094   3.280   1.298   4.278 -0.1172 -1.9981 -2.1018
   86SOPE  H12Y 8095   3.426   1.388   4.324  0.2532  0.0542  0.3720
   86SOPE  C313 8096   3.435   1.178   4.377 -0.6869 -0.4406  0.4761
   86SOPE  H13X 8097   3.546   1.172   4.376 -0.7302 -1.5734 -0.5144
   86SOPE  H13Y 8098   3.392   1.081   4.342 -0.2403 -0.4965  0.0709
   86SOPE  C314 8099   3.382   1.198   4.519  0.1804 -0.5094  0.0915
   86SOPE  H14X 8100   3.275   1.228   4.522  0.2772 -0.1098  3.5212
   86SOPE  H14Y 8101   3.433   1.282   4.570 -0.7028  0.0844  0.0217
   86SOPE  C315 8102   3.395   1.077   4.616  0.7005 -0.1259 -0.3765
   86SOPE  H15X 8103   3.493   1.031   4.593  0.7037 -1.1196  1.4137
   86SOPE  H15Y 8104   3.312   1.008   4.590 -2.2615  1.7780  3.1598
   86SOPE  C316 8105   3.387   1.122   4.766  0.4287 -0.6417  0.1229
   86SOPE  H16X 8106   3.283   1.155   4.788  0.7040  1.7960 -1.8188
   86SOPE  H16Y 8107   3.452   1.209   4.788 -0.5515  0.6368 -1.7689
   86SOPE  C317 8108   3.428   1.004   4.853 -0.1633 -0.1043  0.3863
   86SOPE  H17X 8109   3.519   0.961   4.806 -0.1535  0.0071  0.3034
   86SOPE  H17Y 8110   3.350   0.925   4.840 -1.4498  1.0589  0.7734
   86SOPE  C318 8111   3.439   1.039   5.002  0.1412 -0.2933 -0.5125
   86SOPE  H18X 8112   3.519   1.115   5.012 -1.0508  1.1884 -1.8372
   86SOPE  H18Y 8113   3.471   0.945   5.053  0.2648 -0.3847 -0.7597
   86SOPE  H18Z 8114   3.344   1.086   5.033  0.0059 -0.7735 -0.1875
   87SOPE     N 8115   6.069   0.731   2.339 -0.0806  1.0787  0.0025
   87SOPE   HN1 8116   6.101   0.829   2.326 -0.8255  2.0029  3.9630
   87SOPE   HN2 8117   6.145   0.671   2.301 -0.7041  1.1936 -1.4977
   87SOPE   HN3 8118   5.986   0.719   2.279 -1.1241  1.2006  1.3865
   87SOPE   C12 8119   6.030   0.702   2.478 -0.3056 -1.1433 -0.0257
   87SOPE  H12A 8120   5.923   0.732   2.490 -0.5578 -2.2290  0.5962
   87SOPE  H12B 8121   6.090   0.759   2.553 -0.9597  0.7958 -0.9142
   87SOPE   C11 8122   6.039   0.549   2.497  0.5124  0.3200 -0.2349
   87SOPE  H11A 8123   5.953   0.500   2.447  0.4468  0.8250 -0.6248
   87SOPE  H11B 8124   6.037   0.525   2.605  1.2915  0.4035 -0.1914
   87SOPE     P 8125   6.204   0.344   2.466 -0.3433 -0.0870  0.6339
   87SOPE   O13 8126   6.333   0.312   2.393 -0.3518 -0.0453 -0.1587
   87SOPE   O14 8127   6.088   0.256   2.429 -0.2348 -0.0826 -0.8052
   87SOPE   O12 8128   6.166   0.499   2.452  0.3543 -0.2564  0.1388
   87SOPE   O11 8129   6.238   0.337   2.618 -0.4260  0.2501  0.7828
   87SOPE    C1 8130   6.338   0.422   2.678 -0.3245 -0.0941 -0.0059
   87SOPE    HA 8131   6.310   0.529   2.665 -0.2914  0.1860  1.8827
   87SOPE    HB 8132   6.438   0.409   2.632  0.0669  0.6796  0.5857
   87SOPE    C2 8133   6.350   0.405   2.832  0.1659  0.1720 -0.1135
   87SOPE    HS 8134   6.395   0.309   2.866 -0.2547 -0.2181 -0.6387
   87SOPE   O21 8135   6.219   0.433   2.878  0.0185  0.0081 -0.3889
   87SOPE   C21 8136   6.164   0.333   2.948  0.0099  0.0954  0.2970
   87SOPE   O22 8137   6.216   0.226   2.975  0.3695 -0.0301  0.7497
   87SOPE   C22 8138   6.033   0.380   3.003  0.2436  0.2962  0.8172
   87SOPE   H2R 8139   6.034   0.487   3.030 -1.4448  0.5220  0.0763
   87SOPE   H2S 8140   6.014   0.326   3.098 -1.8061  1.0298  0.8630
   87SOPE    C3 8141   6.430   0.526   2.909 -0.5480  0.0377 -0.3479
   87SOPE    HX 8142   6.388   0.620   2.866 -2.6956 -0.3254  0.8093
   87SOPE    HY 8143   6.537   0.512   2.884 -1.1522 -1.1628 -2.6175
   87SOPE   O31 8144   6.412   0.530   3.046  0.0495  0.5717 -0.1317
   87SOPE   C31 8145   6.473   0.441   3.117  0.5177 -0.4438 -0.5267
   87SOPE   O32 8146   6.555   0.360   3.085 -0.2778 -0.2833 -0.2674
   87SOPE   C32 8147   6.419   0.462   3.265  0.5210 -0.9645  0.1352
   87SOPE   H2X 8148   6.328   0.399   3.271 -0.9753  0.9168 -1.4376
   87SOPE   H2Y 8149   6.388   0.568   3.278  1.8615 -0.6188  0.7546
   87SOPE   C23 8150   5.911   0.353   2.908 -0.3513 -0.7272  0.2414
   87SOPE   H3R 8151   5.920   0.405   2.810  1.6573  0.1908  0.8663
   87SOPE   H3S 8152   5.828   0.392   2.971  2.0856  0.5384  2.8401
   87SOPE   C24 8153   5.900   0.202   2.884 -0.5512  0.0857 -0.4345
   87SOPE   H4R 8154   5.989   0.159   2.835  0.7387 -1.6108  3.0308
   87SOPE   H4S 8155   5.885   0.153   2.983 -2.6562  0.9972 -0.2395
   87SOPE   C25 8156   5.774   0.162   2.805  0.2736 -0.8047 -0.0921
   87SOPE   H5R 8157   5.786   0.202   2.702  2.3809 -0.5972  0.1782
   87SOPE   H5S 8158   5.759   0.052   2.801  0.3246 -0.7846 -1.1029
   87SOPE   C26 8159   5.645   0.235   2.840 -0.3399 -0.0252 -1.2476
   87SOPE   H6R 8160   5.635   0.236   2.951  1.4715  2.6907 -1.0115
   87SOPE   H6S 8161   5.653   0.344   2.824 -1.3308  0.2086 -0.2915
   87SOPE   C27 8162   5.523   0.173   2.783 -0.0011 -0.2507 -0.1274
   87SOPE   H7R 8163   5.548   0.131   2.683  0.8577  0.8074 -0.3761
   87SOPE   H7S 8164   5.490   0.085   2.843 -0.3825 -0.2602 -0.3508
   87SOPE   C28 8165   5.414   0.287   2.776 -0.4912 -0.2115 -0.3240
   87SOPE   H8R 8166   5.416   0.356   2.862  1.9407 -1.1144  0.4106
   87SOPE   H8S 8167   5.434   0.349   2.686  1.3717  0.0505  0.2309
   87SOPE   C29 8168   5.276   0.226   2.782  0.1475  0.5940 -0.0220
   87SOPE   H91 8169   5.268   0.128   2.732 -1.5767  1.7479 -2.1934
   87SOPE  C210 8170   5.167   0.271   2.845  0.4096  0.7489  0.6536
   87SOPE  H101 8171   5.081   0.202   2.845  0.3970  0.7268 -0.9320
   87SOPE  C211 8172   5.141   0.401   2.921 -0.4149 -0.6858  0.1424
   87SOPE  H11R 8173   5.058   0.458   2.874  1.5676  1.8333 -0.5196
   87SOPE  H11S 8174   5.234   0.462   2.909 -1.2902  0.1581 -3.6485
   87SOPE  C212 8175   5.111   0.360   3.067  0.2052 -0.3205 -0.1712
   87SOPE  H12R 8176   5.101   0.454   3.125  0.9234  0.6299 -1.5489
   87SOPE  H12S 8177   5.192   0.296   3.109  1.7383  1.1163 -0.8540
   87SOPE  C213 8178   4.978   0.299   3.081  0.0408 -0.0696 -0.0301
   87SOPE  H13R 8179   4.963   0.209   3.017 -1.2023  0.3437 -0.3307
   87SOPE  H13S 8180   4.907   0.375   3.043 -0.7161  0.4941  2.3222
   87SOPE  C214 8181   4.939   0.274   3.228 -0.0205  0.8655  0.0896
   87SOPE  H14R 8182   4.971   0.178   3.275  0.4951  2.0223  2.2294
   87SOPE  H14S 8183   4.829   0.261   3.233  0.0328 -0.4654 -1.3263
   87SOPE  C215 8184   4.980   0.392   3.326 -0.3375 -0.3901 -0.5165
   87SOPE  H15R 8185   4.939   0.485   3.282 -1.0960 -1.1132 -1.3784
   87SOPE  H15S 8186   5.091   0.387   3.338 -0.1370  0.4624 -1.7940
   87SOPE  C216 8187   4.917   0.387   3.466 -0.7537  1.0649  0.5206
   87SOPE  H16R 8188   4.809   0.413   3.456 -1.6386 -1.3313  2.6041
   87SOPE  H16S 8189   4.942   0.478   3.526 -4.1832  1.2379  1.9188
   87SOPE  C217 8190   4.931   0.254   3.549 -0.8819  0.0403 -0.4942
   87SOPE  H17R 8191   5.037   0.250   3.584 -1.8336  0.2984  2.7205
   87SOPE  H17S 8192   4.928   0.163   3.485 -0.3921 -1.4658  1.4864
   87SOPE  C218 8193   4.839   0.244   3.672  0.4066  0.7157  0.0413
   87SOPE  H18R 8194   4.729   0.254   3.660  0.1429  0.1960  1.6929
   87SOPE  H18S 8195   4.866   0.321   3.748  3.8706  0.9585 -1.2521
   87SOPE  H18T 8196   4.843   0.140   3.711  2.1710  1.3175  1.6770
   87SOPE   C33 8197   6.528   0.437   3.378 -0.5058  0.0991 -0.3542
   87SOPE   H3X 8198   6.610   0.510   3.360 -2.1449  2.5710  1.5800
   87SOPE   H3Y 8199   6.562   0.331   3.369 -2.8643 -0.7041 -0.3207
   87SOPE   C34 8200   6.475   0.457   3.523  0.0802 -0.1003 -0.3794
   87SOPE   H4X 8201   6.376   0.410   3.534  1.3813 -2.5785  1.9311
   87SOPE   H4Y 8202   6.459   0.566   3.538 -0.3793 -0.0401 -1.2472
   87SOPE   C35 8203   6.568   0.398   3.635 -0.2318  0.1317 -0.0234
   87SOPE   H5X 8204   6.674   0.427   3.618  0.3039 -2.1333 -0.8501
   87SOPE   H5Y 8205   6.575   0.287   3.638 -0.3028 -0.1022 -3.8738
   87SOPE   C36 8206   6.541   0.470   3.768 -0.0511  0.3475 -0.0605
   87SOPE   H6X 8207   6.520   0.579   3.760  0.7237  0.4383 -0.9789
   87SOPE   H6Y 8208   6.634   0.467   3.827 -1.5798  2.7954  2.7092
   87SOPE   C37 8209   6.418   0.413   3.850 -0.9320  0.3227  0.7550
   87SOPE   H7X 8210   6.437   0.305   3.872 -1.5318  0.0196 -0.1245
   87SOPE   H7Y 8211   6.324   0.431   3.793 -0.4594  0.7345  0.0998
   87SOPE   C38 8212   6.401   0.484   3.987  0.3638  0.0901  0.1229
   87SOPE   H8X 8213   6.504   0.493   4.026  0.1952  0.9783  0.3667
   87SOPE   H8Y 8214   6.345   0.407   4.045 -0.5704  0.9885  0.4291
   87SOPE   C39 8215   6.332   0.620   3.979  0.1900 -0.4908  0.3420
   87SOPE   H9X 8216   6.259   0.626   3.895  2.0176  0.1510 -1.2929
   87SOPE   H9Y 8217   6.411   0.698   3.969  0.6425 -1.0852 -0.9112
   87SOPE  C310 8218   6.250   0.636   4.110  0.5765 -0.0569 -0.6691
   87SOPE  H10X 8219   6.319   0.636   4.197  2.9773  1.5682 -2.4281
   87SOPE  H10Y 8220   6.178   0.552   4.122  0.6118 -0.4630 -2.8300
   87SOPE  C311 8221   6.163   0.763   4.123 -0.2444  0.9346  0.3945
   87SOPE  H11X 8222   6.090   0.764   4.039 -1.5863 -0.0126  1.4851
   87SOPE  H11Y 8223   6.231   0.850   4.120  0.0168  0.7531  0.9547
   87SOPE  C312 8224   6.078   0.762   4.245  1.2510  0.3770 -0.1556
   87SOPE  H12X 8225   6.147   0.762   4.332 -0.8170  1.9145  1.5737
   87SOPE  H12Y 8226   6.014   0.672   4.253 -0.4382  1.6523  1.5826
   87SOPE  C313 8227   5.981   0.886   4.235 -0.2053  0.4478 -0.3832
   87SOPE  H13X 8228   5.921   0.898   4.328  1.4921 -0.5960  0.9147
   87SOPE  H13Y 8229   5.921   0.873   4.142 -0.5316 -0.9107 -0.0111
   87SOPE  C314 8230   6.060   1.013   4.223 -0.1533  0.3394  0.9602
   87SOPE  H14X 8231   5.986   1.095   4.235 -0.0820  0.2535  2.0447
   87SOPE  H14Y 8232   6.115   1.031   4.128  1.1254  0.8039  1.7679
   87SOPE  C315 8233   6.177   1.034   4.323 -0.1432  1.1660 -0.7443
   87SOPE  H15X 8234   6.234   1.128   4.309  1.0103  0.8544  1.4274
   87SOPE  H15Y 8235   6.257   0.959   4.302 -2.5054 -1.5304 -0.8215
   87SOPE  C316 8236   6.133   1.026   4.467 -0.3269 -0.7658 -0.4492
   87SOPE  H16X 8237   6.221   1.022   4.535 -0.9600  1.5236  0.6183
   87SOPE  H16Y 8238   6.065   0.941   4.489 -2.3772  0.8924 -0.0693
   87SOPE  C317 8239   6.048   1.150   4.505 -0.0614 -0.4731 -0.1899
   87SOPE  H17X 8240   5.968   1.166   4.430  1.6328  0.8314 -1.8310
   87SOPE  H17Y 8241   6.105   1.245   4.505  0.0994 -0.4888  2.2029
   87SOPE  C318 8242   5.994   1.153   4.649 -0.5848  0.2586 -0.1861
   87SOPE  H18X 8243   5.927   1.065   4.662 -0.7092  0.4845  0.7492
   87SOPE  H18Y 8244   5.946   1.250   4.672  1.3022  0.9456  1.0938
   87SOPE  H18Z 8245   6.076   1.142   4.724 -0.4484  1.7931 -0.0761
   88SOPE     N 8246   0.177   1.616   1.912 -0.3739 -0.7925 -0.2251
   88SOPE   HN1 8247   0.236   1.701   1.922  0.3593 -1.4583  1.4868
   88SOPE   HN2 8248   0.218   1.565   1.832 -0.7425  0.1611 -1.0405
   88SOPE   HN3 8249   0.076   1.640   1.906  0.0462  1.3897  0.4568
   88SOPE   C12 8250   0.196   1.539   2.047 -0.4323 -0.3423 -0.0391
   88SOPE  H12A 8251   0.302   1.554   2.074 -0.8333 -0.9321  2.0257
   88SOPE  H12B 8252   0.168   1.433   2.030 -1.8433  0.2709 -1.9663
   88SOPE   C11 8253   0.100   1.595   2.155 -0.0094 -0.8269  0.4975
   88SOPE  H11A 8254   0.137   1.697   2.175 -2.8457  0.7387 -1.3960
   88SOPE  H11B 8255   0.103   1.538   2.250  1.4259  1.3326  1.8278
   88SOPE     P 8256  -0.157   1.525   2.129 -0.4823 -0.3574  0.2162
   88SOPE   O13 8257  -0.112   1.384   2.133  0.3789  0.3606  0.2140
   88SOPE   O14 8258  -0.251   1.566   2.023 -0.3162 -0.1389  0.3460
   88SOPE   O12 8259  -0.032   1.613   2.105 -0.5479  0.5456  0.4296
   88SOPE   O11 8260  -0.219   1.577   2.268 -0.2119  0.0260  0.4497
   88SOPE    C1 8261  -0.254   1.718   2.278 -0.2761 -0.4059  0.5309
   88SOPE    HA 8262  -0.338   1.728   2.351 -1.4994  0.1288 -0.9093
   88SOPE    HB 8263  -0.293   1.748   2.179  0.8110 -0.3800  0.0936
   88SOPE    C2 8264  -0.139   1.807   2.321  0.0364  0.0733  0.2742
   88SOPE    HS 8265  -0.071   1.812   2.233 -0.7972  3.1807 -0.2878
   88SOPE   O21 8266  -0.067   1.761   2.432 -0.1850 -0.4128  0.1417
   88SOPE   C21 8267   0.059   1.790   2.430 -0.3230 -0.1663  0.5255
   88SOPE   O22 8268   0.118   1.867   2.356  0.3768  0.3277 -0.3981
   88SOPE   C22 8269   0.126   1.712   2.529 -0.6736  0.0398 -0.1729
   88SOPE   H2R 8270   0.230   1.687   2.497  0.3441  0.9514  2.1604
   88SOPE   H2S 8271   0.056   1.629   2.551 -1.8527  0.3683 -2.4230
   88SOPE    C3 8272  -0.198   1.950   2.342  0.0169 -0.2305  0.2185
   88SOPE    HX 8273  -0.196   1.994   2.240  1.8719  2.1502  1.1594
   88SOPE    HY 8274  -0.120   2.010   2.395  0.6347  1.8735 -2.8088
   88SOPE   O31 8275  -0.324   1.943   2.411 -0.8336  0.2210 -1.0184
   88SOPE   C31 8276  -0.385   2.061   2.388 -0.3771 -0.3467 -0.8496
   88SOPE   O32 8277  -0.333   2.165   2.360 -0.1088 -0.3910 -0.4570
   88SOPE   C32 8278  -0.533   2.047   2.428  0.0761  0.7722 -0.1856
   88SOPE   H2X 8279  -0.572   1.947   2.399  0.2052  0.4640  0.6805
   88SOPE   H2Y 8280  -0.593   2.124   2.376  0.1941  0.8067 -0.2728
   88SOPE   C23 8281   0.168   1.806   2.645 -0.4373 -0.1883  0.1998
   88SOPE   H3R 8282   0.188   1.905   2.599  1.5007 -0.9257 -0.6654
   88SOPE   H3S 8283   0.267   1.777   2.686 -0.5649 -0.5864  0.2322
   88SOPE   C24 8284   0.058   1.817   2.758  0.3097  0.1965 -0.5127
   88SOPE   H4R 8285   0.107   1.881   2.834 -1.9138  1.3022  0.0790
   88SOPE   H4S 8286  -0.032   1.877   2.731  1.0612  1.7091  0.2216
   88SOPE   C25 8287   0.004   1.682   2.815  0.2900 -0.2190 -0.2815
   88SOPE   H5R 8288  -0.060   1.696   2.905 -0.2189 -1.5142 -0.4247
   88SOPE   H5S 8289  -0.061   1.643   2.734  2.5531 -2.1075 -1.2953
   88SOPE   C26 8290   0.111   1.575   2.841 -0.0802  0.3303  0.1834
   88SOPE   H6R 8291   0.164   1.534   2.752 -0.1785 -0.3118  0.4106
   88SOPE   H6S 8292   0.188   1.627   2.902 -0.3361  0.0323  0.7645
   88SOPE   C27 8293   0.043   1.460   2.919  0.1860 -0.1194  0.3467
   88SOPE   H7R 8294   0.004   1.499   3.015 -2.8950 -0.9967 -0.4410
   88SOPE   H7S 8295  -0.050   1.439   2.863 -0.2011  2.1605  0.0402
   88SOPE   C28 8296   0.132   1.344   2.955 -0.2580  0.0009 -0.4543
   88SOPE   H8R 8297   0.172   1.294   2.864  0.5344  0.6869 -0.5014
   88SOPE   H8S 8298   0.228   1.375   3.001 -0.5601 -0.4247  0.4785
   88SOPE   C29 8299   0.057   1.258   3.053 -0.5192  1.3250 -0.5555
   88SOPE   H91 8300   0.049   1.295   3.157 -0.1106 -0.0973  0.0024
   88SOPE  C210 8301  -0.018   1.150   3.025  0.0588 -0.0159  1.0572
   88SOPE  H101 8302  -0.081   1.104   3.102 -0.2686 -2.5115 -0.5664
   88SOPE  C211 8303  -0.022   1.067   2.896 -0.8737  0.3946 -0.1974
   88SOPE  H11R 8304   0.016   0.966   2.922  0.8170  1.1903  0.6282
   88SOPE  H11S 8305   0.061   1.103   2.831  1.1264 -3.0843  0.1612
   88SOPE  C212 8306  -0.154   1.078   2.818  0.0826  0.2354 -0.0269
   88SOPE  H12R 8307  -0.175   1.184   2.792  0.9538  0.2794 -0.5885
   88SOPE  H12S 8308  -0.244   1.042   2.872  0.2154  1.9800  1.4393
   88SOPE  C213 8309  -0.143   0.997   2.680 -0.3667  0.0602 -0.1927
   88SOPE  H13R 8310  -0.139   0.890   2.710 -0.6812 -0.1882 -0.9930
   88SOPE  H13S 8311  -0.041   1.020   2.642 -0.1870 -0.8043 -0.2589
   88SOPE  C214 8312  -0.241   1.029   2.572 -0.1084 -0.2182  0.2869
   88SOPE  H14R 8313  -0.344   0.999   2.600  0.6295 -2.5001  0.7396
   88SOPE  H14S 8314  -0.217   0.973   2.479  2.0105  0.4824  0.3546
   88SOPE  C215 8315  -0.238   1.174   2.524 -0.2893 -0.1572 -0.4149
   88SOPE  H15R 8316  -0.251   1.237   2.614  2.7825  1.1368 -0.7493
   88SOPE  H15S 8317  -0.323   1.203   2.459  0.2617  0.6126 -0.8182
   88SOPE  C216 8318  -0.114   1.228   2.454 -0.9661  0.1714 -0.2550
   88SOPE  H16R 8319  -0.148   1.317   2.396 -0.0303  1.9264  1.7545
   88SOPE  H16S 8320  -0.068   1.154   2.386  1.0917 -0.7784  2.0262
   88SOPE  C217 8321  -0.018   1.295   2.552  0.2590  0.0526 -0.5147
   88SOPE  H17R 8322   0.012   1.221   2.630  2.0218  1.0315 -0.2171
   88SOPE  H17S 8323  -0.064   1.377   2.612 -0.3166 -0.9479  0.4679
   88SOPE  C218 8324   0.110   1.339   2.489  0.3180  0.2749 -0.4046
   88SOPE  H18R 8325   0.163   1.250   2.450  3.0268  1.3235  0.6454
   88SOPE  H18S 8326   0.187   1.387   2.553  0.2927 -0.5800  0.2785
   88SOPE  H18T 8327   0.084   1.413   2.410 -0.4749 -0.4201 -0.8115
   88SOPE   C33 8328  -0.563   2.078   2.577  0.9305 -0.5216 -0.6399
   88SOPE   H3X 8329  -0.672   2.061   2.591  1.3256 -1.4684  1.8084
   88SOPE   H3Y 8330  -0.529   2.181   2.600 -1.8107  0.3121  0.0853
   88SOPE   C34 8331  -0.506   1.980   2.680 -1.2074  0.5549 -0.1483
   88SOPE   H4X 8332  -0.395   1.979   2.670 -1.2774  1.2196 -1.2456
   88SOPE   H4Y 8333  -0.531   1.874   2.660 -0.2533 -0.2667  2.6243
   88SOPE   C35 8334  -0.552   2.006   2.828  0.1008  0.2277 -0.5401
   88SOPE   H5X 8335  -0.554   2.111   2.862 -2.6712 -0.4119  1.5387
   88SOPE   H5Y 8336  -0.478   1.954   2.893  1.6178 -0.3324 -2.5832
   88SOPE   C36 8337  -0.695   1.955   2.852  0.1625  0.3003 -0.4191
   88SOPE   H6X 8338  -0.725   1.857   2.808 -1.7970  0.2647  0.8559
   88SOPE   H6Y 8339  -0.767   2.019   2.797 -0.4437 -0.4266 -0.4886
   88SOPE   C37 8340  -0.749   1.963   2.995  0.9237 -0.9637  0.2845
   88SOPE   H7X 8341  -0.860   1.958   2.985  1.1360 -1.8704 -2.9815
   88SOPE   H7Y 8342  -0.733   2.068   3.024  2.8203 -0.4375 -2.3013
   88SOPE   C38 8343  -0.681   1.872   3.096 -0.2728  0.2129  0.1688
   88SOPE   H8X 8344  -0.573   1.896   3.098 -0.3839  0.7338  0.1854
   88SOPE   H8Y 8345  -0.691   1.763   3.080  1.7632 -0.2498  1.7210
   88SOPE   C39 8346  -0.735   1.894   3.232  0.4307 -0.1852 -0.1110
   88SOPE   H9X 8347  -0.841   1.859   3.230  0.3955 -0.5404  3.3090
   88SOPE   H9Y 8348  -0.740   2.003   3.256  1.6568 -0.7229  2.9459
   88SOPE  C310 8349  -0.665   1.808   3.332  0.3131  0.0208 -0.6989
   88SOPE  H10X 8350  -0.559   1.840   3.329 -0.0940  1.3468 -2.2467
   88SOPE  H10Y 8351  -0.665   1.703   3.295  0.2804 -0.4086  0.4914
   88SOPE  C311 8352  -0.733   1.810   3.476  0.1417  0.3399 -0.2537
   88SOPE  H11X 8353  -0.837   1.774   3.481  0.0036  0.6474 -0.8477
   88SOPE  H11Y 8354  -0.735   1.912   3.522 -1.3913  0.3603 -0.3370
   88SOPE  C312 8355  -0.652   1.728   3.576  0.0438 -0.1777 -0.6179
   88SOPE  H12X 8356  -0.630   1.624   3.541  1.9344  0.0538 -0.2469
   88SOPE  H12Y 8357  -0.715   1.729   3.667 -0.2718 -1.1575 -0.8170
   88SOPE  C313 8358  -0.516   1.789   3.614  0.3399 -0.7843 -0.6304
   88SOPE  H13X 8359  -0.526   1.895   3.645 -0.7786 -0.8742 -0.6338
   88SOPE  H13Y 8360  -0.455   1.798   3.522 -0.0975  0.8755 -0.7982
   88SOPE  C314 8361  -0.450   1.718   3.735 -0.2948 -0.3898  0.3146
   88SOPE  H14X 8362  -0.437   1.608   3.733  0.6137 -0.2803 -0.8656
   88SOPE  H14Y 8363  -0.507   1.761   3.820  0.8429  0.6442  0.5895
   88SOPE  C315 8364  -0.307   1.770   3.757  0.1155  0.6692 -0.2780
   88SOPE  H15X 8365  -0.238   1.722   3.685 -0.9620  1.4585 -1.9021
   88SOPE  H15Y 8366  -0.261   1.730   3.850 -1.8632 -0.5915  0.2258
   88SOPE  C316 8367  -0.284   1.924   3.745  0.0462 -0.2286  0.0627
   88SOPE  H16X 8368  -0.375   1.974   3.784  1.0662  0.5394  1.5378
   88SOPE  H16Y 8369  -0.295   1.962   3.641 -5.0866 -0.2467  0.3578
   88SOPE  C317 8370  -0.165   1.988   3.809  0.1954 -0.3902 -0.1008
   88SOPE  H17X 8371  -0.067   1.981   3.757  1.0318 -0.1325  1.3796
   88SOPE  H17Y 8372  -0.146   1.946   3.910 -0.0653  0.0379  0.1331
   88SOPE  C318 8373  -0.175   2.128   3.841  0.0348  0.1360 -0.2464
   88SOPE  H18X 8374  -0.204   2.188   3.752  0.3393 -0.3697 -0.6883
   88SOPE  H18Y 8375  -0.091   2.174   3.897 -1.7587  1.0707  1.8590
   88SOPE  H18Z 8376  -0.264   2.141   3.907 -0.7669 -1.8072 -0.8807
   89SAPC     N 8377   3.068   3.099   6.823  0.0637 -0.5572 -0.2142
   89SAPC   C12 8378   3.033   3.120   6.679  0.3501  0.3193  0.5352
   89SAPC  H12A 8379   3.112   3.170   6.624 -0.8235  0.9102 -0.6600
   89SAPC  H12B 8380   2.944   3.180   6.672  0.1611 -0.1584 -2.3186
   89SAPC   C13 8381   3.206   3.041   6.837  0.0058 -0.0590 -0.4525
   89SAPC  H13A 8382   3.215   2.959   6.766 -0.4400 -1.3543  0.9392
   89SAPC  H13B 8383   3.286   3.110   6.815  1.1779 -1.8769 -2.2995
   89SAPC  H13C 8384   3.216   2.999   6.936 -0.6500 -0.4860 -0.5613
   89SAPC   C14 8385   3.072   3.236   6.888  0.7153  0.1161  0.2892
   89SAPC  H14A 8386   3.156   3.291   6.849 -0.2898  1.2852 -0.3060
   89SAPC  H14B 8387   2.991   3.294   6.846  0.0230 -1.3599 -0.4841
   89SAPC  H14C 8388   3.070   3.234   6.996 -2.5111 -0.7676  0.3273
   89SAPC   C15 8389   2.967   3.012   6.898  0.4072  0.1994 -0.2814
   89SAPC  H15A 8390   2.991   3.020   7.002  1.3127 -2.3961 -0.2112
   89SAPC  H15B 8391   2.862   3.036   6.884 -0.4553 -0.8251  3.4208
   89SAPC  H15C 8392   2.976   2.907   6.874  2.2109  0.4004 -0.5732
   89SAPC   C11 8393   3.001   2.989   6.594 -0.9694 -0.6462 -0.1985
   89SAPC  H11A 8394   2.933   3.013   6.509  1.0868 -0.2473 -1.8046
   89SAPC  H11B 8395   2.944   2.920   6.660  2.5986 -2.1580  1.5536
   89SAPC     P 8396   3.197   2.974   6.430 -0.0666  0.5626  0.3371
   89SAPC   O13 8397   3.312   3.055   6.481  0.3103  0.1205 -0.3429
   89SAPC   O14 8398   3.227   2.861   6.341  0.1709  0.1863 -0.0074
   89SAPC   O12 8399   3.115   2.920   6.554  0.6971 -0.3736 -0.4364
   89SAPC   O11 8400   3.100   3.077   6.365  0.5371 -1.1350  0.3273
   89SAPC    C1 8401   3.011   3.052   6.247  0.7782 -0.5521 -0.1193
   89SAPC    HA 8402   2.987   2.944   6.235  2.4003 -0.7609 -1.8258
   89SAPC    HB 8403   2.918   3.113   6.255  2.0662  2.1255 -3.2990
   89SAPC    C2 8404   3.080   3.081   6.115 -0.3487 -0.5560 -0.6100
   89SAPC    HS 8405   3.154   2.998   6.103 -1.1918 -1.3703 -0.3108
   89SAPC   O21 8406   3.130   3.215   6.126  0.0551  0.3428  0.3035
   89SAPC   C21 8407   3.261   3.231   6.095  0.1914 -0.2808 -0.0574
   89SAPC   O22 8408   3.340   3.139   6.078  0.2997 -0.0185  0.1221
   89SAPC   C22 8409   3.301   3.381   6.098  0.2608  0.6292  0.0624
   89SAPC   H2R 8410   3.299   3.420   6.201  1.2960  0.3857  0.1910
   89SAPC   H2S 8411   3.407   3.386   6.066  0.1765 -2.0214 -0.9468
   89SAPC    C3 8412   2.984   3.072   5.996 -0.5241  0.1711 -0.2807
   89SAPC    HX 8413   2.887   3.123   6.016 -0.6013  0.2031 -0.7231
   89SAPC    HY 8414   2.962   2.965   5.978  2.3837 -0.4011 -0.9983
   89SAPC   O31 8415   3.034   3.132   5.878  0.1814 -0.5088 -0.0073
   89SAPC   C31 8416   3.103   3.044   5.799  0.2674 -1.0192  0.0076
   89SAPC   O32 8417   3.126   2.929   5.833  0.4290 -0.3101 -0.4299
   89SAPC   C32 8418   3.169   3.117   5.685 -0.2681  0.2294 -0.2247
   89SAPC   H2X 8419   3.270   3.142   5.723  0.8505 -3.6314 -0.2196
   89SAPC   H2Y 8420   3.105   3.201   5.650  0.4300  0.7058 -0.3720
   89SAPC   C23 8421   3.206   3.467   6.011 -0.4576 -0.0337  0.3924
   89SAPC   H3R 8422   3.116   3.486   6.072 -0.2545 -1.0001  1.0206
   89SAPC   H3S 8423   3.180   3.412   5.918  0.6926 -0.4330  0.2853
   89SAPC   C24 8424   3.249   3.608   5.969 -0.3963  0.2820 -0.5773
   89SAPC   H4R 8425   3.258   3.665   6.064 -2.3708 -2.2056  1.2691
   89SAPC   H4S 8426   3.158   3.650   5.922 -0.1639  1.9154  0.3536
   89SAPC   C25 8427   3.365   3.611   5.884 -0.3346  0.3894  0.5526
   89SAPC   H5R 8428   3.464   3.599   5.932  0.0317  0.1607 -0.2531
   89SAPC   C26 8429   3.360   3.617   5.752  0.2669  0.2354 -0.1384
   89SAPC   H6R 8430   3.454   3.600   5.698 -0.0068  1.6019 -1.1105
   89SAPC   C27 8431   3.241   3.628   5.669  0.5425 -0.1967  0.4150
   89SAPC   H7R 8432   3.260   3.675   5.570 -2.5948  1.0096  0.2625
   89SAPC   H7S 8433   3.169   3.704   5.706 -1.4979 -1.5622 -0.5829
   89SAPC   C28 8434   3.164   3.499   5.633  0.2576  0.1059 -0.5724
   89SAPC   H8R 8435   3.105   3.469   5.721  2.5696  0.5937  1.2670
   89SAPC   C29 8436   3.164   3.444   5.509 -0.0373 -0.0942 -0.7960
   89SAPC   H9R 8437   3.121   3.344   5.495  0.1324 -0.3745  0.5200
   89SAPC  C210 8438   3.236   3.503   5.393 -0.1831  0.0356 -0.8828
   89SAPC  H10R 8439   3.263   3.410   5.337  0.1821 -0.7424  0.5294
   89SAPC  H10S 8440   3.327   3.551   5.434  0.5082 -2.7640  1.2247
   89SAPC  C211 8441   3.157   3.601   5.312 -0.8943  0.0505  0.0667
   89SAPC  H11R 8442   3.060   3.628   5.356 -0.5178 -0.1242  1.0268
   89SAPC  C212 8443   3.191   3.654   5.192 -0.0080 -0.2499 -0.9422
   89SAPC  H12R 8444   3.124   3.730   5.148  2.4559  1.5214 -1.8625
   89SAPC  C213 8445   3.311   3.610   5.109  0.3488 -0.3947 -0.0620
   89SAPC  H13R 8446   3.288   3.525   5.042 -1.0909 -1.0924  1.2349
   89SAPC  H13S 8447   3.383   3.577   5.186 -1.7384 -0.7890  1.8498
   89SAPC  C214 8448   3.373   3.725   5.036 -0.0291  0.3003 -0.1939
   89SAPC  H14R 8449   3.302   3.776   4.970 -2.5607  0.3857  2.4214
   89SAPC  C215 8450   3.493   3.784   5.056  0.2666 -0.6093 -0.0616
   89SAPC  H15R 8451   3.531   3.868   4.997 -1.0557  1.3692  1.7299
   89SAPC  C216 8452   3.603   3.737   5.157 -0.8758  0.1091 -0.0117
   89SAPC  H16R 8453   3.693   3.715   5.097  1.0650  2.2611  1.9057
   89SAPC  H16S 8454   3.575   3.641   5.207  1.1052 -1.5013 -1.8044
   89SAPC  C217 8455   3.628   3.839   5.266 -0.7684  0.5086 -0.3162
   89SAPC  H17R 8456   3.532   3.847   5.321 -0.3475  1.9798  0.2554
   89SAPC  H17S 8457   3.663   3.936   5.225 -1.0773  0.7620  0.0202
   89SAPC  C218 8458   3.731   3.792   5.376 -0.1476 -1.1747  0.2507
   89SAPC  H18R 8459   3.826   3.771   5.322  0.2638 -1.1937  0.9629
   89SAPC  H18S 8460   3.702   3.698   5.428 -5.5204  0.2204  0.2996
   89SAPC  C219 8461   3.729   3.905   5.478  0.0056  0.1145 -0.5708
   89SAPC  H19R 8462   3.678   3.862   5.567  1.4169 -0.3745  0.0421
   89SAPC  H19S 8463   3.666   3.987   5.438 -0.7015  0.0523  0.3670
   89SAPC  C220 8464   3.870   3.955   5.521 -1.1156  0.1506 -0.5276
   89SAPC  H20R 8465   3.907   3.897   5.607  0.8475  1.9653 -0.0355
   89SAPC  H20S 8466   3.855   4.059   5.557 -1.6657 -0.2941  0.5386
   89SAPC  H20T 8467   3.935   3.964   5.431  0.4662 -1.2574  0.4220
   89SAPC   C33 8468   3.198   3.030   5.558 -0.0974  0.6463 -0.5295
   89SAPC   H3X 8469   3.103   2.987   5.520  0.4563 -0.5872 -0.5838
   89SAPC   H3Y 8470   3.257   2.939   5.586 -3.1070 -1.7989 -1.5433
   89SAPC   C34 8471   3.267   3.117   5.458  0.0566  0.0440  0.0138
   89SAPC   H4X 8472   3.344   3.184   5.503  0.6043 -0.7503  0.2790
   89SAPC   H4Y 8473   3.188   3.178   5.410  1.8036  1.2409 -1.5141
   89SAPC   C35 8474   3.326   3.024   5.341  0.1821 -0.3859 -0.2334
   89SAPC   H5X 8475   3.258   2.937   5.333  0.6565 -0.6252 -2.5353
   89SAPC   H5Y 8476   3.424   2.992   5.382  0.7100  2.0629  0.5762
   89SAPC   C36 8477   3.328   3.096   5.210  0.1356  0.1896  0.3876
   89SAPC   H6X 8478   3.387   3.190   5.215  1.0964 -0.2834 -1.1957
   89SAPC   H6Y 8479   3.227   3.129   5.180  1.3687  2.9684 -1.0508
   89SAPC   C37 8480   3.396   3.029   5.095 -0.6586  0.6601 -0.1757
   89SAPC   H7X 8481   3.498   2.998   5.125 -0.1524  1.6030 -0.8954
   89SAPC   H7Y 8482   3.423   3.107   5.021  0.7178  0.6746  0.3133
   89SAPC   C38 8483   3.322   2.903   5.045 -0.2561 -0.2802  0.4858
   89SAPC   H8X 8484   3.221   2.912   5.090 -0.2075  0.4995  0.4526
   89SAPC   H8Y 8485   3.358   2.806   5.085  4.0273  0.2044 -1.5833
   89SAPC   C39 8486   3.297   2.898   4.898  0.0746  0.0836 -0.0498
   89SAPC   H9X 8487   3.241   2.985   4.855  0.2740 -0.6111 -1.8030
   89SAPC   H9Y 8488   3.233   2.813   4.865 -1.4278  1.7863 -1.8025
   89SAPC  C310 8489   3.431   2.891   4.815  0.4347  0.2863 -0.0909
   89SAPC  H10X 8490   3.481   2.792   4.809 -1.6266 -0.7760 -0.8745
   89SAPC  H10Y 8491   3.508   2.964   4.847 -1.4578  1.8872  1.0640
   89SAPC  C311 8492   3.424   2.939   4.670  0.5647 -0.5616 -0.4666
   89SAPC  H11X 8493   3.408   3.049   4.674  1.5681 -0.4427  1.5560
   89SAPC  H11Y 8494   3.343   2.891   4.611 -0.4875  0.9058 -0.2580
   89SAPC  C312 8495   3.563   2.924   4.595 -0.1625 -0.7275 -0.8943
   89SAPC  H12X 8496   3.579   2.814   4.593  1.1033 -0.5548 -1.3497
   89SAPC  H12Y 8497   3.641   2.978   4.653 -0.0474  1.1774 -2.7078
   89SAPC  C313 8498   3.546   2.972   4.455  0.2110 -0.2769 -0.0485
   89SAPC  H13X 8499   3.444   2.955   4.415 -0.0276  0.6031  0.1582
   89SAPC  H13Y 8500   3.634   2.931   4.401 -0.5718 -3.0663  0.6236
   89SAPC  C314 8501   3.563   3.129   4.435 -0.8370  0.3618 -0.5374
   89SAPC  H14X 8502   3.655   3.160   4.488  0.0844  0.8740 -2.3435
   89SAPC  H14Y 8503   3.469   3.167   4.480 -0.0775 -1.3511  2.7693
   89SAPC  C315 8504   3.572   3.183   4.294  0.4381  0.6503  0.8750
   89SAPC  H15X 8505   3.654   3.135   4.236  2.7065  1.4601  3.2193
   89SAPC  H15Y 8506   3.605   3.289   4.296  0.2882  0.6960  1.0083
   89SAPC  C316 8507   3.445   3.172   4.199  0.3953  0.0726  0.4972
   89SAPC  H16X 8508   3.368   3.228   4.257 -0.9348 -0.8164 -0.3536
   89SAPC  H16Y 8509   3.410   3.066   4.194 -0.8805  0.5368 -1.1218
   89SAPC  C317 8510   3.462   3.222   4.053 -0.1453 -0.5288  0.4559
   89SAPC  H17X 8511   3.360   3.216   4.011 -0.1933  1.2823  0.1969
   89SAPC  H17Y 8512   3.530   3.152   4.001  0.4584  1.7074 -1.9659
   89SAPC  C318 8513   3.522   3.369   4.045  0.3448 -0.2964 -0.0494
   89SAPC  H18X 8514   3.472   3.442   4.112  1.9452 -0.0442  0.9140
   89SAPC  H18Y 8515   3.515   3.416   3.944 -0.1757 -0.4514 -0.0909
   89SAPC  H18Z 8516   3.631   3.365   4.062 -0.1540 -1.0426  3.9380
   90SAPC     N 8517   1.263   5.827   6.653  0.1212 -0.0752  0.4855
   90SAPC   C12 8518   1.128   5.844   6.586 -0.1954  0.8314  0.1611
   90SAPC  H12A 8519   1.145   5.853   6.480 -1.0483  0.5259 -0.0130
   90SAPC  H12B 8520   1.072   5.934   6.605 -2.5024 -0.4929 -0.0221
   90SAPC   C13 8521   1.334   5.705   6.603 -0.4246  0.1800 -0.3376
   90SAPC  H13A 8522   1.367   5.727   6.503 -0.5440 -0.5776 -0.5524
   90SAPC  H13B 8523   1.422   5.672   6.656  0.6306 -0.6724 -2.4917
   90SAPC  H13C 8524   1.264   5.622   6.605 -0.6693  0.3862 -0.3036
   90SAPC   C14 8525   1.346   5.949   6.629 -0.7309  0.2510 -0.1759
   90SAPC  H14A 8526   1.445   5.907   6.618 -0.9601 -0.4787  0.4768
   90SAPC  H14B 8527   1.317   6.005   6.542 -0.3476  1.1183  0.2326
   90SAPC  H14C 8528   1.336   6.016   6.713 -1.5476  0.0453 -0.1009
   90SAPC   C15 8529   1.235   5.811   6.803 -0.4386 -0.2846 -0.4808
   90SAPC  H15A 8530   1.193   5.712   6.813 -0.1446 -0.4565 -0.9147
   90SAPC  H15B 8531   1.317   5.828   6.871  0.4653  1.0009 -1.8072
   90SAPC  H15C 8532   1.159   5.877   6.841 -0.6312 -1.7226  1.8063
   90SAPC   C11 8533   1.018   5.728   6.611  0.6293 -0.1067  0.0829
   90SAPC  H11A 8534   0.927   5.779   6.573  1.6614  1.4764 -0.3633
   90SAPC  H11B 8535   1.015   5.694   6.717 -1.3289  3.8534  1.4661
   90SAPC     P 8536   1.027   5.614   6.373 -0.3230 -0.1497 -0.0147
   90SAPC   O13 8537   1.095   5.491   6.316  0.6032  0.2106 -0.1935
   90SAPC   O14 8538   0.878   5.620   6.361  0.0811 -0.0339  0.3395
   90SAPC   O12 8539   1.064   5.623   6.527 -0.7306  0.1833  0.5832
   90SAPC   O11 8540   1.079   5.759   6.326  0.1237 -0.1457 -0.2098
   90SAPC    C1 8541   1.035   5.820   6.204 -0.1412  0.7121 -0.0019
   90SAPC    HA 8542   0.948   5.764   6.164  0.9005 -0.8716 -0.1100
   90SAPC    HB 8543   1.006   5.923   6.234  0.8154  0.8440  0.5123
   90SAPC    C2 8544   1.138   5.824   6.089  0.3744  0.2326 -0.1103
   90SAPC    HS 8545   1.086   5.852   5.994 -0.6296 -4.2103 -1.1208
   90SAPC   O21 8546   1.196   5.690   6.071  0.0149 -0.1157 -0.2241
   90SAPC   C21 8547   1.118   5.604   6.010  0.4772  0.2960  0.5565
   90SAPC   O22 8548   1.008   5.632   5.961 -0.0105  0.6965  0.4684
   90SAPC   C22 8549   1.187   5.463   5.992  0.2713 -0.0869 -0.4878
   90SAPC   H2R 8550   1.294   5.487   5.976 -0.1125  3.4840  1.3165
   90SAPC   H2S 8551   1.179   5.407   6.087 -2.0746 -0.7763 -1.0309
   90SAPC    C3 8552   1.260   5.921   6.122  0.2366  0.3375  0.3510
   90SAPC    HX 8553   1.300   5.890   6.221 -2.0953 -0.5177  1.0858
   90SAPC    HY 8554   1.202   6.015   6.130 -0.7317 -0.3196  1.2756
   90SAPC   O31 8555   1.354   5.919   6.014 -0.0831 -0.8213 -0.3374
   90SAPC   C31 8556   1.465   5.982   6.056 -0.0274  0.0135  0.4453
   90SAPC   O32 8557   1.486   6.036   6.160 -0.6450 -0.0141  0.1710
   90SAPC   C32 8558   1.562   5.989   5.940 -0.7577 -0.3391 -0.8103
   90SAPC   H2X 8559   1.650   5.926   5.960  2.3897  3.7037 -0.5777
   90SAPC   H2Y 8560   1.597   6.094   5.929 -0.5101  0.1464  3.1706
   90SAPC   C23 8561   1.139   5.387   5.866 -0.2170 -0.1502 -0.0298
   90SAPC   H3R 8562   1.029   5.372   5.862 -0.4487  1.0103  1.3179
   90SAPC   H3S 8563   1.187   5.286   5.874  0.2178  0.0560 -0.0145
   90SAPC   C24 8564   1.195   5.448   5.739  0.8245 -0.1087 -0.1406
   90SAPC   H4R 8565   1.305   5.447   5.750  0.7527 -1.2491  0.6076
   90SAPC   H4S 8566   1.164   5.553   5.716 -0.7289 -0.5902 -0.3846
   90SAPC   C25 8567   1.156   5.362   5.623  0.2649  0.2142 -0.7909
   90SAPC   H5R 8568   1.220   5.274   5.606 -0.2894 -0.4876  0.5943
   90SAPC   C26 8569   1.071   5.390   5.529  0.3071 -0.3462  0.0082
   90SAPC   H6R 8570   1.078   5.327   5.439  0.2347  0.5566 -0.6423
   90SAPC   C27 8571   0.978   5.507   5.522 -0.5763  0.4894  0.2028
   90SAPC   H7R 8572   1.037   5.601   5.513  0.1493  0.0370  0.1450
   90SAPC   H7S 8573   0.935   5.500   5.624  3.4318  0.8103  2.1134
   90SAPC   C28 8574   0.889   5.502   5.400  0.5972  0.6235  0.4423
   90SAPC   H8R 8575   0.822   5.415   5.406  3.3047 -1.7929 -1.4368
   90SAPC   C29 8576   0.889   5.579   5.288  0.4042  0.7412 -0.4630
   90SAPC   H9R 8577   0.812   5.568   5.210 -1.4296 -0.1954  1.4158
   90SAPC  C210 8578   0.974   5.692   5.275 -0.1521  0.3992 -0.2022
   90SAPC  H10R 8579   1.010   5.702   5.170  1.1390 -0.0322  0.1864
   90SAPC  H10S 8580   1.073   5.669   5.320 -0.6146 -2.6677 -0.5495
   90SAPC  C211 8581   0.907   5.817   5.329 -0.4622 -0.9563  0.1701
   90SAPC  H11R 8582   0.911   5.833   5.438 -1.6971  1.5562 -0.0894
   90SAPC  C212 8583   0.843   5.918   5.261 -0.1659 -0.2585  0.4080
   90SAPC  H12R 8584   0.797   5.998   5.320  1.4904  0.3293  0.9806
   90SAPC  C213 8585   0.824   5.923   5.111  0.1281 -0.0412  0.5195
   90SAPC  H13R 8586   0.741   5.852   5.089 -0.8620  1.9477 -2.8646
   90SAPC  H13S 8587   0.914   5.888   5.056  0.7408 -1.0706  2.1114
   90SAPC  C214 8588   0.792   6.063   5.071 -0.1214  0.5561 -0.0504
   90SAPC  H14R 8589   0.860   6.118   5.004 -2.5560  2.6869 -0.9603
   90SAPC  C215 8590   0.667   6.112   5.075 -0.3222 -0.1491 -0.2113
   90SAPC  H15R 8591   0.635   6.212   5.040  0.2863  0.5097  1.0555
   90SAPC  C216 8592   0.542   6.045   5.136 -0.2188  0.1213 -0.3925
   90SAPC  H16R 8593   0.562   5.999   5.235 -0.6993 -0.2653 -0.4743
   90SAPC  H16S 8594   0.524   5.948   5.084  1.9338 -0.9738  0.7688
   90SAPC  C217 8595   0.422   6.141   5.149  0.0595 -0.2812 -0.0257
   90SAPC  H17R 8596   0.383   6.182   5.053 -1.3341  0.9392  1.0010
   90SAPC  H17S 8597   0.453   6.235   5.199  0.0539  0.6097 -1.6062
   90SAPC  C218 8598   0.300   6.089   5.239  0.4759 -0.6165  0.1336
   90SAPC  H18R 8599   0.349   6.075   5.338  4.0503  0.8600 -1.2611
   90SAPC  H18S 8600   0.255   5.993   5.205  1.5505 -0.1633 -2.8911
   90SAPC  C219 8601   0.193   6.192   5.253 -0.0603 -0.5433 -0.0435
   90SAPC  H19R 8602   0.150   6.195   5.151  2.0049 -3.8280 -1.1797
   90SAPC  H19S 8603   0.241   6.289   5.277 -0.3337 -0.2421 -0.6876
   90SAPC  C220 8604   0.070   6.172   5.344 -0.1933  0.4885 -0.4866
   90SAPC  H20R 8605   0.089   6.223   5.441 -0.7924 -1.0897  0.4896
   90SAPC  H20S 8606   0.041   6.071   5.380 -1.3091  1.5475  1.7726
   90SAPC  H20T 8607  -0.024   6.210   5.299  0.7232  1.4955 -1.6134
   90SAPC   C33 8608   1.503   5.958   5.805  0.4546 -0.9871  0.6061
   90SAPC   H3X 8609   1.554   6.020   5.728 -0.0132 -1.0760  0.2194
   90SAPC   H3Y 8610   1.393   5.968   5.798  0.5060 -0.2034  0.8731
   90SAPC   C34 8611   1.533   5.813   5.773 -0.1571 -0.3615  0.1063
   90SAPC   H4X 8612   1.506   5.761   5.867 -4.3836 -1.7417 -1.6712
   90SAPC   H4Y 8613   1.636   5.790   5.737  0.0648  0.9815 -0.1652
   90SAPC   C35 8614   1.440   5.753   5.665 -0.7963  0.0446 -0.3834
   90SAPC   H5X 8615   1.335   5.787   5.679 -0.4503  0.5769  1.2081
   90SAPC   H5Y 8616   1.434   5.646   5.693  1.5183 -0.4434 -1.5315
   90SAPC   C36 8617   1.485   5.774   5.521  0.5753  0.2620  0.3029
   90SAPC   H6X 8618   1.588   5.732   5.519  0.3325 -0.3158 -0.1765
   90SAPC   H6Y 8619   1.494   5.882   5.496  0.9694 -0.5305 -3.5578
   90SAPC   C37 8620   1.392   5.698   5.416 -0.8819  0.1034  0.2393
   90SAPC   H7X 8621   1.292   5.746   5.420 -0.2679  1.3362  1.6796
   90SAPC   H7Y 8622   1.375   5.593   5.447 -3.2950 -0.0189 -1.2147
   90SAPC   C38 8623   1.440   5.722   5.271 -0.1639  0.0023 -0.0407
   90SAPC   H8X 8624   1.520   5.648   5.252 -1.4807 -0.9779 -2.1876
   90SAPC   H8Y 8625   1.482   5.825   5.266 -1.7545  0.8867  2.7071
   90SAPC   C39 8626   1.322   5.714   5.171  0.7003 -0.0312  0.3935
   90SAPC   H9X 8627   1.266   5.809   5.157 -1.4421 -1.3878 -0.6559
   90SAPC   H9Y 8628   1.251   5.639   5.212 -1.4501  0.9358 -1.3707
   90SAPC  C310 8629   1.365   5.691   5.030  0.0129  0.4089 -0.3059
   90SAPC  H10X 8630   1.458   5.631   5.023 -0.6152 -0.7266  0.6632
   90SAPC  H10Y 8631   1.402   5.784   4.982  0.2169 -0.0208 -0.9917
   90SAPC  C311 8632   1.259   5.603   4.948 -0.2105 -0.1708  0.0576
   90SAPC  H11X 8633   1.164   5.655   4.926 -0.2219 -0.7400 -1.3733
   90SAPC  H11Y 8634   1.240   5.512   5.008 -1.8599  0.9257  1.2926
   90SAPC  C312 8635   1.319   5.554   4.811 -0.3787 -0.7154  0.3210
   90SAPC  H12X 8636   1.380   5.465   4.835 -1.4074 -1.1507  1.4378
   90SAPC  H12Y 8637   1.386   5.630   4.764  1.8543 -2.9846 -0.3989
   90SAPC  C313 8638   1.206   5.525   4.712  0.3621 -1.0000 -0.2484
   90SAPC  H13X 8639   1.156   5.616   4.673  1.1252 -1.0754 -1.4641
   90SAPC  H13Y 8640   1.130   5.463   4.763  0.9768 -0.6579  1.1400
   90SAPC  C314 8641   1.260   5.458   4.586 -0.3708  0.1338  0.5308
   90SAPC  H14X 8642   1.323   5.373   4.620  2.2914  2.0507  0.6774
   90SAPC  H14Y 8643   1.322   5.538   4.542 -0.5470 -0.5812 -1.1069
   90SAPC  C315 8644   1.160   5.403   4.481  0.1179 -0.0844  0.5626
   90SAPC  H15X 8645   1.194   5.426   4.377  0.1474 -0.5920  0.4569
   90SAPC  H15Y 8646   1.068   5.464   4.488 -0.2077 -0.5904  0.7097
   90SAPC  C316 8647   1.106   5.261   4.493 -0.2135 -0.5369 -0.2393
   90SAPC  H16X 8648   1.015   5.260   4.556  0.0416 -1.7070  0.1277
   90SAPC  H16Y 8649   1.187   5.202   4.541  1.2487  1.1028 -0.5763
   90SAPC  C317 8650   1.071   5.198   4.355  0.2914  0.3866  0.4724
   90SAPC  H17X 8651   1.162   5.165   4.301  2.6349  1.8358  3.2737
   90SAPC  H17Y 8652   1.021   5.276   4.294  2.4737  1.4797 -0.0219
   90SAPC  C318 8653   0.974   5.080   4.351  0.1214 -0.1136 -0.6963
   90SAPC  H18X 8654   1.010   4.999   4.418 -0.4662 -1.3281 -1.7874
   90SAPC  H18Y 8655   0.956   5.042   4.248 -0.9942  1.2311 -1.0308
   90SAPC  H18Z 8656   0.880   5.112   4.401  1.1702  0.3756  1.0077
   91SAPC     N 8657   3.571   0.094   6.901 -0.5193 -0.7794  0.3160
   91SAPC   C12 8658   3.506   0.072   6.759 -0.8887 -0.0148  0.1656
   91SAPC  H12A 8659   3.485   0.172   6.723  0.9354 -0.2169 -1.6138
   91SAPC  H12B 8660   3.408   0.029   6.773 -1.9065  1.9392 -0.6486
   91SAPC   C13 8661   3.478   0.180   6.975  0.2660 -0.2313  0.0077
   91SAPC  H13A 8662   3.441   0.264   6.919 -1.3762  1.0879  2.9025
   91SAPC  H13B 8663   3.388   0.126   7.000 -1.1402  1.6753 -0.7285
   91SAPC  H13C 8664   3.524   0.219   7.065 -1.0786 -1.2778  1.2005
   91SAPC   C14 8665   3.592  -0.031   6.980  0.2125  0.1811 -0.1978
   91SAPC  H14A 8666   3.642  -0.001   7.071  2.0030  0.2664 -1.1582
   91SAPC  H14B 8667   3.499  -0.078   7.009 -0.4721  1.3559 -0.4216
   91SAPC  H14C 8668   3.654  -0.093   6.917 -1.5839 -0.7895 -1.0869
   91SAPC   C15 8669   3.701   0.165   6.893 -0.1742 -0.2320 -0.1570
   91SAPC  H15A 8670   3.777   0.096   6.861 -0.4401 -0.1279 -1.0247
   91SAPC  H15B 8671   3.699   0.248   6.825  2.4594 -0.2405 -0.3174
   91SAPC  H15C 8672   3.740   0.200   6.988  0.3335 -3.1928  0.8407
   91SAPC   C11 8673   3.587   0.006   6.648 -1.0779 -0.1636 -0.4051
   91SAPC  H11A 8674   3.670   0.074   6.620  0.3786 -2.1402 -1.1227
   91SAPC  H11B 8675   3.525  -0.009   6.557  0.3042  0.8900 -1.5605
   91SAPC     P 8676   3.559  -0.250   6.681  0.3170  0.0574 -0.3043
   91SAPC   O13 8677   3.630  -0.358   6.749  0.8051 -0.1701  0.6923
   91SAPC   O14 8678   3.427  -0.216   6.744  0.2126 -0.0610  0.4967
   91SAPC   O12 8679   3.653  -0.119   6.671 -0.2910 -0.4465  0.0799
   91SAPC   O11 8680   3.536  -0.287   6.528 -0.6488 -0.3909  0.3247
   91SAPC    C1 8681   3.632  -0.255   6.428 -0.6871  0.2511 -0.1056
   91SAPC    HA 8682   3.652  -0.146   6.432  0.2841  0.0736  0.1817
   91SAPC    HB 8683   3.726  -0.311   6.450  0.1763  1.7332  0.1379
   91SAPC    C2 8684   3.588  -0.298   6.288  0.4058 -0.6447  0.1154
   91SAPC    HS 8685   3.668  -0.261   6.220  0.5921  1.0540  1.1827
   91SAPC   O21 8686   3.455  -0.238   6.261  0.0615 -0.1484 -0.6104
   91SAPC   C21 8687   3.454  -0.107   6.232 -0.9765 -0.4950 -0.7707
   91SAPC   O22 8688   3.556  -0.041   6.220 -0.9672  0.1964 -0.0586
   91SAPC   C22 8689   3.309  -0.061   6.200  0.5019  0.1210 -0.3790
   91SAPC   H2R 8690   3.296  -0.060   6.089  0.5199 -1.5588 -0.4160
   91SAPC   H2S 8691   3.235  -0.131   6.244 -1.7028  1.9949 -0.8714
   91SAPC    C3 8692   3.581  -0.449   6.279 -0.2001  0.1328 -0.5571
   91SAPC    HX 8693   3.545  -0.462   6.174 -1.1944  0.3214 -0.2477
   91SAPC    HY 8694   3.501  -0.486   6.346  3.1536  1.9531  5.1486
   91SAPC   O31 8695   3.700  -0.517   6.319  0.1500 -1.0159 -0.7172
   91SAPC   C31 8696   3.799  -0.545   6.233  1.1567  0.3338  0.1609
   91SAPC   O32 8697   3.808  -0.503   6.117  0.0986 -0.3577  0.0600
   91SAPC   C32 8698   3.898  -0.642   6.298 -0.2788  0.2533 -0.1829
   91SAPC   H2X 8699   3.899  -0.632   6.408  1.6667  2.7596 -0.3481
   91SAPC   H2Y 8700   4.003  -0.614   6.273  0.7725 -1.5291  1.9068
   91SAPC   C23 8701   3.280   0.077   6.264  0.7448 -0.3212 -0.4729
   91SAPC   H3R 8702   3.357   0.148   6.228  1.9386 -0.1856  2.1103
   91SAPC   H3S 8703   3.293   0.063   6.373  0.2803 -0.3309 -0.4168
   91SAPC   C24 8704   3.133   0.123   6.227 -0.3532 -0.5185 -0.3975
   91SAPC   H4R 8705   3.129   0.116   6.116  0.4362 -0.0308 -0.4640
   91SAPC   H4S 8706   3.144   0.233   6.234 -0.3332 -0.6461  2.1806
   91SAPC   C25 8707   3.021   0.050   6.299  0.0027  0.8833  0.0835
   91SAPC   H5R 8708   2.994   0.090   6.398 -2.0362  2.2591 -0.9523
   91SAPC   C26 8709   2.951  -0.047   6.235 -0.3890 -0.3833 -0.4368
   91SAPC   H6R 8710   2.875  -0.105   6.290  1.6875  0.2401  3.4705
   91SAPC   C27 8711   2.976  -0.100   6.096 -0.0448  0.3700  0.3149
   91SAPC   H7R 8712   3.065  -0.165   6.084 -0.3525  0.1717 -1.1669
   91SAPC   H7S 8713   2.974  -0.003   6.041 -0.0279  1.1057  1.5699
   91SAPC   C28 8714   2.856  -0.185   6.050  0.0234 -0.1876 -0.3638
   91SAPC   H8R 8715   2.768  -0.123   6.028  0.8770  1.6585  1.1222
   91SAPC   C29 8716   2.862  -0.314   6.018 -0.3056  0.0589  0.5463
   91SAPC   H9R 8717   2.768  -0.369   6.006 -0.9793  1.6221 -1.9106
   91SAPC  C210 8718   2.981  -0.405   6.029  0.3759 -0.0240 -0.3235
   91SAPC  H10R 8719   3.052  -0.369   6.107  0.7605 -1.0596 -0.1699
   91SAPC  H10S 8720   3.030  -0.400   5.930 -0.9175  0.0928 -0.9791
   91SAPC  C211 8721   2.954  -0.550   6.070  0.8785  0.5157 -0.3755
   91SAPC  H11R 8722   2.896  -0.573   6.161  0.0663 -2.3407 -1.5121
   91SAPC  C212 8723   2.964  -0.658   5.989 -0.2198  0.8431 -0.2184
   91SAPC  H12R 8724   2.917  -0.755   6.010  0.7466  0.1421 -1.2255
   91SAPC  C213 8725   3.029  -0.663   5.853 -0.2501 -0.4352  1.0940
   91SAPC  H13R 8726   3.111  -0.739   5.854  0.5433  0.3481  3.4969
   91SAPC  H13S 8727   3.083  -0.568   5.835  0.4308 -0.9239  0.4607
   91SAPC  C214 8728   2.925  -0.686   5.735 -0.0123 -0.7799 -0.9678
   91SAPC  H14R 8729   2.819  -0.688   5.764 -0.7865 -0.5631 -3.4706
   91SAPC  C215 8730   2.948  -0.695   5.608 -0.3863 -0.5377 -0.3874
   91SAPC  H15R 8731   2.866  -0.688   5.535 -0.3828  0.2172 -0.3268
   91SAPC  C216 8732   3.084  -0.709   5.547  0.6806  0.4451 -0.6304
   91SAPC  H16R 8733   3.098  -0.806   5.496  0.2830  0.0594 -0.0163
   91SAPC  H16S 8734   3.155  -0.703   5.632 -0.6559  1.1580  0.4815
   91SAPC  C217 8735   3.118  -0.590   5.450  0.2351  0.7944 -0.0024
   91SAPC  H17R 8736   3.222  -0.615   5.419 -0.0998  0.8520 -1.2436
   91SAPC  H17S 8737   3.104  -0.490   5.497 -4.1705 -0.2207  1.3129
   91SAPC  C218 8738   3.053  -0.615   5.313 -0.4606  0.1521 -0.5868
   91SAPC  H18R 8739   2.942  -0.604   5.317 -0.2953  1.6330  1.7353
   91SAPC  H18S 8740   3.067  -0.720   5.281  2.1536  1.1115 -2.9858
   91SAPC  C219 8741   3.112  -0.519   5.207  0.1183 -0.3502  0.4170
   91SAPC  H19R 8742   3.222  -0.539   5.212  0.4131  1.3956  1.9175
   91SAPC  H19S 8743   3.093  -0.411   5.221 -0.3937 -0.2893 -0.6802
   91SAPC  C220 8744   3.054  -0.541   5.063 -0.2251 -0.0792  0.5756
   91SAPC  H20R 8745   3.064  -0.648   5.033  0.4432 -0.0473  0.6659
   91SAPC  H20S 8746   3.102  -0.479   4.984 -0.7802  1.2224  1.2437
   91SAPC  H20T 8747   2.944  -0.523   5.061 -0.3216 -0.6693  0.0113
   91SAPC   C33 8748   3.847  -0.788   6.271  0.0521  1.1359  0.5674
   91SAPC   H3X 8749   3.738  -0.793   6.289 -0.0454  0.5588 -0.1485
   91SAPC   H3Y 8750   3.902  -0.853   6.343 -0.2879  1.6419  1.2944
   91SAPC   C34 8751   3.885  -0.845   6.131  1.2450 -0.7982 -0.2460
   91SAPC   H4X 8752   3.989  -0.819   6.101  1.2075  0.8077  0.8969
   91SAPC   H4Y 8753   3.810  -0.795   6.067  1.3043 -0.2825  0.0841
   91SAPC   C35 8754   3.848  -0.996   6.127 -0.4574 -0.1296 -0.0977
   91SAPC   H5X 8755   3.737  -0.999   6.136 -0.3112  0.3700  2.7726
   91SAPC   H5Y 8756   3.881  -1.038   6.225 -1.2312 -1.5081 -0.4005
   91SAPC   C36 8757   3.903  -1.079   6.009 -0.8879  0.2698  0.0023
   91SAPC   H6X 8758   3.899  -1.183   6.048 -1.0500 -0.2920 -1.4463
   91SAPC   H6Y 8759   4.009  -1.052   5.987 -0.9245  1.0409  0.7377
   91SAPC   C37 8760   3.816  -1.073   5.881  0.2668 -0.3157  0.4031
   91SAPC   H7X 8761   3.792  -0.967   5.859  0.7484 -0.2143  0.3527
   91SAPC   H7Y 8762   3.721  -1.127   5.904 -0.2568  1.0183  1.5107
   91SAPC   C38 8763   3.877  -1.132   5.758 -0.1861  0.3351  0.0711
   91SAPC   H8X 8764   3.877  -1.242   5.770  0.8747  0.3382  0.1928
   91SAPC   H8Y 8765   3.986  -1.112   5.752 -0.0801  1.9532  4.3184
   91SAPC   C39 8766   3.808  -1.095   5.628 -0.4239 -0.3936 -0.0154
   91SAPC   H9X 8767   3.814  -0.984   5.622  0.0712 -0.3962  0.3732
   91SAPC   H9Y 8768   3.700  -1.117   5.643 -0.7315  1.6307  1.2436
   91SAPC  C310 8769   3.862  -1.157   5.499 -0.7408  0.3236  1.0871
   91SAPC  H10X 8770   3.864  -1.267   5.513 -1.0950  0.3913  1.7242
   91SAPC  H10Y 8771   3.965  -1.128   5.470 -0.4405  0.0624  1.8676
   91SAPC  C311 8772   3.765  -1.130   5.386  0.0276  0.5893  0.2561
   91SAPC  H11X 8773   3.750  -1.020   5.383 -0.9198  0.4407 -0.7587
   91SAPC  H11Y 8774   3.666  -1.179   5.398 -0.2520  1.5038  2.0245
   91SAPC  C312 8775   3.825  -1.184   5.257  0.3168  0.3756  0.6927
   91SAPC  H12X 8776   3.834  -1.295   5.255  1.1643  0.4355  0.7764
   91SAPC  H12Y 8777   3.928  -1.144   5.243  1.1895 -1.6183  0.9845
   91SAPC  C313 8778   3.742  -1.128   5.141  0.5902  0.1120 -0.1099
   91SAPC  H13X 8779   3.709  -1.024   5.160 -0.9745 -0.4137  0.1079
   91SAPC  H13Y 8780   3.655  -1.197   5.136  1.4960 -1.3695  2.4279
   91SAPC  C314 8781   3.813  -1.144   5.004 -0.1012 -0.2173  0.2113
   91SAPC  H14X 8782   3.825  -1.254   4.991 -0.4340 -0.2442  0.1266
   91SAPC  H14Y 8783   3.914  -1.099   4.995 -0.1907  0.2046  1.2161
   91SAPC  C315 8784   3.721  -1.097   4.889  0.5660 -0.2400  0.1145
   91SAPC  H15X 8785   3.668  -1.004   4.917  3.1555  0.7146  2.2202
   91SAPC  H15Y 8786   3.654  -1.179   4.855  0.2285  0.9696 -2.3433
   91SAPC  C316 8787   3.811  -1.073   4.758 -0.3724 -0.1432 -0.5097
   91SAPC  H16X 8788   3.852  -1.169   4.720 -0.7578 -0.1697 -0.8648
   91SAPC  H16Y 8789   3.888  -0.994   4.767  0.8463 -1.0912 -2.1263
   91SAPC  C317 8790   3.711  -1.021   4.650  0.0953  0.4530  0.1488
   91SAPC  H17X 8791   3.638  -0.955   4.703 -0.3306  0.8782 -0.9433
   91SAPC  H17Y 8792   3.661  -1.102   4.593 -0.2541  0.2430  0.7408
   91SAPC  C318 8793   3.769  -0.937   4.542 -0.1219  0.0529  0.7730
   91SAPC  H18X 8794   3.705  -0.920   4.453 -1.2873  0.4306  1.6642
   91SAPC  H18Y 8795   3.860  -0.980   4.494 -1.8363  0.7225 -3.5522
   91SAPC  H18Z 8796   3.786  -0.830   4.569 -0.1277  0.7231 -1.6487
   92SAPC     N 8797   5.113   3.299   6.880  0.4137  0.5098 -0.3583
   92SAPC   C12 8798   5.131   3.259   6.733  0.2276  0.2261  0.4567
   92SAPC  H12A 8799   5.117   3.153   6.723  1.5861 -0.4648  4.2286
   92SAPC  H12B 8800   5.234   3.268   6.701 -0.6424  2.9537 -1.9855
   92SAPC   C13 8801   5.230   3.236   6.952 -0.4696 -0.0654  0.6295
   92SAPC  H13A 8802   5.236   3.130   6.934  0.2024 -0.6507  3.6747
   92SAPC  H13B 8803   5.321   3.284   6.919 -0.6364  0.4330  0.8794
   92SAPC  H13C 8804   5.234   3.237   7.060  2.4513 -2.7773  0.6824
   92SAPC   C14 8805   5.105   3.442   6.906  0.6138  0.1677 -0.3257
   92SAPC  H14A 8806   5.032   3.496   6.847  0.2243 -0.7054 -0.6639
   92SAPC  H14B 8807   5.080   3.455   7.010  0.4045 -2.1170 -0.0442
   92SAPC  H14C 8808   5.201   3.491   6.895  0.4240  0.5158 -0.4462
   92SAPC   C15 8809   4.992   3.231   6.927  0.5194  0.3021 -0.3665
   92SAPC  H15A 8810   4.913   3.257   6.859  1.6152 -0.4811 -1.9858
   92SAPC  H15B 8811   4.998   3.123   6.936  1.3377 -0.1003 -4.1358
   92SAPC  H15C 8812   4.967   3.266   7.026  1.0766 -2.3980  0.8339
   92SAPC   C11 8813   5.039   3.335   6.631 -0.4374  0.3263 -0.5898
   92SAPC  H11A 8814   5.074   3.309   6.529  0.1731 -0.3971 -0.2048
   92SAPC  H11B 8815   5.052   3.445   6.642 -1.4855  0.3706  0.3020
   92SAPC     P 8816   4.828   3.177   6.596  0.2308 -0.3376 -0.2253
   92SAPC   O13 8817   4.914   3.070   6.639  0.1626 -0.3564 -0.0402
   92SAPC   O14 8818   4.688   3.167   6.635  0.9260  0.1534  0.1402
   92SAPC   O12 8819   4.899   3.310   6.655 -0.0631 -0.7773 -0.5792
   92SAPC   O11 8820   4.837   3.192   6.440 -0.2105  0.4309  0.4389
   92SAPC    C1 8821   4.724   3.248   6.378 -0.5864 -0.1334  0.5343
   92SAPC    HA 8822   4.652   3.168   6.350  1.2922 -1.3498 -1.0983
   92SAPC    HB 8823   4.664   3.317   6.441 -1.1383 -0.3834  0.2870
   92SAPC    C2 8824   4.766   3.320   6.247 -0.6682  0.4854 -0.0400
   92SAPC    HS 8825   4.685   3.366   6.187 -1.7478 -1.8701 -0.4838
   92SAPC   O21 8826   4.850   3.235   6.162  0.1596 -0.1182  0.2662
   92SAPC   C21 8827   4.788   3.135   6.098 -0.4294 -0.7988 -0.0843
   92SAPC   O22 8828   4.672   3.101   6.108  0.0045  0.1526 -0.9029
   92SAPC   C22 8829   4.886   3.060   6.006  0.1960  0.3341  0.8537
   92SAPC   H2R 8830   4.957   3.005   6.071 -0.5812 -3.3483 -1.1118
   92SAPC   H2S 8831   4.837   2.977   5.950 -0.8118  2.6697 -1.9638
   92SAPC    C3 8832   4.875   3.431   6.291  0.1488 -0.0618 -0.3416
   92SAPC    HX 8833   4.964   3.379   6.331 -0.4752 -0.4081  0.6053
   92SAPC    HY 8834   4.840   3.496   6.373  0.9792  1.9614 -1.5003
   92SAPC   O31 8835   4.902   3.521   6.176  0.5492 -0.3048  0.0409
   92SAPC   C31 8836   5.010   3.493   6.110 -0.5452 -0.3406 -0.2272
   92SAPC   O32 8837   5.092   3.411   6.141  0.1903 -0.2760 -0.3818
   92SAPC   C32 8838   5.024   3.599   6.002  0.0388 -0.7596 -0.4456
   92SAPC   H2X 8839   5.009   3.699   6.048  0.8643 -1.2827  1.0254
   92SAPC   H2Y 8840   4.943   3.596   5.926 -0.0518  0.1184 -0.3846
   92SAPC   C23 8841   4.954   3.167   5.919 -0.0360  0.4292 -0.6050
   92SAPC   H3R 8842   5.037   3.117   5.865 -0.3799  0.9305 -1.6192
   92SAPC   H3S 8843   5.000   3.249   5.977 -2.5167  1.6568 -0.2335
   92SAPC   C24 8844   4.861   3.222   5.805 -0.2663 -0.0397 -0.3467
   92SAPC   H4R 8845   4.785   3.279   5.863  0.8431 -0.7342  1.9005
   92SAPC   H4S 8846   4.813   3.141   5.746  1.8926 -1.1698 -0.6403
   92SAPC   C25 8847   4.933   3.321   5.713  0.8166 -0.1372 -0.3398
   92SAPC   H5R 8848   4.973   3.410   5.764 -0.8582  1.8437 -2.2482
   92SAPC   C26 8849   4.955   3.307   5.586 -0.3087 -0.3448  0.3293
   92SAPC   H6R 8850   4.999   3.388   5.526 -0.8656 -0.4440 -0.2254
   92SAPC   C27 8851   4.907   3.190   5.507  0.7362 -1.5381 -0.3471
   92SAPC   H7R 8852   4.876   3.103   5.569  3.6128 -0.4257  3.0449
   92SAPC   H7S 8853   4.997   3.148   5.456  2.3307  2.3194 -1.1108
   92SAPC   C28 8854   4.799   3.227   5.409  0.2073  0.6894  0.0168
   92SAPC   H8R 8855   4.692   3.225   5.435  0.5139 -2.5659  1.5335
   92SAPC   C29 8856   4.832   3.261   5.280  0.7268 -0.7203 -0.2948
   92SAPC   H9R 8857   4.752   3.285   5.208  2.6818  1.1095 -1.9752
   92SAPC  C210 8858   4.964   3.279   5.207  0.0668  0.0233 -0.0191
   92SAPC  H10R 8859   5.051   3.278   5.275 -0.0370  1.0669  0.1499
   92SAPC  H10S 8860   4.966   3.381   5.162  1.8982  0.2937  0.5793
   92SAPC  C211 8861   4.981   3.171   5.107 -0.3175  0.5752 -0.0666
   92SAPC  H11R 8862   5.010   3.075   5.153  1.6991  1.1877  0.0259
   92SAPC  C212 8863   4.979   3.189   4.973 -0.3304 -0.2895 -0.5031
   92SAPC  H12R 8864   4.985   3.096   4.915 -0.7262  0.2610 -1.4590
   92SAPC  C213 8865   4.945   3.319   4.901  0.1763 -0.0560 -0.4883
   92SAPC  H13R 8866   5.033   3.386   4.896 -0.2875  0.5384 -0.9388
   92SAPC  H13S 8867   4.857   3.362   4.953  0.2331 -2.8484  2.1841
   92SAPC  C214 8868   4.888   3.280   4.763 -0.0788 -0.0238  0.1026
   92SAPC  H14R 8869   4.793   3.226   4.774 -0.7554  1.0350 -0.3130
   92SAPC  C215 8870   4.952   3.283   4.645 -0.2786  0.6879  0.6050
   92SAPC  H15R 8871   4.886   3.247   4.564  1.2491 -0.4910 -0.1628
   92SAPC  C216 8872   5.093   3.344   4.622  0.0089 -0.3277  0.2117
   92SAPC  H16R 8873   5.169   3.283   4.677  0.3230  0.5653  0.7940
   92SAPC  H16S 8874   5.094   3.443   4.672  1.4588  0.0802 -0.5524
   92SAPC  C217 8875   5.140   3.343   4.474  0.8215 -0.5747 -0.0068
   92SAPC  H17R 8876   5.225   3.413   4.455  3.7306 -3.3815  1.6800
   92SAPC  H17S 8877   5.058   3.385   4.412  1.3517  0.4711 -0.0258
   92SAPC  C218 8878   5.186   3.207   4.417 -0.0255  0.0107 -0.6751
   92SAPC  H18R 8879   5.103   3.134   4.426  1.1659 -1.3283 -0.0808
   92SAPC  H18S 8880   5.253   3.165   4.495 -1.1763  0.1281  0.4111
   92SAPC  C219 8881   5.249   3.203   4.284 -0.0339  0.2928  0.5959
   92SAPC  H19R 8882   5.189   3.266   4.214  1.3251  0.3413 -0.5575
   92SAPC  H19S 8883   5.236   3.098   4.252 -3.0634 -0.0431  2.5155
   92SAPC  C220 8884   5.394   3.250   4.271 -0.0390  0.3802 -0.3323
   92SAPC  H20R 8885   5.430   3.265   4.168  2.2048  0.5558  0.4261
   92SAPC  H20S 8886   5.463   3.177   4.319  0.2120  2.1855  2.2476
   92SAPC  H20T 8887   5.414   3.339   4.335  2.7121 -0.1136 -0.3950
   92SAPC   C33 8888   5.159   3.597   5.941  0.1183  0.3128 -0.2861
   92SAPC   H3X 8889   5.183   3.502   5.889 -2.4177 -1.1353  1.0203
   92SAPC   H3Y 8890   5.240   3.609   6.016  1.0237 -4.4471 -0.2295
   92SAPC   C34 8891   5.172   3.705   5.837  0.1107  0.1613  0.2979
   92SAPC   H4X 8892   5.282   3.709   5.821 -0.0509 -0.7998 -1.2854
   92SAPC   H4Y 8893   5.146   3.807   5.873  1.1167  0.2318  0.8613
   92SAPC   C35 8894   5.108   3.678   5.704 -0.2489  0.2382  0.5207
   92SAPC   H5X 8895   4.997   3.683   5.706 -0.1958  2.4461  0.3723
   92SAPC   H5Y 8896   5.126   3.570   5.686 -1.2715  0.1736 -0.2489
   92SAPC   C36 8897   5.169   3.747   5.590  0.2378  0.1834 -0.3235
   92SAPC   H6X 8898   5.280   3.744   5.597  0.1940  1.5165  1.9780
   92SAPC   H6Y 8899   5.130   3.850   5.593  0.9576  0.4744  3.1276
   92SAPC   C37 8900   5.123   3.677   5.455  0.5604 -0.3255  0.3826
   92SAPC   H7X 8901   5.012   3.680   5.458  0.5766  3.3998  1.3390
   92SAPC   H7Y 8902   5.155   3.570   5.455  1.4579 -0.0811 -0.7770
   92SAPC   C38 8903   5.168   3.743   5.330  0.0805 -0.4801  0.4081
   92SAPC   H8X 8904   5.278   3.759   5.331  0.1294 -0.1191 -2.2240
   92SAPC   H8Y 8905   5.121   3.841   5.308  1.7016  0.5093  1.1084
   92SAPC   C39 8906   5.153   3.661   5.203 -0.2299  0.0361  0.3175
   92SAPC   H9X 8907   5.048   3.663   5.167 -0.3837 -0.5025  0.7143
   92SAPC   H9Y 8908   5.186   3.555   5.214  1.0399  0.3475 -0.3230
   92SAPC  C310 8909   5.238   3.725   5.088 -0.2855 -0.1088 -0.4097
   92SAPC  H10X 8910   5.340   3.682   5.085 -0.1089  0.1448  1.0907
   92SAPC  H10Y 8911   5.230   3.835   5.095 -1.6783 -0.2229  0.3908
   92SAPC  C311 8912   5.175   3.696   4.948  0.3357  0.4858  0.5951
   92SAPC  H11X 8913   5.070   3.732   4.944  0.6512  1.3599 -0.3799
   92SAPC  H11Y 8914   5.183   3.587   4.929  1.0286  0.7309 -0.6464
   92SAPC  C312 8915   5.265   3.752   4.837  0.1082  0.3156 -0.5281
   92SAPC  H12X 8916   5.366   3.719   4.869 -0.1322  0.8405  0.8730
   92SAPC  H12Y 8917   5.269   3.863   4.845  0.2014  0.2631  0.2457
   92SAPC  C313 8918   5.215   3.705   4.691 -0.2993 -0.2629  0.1396
   92SAPC  H13X 8919   5.218   3.594   4.696 -1.8848 -0.4716 -2.1523
   92SAPC  H13Y 8920   5.285   3.747   4.616 -0.0708 -0.3591  0.2960
   92SAPC  C314 8921   5.075   3.756   4.663  0.5627  0.4236  0.9984
   92SAPC  H14X 8922   5.061   3.866   4.673  2.7366  0.8968 -0.4204
   92SAPC  H14Y 8923   4.999   3.701   4.722  1.3700 -0.9076  0.8308
   92SAPC  C315 8924   5.028   3.705   4.527 -0.3750 -0.2707  0.6539
   92SAPC  H15X 8925   5.046   3.596   4.517 -0.0733 -0.0425 -2.4891
   92SAPC  H15Y 8926   5.094   3.751   4.450 -0.5638  0.5086  0.9477
   92SAPC  C316 8927   4.882   3.731   4.496  0.2224 -0.3477  0.1068
   92SAPC  H16X 8928   4.825   3.695   4.585  0.3957 -0.6631  0.0904
   92SAPC  H16Y 8929   4.848   3.666   4.413  2.0125  1.2256 -1.9519
   92SAPC  C317 8930   4.833   3.870   4.460 -0.4572 -0.4948 -0.1130
   92SAPC  H17X 8931   4.843   3.941   4.544 -0.5350  0.6318 -1.0224
   92SAPC  H17Y 8932   4.726   3.869   4.430 -0.8811  2.7665  0.8906
   92SAPC  C318 8933   4.909   3.944   4.347  0.3890  0.9253 -0.2094
   92SAPC  H18X 8934   4.917   3.877   4.259  0.8112 -2.2827  2.1188
   92SAPC  H18Y 8935   5.012   3.977   4.372  0.8854  1.1040 -2.2583
   92SAPC  H18Z 8936   4.851   4.034   4.315 -2.1923 -1.0600 -1.5143
   93SAPC     N 8937   0.229   5.846   7.023  0.0612  0.2006 -0.0367
   93SAPC   C12 8938   0.100   5.917   7.040 -0.1044 -0.4088  0.0434
   93SAPC  H12A 8939   0.103   6.001   6.972 -0.0874  0.0642  0.6176
   93SAPC  H12B 8940   0.089   5.951   7.142  2.6553 -3.7863  1.6491
   93SAPC   C13 8941   0.268   5.825   6.881 -0.2403  0.7700  0.3193
   93SAPC  H13A 8942   0.290   5.920   6.834  0.7618 -0.9266 -2.9665
   93SAPC  H13B 8943   0.362   5.773   6.877 -0.2189  0.8067  0.3469
   93SAPC  H13C 8944   0.189   5.778   6.825 -1.1785  1.4244  1.0564
   93SAPC   C14 8945   0.334   5.929   7.094 -0.2224 -0.1035 -0.0827
   93SAPC  H14A 8946   0.309   5.956   7.196  1.0828  0.6430  0.0593
   93SAPC  H14B 8947   0.431   5.882   7.097  0.4367  1.2428  0.1994
   93SAPC  H14C 8948   0.352   6.024   7.047  1.5139 -0.7750 -0.8347
   93SAPC   C15 8949   0.226   5.711   7.091 -0.0170 -0.3263  0.1049
   93SAPC  H15A 8950   0.317   5.655   7.082  1.0671  1.2732  0.6406
   93SAPC  H15B 8951   0.189   5.708   7.193 -0.5197 -1.1091 -0.0853
   93SAPC  H15C 8952   0.146   5.647   7.057 -1.3354  0.4899  1.5371
   93SAPC   C11 8953  -0.032   5.840   7.026  0.3924 -0.0769  0.0471
   93SAPC  H11A 8954  -0.123   5.902   7.041  0.7437  0.3629  0.3875
   93SAPC  H11B 8955  -0.038   5.762   7.105 -1.3841  1.3248  1.3956
   93SAPC     P 8956  -0.088   5.866   6.763 -0.1695 -0.2398 -0.0917
   93SAPC   O13 8957  -0.234   5.848   6.745 -0.2248 -0.8981  0.0718
   93SAPC   O14 8958  -0.031   6.001   6.756  0.4284 -0.2623 -0.3481
   93SAPC   O12 8959  -0.041   5.792   6.896  0.3580  0.4515 -0.7095
   93SAPC   O11 8960  -0.007   5.780   6.662  0.3895  0.3583 -0.4597
   93SAPC    C1 8961  -0.033   5.644   6.641 -0.3930 -0.1156 -0.5888
   93SAPC    HA 8962   0.058   5.583   6.664  1.2758  2.1349 -0.9541
   93SAPC    HB 8963  -0.116   5.615   6.709 -0.5034  2.3687  0.4207
   93SAPC    C2 8964  -0.077   5.597   6.498 -1.0025 -0.3097  0.8583
   93SAPC    HS 8965  -0.000   5.625   6.424 -0.6702  1.0928  1.6909
   93SAPC   O21 8966  -0.212   5.642   6.468 -0.3468 -0.2332  0.2583
   93SAPC   C21 8967  -0.222   5.765   6.424 -0.1385 -0.1034  0.1827
   93SAPC   O22 8968  -0.125   5.844   6.407  0.0231  0.1792  0.3931
   93SAPC   C22 8969  -0.367   5.802   6.397  0.6360  0.5945  0.4386
   93SAPC   H2R 8970  -0.439   5.717   6.402 -0.1185  0.8380 -3.2381
   93SAPC   H2S 8971  -0.390   5.877   6.475  0.3155 -0.6387  1.5676
   93SAPC    C3 8972  -0.084   5.444   6.491  0.1639 -0.1643 -0.1735
   93SAPC    HX 8973  -0.164   5.407   6.560 -0.6519  0.5673 -0.7104
   93SAPC    HY 8974   0.014   5.405   6.526  0.9609  0.6724 -1.4071
   93SAPC   O31 8975  -0.105   5.406   6.352  0.0923  0.7813  0.0873
   93SAPC   C31 8976  -0.002   5.414   6.273 -0.2345 -0.3335  0.3820
   93SAPC   O32 8977   0.105   5.476   6.288 -0.3569  0.5566 -0.2240
   93SAPC   C32 8978  -0.036   5.354   6.136 -0.4793 -0.2159 -0.3143
   93SAPC   H2X 8979  -0.146   5.342   6.134 -0.6026  0.7299  0.2152
   93SAPC   H2Y 8980   0.014   5.256   6.125 -1.2086 -0.8558  1.7683
   93SAPC   C23 8981  -0.370   5.853   6.253 -0.6510 -0.2931  0.9595
   93SAPC   H3R 8982  -0.282   5.912   6.219  0.0904 -1.1227  1.4272
   93SAPC   H3S 8983  -0.457   5.922   6.242 -0.2814  0.0730  0.2190
   93SAPC   C24 8984  -0.384   5.741   6.146  0.1827 -0.2119  0.3576
   93SAPC   H4R 8985  -0.299   5.671   6.133  0.4397  0.1389  0.1305
   93SAPC   H4S 8986  -0.390   5.781   6.042  1.5373 -2.4140 -0.6373
   93SAPC   C25 8987  -0.514   5.668   6.155  0.8224  0.2995  0.4313
   93SAPC   H5R 8988  -0.598   5.719   6.205  0.5123 -0.2710  0.4968
   93SAPC   C26 8989  -0.546   5.555   6.082 -0.6232  0.1295 -0.1483
   93SAPC   H6R 8990  -0.647   5.514   6.096 -0.7835 -0.0051 -1.6251
   93SAPC   C27 8991  -0.445   5.477   6.000 -0.3808 -0.3799  0.4500
   93SAPC   H7R 8992  -0.367   5.457   6.076  0.4960 -2.2369 -0.8531
   93SAPC   H7S 8993  -0.386   5.532   5.924 -0.7035 -2.7224 -1.6084
   93SAPC   C28 8994  -0.494   5.347   5.945  0.7217 -0.7312 -0.0882
   93SAPC   H8R 8995  -0.487   5.267   6.020 -1.3251  0.1172  1.0924
   93SAPC   C29 8996  -0.523   5.316   5.815  0.4625 -0.2279 -0.0775
   93SAPC   H9R 8997  -0.580   5.224   5.792 -2.5495  1.2680  0.8541
   93SAPC  C210 8998  -0.516   5.425   5.708 -0.1767 -1.0349 -0.4476
   93SAPC  H10R 8999  -0.543   5.525   5.749  0.9054  0.7975 -3.7509
   93SAPC  H10S 9000  -0.591   5.396   5.632  1.1175 -1.8111 -1.4638
   93SAPC  C211 9001  -0.381   5.442   5.637 -0.2608 -0.2458  0.2720
   93SAPC  H11R 9002  -0.300   5.443   5.712 -0.0103  0.6449  0.0041
   93SAPC  C212 9003  -0.355   5.443   5.507  0.0290 -0.0336  0.6420
   93SAPC  H12R 9004  -0.246   5.457   5.495  0.0908 -0.2577  0.9239
   93SAPC  C213 9005  -0.442   5.432   5.387  0.3188  0.1512  0.2110
   93SAPC  H13R 9006  -0.454   5.539   5.360 -0.3211  0.1424  0.4567
   93SAPC  H13S 9007  -0.542   5.397   5.419  0.1708 -0.8067 -1.2205
   93SAPC  C214 9008  -0.389   5.369   5.265  0.3750  0.3794  0.0342
   93SAPC  H14R 9009  -0.321   5.283   5.279  0.8922  0.0304 -3.7517
   93SAPC  C215 9010  -0.406   5.411   5.141  0.3890 -0.9378  0.0676
   93SAPC  H15R 9011  -0.342   5.368   5.063 -0.0989 -0.4663 -0.5994
   93SAPC  C216 9012  -0.490   5.532   5.097  0.0865  0.6292  0.4252
   93SAPC  H16R 9013  -0.542   5.584   5.180 -2.4219  0.2797 -0.8494
   93SAPC  H16S 9014  -0.567   5.505   5.022 -1.2476  4.5194  0.1398
   93SAPC  C217 9015  -0.402   5.639   5.014  0.5134  0.2586 -0.4866
   93SAPC  H17R 9016  -0.316   5.675   5.074  0.9467 -3.0417  1.1019
   93SAPC  H17S 9017  -0.458   5.734   5.006 -1.0018 -0.6818 -1.7733
   93SAPC  C218 9018  -0.355   5.588   4.872 -0.2407  0.3153  0.2875
   93SAPC  H18R 9019  -0.419   5.503   4.842  2.4676 -2.3207  1.4811
   93SAPC  H18S 9020  -0.256   5.536   4.873  1.0262  2.5725 -0.4579
   93SAPC  C219 9021  -0.359   5.699   4.768 -0.0445 -0.3502  0.1960
   93SAPC  H19R 9022  -0.279   5.775   4.780 -0.9207  0.7311 -0.5281
   93SAPC  H19S 9023  -0.450   5.759   4.792  0.1125  1.0394 -2.3231
   93SAPC  C220 9024  -0.366   5.655   4.622 -0.2357  1.1480  0.2180
   93SAPC  H20R 9025  -0.397   5.726   4.542  0.0820 -0.1629 -1.1107
   93SAPC  H20S 9026  -0.424   5.561   4.611  0.9230  0.2950  1.2381
   93SAPC  H20T 9027  -0.265   5.623   4.587 -0.8564  0.4214 -0.9882
   93SAPC   C33 9028   0.006   5.457   6.020  0.8245  0.0432 -0.2944
   93SAPC   H3X 9029   0.117   5.462   6.016  0.7661  1.5422 -0.9752
   93SAPC   H3Y 9030  -0.021   5.556   6.062 -1.9362  0.6847 -3.1851
   93SAPC   C34 9031  -0.056   5.427   5.882 -0.2073 -0.4399  0.1361
   93SAPC   H4X 9032  -0.167   5.439   5.880 -0.1466  0.2262 -1.8785
   93SAPC   H4Y 9033  -0.040   5.319   5.859  2.0814 -0.3609  1.0860
   93SAPC   C35 9034  -0.011   5.514   5.763 -0.0503 -0.0466 -0.4375
   93SAPC   H5X 9035  -0.059   5.475   5.671 -1.6767 -0.2344  0.4329
   93SAPC   H5Y 9036   0.098   5.520   5.748  0.3426 -0.5402  1.8625
   93SAPC   C36 9037  -0.030   5.671   5.789  0.4775  0.3946  0.3275
   93SAPC   H6X 9038  -0.016   5.719   5.690 -0.3755 -1.0897 -0.5568
   93SAPC   H6Y 9039   0.053   5.695   5.858 -0.1265 -2.1727  2.0993
   93SAPC   C37 9040  -0.166   5.722   5.848 -0.5881  0.3314 -0.3984
   93SAPC   H7X 9041  -0.182   5.675   5.948  1.5887 -0.8399 -0.5334
   93SAPC   H7Y 9042  -0.248   5.685   5.783  0.3504  1.4071 -2.2771
   93SAPC   C38 9043  -0.178   5.879   5.850 -0.3309  0.1668  0.2959
   93SAPC   H8X 9044  -0.074   5.914   5.859 -0.5674  0.8948  0.2350
   93SAPC   H8Y 9045  -0.237   5.906   5.941 -0.1761  1.8498 -0.0690
   93SAPC   C39 9046  -0.255   5.953   5.739  0.8114 -0.1927  0.4966
   93SAPC   H9X 9047  -0.219   6.059   5.740  1.1762 -0.1372 -3.1471
   93SAPC   H9Y 9048  -0.364   5.947   5.758  0.9148  0.5425  1.3997
   93SAPC  C310 9049  -0.221   5.900   5.598 -0.4903  1.2572 -0.1542
   93SAPC  H10X 9050  -0.266   5.798   5.597 -0.5806  1.2771  0.7131
   93SAPC  H10Y 9051  -0.111   5.881   5.596 -0.8461 -1.1111 -0.3511
   93SAPC  C311 9052  -0.275   5.982   5.483  0.5228  0.1874  0.2183
   93SAPC  H11X 9053  -0.221   6.078   5.474  1.6475 -0.4885 -0.3884
   93SAPC  H11Y 9054  -0.383   5.999   5.506  0.5288  0.5839 -0.0443
   93SAPC  C312 9055  -0.278   5.895   5.354 -0.1575 -0.5458 -1.4012
   93SAPC  H12X 9056  -0.339   5.804   5.372  1.9560 -1.7268  0.2667
   93SAPC  H12Y 9057  -0.178   5.849   5.338  0.1225 -0.5456  0.2036
   93SAPC  C313 9058  -0.332   5.953   5.225  0.3881 -0.0437 -0.2315
   93SAPC  H13X 9059  -0.416   6.024   5.240  1.7578  1.3526  1.0010
   93SAPC  H13Y 9060  -0.362   5.875   5.151  0.0396  0.5831 -0.7596
   93SAPC  C314 9061  -0.224   6.041   5.161 -0.0811 -0.3781 -0.4506
   93SAPC  H14X 9062  -0.137   5.976   5.140  0.0414 -0.7750  1.1247
   93SAPC  H14Y 9063  -0.191   6.125   5.226  0.3997 -1.4389  0.7304
   93SAPC  C315 9064  -0.264   6.110   5.031 -0.0712  0.6385 -0.4326
   93SAPC  H15X 9065  -0.360   6.165   5.044  0.3864  1.3397  0.0426
   93SAPC  H15Y 9066  -0.298   6.033   4.959  1.9380 -1.5994  0.9035
   93SAPC  C316 9067  -0.150   6.195   4.976  0.3240 -0.1766 -0.1070
   93SAPC  H16X 9068  -0.066   6.125   4.994 -1.5219 -2.6278 -0.4866
   93SAPC  H16Y 9069  -0.124   6.284   5.037  1.7362 -0.4418 -0.2827
   93SAPC  C317 9070  -0.162   6.230   4.822 -0.2858 -0.0710  0.2276
   93SAPC  H17X 9071  -0.244   6.304   4.816  1.9683  2.5176 -1.1575
   93SAPC  H17Y 9072  -0.180   6.139   4.761 -0.5384  0.7262 -0.9138
   93SAPC  C318 9073  -0.035   6.291   4.766 -0.2312  0.0045  0.0130
   93SAPC  H18X 9074   0.045   6.214   4.774 -1.0955 -0.6769  3.3919
   93SAPC  H18Y 9075  -0.009   6.385   4.818  1.7663 -1.1810  1.2607
   93SAPC  H18Z 9076  -0.052   6.315   4.658  0.2739  0.7906  0.1073
   94SAPC     N 9077   3.947   2.241   6.681 -0.0997 -0.1391  0.7128
   94SAPC   C12 9078   3.929   2.290   6.536 -0.1228 -0.0749 -0.2256
   94SAPC  H12A 9079   4.017   2.329   6.487 -2.2480  3.1641 -1.7854
   94SAPC  H12B 9080   3.855   2.369   6.536 -1.4845 -1.2837  1.1151
   94SAPC   C13 9081   4.041   2.323   6.766  0.0130 -0.3069 -0.1309
   94SAPC  H13A 9082   3.996   2.420   6.778 -1.9375 -1.1649 -0.2392
   94SAPC  H13B 9083   4.051   2.284   6.866  0.0725 -0.4363 -0.1872
   94SAPC  H13C 9084   4.137   2.333   6.716 -0.2014  1.8563 -0.2037
   94SAPC   C14 9085   3.819   2.235   6.762  0.1029  0.0142  0.4353
   94SAPC  H14A 9086   3.745   2.175   6.710  0.4946 -0.5977  0.5783
   94SAPC  H14B 9087   3.853   2.202   6.859 -1.1010 -3.5623 -0.2120
   94SAPC  H14C 9088   3.770   2.331   6.768 -0.8115 -0.1056 -2.8929
   94SAPC   C15 9089   4.009   2.101   6.683  0.2212 -0.0234 -0.0137
   94SAPC  H15A 9090   4.095   2.106   6.618  1.1878 -1.8830  1.0344
   94SAPC  H15B 9091   4.032   2.067   6.783 -2.1979 -0.8819  0.3311
   94SAPC  H15C 9092   3.938   2.030   6.641 -0.4979  1.0636 -0.6804
   94SAPC   C11 9093   3.874   2.190   6.431  0.5697  1.0590 -0.1572
   94SAPC  H11A 9094   3.942   2.104   6.413 -2.9975 -1.5289 -2.6514
   94SAPC  H11B 9095   3.871   2.251   6.338 -0.0427 -0.4931 -1.1842
   94SAPC     P 9096   3.615   2.204   6.441  0.0678  0.2181 -0.4975
   94SAPC   O13 9097   3.515   2.122   6.506 -0.0879 -0.3165 -0.3150
   94SAPC   O14 9098   3.626   2.343   6.487 -0.5040  0.3949 -0.9901
   94SAPC   O12 9099   3.753   2.130   6.465  0.3392  0.0427 -0.9709
   94SAPC   O11 9100   3.587   2.202   6.285 -0.1386  0.0147  0.1966
   94SAPC    C1 9101   3.632   2.109   6.193 -0.1261 -0.0647 -0.0098
   94SAPC    HA 9102   3.741   2.129   6.178  0.3149 -0.9495  1.8034
   94SAPC    HB 9103   3.623   2.006   6.232  1.8580  0.9391  3.4780
   94SAPC    C2 9104   3.558   2.116   6.054  0.7645  0.6504 -0.3204
   94SAPC    HS 9105   3.593   2.029   5.993 -1.4699  0.8841 -2.0926
   94SAPC   O21 9106   3.575   2.244   5.979 -0.3348 -0.5632  0.2170
   94SAPC   C21 9107   3.685   2.261   5.919 -0.8443  0.5182 -0.7374
   94SAPC   O22 9108   3.778   2.183   5.907  0.7597  0.4848 -0.5304
   94SAPC   C22 9109   3.687   2.397   5.850  0.5429  0.8022 -0.3387
   94SAPC   H2R 9110   3.752   2.394   5.760 -1.1181  3.6162 -1.7713
   94SAPC   H2S 9111   3.584   2.414   5.812 -0.0068  1.3884  1.3289
   94SAPC    C3 9112   3.412   2.087   6.062 -0.4604  0.4807 -0.7439
   94SAPC    HX 9113   3.366   2.165   6.127 -0.4410 -0.7460  0.7918
   94SAPC    HY 9114   3.396   1.988   6.111 -2.5461  1.1435  0.0551
   94SAPC   O31 9115   3.363   2.094   5.926  0.0318 -0.0110 -0.0956
   94SAPC   C31 9116   3.252   2.012   5.908 -0.0465  0.0902 -0.8667
   94SAPC   O32 9117   3.206   1.939   5.995  0.1467 -0.0311  0.3825
   94SAPC   C32 9118   3.200   2.028   5.758 -0.0940 -0.3602 -0.1859
   94SAPC   H2X 9119   3.292   2.060   5.705  0.1750  0.3697  0.6863
   94SAPC   H2Y 9120   3.138   2.120   5.771  3.6213  2.0415  2.8792
   94SAPC   C23 9121   3.733   2.504   5.955 -0.5070  0.0095  0.2092
   94SAPC   H3R 9122   3.841   2.501   5.980 -0.9953  2.6326  3.1903
   94SAPC   H3S 9123   3.680   2.489   6.051  0.0661 -0.3213  0.4803
   94SAPC   C24 9124   3.701   2.644   5.905  0.1962 -0.1484  1.2645
   94SAPC   H4R 9125   3.743   2.635   5.802 -1.2122  0.3259  0.6175
   94SAPC   H4S 9126   3.760   2.720   5.961  1.3358  3.1921 -3.7452
   94SAPC   C25 9127   3.557   2.678   5.900  0.6247  0.1294  0.3424
   94SAPC   H5R 9128   3.512   2.660   5.999 -1.1422 -2.1946 -0.7870
   94SAPC   C26 9129   3.471   2.707   5.797  0.4264 -0.5539 -0.1614
   94SAPC   H6R 9130   3.367   2.739   5.814  0.1982 -2.1900  2.0437
   94SAPC   C27 9131   3.522   2.701   5.649 -0.2125  0.0464 -0.0185
   94SAPC   H7R 9132   3.584   2.611   5.627  1.0121  1.1120 -1.1264
   94SAPC   H7S 9133   3.583   2.792   5.628 -0.0592 -0.5229 -2.4072
   94SAPC   C28 9134   3.414   2.704   5.536 -0.0154  0.2652  0.1922
   94SAPC   H8R 9135   3.309   2.696   5.566 -0.5717  0.7465 -1.5652
   94SAPC   C29 9136   3.436   2.712   5.404 -0.2336 -0.5125 -0.2503
   94SAPC   H9R 9137   3.353   2.720   5.332  1.6307  1.3730 -2.3415
   94SAPC  C210 9138   3.568   2.723   5.327 -0.1117  0.0605 -0.5063
   94SAPC  H10R 9139   3.647   2.699   5.402 -1.1008 -1.2320  0.1516
   94SAPC  H10S 9140   3.583   2.828   5.295  1.9130  0.8088  2.4367
   94SAPC  C211 9141   3.581   2.627   5.211  0.3504  0.3805  0.1741
   94SAPC  H11R 9142   3.536   2.529   5.232  0.0912  0.7514  1.4554
   94SAPC  C212 9143   3.658   2.641   5.102  0.5004 -0.5738 -0.4026
   94SAPC  H12R 9144   3.667   2.551   5.040  0.6197 -0.2993 -0.7870
   94SAPC  C213 9145   3.749   2.761   5.069  0.0037  0.1591  0.4315
   94SAPC  H13R 9146   3.842   2.770   5.129  0.5687  0.5705 -0.4764
   94SAPC  H13S 9147   3.697   2.858   5.082 -0.6223 -0.2497  1.0169
   94SAPC  C214 9148   3.777   2.762   4.923  0.0992  0.0412  0.0436
   94SAPC  H14R 9149   3.694   2.728   4.858 -1.5674  2.2592  0.9006
   94SAPC  C215 9150   3.878   2.811   4.862 -0.1595 -0.5176  0.3393
   94SAPC  H15R 9151   3.880   2.799   4.752 -3.2131  0.7870  0.0555
   94SAPC  C216 9152   4.005   2.864   4.919 -0.0023 -0.0475  0.2622
   94SAPC  H16R 9153   3.986   2.908   5.019  0.1425 -0.6210  0.5477
   94SAPC  H16S 9154   4.049   2.938   4.849  0.1394 -0.8764 -0.5328
   94SAPC  C217 9155   4.119   2.763   4.944 -0.0782 -0.0439  0.4031
   94SAPC  H17R 9156   4.150   2.730   4.842  1.0176  0.9278  0.4114
   94SAPC  H17S 9157   4.083   2.682   5.011  1.0365 -1.1344 -0.2636
   94SAPC  C218 9158   4.238   2.823   5.022  0.6256  0.0581 -0.4059
   94SAPC  H18R 9159   4.199   2.887   5.104 -0.1014  1.4288 -1.7626
   94SAPC  H18S 9160   4.295   2.888   4.953  2.4120 -0.6966  0.3097
   94SAPC  C219 9161   4.331   2.709   5.080 -0.4242 -0.5327  0.1180
   94SAPC  H19R 9162   4.391   2.658   5.002 -1.0067  0.4134 -0.9872
   94SAPC  H19S 9163   4.262   2.628   5.110 -0.2929 -1.4142 -1.8286
   94SAPC  C220 9164   4.416   2.755   5.198 -0.5504 -0.3743  0.7717
   94SAPC  H20R 9165   4.351   2.789   5.281  1.0638  1.9631  1.1581
   94SAPC  H20S 9166   4.478   2.841   5.166  0.4462 -0.5381  2.1881
   94SAPC  H20T 9167   4.484   2.678   5.240  0.5416  0.8647  1.3334
   94SAPC   C33 9168   3.134   1.903   5.709  0.0713  0.2302  0.2386
   94SAPC   H3X 9169   3.107   1.912   5.601  1.9000  0.0188 -0.2730
   94SAPC   H3Y 9170   3.037   1.889   5.761 -0.9078  1.0915 -1.2756
   94SAPC   C34 9171   3.228   1.782   5.717  0.4339 -0.4812  0.1668
   94SAPC   H4X 9172   3.225   1.746   5.822  2.4125 -1.2607  0.0016
   94SAPC   H4Y 9173   3.333   1.814   5.700  0.2446 -0.0853 -0.2943
   94SAPC   C35 9174   3.194   1.663   5.630 -0.1944 -0.1423 -0.0359
   94SAPC   H5X 9175   3.091   1.635   5.664 -0.1007  0.5100  0.8104
   94SAPC   H5Y 9176   3.251   1.576   5.670 -0.2456  1.7759  4.8920
   94SAPC   C36 9177   3.198   1.679   5.482  0.3384  0.6303  0.1538
   94SAPC   H6X 9178   3.114   1.744   5.447  0.3264  0.4798 -0.0973
   94SAPC   H6Y 9179   3.180   1.581   5.432 -0.5664  1.3291 -0.9455
   94SAPC   C37 9180   3.336   1.743   5.445  0.2762 -0.0544 -0.2879
   94SAPC   H7X 9181   3.409   1.672   5.490 -1.0814 -1.0175  0.4786
   94SAPC   H7Y 9182   3.347   1.842   5.494  0.8355 -0.7714  1.1169
   94SAPC   C38 9183   3.361   1.771   5.297 -0.1100  0.2386  1.1717
   94SAPC   H8X 9184   3.270   1.819   5.254  0.3159 -0.6444 -0.7933
   94SAPC   H8Y 9185   3.345   1.669   5.257 -1.6888  1.1210 -0.6033
   94SAPC   C39 9186   3.495   1.825   5.266  0.1780 -0.2611  0.1884
   94SAPC   H9X 9187   3.577   1.762   5.308 -1.1108 -1.6522  0.7089
   94SAPC   H9Y 9188   3.494   1.926   5.312 -0.3809 -0.1497 -0.0643
   94SAPC  C310 9189   3.522   1.854   5.113 -0.3019 -0.0890 -0.2139
   94SAPC  H10X 9190   3.448   1.930   5.080  1.2765  0.5405 -2.5523
   94SAPC  H10Y 9191   3.495   1.758   5.066 -0.2299 -0.3391  0.2451
   94SAPC  C311 9192   3.667   1.899   5.073  0.2033 -0.2451  0.5618
   94SAPC  H11X 9193   3.731   1.812   5.099  2.4677  0.8163 -1.1164
   94SAPC  H11Y 9194   3.707   1.987   5.128  1.1357  0.6266 -1.4060
   94SAPC  C312 9195   3.684   1.903   4.918  0.3740  0.9478 -0.1706
   94SAPC  H12X 9196   3.794   1.912   4.909  0.4654  0.6705  0.5416
   94SAPC  H12Y 9197   3.632   1.994   4.880  0.4711 -0.2404 -3.4138
   94SAPC  C313 9198   3.657   1.768   4.845 -1.0379  0.6094  0.3564
   94SAPC  H13X 9199   3.548   1.754   4.830 -0.6956 -0.6238 -1.2804
   94SAPC  H13Y 9200   3.685   1.682   4.910  1.8824  1.0147 -0.2592
   94SAPC  C314 9201   3.742   1.734   4.715  0.4335  0.1671  0.5712
   94SAPC  H14X 9202   3.845   1.703   4.743  1.6527  1.2389 -2.3302
   94SAPC  H14Y 9203   3.744   1.815   4.639 -1.8827  1.3728  1.6547
   94SAPC  C315 9204   3.683   1.615   4.645 -0.2117 -0.0444 -0.4533
   94SAPC  H15X 9205   3.577   1.638   4.623  0.4620  1.6080 -2.2155
   94SAPC  H15Y 9206   3.680   1.542   4.729 -2.2219 -0.2924 -0.7090
   94SAPC  C316 9207   3.772   1.565   4.536  0.0564 -0.3583  0.3987
   94SAPC  H16X 9208   3.880   1.576   4.558 -0.0727  0.3569  0.7377
   94SAPC  H16Y 9209   3.754   1.636   4.453 -0.3019  0.9181  1.5141
   94SAPC  C317 9210   3.725   1.429   4.480  0.4515 -0.1517  0.2552
   94SAPC  H17X 9211   3.615   1.433   4.467  0.3835 -2.4310 -0.2166
   94SAPC  H17Y 9212   3.744   1.351   4.556  0.4199  0.1295  0.5545
   94SAPC  C318 9213   3.779   1.382   4.350 -0.0739 -0.0933  0.2506
   94SAPC  H18X 9214   3.760   1.449   4.264 -0.7874  0.3609  0.7540
   94SAPC  H18Y 9215   3.738   1.283   4.320  3.4063 -1.3011 -1.0903
   94SAPC  H18Z 9216   3.889   1.375   4.364  0.3033  1.8664 -1.2699
   95SAPC     N 9217   1.037   0.037   1.973 -0.9918 -0.4882  0.4279
   95SAPC   C12 9218   1.097   0.112   2.094  0.7363 -0.5134  0.1064
   95SAPC  H12A 9219   1.144   0.201   2.056 -2.6808  0.9714 -1.0667
   95SAPC  H12B 9220   1.169   0.047   2.142 -0.0045 -0.4498  1.3519
   95SAPC   C13 9221   0.973  -0.091   2.006 -0.0290  0.4792 -0.5617
   95SAPC  H13A 9222   1.044  -0.160   2.047  1.4143  2.3186  0.1709
   95SAPC  H13B 9223   0.900  -0.071   2.083 -0.9383 -2.1257 -0.6641
   95SAPC  H13C 9224   0.929  -0.144   1.922  0.2259 -2.7685  1.2202
   95SAPC   C14 9225   0.943   0.132   1.899 -0.6146  0.1135 -0.2798
   95SAPC  H14A 9226   1.001   0.207   1.847  0.2856  0.6773  1.4568
   95SAPC  H14B 9227   0.876   0.084   1.829  0.2711  1.6592 -2.3186
   95SAPC  H14C 9228   0.881   0.180   1.973  1.0343  0.0899  1.1990
   95SAPC   C15 9229   1.150   0.011   1.887  0.3237 -0.2184 -0.3990
   95SAPC  H15A 9230   1.227  -0.048   1.934 -0.4583 -0.4502  0.6233
   95SAPC  H15B 9231   1.113  -0.047   1.803  0.5584 -1.0816  0.0838
   95SAPC  H15C 9232   1.198   0.101   1.851  1.2037 -0.7080 -0.4790
   95SAPC   C11 9233   1.011   0.148   2.216  0.2780  0.8743  0.5310
   95SAPC  H11A 9234   1.066   0.216   2.285  0.2880  1.4392 -0.0213
   95SAPC  H11B 9235   1.004   0.048   2.262  1.6983 -0.3854 -1.7852
   95SAPC     P 9236   0.760   0.142   2.243 -0.2042 -0.0259  0.0304
   95SAPC   O13 9237   0.642   0.226   2.211 -0.2024  0.4241  0.1719
   95SAPC   O14 9238   0.748  -0.003   2.215 -0.1396  0.0760 -0.4307
   95SAPC   O12 9239   0.888   0.212   2.172  0.2568 -0.3866  0.0907
   95SAPC   O11 9240   0.796   0.160   2.396 -0.2766 -0.4955 -0.0778
   95SAPC    C1 9241   0.746   0.264   2.479  0.5725 -0.5513 -0.2383
   95SAPC    HA 9242   0.674   0.328   2.425 -0.5790 -1.1232  0.5789
   95SAPC    HB 9243   0.693   0.218   2.566 -1.3484 -1.5996 -1.8889
   95SAPC    C2 9244   0.860   0.365   2.530  0.6750 -0.3188 -0.0509
   95SAPC    HS 9245   0.939   0.386   2.454 -0.1779  2.9675 -0.1826
   95SAPC   O21 9246   0.916   0.317   2.650 -0.1047 -0.0139 -0.2196
   95SAPC   C21 9247   1.044   0.342   2.659  0.2169  0.3700  0.3419
   95SAPC   O22 9248   1.123   0.383   2.576  0.2987  0.3459 -0.1001
   95SAPC   C22 9249   1.084   0.314   2.803  0.4908 -0.7301  0.1680
   95SAPC   H2R 9250   1.030   0.222   2.832 -1.8528  0.6377  0.4002
   95SAPC   H2S 9251   1.194   0.304   2.811  0.3139 -2.6951  0.5882
   95SAPC    C3 9252   0.799   0.514   2.550  0.0035 -0.0669 -0.3435
   95SAPC    HX 9253   0.776   0.567   2.456 -1.4298  1.7744  0.9733
   95SAPC    HY 9254   0.886   0.562   2.600 -0.5739 -3.0613  4.1435
   95SAPC   O31 9255   0.678   0.520   2.624 -0.0601 -0.0010 -0.4412
   95SAPC   C31 9256   0.675   0.593   2.730 -0.8826  0.2941  0.6037
   95SAPC   O32 9257   0.769   0.655   2.776 -0.2062  0.6914  0.4932
   95SAPC   C32 9258   0.536   0.613   2.768  0.2077  0.0773 -0.2254
   95SAPC   H2X 9259   0.481   0.516   2.769  1.6425 -0.8104 -1.9302
   95SAPC   H2Y 9260   0.486   0.676   2.691 -1.0352 -0.0129  0.4778
   95SAPC   C23 9261   1.022   0.425   2.906 -0.2163  0.2735 -0.0948
   95SAPC   H3R 9262   1.044   0.394   3.011 -1.2780 -0.5053 -0.0832
   95SAPC   H3S 9263   0.911   0.429   2.903 -0.1817  2.9037 -0.2658
   95SAPC   C24 9264   1.086   0.565   2.916 -0.4104  0.1712  0.0808
   95SAPC   H4R 9265   1.047   0.617   3.007  3.5128 -0.8432  2.6068
   95SAPC   H4S 9266   1.056   0.632   2.833  1.8947  1.7633  0.4375
   95SAPC   C25 9267   1.236   0.562   2.912 -0.3222  0.2032 -0.5123
   95SAPC   H5R 9268   1.277   0.556   2.810  1.9505 -0.2590  0.3586
   95SAPC   C26 9269   1.328   0.546   3.014 -0.0480  0.4332  0.0397
   95SAPC   H6R 9270   1.435   0.549   2.986 -0.7296 -0.2142 -2.9857
   95SAPC   C27 9271   1.311   0.539   3.161  0.3107 -0.0493 -0.3041
   95SAPC   H7R 9272   1.235   0.617   3.185  0.1922 -0.3671  0.3841
   95SAPC   H7S 9273   1.400   0.584   3.210  1.6085  0.1010 -2.6776
   95SAPC   C28 9274   1.275   0.409   3.226 -0.0453 -0.4582  0.6912
   95SAPC   H8R 9275   1.244   0.328   3.158  3.4279 -0.6169 -0.9264
   95SAPC   C29 9276   1.262   0.378   3.357 -0.4894  0.0691 -0.1472
   95SAPC   H9R 9277   1.221   0.279   3.381  0.5613 -0.2230  0.5182
   95SAPC  C210 9278   1.284   0.482   3.461  0.4002 -1.1047  0.0809
   95SAPC  H10R 9279   1.230   0.576   3.440 -2.2866 -2.3282  1.0183
   95SAPC  H10S 9280   1.392   0.504   3.465  0.4034 -0.9752 -0.6950
   95SAPC  C211 9281   1.251   0.427   3.594 -0.0070 -0.7515  0.7066
   95SAPC  H11R 9282   1.299   0.329   3.608  0.5434 -0.6032 -0.0855
   95SAPC  C212 9283   1.182   0.493   3.692  0.1945  0.4339 -0.6265
   95SAPC  H12R 9284   1.184   0.442   3.789 -0.6349  0.8714 -0.3766
   95SAPC  C213 9285   1.131   0.632   3.694  0.1366 -0.0605  0.4733
   95SAPC  H13R 9286   1.115   0.660   3.587  0.4360 -1.1717  0.1301
   95SAPC  H13S 9287   1.209   0.702   3.729  1.4028 -1.8211  1.3168
   95SAPC  C214 9288   1.004   0.639   3.773  0.0545  0.1345  0.0966
   95SAPC  H14R 9289   0.909   0.630   3.718 -0.2914  0.2146  0.6793
   95SAPC  C215 9290   0.989   0.682   3.901  0.1091  0.1425  0.6378
   95SAPC  H15R 9291   0.893   0.691   3.955  0.5664  1.3547  1.2790
   95SAPC  C216 9292   1.096   0.709   4.002 -0.4143  0.3685 -0.8490
   95SAPC  H16R 9293   1.073   0.800   4.060 -1.4923 -1.3427  1.5994
   95SAPC  H16S 9294   1.195   0.728   3.956  0.0468  2.4961  0.8903
   95SAPC  C217 9295   1.111   0.598   4.109 -0.5513  0.9562 -0.1052
   95SAPC  H17R 9296   1.188   0.631   4.183 -0.8205  1.3089  0.0187
   95SAPC  H17S 9297   1.158   0.504   4.072  2.5763  1.8202  1.3095
   95SAPC  C218 9298   0.980   0.570   4.188  0.1274  0.3212  0.3898
   95SAPC  H18R 9299   0.997   0.463   4.214 -0.8772 -0.1705 -0.8510
   95SAPC  H18S 9300   0.890   0.582   4.124 -0.1166 -0.5189  0.5511
   95SAPC  C219 9301   0.966   0.651   4.319 -0.3345  0.7671  0.0805
   95SAPC  H19R 9302   0.959   0.760   4.301  0.0400  0.7974  0.1044
   95SAPC  H19S 9303   1.051   0.630   4.387  0.5621 -1.9209 -1.7143
   95SAPC  C220 9304   0.833   0.609   4.392 -0.1406  0.1414 -0.0318
   95SAPC  H20R 9305   0.745   0.654   4.343 -1.6517 -0.9145  1.6020
   95SAPC  H20S 9306   0.836   0.645   4.497 -0.6228  1.2368 -0.3821
   95SAPC  H20T 9307   0.819   0.499   4.391 -3.1243  0.4165 -2.9890
   95SAPC   C33 9308   0.532   0.672   2.913 -0.4509 -0.1516 -0.2694
   95SAPC   H3X 9309   0.580   0.772   2.909 -1.3882  0.2834 -1.7816
   95SAPC   H3Y 9310   0.575   0.605   2.991 -1.3790  0.2529  0.6055
   95SAPC   C34 9311   0.390   0.689   2.965  0.3887 -0.0059 -1.1898
   95SAPC   H4X 9312   0.328   0.609   2.921  0.2336 -1.3600  1.2736
   95SAPC   H4Y 9313   0.342   0.781   2.924 -2.1617 -0.6776  0.0249
   95SAPC   C35 9314   0.392   0.687   3.116 -0.3789  0.6092 -0.3677
   95SAPC   H5X 9315   0.468   0.763   3.144  0.2593 -0.1158 -0.0777
   95SAPC   H5Y 9316   0.424   0.589   3.157 -0.9376  0.2443 -0.7859
   95SAPC   C36 9317   0.254   0.703   3.182 -0.2349  0.1868  0.4536
   95SAPC   H6X 9318   0.178   0.638   3.134 -0.0687 -0.2021  0.7148
   95SAPC   H6Y 9319   0.225   0.810   3.186 -3.5845 -0.6285  0.6796
   95SAPC   C37 9320   0.257   0.657   3.331 -0.2562 -0.7951  0.3572
   95SAPC   H7X 9321   0.325   0.726   3.384 -0.8989 -0.0735  0.2672
   95SAPC   H7Y 9322   0.293   0.552   3.337  0.3377 -0.5436  1.4099
   95SAPC   C38 9323   0.114   0.664   3.396  0.1996 -0.2579 -0.5310
   95SAPC   H8X 9324   0.047   0.606   3.329 -1.1043 -0.7258  1.1163
   95SAPC   H8Y 9325   0.076   0.768   3.402  0.1645 -0.3460  1.4235
   95SAPC   C39 9326   0.125   0.605   3.541 -0.5312  0.3913 -0.0002
   95SAPC   H9X 9327   0.209   0.659   3.589  0.4306  1.2096 -2.4490
   95SAPC   H9Y 9328   0.160   0.499   3.542  1.3531  0.9713  1.7811
   95SAPC  C310 9329  -0.005   0.623   3.630 -0.3462  0.7520  1.2250
   95SAPC  H10X 9330  -0.056   0.525   3.641  0.4514 -0.1126 -1.8680
   95SAPC  H10Y 9331  -0.076   0.695   3.584 -1.5598 -1.1102  0.0773
   95SAPC  C311 9332   0.012   0.677   3.771  0.0899 -0.5236  0.4398
   95SAPC  H11X 9333  -0.087   0.704   3.812  0.1063 -0.0041  0.1553
   95SAPC  H11Y 9334   0.066   0.774   3.763 -0.3553 -0.1894  1.4476
   95SAPC  C312 9335   0.068   0.577   3.863 -0.3325 -0.1573  1.0975
   95SAPC  H12X 9336   0.155   0.531   3.811 -0.4588  0.8495 -0.0272
   95SAPC  H12Y 9337  -0.010   0.499   3.870 -1.2504  0.4661 -1.3494
   95SAPC  C313 9338   0.110   0.635   4.008 -1.0574  0.1183 -0.3769
   95SAPC  H13X 9339   0.140   0.742   4.007 -0.1739 -0.1198 -1.4055
   95SAPC  H13Y 9340   0.198   0.582   4.051 -0.8962  0.3751 -0.3859
   95SAPC  C314 9341  -0.006   0.624   4.100 -0.3734  0.0796  0.1040
   95SAPC  H14X 9342  -0.095   0.659   4.043  0.2140  2.9496  0.7785
   95SAPC  H14Y 9343  -0.004   0.692   4.188  0.2836 -1.0765  1.0033
   95SAPC  C315 9344  -0.038   0.482   4.158  0.0263 -0.2697  0.0096
   95SAPC  H15X 9345  -0.068   0.413   4.076 -1.9871 -1.0523  1.3535
   95SAPC  H15Y 9346  -0.131   0.483   4.218  0.1921 -2.6634  0.3850
   95SAPC  C316 9347   0.079   0.409   4.230  0.1004  0.4286 -0.7219
   95SAPC  H16X 9348   0.159   0.381   4.159 -0.9533 -2.1628 -0.9733
   95SAPC  H16Y 9349   0.043   0.311   4.267 -0.2609  0.9572  0.4014
   95SAPC  C317 9350   0.119   0.496   4.351  0.3023  0.2043 -0.7162
   95SAPC  H17X 9351   0.033   0.535   4.410  1.2861  1.9984 -0.3949
   95SAPC  H17Y 9352   0.172   0.585   4.311  1.3398 -0.0152  0.1367
   95SAPC  C318 9353   0.212   0.416   4.449  0.1805 -0.4260 -0.2709
   95SAPC  H18X 9354   0.295   0.366   4.394  0.2223  2.3392 -3.0515
   95SAPC  H18Y 9355   0.150   0.335   4.493 -1.3071  0.8262  0.0242
   95SAPC  H18Z 9356   0.254   0.480   4.529  1.9946  1.4905 -2.5744
   96SAPC     N 9357   2.824   1.894   2.041 -0.3672  0.1840 -0.1543
   96SAPC   C12 9358   2.709   1.925   2.139 -0.3865  0.0615  0.6733
   96SAPC  H12A 9359   2.689   1.835   2.196 -0.6316  0.7565  1.7055
   96SAPC  H12B 9360   2.626   1.956   2.076  0.8419  1.5329 -0.2934
   96SAPC   C13 9361   2.848   2.014   1.955  0.4112  0.3135 -0.0639
   96SAPC  H13A 9362   2.948   2.015   1.915 -0.1035  1.8989 -1.3983
   96SAPC  H13B 9363   2.781   2.016   1.871  0.1552 -1.4974  0.0407
   96SAPC  H13C 9364   2.839   2.108   2.007 -1.1225  1.0448 -1.5412
   96SAPC   C14 9365   2.957   1.873   2.124  0.2152  0.1313 -0.1861
   96SAPC  H14A 9366   3.038   1.833   2.065  1.6925 -1.4508  2.7075
   96SAPC  H14B 9367   2.991   1.967   2.166  0.3318  0.8065 -1.7294
   96SAPC  H14C 9368   2.941   1.807   2.207  1.1787  0.6441  0.4275
   96SAPC   C15 9369   2.797   1.774   1.955 -0.2078 -0.0393  0.1423
   96SAPC  H15A 9370   2.766   1.687   2.011 -0.3960 -0.6991 -0.9761
   96SAPC  H15B 9371   2.722   1.801   1.884  0.2327 -1.2934 -0.8347
   96SAPC  H15C 9372   2.888   1.749   1.902  0.2865 -0.8152  1.2962
   96SAPC   C11 9373   2.722   2.039   2.246  0.2175 -0.4249 -0.5477
   96SAPC  H11A 9374   2.785   2.007   2.332 -2.5729  1.3317  2.3696
   96SAPC  H11B 9375   2.624   2.032   2.298  0.2707 -0.9118 -0.5115
   96SAPC     P 9376   2.648   2.283   2.179  0.2097 -0.1336 -0.9030
   96SAPC   O13 9377   2.718   2.390   2.111  0.3547  0.5036  0.3156
   96SAPC   O14 9378   2.536   2.220   2.114 -0.2906  0.9187  0.0224
   96SAPC   O12 9379   2.760   2.172   2.199  0.0489 -0.2624 -0.4847
   96SAPC   O11 9380   2.601   2.333   2.326 -0.0725 -0.6086  0.0505
   96SAPC    C1 9381   2.695   2.348   2.432 -0.5621  0.0682 -0.0478
   96SAPC    HA 9382   2.800   2.327   2.404 -1.4817  0.7518 -5.0228
   96SAPC    HB 9383   2.690   2.452   2.469  0.9355  0.3108 -0.4696
   96SAPC    C2 9384   2.644   2.259   2.550 -0.2435 -0.3844  0.3636
   96SAPC    HS 9385   2.618   2.159   2.508 -0.5912 -0.8304  1.6104
   96SAPC   O21 9386   2.535   2.326   2.608  1.0683  0.5096  0.3953
   96SAPC   C21 9387   2.441   2.249   2.648  1.0085  0.3912 -0.6338
   96SAPC   O22 9388   2.434   2.130   2.638 -0.0158  0.2284  0.0401
   96SAPC   C22 9389   2.340   2.330   2.726 -0.1180 -0.1362  0.6332
   96SAPC   H2R 9390   2.395   2.363   2.817  0.5519  0.0447  0.1682
   96SAPC   H2S 9391   2.334   2.427   2.672  1.3443 -0.2421  0.2530
   96SAPC    C3 9392   2.757   2.238   2.647 -0.0295 -0.2427 -0.2761
   96SAPC    HX 9393   2.835   2.195   2.581  0.1603 -3.9556  2.0654
   96SAPC    HY 9394   2.732   2.158   2.721  1.4093  1.3543  2.0672
   96SAPC   O31 9395   2.802   2.367   2.695  0.8387  0.4057 -0.4583
   96SAPC   C31 9396   2.755   2.393   2.817  0.8284 -0.1743  0.1241
   96SAPC   O32 9397   2.687   2.322   2.881 -0.3558  0.1250 -0.8477
   96SAPC   C32 9398   2.793   2.532   2.864  0.4852  0.6107  0.9518
   96SAPC   H2X 9399   2.702   2.597   2.862 -0.0833  0.1079  4.3476
   96SAPC   H2Y 9400   2.873   2.575   2.800 -0.1916  0.9792  0.3409
   96SAPC   C23 9401   2.206   2.260   2.764  0.4931 -0.2181  0.2147
   96SAPC   H3R 9402   2.231   2.159   2.804  2.5574 -0.3032 -1.1066
   96SAPC   H3S 9403   2.143   2.240   2.674  0.0172 -1.2647  0.7518
   96SAPC   C24 9404   2.117   2.339   2.862 -0.6358 -0.1481 -0.1760
   96SAPC   H4R 9405   2.084   2.429   2.807  1.0581  1.7148  1.6508
   96SAPC   H4S 9406   2.175   2.373   2.951 -0.2293 -1.1159 -0.0629
   96SAPC   C25 9407   1.988   2.267   2.893 -0.1279 -0.0513 -0.0922
   96SAPC   H5R 9408   1.933   2.216   2.812  2.1604 -2.1091 -0.4637
   96SAPC   C26 9409   1.924   2.250   3.007  0.5727  0.3486  1.1296
   96SAPC   H6R 9410   1.829   2.196   3.011  0.2198  0.9557  1.0204
   96SAPC   C27 9411   1.966   2.312   3.143 -0.1797 -0.0975  0.4444
   96SAPC   H7R 9412   1.894   2.392   3.169  0.2039  0.2836  0.3501
   96SAPC   H7S 9413   2.067   2.357   3.137 -0.2558  0.3168  1.8716
   96SAPC   C28 9414   1.956   2.208   3.248  0.6157  0.0357 -0.5806
   96SAPC   H8R 9415   1.946   2.103   3.220  0.5839  0.3230 -1.6805
   96SAPC   C29 9416   1.977   2.231   3.382 -0.6451  0.3406  0.9220
   96SAPC   H9R 9417   1.977   2.141   3.444  1.5757 -1.2859 -1.2183
   96SAPC  C210 9418   2.010   2.362   3.441 -0.6644 -0.6313  0.7691
   96SAPC  H10R 9419   1.929   2.380   3.516  1.0189 -1.2144  2.8398
   96SAPC  H10S 9420   2.018   2.443   3.366 -0.4614 -1.5404 -0.2055
   96SAPC  C211 9421   2.147   2.347   3.503  0.3017  0.0952  0.1568
   96SAPC  H11R 9422   2.227   2.313   3.436  0.2567  0.5158 -0.1181
   96SAPC  C212 9423   2.182   2.378   3.633  0.1792 -0.5032  0.1416
   96SAPC  H12R 9424   2.287   2.360   3.660  0.6962  1.6049 -0.2813
   96SAPC  C213 9425   2.090   2.436   3.739 -0.2237  0.3005  0.8558
   96SAPC  H13R 9426   1.999   2.375   3.757  0.1385 -0.6967 -0.5724
   96SAPC  H13S 9427   2.046   2.534   3.710 -1.1851 -0.6622 -1.1674
   96SAPC  C214 9428   2.157   2.450   3.874 -0.0730  0.2584  0.3022
   96SAPC  H14R 9429   2.202   2.550   3.881 -0.1019  0.3236 -0.4006
   96SAPC  C215 9430   2.159   2.360   3.973  0.3220  0.3389 -0.6316
   96SAPC  H15R 9431   2.205   2.389   4.068 -2.7743 -1.1236  1.4852
   96SAPC  C216 9432   2.099   2.220   3.975  0.1958  0.0461  0.7845
   96SAPC  H16R 9433   2.174   2.148   4.012 -1.3274 -1.6768  0.6507
   96SAPC  H16S 9434   2.065   2.187   3.874 -2.2531 -1.3601  1.9652
   96SAPC  C217 9435   1.983   2.219   4.074  0.2535  0.2702 -0.1678
   96SAPC  H17R 9436   1.904   2.292   4.045  0.6137  0.7987  0.1771
   96SAPC  H17S 9437   2.020   2.229   4.178  2.1897 -0.3939 -0.7506
   96SAPC  C218 9438   1.900   2.088   4.076  0.1924 -0.2005 -0.4088
   96SAPC  H18R 9439   1.962   1.998   4.096  0.1147 -1.0139 -3.4404
   96SAPC  H18S 9440   1.849   2.069   3.980 -1.1753 -2.0376  0.6136
   96SAPC  C219 9441   1.776   2.076   4.172 -1.0102 -0.0249  0.0675
   96SAPC  H19R 9442   1.807   2.080   4.278 -1.1334 -0.5654  0.1287
   96SAPC  H19S 9443   1.740   1.971   4.162  0.4817 -0.7505  1.7860
   96SAPC  C220 9444   1.666   2.178   4.158  0.0241 -0.2483  0.2611
   96SAPC  H20R 9445   1.651   2.205   4.051 -1.1158 -2.9157 -0.3193
   96SAPC  H20S 9446   1.688   2.276   4.206 -2.3976  1.3374 -1.6523
   96SAPC  H20T 9447   1.571   2.147   4.206  0.2839  0.5974  1.3675
   96SAPC   C33 9448   2.837   2.511   3.008 -0.2307 -1.1467 -0.2656
   96SAPC   H3X 9449   2.903   2.422   3.020  0.5174 -0.4268  1.2671
   96SAPC   H3Y 9450   2.753   2.496   3.079  1.0288  0.4419  1.6609
   96SAPC   C34 9451   2.903   2.640   3.059 -0.2705 -0.7330  0.7617
   96SAPC   H4X 9452   2.844   2.732   3.038  0.2005 -0.8161 -1.1558
   96SAPC   H4Y 9453   3.000   2.654   3.006  0.3213 -1.5153  1.6196
   96SAPC   C35 9454   2.941   2.637   3.209 -0.1431 -0.1563 -0.3102
   96SAPC   H5X 9455   2.988   2.542   3.241  0.5586 -0.3930 -1.9511
   96SAPC   H5Y 9456   2.839   2.630   3.253  0.5271 -0.5921  1.2173
   96SAPC   C36 9457   3.012   2.754   3.269  0.3296 -0.2360  0.4224
   96SAPC   H6X 9458   2.936   2.835   3.269 -0.6714 -1.0630 -2.2214
   96SAPC   H6Y 9459   3.104   2.784   3.214  0.4382 -1.5509 -0.1386
   96SAPC   C37 9460   3.054   2.722   3.414  1.2832 -0.3299  0.9759
   96SAPC   H7X 9461   2.980   2.663   3.472  1.5016 -1.6576 -0.0423
   96SAPC   H7Y 9462   3.064   2.815   3.473  0.5213  0.0952  0.4438
   96SAPC   C38 9463   3.190   2.646   3.435 -0.3198 -0.5816 -0.0071
   96SAPC   H8X 9464   3.264   2.711   3.384 -1.6750 -0.4988 -1.9811
   96SAPC   H8Y 9465   3.187   2.549   3.381 -0.8598 -0.2090 -0.6641
   96SAPC   C39 9466   3.252   2.629   3.579  0.3198  0.2455 -0.3893
   96SAPC   H9X 9467   3.214   2.533   3.619  2.2121 -0.8760 -1.1955
   96SAPC   H9Y 9468   3.219   2.712   3.646 -0.3837  1.2024 -1.8605
   96SAPC  C310 9469   3.398   2.626   3.578 -0.2645  0.2817  0.1053
   96SAPC  H10X 9470   3.439   2.640   3.681 -1.3064  1.8430  0.3466
   96SAPC  H10Y 9471   3.441   2.713   3.524  1.6784  0.6593  2.0791
   96SAPC  C311 9472   3.468   2.498   3.520 -0.4268 -0.7853 -0.9672
   96SAPC  H11X 9473   3.579   2.499   3.527 -0.4555  0.1723 -0.4973
   96SAPC  H11Y 9474   3.447   2.499   3.411  0.6359 -1.0895 -1.1881
   96SAPC  C312 9475   3.425   2.363   3.575  0.6589  0.2644 -0.1998
   96SAPC  H12X 9476   3.477   2.286   3.513 -0.8934 -0.6040 -0.4687
   96SAPC  H12Y 9477   3.315   2.353   3.566  0.5809  0.5632  0.4016
   96SAPC  C313 9478   3.465   2.335   3.716  0.3900  0.4948  0.2080
   96SAPC  H13X 9479   3.400   2.394   3.784  0.1972 -1.5243  1.9220
   96SAPC  H13Y 9480   3.567   2.373   3.740  1.3027  0.3030 -2.9404
   96SAPC  C314 9481   3.463   2.184   3.744 -0.7887 -0.6094  0.1720
   96SAPC  H14X 9482   3.547   2.145   3.683 -1.1338  0.9704 -1.4133
   96SAPC  H14Y 9483   3.365   2.141   3.714 -0.6774 -0.8239  0.1108
   96SAPC  C315 9484   3.484   2.162   3.895  0.2041  0.1047 -0.9648
   96SAPC  H15X 9485   3.567   2.225   3.933  0.9695 -2.0242  1.1247
   96SAPC  H15Y 9486   3.515   2.056   3.909  0.5401  0.2645 -0.4629
   96SAPC  C316 9487   3.352   2.175   3.971 -0.5098 -0.1837 -0.3374
   96SAPC  H16X 9488   3.285   2.102   3.919  0.1596 -1.5676  0.6763
   96SAPC  H16Y 9489   3.309   2.277   3.960  1.8255  0.9855  0.5928
   96SAPC  C317 9490   3.369   2.156   4.121 -0.0650  0.1254  0.3205
   96SAPC  H17X 9491   3.437   2.233   4.163  1.0760 -0.8323  0.2638
   96SAPC  H17Y 9492   3.413   2.055   4.135 -0.7923 -0.3281 -0.5736
   96SAPC  C318 9493   3.244   2.144   4.199 -0.3930  0.1620 -0.0681
   96SAPC  H18X 9494   3.196   2.047   4.173  1.5051 -0.8219 -0.0702
   96SAPC  H18Y 9495   3.181   2.236   4.193  0.8284  1.4322  3.7074
   96SAPC  H18Z 9496   3.271   2.136   4.307  1.8744  2.5262 -0.3709
   97SAPC     N 9497   1.188   1.158   1.880 -0.1652  0.4186 -0.1397
   97SAPC   C12 9498   1.109   1.047   1.957 -0.8836  0.4717  1.0107
   97SAPC  H12A 9499   1.055   1.101   2.032 -0.6572  1.2226  0.6422
   97SAPC  H12B 9500   1.185   0.992   2.011  1.1743  0.9748 -1.1869
   97SAPC   C13 9501   1.266   1.100   1.769 -0.5053 -0.1819  0.0630
   97SAPC  H13A 9502   1.344   1.033   1.803 -0.8075 -0.0822  0.9900
   97SAPC  H13B 9503   1.210   1.049   1.693  1.1189 -0.7673 -0.7966
   97SAPC  H13C 9504   1.317   1.182   1.721 -1.1166 -0.3322 -0.8500
   97SAPC   C14 9505   1.087   1.251   1.820 -0.1639 -0.2851  0.3539
   97SAPC  H14A 9506   1.004   1.191   1.785 -0.0708 -1.1263  1.5212
   97SAPC  H14B 9507   1.048   1.323   1.890  0.5082  1.4576 -0.9969
   97SAPC  H14C 9508   1.132   1.307   1.739  0.3921 -1.7098 -0.3647
   97SAPC   C15 9509   1.271   1.238   1.980 -0.0613 -0.1847  0.7562
   97SAPC  H15A 9510   1.214   1.269   2.066  1.4636  1.8143  1.0876
   97SAPC  H15B 9511   1.350   1.174   2.016  0.8567 -0.0008 -0.8165
   97SAPC  H15C 9512   1.303   1.326   1.928 -1.5298 -0.7674 -1.2899
   97SAPC   C11 9513   1.017   0.942   1.884  0.1753  0.7329 -0.5785
   97SAPC  H11A 9514   0.957   0.890   1.961  1.5330 -2.0881 -1.3060
   97SAPC  H11B 9515   1.085   0.866   1.840 -1.4442 -1.9096  1.2128
   97SAPC     P 9516   0.785   1.062   1.836  0.5159  0.2059  0.0310
   97SAPC   O13 9517   0.740   1.143   1.725 -0.0490  0.1879  0.2982
   97SAPC   O14 9518   0.695   0.956   1.881  0.0208  0.8717  0.3036
   97SAPC   O12 9519   0.923   1.000   1.790  0.1862 -0.2489 -0.5319
   97SAPC   O11 9520   0.817   1.155   1.958 -0.8316  0.0145  0.1484
   97SAPC    C1 9521   0.817   1.116   2.093  0.4408 -0.1408 -0.0207
   97SAPC    HA 9522   0.810   1.008   2.117 -3.1717  0.1975  1.1486
   97SAPC    HB 9523   0.913   1.150   2.137  0.9174 -0.3650 -0.8725
   97SAPC    C2 9524   0.698   1.181   2.180 -0.6374 -0.5262  0.7748
   97SAPC    HS 9525   0.603   1.176   2.122 -0.1569 -1.8494  0.0598
   97SAPC   O21 9526   0.738   1.315   2.208 -0.5300  0.2046 -0.1199
   97SAPC   C21 9527   0.641   1.391   2.267  0.6710  0.0136 -0.2066
   97SAPC   O22 9528   0.522   1.360   2.272 -0.0543 -0.2796 -0.0358
   97SAPC   C22 9529   0.696   1.531   2.306  0.0844 -0.5680 -0.3036
   97SAPC   H2R 9530   0.782   1.518   2.374  2.0369  0.8235 -2.3863
   97SAPC   H2S 9531   0.744   1.578   2.218 -1.9449  3.5168  0.5289
   97SAPC    C3 9532   0.669   1.096   2.303 -0.4958 -0.2275  0.0346
   97SAPC    HX 9533   0.629   0.997   2.273 -0.3454 -0.9436  2.0669
   97SAPC    HY 9534   0.588   1.127   2.372  0.0303  0.1444  0.5003
   97SAPC   O31 9535   0.790   1.060   2.374 -0.0174  0.5932 -0.0856
   97SAPC   C31 9536   0.842   1.143   2.467  0.6025 -0.5895  0.6287
   97SAPC   O32 9537   0.802   1.258   2.474  0.5226  0.2459  0.8852
   97SAPC   C32 9538   0.959   1.092   2.556  0.6130 -0.1175 -0.0054
   97SAPC   H2X 9539   1.046   1.160   2.542  0.9105 -0.3136  0.8228
   97SAPC   H2Y 9540   0.983   0.988   2.525 -2.1115 -1.2075  1.1883
   97SAPC   C23 9541   0.592   1.620   2.372 -0.2667 -0.7567 -0.1535
   97SAPC   H3R 9542   0.526   1.568   2.445 -0.2516 -1.9816 -0.9836
   97SAPC   H3S 9543   0.531   1.650   2.284  0.1802 -2.7249 -1.2044
   97SAPC   C24 9544   0.658   1.751   2.432 -0.1349 -0.1790 -0.6786
   97SAPC   H4R 9545   0.709   1.811   2.354 -0.4186  0.6628 -0.2331
   97SAPC   H4S 9546   0.730   1.719   2.509  0.8811  0.3593 -1.3806
   97SAPC   C25 9547   0.546   1.826   2.495 -0.0644  0.1426 -0.5100
   97SAPC   H5R 9548   0.493   1.886   2.420 -0.0463 -0.7258 -1.2407
   97SAPC   C26 9549   0.522   1.841   2.629 -0.9206  0.0063 -0.4998
   97SAPC   H6R 9550   0.431   1.891   2.665  0.4176  0.5464  2.4014
   97SAPC   C27 9551   0.587   1.758   2.745  0.2282 -0.1531  0.7370
   97SAPC   H7R 9552   0.592   1.821   2.836  0.9058 -0.5466  0.9808
   97SAPC   H7S 9553   0.695   1.736   2.731  0.5982  0.9447  1.7044
   97SAPC   C28 9554   0.539   1.622   2.778  0.0246  0.2139  0.2214
   97SAPC   H8R 9555   0.510   1.564   2.689  2.6570 -2.4432  0.9252
   97SAPC   C29 9556   0.535   1.565   2.899 -0.1779  0.1307  0.1038
   97SAPC   H9R 9557   0.516   1.456   2.906  1.2122 -0.2310 -1.2325
   97SAPC  C210 9558   0.583   1.630   3.019 -0.1147  0.4263  0.0941
   97SAPC  H10R 9559   0.612   1.737   3.007  1.9514 -0.3250 -2.5300
   97SAPC  H10S 9560   0.684   1.588   3.035 -1.1405 -2.0095  0.6564
   97SAPC  C211 9561   0.498   1.593   3.137 -0.2238  0.8597 -0.2212
   97SAPC  H11R 9562   0.489   1.486   3.161  1.2293  0.7746 -0.0217
   97SAPC  C212 9563   0.428   1.677   3.221 -0.0948  0.8655  0.4204
   97SAPC  H12R 9564   0.386   1.633   3.312  0.7116  1.5815  1.1627
   97SAPC  C213 9565   0.415   1.824   3.209 -0.8144 -0.2418 -0.4942
   97SAPC  H13R 9566   0.515   1.868   3.185 -0.6817 -0.5810 -0.5617
   97SAPC  H13S 9567   0.382   1.875   3.302  0.6588  0.1231 -0.1371
   97SAPC  C214 9568   0.320   1.863   3.098  0.5463  0.0362 -0.1634
   97SAPC  H14R 9569   0.249   1.789   3.061 -1.1295  1.5252 -0.0776
   97SAPC  C215 9570   0.331   1.980   3.027  0.3409 -0.6780  0.1706
   97SAPC  H15R 9571   0.247   2.015   2.965 -0.5815 -3.1206 -0.0797
   97SAPC  C216 9572   0.417   2.092   3.073  0.2232  0.5492  0.0285
   97SAPC  H16R 9573   0.439   2.081   3.181  0.6484 -1.1077 -0.1962
   97SAPC  H16S 9574   0.368   2.191   3.061 -0.1762  0.4179  0.5116
   97SAPC  C217 9575   0.540   2.092   2.977 -0.9995  0.4863 -0.4347
   97SAPC  H17R 9576   0.579   1.989   2.966 -1.8942  0.3305 -2.7979
   97SAPC  H17S 9577   0.618   2.158   3.022 -0.1032 -1.4795  1.0019
   97SAPC  C218 9578   0.506   2.152   2.844  0.3478 -0.1661 -0.6216
   97SAPC  H18R 9579   0.473   2.253   2.875  2.9654  0.3235  0.9121
   97SAPC  H18S 9580   0.416   2.109   2.795  0.2711 -0.7943  0.0468
   97SAPC  C219 9581   0.628   2.165   2.756 -0.5069 -0.6064  0.5036
   97SAPC  H19R 9582   0.621   2.089   2.675  0.6689 -0.5252  0.3078
   97SAPC  H19S 9583   0.729   2.157   2.801  0.4284  0.0309 -1.3690
   97SAPC  C220 9584   0.634   2.301   2.676  0.0134 -0.2098 -0.6887
   97SAPC  H20R 9585   0.557   2.303   2.596 -0.0182  0.3235 -0.6483
   97SAPC  H20S 9586   0.737   2.321   2.638  0.6997  0.9527  1.5888
   97SAPC  H20T 9587   0.614   2.383   2.748 -1.6824 -0.8028 -0.4531
   97SAPC   C33 9588   0.923   1.086   2.710  0.1412  0.0557  0.3298
   97SAPC   H3X 9589   0.822   1.042   2.724 -1.1802  2.3918 -1.3541
   97SAPC   H3Y 9590   0.896   1.191   2.731 -0.6259  0.0720 -0.7186
   97SAPC   C34 9591   1.032   1.041   2.801  0.2432  0.3442 -0.2804
   97SAPC   H4X 9592   1.118   1.109   2.783 -0.5924  1.5019  0.0009
   97SAPC   H4Y 9593   1.056   0.936   2.772  0.2615  0.6983 -1.6152
   97SAPC   C35 9594   1.001   1.038   2.948  0.6697 -0.1420 -0.3312
   97SAPC   H5X 9595   0.943   1.129   2.976  0.5742 -0.7379  1.5200
   97SAPC   H5Y 9596   1.098   1.064   2.996  0.6614  0.4462 -0.6273
   97SAPC   C36 9597   0.948   0.907   3.004  0.2676  0.4918  0.5355
   97SAPC   H6X 9598   1.023   0.826   2.990 -1.3562 -0.9937  0.0301
   97SAPC   H6Y 9599   0.858   0.885   2.943 -0.9786 -0.0245  2.4661
   97SAPC   C37 9600   0.882   0.921   3.141  0.1009  0.2081  0.3955
   97SAPC   H7X 9601   0.786   0.976   3.129 -0.3654 -0.8012 -0.6767
   97SAPC   H7Y 9602   0.952   0.978   3.207  1.2477 -1.3025  0.5468
   97SAPC   C38 9603   0.860   0.778   3.205  0.4350 -0.6233  0.3206
   97SAPC   H8X 9604   0.964   0.751   3.234  1.3917  0.8426 -1.5259
   97SAPC   H8Y 9605   0.825   0.708   3.126  2.0182  0.1204 -1.1222
   97SAPC   C39 9606   0.742   0.797   3.308  0.1102  0.5178 -0.2608
   97SAPC   H9X 9607   0.740   0.697   3.357 -1.3289  0.7091  0.1261
   97SAPC   H9Y 9608   0.647   0.810   3.252  1.5532  0.4431 -2.8562
   97SAPC  C310 9609   0.767   0.891   3.421  0.5875 -0.5732 -0.6588
   97SAPC  H10X 9610   0.737   0.995   3.392  0.4668 -0.9492 -1.9412
   97SAPC  H10Y 9611   0.877   0.882   3.435  1.1518  1.1085 -3.3103
   97SAPC  C311 9612   0.698   0.847   3.552 -0.0528 -0.4466 -0.3529
   97SAPC  H11X 9613   0.759   0.762   3.587  2.1428  1.4203  0.6023
   97SAPC  H11Y 9614   0.591   0.825   3.530 -0.1048 -1.0281  0.4601
   97SAPC  C312 9615   0.705   0.937   3.670 -0.3074 -0.1593 -0.0752
   97SAPC  H12X 9616   0.688   1.045   3.649  2.9977  0.7435  1.0980
   97SAPC  H12Y 9617   0.810   0.936   3.707 -0.0049 -0.6892 -0.9216
   97SAPC  C313 9618   0.610   0.902   3.781  0.1364 -0.0959 -0.7225
   97SAPC  H13X 9619   0.584   0.796   3.799 -0.7567  0.2447  0.0840
   97SAPC  H13Y 9620   0.516   0.959   3.761 -1.3733 -1.4641  1.8810
   97SAPC  C314 9621   0.645   0.969   3.919  0.2657 -0.5521  0.6977
   97SAPC  H14X 9622   0.656   1.079   3.908 -0.9578 -0.4373  0.4109
   97SAPC  H14Y 9623   0.739   0.932   3.964  0.3707  0.0030  0.9397
   97SAPC  C315 9624   0.540   0.952   4.025  0.6155 -0.2649 -0.5350
   97SAPC  H15X 9625   0.440   0.986   3.989 -0.0209  0.4281  1.7044
   97SAPC  H15Y 9626   0.556   1.023   4.108 -2.5345  0.8756 -0.7768
   97SAPC  C316 9627   0.523   0.807   4.083  0.5848 -0.4555 -1.4055
   97SAPC  H16X 9628   0.611   0.740   4.075 -0.1656 -1.3639 -2.3267
   97SAPC  H16Y 9629   0.435   0.764   4.030  0.0470 -0.6265 -0.4034
   97SAPC  C317 9630   0.482   0.802   4.231  0.1920 -0.2745  0.8092
   97SAPC  H17X 9631   0.393   0.869   4.239  0.3624 -0.1444  1.6551
   97SAPC  H17Y 9632   0.572   0.844   4.281  0.7286  0.0097 -0.3606
   97SAPC  C318 9633   0.457   0.663   4.289 -0.4437  0.3114 -0.6377
   97SAPC  H18X 9634   0.441   0.658   4.399  1.4342  0.2683 -0.3330
   97SAPC  H18Y 9635   0.538   0.590   4.270 -2.0849 -1.9946  0.6730
   97SAPC  H18Z 9636   0.370   0.613   4.241  0.3106 -1.9814  0.2521
   98SAPC     N 9637   4.643   5.358   2.436 -0.8601  0.0728  0.1113
   98SAPC   C12 9638   4.648   5.248   2.336 -0.5189 -0.2177  0.7828
   98SAPC  H12A 9639   4.556   5.249   2.280 -0.8860  2.6958  1.2494
   98SAPC  H12B 9640   4.649   5.156   2.393 -3.4846 -1.1208 -0.4302
   98SAPC   C13 9641   4.621   5.489   2.369 -0.2355 -0.5018  0.7574
   98SAPC  H13A 9642   4.529   5.490   2.314 -0.0450 -0.8953  0.4264
   98SAPC  H13B 9643   4.617   5.566   2.445 -1.7064 -2.0504  2.3284
   98SAPC  H13C 9644   4.703   5.511   2.302 -0.1285 -1.0741  0.6980
   98SAPC   C14 9645   4.525   5.347   2.528  0.3039 -0.3602  1.2907
   98SAPC  H14A 9646   4.499   5.251   2.572 -2.2270  0.1582  1.0518
   98SAPC  H14B 9647   4.537   5.407   2.617 -2.0788  0.4545  1.1259
   98SAPC  H14C 9648   4.433   5.360   2.474 -0.7794 -2.0962  2.5905
   98SAPC   C15 9649   4.771   5.372   2.528  0.8821  0.3209  0.3512
   98SAPC  H15A 9650   4.758   5.464   2.583  0.3811  0.0392  0.7202
   98SAPC  H15B 9651   4.784   5.293   2.601 -0.7686  1.1255  1.5875
   98SAPC  H15C 9652   4.861   5.379   2.470  0.9092  0.8681  0.4531
   98SAPC   C11 9653   4.769   5.224   2.248  0.6579 -0.1544  0.1787
   98SAPC  H11A 9654   4.799   5.321   2.203 -0.7089  0.9256  1.4976
   98SAPC  H11B 9655   4.755   5.159   2.159 -0.4605  0.9748 -0.4946
   98SAPC     P 9656   4.875   5.019   2.380 -0.2890  0.1578 -0.0756
   98SAPC   O13 9657   4.744   4.983   2.435  0.3946  0.0310 -0.1185
   98SAPC   O14 9658   4.927   4.939   2.271 -0.2483 -0.2688 -0.1460
   98SAPC   O12 9659   4.879   5.169   2.331 -0.6323 -0.6833 -0.0188
   98SAPC   O11 9660   4.974   5.008   2.503 -0.2306  0.1241  0.7385
   98SAPC    C1 9661   5.118   5.034   2.486  0.5696  0.3899  0.3767
   98SAPC    HA 9662   5.149   5.045   2.380 -1.4885  1.7362 -0.1421
   98SAPC    HB 9663   5.145   5.133   2.528  0.8236  1.5848 -2.3743
   98SAPC    C2 9664   5.198   4.920   2.551  0.6296 -0.7662 -0.3020
   98SAPC    HS 9665   5.161   4.827   2.505  0.0438 -2.3029  2.9706
   98SAPC   O21 9666   5.169   4.928   2.693  0.0950  0.4968 -0.0213
   98SAPC   C21 9667   5.109   4.819   2.739  0.0314 -0.4047 -0.2892
   98SAPC   O22 9668   5.075   4.717   2.680  0.6552  0.0209 -0.3513
   98SAPC   C22 9669   5.078   4.851   2.887 -0.6973 -0.1943 -0.4741
   98SAPC   H2R 9670   5.172   4.829   2.942 -0.7028  0.6257 -0.1282
   98SAPC   H2S 9671   5.047   4.958   2.890 -0.6586 -0.1910 -0.1604
   98SAPC    C3 9672   5.346   4.934   2.522 -0.0745  0.6473 -0.1331
   98SAPC    HX 9673   5.376   5.032   2.564  0.1036  0.3702  0.3889
   98SAPC    HY 9674   5.369   4.939   2.413 -1.0705  1.6177 -0.3176
   98SAPC   O31 9675   5.421   4.829   2.585  0.1169 -0.0893 -0.3136
   98SAPC   C31 9676   5.470   4.849   2.710 -0.7978 -0.2058  0.6385
   98SAPC   O32 9677   5.475   4.958   2.764 -0.3695  0.2447  0.1584
   98SAPC   C32 9678   5.499   4.718   2.774 -0.4945 -0.1907 -0.1658
   98SAPC   H2X 9679   5.587   4.677   2.722 -1.2295 -0.5048 -1.1866
   98SAPC   H2Y 9680   5.410   4.651   2.774  0.6476 -1.7683 -1.9624
   98SAPC   C23 9681   4.968   4.770   2.965 -0.1408 -0.3602 -0.3970
   98SAPC   H3R 9682   5.000   4.665   2.951  0.2122 -0.3969  0.6093
   98SAPC   H3S 9683   4.868   4.783   2.917  0.8405  0.5844 -2.3395
   98SAPC   C24 9684   4.963   4.819   3.112 -0.4389 -0.2679  0.2179
   98SAPC   H4R 9685   4.952   4.929   3.120  1.8755  0.1252 -1.2470
   98SAPC   H4S 9686   5.061   4.784   3.151  0.3862 -1.1405 -2.4043
   98SAPC   C25 9687   4.858   4.748   3.186 -0.2021 -0.6479 -0.2504
   98SAPC   H5R 9688   4.765   4.733   3.129  1.6191  0.1721 -3.7708
   98SAPC   C26 9689   4.869   4.687   3.304  0.1398  0.5920  0.0541
   98SAPC   H6R 9690   4.772   4.647   3.336 -1.3508  1.5311 -2.9348
   98SAPC   C27 9691   4.986   4.683   3.398  0.8466 -0.3349 -0.1848
   98SAPC   H7R 9692   4.985   4.756   3.482  1.3152  1.3406 -1.5880
   98SAPC   H7S 9693   5.078   4.701   3.339  0.5104 -0.0930 -0.6414
   98SAPC   C28 9694   4.989   4.539   3.453 -0.0672 -0.5251  0.0384
   98SAPC   H8R 9695   5.017   4.460   3.382 -0.9153 -2.6758  1.9834
   98SAPC   C29 9696   4.993   4.507   3.583  0.2503  0.5864  0.0809
   98SAPC   H9R 9697   4.986   4.400   3.607  0.1093  0.5086 -0.3009
   98SAPC  C210 9698   4.950   4.597   3.701 -0.0845 -0.2215  0.2975
   98SAPC  H10R 9699   4.885   4.678   3.663  0.6511  0.3711  0.2647
   98SAPC  H10S 9700   5.032   4.660   3.743  0.8504 -0.7113 -0.7400
   98SAPC  C211 9701   4.873   4.517   3.809  0.3988 -0.4472  0.0607
   98SAPC  H11R 9702   4.789   4.456   3.773 -0.3929  1.1031 -0.8092
   98SAPC  C212 9703   4.917   4.498   3.937  0.9735  0.4062  0.0232
   98SAPC  H12R 9704   4.856   4.441   4.009 -1.0815  2.7240  0.2232
   98SAPC  C213 9705   5.040   4.557   3.992 -0.3917  0.4050 -0.3661
   98SAPC  H13R 9706   5.121   4.533   3.920  1.3219 -3.5939  2.4939
   98SAPC  H13S 9707   5.085   4.496   4.073 -0.6134  0.9249  0.1553
   98SAPC  C214 9708   5.033   4.699   4.028 -0.2077  0.6073  0.8040
   98SAPC  H14R 9709   5.043   4.772   3.947 -0.2072  0.8142  0.9880
   98SAPC  C215 9710   5.026   4.750   4.146 -0.1015 -0.3986 -0.9182
   98SAPC  H15R 9711   4.998   4.856   4.156 -1.8221 -0.8412 -0.8222
   98SAPC  C216 9712   5.024   4.671   4.279  0.5069 -0.3001  0.2487
   98SAPC  H16R 9713   5.000   4.563   4.265  2.7472 -0.7176 -0.8212
   98SAPC  H16S 9714   4.954   4.714   4.354  0.9542 -1.1308  1.1696
   98SAPC  C217 9715   5.159   4.694   4.356 -0.2206  0.7444  0.6186
   98SAPC  H17R 9716   5.182   4.803   4.357  1.5318  0.4675 -1.7755
   98SAPC  H17S 9717   5.237   4.654   4.288 -0.7099  1.0605 -0.1436
   98SAPC  C218 9718   5.173   4.616   4.487  1.0363 -0.1940 -0.1327
   98SAPC  H18R 9719   5.190   4.510   4.460  2.4900 -0.1419  0.5052
   98SAPC  H18S 9720   5.086   4.633   4.555  0.7861 -1.4570 -0.1225
   98SAPC  C219 9721   5.294   4.676   4.563 -0.1334  0.4070  0.8969
   98SAPC  H19R 9722   5.278   4.786   4.571  1.1271  0.6573  0.2370
   98SAPC  H19S 9723   5.377   4.665   4.490 -1.8601  0.5242 -1.1986
   98SAPC  C220 9724   5.315   4.609   4.700 -0.2132 -0.3822 -0.7412
   98SAPC  H20R 9725   5.329   4.500   4.690  1.4250 -0.2656 -0.0603
   98SAPC  H20S 9726   5.224   4.621   4.763 -0.1140  0.3110 -0.7190
   98SAPC  H20T 9727   5.398   4.660   4.754  0.0794 -0.5013 -1.0781
   98SAPC   C33 9728   5.540   4.738   2.926 -0.1311 -0.3220 -0.1301
   98SAPC   H3X 9729   5.565   4.640   2.973 -0.0659  0.0583  0.6537
   98SAPC   H3Y 9730   5.467   4.794   2.988 -0.0896  0.1157 -0.4797
   98SAPC   C34 9731   5.678   4.809   2.932  0.0128  0.1769  0.7842
   98SAPC   H4X 9732   5.673   4.916   2.903 -2.9840 -0.4251 -1.3997
   98SAPC   H4Y 9733   5.738   4.770   2.847 -1.1327  0.8080 -0.3294
   98SAPC   C35 9734   5.761   4.818   3.061 -0.0099 -0.1604  0.7843
   98SAPC   H5X 9735   5.851   4.882   3.052 -0.7079  0.7649  0.2276
   98SAPC   H5Y 9736   5.781   4.711   3.081 -0.4084 -0.5343 -0.7432
   98SAPC   C36 9737   5.681   4.882   3.179 -0.3911  0.0910 -0.5103
   98SAPC   H6X 9738   5.744   4.879   3.270 -2.0695 -1.9016  0.6730
   98SAPC   H6Y 9739   5.592   4.817   3.197 -0.8967  1.1541  1.0149
   98SAPC   C37 9740   5.637   5.023   3.142 -0.3378 -0.1745  0.2013
   98SAPC   H7X 9741   5.564   5.021   3.058 -0.9133 -0.8031  0.7042
   98SAPC   H7Y 9742   5.723   5.079   3.100 -0.0491 -0.8433 -0.1077
   98SAPC   C38 9743   5.577   5.114   3.247  0.2694 -0.1052 -0.5467
   98SAPC   H8X 9744   5.536   5.201   3.191 -1.7805 -0.4094  0.3929
   98SAPC   H8Y 9745   5.665   5.141   3.308  0.7535 -0.3562 -1.1241
   98SAPC   C39 9746   5.464   5.056   3.327  0.5514  0.5387  0.4128
   98SAPC   H9X 9747   5.502   4.993   3.410 -2.6437 -2.3363 -0.0773
   98SAPC   H9Y 9748   5.395   5.007   3.255 -0.6522  1.9380  0.5614
   98SAPC  C310 9749   5.377   5.171   3.379 -0.1869 -0.3855  0.1215
   98SAPC  H10X 9750   5.366   5.254   3.305  1.0290  0.1568  0.5180
   98SAPC  H10Y 9751   5.439   5.208   3.463 -2.4662  0.6307  1.4656
   98SAPC  C311 9752   5.241   5.140   3.439  0.3965  0.0377 -0.0784
   98SAPC  H11X 9753   5.170   5.129   3.354 -0.4210  1.0578  0.4452
   98SAPC  H11Y 9754   5.210   5.226   3.502 -0.0923  0.5083 -0.9444
   98SAPC  C312 9755   5.229   5.010   3.529  0.6930 -1.0013  0.9383
   98SAPC  H12X 9756   5.285   4.926   3.483  2.8694  0.9168 -0.1876
   98SAPC  H12Y 9757   5.125   4.979   3.508  1.1260  0.1310 -4.4221
   98SAPC  C313 9758   5.260   5.029   3.673  0.1755 -0.2594 -0.3805
   98SAPC  H13X 9759   5.180   5.092   3.717 -0.0779 -0.2056 -0.8987
   98SAPC  H13Y 9760   5.352   5.091   3.681  0.6381 -0.7029 -1.8500
   98SAPC  C314 9761   5.270   4.897   3.753  0.5767  0.7920  0.2256
   98SAPC  H14X 9762   5.330   4.822   3.697 -1.8650 -0.0850 -1.3916
   98SAPC  H14Y 9763   5.169   4.852   3.763  0.2625  1.0613 -1.3941
   98SAPC  C315 9764   5.335   4.922   3.883 -0.3040 -0.6082 -0.3111
   98SAPC  H15X 9765   5.433   4.975   3.879 -1.0661  0.8330 -0.6496
   98SAPC  H15Y 9766   5.347   4.825   3.936 -2.6856 -1.9959 -2.1467
   98SAPC  C316 9767   5.246   4.999   3.982 -0.3255  0.0416  1.0200
   98SAPC  H16X 9768   5.140   4.968   3.995  0.4499 -1.8143  3.7068
   98SAPC  H16Y 9769   5.238   5.103   3.943  5.3827  1.4898  2.8338
   98SAPC  C317 9770   5.298   5.016   4.123 -0.1999 -0.4357 -0.2005
   98SAPC  H17X 9771   5.401   5.056   4.131  0.0675 -0.9040 -1.1677
   98SAPC  H17Y 9772   5.307   4.921   4.179  3.1127  0.3158  0.7300
   98SAPC  C318 9773   5.213   5.115   4.199  0.3132  0.0522 -0.1163
   98SAPC  H18X 9774   5.108   5.078   4.202  1.1526 -3.0561 -2.5251
   98SAPC  H18Y 9775   5.203   5.210   4.142  2.3788 -0.3782 -1.3155
   98SAPC  H18Z 9776   5.256   5.139   4.298 -1.0020 -0.1842  0.5312
   99SAPC     N 9777   2.945   4.952   2.500  0.0981  0.1220  0.6701
   99SAPC   C12 9778   2.864   5.075   2.540 -0.5633 -0.8765  0.5326
   99SAPC  H12A 9779   2.824   5.065   2.640 -0.6955  2.0537  0.8411
   99SAPC  H12B 9780   2.781   5.072   2.470 -0.3188  1.5783  0.0791
   99SAPC   C13 9781   3.085   4.941   2.553  0.6698  0.1353 -0.3400
   99SAPC  H13A 9782   3.075   4.927   2.659  2.1160  2.4668  0.1568
   99SAPC  H13B 9783   3.131   4.848   2.521  0.7851 -0.2727  0.9568
   99SAPC  H13C 9784   3.145   5.027   2.529 -0.2398  0.2538 -2.4647
   99SAPC   C14 9785   2.866   4.822   2.530  0.3239 -0.3677 -0.6224
   99SAPC  H14A 9786   2.919   4.736   2.492  0.8124 -0.7289  0.8081
   99SAPC  H14B 9787   2.844   4.799   2.633 -0.6920  0.5177 -0.6153
   99SAPC  H14C 9788   2.773   4.820   2.476 -0.3245  0.3577  0.4212
   99SAPC   C15 9789   2.959   4.964   2.349 -0.4439 -0.0905  0.4823
   99SAPC  H15A 9790   2.862   4.948   2.305 -0.8122  4.0187 -0.6013
   99SAPC  H15B 9791   3.007   5.058   2.325  0.0763  0.2148  2.5522
   99SAPC  H15C 9792   3.030   4.890   2.314 -1.2124  0.3929 -2.3874
   99SAPC   C11 9793   2.926   5.217   2.540  0.1718  0.2777 -0.3924
   99SAPC  H11A 9794   3.014   5.223   2.607  1.8147 -2.1167 -2.2029
   99SAPC  H11B 9795   2.843   5.279   2.581  0.1964 -0.2176  0.4288
   99SAPC     P 9796   2.871   5.333   2.315 -0.0011  0.4267 -0.0611
   99SAPC   O13 9797   2.942   5.406   2.209  0.1299 -0.0906  0.8585
   99SAPC   O14 9798   2.765   5.240   2.269  0.0676 -0.6813 -0.9763
   99SAPC   O12 9799   2.968   5.255   2.406 -0.1530  0.0745  0.0438
   99SAPC   O11 9800   2.806   5.441   2.411  0.4176 -0.4329 -0.4671
   99SAPC    C1 9801   2.866   5.572   2.425 -0.2230  0.1353 -0.5625
   99SAPC    HA 9802   2.969   5.574   2.383 -0.6687 -1.3272 -1.7880
   99SAPC    HB 9803   2.800   5.656   2.392 -2.3653 -0.9564  0.7090
   99SAPC    C2 9804   2.893   5.601   2.577 -0.0607 -0.1404 -0.5042
   99SAPC    HS 9805   2.935   5.703   2.571  0.9404 -0.5486 -0.5756
   99SAPC   O21 9806   2.978   5.498   2.635 -0.4087  0.2515  0.1270
   99SAPC   C21 9807   3.055   5.543   2.729 -0.0714 -0.3480  0.2596
   99SAPC   O22 9808   3.092   5.660   2.747 -0.0243  0.8110 -0.0854
   99SAPC   C22 9809   3.121   5.429   2.810 -0.3110 -0.3771  0.4974
   99SAPC   H2R 9810   3.057   5.339   2.802 -1.2160  0.3124 -0.2287
   99SAPC   H2S 9811   3.213   5.407   2.751 -0.6560  0.6520 -0.4520
   99SAPC    C3 9812   2.767   5.613   2.664 -0.2061 -0.1180 -1.9516
   99SAPC    HX 9813   2.738   5.507   2.681  1.0293 -0.5279 -2.2948
   99SAPC    HY 9814   2.692   5.671   2.606 -0.3091  0.8875 -0.8565
   99SAPC   O31 9815   2.796   5.679   2.796 -0.0477 -0.1056  0.6442
   99SAPC   C31 9816   2.789   5.811   2.800  0.4688  1.0333  1.1624
   99SAPC   O32 9817   2.753   5.880   2.704 -0.2831 -1.1169  0.5464
   99SAPC   C32 9818   2.810   5.858   2.941  0.4802  0.8600  0.1493
   99SAPC   H2X 9819   2.909   5.829   2.981  0.4394 -0.5161 -0.6664
   99SAPC   H2Y 9820   2.734   5.805   3.002  0.7049 -0.7964 -0.9186
   99SAPC   C23 9821   3.176   5.469   2.952  0.0329 -0.3399  0.4266
   99SAPC   H3R 9822   3.258   5.542   2.936 -0.9888  0.4856 -1.3350
   99SAPC   H3S 9823   3.222   5.384   3.006  0.6411  0.5332  1.3418
   99SAPC   C24 9824   3.067   5.529   3.047 -0.4310 -0.5096 -0.0251
   99SAPC   H4R 9825   3.042   5.637   3.035  0.2043  0.0333  2.8078
   99SAPC   H4S 9826   3.126   5.527   3.142  0.9871 -2.5065 -0.8918
   99SAPC   C25 9827   2.937   5.451   3.051 -0.6101  0.4210 -0.1017
   99SAPC   H5R 9828   2.851   5.466   2.984 -1.0321  0.9803  0.5514
   99SAPC   C26 9829   2.914   5.363   3.151 -0.4181 -0.5119  0.4671
   99SAPC   H6R 9830   2.817   5.312   3.146 -0.9751  0.5013  0.6079
   99SAPC   C27 9831   3.007   5.327   3.266 -0.2753 -0.1624 -0.0369
   99SAPC   H7R 9832   3.110   5.362   3.244 -0.8246  0.8456 -1.1453
   99SAPC   H7S 9833   3.001   5.217   3.283 -0.6590 -0.3317 -1.1511
   99SAPC   C28 9834   2.950   5.400   3.379  0.2210 -0.4106 -0.3913
   99SAPC   H8R 9835   2.928   5.504   3.353 -3.5012 -0.9946 -0.2167
   99SAPC   C29 9836   2.940   5.362   3.509 -0.0554  0.1575 -0.4147
   99SAPC   H9R 9837   2.900   5.433   3.582  0.7252 -0.9730  1.1964
   99SAPC  C210 9838   2.982   5.233   3.571  0.0477  0.4043 -0.7779
   99SAPC  H10R 9839   3.077   5.233   3.629 -1.0098  0.1648  1.0323
   99SAPC  H10S 9840   3.004   5.156   3.494  1.7612 -0.1284  0.1901
   99SAPC  C211 9841   2.876   5.190   3.671 -0.0600 -0.3808  0.2929
   99SAPC  H11R 9842   2.781   5.164   3.623  0.0805 -0.5740  0.1183
   99SAPC  C212 9843   2.882   5.166   3.808  0.5854  0.7887  0.3273
   99SAPC  H12R 9844   2.795   5.140   3.869  0.8315  0.3870  0.5109
   99SAPC  C213 9845   3.007   5.182   3.896 -0.2143 -0.1896 -0.5684
   99SAPC  H13R 9846   3.093   5.213   3.832  0.0381 -2.3341 -1.3430
   99SAPC  H13S 9847   3.043   5.086   3.938  2.0521  0.0098 -1.8978
   99SAPC  C214 9848   2.979   5.286   4.003 -0.1224  0.8065 -0.2552
   99SAPC  H14R 9849   2.994   5.388   3.964 -1.7590  1.2373  0.1564
   99SAPC  C215 9850   2.947   5.261   4.137 -0.0071  0.0339 -0.1868
   99SAPC  H15R 9851   2.932   5.336   4.216  3.5758 -2.6143  3.3888
   99SAPC  C216 9852   2.916   5.119   4.188 -0.3070  0.2146 -0.4161
   99SAPC  H16R 9853   3.013   5.080   4.225  1.1366  2.6072 -1.4142
   99SAPC  H16S 9854   2.875   5.051   4.110 -1.9722 -0.4391  0.9692
   99SAPC  C217 9855   2.805   5.121   4.298 -0.4820  0.0924 -0.3114
   99SAPC  H17R 9856   2.715   5.159   4.244 -2.0013 -1.2745  1.1757
   99SAPC  H17S 9857   2.828   5.193   4.379  0.6753 -0.1931 -0.3743
   99SAPC  C218 9858   2.784   4.981   4.365 -0.0241  0.8497  0.2040
   99SAPC  H18R 9859   2.874   4.973   4.429 -0.4548  1.9552  0.9886
   99SAPC  H18S 9860   2.772   4.903   4.287  0.6236  1.0136 -0.0697
   99SAPC  C219 9861   2.662   4.982   4.457  0.4182 -0.0464  0.1777
   99SAPC  H19R 9862   2.572   5.020   4.404  1.5565 -0.2703 -2.0609
   99SAPC  H19S 9863   2.692   5.063   4.527  1.7679  1.1712 -1.7053
   99SAPC  C220 9864   2.629   4.855   4.533  0.4584  0.1606  0.7716
   99SAPC  H20R 9865   2.557   4.873   4.616  0.7882 -1.0229  1.3341
   99SAPC  H20S 9866   2.718   4.817   4.587  0.2603  0.9101  1.6515
   99SAPC  H20T 9867   2.592   4.775   4.465 -2.0908  1.0589  0.9864
   99SAPC   C33 9868   2.789   6.009   2.963  0.1175 -0.1242 -0.3055
   99SAPC   H3X 9869   2.679   6.029   2.961  0.3895  2.2261  2.3774
   99SAPC   H3Y 9870   2.833   6.065   2.878 -2.5915 -0.3865 -2.0041
   99SAPC   C34 9871   2.855   6.061   3.093  0.1285 -0.5758  0.1685
   99SAPC   H4X 9872   2.836   6.170   3.094 -1.7001 -0.8589  1.2030
   99SAPC   H4Y 9873   2.965   6.045   3.094  0.3954  1.0079 -1.1636
   99SAPC   C35 9874   2.774   6.000   3.213 -0.4704  0.6380 -0.4192
   99SAPC   H5X 9875   2.782   5.889   3.211 -3.3914  0.3232  1.0757
   99SAPC   H5Y 9876   2.667   6.024   3.197 -0.5657  1.5080  1.3847
   99SAPC   C36 9877   2.810   6.051   3.351 -0.2258 -0.0978  0.2749
   99SAPC   H6X 9878   2.814   6.162   3.345 -0.8990  0.0015  1.3296
   99SAPC   H6Y 9879   2.905   6.007   3.389 -1.3551 -1.9062  1.1721
   99SAPC   C37 9880   2.705   6.019   3.463 -0.5401 -0.3318  0.3691
   99SAPC   H7X 9881   2.676   5.912   3.459 -0.6246 -0.2796 -0.4632
   99SAPC   H7Y 9882   2.616   6.084   3.448 -0.9200 -0.5818  1.3911
   99SAPC   C38 9883   2.758   6.036   3.606 -0.9063 -0.5512  0.1700
   99SAPC   H8X 9884   2.676   6.052   3.679 -1.4416 -0.6543 -0.3971
   99SAPC   H8Y 9885   2.816   6.131   3.605  2.4231 -2.3827 -2.0425
   99SAPC   C39 9886   2.845   5.930   3.660 -0.1248 -0.1609  0.0210
   99SAPC   H9X 9887   2.919   5.898   3.583 -1.5856 -1.2506 -1.0140
   99SAPC   H9Y 9888   2.781   5.844   3.690  1.3000 -0.2374  3.2766
   99SAPC  C310 9889   2.914   5.968   3.794  0.4630 -0.2792 -0.5400
   99SAPC  H10X 9890   2.976   6.056   3.768  0.4517  0.6519  2.2099
   99SAPC  H10Y 9891   2.974   5.886   3.838 -0.0968 -0.6870 -0.5174
   99SAPC  C311 9892   2.811   6.014   3.899  0.0995 -0.3672 -0.0271
   99SAPC  H11X 9893   2.728   5.940   3.899 -0.8576  0.6743  1.0755
   99SAPC  H11Y 9894   2.777   6.117   3.878  2.1745  0.8455  2.0815
   99SAPC  C312 9895   2.865   5.997   4.041 -0.5108 -0.4409  0.5978
   99SAPC  H12X 9896   2.955   6.063   4.045 -0.0698 -0.9441 -0.5497
   99SAPC  H12Y 9897   2.900   5.893   4.057 -0.6107 -0.8201 -1.3640
   99SAPC  C313 9898   2.776   6.041   4.152 -0.3443 -0.3467  0.0773
   99SAPC  H13X 9899   2.836   6.046   4.246 -2.2125  0.2421  1.2910
   99SAPC  H13Y 9900   2.695   5.970   4.177  0.4866 -0.7614  1.7120
   99SAPC  C314 9901   2.714   6.187   4.142  0.3606  0.5603 -0.3036
   99SAPC  H14X 9902   2.649   6.206   4.230  0.1831 -3.4605  0.6343
   99SAPC  H14Y 9903   2.639   6.182   4.060 -1.0921  2.2394  0.8607
   99SAPC  C315 9904   2.802   6.316   4.126  0.8411  0.2172  0.7329
   99SAPC  H15X 9905   2.744   6.410   4.136 -0.1645 -0.3960  0.8048
   99SAPC  H15Y 9906   2.839   6.323   4.022 -1.7817  0.9874 -0.2271
   99SAPC  C316 9907   2.927   6.317   4.207 -0.9844 -0.0552 -0.5435
   99SAPC  H16X 9908   2.991   6.402   4.176 -0.4323  0.5672  2.0339
   99SAPC  H16Y 9909   2.982   6.224   4.183 -0.6019  0.2155 -0.7227
   99SAPC  C317 9910   2.891   6.302   4.356  0.1722 -0.1447 -0.2576
   99SAPC  H17X 9911   2.991   6.313   4.403  0.2254  2.5323 -0.8531
   99SAPC  H17Y 9912   2.860   6.196   4.371  0.3703 -0.6052 -2.5783
   99SAPC  C318 9913   2.799   6.410   4.415  0.0920 -0.8021  0.1285
   99SAPC  H18X 9914   2.760   6.373   4.513  0.7753 -0.1419  0.6574
   99SAPC  H18Y 9915   2.711   6.429   4.350  0.4417 -0.7092 -0.3236
   99SAPC  H18Z 9916   2.852   6.506   4.431  0.1321 -0.1540 -3.1983
  100SAPC     N 9917   0.704   4.687   1.996 -0.7328  0.0018 -0.1362
  100SAPC   C12 9918   0.804   4.793   1.970  0.0250  0.1204  0.3842
  100SAPC  H12A 9919   0.838   4.786   1.868 -2.3059 -2.4777 -0.3511
  100SAPC  H12B 9920   0.883   4.792   2.044 -0.6099 -0.4179  1.0687
  100SAPC   C13 9921   0.662   4.678   2.137  0.4457 -0.5914 -0.1384
  100SAPC  H13A 9922   0.618   4.580   2.153  2.7202 -2.0049 -1.9162
  100SAPC  H13B 9923   0.742   4.686   2.208 -1.7101 -1.7193  2.6104
  100SAPC  H13C 9924   0.595   4.758   2.164 -0.2379 -0.5350 -1.8628
  100SAPC   C14 9925   0.585   4.711   1.906  0.5978  0.4367  0.1299
  100SAPC  H14A 9926   0.620   4.738   1.808  3.1429 -0.5612  0.6700
  100SAPC  H14B 9927   0.526   4.621   1.909  0.7819  0.2892 -0.4730
  100SAPC  H14C 9928   0.527   4.797   1.933 -0.3379  1.1583 -3.6334
  100SAPC   C15 9929   0.769   4.555   1.962  0.9302  0.0328  0.1199
  100SAPC  H15A 9930   0.785   4.535   1.857 -1.1874 -0.9058 -0.0795
  100SAPC  H15B 9931   0.861   4.538   2.015  1.1199 -0.6226 -0.4096
  100SAPC  H15C 9932   0.700   4.475   1.987  0.2013 -0.0606 -1.9866
  100SAPC   C11 9933   0.754   4.941   1.980 -0.2487 -0.0629 -0.5173
  100SAPC  H11A 9934   0.713   4.955   2.082 -0.9330  0.4771 -0.8587
  100SAPC  H11B 9935   0.678   4.966   1.903 -0.6631  1.3494  0.3162
  100SAPC     P 9936   0.899   5.164   2.005 -0.1319 -0.1829 -0.5804
  100SAPC   O13 9937   1.031   5.210   1.963  0.4521 -0.3133  0.1544
  100SAPC   O14 9938   0.786   5.257   1.994  0.2108  0.0488 -0.0547
  100SAPC   O12 9939   0.868   5.020   1.955 -0.2988  0.4001 -0.0421
  100SAPC   O11 9940   0.915   5.136   2.162  0.0265  0.2133  0.4049
  100SAPC    C1 9941   0.830   5.182   2.261 -0.1888  0.1380 -0.1483
  100SAPC    HA 9942   0.723   5.204   2.241 -0.4140  0.5909  1.4528
  100SAPC    HB 9943   0.824   5.100   2.335  0.4608  1.1898  1.1028
  100SAPC    C2 9944   0.881   5.315   2.337 -0.7926  0.0466 -0.0474
  100SAPC    HS 9945   0.893   5.389   2.256  0.3194 -0.0419  0.0165
  100SAPC   O21 9946   1.011   5.295   2.409 -0.5468  0.4520  0.3337
  100SAPC   C21 9947   1.076   5.418   2.413 -0.2134  0.4341 -0.5282
  100SAPC   O22 9948   1.043   5.520   2.357 -0.6480 -0.1600  0.1119
  100SAPC   C22 9949   1.211   5.400   2.482 -0.1154 -0.2210  0.4367
  100SAPC   H2R 9950   1.268   5.342   2.407 -0.2702  0.0811  0.0814
  100SAPC   H2S 9951   1.261   5.499   2.487 -0.7982  0.2433 -1.2634
  100SAPC    C3 9952   0.777   5.367   2.437  0.3326  1.3103  0.1493
  100SAPC    HX 9953   0.689   5.414   2.388 -0.9438 -0.1184  0.9842
  100SAPC    HY 9954   0.824   5.453   2.489  2.1433 -1.9426  4.5385
  100SAPC   O31 9955   0.728   5.266   2.537 -0.3785 -0.1776  0.4978
  100SAPC   C31 9956   0.714   5.312   2.662 -0.6806 -0.3046 -0.2367
  100SAPC   O32 9957   0.734   5.424   2.699 -0.1777 -0.7327 -0.1753
  100SAPC   C32 9958   0.663   5.207   2.762 -0.3392  0.0530  0.3090
  100SAPC   H2X 9959   0.708   5.111   2.728 -0.2855  0.2348 -0.1473
  100SAPC   H2Y 9960   0.555   5.189   2.744 -0.2071  0.0004 -0.4609
  100SAPC   C23 9961   1.198   5.344   2.622  0.6700 -0.2974 -0.3870
  100SAPC   H3R 9962   1.301   5.324   2.658  0.2960 -1.2745  0.1855
  100SAPC   H3S 9963   1.137   5.251   2.625 -2.4975  1.6698  1.5973
  100SAPC   C24 9964   1.139   5.452   2.722  0.3846  0.1251 -0.1020
  100SAPC   H4R 9965   1.043   5.483   2.677  1.7961  0.8925 -2.8142
  100SAPC   H4S 9966   1.207   5.540   2.722 -1.4583  1.5833 -0.7508
  100SAPC   C25 9967   1.136   5.408   2.865  0.4960  0.1307 -0.5257
  100SAPC   H5R 9968   1.160   5.301   2.872 -0.8282 -0.2830 -1.6460
  100SAPC   C26 9969   1.086   5.478   2.968 -0.4336  0.5596  1.2225
  100SAPC   H6R 9970   1.094   5.440   3.071 -1.4333  1.3349  1.6056
  100SAPC   C27 9971   1.025   5.614   2.958  0.4470 -0.3305  1.0541
  100SAPC   H7R 9972   1.046   5.669   2.864 -1.9903 -2.6169 -0.9999
  100SAPC   H7S 9973   1.069   5.681   3.035  0.9773  0.4889  0.0708
  100SAPC   C28 9974   0.875   5.616   2.967 -0.6048 -0.0938 -0.4012
  100SAPC   H8R 9975   0.816   5.605   2.875 -3.5758 -0.5188  1.4226
  100SAPC   C29 9976   0.805   5.633   3.082  0.8336 -0.3261  0.0167
  100SAPC   H9R 9977   0.696   5.649   3.085  1.1042  1.6820  0.4237
  100SAPC  C210 9978   0.873   5.638   3.219  0.4581 -0.4235  0.4384
  100SAPC  H10R 9979   0.859   5.732   3.276  0.9891 -0.7519  1.1099
  100SAPC  H10S 9980   0.984   5.628   3.219  0.3213 -2.3476  1.9096
  100SAPC  C211 9981   0.804   5.530   3.296  0.4127 -0.4393 -0.1103
  100SAPC  H11R 9982   0.767   5.437   3.251 -1.4513  0.4787 -0.5914
  100SAPC  C212 9983   0.792   5.528   3.426  0.0430  0.3973  0.3851
  100SAPC  H12R 9984   0.768   5.435   3.480  1.7344  0.0803  0.6420
  100SAPC  C213 9985   0.833   5.630   3.528  0.2990 -0.3767  0.4444
  100SAPC  H13R 9986   0.779   5.622   3.625  0.8409  4.3621  1.3650
  100SAPC  H13S 9987   0.795   5.725   3.485  0.6281 -0.5740 -0.2922
  100SAPC  C214 9988   0.979   5.648   3.555 -0.9391  0.3179 -0.3831
  100SAPC  H14R 9989   1.041   5.653   3.464  1.6686 -1.2660  1.1882
  100SAPC  C215 9990   1.043   5.650   3.678  0.0328 -0.1280 -0.4327
  100SAPC  H15R 9991   1.150   5.669   3.693 -0.1184  1.1003 -0.8152
  100SAPC  C216 9992   0.971   5.642   3.808  0.8350  0.2595  0.1754
  100SAPC  H16R 9993   0.863   5.615   3.809  0.9176 -0.1267 -0.5604
  100SAPC  H16S 9994   0.977   5.734   3.869 -0.0322  0.0826  0.5375
  100SAPC  C217 9995   1.054   5.535   3.888 -0.3060  0.1017 -0.7747
  100SAPC  H17R 9996   1.016   5.548   3.991  1.2608 -2.4588  0.1863
  100SAPC  H17S 9997   1.156   5.576   3.902  0.0061 -0.7188 -0.6020
  100SAPC  C218 9998   1.058   5.391   3.845  0.1315  0.7842  0.0294
  100SAPC  H18R 9999   1.153   5.375   3.789  0.1018 -1.3530  0.5368
  100SAPC  H18S10000   0.966   5.371   3.785 -0.5775  2.1519  0.6092
  100SAPC  C21910001   1.069   5.290   3.962 -0.0852  0.4338 -0.5193
  100SAPC  H19R10002   1.097   5.339   4.057 -1.9656 -1.5859  1.1858
  100SAPC  H19S10003   1.143   5.211   3.937  2.6464  2.2450  1.3430
  100SAPC  C22010004   0.943   5.213   3.995 -0.1191  0.2241  0.3333
  100SAPC  H20R10005   0.887   5.202   3.900  2.4924  0.9191 -1.3934
  100SAPC  H20S10006   0.884   5.275   4.066  1.1644 -0.2685  1.8737
  100SAPC  H20T10007   0.958   5.113   4.041 -1.7699 -0.6604 -0.9512
  100SAPC   C3310008   0.693   5.232   2.915 -0.0212 -0.3452  0.2693
  100SAPC   H3X10009   0.699   5.342   2.930  0.7112 -0.0420 -1.8868
  100SAPC   H3Y10010   0.790   5.184   2.936 -0.4460 -0.7116  1.4588
  100SAPC   C3410011   0.580   5.179   3.003  0.2108 -1.5387  0.5130
  100SAPC   H4X10012   0.585   5.069   2.993  1.9882 -1.4572  0.3017
  100SAPC   H4Y10013   0.481   5.222   2.975 -0.0675 -2.3803  0.1808
  100SAPC   C3510014   0.610   5.232   3.151  0.4142  0.1352 -0.3173
  100SAPC   H5X10015   0.620   5.343   3.143  2.1839  0.2150  1.8423
  100SAPC   H5Y10016   0.703   5.183   3.188 -0.3954 -1.4802 -0.3635
  100SAPC   C3610017   0.492   5.190   3.237  0.7728  0.0796  0.0976
  100SAPC   H6X10018   0.482   5.080   3.238  0.2856  0.1246  0.1521
  100SAPC   H6Y10019   0.402   5.233   3.189  2.4513  0.7894 -2.6389
  100SAPC   C3710020   0.496   5.231   3.384  0.0740 -0.3214 -0.0141
  100SAPC   H7X10021   0.465   5.338   3.382  0.2302 -0.2676  0.4243
  100SAPC   H7Y10022   0.599   5.228   3.425 -0.6105 -0.8994  1.7384
  100SAPC   C3810023   0.404   5.142   3.469 -0.8389  0.2453  0.4514
  100SAPC   H8X10024   0.433   5.037   3.449 -2.2259  0.0167 -0.4946
  100SAPC   H8Y10025   0.299   5.155   3.434 -0.6306  0.1210 -0.2327
  100SAPC   C3910026   0.414   5.180   3.620  0.3689  0.7485  0.8345
  100SAPC   H9X10027   0.348   5.267   3.642  0.3333  0.8509  0.3448
  100SAPC   H9Y10028   0.519   5.208   3.641  1.2371 -0.4726 -1.5024
  100SAPC  C31010029   0.373   5.065   3.712  0.1521 -0.3859 -0.6029
  100SAPC  H10X10030   0.440   4.981   3.686 -0.3830 -0.6121 -1.2948
  100SAPC  H10Y10031   0.266   5.038   3.696  0.2506 -0.0689 -1.9140
  100SAPC  C31110032   0.394   5.091   3.858 -0.2807  0.1784 -0.1854
  100SAPC  H11X10033   0.329   5.179   3.876 -0.7924  0.4277 -2.8754
  100SAPC  H11Y10034   0.498   5.120   3.884 -1.5371  3.0013  2.2567
  100SAPC  C31210035   0.344   4.976   3.943  1.0746  0.7037  0.4459
  100SAPC  H12X10036   0.411   4.891   3.919 -1.1036 -0.2475 -2.9214
  100SAPC  H12Y10037   0.245   4.933   3.918  0.7837  1.0667  0.9631
  100SAPC  C31310038   0.335   5.010   4.092 -0.2055 -0.2759  0.1099
  100SAPC  H13X10039   0.251   5.082   4.096 -1.1368 -1.3548  0.4392
  100SAPC  H13Y10040   0.426   5.049   4.142 -0.3602  0.3344 -0.0768
  100SAPC  C31410041   0.293   4.890   4.169  0.7026 -0.3870  0.6927
  100SAPC  H14X10042   0.208   4.838   4.119  2.1698 -0.7331 -1.5711
  100SAPC  H14Y10043   0.261   4.917   4.272 -1.8703 -0.4319 -0.0256
  100SAPC  C31510044   0.411   4.790   4.181  0.0078  0.4383  0.1150
  100SAPC  H15X10045   0.497   4.839   4.231 -0.6628  0.3631  1.3604
  100SAPC  H15Y10046   0.441   4.754   4.080 -2.0731 -2.2752  0.3538
  100SAPC  C31610047   0.371   4.678   4.273 -0.2458 -0.4360 -0.1152
  100SAPC  H16X10048   0.312   4.602   4.218 -0.6644 -0.8145  0.8404
  100SAPC  H16Y10049   0.304   4.713   4.354 -0.9491  0.2998 -0.9812
  100SAPC  C31710050   0.498   4.617   4.337 -0.4703 -0.6762  0.5425
  100SAPC  H17X10051   0.539   4.679   4.420  0.3673  1.0643 -1.0936
  100SAPC  H17Y10052   0.583   4.620   4.266 -0.8560  2.7390  0.0163
  100SAPC  C31810053   0.464   4.478   4.388 -0.0462  0.3179  0.0368
  100SAPC  H18X10054   0.553   4.418   4.419  1.0883 -0.2285 -3.7875
  100SAPC  H18Y10055   0.410   4.428   4.304  1.6402 -0.8077 -0.4378
  100SAPC  H18Z10056   0.395   4.490   4.474  2.5320  1.6822  2.0252
  101OSM      N10057   3.006   0.365   6.724 -0.2679 -0.1152  0.0007
  101OSM    C1510058   2.899   0.373   6.609 -0.5091  0.0903 -0.0581
  101OSM   H15A10059   2.951   0.391   6.517  0.4407  0.1863  0.4805
  101OSM   H15B10060   2.820   0.444   6.622 -0.8368 -0.2531 -0.1531
  101OSM   H15C10061   2.845   0.281   6.591 -2.7285  1.4840 -0.8132
  101OSM    C1410062   3.058   0.504   6.742 -0.5631 -0.2569  0.0219
  101OSM   H14A10063   2.982   0.577   6.768 -0.0160  0.2436  0.2508
  101OSM   H14B10064   3.120   0.531   6.658  1.0120  0.0323  1.2215
  101OSM   H14C10065   3.126   0.501   6.826 -1.2649  1.1454  0.6714
  101OSM    C1310066   2.935   0.325   6.851 -0.2390  0.6875 -0.2020
  101OSM   H13A10067   2.905   0.223   6.832 -0.4900  0.5186  1.0024
  101OSM   H13B10068   2.842   0.379   6.866 -1.2879 -0.9530 -0.5171
  101OSM   H13C10069   3.000   0.349   6.934 -0.7914  0.2684  0.3616
  101OSM    C1210070   3.120   0.270   6.694 -0.4712  0.2888 -0.0451
  101OSM   H12A10071   3.084   0.168   6.688 -1.5036  0.6285  0.0704
  101OSM   H12B10072   3.190   0.277   6.775 -0.1642 -3.7719  0.2585
  101OSM    C1110073   3.203   0.302   6.561  0.4444  0.1126 -0.3220
  101OSM   H11A10074   3.131   0.310   6.476  0.2887  0.4658 -0.1585
  101OSM   H11B10075   3.277   0.220   6.548 -1.1395 -1.5614  0.6311
  101OSM      P10076   3.397   0.437   6.657 -0.2190 -0.3924  0.6075
  101OSM    O1310077   3.463   0.567   6.630 -0.5306 -0.7445  0.3472
  101OSM    O1410078   3.360   0.397   6.795 -0.1892  0.1309 -0.3220
  101OSM    O1110079   3.500   0.317   6.610  0.6920 -0.0245 -0.3046
  101OSM    O1210080   3.265   0.429   6.569  0.1275  0.4624 -0.1099
  101OSM    C1S10081   3.516   0.312   6.464 -0.0637  0.5511 -0.4660
  101OSM    H1S10082   3.421   0.345   6.417  0.3896  2.8855  0.1525
  101OSM    H1T10083   3.527   0.206   6.429 -1.7479  0.7463 -1.7206
  101OSM     NF10084   3.656   0.334   6.275  0.0000 -0.1356 -0.0281
  101OSM    HNF10085   3.705   0.250   6.255 -1.4908 -0.4919 -2.7745
  101OSM    C2S10086   3.646   0.382   6.409  0.4025  0.7188 -0.7254
  101OSM    H2S10087   3.617   0.490   6.411  0.2732  0.7067 -1.4493
  101OSM    C3S10088   3.766   0.354   6.507 -0.1654  0.2378 -0.2362
  101OSM    H3S10089   3.785   0.245   6.513  1.7326  0.5429  0.0630
  101OSM     O310090   3.753   0.414   6.637  0.6162  0.3762  0.1748
  101OSM    HO310091   3.657   0.422   6.644  0.7678  1.8219  0.8823
  101OSM    C4S10092   3.886   0.411   6.433 -0.3995 -0.0291 -0.7043
  101OSM    H4S10093   3.956   0.343   6.381  0.3204  0.7657 -0.8032
  101OSM    C5S10094   3.926   0.541   6.441  0.5551 -0.1452  0.1532
  101OSM    H5S10095   3.861   0.610   6.497 -0.2431  2.4917 -3.6347
  101OSM    C6S10096   4.050   0.605   6.383 -0.1051 -0.8472 -0.4817
  101OSM    H6S10097   4.114   0.645   6.464  1.6410 -3.2959 -0.5364
  101OSM    H6T10098   4.016   0.694   6.326  1.7316  1.0761  1.2641
  101OSM    C7S10099   4.137   0.518   6.284  0.5055  0.3757  0.5396
  101OSM    H7S10100   4.183   0.428   6.330  0.0143  0.1951  0.6826
  101OSM    H7T10101   4.228   0.572   6.251  0.1572 -0.1113 -1.3171
  101OSM    C8S10102   4.072   0.481   6.150 -0.0232 -0.4700 -0.0316
  101OSM    H8S10103   4.048   0.569   6.088 -1.6083 -0.1989  0.8970
  101OSM    H8T10104   3.973   0.437   6.176 -0.2938  0.4685  0.5625
  101OSM    C9S10105   4.152   0.387   6.070  0.3340  0.6706  1.2095
  101OSM    H9S10106   4.198   0.308   6.133  0.4274  1.6818  2.4507
  101OSM    H9T10107   4.228   0.446   6.013 -1.7555  3.3823  1.0319
  101OSM   C10S10108   4.074   0.303   5.967 -0.3196  0.9056 -0.0955
  101OSM   H10S10109   4.015   0.368   5.899 -0.6295  2.3172  1.4682
  101OSM   H10T10110   3.998   0.236   6.011 -0.1139  1.2926  0.8597
  101OSM   C11S10111   4.175   0.217   5.875  0.2204 -0.2444  0.1137
  101OSM   H11S10112   4.213   0.135   5.940  0.5792 -0.7765 -0.7433
  101OSM   H11T10113   4.260   0.280   5.842  0.2134 -0.6553 -0.7078
  101OSM   C12S10114   4.097   0.156   5.760 -0.3599 -0.1372 -0.6455
  101OSM   H12S10115   3.995   0.131   5.796 -0.3446  0.7775  0.0335
  101OSM   H12T10116   4.148   0.062   5.729 -0.8440 -0.2331 -1.1905
  101OSM   C13S10117   4.105   0.256   5.637 -0.0448  0.2026 -0.1226
  101OSM   H13S10118   4.212   0.276   5.618  0.0318  0.0799  0.1735
  101OSM   H13T10119   4.052   0.342   5.683  0.6974 -0.6757  2.5717
  101OSM   C14S10120   4.042   0.198   5.511  0.3263  0.1228  0.0905
  101OSM   H14S10121   3.943   0.160   5.544  0.6924 -1.5461 -0.6644
  101OSM   H14T10122   4.094   0.106   5.478  0.7706  0.0068  1.0857
  101OSM   C15S10123   4.027   0.289   5.395 -0.0839  0.0030  0.6756
  101OSM   H15S10124   4.117   0.351   5.377 -0.5485  0.6618  0.6040
  101OSM   H15T10125   3.949   0.366   5.413 -0.3386 -0.2730  0.7700
  101OSM   C16S10126   4.003   0.214   5.257  0.3163 -0.5905 -0.0465
  101OSM   H16S10127   3.913   0.152   5.274 -0.5832  0.9316  1.0753
  101OSM   H16T10128   4.092   0.148   5.250 -1.2825 -3.2913  2.7969
  101OSM   C17S10129   3.979   0.319   5.144 -0.6397  0.1052  0.4825
  101OSM   H17S10130   4.000   0.265   5.049 -1.7982 -1.2914  0.9933
  101OSM   H17T10131   4.040   0.411   5.156  0.6540 -0.9005  2.2355
  101OSM   C18S10132   3.835   0.348   5.120  0.7846 -0.2648 -0.4939
  101OSM   H18S10133   3.815   0.423   5.041  0.3394  0.0658 -0.0750
  101OSM   H18T10134   3.797   0.394   5.214  1.4794  1.5291 -1.0551
  101OSM   H18U10135   3.790   0.252   5.087  0.9130  0.6032 -3.4519
  101OSM    C1F10136   3.584   0.388   6.170  0.2015  0.8088  0.2244
  101OSM     OF10137   3.515   0.490   6.183 -0.4638 -0.0840 -0.4557
  101OSM    C2F10138   3.605   0.315   6.037  0.1996 -0.1542 -0.4740
  101OSM    H2F10139   3.511   0.257   6.025 -1.5373  2.1551  1.2039
  101OSM    H2G10140   3.690   0.244   6.043 -0.3387 -0.7769 -0.0757
  101OSM    C3F10141   3.621   0.410   5.913  0.6210 -0.1312 -0.8858
  101OSM    H3F10142   3.707   0.473   5.943 -0.2618 -0.5134  3.0096
  101OSM    H3G10143   3.549   0.494   5.907 -0.1986 -0.7305  0.0817
  101OSM    C4F10144   3.637   0.324   5.785  0.0890 -0.8403  0.4214
  101OSM    H4F10145   3.532   0.301   5.757 -0.1951 -0.4452  1.1203
  101OSM    H4G10146   3.689   0.227   5.797 -0.3451 -1.4046 -1.7919
  101OSM    C5F10147   3.678   0.407   5.661 -0.7188 -0.3120  0.6420
  101OSM    H5F10148   3.776   0.454   5.682 -1.2841  1.7883 -1.0905
  101OSM    H5G10149   3.613   0.497   5.658 -0.7468 -0.3581 -0.4501
  101OSM    C6F10150   3.669   0.325   5.530  0.0835  0.0954 -1.0312
  101OSM    H6F10151   3.707   0.227   5.567 -2.0729 -0.1699  0.6705
  101OSM    H6G10152   3.736   0.359   5.448 -0.9818 -0.1440 -2.0325
  101OSM    C7F10153   3.529   0.303   5.476 -0.3989  0.1162 -0.0181
  101OSM    H7F10154   3.483   0.402   5.451  0.9584  1.0740  1.1648
  101OSM    H7G10155   3.454   0.261   5.546 -0.4543  1.7049  0.9126
  101OSM    C8F10156   3.525   0.217   5.348  0.5764 -0.0510  0.5607
  101OSM    H8F10157   3.601   0.260   5.279  1.8336  1.2601  2.6436
  101OSM    H8G10158   3.427   0.234   5.298  0.3020 -0.6689  0.8769
  101OSM    C9F10159   3.539   0.071   5.367  0.2023 -0.2885 -0.5885
  101OSM    H9F10160   3.579   0.048   5.467 -0.2173  0.6147 -0.2039
  101OSM   C10F10161   3.510  -0.037   5.292 -0.0148  1.0014 -0.1949
  101OSM   H10F10162   3.528  -0.136   5.337  2.2149 -0.9979 -4.7598
  101OSM   C11F10163   3.437  -0.032   5.160 -0.0143  0.1074 -0.2528
  101OSM   H11F10164   3.500  -0.067   5.076  0.9413  1.2225 -0.0274
  101OSM   H11G10165   3.400   0.068   5.131  2.0756  0.4157 -2.1618
  101OSM   C12F10166   3.328  -0.138   5.160  0.6855  0.0374  0.2745
  101OSM   H12F10167   3.379  -0.230   5.196  0.3756 -1.3922 -2.5934
  101OSM   H12G10168   3.291  -0.163   5.058  0.5504  1.5391 -0.0604
  101OSM   C13F10169   3.197  -0.100   5.238  0.1310  0.3898 -0.6090
  101OSM   H13F10170   3.234  -0.035   5.319  0.2032 -1.5486  0.9905
  101OSM   H13G10171   3.154  -0.188   5.292 -0.8738  0.8781 -0.5847
  101OSM   C14F10172   3.095  -0.032   5.148 -0.2773  0.6025 -0.2115
  101OSM   H14F10173   3.131   0.063   5.104  1.8608 -1.3017 -2.9118
  101OSM   H14G10174   3.006  -0.014   5.212 -1.0240 -2.2163 -0.3337
  101OSM   C15F10175   3.047  -0.121   5.035  0.3967  0.6599  0.5002
  101OSM   H15F10176   3.007  -0.216   5.075 -1.2627  1.2395  0.3075
  101OSM   H15G10177   3.128  -0.140   4.961 -1.3489 -1.6824 -0.9693
  101OSM   C16F10178   2.937  -0.060   4.953  0.9979 -0.8458 -0.0584
  101OSM   H16F10179   2.974   0.021   4.887  0.4037  1.0013  1.7596
  101OSM   H16G10180   2.872  -0.009   5.028  1.7728 -0.8093  0.6010
  101OSM   C17F10181   2.838  -0.150   4.868 -0.1188 -0.2586  0.4321
  101OSM   H17F10182   2.818  -0.239   4.931 -2.3358 -0.8270 -0.9531
  101OSM   H17G10183   2.873  -0.208   4.781 -0.3801 -0.6366  0.5733
  101OSM   C18F10184   2.712  -0.065   4.828  0.2597 -0.3661 -0.3768
  101OSM   H18F10185   2.686  -0.006   4.919  1.2721  0.9194 -0.8858
  101OSM   H18G10186   2.620  -0.124   4.807  0.0361  0.0898 -0.6905
  101OSM   H18H10187   2.734   0.006   4.745 -0.2669  1.9034  1.3078
  102OSM      N10188   5.031   0.679   7.061  0.6679 -0.2502 -0.4055
  102OSM    C1510189   5.154   0.674   7.142  1.1238 -0.1171  0.5255
  102OSM   H15A10190   5.128   0.680   7.246 -0.7481 -0.7694  0.1308
  102OSM   H15B10191   5.210   0.763   7.116  0.5751  0.6409  1.8616
  102OSM   H15C10192   5.208   0.584   7.116  4.1553  0.9595  2.4744
  102OSM    C1410193   5.053   0.655   6.916  0.7873  0.1415  0.3951
  102OSM   H14A10194   4.963   0.659   6.856  0.0678  0.5023  1.4758
  102OSM   H14B10195   5.099   0.558   6.900  2.9717  1.0826  0.5664
  102OSM   H14C10196   5.119   0.728   6.872 -0.5140 -0.1821 -2.3291
  102OSM    C1310197   4.947   0.566   7.115  0.0985 -0.1791  0.0417
  102OSM   H13A10198   5.001   0.477   7.143  0.0993  0.1786  1.2246
  102OSM   H13B10199   4.862   0.541   7.053 -1.0864 -0.1461  1.5938
  102OSM   H13C10200   4.902   0.604   7.206  1.4894 -0.0751  0.7074
  102OSM    C1210201   4.949   0.804   7.087  0.0936  0.6307  0.0399
  102OSM   H12A10202   5.014   0.887   7.067  0.5914 -0.1890 -1.9526
  102OSM   H12B10203   4.924   0.798   7.192 -1.4178 -1.6308 -0.3812
  102OSM    C1110204   4.820   0.836   7.007  0.2679  0.1872  0.4928
  102OSM   H11A10205   4.843   0.826   6.899 -0.9023  2.7529 -0.0725
  102OSM   H11B10206   4.804   0.946   7.013 -1.4086 -0.0923  2.4738
  102OSM      P10207   4.643   0.644   6.957 -0.2947  0.1672 -0.6262
  102OSM    O1310208   4.645   0.517   7.034 -0.1625  0.2050 -0.2962
  102OSM    O1410209   4.514   0.696   6.901  0.4346 -0.0087  0.1812
  102OSM    O1110210   4.736   0.624   6.835  0.0513 -0.1343 -0.0646
  102OSM    O1210211   4.715   0.750   7.051 -0.2001 -0.2498  0.1820
  102OSM    C1S10212   4.736   0.503   6.753 -0.0764 -0.4670  0.2989
  102OSM    H1S10213   4.646   0.440   6.764  0.4395 -1.2059  0.3922
  102OSM    H1T10214   4.824   0.439   6.779  0.3603  0.8095  2.2187
  102OSM     NF10215   4.711   0.429   6.523 -0.2634 -0.0564  0.0372
  102OSM    HNF10216   4.790   0.385   6.480  1.6174  0.3491  2.8674
  102OSM    C2S10217   4.738   0.540   6.606  0.0239 -1.2792  0.2524
  102OSM    H2S10218   4.666   0.622   6.588  1.2909 -0.2296 -0.2032
  102OSM    C3S10219   4.871   0.613   6.569  0.1725 -0.4295  0.1823
  102OSM    H3S10220   4.965   0.555   6.585 -0.1047 -0.6631  1.0483
  102OSM     O310221   4.889   0.734   6.642  0.1898  0.6576 -0.2715
  102OSM    HO310222   4.813   0.736   6.700 -0.9642 -0.6235 -1.6656
  102OSM    C4S10223   4.864   0.666   6.430  0.0693 -0.1841  0.3688
  102OSM    H4S10224   4.807   0.759   6.417  1.6102  0.4265 -3.7303
  102OSM    C5S10225   4.912   0.613   6.316  0.0432  0.2965  0.8551
  102OSM    H5S10226   4.964   0.517   6.327 -1.1132 -0.1367  3.1604
  102OSM    C6S10227   4.897   0.666   6.180 -0.5754  0.5736  0.7619
  102OSM    H6S10228   4.995   0.686   6.132 -1.8599  0.5868 -2.1255
  102OSM    H6T10229   4.847   0.765   6.187 -1.1866  0.3267  0.0853
  102OSM    C7S10230   4.819   0.563   6.089 -0.4759 -0.2080 -0.4910
  102OSM    H7S10231   4.722   0.546   6.140  0.2695 -1.5254  0.5591
  102OSM    H7T10232   4.860   0.460   6.097 -1.1217 -0.3814  0.9961
  102OSM    C8S10233   4.815   0.597   5.937 -0.3777  0.2735 -0.0342
  102OSM    H8S10234   4.767   0.694   5.913  0.9377  0.9722  0.0725
  102OSM    H8T10235   4.742   0.529   5.889  0.0327 -1.7369  2.0103
  102OSM    C9S10236   4.954   0.579   5.867 -0.1786 -0.2962  0.7613
  102OSM    H9S10237   4.993   0.486   5.915  0.9416  1.1092  2.7285
  102OSM    H9T10238   5.023   0.661   5.899  1.3969 -1.0237 -0.6508
  102OSM   C10S10239   4.950   0.574   5.707 -0.1259  0.2355  0.2824
  102OSM   H10S10240   4.957   0.675   5.659  0.5724 -0.2075 -0.5754
  102OSM   H10T10241   4.850   0.533   5.684 -0.1860  0.7715 -0.4667
  102OSM   C11S10242   5.047   0.479   5.638  0.2896 -0.1318  0.3056
  102OSM   H11S10243   5.070   0.390   5.701  0.5356  0.5767  1.2239
  102OSM   H11T10244   5.147   0.526   5.627  0.4303 -0.2751  0.9389
  102OSM   C12S10245   4.989   0.435   5.502  0.3063 -0.1810  0.4533
  102OSM   H12S10246   4.947   0.512   5.433  0.5139 -2.2715 -2.1863
  102OSM   H12T10247   4.916   0.353   5.516 -1.0805  0.7553 -0.9469
  102OSM   C13S10248   5.094   0.356   5.422 -0.4726 -0.1280 -1.0065
  102OSM   H13S10249   5.140   0.285   5.494 -1.4669  0.2199  0.0002
  102OSM   H13T10250   5.176   0.417   5.379 -0.6241  0.7137 -0.1243
  102OSM   C14S10251   5.034   0.285   5.300  0.4051 -0.1314  0.2510
  102OSM   H14S10252   4.967   0.205   5.339  0.6423  0.0110  0.9649
  102OSM   H14T10253   5.118   0.228   5.255  1.2214  1.4491 -0.3032
  102OSM   C15S10254   4.969   0.378   5.194 -0.1903 -0.0077 -0.5814
  102OSM   H15S10255   5.035   0.463   5.164  2.0659 -1.5701 -0.2983
  102OSM   H15T10256   4.882   0.430   5.240 -0.6984 -0.3370 -1.1572
  102OSM   C16S10257   4.942   0.306   5.059 -0.3106  0.3152  0.4380
  102OSM   H16S10258   4.844   0.254   5.056  0.1652 -0.5801 -0.4518
  102OSM   H16T10259   5.020   0.227   5.052 -1.3254 -0.6540 -0.4612
  102OSM   C17S10260   4.964   0.385   4.931  0.7597 -0.9836  0.2947
  102OSM   H17S10261   4.943   0.314   4.848  0.7258 -1.8674  1.0389
  102OSM   H17T10262   5.069   0.420   4.922  1.3164 -2.5807  0.1697
  102OSM   C18S10263   4.868   0.511   4.917 -0.1500  0.1134 -0.0143
  102OSM   H18S10264   4.888   0.562   4.820  2.2433  3.1654  1.9261
  102OSM   H18T10265   4.881   0.586   4.997  1.6497  1.2429 -1.2920
  102OSM   H18U10266   4.762   0.476   4.920 -1.1370  2.9360  2.9351
  102OSM    C1F10267   4.595   0.377   6.504  0.0650 -0.2196  0.3380
  102OSM     OF10268   4.488   0.433   6.537  0.1720 -0.0977 -0.4576
  102OSM    C2F10269   4.601   0.236   6.440 -0.1770  0.2067 -1.0789
  102OSM    H2F10270   4.506   0.188   6.473 -0.1532 -0.2423 -1.6336
  102OSM    H2G10271   4.686   0.185   6.490  0.1276  1.9269  0.2422
  102OSM    C3F10272   4.620   0.238   6.287 -0.6889  0.3717  0.1326
  102OSM    H3F10273   4.647   0.141   6.241  0.4594  0.6116  0.2789
  102OSM    H3G10274   4.704   0.305   6.260  0.8381 -1.4741  0.0483
  102OSM    C4F10275   4.490   0.284   6.213 -0.3623 -0.8684 -0.1362
  102OSM    H4F10276   4.433   0.373   6.245 -1.1500 -0.7950 -1.6756
  102OSM    H4G10277   4.414   0.203   6.210  0.0793 -1.3603  1.0831
  102OSM    C5F10278   4.529   0.319   6.064  0.4352 -0.0786 -0.0209
  102OSM    H5F10279   4.622   0.379   6.052  2.5479 -2.5547  2.5663
  102OSM    H5G10280   4.439   0.369   6.024  0.9151  0.0014 -1.0381
  102OSM    C6F10281   4.540   0.189   5.982 -0.0752 -0.5012 -0.2812
  102OSM    H6F10282   4.460   0.116   6.010  1.4811 -1.8689  0.7793
  102OSM    H6G10283   4.634   0.148   6.023  0.8839  1.2237 -0.6520
  102OSM    C7F10284   4.564   0.228   5.840  0.1096 -0.6042 -0.0847
  102OSM    H7F10285   4.647   0.302   5.848 -1.9879  1.6767  2.4341
  102OSM    H7G10286   4.475   0.277   5.795  1.2701  0.0895 -1.7468
  102OSM    C8F10287   4.624   0.112   5.751 -0.1591 -0.2758  0.2482
  102OSM    H8F10288   4.718   0.083   5.804  1.3671  4.0006  0.2809
  102OSM    H8G10289   4.658   0.152   5.653 -0.9457 -0.3308 -0.0525
  102OSM    C9F10290   4.534  -0.001   5.730  0.5101  0.7087 -0.2086
  102OSM    H9F10291   4.481  -0.035   5.819 -0.2309  1.6275 -0.2784
  102OSM   C10F10292   4.498  -0.061   5.612 -0.2377  0.0687  0.7251
  102OSM   H10F10293   4.424  -0.142   5.618 -0.6722  0.4273  0.3087
  102OSM   C11F10294   4.551  -0.041   5.468 -0.9796 -0.0266  0.4036
  102OSM   H11F10295   4.640  -0.098   5.436  0.4806  1.4454  1.6871
  102OSM   H11G10296   4.590   0.058   5.438  1.4221 -0.5025  1.7250
  102OSM   C12F10297   4.439  -0.067   5.371  0.8135  0.2881  0.1695
  102OSM   H12F10298   4.452  -0.020   5.271  0.0034  1.1193  0.4439
  102OSM   H12G10299   4.341  -0.031   5.407  1.3638  0.1637  1.8766
  102OSM   C13F10300   4.422  -0.216   5.330 -0.3220 -0.2169  0.5606
  102OSM   H13F10301   4.410  -0.280   5.421  0.4243 -0.6047  0.3850
  102OSM   H13G10302   4.509  -0.239   5.265  0.8967  1.3430  1.5745
  102OSM   C14F10303   4.291  -0.218   5.253  0.5400 -0.2950  0.1456
  102OSM   H14F10304   4.211  -0.147   5.284  1.7868  1.2045  0.0452
  102OSM   H14G10305   4.248  -0.319   5.272  0.0875 -0.0805  0.2940
  102OSM   C15F10306   4.300  -0.192   5.100 -0.0369 -0.0721 -0.0927
  102OSM   H15F10307   4.357  -0.274   5.053 -0.7924  0.9393 -3.0087
  102OSM   H15G10308   4.349  -0.093   5.088  0.3948 -0.1538  0.9478
  102OSM   C16F10309   4.160  -0.190   5.039 -0.4038  0.2745  0.6660
  102OSM   H16F10310   4.097  -0.106   5.076 -0.6587  0.9486 -1.1486
  102OSM   H16G10311   4.114  -0.288   5.064 -1.3744  0.3475 -0.7157
  102OSM   C17F10312   4.176  -0.163   4.885  0.1538  0.1434  0.4994
  102OSM   H17F10313   4.271  -0.113   4.855 -0.9839  3.4657  1.9996
  102OSM   H17G10314   4.108  -0.086   4.844  1.3218  1.5489  1.1280
  102OSM   C18F10315   4.152  -0.295   4.808 -0.7013  0.1990 -0.0986
  102OSM   H18F10316   4.234  -0.368   4.822 -2.1185 -1.4061  0.2001
  102OSM   H18G10317   4.141  -0.279   4.699 -0.5821 -1.2201 -0.3340
  102OSM   H18H10318   4.054  -0.341   4.834  0.1535 -0.4829  2.2204
  103OSM      N10319   4.549   2.799   6.662 -0.6695 -0.1347 -0.3678
  103OSM    C1510320   4.629   2.896   6.576  0.3631  0.4272 -0.4030
  103OSM   H15A10321   4.635   2.991   6.626  0.5596  0.0479  0.3086
  103OSM   H15B10322   4.585   2.908   6.478  2.0191  2.6176 -0.9541
  103OSM   H15C10323   4.729   2.856   6.567 -0.7641 -2.3444 -2.1674
  103OSM    C1410324   4.602   2.780   6.799  0.3229 -0.6354 -0.3873
  103OSM   H14A10325   4.569   2.852   6.873  3.1080 -0.3021  0.6411
  103OSM   H14B10326   4.710   2.784   6.803  0.3321  0.6870 -1.2970
  103OSM   H14C10327   4.579   2.679   6.829 -0.4304 -0.2213  0.4810
  103OSM    C1310328   4.402   2.845   6.674  0.2498  0.4783 -0.0783
  103OSM   H13A10329   4.385   2.945   6.710  1.8341  0.7890 -0.1085
  103OSM   H13B10330   4.349   2.766   6.725  1.7867 -0.9232 -0.5495
  103OSM   H13C10331   4.379   2.842   6.569  0.8920 -0.7374 -0.2006
  103OSM    C1210332   4.541   2.659   6.594  0.2312 -0.9347 -0.2331
  103OSM   H12A10333   4.486   2.598   6.665 -1.3806  0.0257 -0.5998
  103OSM   H12B10334   4.640   2.619   6.583 -0.1228 -1.6257 -1.0084
  103OSM    C1110335   4.472   2.645   6.462  0.6261 -0.2649  0.0472
  103OSM   H11A10336   4.518   2.556   6.414  0.6742  0.4958 -1.3562
  103OSM   H11B10337   4.496   2.732   6.398 -0.7485  0.3092  0.2652
  103OSM      P10338   4.258   2.493   6.460 -0.3933  0.4125 -0.0346
  103OSM    O1310339   4.259   2.428   6.593 -0.0363 -0.0204  0.5242
  103OSM    O1410340   4.123   2.513   6.405  0.5569  0.0429 -0.0017
  103OSM    O1110341   4.341   2.413   6.358 -0.6237 -0.0974 -0.6753
  103OSM    O1210342   4.332   2.631   6.480  0.5357  0.2216 -0.1443
  103OSM    C1S10343   4.316   2.406   6.215 -0.3578 -0.5808 -0.4134
  103OSM    H1S10344   4.390   2.472   6.165 -1.3954  0.1368 -1.0642
  103OSM    H1T10345   4.218   2.446   6.181 -1.0895 -0.1619  1.9598
  103OSM     NF10346   4.305   2.271   6.019  0.8055 -0.0751 -0.7593
  103OSM    HNF10347   4.209   2.262   5.992  0.6120  1.3666 -0.6397
  103OSM    C2S10348   4.326   2.268   6.162 -0.5768 -0.0917  0.4077
  103OSM    H2S10349   4.427   2.223   6.178 -0.9528 -0.5313  1.6873
  103OSM    C3S10350   4.224   2.170   6.238 -0.7760  0.3127  0.1252
  103OSM    H3S10351   4.123   2.208   6.214 -0.2336  1.5135 -0.3436
  103OSM     O310352   4.241   2.146   6.381  0.3467 -0.2734 -0.1071
  103OSM    HO310353   4.307   2.209   6.410  0.9903 -1.8600  2.1965
  103OSM    C4S10354   4.251   2.028   6.187  0.0668 -0.0054  0.4123
  103OSM    H4S10355   4.351   2.003   6.149  0.0205  0.5350 -0.0805
  103OSM    C5S10356   4.164   1.925   6.174 -0.4112 -0.6207  0.0391
  103OSM    H5S10357   4.059   1.944   6.199 -0.6088  0.0813 -1.2628
  103OSM    C6S10358   4.186   1.786   6.129  0.1250  0.1493  0.1531
  103OSM    H6S10359   4.159   1.702   6.196  0.7881  1.7313  2.5362
  103OSM    H6T10360   4.296   1.775   6.116  0.1128  0.8696 -0.6474
  103OSM    C7S10361   4.131   1.766   5.985 -0.5016  0.2861  0.9929
  103OSM    H7S10362   4.024   1.794   5.972  0.0769  1.7009 -1.3123
  103OSM    H7T10363   4.136   1.661   5.950 -0.0691  0.6912 -0.2237
  103OSM    C8S10364   4.210   1.854   5.887  0.7813  0.9120  0.6670
  103OSM    H8S10365   4.321   1.848   5.893  0.7708 -1.2390 -0.5353
  103OSM    H8T10366   4.173   1.958   5.883  0.6299  0.8406  0.2325
  103OSM    C9S10367   4.173   1.795   5.744 -0.1860  0.0135  0.2307
  103OSM    H9S10368   4.177   1.880   5.672  1.4965  2.7786  3.2628
  103OSM    H9T10369   4.070   1.757   5.754 -0.3370 -0.2624 -1.8832
  103OSM   C10S10370   4.259   1.680   5.684 -0.8195 -0.2242 -0.2096
  103OSM   H10S10371   4.253   1.591   5.751  2.0952 -2.0094 -2.1043
  103OSM   H10T10372   4.366   1.708   5.682 -1.2978  1.6608 -1.5657
  103OSM   C11S10373   4.216   1.619   5.546  0.1216 -0.6121 -0.3066
  103OSM   H11S10374   4.108   1.595   5.538 -0.0049 -0.1862  0.0713
  103OSM   H11T10375   4.285   1.533   5.530  1.3049  0.1773  0.3435
  103OSM   C12S10376   4.246   1.720   5.437 -0.4204 -0.0758 -0.0104
  103OSM   H12S10377   4.356   1.723   5.420 -0.6323  2.3181 -1.3315
  103OSM   H12T10378   4.205   1.819   5.465 -1.2569  0.0197 -1.4627
  103OSM   C13S10379   4.188   1.672   5.304  0.0861  0.4347 -0.0404
  103OSM   H13S10380   4.079   1.682   5.290  0.1871  0.6136 -0.7099
  103OSM   H13T10381   4.214   1.564   5.296  1.1447  0.4428  2.2709
  103OSM   C14S10382   4.249   1.758   5.189  0.2273  0.2665  0.6218
  103OSM   H14S10383   4.356   1.732   5.174  0.1747 -0.9633  2.0743
  103OSM   H14T10384   4.244   1.856   5.240 -0.1923  0.8704 -0.5390
  103OSM   C15S10385   4.168   1.762   5.062  0.2256 -0.3463 -0.3403
  103OSM   H15S10386   4.199   1.853   5.005 -2.4739  1.2953  0.6076
  103OSM   H15T10387   4.058   1.771   5.071  0.1257  0.6666 -2.0626
  103OSM   C16S10388   4.203   1.637   4.977 -0.1950  0.2610 -0.6693
  103OSM   H16S10389   4.180   1.552   5.044  2.0447  0.2066  0.1149
  103OSM   H16T10390   4.313   1.642   4.966 -0.0011 -0.2014  0.8700
  103OSM   C17S10391   4.106   1.625   4.854  0.3959 -0.5719  0.7149
  103OSM   H17S10392   4.080   1.723   4.810 -0.2899 -0.5484  1.1516
  103OSM   H17T10393   4.012   1.575   4.886  0.1675 -1.1188 -0.7381
  103OSM   C18S10394   4.166   1.540   4.743  0.5509  0.3868  0.5345
  103OSM   H18S10395   4.266   1.584   4.719  1.4600  0.2216  3.5301
  103OSM   H18T10396   4.107   1.551   4.650  0.4851  0.2093  0.5563
  103OSM   H18U10397   4.167   1.438   4.786 -0.7820  0.4813  0.8082
  103OSM    C1F10398   4.387   2.318   5.926 -0.7870 -1.1304 -0.4088
  103OSM     OF10399   4.508   2.329   5.957  0.1055 -0.4813  0.1309
  103OSM    C2F10400   4.333   2.362   5.797 -0.3245 -0.6032  1.4152
  103OSM    H2F10401   4.265   2.449   5.803  0.3598 -0.0579  1.3463
  103OSM    H2G10402   4.271   2.283   5.749 -0.4210  0.1359  0.3171
  103OSM    C3F10403   4.438   2.381   5.677  0.2429  0.4728 -1.0301
  103OSM    H3F10404   4.527   2.314   5.682  0.3389  0.6788  0.4119
  103OSM    H3G10405   4.475   2.486   5.680  1.7472 -0.0442  0.7344
  103OSM    C4F10406   4.368   2.353   5.541  0.4213 -0.1235 -0.8762
  103OSM    H4F10407   4.280   2.418   5.525  0.0738 -0.9689 -2.7319
  103OSM    H4G10408   4.312   2.258   5.532 -2.4773  1.3868  0.1062
  103OSM    C5F10409   4.472   2.372   5.431 -0.6294 -0.3957  0.2842
  103OSM    H5F10410   4.550   2.293   5.430  1.1288  1.1748 -3.0590
  103OSM    H5G10411   4.514   2.474   5.448 -0.6281 -0.5462  1.2344
  103OSM    C6F10412   4.405   2.376   5.286 -0.6675 -0.6651 -0.3082
  103OSM    H6F10413   4.482   2.404   5.210  0.4478 -1.0621  0.6549
  103OSM    H6G10414   4.345   2.469   5.297  0.2614  0.0430 -1.0131
  103OSM    C7F10415   4.310   2.268   5.242  0.7550  0.1456 -0.0337
  103OSM    H7F10416   4.229   2.258   5.318 -1.5639 -0.4360 -2.4170
  103OSM    H7G10417   4.360   2.170   5.227  1.2783  0.5612 -1.0743
  103OSM    C8F10418   4.253   2.293   5.100  0.1599  0.0599  0.0962
  103OSM    H8F10419   4.338   2.314   5.032  0.7525 -0.5351  0.6429
  103OSM    H8G10420   4.190   2.385   5.109  2.4127  1.6698  0.3935
  103OSM    C9F10421   4.174   2.173   5.049  0.6059 -0.7416  0.4163
  103OSM    H9F10422   4.210   2.074   5.081  3.6260  0.3675  0.8046
  103OSM   C10F10423   4.063   2.181   4.971  1.1343  0.2449 -0.0732
  103OSM   H10F10424   3.995   2.095   4.962 -1.6200  2.3010 -0.1393
  103OSM   C11F10425   3.994   2.303   4.916 -0.7433  0.8033 -0.1798
  103OSM   H11F10426   4.030   2.313   4.811  1.9368 -0.9941  0.4702
  103OSM   H11G10427   4.015   2.398   4.968 -3.1217  0.0206  2.4653
  103OSM   C12F10428   3.843   2.285   4.917 -0.3505 -0.3333 -0.2385
  103OSM   H12F10429   3.813   2.196   4.859  1.9093 -1.0452 -0.4121
  103OSM   H12G10430   3.801   2.380   4.876  1.5811  1.8077  2.3403
  103OSM   C13F10431   3.792   2.270   5.060  0.7430  0.2495 -0.2951
  103OSM   H13F10432   3.824   2.357   5.120  0.0880  0.7351 -0.6360
  103OSM   H13G10433   3.837   2.184   5.115 -3.4286 -3.0782 -1.5027
  103OSM   C14F10434   3.639   2.262   5.076  0.0316 -0.8887  0.8685
  103OSM   H14F10435   3.589   2.185   5.014  0.0763 -0.3283  0.1238
  103OSM   H14G10436   3.599   2.362   5.048 -0.9573 -1.0542  1.6402
  103OSM   C15F10437   3.597   2.245   5.224 -0.0504 -0.3473  0.4642
  103OSM   H15F10438   3.633   2.327   5.288  4.2037  0.5571 -2.5940
  103OSM   H15G10439   3.654   2.154   5.252 -0.3987 -0.8146 -0.2926
  103OSM   C16F10440   3.445   2.216   5.243 -0.0118 -0.0863 -0.0808
  103OSM   H16F10441   3.414   2.115   5.210  0.0249  0.6600 -2.5540
  103OSM   H16G10442   3.381   2.287   5.186 -0.0303 -0.3186 -0.3499
  103OSM   C17F10443   3.424   2.220   5.395 -0.2959  0.0694 -0.2894
  103OSM   H17F10444   3.446   2.323   5.430 -3.2887 -0.0952  2.6198
  103OSM   H17G10445   3.489   2.146   5.446 -2.8775 -0.8198  1.9948
  103OSM   C18F10446   3.282   2.192   5.429  0.2575  0.0524 -0.6234
  103OSM   H18F10447   3.203   2.261   5.392 -0.1717 -0.3329 -0.4347
  103OSM   H18G10448   3.270   2.178   5.538  0.9929 -1.3422 -0.6886
  103OSM   H18H10449   3.255   2.098   5.375 -3.0701  0.2228  0.5712
  104OSM      N10450   4.544   3.618   6.861 -0.0796  0.5033  0.4636
  104OSM    C1510451   4.551   3.761   6.888 -0.3796  0.3913  0.1097
  104OSM   H15A10452   4.606   3.806   6.807 -1.6810 -1.5446 -1.9755
  104OSM   H15B10453   4.606   3.781   6.978 -1.5777 -1.8986  1.4453
  104OSM   H15C10454   4.455   3.811   6.889  0.1406  1.4563  2.6509
  104OSM    C1410455   4.672   3.549   6.898  0.1018  0.2758 -0.4887
  104OSM   H14A10456   4.678   3.442   6.878  0.6272  0.0603  0.7347
  104OSM   H14B10457   4.693   3.543   7.004  1.9691  0.4588 -0.8105
  104OSM   H14C10458   4.760   3.599   6.860  0.0573  0.4157 -0.4061
  104OSM    C1310459   4.428   3.569   6.951 -0.6165 -0.0302 -0.4449
  104OSM   H13A10460   4.417   3.461   6.942  0.9727 -0.0855 -2.4887
  104OSM   H13B10461   4.332   3.610   6.925 -1.3529  0.6482  2.8758
  104OSM   H13C10462   4.451   3.590   7.054 -3.1195  0.0899  0.1375
  104OSM    C1210463   4.510   3.595   6.715  0.9091  0.1513 -0.2931
  104OSM   H12A10464   4.589   3.644   6.660  0.7652  0.2825 -0.3835
  104OSM   H12B10465   4.419   3.651   6.703  0.0557 -0.5048  2.5048
  104OSM    C1110466   4.483   3.452   6.659 -0.8532  0.5712  0.3768
  104OSM   H11A10467   4.552   3.381   6.709  0.6050  1.2982 -0.5589
  104OSM   H11B10468   4.514   3.451   6.553  0.8277 -1.6001  0.8161
  104OSM      P10469   4.230   3.455   6.623 -0.0220 -0.2575 -0.4223
  104OSM    O1310470   4.115   3.380   6.668 -0.0277  0.5973  0.2427
  104OSM    O1410471   4.219   3.599   6.645 -0.3465  0.1724  0.5639
  104OSM    O1110472   4.249   3.408   6.480 -0.2160  0.0009  0.5229
  104OSM    O1210473   4.356   3.406   6.691  0.1973 -0.6700  0.2920
  104OSM    C1S10474   4.289   3.270   6.463  0.7902 -0.0716  0.5390
  104OSM    H1S10475   4.219   3.204   6.520  1.5798 -1.6463 -0.2487
  104OSM    H1T10476   4.395   3.258   6.494  0.5551 -1.6481  0.8442
  104OSM     NF10477   4.281   3.084   6.298  0.2274  0.6567  0.0443
  104OSM    HNF10478   4.369   3.038   6.285  0.2823  0.2147  1.8308
  104OSM    C2S10479   4.283   3.232   6.312  0.5065 -0.1961  0.6653
  104OSM    H2S10480   4.185   3.269   6.275  0.3233 -2.7147 -1.7075
  104OSM    C3S10481   4.389   3.314   6.230 -0.0388  0.1981 -0.1934
  104OSM    H3S10482   4.488   3.281   6.269  0.1408  0.1132 -0.7112
  104OSM     O310483   4.386   3.453   6.265 -0.5853 -0.5140 -0.4761
  104OSM    HO310484   4.330   3.457   6.342 -1.1658 -0.2788 -0.8981
  104OSM    C4S10485   4.382   3.298   6.084 -0.1245 -0.0890 -0.2542
  104OSM    H4S10486   4.449   3.221   6.041 -2.8236 -2.7076 -0.1026
  104OSM    C5S10487   4.309   3.365   5.998  0.6522 -0.5262 -0.4298
  104OSM    H5S10488   4.240   3.445   6.027 -0.0620 -1.1043 -0.4985
  104OSM    C6S10489   4.309   3.335   5.848 -0.9446 -0.6402  0.1243
  104OSM    H6S10490   4.308   3.436   5.802 -1.2972 -0.0402  1.4041
  104OSM    H6T10491   4.214   3.278   5.841 -0.7789 -1.2203  1.9619
  104OSM    C7S10492   4.420   3.247   5.788 -0.0055 -0.1849 -0.6767
  104OSM    H7S10493   4.403   3.147   5.832 -0.9949  1.1724  2.2782
  104OSM    H7T10494   4.524   3.261   5.824 -0.3312 -2.3874  1.4084
  104OSM    C8S10495   4.432   3.236   5.637  0.1865  0.5101  0.2531
  104OSM    H8S10496   4.531   3.186   5.623 -0.4505 -0.9758  0.8996
  104OSM    H8T10497   4.427   3.336   5.589  1.1195  0.9636  1.0606
  104OSM    C9S10498   4.327   3.134   5.583  0.4757  0.2850  0.8611
  104OSM    H9S10499   4.225   3.178   5.590  0.5881  1.2402 -1.9388
  104OSM    H9T10500   4.334   3.053   5.658  0.9980  0.6979  1.2685
  104OSM   C10S10501   4.367   3.089   5.441  0.1071  0.2426 -0.1115
  104OSM   H10S10502   4.312   2.998   5.406 -1.3086  1.4392 -1.1151
  104OSM   H10T10503   4.477   3.074   5.440  0.0573 -0.1489 -0.3414
  104OSM   C11S10504   4.360   3.198   5.342  0.4792  0.3583  0.2601
  104OSM   H11S10505   4.415   3.288   5.379  1.0616  0.7958 -1.5385
  104OSM   H11T10506   4.257   3.222   5.308 -0.0390 -1.7368  0.2235
  104OSM   C12S10507   4.431   3.149   5.214  0.6483 -0.1125  0.2824
  104OSM   H12S10508   4.380   3.055   5.185 -0.0795 -0.4679  2.5380
  104OSM   H12T10509   4.539   3.125   5.228  0.9504  0.4690 -0.9163
  104OSM   C13S10510   4.433   3.258   5.106 -0.1397  0.2628 -0.3161
  104OSM   H13S10511   4.452   3.355   5.158  0.8984  1.6231 -3.0697
  104OSM   H13T10512   4.327   3.259   5.071 -0.1302  2.4655 -0.4727
  104OSM   C14S10513   4.516   3.232   4.980  0.1276  0.7034  0.1979
  104OSM   H14S10514   4.488   3.133   4.938 -0.7322  1.1593 -0.3440
  104OSM   H14T10515   4.620   3.223   5.018  0.4831  1.3433 -0.5817
  104OSM   C15S10516   4.498   3.321   4.853 -0.3928 -0.2176 -0.2120
  104OSM   H15S10517   4.390   3.326   4.828 -0.9823 -1.3232  1.8451
  104OSM   H15T10518   4.535   3.258   4.770 -2.1123 -1.6509  0.0579
  104OSM   C16S10519   4.560   3.462   4.858  0.0873 -0.4739  0.9030
  104OSM   H16S10520   4.663   3.444   4.897 -0.0188  0.5063  1.6996
  104OSM   H16T10521   4.512   3.516   4.942  1.7483  1.7868  0.5086
  104OSM   C17S10522   4.555   3.526   4.720  0.2006 -0.1444 -0.0468
  104OSM   H17S10523   4.631   3.484   4.651  0.3416 -2.0428  1.1971
  104OSM   H17T10524   4.587   3.632   4.717  0.5862 -0.2705 -0.4809
  104OSM   C18S10525   4.412   3.517   4.658 -0.0629 -0.2707 -0.7342
  104OSM   H18S10526   4.400   3.568   4.560 -0.5388  0.2434 -0.4154
  104OSM   H18T10527   4.333   3.548   4.729  1.9552 -0.5554  1.7674
  104OSM   H18U10528   4.383   3.414   4.631 -0.0450 -0.5359  0.2307
  104OSM    C1F10529   4.179   3.010   6.326  0.2004 -0.0333 -0.0013
  104OSM     OF10530   4.073   3.073   6.360  0.0998  0.5948  0.2986
  104OSM    C2F10531   4.196   2.860   6.305  0.2906 -0.5857 -0.2102
  104OSM    H2F10532   4.167   2.804   6.397  0.2376 -2.5336 -1.3716
  104OSM    H2G10533   4.301   2.828   6.290  1.4404  1.6444  2.2361
  104OSM    C3F10534   4.097   2.804   6.196  0.6546  0.8445  0.0376
  104OSM    H3F10535   4.002   2.863   6.201  0.6930  0.8228  1.5921
  104OSM    H3G10536   4.071   2.697   6.213 -1.0701  1.3127  0.5773
  104OSM    C4F10537   4.166   2.809   6.058  0.4339  0.2752 -0.6034
  104OSM    H4F10538   4.252   2.740   6.061  2.1824  2.3753  0.5889
  104OSM    H4G10539   4.201   2.911   6.029  1.1867  0.2490  0.1717
  104OSM    C5F10540   4.067   2.751   5.948 -0.8082 -0.3866 -0.5712
  104OSM    H5F10541   3.983   2.821   5.928 -0.5730 -0.2020 -0.9102
  104OSM    H5G10542   4.025   2.651   5.973 -0.8256 -0.4519 -0.8628
  104OSM    C6F10543   4.149   2.744   5.817  0.4837  0.0727  0.7049
  104OSM    H6F10544   4.218   2.656   5.824 -0.0107 -0.4799 -0.8326
  104OSM    H6G10545   4.210   2.832   5.786  1.9986 -1.9959 -2.8657
  104OSM    C7F10546   4.061   2.738   5.700  0.2407  0.2520  0.0107
  104OSM    H7F10547   4.016   2.839   5.694 -3.1975 -1.0621  0.8905
  104OSM    H7G10548   3.979   2.668   5.728  0.6505  0.2085  1.1142
  104OSM    C8F10549   4.126   2.688   5.565 -0.0002  0.2379 -0.6531
  104OSM    H8F10550   4.144   2.579   5.580 -2.9191 -0.0862  1.0470
  104OSM    H8G10551   4.217   2.749   5.546 -1.4562  2.5246 -0.6616
  104OSM    C9F10552   4.028   2.701   5.451  0.2044 -0.4154  0.7085
  104OSM    H9F10553   4.042   2.783   5.380 -0.9123 -0.7466  0.0939
  104OSM   C10F10554   3.935   2.612   5.420  0.3044  0.2142  0.3731
  104OSM   H10F10555   3.864   2.631   5.337  0.6837  0.8347  0.1905
  104OSM   C11F10556   3.899   2.477   5.481 -0.2544  0.2946  0.0247
  104OSM   H11F10557   3.792   2.454   5.462  0.0693 -0.7129 -0.7012
  104OSM   H11G10558   3.914   2.473   5.591 -0.7875  0.7195  0.1125
  104OSM   C12F10559   3.979   2.360   5.416 -0.3303 -0.2867  0.0723
  104OSM   H12F10560   4.090   2.371   5.424 -0.6316  1.8188  2.2856
  104OSM   H12G10561   3.946   2.350   5.310 -1.1112  0.7038  0.2086
  104OSM   C13F10562   3.944   2.225   5.473  0.1374  0.3648  0.2872
  104OSM   H13F10563   3.835   2.209   5.485 -0.2173  0.2229 -2.4535
  104OSM   H13G10564   3.977   2.233   5.579  1.2273  0.5636 -0.0487
  104OSM   C14F10565   4.009   2.104   5.407 -0.1442  0.5343  0.0184
  104OSM   H14F10566   4.118   2.111   5.422 -0.0103  0.3800 -0.8027
  104OSM   H14G10567   3.985   2.125   5.300 -0.3427  2.2070  0.3702
  104OSM   C15F10568   3.957   1.961   5.447 -1.1474  0.3085 -0.0035
  104OSM   H15F10569   4.010   1.931   5.540 -0.8920 -1.1360 -0.5899
  104OSM   H15G10570   3.980   1.892   5.362  1.1121  0.5955  0.3040
  104OSM   C16F10571   3.804   1.954   5.478 -0.4752  0.4754  0.1449
  104OSM   H16F10572   3.763   1.857   5.445  0.1258  0.6480 -1.1905
  104OSM   H16G10573   3.746   2.031   5.422 -1.4822 -1.6503 -1.8841
  104OSM   C17F10574   3.777   1.955   5.627  0.3176  0.8492  0.1228
  104OSM   H17F10575   3.819   2.044   5.678 -0.9961  2.8599 -2.1333
  104OSM   H17G10576   3.832   1.864   5.660  1.1334  0.4891 -2.0665
  104OSM   C18F10577   3.625   1.960   5.646  0.5830  0.7945 -0.1077
  104OSM   H18F10578   3.588   1.975   5.750  0.5675  0.8735 -0.1254
  104OSM   H18G10579   3.588   1.873   5.587  0.0354  0.7648  0.2668
  104OSM   H18H10580   3.585   2.048   5.592 -0.2468  0.5049  0.0137
  105OSM      N10581   5.840   2.233   6.596  0.7572  0.0516  0.0826
  105OSM    C1510582   5.757   2.338   6.659  0.7012  0.7182  0.0088
  105OSM   H15A10583   5.671   2.361   6.599  1.1712  2.3054 -0.0975
  105OSM   H15B10584   5.811   2.430   6.677  1.3967  0.1224  1.0851
  105OSM   H15C10585   5.721   2.306   6.756 -0.1095  3.3070  0.6417
  105OSM    C1410586   5.886   2.278   6.462 -0.0172 -1.0558  0.7271
  105OSM   H14A10587   5.798   2.283   6.401  1.0077  0.1337 -0.7178
  105OSM   H14B10588   5.964   2.217   6.419  1.0352  0.4187  0.4482
  105OSM   H14C10589   5.937   2.373   6.460  1.0961 -1.6432 -0.4130
  105OSM    C1310590   5.953   2.192   6.688 -0.3135  0.1012 -0.5560
  105OSM   H13A10591   5.921   2.183   6.790  1.7995 -0.0670  0.1399
  105OSM   H13B10592   6.012   2.283   6.682  0.3639 -0.3705 -1.4348
  105OSM   H13C10593   6.006   2.107   6.647  1.2908  1.6810 -1.9872
  105OSM    C1210594   5.759   2.106   6.585  0.0049 -0.3742  0.4405
  105OSM   H12A10595   5.715   2.071   6.678 -1.5748  0.3520  0.0098
  105OSM   H12B10596   5.833   2.034   6.554  2.7389  2.6554 -0.5436
  105OSM    C1110597   5.644   2.099   6.478  0.9159  1.1659  0.2271
  105OSM   H11A10598   5.610   1.994   6.489 -0.0135  1.3247 -0.9341
  105OSM   H11B10599   5.679   2.112   6.373 -1.6160  2.1537 -0.5567
  105OSM      P10600   5.434   2.149   6.607 -0.0337  0.1053  0.2274
  105OSM    O1310601   5.490   2.046   6.700  0.9561 -0.1160 -0.2256
  105OSM    O1410602   5.380   2.272   6.663 -0.0314  0.2008 -0.0389
  105OSM    O1110603   5.316   2.084   6.529 -0.9484 -0.0732  0.4624
  105OSM    O1210604   5.536   2.190   6.499 -0.2779  0.3341 -0.0737
  105OSM    C1S10605   5.285   2.120   6.395 -0.3686 -0.3700  0.5047
  105OSM    H1S10606   5.361   2.071   6.331  0.7728 -0.2969  1.7576
  105OSM    H1T10607   5.295   2.230   6.378  0.2360 -0.5058 -0.0468
  105OSM     NF10608   5.117   2.074   6.217 -0.5609 -0.3334  0.1678
  105OSM    HNF10609   5.087   2.164   6.186 -0.9336 -0.6575 -0.4368
  105OSM    C2S10610   5.143   2.068   6.365  0.2223  0.4491 -0.5808
  105OSM    H2S10611   5.135   1.961   6.393 -0.4021  0.9660  1.3125
  105OSM    C3S10612   5.032   2.130   6.450  0.1885 -0.5150 -0.1603
  105OSM    H3S10613   5.018   2.232   6.407 -2.9138 -0.0770  1.6139
  105OSM     O310614   5.057   2.142   6.586 -0.2399  0.1523  0.1852
  105OSM    HO310615   5.152   2.157   6.584 -0.6054  3.3364 -2.6676
  105OSM    C4S10616   4.896   2.068   6.435 -0.8642 -0.7561  0.3853
  105OSM    H4S10617   4.907   1.959   6.449  1.5952 -0.9101 -1.9505
  105OSM    C5S10618   4.777   2.124   6.399 -0.3607 -1.3447  0.2339
  105OSM    H5S10619   4.783   2.233   6.384 -1.8707 -0.9756  1.8469
  105OSM    C6S10620   4.646   2.051   6.382 -0.3023 -0.1655  0.3694
  105OSM    H6S10621   4.562   2.114   6.345 -0.4988 -0.4756  0.2787
  105OSM    H6T10622   4.610   2.015   6.481  3.3308 -1.2753  1.4204
  105OSM    C7S10623   4.647   1.946   6.267  0.7450 -0.7819 -0.5852
  105OSM    H7S10624   4.550   1.892   6.273 -1.4807  2.9356  1.8174
  105OSM    H7T10625   4.726   1.873   6.291  0.5301 -1.1516 -0.9927
  105OSM    C8S10626   4.676   2.016   6.131  0.1682 -0.3191 -0.3337
  105OSM    H8S10627   4.782   2.048   6.124 -0.2397  0.8359 -1.6816
  105OSM    H8T10628   4.611   2.106   6.127 -0.4787 -0.7311  0.6337
  105OSM    C9S10629   4.645   1.924   6.007  0.6318  0.0139 -0.5456
  105OSM    H9S10630   4.538   1.896   5.996  0.8891 -0.7109 -1.2298
  105OSM    H9T10631   4.702   1.832   6.033 -0.8004 -0.9927 -0.8345
  105OSM   C10S10632   4.669   1.989   5.865 -0.0321  0.0680  0.2107
  105OSM   H10S10633   4.764   2.046   5.858 -1.1232  2.1949  1.4120
  105OSM   H10T10634   4.588   2.065   5.860  0.0926  0.4453  2.5903
  105OSM   C11S10635   4.655   1.897   5.739  0.2994  0.0177 -0.0319
  105OSM   H11S10636   4.564   1.833   5.741 -0.2872  0.6830 -2.4977
  105OSM   H11T10637   4.749   1.838   5.731  0.2298 -0.3317  1.4609
  105OSM   C12S10638   4.648   1.983   5.610 -0.3920 -0.1320 -0.3335
  105OSM   H12S10639   4.736   2.049   5.600 -0.3251 -0.3207 -1.1267
  105OSM   H12T10640   4.560   2.051   5.617 -1.5775 -1.7344  1.0501
  105OSM   C13S10641   4.645   1.899   5.483  0.4804 -0.4523 -0.4824
  105OSM   H13S10642   4.569   1.818   5.489 -0.9523  0.9041  0.1973
  105OSM   H13T10643   4.732   1.833   5.463  0.9600  0.3028 -0.9378
  105OSM   C14S10644   4.621   1.990   5.359 -0.5750 -0.1401  0.2158
  105OSM   H14S10645   4.681   2.084   5.367  1.9447 -1.3643 -2.4437
  105OSM   H14T10646   4.513   2.012   5.345 -1.0742 -0.0449  3.4505
  105OSM   C15S10647   4.658   1.924   5.229  0.5387 -0.2990 -0.2144
  105OSM   H15S10648   4.597   1.835   5.202 -0.9008  1.0083 -1.4550
  105OSM   H15T10649   4.764   1.891   5.235  0.4103 -0.7304 -0.2667
  105OSM   C16S10650   4.633   2.027   5.121 -0.0994 -0.5423 -0.0065
  105OSM   H16S10651   4.687   2.119   5.152  0.3562 -0.8446  0.1143
  105OSM   H16T10652   4.525   2.050   5.110 -0.2802  1.1220  3.6693
  105OSM   C17S10653   4.686   1.974   4.983  0.6854 -0.0429  0.3099
  105OSM   H17S10654   4.669   1.864   4.978 -1.9305  0.2977  0.5595
  105OSM   H17T10655   4.793   2.004   4.971  0.1842  1.2674 -1.2285
  105OSM   C18S10656   4.619   2.037   4.857 -0.5554 -0.1235 -0.0653
  105OSM   H18S10657   4.509   2.024   4.868 -0.6802  1.5630  1.0189
  105OSM   H18T10658   4.657   1.997   4.761  2.2005 -1.0039  1.2645
  105OSM   H18U10659   4.647   2.144   4.855  1.6698 -0.6245 -3.4230
  105OSM    C1F10660   5.172   1.989   6.127  0.4547  0.1554 -0.1304
  105OSM     OF10661   5.228   1.889   6.165  0.3634 -0.2953 -0.4045
  105OSM    C2F10662   5.166   2.025   5.984  0.0689 -1.0729 -0.6815
  105OSM    H2F10663   5.242   2.102   5.960 -0.8856  0.6782  1.5333
  105OSM    H2G10664   5.069   2.074   5.962  0.4557  0.1370  0.2239
  105OSM    C3F10665   5.172   1.901   5.892  0.1338  0.2189 -0.2085
  105OSM    H3F10666   5.087   1.832   5.910 -0.4379  1.0768  0.4564
  105OSM    H3G10667   5.265   1.848   5.922  0.8386  1.1542 -0.6873
  105OSM    C4F10668   5.176   1.940   5.745  0.0798  0.0650 -0.3647
  105OSM    H4F10669   5.263   2.007   5.729  0.1306 -0.1551 -1.0688
  105OSM    H4G10670   5.082   1.993   5.718  0.4751  0.8312 -0.2505
  105OSM    C5F10671   5.197   1.808   5.661  0.3927 -0.8337  0.0505
  105OSM    H5F10672   5.109   1.740   5.652 -0.6936  0.6255 -0.8866
  105OSM    H5G10673   5.273   1.738   5.701  1.5326 -0.5292 -1.5253
  105OSM    C6F10674   5.249   1.839   5.522  0.1609  0.1457  0.6594
  105OSM    H6F10675   5.260   1.741   5.471  0.2662  0.3057  0.3744
  105OSM    H6G10676   5.342   1.899   5.533 -0.7439  1.4839  1.3395
  105OSM    C7F10677   5.158   1.926   5.437  0.4448  0.7833  0.2006
  105OSM    H7F10678   5.151   2.031   5.472  0.7181  1.0818 -0.6149
  105OSM    H7G10679   5.051   1.894   5.442  0.9355 -1.0346 -0.2292
  105OSM    C8F10680   5.207   1.926   5.292 -0.7422 -0.7456  0.2618
  105OSM    H8F10681   5.232   1.823   5.259 -1.1069 -0.4143 -1.1033
  105OSM    H8G10682   5.304   1.981   5.296 -0.3134 -1.5726  2.0695
  105OSM    C9F10683   5.111   1.987   5.188 -0.6506 -0.5532 -0.5675
  105OSM    H9F10684   5.080   2.090   5.210  1.0542 -0.1097 -0.0166
  105OSM   C10F10685   5.076   1.922   5.075  0.0657 -0.1031 -0.3262
  105OSM   H10F10686   5.028   1.977   4.994 -2.6544 -0.3115  1.0195
  105OSM   C11F10687   5.109   1.778   5.055 -0.5284  0.6333 -0.4643
  105OSM   H11F10688   5.078   1.726   5.148  2.4967  0.1235  0.3637
  105OSM   H11G10689   5.218   1.765   5.044 -0.7897 -0.3949 -2.1534
  105OSM   C12F10690   5.036   1.712   4.938  1.0423 -0.4611  0.3147
  105OSM   H12F10691   5.043   1.780   4.851 -1.4356  2.0730  1.9029
  105OSM   H12G10692   4.928   1.717   4.966  1.0879  0.3617  0.3679
  105OSM   C13F10693   5.073   1.573   4.900  0.0165 -0.2881  0.0058
  105OSM   H13F10694   5.026   1.508   4.976 -1.7904 -0.3872 -1.1470
  105OSM   H13G10695   5.184   1.567   4.904  0.3454  2.9792 -0.7577
  105OSM   C14F10696   5.043   1.533   4.756 -0.5478 -0.0292  0.8656
  105OSM   H14F10697   5.091   1.602   4.683 -0.6722  0.7284  1.4871
  105OSM   H14G10698   4.935   1.547   4.735 -1.1815 -0.7252  3.3362
  105OSM   C15F10699   5.076   1.382   4.732  0.3124  0.0447  0.3456
  105OSM   H15F10700   5.185   1.373   4.751  0.2187 -2.6070  0.0290
  105OSM   H15G10701   5.062   1.359   4.624 -1.4023  0.9216  0.3427
  105OSM   C16F10702   5.009   1.276   4.827  0.5853  0.4245 -0.2300
  105OSM   H16F10703   4.899   1.285   4.813  0.1340 -2.0944  1.0803
  105OSM   H16G10704   5.047   1.290   4.931  0.5330 -0.7262 -0.0490
  105OSM   C17F10705   5.031   1.129   4.804  0.1418  0.8363 -0.4785
  105OSM   H17F10706   5.140   1.113   4.795 -0.0644 -1.0959 -0.1884
  105OSM   H17G10707   4.984   1.109   4.705 -1.0976  2.0733 -0.1658
  105OSM   C18F10708   4.965   1.046   4.918 -0.2171 -0.2571 -0.3181
  105OSM   H18F10709   4.956   0.940   4.886 -1.7454 -0.1223 -0.3981
  105OSM   H18G10710   4.866   1.092   4.939  1.7728  3.4318  2.0874
  105OSM   H18H10711   5.027   1.067   5.009 -2.1254  1.0108  0.7611
  106OSM      N10712   1.231   0.119   7.133 -0.0990  0.0701 -0.5517
  106OSM    C1510713   1.219  -0.028   7.104  0.1156 -1.0208 -0.1839
  106OSM   H15A10714   1.128  -0.060   7.054  0.9524 -2.2233 -1.0133
  106OSM   H15B10715   1.206  -0.081   7.198 -1.5669 -0.3778 -0.0248
  106OSM   H15C10716   1.298  -0.071   7.044 -0.5374 -0.7697 -1.2380
  106OSM    C1410717   1.113   0.163   7.222  0.1223  0.1647  0.3091
  106OSM   H14A10718   1.115   0.269   7.242  0.9536  1.0255 -3.6002
  106OSM   H14B10719   1.105   0.104   7.312  5.0215 -0.3359  0.6972
  106OSM   H14C10720   1.023   0.142   7.166  1.3754  0.9302 -2.1410
  106OSM    C1310721   1.353   0.147   7.214  0.2658  0.7043  0.0245
  106OSM   H13A10722   1.440   0.094   7.177  1.0307  0.9299  1.4228
  106OSM   H13B10723   1.333   0.117   7.316 -1.6932 -1.0270 -0.7952
  106OSM   H13C10724   1.374   0.253   7.215 -1.7188  1.1741  2.3578
  106OSM    C1210725   1.234   0.208   7.003  0.2639  0.7581  0.1800
  106OSM   H12A10726   1.299   0.161   6.931 -0.3090  0.5203 -0.1908
  106OSM   H12B10727   1.273   0.307   7.021 -1.2414  1.3043  0.6233
  106OSM    C1110728   1.100   0.212   6.927  0.6258  0.1634  1.1017
  106OSM   H11A10729   1.104   0.292   6.850 -0.9762  0.0682  0.8802
  106OSM   H11B10730   1.044   0.271   7.003  0.7416  2.1221 -0.2597
  106OSM      P10731   1.097   0.031   6.752  0.2029 -0.3390 -0.1710
  106OSM    O1310732   1.222  -0.027   6.792 -0.3279  0.0479  0.4811
  106OSM    O1410733   1.000  -0.061   6.690  0.0699  0.2028  0.0864
  106OSM    O1110734   1.141   0.156   6.659  0.8625 -0.3014 -0.1248
  106OSM    O1210735   1.036   0.091   6.885 -0.2558 -0.3620  0.2047
  106OSM    C1S10736   1.191   0.123   6.533 -0.8571  0.0249  0.1542
  106OSM    H1S10737   1.106   0.094   6.467 -0.3576 -2.1107  0.3774
  106OSM    H1T10738   1.258   0.035   6.521  1.6975  1.8699  0.0297
  106OSM     NF10739   1.300   0.233   6.340 -0.2830 -0.5556  0.2116
  106OSM    HNF10740   1.392   0.212   6.306 -0.2241 -1.6892  0.9933
  106OSM    C2S10741   1.276   0.245   6.481  0.0883  0.4364 -1.5544
  106OSM    H2S10742   1.220   0.340   6.497 -0.4693 -0.4656  3.4549
  106OSM    C3S10743   1.403   0.258   6.567 -0.1283 -0.6303 -0.3347
  106OSM    H3S10744   1.471   0.171   6.553  0.9907 -0.0565  1.2609
  106OSM     O310745   1.403   0.250   6.708 -0.2047 -0.4017  0.9101
  106OSM    HO310746   1.309   0.236   6.719 -0.3980  1.0633  1.3566
  106OSM    C4S10747   1.483   0.377   6.510  0.3482 -0.5779  0.4461
  106OSM    H4S10748   1.562   0.346   6.441  1.5069  1.1077  0.9429
  106OSM    C5S10749   1.485   0.503   6.553  1.2081 -0.4516  0.3613
  106OSM    H5S10750   1.407   0.538   6.623  0.9877 -1.9039  0.8873
  106OSM    C6S10751   1.588   0.606   6.516  0.3045  0.2219  0.4100
  106OSM    H6S10752   1.664   0.615   6.597  0.4813  0.2705  0.2383
  106OSM    H6T10753   1.541   0.706   6.500 -1.0324 -0.3973  0.2928
  106OSM    C7S10754   1.661   0.575   6.381 -0.0829  0.3634  0.1266
  106OSM    H7S10755   1.579   0.567   6.307  0.5316  1.8270 -0.7748
  106OSM    H7T10756   1.722   0.483   6.393 -1.3042 -0.2625  1.8835
  106OSM    C8S10757   1.745   0.697   6.328  1.1228 -0.1098  0.7248
  106OSM    H8S10758   1.828   0.707   6.402  2.9437  0.5014 -1.3044
  106OSM    H8T10759   1.678   0.783   6.306  0.4845 -1.4299 -3.2464
  106OSM    C9S10760   1.808   0.657   6.192  0.6423 -0.0463  0.3481
  106OSM    H9S10761   1.728   0.631   6.120  0.8827  1.4667 -0.5141
  106OSM    H9T10762   1.878   0.574   6.213  0.2655 -0.2384  0.8644
  106OSM   C10S10763   1.866   0.772   6.116  0.9485  0.8577  0.2137
  106OSM   H10S10764   1.968   0.785   6.160  0.4640  1.3814  1.2147
  106OSM   H10T10765   1.808   0.865   6.129  1.4617  1.1568  0.4077
  106OSM   C11S10766   1.885   0.744   5.962 -1.4497  0.4443  0.0606
  106OSM   H11S10767   1.789   0.719   5.912 -1.0438  1.6466 -1.4143
  106OSM   H11T10768   1.945   0.651   5.957 -1.1204  0.6941 -1.0935
  106OSM   C12S10769   1.957   0.852   5.887 -0.6073 -0.1157 -0.0340
  106OSM   H12S10770   2.048   0.886   5.940 -0.9163  3.0321 -1.2593
  106OSM   H12T10771   1.877   0.929   5.878  1.2864  1.8627 -0.8363
  106OSM   C13S10772   1.997   0.805   5.747  0.0241 -0.1542  0.3735
  106OSM   H13S10773   1.893   0.789   5.711 -1.1497 -1.4279  3.8752
  106OSM   H13T10774   2.027   0.698   5.742 -1.9535 -0.7328 -3.6253
  106OSM   C14S10775   2.104   0.885   5.680  0.6607 -0.0122 -0.2016
  106OSM   H14S10776   2.187   0.915   5.747 -0.4484  1.8136  0.4165
  106OSM   H14T10777   2.060   0.978   5.638 -0.5675 -1.6047 -2.7007
  106OSM   C15S10778   2.171   0.816   5.561  0.0276  0.1085  0.0425
  106OSM   H15S10779   2.112   0.842   5.471  0.4249  1.4585  0.1398
  106OSM   H15T10780   2.164   0.705   5.566  1.2414  0.0115 -0.0454
  106OSM   C16S10781   2.323   0.847   5.547  0.2720  0.3012 -0.5704
  106OSM   H16S10782   2.384   0.814   5.634  3.2858  0.4877 -2.4835
  106OSM   H16T10783   2.325   0.956   5.527 -0.2967  0.7853  1.6927
  106OSM   C17S10784   2.383   0.784   5.426  0.3792  0.8144  0.4991
  106OSM   H17S10785   2.485   0.822   5.406  0.2904  0.2827 -1.1344
  106OSM   H17T10786   2.322   0.807   5.336  0.4688 -0.5275  0.0591
  106OSM   C18S10787   2.400   0.629   5.437 -0.0396 -0.5815 -0.7300
  106OSM   H18S10788   2.456   0.589   5.350 -1.2996 -3.3269 -0.3688
  106OSM   H18T10789   2.298   0.587   5.438 -0.6661  0.8733 -1.1513
  106OSM   H18U10790   2.459   0.604   5.528 -1.5325 -1.9138 -0.0943
  106OSM    C1F10791   1.204   0.246   6.245 -1.0920 -0.1466  0.3378
  106OSM     OF10792   1.100   0.303   6.266  0.1651  0.3700  0.8843
  106OSM    C2F10793   1.235   0.186   6.114  0.2954 -0.4825  0.4350
  106OSM    H2F10794   1.213   0.077   6.117 -0.3156 -0.3537  0.9627
  106OSM    H2G10795   1.343   0.209   6.097  0.5651 -0.6557  1.7678
  106OSM    C3F10796   1.142   0.246   6.002 -0.7164 -0.8197 -0.1853
  106OSM    H3F10797   1.176   0.351   5.997 -0.7808 -0.8597 -2.4072
  106OSM    H3G10798   1.041   0.244   6.049  0.0077  0.4353  1.5197
  106OSM    C4F10799   1.135   0.164   5.872  0.6406  0.5443 -0.3525
  106OSM    H4F10800   1.061   0.215   5.808 -1.1317 -0.2944  0.9344
  106OSM    H4G10801   1.103   0.058   5.879 -1.9944  1.3452  1.2243
  106OSM    C5F10802   1.262   0.170   5.794  0.4587  0.3980  0.1531
  106OSM    H5F10803   1.360   0.171   5.847  2.9639 -0.7203 -4.0175
  106OSM    H5G10804   1.263   0.272   5.748 -0.1891  0.0552 -0.6381
  106OSM    C6F10805   1.265   0.065   5.679 -0.7519 -0.0517 -0.3789
  106OSM    H6F10806   1.161   0.049   5.644 -1.1862 -0.6359  1.0863
  106OSM    H6G10807   1.310  -0.032   5.708  0.8161  0.0357 -2.3382
  106OSM    C7F10808   1.339   0.115   5.555 -0.1627  0.1472 -0.2768
  106OSM    H7F10809   1.435   0.059   5.548 -0.1813 -0.3344  2.2448
  106OSM    H7G10810   1.368   0.221   5.570 -0.2092  0.3124 -1.3272
  106OSM    C8F10811   1.265   0.103   5.420 -0.5188 -0.5195 -0.6617
  106OSM    H8F10812   1.202   0.195   5.419  0.5285  0.2038 -1.1238
  106OSM    H8G10813   1.192   0.019   5.420 -2.0074  0.6803  0.9402
  106OSM    C9F10814   1.344   0.109   5.299  0.2497 -0.4111 -0.1047
  106OSM    H9F10815   1.447   0.138   5.325 -0.3991  1.2190  0.7788
  106OSM   C10F10816   1.304   0.083   5.177  0.5939  0.2105 -0.4998
  106OSM   H10F10817   1.379   0.095   5.097  2.4931  2.3601  1.4434
  106OSM   C11F10818   1.173   0.022   5.124  0.3740 -0.3815  0.2150
  106OSM   H11F10819   1.097   0.032   5.204 -1.6849 -1.5915 -1.4998
  106OSM   H11G10820   1.190  -0.087   5.110  2.6877  0.0503 -0.8655
  106OSM   C12F10821   1.125   0.085   4.997 -0.5890  0.0029 -0.2357
  106OSM   H12F10822   1.145   0.195   5.001  0.2690  0.0053 -2.9757
  106OSM   H12G10823   1.015   0.072   4.998 -0.7418  1.1988  0.3827
  106OSM   C13F10824   1.198   0.044   4.869 -0.0175 -1.2571 -0.3326
  106OSM   H13F10825   1.306   0.058   4.893 -0.7291  1.2219  1.8484
  106OSM   H13G10826   1.167   0.108   4.784 -0.5211 -0.5678  0.3532
  106OSM   C14F10827   1.167  -0.102   4.836 -0.1795  0.0916  0.2525
  106OSM   H14F10828   1.059  -0.118   4.858 -0.2759 -0.3640 -0.4945
  106OSM   H14G10829   1.230  -0.173   4.894 -0.8487 -0.6964  0.0452
  106OSM   C15F10830   1.175  -0.128   4.682  0.0738 -0.7498 -0.0667
  106OSM   H15F10831   1.210  -0.231   4.659  1.5400 -0.2911  0.0188
  106OSM   H15G10832   1.245  -0.056   4.635 -2.1956 -0.6226 -3.6637
  106OSM   C16F10833   1.036  -0.108   4.606 -0.0187  0.4572  0.9090
  106OSM   H16F10834   1.024  -0.006   4.564 -1.1560 -1.0350 -2.8085
  106OSM   H16G10835   0.953  -0.139   4.673 -3.8306 -0.4144 -3.7006
  106OSM   C17F10836   1.051  -0.200   4.485  0.3999 -0.2589 -0.0985
  106OSM   H17F10837   1.067  -0.307   4.509 -0.3033 -0.3819 -0.1681
  106OSM   H17G10838   1.141  -0.163   4.431  0.9944 -0.8128  0.4936
  106OSM   C18F10839   0.930  -0.206   4.398 -0.0648 -0.0811  0.6908
  106OSM   H18F10840   0.835  -0.206   4.456 -0.6238 -0.0392 -0.2134
  106OSM   H18G10841   0.912  -0.298   4.339 -1.3441  0.4870  0.1472
  106OSM   H18H10842   0.924  -0.120   4.327  1.1158 -0.4531  0.1209
  107OSM      N10843   1.079   5.137   6.650 -0.8331  0.1567  0.0525
  107OSM    C1510844   1.128   5.281   6.661  0.3943 -0.6002 -0.0704
  107OSM   H15A10845   1.154   5.330   6.568 -0.0534  3.3056  1.6780
  107OSM   H15B10846   1.227   5.278   6.704  1.0900  3.7240 -0.9750
  107OSM   H15C10847   1.065   5.335   6.729 -0.9872 -1.4986 -0.5773
  107OSM    C1410848   1.167   5.055   6.559  0.5219 -0.6097  0.0011
  107OSM   H14A10849   1.182   5.106   6.465  0.1891  0.5187  0.5410
  107OSM   H14B10850   1.124   4.958   6.542  3.2732 -1.9593  0.1659
  107OSM   H14C10851   1.266   5.044   6.602  0.5365 -0.9059 -0.1086
  107OSM    C1310852   1.080   5.066   6.786  0.2518 -0.1034  0.0474
  107OSM   H13A10853   1.174   5.058   6.838 -0.0587 -0.7479  0.5313
  107OSM   H13B10854   1.053   4.962   6.772  1.0561 -0.2515 -0.4840
  107OSM   H13C10855   1.018   5.116   6.859  0.7861  0.6033  0.0223
  107OSM    C1210856   0.935   5.130   6.606 -0.8173  0.0120 -0.7741
  107OSM   H12A10857   0.923   5.157   6.502 -1.3475  0.5658 -0.5735
  107OSM   H12B10858   0.882   5.206   6.662 -2.5203  0.5550 -2.9889
  107OSM    C1110859   0.848   5.003   6.628 -0.5993 -0.1431  0.3933
  107OSM   H11A10860   0.747   5.029   6.592  0.1316  2.8105  0.1951
  107OSM   H11B10861   0.833   4.985   6.736 -1.1365 -2.7725 -0.0510
  107OSM      P10862   0.827   4.790   6.470 -0.0926  0.2334  0.3661
  107OSM    O1310863   0.916   4.694   6.405 -0.3420 -0.1724  0.1121
  107OSM    O1410864   0.710   4.722   6.533 -0.5176 -0.2684 -0.3691
  107OSM    O1110865   0.771   4.891   6.365 -0.5351 -0.1613  0.1207
  107OSM    O1210866   0.909   4.883   6.570 -0.0966  0.0535 -0.4761
  107OSM    C1S10867   0.849   4.950   6.258  0.4020 -0.0808 -0.0504
  107OSM    H1S10868   0.946   4.898   6.243 -0.0943 -0.7677 -1.1051
  107OSM    H1T10869   0.872   5.058   6.271 -1.3673  0.6349 -2.2510
  107OSM     NF10870   0.868   4.990   6.015  0.0785 -0.2803  0.1075
  107OSM    HNF10871   0.848   5.087   6.003 -0.7266 -0.4820 -0.2624
  107OSM    C2S10872   0.781   4.932   6.116 -0.2231 -0.1018 -0.5906
  107OSM    H2S10873   0.757   4.826   6.094  0.7131 -0.5225  0.3180
  107OSM    C3S10874   0.640   4.999   6.128  0.1059  0.3077 -0.1588
  107OSM    H3S10875   0.656   5.103   6.164  3.3171  0.4293 -1.6017
  107OSM     O310876   0.551   4.948   6.218  0.4027  0.1897 -0.1608
  107OSM    HO310877   0.605   4.902   6.282 -0.7139  0.1232  0.7690
  107OSM    C4S10878   0.568   5.007   5.995 -0.0278 -0.9699 -0.2229
  107OSM    H4S10879   0.555   5.109   5.956 -0.3744 -0.7281  0.5096
  107OSM    C5S10880   0.500   4.917   5.930 -0.3482 -0.0667  0.5496
  107OSM    H5S10881   0.513   4.816   5.973 -2.4749 -0.4934  0.2866
  107OSM    C6S10882   0.420   4.959   5.807 -0.0546  0.6674  0.7815
  107OSM    H6S10883   0.390   4.873   5.743  0.4995  0.0609  1.3280
  107OSM    H6T10884   0.478   5.032   5.747  0.8341  0.7894  1.7517
  107OSM    C7S10885   0.298   5.033   5.863 -0.5246  0.2718  0.9483
  107OSM    H7S10886   0.334   5.105   5.940 -1.2342  0.6620  0.9136
  107OSM    H7T10887   0.234   4.959   5.916  1.6198 -1.3233  1.4969
  107OSM    C8S10888   0.208   5.121   5.767 -0.5139 -0.0264  0.2349
  107OSM    H8S10889   0.274   5.201   5.727 -0.3406 -0.7665 -1.0139
  107OSM    H8T10890   0.130   5.159   5.836  2.2917  3.8006  1.6557
  107OSM    C9S10891   0.157   5.052   5.646  0.1003  0.5101 -0.0417
  107OSM    H9S10892   0.088   4.973   5.684 -0.7759  1.5317  0.5548
  107OSM    H9T10893   0.245   5.006   5.595  0.8148  1.5234  0.2478
  107OSM   C10S10894   0.091   5.151   5.542  0.7634 -0.7261  0.0402
  107OSM   H10S10895   0.160   5.230   5.507 -1.2506  0.2393 -2.0356
  107OSM   H10T10896   0.012   5.205   5.597  0.2867  0.0487 -1.3487
  107OSM   C11S10897   0.035   5.090   5.417  1.2022  0.4090 -1.1208
  107OSM   H11S10898  -0.032   5.006   5.444  0.3794  0.1771 -3.5943
  107OSM   H11T10899   0.127   5.043   5.375  0.6956 -0.5295 -1.2102
  107OSM   C12S10900  -0.025   5.186   5.323 -0.1294  0.0675  0.3620
  107OSM   H12S10901   0.015   5.285   5.350 -1.6568  0.9269 -0.3954
  107OSM   H12T10902  -0.136   5.188   5.324 -0.1223  1.5919  2.4009
  107OSM   C13S10903   0.010   5.150   5.174  0.0880  0.1736 -0.6540
  107OSM   H13S10904  -0.016   5.043   5.160  1.5567 -0.1852 -0.8501
  107OSM   H13T10905   0.120   5.164   5.162  0.8309 -2.5625  1.7492
  107OSM   C14S10906  -0.059   5.241   5.073  0.1001  0.0781 -0.4990
  107OSM   H14S10907   0.013   5.326   5.065  0.5557 -0.2472  0.0305
  107OSM   H14T10908  -0.157   5.277   5.112  1.1203  1.1382  1.2397
  107OSM   C15S10909  -0.065   5.186   4.928 -0.7772 -0.9014 -0.7183
  107OSM   H15S10910  -0.127   5.094   4.924 -2.2140 -0.3731  3.5685
  107OSM   H15T10911   0.043   5.167   4.907 -0.6313  0.6484 -1.4743
  107OSM   C16S10912  -0.122   5.291   4.837 -0.2554  0.4866  0.1877
  107OSM   H16S10913  -0.058   5.381   4.832 -4.0602  3.3935 -2.5328
  107OSM   H16T10914  -0.229   5.317   4.854 -0.3620  0.3495 -0.2569
  107OSM   C17S10915  -0.125   5.238   4.689 -0.1241  0.1714  0.0648
  107OSM   H17S10916  -0.175   5.139   4.691  0.5612 -0.2054 -0.8413
  107OSM   H17T10917  -0.021   5.211   4.660  0.2713 -2.0879  3.0713
  107OSM   C18S10918  -0.196   5.326   4.587  0.0011 -0.0983  0.4150
  107OSM   H18S10919  -0.286   5.372   4.635 -0.7276  0.2404 -1.1970
  107OSM   H18T10920  -0.221   5.279   4.489  0.1927  0.7101 -0.0315
  107OSM   H18U10921  -0.126   5.410   4.567  0.7588 -0.9391 -0.6063
  107OSM    C1F10922   0.968   4.927   5.959  0.7566  0.2990  0.4349
  107OSM     OF10923   0.998   4.815   6.001  0.0722 -0.1138  0.2440
  107OSM    C2F10924   1.046   5.002   5.849  0.0367  0.6239  1.1975
  107OSM    H2F10925   1.154   4.983   5.866 -0.2083 -0.9933  1.1163
  107OSM    H2G10926   1.025   5.109   5.871 -1.3785  0.6979 -0.2720
  107OSM    C3F10927   1.009   4.961   5.705  0.4236 -0.6339  0.1458
  107OSM    H3F10928   1.024   4.852   5.691 -1.7272 -1.2861  2.2556
  107OSM    H3G10929   1.069   5.016   5.630  0.2765  0.7536  1.0075
  107OSM    C4F10930   0.865   5.006   5.681 -0.0765  0.1735  0.3625
  107OSM    H4F10931   0.837   5.108   5.718 -0.1305  0.7650 -1.2380
  107OSM    H4G10932   0.814   4.929   5.742  0.9606 -2.2514 -1.6854
  107OSM    C5F10933   0.817   4.986   5.540  0.0518  0.0890 -0.2687
  107OSM    H5F10934   0.710   5.016   5.543 -0.3335 -1.2376  2.6928
  107OSM    H5G10935   0.803   4.876   5.525 -0.1539 -0.0753  0.9833
  107OSM    C6F10936   0.890   5.068   5.432 -0.5285 -0.4965 -0.3503
  107OSM    H6F10937   0.996   5.037   5.426  0.7578  2.8406  2.0231
  107OSM    H6G10938   0.897   5.175   5.461  2.2346 -0.6048 -0.3559
  107OSM    C7F10939   0.831   5.061   5.298  0.7571  0.6372  0.2450
  107OSM    H7F10940   0.739   5.122   5.295  0.2005  0.0290  2.4204
  107OSM    H7G10941   0.801   4.957   5.272 -1.2231  1.2337 -0.0500
  107OSM    C8F10942   0.938   5.104   5.195  0.3217 -0.2565 -0.6078
  107OSM    H8F10943   1.026   5.039   5.213  0.0763 -0.6481 -0.8359
  107OSM    H8G10944   0.965   5.212   5.196  0.4518 -0.2881 -0.7766
  107OSM    C9F10945   0.882   5.074   5.055 -0.6042  0.4051  0.0885
  107OSM    H9F10946   0.870   4.967   5.034 -0.0190  0.2921  0.3070
  107OSM   C10F10947   0.861   5.159   4.956 -0.6024 -1.0035  0.0338
  107OSM   H10F10948   0.816   5.116   4.865 -3.0104  1.0513  0.1233
  107OSM   C11F10949   0.877   5.314   4.966 -0.3284 -0.0063  0.2434
  107OSM   H11F10950   0.979   5.339   4.929 -0.4493 -0.5465 -0.4900
  107OSM   H11G10951   0.871   5.352   5.070 -1.5771 -0.9922  0.5637
  107OSM   C12F10952   0.770   5.391   4.892  0.3099 -1.0902 -0.3226
  107OSM   H12F10953   0.672   5.353   4.929  0.2332 -0.2292  0.4138
  107OSM   H12G10954   0.774   5.372   4.783 -1.3970  2.3829 -1.1637
  107OSM   C13F10955   0.771   5.548   4.899 -0.2715 -0.2237  0.0527
  107OSM   H13F10956   0.873   5.585   4.873 -0.3241 -2.1566 -3.4616
  107OSM   H13G10957   0.745   5.588   4.999 -1.1686  0.2631 -0.3636
  107OSM   C14F10958   0.669   5.616   4.804 -0.5422  1.1699  1.1850
  107OSM   H14F10959   0.583   5.547   4.797 -0.4368  0.9506  2.0432
  107OSM   H14G10960   0.713   5.618   4.701 -3.0246  1.3989  0.0592
  107OSM   C15F10961   0.617   5.754   4.833 -0.3414  0.2763 -0.5663
  107OSM   H15F10962   0.708   5.816   4.848  0.2024 -0.7977  0.7359
  107OSM   H15G10963   0.551   5.760   4.922 -1.4574 -3.1111 -1.0170
  107OSM   C16F10964   0.541   5.808   4.710 -0.1123 -0.3288  0.6485
  107OSM   H16F10965   0.493   5.727   4.651 -0.1854  0.6100 -0.6388
  107OSM   H16G10966   0.623   5.830   4.638 -0.0029 -2.0325  0.2149
  107OSM   C17F10967   0.443   5.923   4.719 -0.0410  0.2905 -0.0141
  107OSM   H17F10968   0.371   5.904   4.801  0.7506  1.5014  0.9784
  107OSM   H17G10969   0.381   5.939   4.628 -0.2555 -0.2878  0.0254
  107OSM   C18F10970   0.510   6.052   4.748  0.3888 -0.3623  0.3196
  107OSM   H18F10971   0.605   6.059   4.690  1.3320 -1.0484  1.7343
  107OSM   H18G10972   0.547   6.060   4.852 -1.1849  1.1449  0.8276
  107OSM   H18H10973   0.451   6.142   4.720  1.4382  0.0606 -0.5897
  108OSM      N10974   5.337   5.242   6.995  0.1599 -0.0589 -0.2360
  108OSM    C1510975   5.438   5.210   7.101  0.4262 -0.5230 -0.0398
  108OSM   H15A10976   5.401   5.131   7.164 -1.0728 -0.0642 -0.2949
  108OSM   H15B10977   5.441   5.285   7.179  0.4072 -0.2432 -0.3048
  108OSM   H15C10978   5.536   5.190   7.060 -0.1054 -2.5353 -0.3974
  108OSM    C1410979   5.346   5.148   6.878 -0.1722  0.2079  0.3376
  108OSM   H14A10980   5.258   5.156   6.815 -1.7883 -1.8487  2.1399
  108OSM   H14B10981   5.348   5.046   6.914 -1.8871  0.8530  2.5499
  108OSM   H14C10982   5.438   5.150   6.822 -0.1975 -2.2099  0.0868
  108OSM    C1310983   5.200   5.215   7.062  0.8375 -0.3191 -0.2199
  108OSM   H13A10984   5.118   5.227   6.993  0.1238 -2.3489  0.2062
  108OSM   H13B10985   5.185   5.270   7.154  2.4755 -0.8506  0.4007
  108OSM   H13C10986   5.210   5.111   7.090  2.7664  0.3028  1.7570
  108OSM    C1210987   5.353   5.387   6.953  0.4230  0.3678 -0.0063
  108OSM   H12A10988   5.457   5.405   6.930  0.9698  0.5523  2.3876
  108OSM   H12B10989   5.348   5.446   7.043  1.8940 -0.7516  0.8625
  108OSM    C1110990   5.262   5.448   6.843 -0.3864 -0.6927 -0.0547
  108OSM   H11A10991   5.262   5.372   6.762  1.8388 -1.1892  0.3505
  108OSM   H11B10992   5.316   5.538   6.808  0.4476 -0.8619  0.7604
  108OSM      P10993   5.013   5.442   6.797 -0.1691 -0.2640 -0.0802
  108OSM    O1310994   4.965   5.303   6.821 -0.2537 -0.5006  0.3524
  108OSM    O1410995   4.913   5.547   6.811 -0.4698 -0.1086  0.0008
  108OSM    O1110996   5.068   5.452   6.652  0.0470  0.0721  0.6605
  108OSM    O1210997   5.132   5.474   6.897 -0.2715 -0.3487 -0.5140
  108OSM    C1S10998   5.024   5.538   6.549  0.5574 -0.0622  0.3523
  108OSM    H1S10999   5.037   5.643   6.582 -2.4762  0.9864 -1.3487
  108OSM    H1T11000   4.915   5.527   6.531  0.1201  3.1590  0.5640
  108OSM     NF11001   5.045   5.624   6.333 -0.0886  0.0404 -0.3398
  108OSM    HNF11002   4.964   5.595   6.282  0.4025 -3.0776  0.4199
  108OSM    C2S11003   5.099   5.525   6.414  0.9339 -0.6458 -0.7841
  108OSM    H2S11004   5.200   5.559   6.447  0.6507 -1.1114  0.6271
  108OSM    C3S11005   5.115   5.375   6.374  0.5456  0.1147  0.2925
  108OSM    H3S11006   5.017   5.333   6.343  0.4784  1.3673 -1.3233
  108OSM     O311007   5.153   5.286   6.479 -0.0706 -0.2315 -0.0901
  108OSM    HO311008   5.127   5.331   6.560 -2.6735 -1.1700 -0.3028
  108OSM    C4S11009   5.213   5.370   6.257  0.2321  0.0139 -0.4869
  108OSM    H4S11010   5.301   5.435   6.267 -0.3085  0.5741  0.8400
  108OSM    C5S11011   5.190   5.315   6.137 -0.1582  0.2592  0.7196
  108OSM    H5S11012   5.102   5.252   6.116  1.9694 -2.3694 -0.9719
  108OSM    C6S11013   5.299   5.315   6.028 -0.0143  0.4396 -0.0660
  108OSM    H6S11014   5.258   5.285   5.930  0.2186 -0.9643  0.2501
  108OSM    H6T11015   5.374   5.236   6.046  0.6270  0.4886 -2.3309
  108OSM    C7S11016   5.372   5.453   6.008  0.3085  0.3665  0.3351
  108OSM    H7S11017   5.426   5.485   6.099  0.1591 -1.1074  0.9663
  108OSM    H7T11018   5.298   5.533   5.986  0.0455  0.3519  1.1537
  108OSM    C8S11019   5.464   5.459   5.889  0.2359 -0.2471 -0.3851
  108OSM    H8S11020   5.413   5.424   5.796  0.7418  0.2186 -0.8481
  108OSM    H8T11021   5.542   5.384   5.916 -0.4372 -0.5830  0.6803
  108OSM    C9S11022   5.519   5.601   5.858 -0.3611 -0.3004  0.4340
  108OSM    H9S11023   5.543   5.647   5.956  0.4272  0.5653 -0.1430
  108OSM    H9T11024   5.431   5.653   5.814 -0.3691  0.1096  0.9363
  108OSM   C10S11025   5.637   5.602   5.763  0.4665  0.2133 -0.5333
  108OSM   H10S11026   5.723   5.553   5.814  0.8863  1.5611  0.0940
  108OSM   H10T11027   5.660   5.709   5.749  2.1902  0.1650  1.4565
  108OSM   C11S11028   5.622   5.551   5.620  0.2030  0.0375 -0.1262
  108OSM   H11S11029   5.554   5.627   5.575  2.9102  3.2358  0.7953
  108OSM   H11T11030   5.583   5.447   5.622  1.4718 -0.5149 -2.0824
  108OSM   C12S11031   5.759   5.548   5.550  0.1306  0.3818 -0.5629
  108OSM   H12S11032   5.817   5.478   5.614 -0.9616  0.0707  0.1225
  108OSM   H12T11033   5.810   5.646   5.561  2.5815 -0.7859 -0.8571
  108OSM   C13S11034   5.755   5.484   5.410  0.8729  0.1351 -1.0002
  108OSM   H13S11035   5.697   5.390   5.412  0.8916  0.1238 -0.9853
  108OSM   H13T11036   5.859   5.460   5.378  0.9521 -1.0523  0.0746
  108OSM   C14S11037   5.686   5.575   5.305  0.4328 -0.7968 -0.4153
  108OSM   H14S11038   5.730   5.676   5.285 -1.7027 -0.3406 -3.5889
  108OSM   H14T11039   5.582   5.602   5.333  0.0968 -2.0111 -0.4423
  108OSM   C15S11040   5.681   5.507   5.164  0.4265  0.1786 -0.2835
  108OSM   H15S11041   5.605   5.553   5.096 -0.3623  0.9567  1.0655
  108OSM   H15T11042   5.657   5.399   5.175 -0.7866  0.6590  2.7526
  108OSM   C16S11043   5.811   5.519   5.088 -0.3019  0.0623  0.1993
  108OSM   H16S11044   5.890   5.490   5.160  0.9078  5.4419  1.5075
  108OSM   H16T11045   5.827   5.625   5.060  1.2446 -0.5468 -1.3383
  108OSM   C17S11046   5.827   5.427   4.962 -0.4827  1.0373  0.8306
  108OSM   H17S11047   5.825   5.321   4.995 -2.8061  0.9451  0.5184
  108OSM   H17T11048   5.922   5.449   4.907 -0.7648 -2.1295 -1.1913
  108OSM   C18S11049   5.721   5.442   4.853 -0.4022 -0.1065  0.2065
  108OSM   H18S11050   5.622   5.467   4.898  1.1433  2.4910  2.5105
  108OSM   H18T11051   5.709   5.357   4.783  0.0322  1.5714 -2.0044
  108OSM   H18U11052   5.753   5.525   4.785  0.5796  0.4176  1.2767
  108OSM    C1F11053   5.070   5.752   6.360  0.2079  0.8126 -0.2528
  108OSM     OF11054   5.172   5.790   6.415  0.3473 -0.4528  0.1147
  108OSM    C2F11055   4.963   5.844   6.325  0.0709 -0.0975 -0.1041
  108OSM    H2F11056   4.944   5.907   6.415  1.1613  1.4859 -0.9374
  108OSM    H2G11057   4.870   5.791   6.297 -1.1312  1.9717 -0.2794
  108OSM    C3F11058   5.005   5.943   6.216 -0.0588 -0.3906 -0.6412
  108OSM    H3F11059   5.104   5.992   6.228 -0.0746 -0.3480 -0.6807
  108OSM    H3G11060   4.930   6.025   6.212 -1.6410 -1.8165 -1.6451
  108OSM    C4F11061   5.004   5.868   6.079  0.2235 -0.5790 -0.5021
  108OSM    H4F11062   4.910   5.812   6.060 -0.9465  1.1313  0.0167
  108OSM    H4G11063   5.088   5.796   6.086  1.0012  0.3171 -0.5028
  108OSM    C5F11064   5.024   5.964   5.961  0.5936  0.1206 -0.2182
  108OSM    H5F11065   5.090   6.045   5.999  0.1698  1.7555 -2.6553
  108OSM    H5G11066   4.929   6.015   5.933 -0.8450 -1.6767  1.2031
  108OSM    C6F11067   5.096   5.901   5.839  0.8500 -0.2435 -1.6879
  108OSM    H6F11068   5.166   5.823   5.876 -1.0620 -1.9432 -1.5056
  108OSM    H6G11069   5.156   5.979   5.786  1.0130 -0.1010 -1.2961
  108OSM    C7F11070   5.003   5.851   5.727 -0.0739 -0.1414  1.1398
  108OSM    H7F11071   4.928   5.927   5.696 -0.0784  0.2418  2.0538
  108OSM    H7G11072   4.953   5.754   5.746  2.1456 -1.8333 -1.0579
  108OSM    C8F11073   5.077   5.815   5.595 -0.2026  0.0625  0.1673
  108OSM    H8F11074   5.117   5.907   5.547 -1.6276  0.6648  0.0706
  108OSM    H8G11075   4.995   5.791   5.523  0.8179  0.4664 -1.1670
  108OSM    C9F11076   5.174   5.702   5.601 -0.5839 -0.1048 -0.1608
  108OSM    H9F11077   5.234   5.684   5.691  0.1651 -1.6592 -0.9318
  108OSM   C10F11078   5.233   5.641   5.491  0.0294 -0.4881 -0.7114
  108OSM   H10F11079   5.298   5.555   5.511  2.0006  1.2552  0.8992
  108OSM   C11F11080   5.194   5.664   5.353 -0.3599  0.3229  0.6096
  108OSM   H11F11081   5.196   5.773   5.331 -0.9267 -0.0087 -1.2174
  108OSM   H11G11082   5.086   5.643   5.336 -0.0230 -0.8069 -0.1909
  108OSM   C12F11083   5.283   5.582   5.247  0.2157  0.4553 -0.4603
  108OSM   H12F11084   5.282   5.476   5.277 -2.4776  0.8293  1.0311
  108OSM   H12G11085   5.383   5.632   5.256  1.1766 -1.6648  1.5204
  108OSM   C13F11086   5.248   5.599   5.101  0.7970 -0.2008  0.8746
  108OSM   H13F11087   5.299   5.693   5.071  1.7596 -0.5715  1.3164
  108OSM   H13G11088   5.138   5.615   5.100  0.9644  1.3410  2.2287
  108OSM   C14F11089   5.273   5.479   5.022 -0.1796 -0.2747 -0.0022
  108OSM   H14F11090   5.210   5.398   5.066 -0.4050  0.8613  1.8690
  108OSM   H14G11091   5.376   5.442   5.040 -0.5187 -1.0991  0.2994
  108OSM   C15F11092   5.268   5.503   4.868 -0.3512  0.2628 -0.3403
  108OSM   H15F11093   5.343   5.584   4.858  2.9496 -2.1532  2.4846
  108OSM   H15G11094   5.163   5.532   4.844 -0.2084 -0.1849 -1.5601
  108OSM   C16F11095   5.297   5.379   4.779 -0.0255 -0.0925 -0.0076
  108OSM   H16F11096   5.384   5.327   4.825 -1.3246 -0.3785  2.2513
  108OSM   H16G11097   5.337   5.412   4.681  0.8781 -0.3930  0.2460
  108OSM   C17F11098   5.177   5.284   4.769  0.0325  0.9449  0.0462
  108OSM   H17F11099   5.092   5.343   4.728  1.5373  1.3720 -2.6595
  108OSM   H17G11100   5.155   5.247   4.871 -1.3186 -0.8916 -0.8350
  108OSM   C18F11101   5.204   5.186   4.658  0.6181  0.2993  0.1928
  108OSM   H18F11102   5.229   5.231   4.559  2.4159 -1.8377 -0.3970
  108OSM   H18G11103   5.117   5.118   4.650  0.1012  0.9779 -0.0341
  108OSM   H18H11104   5.294   5.125   4.683  1.6668  2.0356  0.8774
  109OSM      N11105   1.511   0.840   7.098 -0.3425  0.3150 -0.3469
  109OSM    C1511106   1.475   0.719   7.188  0.1989 -0.6896 -0.7392
  109OSM   H15A11107   1.454   0.752   7.288  1.3226 -2.3658  0.0970
  109OSM   H15B11108   1.550   0.641   7.176  0.5377 -0.4794 -0.0287
  109OSM   H15C11109   1.381   0.678   7.156 -0.3694 -0.4643  0.6214
  109OSM    C1411110   1.400   0.940   7.096 -0.3875 -0.2493 -0.4284
  109OSM   H14A11111   1.430   1.012   7.022  3.3173 -0.5499  0.5709
  109OSM   H14B11112   1.378   0.988   7.191 -0.4608  1.5961 -1.3320
  109OSM   H14C11113   1.312   0.892   7.055  0.1570 -0.3794 -1.4611
  109OSM    C1311114   1.623   0.907   7.159  0.0454 -0.1702  0.3142
  109OSM   H13A11115   1.710   0.847   7.184  0.6526 -0.1711 -1.6019
  109OSM   H13B11116   1.595   0.950   7.254 -0.0775 -2.6943  1.5067
  109OSM   H13C11117   1.652   0.994   7.102 -0.1820 -0.4245 -0.2008
  109OSM    C1211118   1.533   0.795   6.951 -0.0971 -0.0896 -0.1853
  109OSM   H12A11119   1.433   0.758   6.931 -0.3817 -0.6429  2.0596
  109OSM   H12B11120   1.604   0.715   6.942 -0.8151 -0.7863  0.2336
  109OSM    C1111121   1.576   0.912   6.853 -0.4717  0.9851  0.1016
  109OSM   H11A11122   1.502   0.995   6.848  0.6097  2.0473  0.9740
  109OSM   H11B11123   1.575   0.860   6.755 -2.0672  1.6962 -0.2904
  109OSM      P11124   1.761   1.076   6.822  0.2273 -0.3497  0.3960
  109OSM    O1311125   1.692   1.197   6.872 -0.2475 -0.5650  0.3169
  109OSM    O1411126   1.910   1.081   6.833 -0.4216 -0.7589 -0.5321
  109OSM    O1111127   1.722   1.054   6.673 -0.3347  0.4979 -0.5474
  109OSM    O1211128   1.705   0.949   6.892  0.1631  0.3411 -0.1458
  109OSM    C1S11129   1.771   1.132   6.567 -0.5486  0.2632 -0.1077
  109OSM    H1S11130   1.881   1.146   6.565 -0.6770  1.4688  0.3606
  109OSM    H1T11131   1.734   1.236   6.579  1.1252  0.7316  1.6800
  109OSM     NF11132   1.782   1.135   6.317 -0.3436  0.3987 -0.2804
  109OSM    HNF11133   1.740   1.205   6.260 -1.8746 -0.7760 -0.6786
  109OSM    C2S11134   1.713   1.076   6.433  0.2048 -0.5724  0.2425
  109OSM    H2S11135   1.734   0.967   6.435  0.2511 -0.6163 -1.3340
  109OSM    C3S11136   1.557   1.088   6.418  0.5029  0.8202 -1.3704
  109OSM    H3S11137   1.533   1.184   6.368 -1.1637  1.5684  0.6873
  109OSM     O311138   1.485   1.102   6.547 -0.3128 -0.6083  0.1651
  109OSM    HO311139   1.556   1.111   6.611 -0.0175 -0.1072 -0.2328
  109OSM    C4S11140   1.488   0.975   6.340  0.2666  0.9953  0.1255
  109OSM    H4S11141   1.474   0.879   6.391 -2.8460  1.2434 -0.1050
  109OSM    C5S11142   1.429   0.991   6.219  0.7345  0.5684 -0.0029
  109OSM    H5S11143   1.419   1.089   6.171  0.3057  0.3005 -0.4772
  109OSM    C6S11144   1.353   0.882   6.147  0.6175  0.4708 -0.4869
  109OSM    H6S11145   1.264   0.939   6.113  0.7982  2.8123  2.5905
  109OSM    H6T11146   1.317   0.799   6.212 -0.4577  0.4932 -1.0278
  109OSM    C7S11147   1.415   0.818   6.022 -0.0702  0.5201 -0.2864
  109OSM    H7S11148   1.526   0.816   6.032 -0.1107  0.9945  0.2908
  109OSM    H7T11149   1.386   0.876   5.932 -0.4207  0.5719 -0.1409
  109OSM    C8S11150   1.350   0.681   6.012  0.4844 -0.9237 -0.7327
  109OSM    H8S11151   1.239   0.694   6.011  0.4103 -1.5521 -1.1056
  109OSM    H8T11152   1.365   0.632   6.111 -0.5550  1.7680  0.8628
  109OSM    C9S11153   1.396   0.602   5.890  0.0865 -0.3692 -0.3518
  109OSM    H9S11154   1.367   0.495   5.898  3.0183 -1.1487  1.1620
  109OSM    H9T11155   1.506   0.619   5.887  0.4124 -1.0281  3.2014
  109OSM   C10S11156   1.320   0.653   5.764  0.0207  0.1953  0.3651
  109OSM   H10S11157   1.334   0.763   5.755 -1.5844  0.5331  1.5539
  109OSM   H10T11158   1.216   0.621   5.789 -0.1334 -0.0327 -0.5367
  109OSM   C11S11159   1.362   0.593   5.632 -0.2213  0.7536 -0.2547
  109OSM   H11S11160   1.310   0.496   5.621  2.5967 -0.8710 -0.1473
  109OSM   H11T11161   1.464   0.550   5.623 -0.6317 -0.3060  0.0017
  109OSM   C12S11162   1.335   0.675   5.498 -0.1979 -0.0452  0.1709
  109OSM   H12S11163   1.385   0.774   5.494 -0.8729  0.2539 -1.1068
  109OSM   H12T11164   1.226   0.693   5.491 -0.7505 -1.4303  3.2297
  109OSM   C13S11165   1.378   0.596   5.373  0.3206  0.1672 -0.3310
  109OSM   H13S11166   1.332   0.634   5.280  1.9371  0.5138 -1.0254
  109OSM   H13T11167   1.338   0.493   5.384 -0.3944  0.6531  2.5458
  109OSM   C14S11168   1.532   0.588   5.354  0.9426 -0.4640  0.2295
  109OSM   H14S11169   1.548   0.526   5.263 -0.5901 -0.6307  0.0442
  109OSM   H14T11170   1.587   0.542   5.439  1.3087  0.8616  0.7282
  109OSM   C15S11171   1.593   0.728   5.338  0.8482 -0.5346 -0.6524
  109OSM   H15S11172   1.580   0.791   5.429 -0.1255 -3.3990  1.3110
  109OSM   H15T11173   1.548   0.780   5.251  0.3115 -3.0727 -1.9583
  109OSM   C16S11174   1.746   0.725   5.323  0.2583 -0.3562  0.7508
  109OSM   H16S11175   1.794   0.693   5.418  0.5931 -2.3068 -0.0297
  109OSM   H16T11176   1.791   0.826   5.314  0.4120 -0.4820  0.0888
  109OSM   C17S11177   1.789   0.640   5.203 -0.4305 -0.5200 -0.4226
  109OSM   H17S11178   1.745   0.662   5.104  0.1500 -0.7478 -0.7359
  109OSM   H17T11179   1.772   0.531   5.220  2.6020 -0.7188  2.2411
  109OSM   C18S11180   1.941   0.658   5.178  0.3388  0.3465  0.2710
  109OSM   H18S11181   2.005   0.600   5.248 -0.1493  0.8793  1.1650
  109OSM   H18T11182   1.970   0.765   5.181 -2.6495  1.4428 -3.1280
  109OSM   H18U11183   1.979   0.619   5.081 -1.8000  1.0006 -0.8799
  109OSM    C1F11184   1.907   1.105   6.299  0.7589  0.1054  0.0161
  109OSM     OF11185   1.967   1.023   6.367  0.2164  0.1043  0.1681
  109OSM    C2F11186   1.973   1.177   6.187 -0.2801 -0.1984 -0.0265
  109OSM    H2F11187   1.976   1.286   6.206  1.8364 -0.2832  0.3673
  109OSM    H2G11188   1.915   1.156   6.095  0.5321 -1.2994 -0.3193
  109OSM    C3F11189   2.115   1.116   6.157 -0.5291 -0.1287 -0.0866
  109OSM    H3F11190   2.107   1.006   6.163  2.5280 -0.5122 -1.2072
  109OSM    H3G11191   2.194   1.145   6.229  0.0025 -1.8448  0.0635
  109OSM    C4F11192   2.164   1.158   6.023 -0.9522 -0.4041  0.1913
  109OSM    H4F11193   2.171   1.269   6.018  0.9218 -0.4634  0.5351
  109OSM    H4G11194   2.094   1.127   5.942  1.5549 -1.4743 -1.7219
  109OSM    C5F11195   2.298   1.101   5.980 -0.2367  0.5424  0.3746
  109OSM    H5F11196   2.292   0.991   5.969 -1.2505  0.5545  0.7352
  109OSM    H5G11197   2.368   1.124   6.063 -0.2979  0.6355  0.4012
  109OSM    C6F11198   2.355   1.164   5.850  0.1770 -0.3557 -0.8840
  109OSM    H6F11199   2.281   1.150   5.769 -0.2483 -0.2872 -0.5084
  109OSM    H6G11200   2.452   1.122   5.816 -0.0587 -0.6872 -1.1492
  109OSM    C7F11201   2.408   1.308   5.864  0.4728 -0.2164 -0.0501
  109OSM    H7F11202   2.504   1.299   5.919  0.3725  1.2032  0.3972
  109OSM    H7G11203   2.334   1.374   5.912  0.7601 -0.1115  0.2509
  109OSM    C8F11204   2.445   1.378   5.730 -0.3203 -0.6030  0.2150
  109OSM    H8F11205   2.533   1.329   5.685  0.9040  0.2743  1.5757
  109OSM    H8G11206   2.489   1.475   5.759  1.9413 -1.2397 -0.8988
  109OSM    C9F11207   2.334   1.404   5.635 -0.3944 -0.4838 -0.0856
  109OSM    H9F11208   2.277   1.312   5.611  1.3417 -1.3839 -0.9319
  109OSM   C10F11209   2.290   1.522   5.582 -0.4265  0.2329  0.2888
  109OSM   H10F11210   2.195   1.509   5.528 -0.7644 -2.2633  1.3330
  109OSM   C11F11211   2.335   1.661   5.620  0.1552 -0.0544  0.2096
  109OSM   H11F11212   2.418   1.650   5.693  0.9339 -1.4524 -0.8393
  109OSM   H11G11213   2.251   1.711   5.674 -0.1670  0.5467 -0.8014
  109OSM   C12F11214   2.378   1.752   5.507  0.4122 -0.1011 -0.0686
  109OSM   H12F11215   2.485   1.736   5.483  1.1861  3.5665  0.4392
  109OSM   H12G11216   2.374   1.852   5.555  2.0928  0.0011 -0.0861
  109OSM   C13F11217   2.302   1.748   5.376 -0.2176 -0.3525  0.3960
  109OSM   H13F11218   2.333   1.841   5.325 -2.7666  0.2204 -0.2677
  109OSM   H13G11219   2.191   1.755   5.374 -0.2183 -0.5478 -0.4220
  109OSM   C14F11220   2.346   1.639   5.274 -0.5350 -0.0541  0.4596
  109OSM   H14F11221   2.368   1.543   5.325  0.4555  0.1343  0.4128
  109OSM   H14G11222   2.429   1.677   5.211 -1.3457  2.2666  0.6853
  109OSM   C15F11223   2.232   1.598   5.180 -0.2224  0.1802  0.1832
  109OSM   H15F11224   2.140   1.578   5.239 -0.5534 -0.2594 -0.4829
  109OSM   H15G11225   2.258   1.501   5.133  1.4514 -0.5213  2.3726
  109OSM   C16F11226   2.206   1.703   5.074 -0.0482 -0.7701  0.1777
  109OSM   H16F11227   2.177   1.794   5.130  0.8646 -0.6791  0.5249
  109OSM   H16G11228   2.116   1.663   5.022 -1.0449 -1.8127  2.5393
  109OSM   C17F11229   2.313   1.736   4.978 -0.3693 -0.0867 -0.3930
  109OSM   H17F11230   2.356   1.643   4.935 -0.4976  0.1865 -1.1378
  109OSM   H17G11231   2.406   1.778   5.024  0.2941  0.4919 -2.1600
  109OSM   C18F11232   2.284   1.821   4.862  0.1751  0.1752  0.6419
  109OSM   H18F11233   2.240   1.918   4.893 -1.5862  0.0747 -1.3299
  109OSM   H18G11234   2.210   1.771   4.795  0.6978  1.8245 -1.2587
  109OSM   H18H11235   2.372   1.847   4.800  0.7034 -0.2894  1.1833
  110OSM      N11236   4.727   4.409   6.950 -0.0421  0.6317  0.1661
  110OSM    C1511237   4.785   4.435   6.815  0.1973  0.1232 -0.4080
  110OSM   H15A11238   4.809   4.538   6.791 -1.4208  0.5714 -0.2101
  110OSM   H15B11239   4.722   4.415   6.729  1.6681 -0.5770 -1.3553
  110OSM   H15C11240   4.874   4.375   6.809  0.1505 -0.8436  4.6481
  110OSM    C1411241   4.814   4.452   7.065  0.5861  0.4270 -0.1622
  110OSM   H14A11242   4.753   4.475   7.152  0.1435  1.7696 -0.8079
  110OSM   H14B11243   4.870   4.538   7.031 -0.7610  1.1654 -0.5620
  110OSM   H14C11244   4.883   4.372   7.091 -3.7804 -3.4009  1.0107
  110OSM    C1311245   4.595   4.490   6.959 -0.8959  0.2059 -0.5191
  110OSM   H13A11246   4.618   4.594   6.978  0.5521  0.0865 -1.4706
  110OSM   H13B11247   4.545   4.449   7.046 -2.1452 -1.1056 -1.8078
  110OSM   H13C11248   4.527   4.472   6.878 -0.4417  0.4257 -0.9560
  110OSM    C1211249   4.694   4.255   6.957 -0.2542  0.3613 -0.2441
  110OSM   H12A11250   4.615   4.239   6.885 -0.0384 -0.8152 -0.2427
  110OSM   H12B11251   4.643   4.235   7.051 -0.5527 -0.4791 -0.5788
  110OSM    C1111252   4.818   4.165   6.931  0.3709 -0.5058  0.3261
  110OSM   H11A11253   4.789   4.063   6.962 -0.2230  0.5348  3.5538
  110OSM   H11B11254   4.904   4.197   6.994  2.6758 -0.3934 -2.6441
  110OSM      P11255   4.972   4.095   6.730 -0.3162 -0.2552  0.1702
  110OSM    O1311256   5.092   4.187   6.712  0.6184  0.5496 -0.3611
  110OSM    O1411257   4.989   3.968   6.807 -0.1083 -0.3948 -0.1052
  110OSM    O1111258   4.917   4.067   6.583 -0.4980  0.6889 -0.5649
  110OSM    O1211259   4.860   4.176   6.799  0.0365  0.0519  0.3117
  110OSM    C1S11260   4.863   4.166   6.497  0.0688  0.3653  0.2925
  110OSM    H1S11261   4.888   4.272   6.520  4.1764  0.0276 -1.6882
  110OSM    H1T11262   4.754   4.153   6.483  0.2155 -1.0669  0.3487
  110OSM     NF11263   4.910   4.270   6.278  0.0876 -0.3165 -0.8100
  110OSM    HNF11264   4.827   4.274   6.222  0.8745  1.2782 -1.9536
  110OSM    C2S11265   4.927   4.150   6.354 -0.3436  0.0555  0.9096
  110OSM    H2S11266   5.036   4.138   6.368 -0.3117  1.5998  2.2285
  110OSM    C3S11267   4.875   4.014   6.300 -0.4294  0.4060  0.2587
  110OSM    H3S11268   4.765   4.007   6.311 -0.7663  0.9801 -2.1691
  110OSM     O311269   4.931   3.907   6.376 -0.2057  0.0454 -0.4829
  110OSM    HO311270   4.951   3.948   6.460  1.1665  0.9686 -1.2250
  110OSM    C4S11271   4.925   3.995   6.164 -0.1180  0.5243  0.4187
  110OSM    H4S11272   5.032   3.972   6.154 -0.2861 -0.9689  1.7525
  110OSM    C5S11273   4.852   4.003   6.055  0.1093 -0.4612  0.0387
  110OSM    H5S11274   4.749   4.035   6.076  0.3018 -0.0096  0.3226
  110OSM    C6S11275   4.886   3.999   5.903  0.0905  0.3471  0.0517
  110OSM    H6S11276   4.860   3.904   5.851  1.3147  0.7514 -1.3666
  110OSM    H6T11277   4.996   4.003   5.891 -0.0167 -1.2576 -1.9894
  110OSM    C7S11278   4.821   4.114   5.823 -0.6498 -0.5849 -0.6453
  110OSM    H7S11279   4.853   4.215   5.856 -1.9057  0.3423 -2.1119
  110OSM    H7T11280   4.710   4.103   5.826 -0.6082 -0.9580 -0.4992
  110OSM    C8S11281   4.872   4.119   5.673  0.0116 -0.5306  0.0976
  110OSM    H8S11282   4.978   4.088   5.665 -0.4293 -1.6755 -2.2026
  110OSM    H8T11283   4.853   4.224   5.642  0.1220 -1.0659 -1.9324
  110OSM    C9S11284   4.790   4.024   5.591 -0.2681 -1.2700 -0.0467
  110OSM    H9S11285   4.680   4.034   5.598 -0.2345 -1.7477  1.6403
  110OSM    H9T11286   4.820   3.920   5.616 -1.1208 -1.5626 -0.2164
  110OSM   C10S11287   4.814   4.047   5.435 -0.5099 -0.2605 -0.4539
  110OSM   H10S11288   4.795   3.944   5.399 -2.2178 -0.5755  1.2308
  110OSM   H10T11289   4.924   4.065   5.439  0.2038 -4.0358  0.0091
  110OSM   C11S11290   4.733   4.159   5.368 -0.1456  0.2102  0.8000
  110OSM   H11S11291   4.718   4.245   5.437  1.4828  1.4228 -0.2955
  110OSM   H11T11292   4.629   4.120   5.366  0.0787 -0.4084 -0.9841
  110OSM   C12S11293   4.767   4.205   5.220 -0.0172 -0.0520 -0.7023
  110OSM   H12S11294   4.771   4.118   5.151 -1.3765 -0.1878 -0.6299
  110OSM   H12T11295   4.869   4.250   5.222  0.3541 -0.8996  0.2562
  110OSM   C13S11296   4.671   4.306   5.160  0.4755 -0.4880  0.4088
  110OSM   H13S11297   4.666   4.403   5.215  1.1755  1.3465 -2.5246
  110OSM   H13T11298   4.569   4.262   5.152 -0.2620  1.4670 -3.5472
  110OSM   C14S11299   4.725   4.341   5.021 -0.6093 -0.5951 -0.7341
  110OSM   H14S11300   4.717   4.255   4.951 -1.2109 -0.2110 -1.1566
  110OSM   H14T11301   4.834   4.361   5.030 -0.5394 -1.3337  0.1819
  110OSM   C15S11302   4.658   4.457   4.951  0.0919  0.4951 -1.0796
  110OSM   H15S11303   4.699   4.555   4.983 -0.1030  0.8404 -1.8691
  110OSM   H15T11304   4.548   4.465   4.962  0.1621  1.8280 -1.1968
  110OSM   C16S11305   4.678   4.447   4.793  0.2497 -0.0584 -0.3913
  110OSM   H16S11306   4.630   4.536   4.748 -0.9774 -1.2209 -1.4381
  110OSM   H16T11307   4.626   4.358   4.753 -1.4993  1.3470 -1.3958
  110OSM   C17S11308   4.824   4.446   4.741  0.1486  0.1688 -0.0250
  110OSM   H17S11309   4.879   4.363   4.789  2.2341  1.6332  0.2826
  110OSM   H17T11310   4.874   4.538   4.779  1.6270 -1.1236  1.2993
  110OSM   C18S11311   4.853   4.427   4.589 -0.5222  0.9905 -0.0737
  110OSM   H18S11312   4.815   4.328   4.554  2.4789 -0.5011  0.6163
  110OSM   H18T11313   4.961   4.445   4.569 -0.3788 -0.0404 -0.2489
  110OSM   H18U11314   4.790   4.508   4.546 -1.0380  0.7543  0.2221
  110OSM    C1F11315   4.982   4.387   6.300  0.1664 -0.4117  0.4400
  110OSM     OF11316   5.059   4.399   6.395  0.3173  0.0875  0.4226
  110OSM    C2F11317   4.948   4.502   6.211  0.2454  0.0490  0.6582
  110OSM    H2F11318   4.995   4.599   6.239 -0.3218  0.0381  1.7272
  110OSM    H2G11319   4.837   4.516   6.209 -0.4043 -4.0730 -1.8980
  110OSM    C3F11320   4.985   4.454   6.063 -0.0247  0.3992  0.0806
  110OSM    H3F11321   4.931   4.362   6.035 -0.0432 -0.2349  2.0236
  110OSM    H3G11322   5.094   4.437   6.047 -0.5714 -1.7339 -1.6752
  110OSM    C4F11323   4.944   4.551   5.958  0.1165  0.2713  0.4294
  110OSM    H4F11324   4.991   4.650   5.979 -1.7266  1.0783  0.9120
  110OSM    H4G11325   4.835   4.565   5.967  0.1133  2.2496 -1.5250
  110OSM    C5F11326   4.964   4.496   5.819 -0.4509  0.1289  0.6403
  110OSM    H5F11327   4.889   4.416   5.805  2.3385 -2.3401 -1.6857
  110OSM    H5G11328   5.066   4.453   5.807 -0.3261  1.0494 -2.7105
  110OSM    C6F11329   4.956   4.598   5.707 -0.6486  0.0809  0.2197
  110OSM    H6F11330   5.053   4.653   5.706 -0.4961 -0.1852  0.3306
  110OSM    H6G11331   4.873   4.670   5.722 -0.7387 -0.0823  0.4920
  110OSM    C7F11332   4.937   4.535   5.569  0.7685  0.1509 -0.2310
  110OSM    H7F11333   4.840   4.480   5.574  1.1720 -0.6056 -0.4916
  110OSM    H7G11334   5.003   4.448   5.548 -3.1690 -2.6978 -2.1356
  110OSM    C8F11335   4.942   4.636   5.455  0.0534  0.2695 -0.2976
  110OSM    H8F11336   5.046   4.675   5.453 -0.0313  0.5390  0.3166
  110OSM    H8G11337   4.877   4.719   5.487  1.5568  1.4071 -0.0589
  110OSM    C9F11338   4.898   4.583   5.322  0.0570 -0.4534  0.0654
  110OSM    H9F11339   4.839   4.491   5.329 -1.0235  0.2116 -0.1157
  110OSM   C10F11340   4.945   4.631   5.205 -0.2254 -0.0355  0.0826
  110OSM   H10F11341   4.908   4.597   5.107  1.1356  0.2811 -0.5666
  110OSM   C11F11342   5.021   4.755   5.189  0.1913 -0.2214  0.0157
  110OSM   H11F11343   5.121   4.739   5.144 -0.2943 -0.1967 -1.1054
  110OSM   H11G11344   5.036   4.806   5.287 -2.7738 -1.0232  1.0035
  110OSM   C12F11345   4.954   4.859   5.093 -0.2487  0.1623  0.6022
  110OSM   H12F11346   5.002   4.958   5.102  2.2252 -1.0616  2.0626
  110OSM   H12G11347   4.849   4.869   5.131  0.3789  0.1088  2.4827
  110OSM   C13F11348   4.945   4.827   4.947  0.3263 -0.6613  0.0712
  110OSM   H13F11349   4.856   4.762   4.930 -0.0950  0.3487 -1.9219
  110OSM   H13G11350   5.037   4.783   4.903  0.5466 -0.2075  0.0737
  110OSM   C14F11351   4.911   4.956   4.862  0.7570  0.1923  0.4978
  110OSM   H14F11352   5.003   5.018   4.861  0.8102  0.1312  1.2765
  110OSM   H14G11353   4.831   5.023   4.900  0.7297  0.4521 -0.0198
  110OSM   C15F11354   4.878   4.912   4.715 -0.1973  0.4338 -0.2567
  110OSM   H15F11355   4.958   4.845   4.678  0.5117  1.9941 -1.6271
  110OSM   H15G11356   4.883   5.006   4.657  0.1496  1.6395  1.6548
  110OSM   C16F11357   4.741   4.847   4.699  0.7145 -1.4225 -0.4669
  110OSM   H16F11358   4.725   4.776   4.782  2.2054  1.2513  2.3316
  110OSM   H16G11359   4.746   4.800   4.598  2.3612  1.0963 -1.6725
  110OSM   C17F11360   4.621   4.947   4.717  0.5103  1.3118  0.6623
  110OSM   H17F11361   4.641   5.028   4.644  0.0348 -1.2534 -2.5786
  110OSM   H17G11362   4.618   4.989   4.820 -0.0567  2.2185  0.2804
  110OSM   C18F11363   4.495   4.888   4.648  0.2750  0.7572 -0.2068
  110OSM   H18F11364   4.470   4.787   4.689  0.9223  0.0796 -1.4284
  110OSM   H18G11365   4.512   4.891   4.538  2.6088  3.5410  0.1265
  110OSM   H18H11366   4.405   4.952   4.659 -0.7476  0.0730 -3.4371
  111OSM      N11367   6.337   3.565   6.673 -0.1463 -0.6159  0.4192
  111OSM    C1511368   6.268   3.672   6.753  0.3258  0.0668  0.2614
  111OSM   H15A11369   6.185   3.642   6.815 -1.7771  1.3331 -1.8265
  111OSM   H15B11370   6.217   3.735   6.683 -0.3872 -2.7847 -1.9705
  111OSM   H15C11371   6.338   3.734   6.807  1.0430  1.7698 -2.4458
  111OSM    C1411372   6.452   3.626   6.601 -0.1459 -0.5149 -0.8337
  111OSM   H14A11373   6.517   3.548   6.564  0.4348 -0.2208 -0.4341
  111OSM   H14B11374   6.499   3.695   6.669 -0.1823  0.4715 -1.7835
  111OSM   H14C11375   6.423   3.680   6.512  1.4188  0.0950 -0.9946
  111OSM    C1311376   6.397   3.459   6.766 -0.1417  0.1838  0.2475
  111OSM   H13A11377   6.456   3.504   6.845  1.0509 -1.2121  0.2079
  111OSM   H13B11378   6.461   3.395   6.707 -1.6112 -0.9863 -0.1309
  111OSM   H13C11379   6.324   3.391   6.807  1.1186 -0.6715  1.1688
  111OSM    C1211380   6.240   3.490   6.580 -0.5491 -0.3292 -0.4014
  111OSM   H12A11381   6.160   3.554   6.546  0.2023  1.6525  1.3465
  111OSM   H12B11382   6.188   3.410   6.632 -1.4069 -0.3262 -1.2199
  111OSM    C1111383   6.305   3.424   6.459  0.1356  0.4331  0.3031
  111OSM   H11A11384   6.350   3.504   6.396  3.2654 -2.3150 -1.2715
  111OSM   H11B11385   6.235   3.375   6.388  0.6111  0.9370 -0.5402
  111OSM      P11386   6.530   3.307   6.446 -0.2542  0.1551 -0.4003
  111OSM    O1311387   6.635   3.387   6.513  0.0731  0.0519 -0.3459
  111OSM    O1411388   6.541   3.160   6.450 -0.1693  0.2672 -0.0102
  111OSM    O1111389   6.513   3.343   6.292  0.0306  0.1874 -1.0971
  111OSM    O1211390   6.393   3.327   6.516  0.8945  0.4803  0.3887
  111OSM    C1S11391   6.499   3.235   6.199 -0.1975  0.8554  0.1598
  111OSM    H1S11392   6.416   3.164   6.220 -1.3893  1.2776 -2.7334
  111OSM    H1T11393   6.593   3.176   6.191 -0.8442 -0.1819  0.0760
  111OSM     NF11394   6.454   3.176   5.960 -0.6892  0.4440 -0.0119
  111OSM    HNF11395   6.536   3.162   5.905 -1.4927  1.4317 -1.5182
  111OSM    C2S11396   6.453   3.286   6.059  0.1426 -0.3347  0.0678
  111OSM    H2S11397   6.345   3.311   6.060  0.1210 -0.3728 -0.6824
  111OSM    C3S11398   6.525   3.415   6.015  0.0527 -0.9622 -0.0792
  111OSM    H3S11399   6.634   3.395   6.023  0.1535  0.3104  3.2276
  111OSM     O311400   6.500   3.523   6.106  0.3451 -0.3446  0.7664
  111OSM    HO311401   6.474   3.473   6.184 -0.2724 -0.9896  0.1593
  111OSM    C4S11402   6.487   3.451   5.876 -0.4879 -0.9467  0.2738
  111OSM    H4S11403   6.390   3.500   5.861  0.2652  0.7680  0.7173
  111OSM    C5S11404   6.560   3.418   5.764  0.2729  0.7487 -0.4688
  111OSM    H5S11405   6.651   3.357   5.775 -1.1622 -1.0765  2.2349
  111OSM    C6S11406   6.533   3.453   5.617  0.4355  0.3932  0.1420
  111OSM    H6S11407   6.618   3.514   5.580  0.3372  0.5355  0.1504
  111OSM    H6T11408   6.440   3.512   5.606  1.1591  1.2605 -1.9902
  111OSM    C7S11409   6.525   3.333   5.519 -0.2945  0.6821 -0.1092
  111OSM    H7S11410   6.460   3.264   5.575  1.4465 -1.7968 -0.9868
  111OSM    H7T11411   6.622   3.278   5.519 -0.0195  1.1486 -0.9041
  111OSM    C8S11412   6.472   3.352   5.378  0.2819 -0.2749 -0.5164
  111OSM    H8S11413   6.389   3.425   5.394 -0.4288 -0.7913 -1.6844
  111OSM    H8T11414   6.423   3.268   5.324 -1.1310 -0.4691  0.9831
  111OSM    C9S11415   6.583   3.400   5.287  0.1856  0.0631 -0.3698
  111OSM    H9S11416   6.675   3.346   5.315  0.1466  0.6050  0.8608
  111OSM    H9T11417   6.603   3.509   5.281  5.7594 -0.6358  0.3789
  111OSM   C10S11418   6.567   3.343   5.141  0.2055 -0.3037  0.6521
  111OSM   H10S11419   6.484   3.391   5.085 -0.5137  1.1328  2.8365
  111OSM   H10T11420   6.534   3.236   5.139 -1.2577  0.0396  2.7336
  111OSM   C11S11421   6.707   3.346   5.071  0.0483  0.2700 -0.4026
  111OSM   H11S11422   6.780   3.289   5.131 -0.4362  1.1651  1.0799
  111OSM   H11T11423   6.744   3.451   5.074 -1.0567  0.6908 -0.8323
  111OSM   C12S11424   6.707   3.293   4.926 -0.2974  0.3869 -0.0150
  111OSM   H12S11425   6.614   3.328   4.876 -0.4174 -0.7824 -0.6189
  111OSM   H12T11426   6.694   3.183   4.931  1.2116  0.1835 -0.1700
  111OSM   C13S11427   6.834   3.318   4.854 -0.3476  0.2983  0.5138
  111OSM   H13S11428   6.922   3.279   4.910  0.0808  0.0526 -0.3146
  111OSM   H13T11429   6.852   3.428   4.847 -1.7094  0.4916 -0.0868
  111OSM   C14S11430   6.833   3.253   4.716 -0.1028 -0.0312  0.5351
  111OSM   H14S11431   6.805   3.146   4.728 -1.4532  0.2989  0.5223
  111OSM   H14T11432   6.931   3.250   4.665 -0.1333  1.3596  0.3494
  111OSM   C15S11433   6.731   3.319   4.618  0.0188 -0.1767  1.0441
  111OSM   H15S11434   6.766   3.421   4.592 -0.1712  0.0648  1.7278
  111OSM   H15T11435   6.637   3.337   4.674 -0.1386  0.1386  0.6843
  111OSM   C16S11436   6.702   3.238   4.493  0.3804  0.5841  0.0831
  111OSM   H16S11437   6.614   3.270   4.432 -1.0487  0.1729  1.8550
  111OSM   H16T11438   6.673   3.136   4.525 -0.9319  0.8547 -0.1899
  111OSM   C17S11439   6.821   3.238   4.400 -0.6316  0.0437  0.2909
  111OSM   H17S11440   6.914   3.190   4.436 -0.6906  0.7880  1.4941
  111OSM   H17T11441   6.856   3.343   4.387  0.6860 -0.5662 -1.5547
  111OSM   C18S11442   6.772   3.184   4.265  0.5089  0.1006  0.1019
  111OSM   H18S11443   6.704   3.254   4.212 -0.6281  0.2520  1.6941
  111OSM   H18T11444   6.721   3.085   4.260  0.6217  0.0816 -0.7753
  111OSM   H18U11445   6.869   3.173   4.213  0.4897 -0.8788  0.2444
  111OSM    C1F11446   6.371   3.074   5.976  0.4146 -0.4141 -0.7812
  111OSM     OF11447   6.274   3.079   6.050 -0.2867  0.2772 -0.1051
  111OSM    C2F11448   6.388   2.963   5.876  0.3494 -0.1924 -0.0668
  111OSM    H2F11449   6.339   2.869   5.909 -0.1364  0.4538  1.1090
  111OSM    H2G11450   6.491   2.922   5.867  0.7911  0.4530  1.5656
  111OSM    C3F11451   6.329   2.998   5.741  0.2496 -0.0213 -0.2302
  111OSM    H3F11452   6.371   3.095   5.706 -1.3303  0.1030 -1.9184
  111OSM    H3G11453   6.221   3.012   5.761  0.0286 -1.1314 -0.6095
  111OSM    C4F11454   6.355   2.898   5.632 -0.3501 -0.2525 -0.4496
  111OSM    H4F11455   6.291   2.808   5.636  0.2883 -0.7218 -0.5064
  111OSM    H4G11456   6.459   2.859   5.621 -0.3235  0.2904 -2.6143
  111OSM    C5F11457   6.310   2.957   5.499 -0.2127 -0.3982 -0.2284
  111OSM    H5F11458   6.376   3.044   5.477 -1.0992  1.8470  4.5955
  111OSM    H5G11459   6.206   2.996   5.504 -0.3790 -0.8351 -0.2567
  111OSM    C6F11460   6.325   2.870   5.374  0.0491 -0.0232 -0.3657
  111OSM    H6F11461   6.265   2.920   5.296  0.1796 -0.0201 -0.4642
  111OSM    H6G11462   6.279   2.772   5.402 -3.2506  0.9931 -1.7909
  111OSM    C7F11463   6.463   2.862   5.314  0.4218  0.1254 -0.4436
  111OSM    H7F11464   6.527   2.795   5.374  1.3856  0.8107 -0.6847
  111OSM    H7G11465   6.510   2.962   5.325  1.1232 -0.2246 -0.2447
  111OSM    C8F11466   6.472   2.819   5.165 -0.1466  0.6481 -0.0956
  111OSM    H8F11467   6.452   2.710   5.164  0.5920  0.5127 -0.3741
  111OSM    H8G11468   6.574   2.825   5.123  0.0914 -2.0472 -0.0281
  111OSM    C9F11469   6.386   2.894   5.068  0.6595 -0.2058 -0.5286
  111OSM    H9F11470   6.418   2.996   5.043 -0.9293  0.5018  0.1589
  111OSM   C10F11471   6.285   2.835   4.994 -0.1274 -0.3395 -0.4166
  111OSM   H10F11472   6.219   2.902   4.937 -3.3293 -2.3278  0.6765
  111OSM   C11F11473   6.244   2.690   4.995 -0.7642 -0.5268  0.4586
  111OSM   H11F11474   6.191   2.664   5.089 -1.5187  0.5549  0.3595
  111OSM   H11G11475   6.332   2.623   4.990 -1.4983 -1.4606 -0.0923
  111OSM   C12F11476   6.156   2.641   4.876  0.4236  0.0865  0.3479
  111OSM   H12F11477   6.068   2.709   4.865 -1.2989 -1.7442  2.1069
  111OSM   H12G11478   6.120   2.537   4.893 -1.3268  0.6515  0.3149
  111OSM   C13F11479   6.226   2.625   4.739 -0.0496  0.3202 -0.1143
  111OSM   H13F11480   6.271   2.723   4.712 -2.1014  0.4657 -3.6585
  111OSM   H13G11481   6.147   2.603   4.664 -1.1912  2.5363  0.3516
  111OSM   C14F11482   6.328   2.518   4.727  0.1411  0.0159 -1.2953
  111OSM   H14F11483   6.278   2.419   4.734  3.8374 -2.2503 -3.4447
  111OSM   H14G11484   6.409   2.529   4.802 -1.0733 -0.4795  0.1276
  111OSM   C15F11485   6.389   2.500   4.583  0.5987  0.4823  0.0389
  111OSM   H15F11486   6.305   2.481   4.514  0.9357 -1.4207  0.1047
  111OSM   H15G11487   6.445   2.405   4.586  2.0074  1.2940  0.8910
  111OSM   C16F11488   6.471   2.620   4.532 -0.0131 -0.7148 -0.1039
  111OSM   H16F11489   6.558   2.657   4.591 -0.7749  0.6406  0.2026
  111OSM   H16G11490   6.406   2.710   4.532  1.4455  0.4419  2.4021
  111OSM   C17F11491   6.519   2.595   4.394 -0.4367  0.4716 -0.2816
  111OSM   H17F11492   6.429   2.573   4.333 -0.2434 -0.9180 -0.1042
  111OSM   H17G11493   6.582   2.504   4.389 -2.2703 -1.1488  2.8070
  111OSM   C18F11494   6.601   2.709   4.330  0.1064  0.3053  0.4242
  111OSM   H18F11495   6.545   2.805   4.339 -0.6972  0.0690 -1.6267
  111OSM   H18G11496   6.630   2.692   4.224 -0.8842  2.7667 -0.3124
  111OSM   H18H11497   6.696   2.731   4.384 -1.0287  3.4091  1.3575
  112OSM      N11498   2.715   6.591   6.869 -0.3086 -0.1316 -0.8883
  112OSM    C1511499   2.772   6.718   6.918 -0.2940 -0.0486  0.1178
  112OSM   H15A11500   2.705   6.769   6.986 -0.2668 -0.6755  0.6197
  112OSM   H15B11501   2.800   6.787   6.839 -0.3575  2.3567  2.0751
  112OSM   H15C11502   2.868   6.700   6.963 -0.4849 -1.6071 -0.0652
  112OSM    C1411503   2.787   6.541   6.749 -0.9091  0.3436  0.0865
  112OSM   H14A11504   2.894   6.544   6.762 -0.6490 -2.0743 -0.9020
  112OSM   H14B11505   2.759   6.602   6.664 -2.7847  0.7297  0.9232
  112OSM   H14C11506   2.759   6.438   6.734  2.0189 -0.4183 -0.7855
  112OSM    C1311507   2.720   6.486   6.982  0.1814 -0.2438  0.4724
  112OSM   H13A11508   2.695   6.531   7.077  0.9225  1.9794 -0.3260
  112OSM   H13B11509   2.822   6.453   6.989  0.0350 -0.5224  1.3921
  112OSM   H13C11510   2.656   6.401   6.963 -1.2254  0.8997 -0.0765
  112OSM    C1211511   2.566   6.617   6.836  0.5640 -0.8376  0.1669
  112OSM   H12A11512   2.520   6.665   6.921  0.3763  0.8163 -0.8292
  112OSM   H12B11513   2.509   6.525   6.837  0.0697 -0.5455  2.1337
  112OSM    C1111514   2.542   6.714   6.717 -0.8585 -0.0552  0.6780
  112OSM   H11A11515   2.439   6.683   6.688 -2.2115  3.0111  1.6769
  112OSM   H11B11516   2.606   6.710   6.627 -0.6425  1.6414  0.7162
  112OSM      P11517   2.423   6.925   6.826 -0.7126  0.4047  0.3433
  112OSM    O1311518   2.344   6.837   6.912  0.4950  0.5157  0.5467
  112OSM    O1411519   2.471   7.051   6.888  0.0820  0.0727  0.0206
  112OSM    O1111520   2.326   6.954   6.704 -0.4274 -0.0221  0.1270
  112OSM    O1211521   2.543   6.851   6.764 -0.0729 -0.2305  0.2178
  112OSM    C1S11522   2.338   7.065   6.619 -0.6920  0.5834 -0.2781
  112OSM    H1S11523   2.415   7.138   6.653  0.1086  0.6816 -2.1694
  112OSM    H1T11524   2.250   7.133   6.619 -0.5282  0.8050  0.8722
  112OSM     NF11525   2.390   7.148   6.396 -0.2452  0.1859  0.1251
  112OSM    HNF11526   2.308   7.186   6.354 -0.4975  1.2987  1.5576
  112OSM    C2S11527   2.374   7.026   6.480  0.4512  0.1013  0.8890
  112OSM    H2S11528   2.469   6.968   6.481  0.0313 -0.8395 -2.2696
  112OSM    C3S11529   2.263   6.933   6.424  0.6669 -0.2843  0.0635
  112OSM    H3S11530   2.171   6.993   6.414 -0.1050 -1.3984  0.3293
  112OSM     O311531   2.233   6.809   6.494 -0.1470 -0.4720  0.5799
  112OSM    HO311532   2.274   6.816   6.580 -0.6097  0.7801  0.7284
  112OSM    C4S11533   2.304   6.902   6.286 -0.3359 -0.3373  0.3838
  112OSM    H4S11534   2.245   6.967   6.220 -1.7130 -1.9536 -0.0336
  112OSM    C5S11535   2.384   6.811   6.237  0.9464  0.2080  0.2777
  112OSM    H5S11536   2.435   6.748   6.312  2.1136  1.5842  0.6949
  112OSM    C6S11537   2.412   6.797   6.092 -0.1485  0.1384  0.4908
  112OSM    H6S11538   2.521   6.778   6.081  0.0055  1.4104 -0.4246
  112OSM    H6T11539   2.408   6.893   6.036  0.0864 -1.2641 -2.1160
  112OSM    C7S11540   2.327   6.694   6.014 -0.4022  0.2837 -0.8013
  112OSM    H7S11541   2.220   6.716   6.032 -0.3198 -0.3605  0.6293
  112OSM    H7T11542   2.324   6.595   6.065 -1.6368  1.0596  0.7380
  112OSM    C8S11543   2.358   6.704   5.868 -0.5938 -0.3760  0.4005
  112OSM    H8S11544   2.352   6.809   5.834 -3.8711 -0.5173  0.2466
  112OSM    H8T11545   2.284   6.633   5.826  1.2135 -2.3215  0.3155
  112OSM    C9S11546   2.499   6.639   5.831  0.6374 -0.4241  0.4414
  112OSM    H9S11547   2.501   6.536   5.874  2.1017 -0.8526 -0.5705
  112OSM    H9T11548   2.579   6.694   5.884  0.5215  0.7266 -0.5550
  112OSM   C10S11549   2.520   6.623   5.680 -0.6170 -0.4764 -0.0456
  112OSM   H10S11550   2.508   6.729   5.647  2.6117 -0.5891 -2.0611
  112OSM   H10T11551   2.448   6.552   5.634  0.1147 -2.2200  1.3983
  112OSM   C11S11552   2.662   6.575   5.636 -0.0259 -0.1357 -0.2906
  112OSM   H11S11553   2.683   6.473   5.675 -1.8343 -0.2768  0.4033
  112OSM   H11T11554   2.730   6.642   5.693 -1.2321  2.3059 -1.5302
  112OSM   C12S11555   2.689   6.589   5.491 -0.3669  0.2405  0.3790
  112OSM   H12S11556   2.797   6.572   5.477 -0.4630  0.8399 -1.3139
  112OSM   H12T11557   2.677   6.696   5.465  1.8048  0.8220  1.5480
  112OSM   C13S11558   2.617   6.496   5.396 -0.6630 -0.2089 -0.1080
  112OSM   H13S11559   2.507   6.494   5.404 -0.6711 -1.4197 -0.3313
  112OSM   H13T11560   2.657   6.394   5.416 -0.9621 -0.8545 -2.4531
  112OSM   C14S11561   2.645   6.522   5.249 -0.3467  0.2730  0.2668
  112OSM   H14S11562   2.753   6.523   5.225 -0.5655 -0.4166 -0.8239
  112OSM   H14T11563   2.608   6.623   5.221  0.1223  0.2281 -0.5401
  112OSM   C15S11564   2.574   6.426   5.161  1.3655 -0.0961  0.0985
  112OSM   H15S11565   2.470   6.411   5.196  1.2673  2.8456  1.3502
  112OSM   H15T11566   2.619   6.325   5.164 -0.5985 -1.0795 -1.4696
  112OSM   C16S11567   2.553   6.466   5.015 -0.7072 -0.0534 -0.1228
  112OSM   H16S11568   2.493   6.560   5.016 -1.7734 -0.7184  0.4743
  112OSM   H16T11569   2.502   6.386   4.958  1.3844 -1.3337 -0.2996
  112OSM   C17S11570   2.688   6.499   4.947 -0.2361 -0.3047 -0.1206
  112OSM   H17S11571   2.745   6.404   4.957  0.6948  0.1713 -0.7724
  112OSM   H17T11572   2.733   6.578   5.011  0.7254 -0.0484 -1.0794
  112OSM   C18S11573   2.674   6.558   4.806  0.5442 -0.1164  0.1624
  112OSM   H18S11574   2.607   6.509   4.733  1.1861 -0.3356 -0.2839
  112OSM   H18T11575   2.772   6.549   4.756 -0.6772 -1.8573 -2.0903
  112OSM   H18U11576   2.640   6.664   4.815 -1.1569 -0.6187  0.0441
  112OSM    C1F11577   2.502   7.218   6.399  0.1556  0.2911 -0.1547
  112OSM     OF11578   2.597   7.184   6.474 -0.0668 -0.0754 -1.2063
  112OSM    C2F11579   2.514   7.340   6.319 -0.3576  0.4242  0.1043
  112OSM    H2F11580   2.565   7.412   6.386  0.6308 -1.9033  2.0088
  112OSM    H2G11581   2.409   7.370   6.298 -0.4890  0.6712  1.0686
  112OSM    C3F11582   2.593   7.313   6.184  0.3843  0.7561 -0.5347
  112OSM    H3F11583   2.700   7.298   6.210  0.2370  0.9941  0.2554
  112OSM    H3G11584   2.577   7.409   6.129 -1.0074  0.1175 -1.2877
  112OSM    C4F11585   2.540   7.203   6.087  0.3299  0.8456 -0.5015
  112OSM    H4F11586   2.432   7.210   6.063  0.4568  0.5531 -1.1611
  112OSM    H4G11587   2.556   7.103   6.132 -1.4501  0.4518 -0.6617
  112OSM    C5F11588   2.621   7.200   5.964 -1.4281 -0.3992  0.7316
  112OSM    H5F11589   2.726   7.177   5.994 -1.2931 -0.2985  0.3505
  112OSM    H5G11590   2.619   7.300   5.915 -5.7630  0.4120  2.1121
  112OSM    C6F11591   2.576   7.089   5.864 -1.1363 -0.0370 -0.6443
  112OSM    H6F11592   2.553   6.996   5.921 -0.2194 -1.3396 -2.3125
  112OSM    H6G11593   2.668   7.078   5.802 -0.6135  1.6360 -0.1971
  112OSM    C7F11594   2.455   7.139   5.779 -0.1792 -0.0614  0.3645
  112OSM    H7F11595   2.439   7.247   5.795 -0.7509 -0.5510  4.0319
  112OSM    H7G11596   2.357   7.105   5.819 -0.2508 -1.2081 -0.7168
  112OSM    C8F11597   2.481   7.109   5.634 -0.1347  0.2882  0.6765
  112OSM    H8F11598   2.399   7.126   5.562  0.5429 -2.2328 -0.7929
  112OSM    H8G11599   2.498   7.001   5.650 -1.0506  0.4559  3.3983
  112OSM    C9F11600   2.602   7.175   5.587  0.3110 -0.0800  0.0858
  112OSM    H9F11601   2.610   7.285   5.592  0.6936 -0.1404  0.8789
  112OSM   C10F11602   2.712   7.115   5.532 -1.1319  0.6016  0.5983
  112OSM   H10F11603   2.793   7.183   5.499  0.7933 -0.4963  2.8230
  112OSM   C11F11604   2.754   6.969   5.517  0.4315 -0.6863 -0.4417
  112OSM   H11F11605   2.733   6.942   5.411 -1.1184 -2.4119  0.2545
  112OSM   H11G11606   2.689   6.905   5.580 -0.7429 -0.1356 -1.0716
  112OSM   C12F11607   2.893   6.923   5.558  0.2091  0.0053 -0.7782
  112OSM   H12F11608   2.966   6.961   5.483  0.1967  0.0223 -0.7817
  112OSM   H12G11609   2.889   6.812   5.566  0.8553 -0.1600 -2.3593
  112OSM   C13F11610   2.938   6.967   5.698 -0.4030 -0.9725 -0.0702
  112OSM   H13F11611   2.892   6.899   5.773  0.9222 -4.6444 -2.3307
  112OSM   H13G11612   2.905   7.070   5.721 -1.9068 -0.4309 -3.8702
  112OSM   C14F11613   3.087   6.966   5.719 -0.8679  0.4884 -0.1793
  112OSM   H14F11614   3.115   7.006   5.819 -0.3382  1.8551 -0.8530
  112OSM   H14G11615   3.128   7.039   5.647  2.2059  1.6137  2.4577
  112OSM   C15F11616   3.159   6.826   5.694 -0.2644  0.0630 -0.0074
  112OSM   H15F11617   3.157   6.811   5.584  0.3815  1.4044 -0.2229
  112OSM   H15G11618   3.120   6.742   5.754  1.6082 -0.8795 -0.0472
  112OSM   C16F11619   3.310   6.832   5.726 -0.2104 -0.0423  0.5082
  112OSM   H16F11620   3.329   6.866   5.830  1.0247  0.7981  0.0251
  112OSM   H16G11621   3.349   6.918   5.668  0.4859  0.8615  2.2614
  112OSM   C17F11622   3.387   6.715   5.674 -0.8163 -0.0041  0.2192
  112OSM   H17F11623   3.497   6.730   5.678 -0.7444 -0.7949  2.2546
  112OSM   H17G11624   3.364   6.699   5.566  0.2152 -0.6073  0.0786
  112OSM   C18F11625   3.361   6.595   5.758  0.1286 -0.4491 -0.0051
  112OSM   H18F11626   3.360   6.614   5.867 -1.0028  3.3593 -0.5440
  112OSM   H18G11627   3.440   6.520   5.737 -1.0099 -1.0129 -2.8199
  112OSM   H18H11628   3.267   6.543   5.728 -0.5593  1.2271 -0.8960
  113OSM      N11629   0.204   1.250   6.719 -0.4073  0.4800  0.0440
  113OSM    C1511630   0.070   1.227   6.783  0.5083  0.5830  0.3907
  113OSM   H15A11631   0.003   1.294   6.730  1.6130 -0.2597 -2.2432
  113OSM   H15B11632   0.066   1.269   6.882  2.0860  2.0496 -0.1101
  113OSM   H15C11633   0.027   1.130   6.764  0.6939  0.9343 -2.2440
  113OSM    C1411634   0.248   1.383   6.754 -0.1633 -0.3328  0.0855
  113OSM   H14A11635   0.355   1.395   6.746  0.3410 -1.0090  3.9118
  113OSM   H14B11636   0.226   1.410   6.856 -2.1938 -3.0442  0.4846
  113OSM   H14C11637   0.208   1.461   6.691  2.5936  1.5682  0.5128
  113OSM    C1311638   0.310   1.143   6.770 -0.5030 -0.3128 -0.0982
  113OSM   H13A11639   0.405   1.148   6.719 -0.5618 -0.5699 -0.2402
  113OSM   H13B11640   0.270   1.044   6.754  0.9051 -0.7616 -1.1246
  113OSM   H13C11641   0.339   1.150   6.873 -0.7725  1.4511 -0.1153
  113OSM    C1211642   0.199   1.234   6.572 -0.0158 -0.1900  0.1917
  113OSM   H12A11643   0.195   1.130   6.541 -2.0248  0.0071 -0.3969
  113OSM   H12B11644   0.290   1.277   6.533 -0.1900  2.7568  2.6942
  113OSM    C1111645   0.085   1.297   6.489 -0.8124 -0.5266  0.0907
  113OSM   H11A11646  -0.005   1.233   6.492 -0.2440 -1.3121  1.0528
  113OSM   H11B11647   0.116   1.307   6.383 -1.2205  1.3906  0.1083
  113OSM      P11648  -0.082   1.491   6.562  0.0917 -0.5310 -0.0780
  113OSM    O1311649  -0.169   1.418   6.655 -0.8380  0.5801  0.2082
  113OSM    O1411650  -0.077   1.636   6.581 -0.4097 -0.2018 -0.3036
  113OSM    O1111651  -0.145   1.465   6.417 -0.1066  0.0915  0.4722
  113OSM    O1211652   0.061   1.431   6.541 -0.9481 -0.0402 -0.0873
  113OSM    C1S11653  -0.081   1.540   6.312 -0.2464 -0.1858 -0.4051
  113OSM    H1S11654   0.013   1.596   6.333 -1.7842  1.7288  2.0172
  113OSM    H1T11655  -0.145   1.624   6.275  2.3592  2.8496  1.4617
  113OSM     NF11656   0.034   1.494   6.092 -0.3936 -0.3686  0.1800
  113OSM    HNF11657   0.006   1.516   5.999  1.1377 -0.8844 -0.4357
  113OSM    C2S11658  -0.065   1.445   6.191  1.1677  0.2192 -0.4833
  113OSM    H2S11659  -0.021   1.349   6.226  1.9088  0.0847 -1.7326
  113OSM    C3S11660  -0.205   1.421   6.133 -0.2028 -0.1506 -0.0813
  113OSM    H3S11661  -0.244   1.523   6.117  1.3440  0.6787  1.1901
  113OSM     O311662  -0.301   1.368   6.226 -0.0085  0.4224 -0.1576
  113OSM    HO311663  -0.247   1.362   6.305 -0.1860 -3.0370 -0.1676
  113OSM    C4S11664  -0.196   1.339   6.009  0.1014  0.3348  0.5628
  113OSM    H4S11665  -0.180   1.398   5.918  1.1808 -1.0234 -0.1615
  113OSM    C5S11666  -0.201   1.199   5.997 -0.4263  0.9583 -0.1934
  113OSM    H5S11667  -0.224   1.132   6.081  0.6138 -0.3578 -0.9179
  113OSM    C6S11668  -0.192   1.112   5.869 -0.4444 -0.4657  0.0397
  113OSM    H6S11669  -0.281   1.046   5.872  0.2220 -1.4078 -0.5613
  113OSM    H6T11670  -0.098   1.054   5.882 -0.2275 -0.2406 -0.5162
  113OSM    C7S11671  -0.188   1.197   5.742 -0.3195 -1.1766  0.4515
  113OSM    H7S11672  -0.102   1.264   5.724 -0.9898 -0.9774 -2.6411
  113OSM    H7T11673  -0.277   1.263   5.739  0.5735  0.2711  2.8656
  113OSM    C8S11674  -0.182   1.111   5.613  0.1889  0.6593 -0.3341
  113OSM    H8S11675  -0.278   1.067   5.579  0.8519 -1.1536  0.0304
  113OSM    H8T11676  -0.119   1.031   5.659  0.7053  2.4231  2.2322
  113OSM    C9S11677  -0.118   1.188   5.499 -0.1303  0.6381  0.2096
  113OSM    H9S11678  -0.015   1.225   5.519 -0.0741  1.7692 -1.9189
  113OSM    H9T11679  -0.176   1.274   5.458 -2.4114 -1.5981 -1.5436
  113OSM   C10S11680  -0.109   1.093   5.373  0.0299 -0.3725  0.0143
  113OSM   H10S11681  -0.213   1.058   5.359 -0.5956  1.4864 -0.3533
  113OSM   H10T11682  -0.037   1.013   5.402 -0.0048  0.5017  2.8547
  113OSM   C11S11683  -0.074   1.162   5.237 -0.2015 -0.0829  0.0420
  113OSM   H11S11684   0.033   1.192   5.243 -0.7063  2.0829 -0.9269
  113OSM   H11T11685  -0.129   1.259   5.235  1.6616  1.0147 -1.2192
  113OSM   C12S11686  -0.093   1.086   5.107  0.6197 -0.1466  0.6105
  113OSM   H12S11687  -0.201   1.079   5.085  0.4546 -0.6466  1.5374
  113OSM   H12T11688  -0.048   0.985   5.117  0.8630 -0.0097  0.9207
  113OSM   C13S11689  -0.028   1.163   4.985  1.0385  1.1618  0.0802
  113OSM   H13S11690   0.082   1.172   4.998  1.0351  1.6897 -0.2218
  113OSM   H13T11691  -0.073   1.264   4.985 -1.2759  0.1910 -0.3523
  113OSM   C14S11692  -0.066   1.102   4.846  0.1825  0.4418  0.1359
  113OSM   H14S11693  -0.175   1.108   4.829  0.2452  2.9816  0.1408
  113OSM   H14T11694  -0.031   0.997   4.844  0.0574  0.3998  0.1768
  113OSM   C15S11695   0.016   1.172   4.731  0.1624 -0.1833 -0.6938
  113OSM   H15S11696   0.125   1.180   4.749  0.3367  0.0796 -1.8075
  113OSM   H15T11697  -0.025   1.274   4.721  0.2578 -0.1098 -0.3307
  113OSM   C16S11698   0.020   1.092   4.602  0.6656 -0.0416  0.0344
  113OSM   H16S11699   0.080   1.001   4.625 -0.5207 -0.8816 -0.1210
  113OSM   H16T11700   0.070   1.165   4.537  2.0795  1.1050  2.2714
  113OSM   C17S11701  -0.115   1.050   4.547  0.4668  0.1318 -0.2997
  113OSM   H17S11702  -0.172   1.146   4.543  1.7617  1.2369  3.3381
  113OSM   H17T11703  -0.161   0.971   4.609 -1.0424  0.5280 -0.8745
  113OSM   C18S11704  -0.114   1.002   4.401 -0.5187  0.4081  0.6793
  113OSM   H18S11705  -0.063   0.904   4.389 -1.1686  0.3150 -1.7327
  113OSM   H18T11706  -0.062   1.084   4.347  0.3428 -0.5777 -0.0437
  113OSM   H18U11707  -0.217   0.992   4.361 -0.2508 -1.6724  0.3883
  113OSM    C1F11708   0.162   1.512   6.111 -1.3945 -0.4553  0.2721
  113OSM     OF11709   0.217   1.484   6.218  0.6954 -0.1729 -0.1697
  113OSM    C2F11710   0.246   1.562   5.998 -0.8954 -0.5165 -0.2774
  113OSM    H2F11711   0.232   1.672   6.001 -3.0877 -0.7467 -0.5687
  113OSM    H2G11712   0.215   1.519   5.901  1.1824  0.0950 -1.2560
  113OSM    C3F11713   0.394   1.520   6.019 -0.3797  0.1830  0.2405
  113OSM    H3F11714   0.384   1.410   6.035 -2.3995 -0.0372 -2.0043
  113OSM    H3G11715   0.433   1.551   6.119  0.4559  0.6774 -0.2331
  113OSM    C4F11716   0.478   1.567   5.905 -0.2365  0.1563  0.0731
  113OSM    H4F11717   0.451   1.674   5.906 -1.9546 -0.2335 -1.2408
  113OSM    H4G11718   0.433   1.516   5.817 -0.7493 -0.8378  0.9013
  113OSM    C5F11719   0.631   1.545   5.905 -0.0879 -0.2878 -0.4777
  113OSM    H5F11720   0.653   1.436   5.895 -1.5528 -0.9157  2.2010
  113OSM    H5G11721   0.666   1.589   6.000 -0.7750 -2.1768  0.7208
  113OSM    C6F11722   0.705   1.613   5.788 -0.8157  0.0409  0.6364
  113OSM    H6F11723   0.816   1.611   5.791 -0.7658  1.0453  0.0318
  113OSM    H6G11724   0.679   1.721   5.792 -1.4066  0.0162 -1.3446
  113OSM    C7F11725   0.657   1.555   5.655  0.1492  0.1708  0.5773
  113OSM    H7F11726   0.548   1.574   5.648  0.3365  0.5090 -3.0927
  113OSM    H7G11727   0.671   1.445   5.649  0.8770  0.2256  1.1156
  113OSM    C8F11728   0.713   1.618   5.523  0.4277  0.5988  0.5530
  113OSM    H8F11729   0.702   1.728   5.535  0.6481  0.7695 -0.6284
  113OSM    H8G11730   0.642   1.600   5.439  2.0093  0.8623 -0.8774
  113OSM    C9F11731   0.857   1.574   5.492  0.0879  0.1749 -0.1668
  113OSM    H9F11732   0.942   1.608   5.553  0.4169  0.3361 -0.7097
  113OSM   C10F11733   0.886   1.477   5.402 -0.0053  0.0266  0.3165
  113OSM   H10F11734   0.993   1.451   5.396  0.2418  1.0332  0.0485
  113OSM   C11F11735   0.780   1.419   5.301 -0.4895  0.5951  0.4972
  113OSM   H11F11736   0.687   1.479   5.287 -0.6414  0.6772  1.6994
  113OSM   H11G11737   0.743   1.318   5.331  0.5110 -0.0334 -0.3457
  113OSM   C12F11738   0.841   1.398   5.162  0.0217  0.1001 -0.7325
  113OSM   H12F11739   0.763   1.338   5.112 -0.2169 -0.3197  0.1269
  113OSM   H12G11740   0.928   1.328   5.158 -0.1695 -0.0966 -1.8258
  113OSM   C13F11741   0.863   1.533   5.083 -0.5176 -0.2776  0.3214
  113OSM   H13F11742   0.927   1.595   5.149 -0.0199  1.3504 -1.5826
  113OSM   H13G11743   0.768   1.588   5.066 -1.8007 -2.6014 -0.4391
  113OSM   C14F11744   0.941   1.513   4.950 -0.6251  0.2983 -0.6444
  113OSM   H14F11745   0.880   1.446   4.886 -1.2364 -0.5326  0.7876
  113OSM   H14G11746   1.036   1.460   4.973 -0.0975  1.5834  0.2917
  113OSM   C15F11747   0.969   1.637   4.872 -0.2197 -0.0027 -0.0520
  113OSM   H15F11748   1.025   1.714   4.929 -1.6366 -0.4865  2.1330
  113OSM   H15G11749   0.868   1.679   4.853  0.0772  1.1074  0.6526
  113OSM   C16F11750   1.058   1.604   4.752 -0.3938  0.6848  0.2154
  113OSM   H16F11751   0.998   1.546   4.678 -1.8448  1.3427  0.8401
  113OSM   H16G11752   1.136   1.527   4.773 -2.1605 -1.7799 -1.6364
  113OSM   C17F11753   1.121   1.719   4.674 -0.4219  0.4176  0.4677
  113OSM   H17F11754   1.193   1.681   4.598 -2.0457  0.8030 -1.3552
  113OSM   H17G11755   1.177   1.774   4.753 -1.5026  2.0768  0.1380
  113OSM   C18F11756   1.017   1.827   4.627 -0.0813 -0.2823 -0.1366
  113OSM   H18F11757   0.960   1.863   4.716  0.0725  2.3139 -0.9878
  113OSM   H18G11758   0.953   1.794   4.543 -1.0046 -3.5964  1.6734
  113OSM   H18H11759   1.081   1.909   4.588 -0.3691  1.0892  2.1201
  114OSM      N11760   5.993   6.326   6.502  0.7666 -0.7096  0.6676
  114OSM    C1511761   6.089   6.229   6.445  0.5945  0.1355  0.1686
  114OSM   H15A11762   6.092   6.254   6.340 -0.3663  1.4965  0.4363
  114OSM   H15B11763   6.067   6.124   6.458  0.8603  0.1359  0.6363
  114OSM   H15C11764   6.188   6.245   6.484  0.3632  1.1965  0.3670
  114OSM    C1411765   5.864   6.312   6.439 -0.6759  0.0062 -0.2615
  114OSM   H14A11766   5.786   6.340   6.509  0.2101  1.1185  0.3107
  114OSM   H14B11767   5.856   6.208   6.410 -0.6074 -0.2568  0.6098
  114OSM   H14C11768   5.851   6.373   6.351 -1.3686 -0.5179 -0.5359
  114OSM    C1311769   5.972   6.292   6.647  0.5616  1.3527 -0.3089
  114OSM   H13A11770   6.052   6.335   6.706  1.7914 -0.2864 -0.7161
  114OSM   H13B11771   5.980   6.184   6.647  2.4907  1.4343  1.0061
  114OSM   H13C11772   5.876   6.324   6.683 -0.0887 -0.3789 -0.3930
  114OSM    C1211773   6.033   6.474   6.498 -0.1707 -0.2163 -0.1450
  114OSM   H12A11774   6.111   6.492   6.569 -0.8022  2.5234 -0.0358
  114OSM   H12B11775   5.952   6.532   6.539  0.5081  1.5910 -1.2183
  114OSM    C1111776   6.081   6.527   6.351 -0.7050 -0.3323 -0.4242
  114OSM   H11A11777   6.098   6.637   6.348 -1.6321 -0.1947 -0.8527
  114OSM   H11B11778   5.989   6.514   6.291 -1.6002  3.0561  0.0465
  114OSM      P11779   6.333   6.468   6.361 -0.0182  0.1440  0.4531
  114OSM    O1311780   6.322   6.460   6.505  0.5015  0.1442  0.1200
  114OSM    O1411781   6.426   6.371   6.300 -0.1736 -0.0563 -0.2319
  114OSM    O1111782   6.385   6.608   6.319  0.1192  0.2599  0.3347
  114OSM    O1211783   6.188   6.454   6.289 -0.2270 -0.2043  0.4027
  114OSM    C1S11784   6.388   6.636   6.171  0.3586  0.8409  0.1261
  114OSM    H1S11785   6.287   6.675   6.148  0.5099  1.0298 -0.2246
  114OSM    H1T11786   6.407   6.554   6.099 -2.4383  0.6289 -0.4805
  114OSM     NF11787   6.474   6.783   5.987 -0.3286 -0.0538  0.3621
  114OSM    HNF11788   6.548   6.757   5.926  0.9109  0.8108  1.4403
  114OSM    C2S11789   6.486   6.742   6.128 -0.0400  0.2191  0.6668
  114OSM    H2S11790   6.459   6.840   6.171 -1.1923  0.3074 -0.2289
  114OSM    C3S11791   6.635   6.706   6.174  0.5662 -0.5551  0.0447
  114OSM    H3S11792   6.679   6.614   6.131 -0.6027 -2.8479  3.3986
  114OSM     O311793   6.642   6.664   6.310  0.5824 -0.4701 -0.6842
  114OSM    HO311794   6.552   6.656   6.344  0.8300 -1.2861 -0.2011
  114OSM    C4S11795   6.724   6.823   6.148 -0.2397 -0.3289  0.5393
  114OSM    H4S11796   6.776   6.803   6.053  0.2158  0.2312  0.6655
  114OSM    C5S11797   6.735   6.939   6.216 -0.2673  0.4047 -0.0763
  114OSM    H5S11798   6.686   6.950   6.314 -1.7238  0.1141 -0.7352
  114OSM    C6S11799   6.833   7.038   6.176  0.2173  0.0418 -0.2318
  114OSM    H6S11800   6.927   7.011   6.228  2.3367  0.7039 -3.4079
  114OSM    H6T11801   6.804   7.133   6.226 -0.1004 -0.5196  0.6825
  114OSM    C7S11802   6.870   7.051   6.023 -0.4358 -0.2618 -0.4366
  114OSM    H7S11803   6.900   6.950   5.987 -1.0198 -1.1850  1.5210
  114OSM    H7T11804   6.947   7.130   6.010 -1.9028  1.0356 -1.6361
  114OSM    C8S11805   6.751   7.097   5.940 -0.2699  0.3512  0.0580
  114OSM    H8S11806   6.723   7.201   5.967  1.0710  0.5102  0.8894
  114OSM    H8T11807   6.659   7.036   5.958 -1.5067  2.6824  2.3714
  114OSM    C9S11808   6.779   7.091   5.793  0.1270  0.0897  0.2717
  114OSM    H9S11809   6.764   6.984   5.768 -1.2748  0.3389 -0.0559
  114OSM    H9T11810   6.881   7.122   5.761 -0.7330  0.1734 -2.6595
  114OSM   C10S11811   6.678   7.167   5.716  0.0134  0.1969 -0.5734
  114OSM   H10S11812   6.706   7.274   5.722  0.7624 -0.0300  0.2035
  114OSM   H10T11813   6.583   7.160   5.773 -0.3783  0.9325 -1.1176
  114OSM   C11S11814   6.665   7.109   5.578 -0.1498 -0.1248 -0.3242
  114OSM   H11S11815   6.570   7.140   5.529  0.5894 -0.9203 -2.3557
  114OSM   H11T11816   6.670   6.998   5.589  0.6093  0.1097  2.9987
  114OSM   C12S11817   6.775   7.156   5.480 -0.1974 -0.2727  0.0994
  114OSM   H12S11818   6.874   7.120   5.515 -0.9502 -0.7718  1.8852
  114OSM   H12T11819   6.774   7.267   5.487  2.0143 -0.2705  1.6643
  114OSM   C13S11820   6.749   7.103   5.336 -0.7337 -0.1353 -0.1356
  114OSM   H13S11821   6.811   7.160   5.265 -0.4450 -0.0360  0.1957
  114OSM   H13T11822   6.641   7.120   5.315 -0.6295 -0.2690 -0.8100
  114OSM   C14S11823   6.784   6.952   5.322 -0.2330  0.5359  0.4413
  114OSM   H14S11824   6.704   6.882   5.354  0.9819 -0.1975  2.0623
  114OSM   H14T11825   6.865   6.935   5.397  0.1042  0.3313  0.0361
  114OSM   C15S11826   6.845   6.923   5.182 -0.1198  0.1437 -0.1359
  114OSM   H15S11827   6.911   7.005   5.147 -0.0900  0.2394  0.1385
  114OSM   H15T11828   6.758   6.923   5.113  0.1270  2.7352 -0.5223
  114OSM   C16S11829   6.909   6.786   5.164 -0.2558  0.2360 -0.3299
  114OSM   H16S11830   6.838   6.708   5.198 -0.8340  1.2949  1.0129
  114OSM   H16T11831   6.999   6.787   5.230 -1.3371 -0.5677  1.2086
  114OSM   C17S11832   6.962   6.734   5.036  0.5464 -0.1758  0.1111
  114OSM   H17S11833   7.017   6.815   4.985  0.6712  1.6600  2.9388
  114OSM   H17T11834   6.871   6.723   4.972 -1.0904  1.1087  2.0885
  114OSM   C18S11835   7.051   6.614   5.038 -0.8847  0.3437  0.0644
  114OSM   H18S11836   7.144   6.643   5.091  0.2243 -2.9138  0.1291
  114OSM   H18T11837   7.073   6.583   4.934  4.0254  0.3669  0.8673
  114OSM   H18U11838   7.007   6.532   5.099  0.0331  0.2126  0.5627
  114OSM    C1F11839   6.372   6.855   5.939 -0.4339  0.7717 -0.6890
  114OSM     OF11840   6.262   6.865   5.998 -0.2187  0.3092 -0.2544
  114OSM    C2F11841   6.397   6.915   5.809  0.3913  0.1606  0.0370
  114OSM    H2F11842   6.505   6.915   5.786  0.1500 -1.3786 -1.2897
  114OSM    H2G11843   6.360   7.020   5.808  0.0294  0.0320 -0.1642
  114OSM    C3F11844   6.328   6.830   5.698 -0.1366 -0.0928 -0.0236
  114OSM    H3F11845   6.226   6.806   5.734  0.1363  0.9666  1.5283
  114OSM    H3G11846   6.380   6.735   5.670 -2.2338 -2.2400  2.7735
  114OSM    C4F11847   6.324   6.916   5.572 -0.0262 -0.0523  0.4922
  114OSM    H4F11848   6.427   6.943   5.541  0.1471  0.2791  1.3410
  114OSM    H4G11849   6.278   7.015   5.589 -1.8672 -1.0791  1.9538
  114OSM    C5F11850   6.251   6.853   5.452  0.2735 -0.3532  0.3007
  114OSM    H5F11851   6.141   6.844   5.468  0.2105 -1.4318 -0.5913
  114OSM    H5G11852   6.287   6.748   5.458 -0.7259 -0.6459  1.5008
  114OSM    C6F11853   6.287   6.917   5.315  0.3508 -0.3033  0.4416
  114OSM    H6F11854   6.395   6.910   5.290  0.4595 -0.4172  0.9398
  114OSM    H6G11855   6.274   7.026   5.328  0.5584 -0.4137  1.6717
  114OSM    C7F11856   6.192   6.879   5.208  0.0899 -0.8715 -0.3038
  114OSM    H7F11857   6.094   6.929   5.216 -0.4755 -2.1143  1.0441
  114OSM    H7G11858   6.179   6.769   5.224  0.3672 -0.7575  0.7849
  114OSM    C8F11859   6.246   6.907   5.065  0.4488 -0.2273 -0.1085
  114OSM    H8F11860   6.303   7.002   5.066  0.3600 -0.1552 -1.3330
  114OSM    H8G11861   6.155   6.925   5.003 -0.0835 -1.1386  0.3775
  114OSM    C9F11862   6.326   6.795   5.010  0.1666  0.0014  0.0305
  114OSM    H9F11863   6.281   6.698   5.035 -0.8605  0.7666  1.3339
  114OSM   C10F11864   6.454   6.801   4.958 -0.1468 -0.2728 -0.4502
  114OSM   H10F11865   6.503   6.710   4.921 -0.2261 -0.1584 -0.8478
  114OSM   C11F11866   6.530   6.930   4.925  0.0558  0.0822  0.5594
  114OSM   H11F11867   6.634   6.931   4.961  0.4216  3.7862 -0.1506
  114OSM   H11G11868   6.481   7.017   4.975  0.3129  0.4282  0.2206
  114OSM   C12F11869   6.530   6.958   4.779 -0.0247  1.1644  0.2523
  114OSM   H12F11870   6.568   6.871   4.722  1.2477  0.1859  2.5065
  114OSM   H12G11871   6.596   7.046   4.764  0.6924  0.3345 -1.7524
  114OSM   C13F11872   6.391   6.985   4.722 -0.2673 -0.2481  0.0170
  114OSM   H13F11873   6.371   7.082   4.773 -0.9277  0.4365 -1.4828
  114OSM   H13G11874   6.330   6.900   4.759 -0.6189  1.0822  2.7435
  114OSM   C14F11875   6.383   7.005   4.570 -0.2803 -0.8134 -0.6623
  114OSM   H14F11876   6.279   7.029   4.540 -0.4378  2.0092  1.7354
  114OSM   H14G11877   6.421   6.915   4.515  2.3797 -0.1882 -0.0166
  114OSM   C15F11878   6.469   7.129   4.521  0.1400 -0.8456 -0.9380
  114OSM   H15F11879   6.575   7.107   4.543  1.0954  4.2350  0.9769
  114OSM   H15G11880   6.441   7.215   4.586 -2.3930 -2.9961  1.0087
  114OSM   C16F11881   6.459   7.169   4.372 -0.0351  0.1895 -0.1767
  114OSM   H16F11882   6.439   7.077   4.314  4.4565 -0.0785 -1.7232
  114OSM   H16G11883   6.556   7.208   4.335  0.2887 -1.8872 -1.7131
  114OSM   C17F11884   6.348   7.266   4.332 -0.0946  0.0298 -0.6455
  114OSM   H17F11885   6.253   7.214   4.358 -0.7916  1.3756 -0.4338
  114OSM   H17G11886   6.357   7.286   4.223 -1.2669  0.2173 -0.7154
  114OSM   C18F11887   6.345   7.410   4.394  0.2676 -0.1644 -0.6715
  114OSM   H18F11888   6.317   7.403   4.502  2.1314  1.2608 -0.0428
  114OSM   H18G11889   6.264   7.470   4.347 -2.0103 -1.7449  1.0349
  114OSM   H18H11890   6.440   7.468   4.385  1.0627 -1.1984  0.6610
  115OSM      N11891   6.225   2.916   7.142  0.6198 -0.7742  0.5019
  115OSM    C1511892   6.114   2.987   7.211  0.0595 -0.4353 -0.2064
  115OSM   H15A11893   6.105   2.985   7.318 -1.3647  1.6762 -0.2167
  115OSM   H15B11894   6.021   2.963   7.160 -0.2998 -0.0479  0.2611
  115OSM   H15C11895   6.126   3.092   7.186  2.0718 -0.9845 -1.8706
  115OSM    C1411896   6.351   2.970   7.192 -0.8667 -0.3037  0.0300
  115OSM   H14A11897   6.370   2.954   7.297  2.6971  2.4775 -0.0254
  115OSM   H14B11898   6.354   3.077   7.185 -0.0661 -0.0411  2.9610
  115OSM   H14C11899   6.441   2.931   7.148  0.6071  1.6165  1.1949
  115OSM    C1311900   6.221   2.773   7.176 -0.0798  0.1173  0.2326
  115OSM   H13A11901   6.230   2.762   7.283 -1.0595  0.1067  0.3271
  115OSM   H13B11902   6.291   2.708   7.126 -1.4104 -1.9295  0.9130
  115OSM   H13C11903   6.121   2.738   7.153 -0.3275 -1.2917  2.9933
  115OSM    C1211904   6.206   2.944   6.988  0.1055  0.1619 -0.1859
  115OSM   H12A11905   6.282   2.900   6.926 -1.1500  0.4282 -2.0252
  115OSM   H12B11906   6.221   3.050   6.968 -1.5378  0.0172 -2.6611
  115OSM    C1111907   6.070   2.902   6.915  0.0704  0.6502 -0.6272
  115OSM   H11A11908   6.062   2.791   6.918  1.1242  0.5071 -2.0680
  115OSM   H11B11909   6.077   2.951   6.815  1.6180  1.1291 -0.3009
  115OSM      P11910   5.808   2.935   6.932 -0.3076 -0.5869 -0.3033
  115OSM    O1311911   5.735   2.854   7.032  0.5489  0.2774 -0.4845
  115OSM    O1411912   5.748   3.071   6.905 -0.0607  0.7450 -0.3538
  115OSM    O1111913   5.821   2.855   6.804  0.1572 -0.6707 -0.3088
  115OSM    O1211914   5.958   2.960   6.987  0.1792 -0.1872 -0.1667
  115OSM    C1S11915   5.721   2.771   6.744 -0.5599  0.2895  0.0452
  115OSM    H1S11916   5.621   2.775   6.793 -0.5483 -1.3677  0.2435
  115OSM    H1T11917   5.748   2.664   6.758 -0.7150  0.0482 -1.3205
  115OSM     NF11918   5.607   2.726   6.529 -0.6126 -0.1672 -0.0423
  115OSM    HNF11919   5.633   2.648   6.472  2.1851  0.6743 -0.0811
  115OSM    C2S11920   5.715   2.801   6.590 -0.2147  0.0610 -0.0230
  115OSM    H2S11921   5.695   2.910   6.581 -0.5554  0.1192  1.2259
  115OSM    C3S11922   5.845   2.765   6.522  0.6940  0.1202  0.0676
  115OSM    H3S11923   5.872   2.660   6.545 -0.5822 -0.8687 -2.5800
  115OSM     O311924   5.959   2.836   6.572  0.1601 -0.6745 -0.3772
  115OSM    HO311925   5.918   2.857   6.656 -2.0516  1.6298 -1.8536
  115OSM    C4S11926   5.840   2.772   6.370  0.5558 -0.1620  0.1577
  115OSM    H4S11927   5.826   2.673   6.326 -0.3590  0.1168 -0.2021
  115OSM    C5S11928   5.842   2.886   6.304 -0.3334 -0.3859  0.2260
  115OSM    H5S11929   5.839   2.986   6.350 -0.3520 -0.1637 -0.2566
  115OSM    C6S11930   5.820   2.901   6.151 -0.1350 -0.1954 -0.4157
  115OSM    H6S11931   5.919   2.906   6.102  0.5053  1.9466  0.9788
  115OSM    H6T11932   5.773   2.999   6.129  2.2256  0.7581 -1.4458
  115OSM    C7S11933   5.752   2.787   6.080  0.2155  0.4808 -0.1900
  115OSM    H7S11934   5.650   2.793   6.124 -0.0975 -1.6869 -0.5144
  115OSM    H7T11935   5.803   2.691   6.104 -0.6964 -0.0487 -0.3247
  115OSM    C8S11936   5.755   2.807   5.930  0.1079  0.5708 -0.6436
  115OSM    H8S11937   5.839   2.744   5.894 -0.0363  0.0184 -0.0442
  115OSM    H8T11938   5.764   2.916   5.916 -0.3961  0.9080  1.3746
  115OSM    C9S11939   5.619   2.755   5.877  0.3160  0.5407  0.0469
  115OSM    H9S11940   5.539   2.817   5.924 -0.0772 -0.4808  0.7514
  115OSM    H9T11941   5.599   2.655   5.920  3.6768  0.5965  2.1511
  115OSM   C10S11942   5.616   2.736   5.720  0.2530  0.4710 -0.3855
  115OSM   H10S11943   5.582   2.837   5.686 -5.8647 -1.4727 -1.2905
  115OSM   H10T11944   5.525   2.676   5.699  1.6068 -1.1054 -2.0133
  115OSM   C11S11945   5.739   2.691   5.640 -0.8929 -0.9288  0.3151
  115OSM   H11S11946   5.776   2.593   5.676 -0.7784 -1.2950 -0.7586
  115OSM   H11T11947   5.826   2.759   5.653 -0.4787 -1.1498 -1.0327
  115OSM   C12S11948   5.695   2.689   5.497  1.1681 -0.2895  0.2347
  115OSM   H12S11949   5.683   2.798   5.475 -0.8286 -0.4899  0.1464
  115OSM   H12T11950   5.591   2.651   5.484  1.0854 -0.0339  0.1267
  115OSM   C13S11951   5.780   2.635   5.384  0.9394  0.1843  0.5147
  115OSM   H13S11952   5.811   2.530   5.403  0.4904 -0.4572 -1.9118
  115OSM   H13T11953   5.868   2.703   5.387 -0.0732  1.5678  3.5469
  115OSM   C14S11954   5.729   2.655   5.243 -0.6910 -0.6531 -0.0622
  115OSM   H14S11955   5.708   2.764   5.232  0.4752 -0.4432 -0.2661
  115OSM   H14T11956   5.643   2.601   5.198 -1.0190  0.9014 -1.4103
  115OSM   C15S11957   5.842   2.622   5.142 -0.3653 -0.3358 -0.4280
  115OSM   H15S11958   5.916   2.561   5.198  0.3057  2.8800  2.5862
  115OSM   H15T11959   5.882   2.725   5.131 -0.5152  0.2597  3.2492
  115OSM   C16S11960   5.810   2.555   5.009 -0.4859  0.0839  0.0533
  115OSM   H16S11961   5.767   2.454   5.028  1.1918 -0.5838  0.4683
  115OSM   H16T11962   5.901   2.530   4.950 -1.4580 -2.9708 -0.3424
  115OSM   C17S11963   5.708   2.634   4.921  0.2343  0.0572 -1.0689
  115OSM   H17S11964   5.634   2.681   4.990  0.1193  0.6395 -1.5757
  115OSM   H17T11965   5.654   2.564   4.854  1.1611 -0.9586 -0.7690
  115OSM   C18S11966   5.770   2.751   4.843  0.0448 -0.9276 -0.3221
  115OSM   H18S11967   5.690   2.803   4.787 -0.0258  1.4507  1.8402
  115OSM   H18T11968   5.853   2.720   4.775 -0.3627 -0.1885 -1.1687
  115OSM   H18U11969   5.810   2.829   4.911 -4.2547  1.4095 -0.1869
  115OSM    C1F11970   5.477   2.757   6.557  0.4097 -0.2225 -0.6845
  115OSM     OF11971   5.447   2.835   6.642  0.1901  0.2771  0.0807
  115OSM    C2F11972   5.368   2.692   6.472  0.2101  0.0214  0.3376
  115OSM    H2F11973   5.270   2.705   6.521 -0.2113 -0.9394 -0.2337
  115OSM    H2G11974   5.396   2.585   6.466  0.8918  0.0597  2.0268
  115OSM    C3F11975   5.363   2.765   6.336  0.3440 -0.2219 -0.8160
  115OSM    H3F11976   5.463   2.769   6.287  1.5139 -0.3337  1.4580
  115OSM    H3G11977   5.333   2.870   6.358 -0.8538 -0.3661 -1.6234
  115OSM    C4F11978   5.253   2.715   6.241  0.0290 -0.3863 -0.0387
  115OSM    H4F11979   5.155   2.744   6.284  0.1567  0.3966 -0.2507
  115OSM    H4G11980   5.254   2.605   6.234 -1.7306 -0.4792  0.6873
  115OSM    C5F11981   5.262   2.773   6.096 -0.2731  0.9486 -0.8738
  115OSM    H5F11982   5.357   2.736   6.052 -0.5720 -0.9124 -0.0704
  115OSM    H5G11983   5.248   2.882   6.112  0.1882  0.6049  2.8291
  115OSM    C6F11984   5.149   2.711   6.013 -1.1419  0.6230 -0.8709
  115OSM    H6F11985   5.054   2.728   6.070 -0.0196  2.0775  0.6951
  115OSM    H6G11986   5.166   2.604   5.991  0.2399  0.5617  0.3792
  115OSM    C7F11987   5.124   2.794   5.892 -0.1614  0.4236 -0.1479
  115OSM    H7F11988   5.115   2.897   5.933 -0.5444 -0.3525  1.8518
  115OSM    H7G11989   5.025   2.764   5.852  0.2245 -0.6079 -0.3780
  115OSM    C8F11990   5.229   2.780   5.783 -0.4874  0.5395  0.9006
  115OSM    H8F11991   5.237   2.671   5.764  0.0357  0.9715 -1.6526
  115OSM    H8G11992   5.335   2.803   5.808 -0.3546 -0.9096  1.8132
  115OSM    C9F11993   5.175   2.850   5.662 -0.0867 -0.4221 -0.1183
  115OSM    H9F11994   5.115   2.939   5.690 -1.1040 -0.0790 -3.0944
  115OSM   C10F11995   5.169   2.812   5.539 -0.5032  0.8887  0.2949
  115OSM   H10F11996   5.144   2.890   5.467  0.4479 -0.0500 -1.0983
  115OSM   C11F11997   5.229   2.690   5.475  0.9841  0.2139 -0.3343
  115OSM   H11F11998   5.152   2.619   5.441  0.1596  0.0448  1.7208
  115OSM   H11G11999   5.293   2.636   5.548 -1.7007  1.3929  3.1895
  115OSM   C12F12000   5.314   2.729   5.355  0.1344  0.1654 -1.0166
  115OSM   H12F12001   5.354   2.632   5.320  0.3392 -0.2815  0.4032
  115OSM   H12G12002   5.406   2.777   5.397  1.5665 -1.9641 -1.5901
  115OSM   C13F12003   5.243   2.810   5.242 -0.4691  0.3746 -0.4353
  115OSM   H13F12004   5.236   2.916   5.274 -1.8157  0.2022 -0.0969
  115OSM   H13G12005   5.138   2.777   5.229 -0.1014 -1.0235 -0.0919
  115OSM   C14F12006   5.320   2.792   5.117 -0.2770  0.3026  0.5001
  115OSM   H14F12007   5.325   2.683   5.094  0.1523  0.4661 -0.2228
  115OSM   H14G12008   5.426   2.824   5.125  0.1537 -1.0537  0.5030
  115OSM   C15F12009   5.247   2.853   4.996  0.2234 -0.0452 -0.7514
  115OSM   H15F12010   5.242   2.962   5.016  0.8282 -0.3699  1.3621
  115OSM   H15G12011   5.151   2.800   5.008 -0.6226  1.8714  1.8997
  115OSM   C16F12012   5.300   2.813   4.861 -0.2468  0.0858  0.5261
  115OSM   H16F12013   5.297   2.702   4.848  1.6602  0.3706 -3.9840
  115OSM   H16G12014   5.407   2.840   4.858 -0.2381  0.0872  0.7829
  115OSM   C17F12015   5.226   2.872   4.738  1.3870 -0.5143  0.2047
  115OSM   H17F12016   5.172   2.964   4.770  1.9642  0.2906 -1.0130
  115OSM   H17G12017   5.144   2.805   4.704  1.0344  1.0076 -2.2614
  115OSM   C18F12018   5.295   2.910   4.609 -1.1546  0.5988 -0.2488
  115OSM   H18F12019   5.232   2.958   4.531 -0.7960 -1.0320 -1.5991
  115OSM   H18G12020   5.340   2.817   4.569 -2.0598 -0.0630  0.2379
  115OSM   H18H12021   5.382   2.975   4.633 -0.6597 -1.0577  3.1658
  116OSM      N12022   0.938   1.006   6.814  0.0417 -0.1607 -0.0139
  116OSM    C1512023   0.957   1.141   6.869  0.3710  0.0192 -0.5306
  116OSM   H15A12024   0.943   1.220   6.796  0.2853 -0.0241 -0.5609
  116OSM   H15B12025   1.045   1.151   6.931 -0.8448  0.8699  1.1111
  116OSM   H15C12026   0.875   1.146   6.939 -0.5334  0.6380 -1.6010
  116OSM    C1412027   0.911   0.914   6.929  0.2085 -0.1151 -0.0767
  116OSM   H14A12028   0.821   0.953   6.973  0.0507  0.3607 -0.7911
  116OSM   H14B12029   0.994   0.915   6.998 -0.0127 -1.0971  0.2134
  116OSM   H14C12030   0.900   0.811   6.896  1.1724  0.3229 -1.9522
  116OSM    C1312031   0.822   1.012   6.718 -0.1613  0.2949  0.0866
  116OSM   H13A12032   0.836   1.060   6.622 -1.9617  2.2697  0.7079
  116OSM   H13B12033   0.734   1.057   6.762 -1.0727 -1.6043  0.2693
  116OSM   H13C12034   0.796   0.908   6.706  0.1785 -0.3294  3.5391
  116OSM    C1212035   1.068   0.963   6.743 -0.0795 -0.8303 -0.1528
  116OSM   H12A12036   1.095   1.047   6.682  1.1625 -0.7363  0.5086
  116OSM   H12B12037   1.055   0.886   6.668 -0.2236 -1.2920  0.3377
  116OSM    C1112038   1.187   0.916   6.837  0.0491  0.2810  0.1392
  116OSM   H11A12039   1.210   1.007   6.897  2.8854 -1.1471  1.4206
  116OSM   H11B12040   1.279   0.906   6.776 -0.6199  2.8569 -1.4345
  116OSM      P12041   1.172   0.649   6.863  0.4084  0.1321 -0.4864
  116OSM    O1312042   1.308   0.592   6.867 -0.5410  0.0229 -0.0262
  116OSM    O1412043   1.069   0.565   6.932  0.0776  0.2977  0.4857
  116OSM    O1112044   1.127   0.665   6.707  0.0714 -0.0409  0.0360
  116OSM    O1212045   1.177   0.800   6.920 -0.7590 -0.1024  0.6788
  116OSM    C1S12046   1.032   0.564   6.655  0.8360  0.2983 -0.5271
  116OSM    H1S12047   0.936   0.560   6.709  1.7710  0.1282  1.2062
  116OSM    H1T12048   1.066   0.459   6.668 -0.8987 -0.3055 -0.6069
  116OSM     NF12049   0.944   0.451   6.456 -0.2351  0.0397 -0.2917
  116OSM    HNF12050   1.006   0.393   6.404  0.3487  0.6757 -0.3060
  116OSM    C2S12051   0.990   0.575   6.500 -0.2755  0.1294  0.1602
  116OSM    H2S12052   0.911   0.653   6.490 -1.2079 -0.7957  0.1378
  116OSM    C3S12053   1.107   0.627   6.418 -0.2743 -1.2013 -0.5506
  116OSM    H3S12054   1.180   0.543   6.426  0.8451 -0.1087  1.9529
  116OSM     O312055   1.171   0.745   6.472 -0.5075  0.3163 -0.6898
  116OSM    HO312056   1.150   0.731   6.565  2.1174  0.1224 -0.0520
  116OSM    C4S12057   1.068   0.630   6.273  0.1079  0.0932  0.1773
  116OSM    H4S12058   1.103   0.546   6.210  1.7382  2.8935 -2.9494
  116OSM    C5S12059   1.011   0.741   6.220 -0.3254 -0.2351  0.8456
  116OSM    H5S12060   1.000   0.833   6.278  2.3728  0.5160  0.3161
  116OSM    C6S12061   0.979   0.751   6.075  0.2861 -0.0956  0.0497
  116OSM    H6S12062   1.050   0.815   6.018  0.0277 -0.9452 -1.2623
  116OSM    H6T12063   0.879   0.798   6.067 -0.1653 -0.8934  0.7558
  116OSM    C7S12064   0.970   0.609   6.013  0.5004 -0.3859 -0.8469
  116OSM    H7S12065   0.891   0.547   6.061 -0.3081  1.0780 -0.2306
  116OSM    H7T12066   1.064   0.551   6.021  0.6276 -0.5875 -3.1099
  116OSM    C8S12067   0.938   0.626   5.862 -1.0663  0.3738 -0.3742
  116OSM    H8S12068   1.012   0.697   5.819  0.3755 -0.9200 -0.1325
  116OSM    H8T12069   0.841   0.679   5.850 -0.0475  2.7545  1.1048
  116OSM    C9S12070   0.931   0.497   5.780  0.0811 -0.5199  0.2120
  116OSM    H9S12071   0.851   0.435   5.827  0.7381  1.3944  4.3230
  116OSM    H9T12072   1.025   0.440   5.797  0.0687  0.0447  2.5020
  116OSM   C10S12073   0.907   0.518   5.632  0.1492  0.2043 -0.1962
  116OSM   H10S12074   0.923   0.621   5.595  1.1982 -0.2155 -0.9493
  116OSM   H10T12075   0.801   0.492   5.610 -1.1308  0.8119  4.2608
  116OSM   C11S12076   0.995   0.429   5.553 -0.2268  0.1085 -0.4013
  116OSM   H11S12077   0.983   0.326   5.592 -1.9963 -0.0683 -1.2982
  116OSM   H11T12078   1.100   0.464   5.548 -0.8079  2.5985  1.9523
  116OSM   C12S12079   0.940   0.434   5.403 -0.0409 -0.6174 -0.5129
  116OSM   H12S12080   0.830   0.450   5.402 -0.1169 -1.1134 -0.3482
  116OSM   H12T12081   0.955   0.332   5.360  0.6751 -1.0150  0.6353
  116OSM   C13S12082   1.005   0.539   5.320 -0.4273 -0.6609 -0.4705
  116OSM   H13S12083   1.114   0.521   5.318 -0.6015 -1.8818  0.0086
  116OSM   H13T12084   0.978   0.631   5.376  0.7527  0.5656 -1.8413
  116OSM   C14S12085   0.941   0.562   5.181  0.6769  0.1120  0.2582
  116OSM   H14S12086   0.946   0.672   5.168  2.0843 -0.0073 -0.4849
  116OSM   H14T12087   0.836   0.531   5.195  1.4483 -2.4589  0.9754
  116OSM   C15S12088   1.012   0.494   5.070  0.1404  0.2539 -0.1742
  116OSM   H15S12089   1.017   0.387   5.100 -1.0742  0.1338 -0.3654
  116OSM   H15T12090   1.117   0.530   5.058  0.9133 -1.9853 -0.5827
  116OSM   C16S12091   0.947   0.508   4.930 -0.1962  0.2712  0.1116
  116OSM   H16S12092   0.943   0.619   4.922  1.6596  0.5790  2.2628
  116OSM   H16T12093   0.842   0.471   4.931 -0.3210  0.6235  0.1334
  116OSM   C17S12094   1.019   0.447   4.810  0.1850  1.3570 -0.5830
  116OSM   H17S12095   1.110   0.394   4.847  0.4979  0.7551 -2.1272
  116OSM   H17T12096   1.059   0.529   4.747  1.2435  1.9875  0.8351
  116OSM   C18S12097   0.923   0.351   4.734  0.3226  0.0555 -1.0253
  116OSM   H18S12098   0.836   0.414   4.705 -1.8406 -0.6039  3.2060
  116OSM   H18T12099   0.885   0.277   4.807 -0.9356  2.7174  1.2155
  116OSM   H18U12100   0.967   0.304   4.644 -3.2612  1.1268 -3.5469
  116OSM    C1F12101   0.830   0.397   6.502 -0.3105  0.0720  0.4143
  116OSM     OF12102   0.747   0.466   6.561 -0.1675 -0.3625 -0.2614
  116OSM    C2F12103   0.822   0.251   6.486  0.2660  0.0355  0.5284
  116OSM    H2F12104   0.792   0.225   6.590 -1.4935  1.4970  0.4209
  116OSM    H2G12105   0.925   0.212   6.466  0.0703 -1.1870  1.7669
  116OSM    C3F12106   0.715   0.220   6.379  0.0449 -0.1681  0.1304
  116OSM    H3F12107   0.621   0.277   6.396  0.9505  1.6811 -0.8135
  116OSM    H3G12108   0.691   0.113   6.395  2.4089 -0.8111 -0.3016
  116OSM    C4F12109   0.756   0.240   6.231 -0.6322 -0.0589 -0.4804
  116OSM    H4F12110   0.855   0.195   6.213  0.2681  1.6362 -0.0194
  116OSM    H4G12111   0.777   0.347   6.210  0.3507 -0.4256 -1.4594
  116OSM    C5F12112   0.651   0.185   6.134 -0.3162 -0.1277 -0.5199
  116OSM    H5F12113   0.553   0.236   6.146  1.1180  2.9546 -0.8093
  116OSM    H5G12114   0.630   0.077   6.143 -1.6932  0.2508  1.4585
  116OSM    C6F12115   0.711   0.204   5.993  0.1545  0.9500  0.6035
  116OSM    H6F12116   0.806   0.147   5.992 -1.6692 -2.3224 -0.4846
  116OSM    H6G12117   0.723   0.312   5.970 -1.0516  0.8976 -0.4162
  116OSM    C7F12118   0.642   0.119   5.883  0.8903  0.4399 -0.0879
  116OSM    H7F12119   0.549   0.164   5.843  0.1754 -0.7157  0.2305
  116OSM    H7G12120   0.610   0.023   5.929 -1.5447  0.2397 -2.0219
  116OSM    C8F12121   0.729   0.064   5.764 -0.9320 -0.6096 -0.5697
  116OSM    H8F12122   0.826   0.034   5.810 -0.1815  1.8373 -0.4345
  116OSM    H8G12123   0.763   0.148   5.700 -0.9816 -0.2831 -0.1763
  116OSM    C9F12124   0.670  -0.048   5.678 -0.3497  0.0550  0.3073
  116OSM    H9F12125   0.671  -0.149   5.723 -2.2321 -0.4228 -0.6142
  116OSM   C10F12126   0.615  -0.032   5.556 -0.0331  0.4531  0.2608
  116OSM   H10F12127   0.574  -0.118   5.501  0.5421 -0.3619  1.0850
  116OSM   C11F12128   0.599   0.102   5.491 -0.4594 -0.1452 -0.5999
  116OSM   H11F12129   0.571   0.188   5.555  1.9039  1.8666 -2.0939
  116OSM   H11G12130   0.526   0.096   5.407 -0.4115 -3.0404 -0.5381
  116OSM   C12F12131   0.722   0.164   5.421 -0.8402 -0.8381 -0.0358
  116OSM   H12F12132   0.813   0.142   5.480 -0.8314  0.5389  0.5160
  116OSM   H12G12133   0.705   0.274   5.413  1.5727 -0.3002  1.1803
  116OSM   C13F12134   0.733   0.114   5.278  0.0608 -0.4982  0.2125
  116OSM   H13F12135   0.708   0.006   5.278  0.2282 -0.5361  0.3881
  116OSM   H13G12136   0.840   0.117   5.247 -0.2950 -2.6525 -1.5088
  116OSM   C14F12137   0.660   0.197   5.171  0.3507 -0.4271 -0.0080
  116OSM   H14F12138   0.691   0.301   5.192  0.2810 -0.6056  1.0052
  116OSM   H14G12139   0.550   0.197   5.185  0.4492  1.4987  1.1354
  116OSM   C15F12140   0.702   0.163   5.031 -0.1877 -0.3396  0.0988
  116OSM   H15F12141   0.808   0.193   5.013 -0.5867 -0.2401 -2.5919
  116OSM   H15G12142   0.654   0.222   4.949 -0.0060 -0.3462 -0.0142
  116OSM   C16F12143   0.680   0.016   4.991 -0.3898 -1.0065 -0.3831
  116OSM   H16F12144   0.580  -0.031   5.003  0.7473 -3.3157  0.5214
  116OSM   H16G12145   0.737  -0.048   5.060 -0.7435  0.1755  1.0516
  116OSM   C17F12146   0.721  -0.014   4.843  0.6518  0.7401 -0.3302
  116OSM   H17F12147   0.831  -0.010   4.827  0.4715 -0.1169 -1.9544
  116OSM   H17G12148   0.681   0.065   4.776  0.6669 -0.5574 -1.9271
  116OSM   C18F12149   0.674  -0.149   4.792 -0.3841 -0.7753  0.1569
  116OSM   H18F12150   0.710  -0.170   4.689 -0.6772  0.7581 -0.2944
  116OSM   H18G12151   0.563  -0.137   4.784 -0.6502 -1.7363  1.8525
  116OSM   H18H12152   0.701  -0.227   4.866 -2.8198 -1.1368  0.7536
  117OSM      N12153   5.361   3.818   6.728 -0.0828 -0.2481  0.7065
  117OSM    C1512154   5.304   3.890   6.607 -0.1270 -0.4097  0.0400
  117OSM   H15A12155   5.249   3.817   6.549 -0.3891  0.5462 -0.9538
  117OSM   H15B12156   5.384   3.911   6.537  1.1541 -1.2353  1.2079
  117OSM   H15C12157   5.259   3.982   6.642 -0.3566 -0.6181  0.2896
  117OSM    C1412158   5.258   3.804   6.830 -0.2883  0.0464 -0.4690
  117OSM   H14A12159   5.175   3.746   6.790 -0.2365 -1.2712  1.2365
  117OSM   H14B12160   5.210   3.899   6.847  0.4298  0.4523 -0.6607
  117OSM   H14C12161   5.294   3.758   6.920 -1.6727  0.6818  0.4515
  117OSM    C1312162   5.406   3.684   6.686  0.6471 -0.1854 -0.4380
  117OSM   H13A12163   5.498   3.689   6.631  0.5823 -1.3871 -0.6903
  117OSM   H13B12164   5.343   3.627   6.619  1.8140 -1.0631 -0.8198
  117OSM   H13C12165   5.430   3.627   6.775 -1.0176  0.0297  0.1953
  117OSM    C1212166   5.477   3.902   6.785  0.2596 -0.1730  0.5622
  117OSM   H12A12167   5.433   3.988   6.835 -1.0815 -0.2854 -0.3808
  117OSM   H12B12168   5.531   3.939   6.700  1.1117 -3.4474 -0.4445
  117OSM    C1112169   5.577   3.829   6.882 -0.0236 -0.5601 -0.4504
  117OSM   H11A12170   5.519   3.770   6.956 -0.6596  0.6078 -0.0038
  117OSM   H11B12171   5.636   3.902   6.940  0.8341 -0.4978 -1.3794
  117OSM      P12172   5.795   3.785   6.745 -0.0012  0.2908 -0.0160
  117OSM    O1312173   5.872   3.862   6.847 -0.2301  0.2093 -0.1508
  117OSM    O1412174   5.862   3.670   6.682  0.0551 -0.6725  0.3804
  117OSM    O1112175   5.749   3.891   6.641  0.1842  0.3154 -0.3717
  117OSM    O1212176   5.663   3.736   6.812  0.0973 -0.3936  0.6453
  117OSM    C1S12177   5.733   3.856   6.507  0.2617 -1.0364 -0.0009
  117OSM    H1S12178   5.664   3.769   6.499  1.0120 -1.7173  0.8069
  117OSM    H1T12179   5.828   3.833   6.455  0.9699  0.6878  0.4668
  117OSM     NF12180   5.640   3.938   6.285 -0.5178 -0.0417  0.7392
  117OSM    HNF12181   5.701   3.963   6.211 -0.0932 -1.2079  0.6790
  117OSM    C2S12182   5.681   3.979   6.420 -0.2640  0.4960 -1.1911
  117OSM    H2S12183   5.588   4.011   6.473  0.0584  0.4843 -0.6048
  117OSM    C3S12184   5.783   4.097   6.430 -0.2731  0.3188 -0.3464
  117OSM    H3S12185   5.883   4.068   6.391  0.1225  0.0400  0.8195
  117OSM     O312186   5.804   4.135   6.561 -0.5856  0.4679  0.0731
  117OSM    HO312187   5.772   4.068   6.622 -0.5413  0.5856  0.2267
  117OSM    C4S12188   5.736   4.211   6.344 -0.2534 -0.5385 -0.5018
  117OSM    H4S12189   5.757   4.194   6.237 -1.5244 -4.5360 -0.2887
  117OSM    C5S12190   5.655   4.313   6.373 -0.1944 -0.4522 -0.4650
  117OSM    H5S12191   5.621   4.327   6.476 -0.4605 -1.0991 -0.4594
  117OSM    C6S12192   5.613   4.420   6.276  0.2864 -0.0059 -0.3169
  117OSM    H6S12193   5.668   4.408   6.181 -1.4615 -2.6973 -1.0987
  117OSM    H6T12194   5.635   4.521   6.316 -1.5141  0.0474  0.6695
  117OSM    C7S12195   5.462   4.400   6.249  0.0810 -0.0119 -0.3855
  117OSM    H7S12196   5.402   4.406   6.342 -0.2847 -0.7237 -0.5710
  117OSM    H7T12197   5.432   4.305   6.199 -1.3648  1.1205 -1.7845
  117OSM    C8S12198   5.412   4.508   6.154 -0.7792  0.1698 -0.4889
  117OSM    H8S12199   5.438   4.611   6.186  0.1390 -0.2924  0.3047
  117OSM    H8T12200   5.301   4.502   6.155 -0.7830 -0.5478  2.2353
  117OSM    C9S12201   5.459   4.482   6.007 -0.1051  0.0362 -0.8564
  117OSM    H9S12202   5.417   4.381   5.986 -0.7772 -0.4347  2.2727
  117OSM    H9T12203   5.569   4.472   6.012 -0.1833 -0.4996 -0.1084
  117OSM   C10S12204   5.419   4.584   5.902 -0.0806 -0.0626  0.2665
  117OSM   H10S12205   5.463   4.681   5.933  0.9621 -0.5353  0.3065
  117OSM   H10T12206   5.312   4.614   5.896  0.4430  1.9340 -0.0143
  117OSM   C11S12207   5.457   4.549   5.752  0.2191 -0.1434 -0.4695
  117OSM   H11S12208   5.412   4.453   5.719  1.1972 -1.1790  1.1091
  117OSM   H11T12209   5.567   4.543   5.767  0.0013 -2.4587  0.4996
  117OSM   C12S12210   5.401   4.645   5.645  0.7015 -0.2759  0.1160
  117OSM   H12S12211   5.429   4.751   5.667 -1.0649  0.1541  0.4655
  117OSM   H12T12212   5.290   4.646   5.641  0.6040  0.4698  1.9113
  117OSM   C13S12213   5.462   4.616   5.506  0.2457  0.4980  0.2515
  117OSM   H13S12214   5.454   4.509   5.475 -1.2365  1.0194 -1.2914
  117OSM   H13T12215   5.567   4.651   5.508 -0.1515  2.0232 -1.9976
  117OSM   C14S12216   5.388   4.693   5.395 -0.7410  0.8283 -0.0528
  117OSM   H14S12217   5.362   4.795   5.431 -1.1109  0.8138 -0.2747
  117OSM   H14T12218   5.288   4.646   5.393 -0.6465  0.4471  2.0871
  117OSM   C15S12219   5.448   4.701   5.249 -0.4818  0.4744  0.4353
  117OSM   H15S12220   5.540   4.764   5.256  1.4977 -1.8290 -2.5365
  117OSM   H15T12221   5.379   4.761   5.185 -1.4033  0.6239  1.5332
  117OSM   C16S12222   5.507   4.570   5.197 -0.2711  0.4035  0.5973
  117OSM   H16S12223   5.433   4.489   5.215  0.6494 -1.2896 -2.6402
  117OSM   H16T12224   5.587   4.545   5.269 -1.2264  0.7409  1.8132
  117OSM   C17S12225   5.550   4.577   5.060 -0.9281 -0.6468 -0.3242
  117OSM   H17S12226   5.612   4.668   5.049 -1.7711 -0.1658 -1.2738
  117OSM   H17T12227   5.465   4.599   4.992  1.3341  0.1149 -3.0907
  117OSM   C18S12228   5.621   4.451   5.006  0.7934 -0.1163 -0.0348
  117OSM   H18S12229   5.556   4.375   4.958  1.6708 -0.4708 -0.6921
  117OSM   H18T12230   5.671   4.397   5.090  1.6312 -2.5814 -2.0009
  117OSM   H18U12231   5.694   4.473   4.925  0.7020 -1.0041 -0.3680
  117OSM    C1F12232   5.528   3.862   6.267 -0.4699  0.2158 -0.2586
  117OSM     OF12233   5.460   3.817   6.363 -0.1462 -0.7720  0.1743
  117OSM    C2F12234   5.498   3.818   6.121 -0.1442 -0.0510 -0.0906
  117OSM    H2F12235   5.483   3.708   6.116  0.6644 -0.1728  0.0185
  117OSM    H2G12236   5.586   3.845   6.059  0.3636 -1.0371  0.1801
  117OSM    C3F12237   5.375   3.895   6.068 -0.0450 -0.6436 -0.3377
  117OSM    H3F12238   5.286   3.856   6.121 -0.8951 -1.6251 -2.3727
  117OSM    H3G12239   5.366   3.876   5.959 -2.2455 -0.5332 -0.2174
  117OSM    C4F12240   5.365   4.044   6.085  0.4304  0.1875 -0.0477
  117OSM    H4F12241   5.464   4.084   6.052  1.9671 -3.3422 -0.2197
  117OSM    H4G12242   5.348   4.088   6.185 -1.2088  3.8227 -1.7436
  117OSM    C5F12243   5.264   4.098   5.982 -0.2674  0.0701 -0.2379
  117OSM    H5F12244   5.275   4.206   6.004 -0.3592 -0.0310  0.3208
  117OSM    H5G12245   5.159   4.066   5.993 -0.0868 -0.2813  0.5000
  117OSM    C6F12246   5.289   4.080   5.826  0.2617 -0.1541  0.2803
  117OSM    H6F12247   5.229   3.995   5.786  0.0523  0.9667 -2.0042
  117OSM    H6G12248   5.394   4.047   5.818 -0.5227 -2.5713 -1.1631
  117OSM    C7F12249   5.268   4.202   5.742 -0.3002  0.5850  0.2858
  117OSM    H7F12250   5.333   4.283   5.782 -1.0280 -0.0147  2.9037
  117OSM    H7G12251   5.162   4.230   5.755 -0.3777  1.6947 -2.1637
  117OSM    C8F12252   5.288   4.181   5.591 -0.4227  0.0227 -1.0278
  117OSM    H8F12253   5.211   4.109   5.556 -0.6309 -0.1149 -0.2892
  117OSM    H8G12254   5.389   4.137   5.573 -0.5946 -0.2952 -1.2213
  117OSM    C9F12255   5.269   4.295   5.498 -0.3822 -0.1606  0.0310
  117OSM    H9F12256   5.262   4.395   5.545  0.9422  0.6396 -1.3874
  117OSM   C10F12257   5.250   4.292   5.367 -0.1998  0.0130 -0.0412
  117OSM   H10F12258   5.237   4.392   5.322  1.3613  0.0549 -0.4512
  117OSM   C11F12259   5.230   4.167   5.288  0.1177 -0.0877 -0.0277
  117OSM   H11F12260   5.124   4.136   5.305  0.8679 -1.8931  1.7933
  117OSM   H11G12261   5.298   4.086   5.321  0.7526  0.5042  0.1374
  117OSM   C12F12262   5.239   4.184   5.132  0.3965 -0.1757  0.0836
  117OSM   H12F12263   5.206   4.085   5.093 -0.6473 -1.5654  3.9737
  117OSM   H12G12264   5.345   4.202   5.103 -0.1883  2.6036 -0.5784
  117OSM   C13F12265   5.156   4.295   5.077 -0.6932  0.3987  0.1812
  117OSM   H13F12266   5.203   4.394   5.092  0.9972 -0.5819  1.7147
  117OSM   H13G12267   5.056   4.309   5.124  0.0510 -2.3664  2.9067
  117OSM   C14F12268   5.128   4.257   4.930 -0.0389 -0.7812  0.5061
  117OSM   H14F12269   5.063   4.336   4.887  1.5631 -0.5525 -1.6283
  117OSM   H14G12270   5.061   4.168   4.927  1.1728 -1.7013 -0.0679
  117OSM   C15F12271   5.267   4.226   4.849  0.5409 -0.0091 -0.1055
  117OSM   H15F12272   5.313   4.138   4.898  0.6235 -0.6003 -1.2199
  117OSM   H15G12273   5.331   4.316   4.864  0.7568  0.0390 -1.1843
  117OSM   C16F12274   5.226   4.209   4.701  0.5703 -0.6351 -0.3631
  117OSM   H16F12275   5.172   4.291   4.649 -0.7475 -1.0328  0.3241
  117OSM   H16G12276   5.147   4.131   4.708  0.7060 -0.8867 -1.5191
  117OSM   C17F12277   5.340   4.162   4.610  0.7528  0.3801 -0.5758
  117OSM   H17F12278   5.300   4.104   4.524 -1.6136 -0.7249  1.1711
  117OSM   H17G12279   5.400   4.088   4.667 -0.1592  0.1162  0.0625
  117OSM   C18F12280   5.429   4.271   4.554 -0.5159 -0.2135  0.7616
  117OSM   H18F12281   5.367   4.337   4.489 -2.4288 -2.4579  0.1321
  117OSM   H18G12282   5.495   4.225   4.478 -2.5601  1.0820 -1.9936
  117OSM   H18H12283   5.490   4.329   4.626  0.0247  2.2854 -1.5264
  118OSM      N12284   5.792   0.816   6.619  0.6329  0.5389  0.3598
  118OSM    C1512285   5.787   0.673   6.580 -0.2869  0.1894  1.1322
  118OSM   H15A12286   5.856   0.652   6.500 -1.0198 -2.3801  1.0932
  118OSM   H15B12287   5.691   0.642   6.539  1.0343  1.5460 -3.6003
  118OSM   H15C12288   5.817   0.612   6.664 -0.5345 -3.5956 -1.3171
  118OSM    C1412289   5.934   0.850   6.652  0.2643 -0.7422 -0.3621
  118OSM   H14A12290   6.004   0.871   6.573  1.3220 -1.1895  0.4283
  118OSM   H14B12291   5.983   0.769   6.704 -0.8983 -0.2653  1.6047
  118OSM   H14C12292   5.925   0.938   6.714  1.5893  0.2260 -1.4747
  118OSM    C1312293   5.742   0.909   6.512 -0.1689 -0.1371  0.2656
  118OSM   H13A12294   5.640   0.883   6.491  0.4890 -1.6915 -1.1340
  118OSM   H13B12295   5.799   0.904   6.421  0.5107  0.0201  0.6695
  118OSM   H13C12296   5.754   1.012   6.543 -1.3266  0.1896 -0.3055
  118OSM    C1212297   5.706   0.817   6.746  0.2764  0.5450  0.1373
  118OSM   H12A12298   5.732   0.741   6.819 -1.0731  1.8338  2.0831
  118OSM   H12B12299   5.606   0.782   6.722  0.1097  0.4717  0.9135
  118OSM    C1112300   5.693   0.953   6.818  0.0646 -0.2844 -0.3442
  118OSM   H11A12301   5.622   0.935   6.902 -0.2329  0.9020 -0.3100
  118OSM   H11B12302   5.634   1.018   6.750 -0.7997  0.2773  0.8958
  118OSM      P12303   5.841   1.162   6.825 -0.1486  0.2194 -0.3031
  118OSM    O1312304   5.752   1.248   6.904 -0.0884 -0.4363  0.1454
  118OSM    O1412305   5.990   1.198   6.831 -0.0231  0.0133  0.2156
  118OSM    O1112306   5.793   1.173   6.682  0.2829 -0.0685 -0.8559
  118OSM    O1212307   5.815   1.013   6.863  0.0082 -0.1609  1.0324
  118OSM    C1S12308   5.884   1.211   6.568 -0.0760  0.7383  0.0303
  118OSM    H1S12309   5.943   1.123   6.537  1.5776  1.7953  0.0507
  118OSM    H1T12310   5.964   1.283   6.596 -1.4239  1.6959  1.6774
  118OSM     NF12311   5.916   1.318   6.343 -0.0304 -0.0829 -0.2014
  118OSM    HNF12312   5.948   1.411   6.329  1.3762 -0.5624 -0.3794
  118OSM    C2S12313   5.818   1.287   6.451  0.2126 -0.0299  0.5794
  118OSM    H2S12314   5.747   1.212   6.409  0.6464  0.0057 -0.2379
  118OSM    C3S12315   5.731   1.410   6.493  0.4192  0.2354  0.5630
  118OSM    H3S12316   5.789   1.488   6.546  1.3735  0.3603 -0.6392
  118OSM     O312317   5.640   1.371   6.592 -0.5650 -0.3624 -0.1260
  118OSM    HO312318   5.675   1.283   6.609  0.9077 -0.2580 -2.1437
  118OSM    C4S12319   5.638   1.460   6.385 -0.9555 -0.0178  0.6178
  118OSM    H4S12320   5.550   1.397   6.367 -0.8913 -0.1904  0.8852
  118OSM    C5S12321   5.654   1.563   6.304  0.7357 -0.3690 -0.3563
  118OSM    H5S12322   5.737   1.635   6.311 -0.5325  1.3367 -1.8669
  118OSM    C6S12323   5.559   1.616   6.199 -0.0609  0.6603  0.1981
  118OSM    H6S12324   5.527   1.714   6.242 -1.5186  0.0266  0.6255
  118OSM    H6T12325   5.462   1.562   6.197  0.1220  0.3496 -0.4465
  118OSM    C7S12326   5.612   1.639   6.058  0.1189  1.1783 -0.1676
  118OSM    H7S12327   5.633   1.544   6.003  1.7853  0.9951  0.7533
  118OSM    H7T12328   5.711   1.687   6.071  1.9498 -2.5553  1.2951
  118OSM    C8S12329   5.532   1.743   5.972  0.3071  0.3789 -0.2589
  118OSM    H8S12330   5.488   1.826   6.031 -2.1538  0.1105 -1.5698
  118OSM    H8T12331   5.443   1.692   5.929  1.8316 -1.3184 -1.5912
  118OSM    C9S12332   5.597   1.806   5.850 -0.0604  0.3682 -0.1313
  118OSM    H9S12333   5.677   1.877   5.880  0.8697 -0.9037  0.4665
  118OSM    H9T12334   5.524   1.867   5.792 -0.4981 -0.1066 -0.0833
  118OSM   C10S12335   5.660   1.703   5.752 -0.3433 -0.1063  0.0073
  118OSM   H10S12336   5.583   1.626   5.727 -1.0459  0.7427 -0.4858
  118OSM   H10T12337   5.743   1.649   5.802 -1.2841 -0.5892  1.1064
  118OSM   C11S12338   5.720   1.759   5.620 -0.0975  0.3602 -0.1754
  118OSM   H11S12339   5.808   1.697   5.593 -0.4359 -0.0291 -0.3854
  118OSM   H11T12340   5.753   1.864   5.639 -1.2339  0.6693  0.1536
  118OSM   C12S12341   5.615   1.760   5.504 -0.7732  0.5048 -0.1001
  118OSM   H12S12342   5.546   1.844   5.526 -1.1381  0.1076  0.2823
  118OSM   H12T12343   5.555   1.668   5.517 -0.3243 -0.2792 -2.9799
  118OSM   C13S12344   5.685   1.748   5.369  0.1875  0.1761  0.0608
  118OSM   H13S12345   5.704   1.640   5.355 -0.7261 -0.1134  0.9214
  118OSM   H13T12346   5.772   1.817   5.368  1.4018 -1.1001  3.5690
  118OSM   C14S12347   5.582   1.780   5.261 -0.0261  0.4532 -0.3254
  118OSM   H14S12348   5.537   1.881   5.270 -1.3550 -0.2456  1.6292
  118OSM   H14T12349   5.490   1.726   5.291 -1.6822  3.1368 -0.2408
  118OSM   C15S12350   5.636   1.768   5.119  0.0120 -0.1300  0.5175
  118OSM   H15S12351   5.723   1.699   5.115 -0.7300 -1.0495 -0.5353
  118OSM   H15T12352   5.674   1.865   5.081  1.1218 -1.0448 -0.8336
  118OSM   C16S12353   5.521   1.720   5.032  0.0119  0.2016  0.2387
  118OSM   H16S12354   5.435   1.789   5.020 -0.2568 -0.0765  0.5578
  118OSM   H16T12355   5.484   1.622   5.069 -0.2279  0.0812 -0.3219
  118OSM   C17S12356   5.565   1.682   4.882  0.2610 -0.2856  0.0569
  118OSM   H17S12357   5.665   1.633   4.889  0.5025  0.2886  0.8329
  118OSM   H17T12358   5.569   1.782   4.833  1.7396  0.6139  1.8543
  118OSM   C18S12359   5.462   1.598   4.808  0.9645  0.3312  0.7806
  118OSM   H18S12360   5.490   1.587   4.701 -0.0440 -0.5601  0.5917
  118OSM   H18T12361   5.369   1.659   4.806 -0.3762 -1.5744  1.9248
  118OSM   H18U12362   5.437   1.492   4.831 -0.2600  0.4196 -0.0336
  118OSM    C1F12363   5.970   1.219   6.263 -0.5229 -0.1957  0.4200
  118OSM     OF12364   5.939   1.103   6.290 -0.0028  0.5133  0.8085
  118OSM    C2F12365   6.041   1.255   6.139 -0.0983  0.0970 -0.0329
  118OSM    H2F12366   6.147   1.282   6.160 -0.8886  2.2980  1.4986
  118OSM    H2G12367   5.982   1.337   6.094 -0.4475 -1.2350 -2.1418
  118OSM    C3F12368   6.037   1.137   6.036  0.4698 -0.3742 -0.0664
  118OSM    H3F12369   5.937   1.093   6.019 -1.1757  2.4572  1.6460
  118OSM    H3G12370   6.107   1.056   6.068  3.3764  2.6811  2.0920
  118OSM    C4F12371   6.097   1.201   5.913 -0.1912 -0.3658  0.3956
  118OSM    H4F12372   6.135   1.120   5.847  0.9336  1.1647 -0.9031
  118OSM    H4G12373   6.189   1.254   5.944  0.9724 -0.4534 -2.5890
  118OSM    C5F12374   6.015   1.304   5.832  0.1164  0.7413 -0.0191
  118OSM    H5F12375   5.987   1.392   5.893  2.0051  1.8928 -0.6933
  118OSM    H5G12376   5.933   1.238   5.796  1.6423 -1.2689  0.0139
  118OSM    C6F12377   6.094   1.362   5.709 -0.1121 -0.8271  0.2204
  118OSM    H6F12378   6.149   1.281   5.658  1.9188  1.8249 -2.0845
  118OSM    H6G12379   6.174   1.429   5.746 -0.2252 -1.2702  1.3006
  118OSM    C7F12380   6.002   1.418   5.601  0.3766 -0.7424  0.6398
  118OSM    H7F12381   5.956   1.506   5.650  2.4573  0.4632  0.5593
  118OSM    H7G12382   5.921   1.344   5.579  0.5032 -0.5510 -0.5197
  118OSM    C8F12383   6.061   1.446   5.462 -0.4673 -0.3776 -0.3175
  118OSM    H8F12384   6.117   1.354   5.436 -1.1557 -1.9433  3.1115
  118OSM    H8G12385   6.139   1.524   5.475  0.0038 -0.5587 -1.9190
  118OSM    C9F12386   5.954   1.490   5.364 -0.8832  0.0568  0.8015
  118OSM    H9F12387   5.917   1.591   5.389  0.6046  0.4992  1.3522
  118OSM   C10F12388   5.915   1.415   5.257 -0.6226 -0.8388  0.0555
  118OSM   H10F12389   5.819   1.438   5.208 -0.1894  0.3218 -0.2630
  118OSM   C11F12390   5.959   1.278   5.223  0.3282  1.1939  0.5932
  118OSM   H11F12391   5.872   1.228   5.177  0.5789  0.1030  1.2578
  118OSM   H11G12392   5.984   1.214   5.310 -0.9978 -0.5998 -0.2883
  118OSM   C12F12393   6.078   1.273   5.129 -0.2759  0.4603  0.4583
  118OSM   H12F12394   6.161   1.333   5.171  0.4331  0.2712 -0.6550
  118OSM   H12G12395   6.066   1.322   5.030 -0.5224  1.2170  0.8532
  118OSM   C13F12396   6.115   1.123   5.100  0.7638  0.0221  0.2188
  118OSM   H13F12397   6.027   1.069   5.058  1.0062  0.5025 -0.9394
  118OSM   H13G12398   6.139   1.066   5.193  0.1147  2.1983  1.8098
  118OSM   C14F12399   6.230   1.094   5.001 -0.4488 -0.2027  0.2656
  118OSM   H14F12400   6.324   1.088   5.059  0.0432 -3.7845 -0.6601
  118OSM   H14G12401   6.232   1.174   4.924 -1.0305 -0.6570 -0.2327
  118OSM   C15F12402   6.217   0.955   4.922  0.1031 -0.3698 -0.0006
  118OSM   H15F12403   6.114   0.939   4.884  0.3005 -2.1861  0.1365
  118OSM   H15G12404   6.235   0.866   4.987 -1.9667 -1.3197 -0.6461
  118OSM   C16F12405   6.319   0.954   4.810  0.0376 -0.1860  0.1436
  118OSM   H16F12406   6.420   0.969   4.854  0.0090  1.1874 -0.2146
  118OSM   H16G12407   6.308   1.037   4.737 -1.6391 -2.1010 -1.9072
  118OSM   C17F12408   6.313   0.814   4.742 -0.4902 -0.1322  0.2291
  118OSM   H17F12409   6.206   0.804   4.714 -0.1015 -0.9300 -1.0688
  118OSM   H17G12410   6.334   0.729   4.810  0.4158  0.1295  0.2946
  118OSM   C18F12411   6.410   0.803   4.622 -0.7296  0.0316 -0.1931
  118OSM   H18F12412   6.507   0.846   4.655 -0.1661 -2.0469  1.0748
  118OSM   H18G12413   6.365   0.852   4.533  0.0301 -0.5194 -0.8936
  118OSM   H18H12414   6.424   0.699   4.586  0.0980 -0.2914  1.0072
  119OSM      N12415   1.208   4.302   6.454 -0.0547 -0.1946 -0.4899
  119OSM    C1512416   1.239   4.376   6.331  0.0893  0.3897  0.1300
  119OSM   H15A12417   1.303   4.462   6.345  0.5455  0.3717 -1.6198
  119OSM   H15B12418   1.147   4.418   6.294 -1.1784 -1.4395  1.0581
  119OSM   H15C12419   1.287   4.309   6.261 -1.2073 -0.0183 -0.3885
  119OSM    C1412420   1.164   4.401   6.556  0.0939  0.8610  0.0410
  119OSM   H14A12421   1.082   4.463   6.525 -0.6559  0.4915  1.2315
  119OSM   H14B12422   1.243   4.471   6.577  0.7143 -0.6338  3.4485
  119OSM   H14C12423   1.138   4.345   6.645  0.9399 -1.1708 -0.9114
  119OSM    C1312424   1.090   4.205   6.427  0.1744  0.3513 -0.6551
  119OSM   H13A12425   1.110   4.140   6.342 -0.1723  0.5977 -0.9265
  119OSM   H13B12426   0.999   4.261   6.417  0.1962  0.2129 -1.7733
  119OSM   H13C12427   1.088   4.140   6.513  3.2537  0.2093 -0.5746
  119OSM    C1212428   1.336   4.232   6.503  0.9184 -0.0949  0.8274
  119OSM   H12A12429   1.359   4.156   6.430 -0.7549  0.0681  0.0793
  119OSM   H12B12430   1.313   4.180   6.595  0.4352 -0.3755  0.5522
  119OSM    C1112431   1.463   4.320   6.527 -0.2597 -0.4165 -0.6515
  119OSM   H11A12432   1.549   4.252   6.544 -1.3402 -2.7795 -3.6024
  119OSM   H11B12433   1.436   4.385   6.612 -0.9526 -2.4847  0.7960
  119OSM      P12434   1.614   4.511   6.433  0.2498  0.2770 -0.0519
  119OSM    O1312435   1.605   4.569   6.570 -0.6989  0.8703  0.4827
  119OSM    O1412436   1.747   4.459   6.389  0.4227 -0.4615  0.6127
  119OSM    O1112437   1.558   4.613   6.328 -0.0459  0.3134 -0.2172
  119OSM    O1212438   1.501   4.399   6.414  0.0426  0.6149 -0.7714
  119OSM    C1S12439   1.640   4.668   6.234 -0.6087 -0.5062  0.5161
  119OSM    H1S12440   1.743   4.688   6.270 -0.7064  2.0992 -0.4470
  119OSM    H1T12441   1.607   4.773   6.219  0.4166  0.0322  1.8984
  119OSM     NF12442   1.747   4.660   6.016 -0.3129  0.1735  0.4858
  119OSM    HNF12443   1.729   4.743   5.964 -1.4798  0.1911  0.8823
  119OSM    C2S12444   1.643   4.607   6.093  0.5536 -0.7568 -0.6231
  119OSM    H2S12445   1.672   4.500   6.097  1.6963 -0.4637 -0.3930
  119OSM    C3S12446   1.493   4.641   6.042  0.5784  0.2556 -0.1811
  119OSM    H3S12447   1.488   4.751   6.028 -1.7287  0.1249 -0.8387
  119OSM     O312448   1.386   4.596   6.128  0.0536  0.3242  0.0587
  119OSM    HO312449   1.432   4.586   6.211 -1.4286 -0.3642  0.8310
  119OSM    C4S12450   1.476   4.579   5.909 -0.0997 -0.0461  0.0586
  119OSM    H4S12451   1.507   4.636   5.820 -2.1470 -0.0888 -0.7465
  119OSM    C5S12452   1.438   4.455   5.886 -0.4404  0.0281  0.1996
  119OSM    H5S12453   1.426   4.389   5.973 -0.4742 -2.6025 -1.6447
  119OSM    C6S12454   1.448   4.397   5.745 -0.1154  0.5941 -0.6185
  119OSM    H6S12455   1.538   4.333   5.728  0.1172  1.1424 -1.5473
  119OSM    H6T12456   1.461   4.480   5.672 -3.0350  1.2352 -0.5251
  119OSM    C7S12457   1.328   4.308   5.693 -1.2916 -0.4768 -1.1071
  119OSM    H7S12458   1.237   4.357   5.733 -0.8029  0.4301 -1.0846
  119OSM    H7T12459   1.337   4.205   5.734 -1.1054 -0.6851 -1.6569
  119OSM    C8S12460   1.330   4.287   5.546 -0.0783  0.1173  0.3976
  119OSM    H8S12461   1.250   4.213   5.524 -0.8878  1.5769 -2.0231
  119OSM    H8T12462   1.428   4.247   5.512 -0.4700  0.1376 -0.8224
  119OSM    C9S12463   1.298   4.417   5.474 -0.6275 -0.3721  0.3274
  119OSM    H9S12464   1.379   4.493   5.484  1.3241 -2.5806  2.5415
  119OSM    H9T12465   1.215   4.467   5.529  1.6083  0.2098  3.4657
  119OSM   C10S12466   1.264   4.390   5.324  0.1889  0.2763 -0.5010
  119OSM   H10S12467   1.171   4.331   5.311  0.0776 -0.1604  1.7658
  119OSM   H10T12468   1.347   4.335   5.275 -0.2195  0.4271 -1.3832
  119OSM   C11S12469   1.261   4.517   5.243 -0.5226  0.6554 -0.5570
  119OSM   H11S12470   1.363   4.561   5.234 -0.8021  1.4279 -0.0892
  119OSM   H11T12471   1.189   4.596   5.275 -1.6996 -0.8157  0.5644
  119OSM   C12S12472   1.219   4.481   5.099  0.1030  0.2251  0.1091
  119OSM   H12S12473   1.119   4.433   5.091  0.8078 -1.4332  0.6284
  119OSM   H12T12474   1.291   4.403   5.065  0.5612 -0.1098  1.7481
  119OSM   C13S12475   1.220   4.606   5.012 -0.3677 -0.2846 -0.1334
  119OSM   H13S12476   1.203   4.692   5.080 -2.4601 -0.2083 -0.7039
  119OSM   H13T12477   1.141   4.617   4.935 -1.3560  1.9901  1.1205
  119OSM   C14S12478   1.365   4.629   4.959  0.1483  0.7635  0.6317
  119OSM   H14S12479   1.385   4.535   4.902 -1.3509  1.2708 -0.8149
  119OSM   H14T12480   1.440   4.644   5.040 -0.1334 -1.6997  1.4375
  119OSM   C15S12481   1.374   4.749   4.867  0.0546  0.0585 -0.3286
  119OSM   H15S12482   1.477   4.790   4.858 -0.1240  0.9899  1.4883
  119OSM   H15T12483   1.325   4.841   4.908 -1.9694 -1.5471  1.0791
  119OSM   C16S12484   1.314   4.713   4.729 -0.3768  0.2269  0.6486
  119OSM   H16S12485   1.206   4.691   4.742  0.1500 -2.2071  1.4645
  119OSM   H16T12486   1.359   4.619   4.690 -0.2300  1.1055 -1.4569
  119OSM   C17S12487   1.345   4.807   4.617  0.5907  0.4550  0.7317
  119OSM   H17S12488   1.306   4.752   4.528 -0.8761  0.8299  1.1147
  119OSM   H17T12489   1.452   4.828   4.598  0.9478 -3.0884 -2.4726
  119OSM   C18S12490   1.273   4.941   4.635 -0.2125  0.2720 -0.0035
  119OSM   H18S12491   1.166   4.930   4.663 -0.0063  2.8913  2.3735
  119OSM   H18T12492   1.290   5.002   4.544 -1.5810 -0.5053 -0.8100
  119OSM   H18U12493   1.318   5.002   4.717 -1.9003 -0.3772  1.4913
  119OSM    C1F12494   1.870   4.623   6.042  0.1052  0.6500 -0.5015
  119OSM     OF12495   1.898   4.527   6.111 -0.2417  0.5197  0.4471
  119OSM    C2F12496   1.971   4.723   5.988 -0.1610  0.8201  0.1448
  119OSM    H2F12497   1.995   4.798   6.067  0.1300 -0.3249  1.1636
  119OSM    H2G12498   1.927   4.777   5.901  0.3583  0.3782 -0.3965
  119OSM    C3F12499   2.108   4.662   5.951  1.4432 -0.9256 -0.2920
  119OSM    H3F12500   2.100   4.600   5.859  0.6957 -0.2808 -0.6795
  119OSM    H3G12501   2.145   4.593   6.029 -0.9122 -3.1125 -0.9405
  119OSM    C4F12502   2.229   4.761   5.912 -0.6057 -0.1768 -0.3039
  119OSM    H4F12503   2.325   4.707   5.896 -0.6874 -0.2237 -0.6422
  119OSM    H4G12504   2.244   4.826   6.000 -0.7503  0.7938 -0.9815
  119OSM    C5F12505   2.195   4.852   5.792 -0.3638  0.1149  0.1512
  119OSM    H5F12506   2.253   4.946   5.798 -2.5209  1.5675 -0.6117
  119OSM    H5G12507   2.090   4.887   5.785  0.4290  2.4920 -1.1518
  119OSM    C6F12508   2.203   4.783   5.654 -0.2956 -0.3552  0.5515
  119OSM    H6F12509   2.129   4.701   5.647 -1.3748  0.5939  0.5735
  119OSM    H6G12510   2.309   4.752   5.641 -0.5868 -0.8593 -0.7178
  119OSM    C7F12511   2.176   4.881   5.535 -0.0425  0.2342 -0.1536
  119OSM    H7F12512   2.268   4.900   5.476 -0.2548 -0.3459 -0.6826
  119OSM    H7G12513   2.164   4.975   5.593 -0.9522  1.0700 -1.6169
  119OSM    C8F12514   2.052   4.854   5.456 -0.5030  0.0365 -0.3667
  119OSM    H8F12515   1.962   4.842   5.520 -0.9744  0.6402 -0.8989
  119OSM    H8G12516   2.067   4.758   5.402  0.4391 -0.3092  0.4856
  119OSM    C9F12517   2.019   4.965   5.358 -0.7815  0.9143 -0.1024
  119OSM    H9F12518   2.008   5.057   5.417  0.4574  0.7811  0.3766
  119OSM   C10F12519   2.019   4.965   5.225  0.3148  0.3406  0.3446
  119OSM   H10F12520   2.019   5.064   5.179  0.0603 -0.8256 -2.3228
  119OSM   C11F12521   2.061   4.856   5.127  0.5034 -0.2126  0.1916
  119OSM   H11F12522   1.969   4.800   5.097  0.6916  0.0903 -0.9921
  119OSM   H11G12523   2.129   4.787   5.181 -0.4403 -0.5868  0.9326
  119OSM   C12F12524   2.125   4.906   4.995  0.2938  0.0688 -0.2778
  119OSM   H12F12525   2.073   5.000   4.967 -0.6416 -0.0987  0.8094
  119OSM   H12G12526   2.092   4.832   4.918 -1.1572  0.5820 -0.1846
  119OSM   C13F12527   2.279   4.932   4.991  0.7727  0.1408  0.1850
  119OSM   H13F12528   2.337   4.837   4.988  1.3551  0.4677  0.7941
  119OSM   H13G12529   2.306   4.981   5.087  0.3123  1.0814 -0.1503
  119OSM   C14F12530   2.319   5.012   4.865  0.2036 -0.4593 -0.4421
  119OSM   H14F12531   2.296   5.119   4.879  0.7262 -0.2582 -1.0873
  119OSM   H14G12532   2.262   4.983   4.774  0.0454  0.0552 -0.5095
  119OSM   C15F12533   2.468   4.988   4.838  0.4567  0.7125  0.4370
  119OSM   H15F12534   2.500   5.041   4.746 -2.1334 -1.9558 -2.2562
  119OSM   H15G12535   2.480   4.881   4.808 -1.8408  0.6108 -0.3430
  119OSM   C16F12536   2.555   4.999   4.963  0.0856  0.3541  0.3480
  119OSM   H16F12537   2.535   4.933   5.050  0.1884  1.2660  1.0798
  119OSM   H16G12538   2.556   5.098   5.012  1.2177  0.7021 -0.3451
  119OSM   C17F12539   2.706   4.966   4.926  0.1122 -0.1442  0.2187
  119OSM   H17F12540   2.746   5.040   4.854 -0.8338 -0.5992 -0.8105
  119OSM   H17G12541   2.706   4.869   4.870 -1.9512  0.8801 -1.7259
  119OSM   C18F12542   2.789   4.954   5.050 -0.4119  0.0758 -0.2014
  119OSM   H18F12543   2.763   4.859   5.101 -1.9584  0.2429 -0.6222
  119OSM   H18G12544   2.755   5.018   5.134  2.5787 -0.3775  1.4914
  119OSM   H18H12545   2.898   4.965   5.033 -0.7114  1.2031 -1.7156
  120OSM      N12546   4.629   5.403   7.072  0.5213  0.4156  0.6675
  120OSM    C1512547   4.565   5.492   7.173  0.2866 -0.4693 -0.4342
  120OSM   H15A12548   4.458   5.481   7.171  0.3677 -1.2386 -2.1195
  120OSM   H15B12549   4.589   5.597   7.160 -3.3646  0.6282  0.3598
  120OSM   H15C12550   4.591   5.451   7.270  1.3179  0.9822 -0.0606
  120OSM    C1412551   4.766   5.461   7.047  0.0776 -0.1481  0.0853
  120OSM   H14A12552   4.822   5.467   7.139  0.3862  2.0949 -0.1903
  120OSM   H14B12553   4.756   5.563   7.012 -1.0640 -0.1862  0.2513
  120OSM   H14C12554   4.820   5.408   6.970 -0.2830  1.4196 -1.3193
  120OSM    C1312555   4.648   5.261   7.117  0.7561  0.2743  0.5412
  120OSM   H13A12556   4.701   5.259   7.210  2.5784  0.3833 -0.4531
  120OSM   H13B12557   4.697   5.190   7.052 -1.8896 -0.2000 -1.1006
  120OSM   H13C12558   4.551   5.217   7.134  0.2614  1.7683  1.7646
  120OSM    C1212559   4.540   5.419   6.944 -0.5565  0.2719  0.1939
  120OSM   H12A12560   4.534   5.522   6.911 -1.2956 -0.2574 -1.3964
  120OSM   H12B12561   4.436   5.403   6.968 -0.6694 -3.2459 -1.9993
  120OSM    C1112562   4.570   5.331   6.814  0.3401 -0.0263  0.0462
  120OSM   H11A12563   4.679   5.337   6.795  0.3007  3.0207  0.3757
  120OSM   H11B12564   4.538   5.358   6.712 -0.1685 -3.0382 -0.7096
  120OSM      P12565   4.376   5.147   6.854 -0.1824 -0.0723  0.3640
  120OSM    O1312566   4.355   5.029   6.940  0.0818  0.6895  0.1831
  120OSM    O1412567   4.290   5.261   6.887 -0.3537  0.2742  0.4514
  120OSM    O1112568   4.354   5.098   6.709 -0.0522 -0.1245  0.3884
  120OSM    O1212569   4.529   5.196   6.852  0.1794 -0.3387  0.2529
  120OSM    C1S12570   4.418   4.975   6.662 -0.1730  0.2961  0.0225
  120OSM    H1S12571   4.353   4.889   6.689 -1.8337  1.3216 -0.5567
  120OSM    H1T12572   4.516   4.955   6.711 -1.0652  0.1808  1.8519
  120OSM     NF12573   4.435   4.834   6.442  0.8502  0.3864 -0.1806
  120OSM    HNF12574   4.514   4.778   6.417  0.8555  0.7329 -0.9722
  120OSM    C2S12575   4.462   4.966   6.501 -0.2347 -0.4509 -0.6819
  120OSM    H2S12576   4.390   5.031   6.446 -0.5391 -0.5517 -0.4099
  120OSM    C3S12577   4.604   5.028   6.486  0.2288  0.8457  0.1853
  120OSM    H3S12578   4.683   4.965   6.534 -0.8973 -0.8780 -0.1221
  120OSM     O312579   4.621   5.160   6.534 -0.1624  0.4055  0.2513
  120OSM    HO312580   4.565   5.189   6.606  1.3623  0.9018  1.2807
  120OSM    C4S12581   4.645   5.023   6.343 -0.0473  0.6330  0.4995
  120OSM    H4S12582   4.569   5.043   6.266  2.0803  1.4263 -1.5197
  120OSM    C5S12583   4.774   5.014   6.300 -0.1810 -0.4213 -0.0091
  120OSM    H5S12584   4.852   5.034   6.375 -1.6693  0.0295  1.4701
  120OSM    C6S12585   4.823   5.030   6.158 -0.9055  0.4798  0.3013
  120OSM    H6S12586   4.897   4.948   6.144  0.4950  1.7269  0.1971
  120OSM    H6T12587   4.881   5.122   6.138  0.7175 -0.1865  1.7256
  120OSM    C7S12588   4.716   5.021   6.047 -1.0110  0.9001 -0.9120
  120OSM    H7S12589   4.655   5.115   6.050 -1.6655  0.4550  0.4545
  120OSM    H7T12590   4.652   4.933   6.066 -0.5369  1.0477  1.6712
  120OSM    C8S12591   4.791   5.023   5.913 -0.4175 -0.4949 -0.4126
  120OSM    H8S12592   4.857   4.934   5.901 -0.2350 -0.4782  0.4262
  120OSM    H8T12593   4.854   5.111   5.888 -1.7448 -0.3574 -3.8092
  120OSM    C9S12594   4.686   5.024   5.804 -0.7770  0.6757  0.0750
  120OSM    H9S12595   4.742   5.040   5.710 -1.6869 -0.5602 -0.7237
  120OSM    H9T12596   4.604   5.098   5.817 -1.7749 -0.5198  0.9317
  120OSM   C10S12597   4.620   4.887   5.770  1.3099  0.3175  0.4257
  120OSM   H10S12598   4.593   4.839   5.866  0.9493  0.9167  0.6367
  120OSM   H10T12599   4.689   4.813   5.726 -0.3476 -0.4656 -0.9665
  120OSM   C11S12600   4.500   4.904   5.677  0.3283 -0.1012  1.2517
  120OSM   H11S12601   4.427   4.976   5.721 -1.1018 -0.7983  0.0963
  120OSM   H11T12602   4.456   4.802   5.669 -0.0955  0.0643  1.3992
  120OSM   C12S12603   4.545   4.955   5.537  0.4789  0.1508 -0.2163
  120OSM   H12S12604   4.621   4.887   5.494  1.3641  1.2315 -0.4261
  120OSM   H12T12605   4.589   5.058   5.538 -0.7848  0.7096  0.7060
  120OSM   C13S12606   4.426   4.950   5.432 -0.4892 -0.1908  0.5449
  120OSM   H13S12607   4.349   5.010   5.485  0.5767 -1.1017  3.3513
  120OSM   H13T12608   4.389   4.847   5.413  0.6303 -0.6052  0.5236
  120OSM   C14S12609   4.469   5.021   5.298 -0.4094  0.6026 -0.6752
  120OSM   H14S12610   4.557   4.974   5.249 -0.1380  1.7623 -1.3591
  120OSM   H14T12611   4.489   5.128   5.323 -0.5499  0.6202 -0.6367
  120OSM   C15S12612   4.352   5.004   5.202  0.4756 -0.1594 -0.2441
  120OSM   H15S12613   4.257   5.025   5.257 -1.1994 -0.8728 -2.7290
  120OSM   H15T12614   4.336   4.898   5.173 -0.3078  0.1341 -0.9208
  120OSM   C16S12615   4.378   5.068   5.065 -0.2483 -0.2876 -0.1984
  120OSM   H16S12616   4.465   5.025   5.010  0.0331 -1.0591  0.8345
  120OSM   H16T12617   4.412   5.172   5.084 -1.8420 -0.0433  1.5573
  120OSM   C17S12618   4.267   5.080   4.962 -0.4440 -0.2595 -0.2823
  120OSM   H17S12619   4.255   4.981   4.914 -2.2270 -0.1336 -0.1333
  120OSM   H17T12620   4.304   5.138   4.874  1.2693 -1.5961 -0.5065
  120OSM   C18S12621   4.132   5.131   5.013 -0.5945 -0.5042 -0.6499
  120OSM   H18S12622   4.113   5.074   5.106  0.5179  1.8447  1.1172
  120OSM   H18T12623   4.057   5.108   4.934  0.3897  1.9475 -2.4265
  120OSM   H18U12624   4.128   5.240   5.033 -1.0272 -0.7713  0.8092
  120OSM    C1F12625   4.313   4.777   6.428 -0.5277  0.1257 -0.3572
  120OSM     OF12626   4.215   4.831   6.475  0.8158  0.8610  0.2338
  120OSM    C2F12627   4.309   4.643   6.360  0.5037  1.0105 -1.0573
  120OSM    H2F12628   4.250   4.578   6.428 -0.0732  0.9730 -1.5864
  120OSM    H2G12629   4.413   4.604   6.366 -0.0475 -0.2724  1.6655
  120OSM    C3F12630   4.256   4.638   6.217 -0.6512 -1.0622  0.6490
  120OSM    H3F12631   4.339   4.664   6.148 -1.4292 -0.0384  0.0751
  120OSM    H3G12632   4.175   4.708   6.188  0.3572  0.0018  0.3334
  120OSM    C4F12633   4.203   4.504   6.163 -0.0416 -0.2461 -0.7016
  120OSM    H4F12634   4.280   4.426   6.181 -1.8317 -1.8416  0.4903
  120OSM    H4G12635   4.161   4.495   6.061 -1.8766  1.0255 -0.1112
  120OSM    C5F12636   4.076   4.464   6.236  0.8256  0.0165 -0.3602
  120OSM    H5F12637   3.991   4.535   6.224 -1.3314 -2.1319  1.2744
  120OSM    H5G12638   4.094   4.440   6.343  0.6560  1.0374 -0.0903
  120OSM    C6F12639   4.023   4.335   6.180  0.6398 -0.6244 -0.4395
  120OSM    H6F12640   4.105   4.263   6.155  1.2685 -0.0961  0.0625
  120OSM    H6G12641   3.983   4.364   6.081 -0.1067 -0.0185  0.0347
  120OSM    C7F12642   3.911   4.271   6.264  0.0546 -0.1340  0.2075
  120OSM    H7F12643   3.850   4.358   6.293 -1.4214 -0.9435 -0.3577
  120OSM    H7G12644   3.955   4.233   6.359  1.6790  0.0871 -0.4264
  120OSM    C8F12645   3.835   4.160   6.193 -0.0606  0.2619 -0.2219
  120OSM    H8F12646   3.803   4.206   6.097 -0.4604 -1.3364 -0.8889
  120OSM    H8G12647   3.746   4.121   6.246  0.4332 -0.6886 -0.0827
  120OSM    C9F12648   3.917   4.035   6.181  0.4838  0.4337  0.2192
  120OSM    H9F12649   3.925   3.985   6.279 -0.8763  1.0799  0.6908
  120OSM   C10F12650   3.992   3.996   6.076 -0.2667  0.0489 -0.2819
  120OSM   H10F12651   4.039   3.896   6.081  1.3350  0.7088 -1.4895
  120OSM   C11F12652   3.989   4.056   5.941  0.0243  0.1819 -0.8533
  120OSM   H11F12653   3.945   4.158   5.941  1.5160  0.8695  0.1995
  120OSM   H11G12654   3.947   3.991   5.861  1.2441 -0.3047 -1.1174
  120OSM   C12F12655   4.134   4.072   5.899  0.4116  0.0371  0.4733
  120OSM   H12F12656   4.175   3.969   5.895 -0.9703 -0.5016 -0.2163
  120OSM   H12G12657   4.194   4.121   5.978  2.2411 -0.1449 -0.7412
  120OSM   C13F12658   4.143   4.135   5.756 -0.1845  0.6263  0.7639
  120OSM   H13F12659   4.158   4.245   5.758  2.7593  0.2838  1.4532
  120OSM   H13G12660   4.046   4.110   5.707  0.2865 -0.9983  0.6088
  120OSM   C14F12661   4.249   4.057   5.668 -0.4947  0.1991  0.1301
  120OSM   H14F12662   4.245   3.948   5.690  1.0382  0.6918  3.5116
  120OSM   H14G12663   4.349   4.091   5.700 -1.5657  3.7654  0.0527
  120OSM   C15F12664   4.224   4.062   5.519  0.2831  0.0021 -0.3090
  120OSM   H15F12665   4.194   4.165   5.491 -0.6880 -1.0797 -3.6064
  120OSM   H15G12666   4.137   4.000   5.489  0.4340  0.1087 -0.9775
  120OSM   C16F12667   4.361   4.033   5.460  0.5499 -0.0232  0.4292
  120OSM   H16F12668   4.407   3.951   5.520 -2.1403 -2.5856 -0.7468
  120OSM   H16G12669   4.437   4.114   5.468  0.6534 -0.0147 -0.5417
  120OSM   C17F12670   4.352   4.003   5.310 -0.0190 -0.2555 -0.2976
  120OSM   H17F12671   4.282   3.918   5.292 -1.1202  0.9915 -2.3493
  120OSM   H17G12672   4.449   3.959   5.278 -0.2874 -0.8037 -0.3774
  120OSM   C18F12673   4.309   4.107   5.208  1.0847 -0.3659  0.2110
  120OSM   H18F12674   4.289   4.069   5.105  1.0511  0.6772 -0.1850
  120OSM   H18G12675   4.378   4.193   5.197  0.0400  0.6532  1.2573
  120OSM   H18H12676   4.213   4.148   5.248  2.2122  0.4354  2.2330
  121OSM      N12677   5.434   1.436   7.045  0.1548 -0.4518 -0.1346
  121OSM    C1512678   5.527   1.526   7.131 -0.6452  0.1556 -0.7640
  121OSM   H15A12679   5.520   1.499   7.236 -0.8952 -0.9336 -1.0459
  121OSM   H15B12680   5.498   1.629   7.122  2.8626  1.1933 -1.8798
  121OSM   H15C12681   5.627   1.531   7.091 -0.9173  0.2105 -1.4481
  121OSM    C1412682   5.295   1.437   7.100 -0.7468  0.0588  0.6853
  121OSM   H14A12683   5.256   1.536   7.080  1.3192  0.5066 -1.7384
  121OSM   H14B12684   5.300   1.405   7.203 -2.2910  0.4651  0.9125
  121OSM   H14C12685   5.233   1.364   7.051  0.0442  0.8271 -1.5725
  121OSM    C1312686   5.421   1.514   6.919  0.4112 -0.5346  0.2500
  121OSM   H13A12687   5.517   1.526   6.873  2.3486 -1.1926  3.7461
  121OSM   H13B12688   5.366   1.606   6.939 -1.5379 -0.9925 -2.4514
  121OSM   H13C12689   5.363   1.466   6.841  1.7249 -1.0513 -0.4285
  121OSM    C1212690   5.485   1.296   7.033 -0.4849 -0.5447 -0.6776
  121OSM   H12A12691   5.469   1.260   7.133  0.6780  0.9269  0.0752
  121OSM   H12B12692   5.591   1.291   7.012 -0.9130  0.1445 -3.4526
  121OSM    C1112693   5.426   1.200   6.933 -0.0484  0.6278 -0.5988
  121OSM   H11A12694   5.478   1.102   6.940  1.5763  1.3378 -2.0480
  121OSM   H11B12695   5.452   1.231   6.830  1.8080  1.2734  0.0314
  121OSM      P12696   5.200   1.085   7.014  0.0081  0.4295 -0.1883
  121OSM    O1312697   5.262   1.043   7.142 -0.3431  0.5130  0.6438
  121OSM    O1412698   5.062   1.141   7.029  0.0538  0.7727 -0.2130
  121OSM    O1112699   5.188   0.960   6.915  0.2023 -0.6389 -0.5294
  121OSM    O1212700   5.283   1.192   6.936  0.4990 -0.0636  0.7165
  121OSM    C1S12701   5.114   0.967   6.792  0.1315 -0.8803  0.6133
  121OSM    H1S12702   5.052   1.059   6.786  0.7451 -0.5623 -1.5145
  121OSM    H1T12703   5.049   0.878   6.788 -0.8236 -0.1300 -1.6595
  121OSM     NF12704   5.148   0.939   6.543 -0.5011  0.1441 -0.3666
  121OSM    HNF12705   5.166   0.852   6.499  1.5083 -0.0760  0.7815
  121OSM    C2S12706   5.214   0.949   6.672 -0.0778 -1.0358 -0.9217
  121OSM    H2S12707   5.280   1.038   6.673 -0.5649 -0.5975  2.3742
  121OSM    C3S12708   5.314   0.834   6.688 -0.1779 -0.0813  0.1702
  121OSM    H3S12709   5.252   0.742   6.690  1.9956 -1.7541 -2.6890
  121OSM     O312710   5.385   0.825   6.808 -0.1638  0.4061 -0.1687
  121OSM    HO312711   5.342   0.890   6.864 -0.5990  0.8408 -0.9939
  121OSM    C4S12712   5.397   0.824   6.563  0.2192  0.0024  0.2054
  121OSM    H4S12713   5.446   0.923   6.556  1.0052  0.1171  4.4960
  121OSM    C5S12714   5.415   0.719   6.482  0.0968 -0.0328  0.0697
  121OSM    H5S12715   5.354   0.630   6.500  0.1599  0.0268  0.5853
  121OSM    C6S12716   5.492   0.730   6.352 -0.3461 -0.3077 -0.3646
  121OSM    H6S12717   5.560   0.642   6.344  0.9595  0.7248 -0.8870
  121OSM    H6T12718   5.558   0.819   6.341  0.2231 -0.5409  0.9229
  121OSM    C7S12719   5.379   0.731   6.246 -0.7605 -0.0219  0.3908
  121OSM    H7S12720   5.323   0.825   6.267 -0.9395 -0.1762  0.6110
  121OSM    H7T12721   5.313   0.643   6.265  0.2790 -0.9752 -0.2927
  121OSM    C8S12722   5.434   0.711   6.102  0.1167  0.7636  0.5271
  121OSM    H8S12723   5.465   0.604   6.098 -4.0625 -0.6676  1.6591
  121OSM    H8T12724   5.513   0.788   6.086  0.3260  0.7983  1.6348
  121OSM    C9S12725   5.325   0.735   5.993 -0.1233  0.0536 -0.0463
  121OSM    H9S12726   5.277   0.832   6.018  0.9480  0.3629  0.9019
  121OSM    H9T12727   5.244   0.659   6.003 -2.3067  2.2963  0.4167
  121OSM   C10S12728   5.391   0.744   5.854 -0.3175  0.3024 -0.4344
  121OSM   H10S12729   5.438   0.645   5.838 -0.4049  0.2132 -0.1483
  121OSM   H10T12730   5.474   0.818   5.854  0.0282 -0.0822 -0.4607
  121OSM   C11S12731   5.289   0.768   5.743  0.3462 -0.3998 -0.0553
  121OSM   H11S12732   5.237   0.863   5.769 -1.0729 -0.7468 -1.5027
  121OSM   H11T12733   5.211   0.690   5.753 -0.2832  0.4227  1.8512
  121OSM   C12S12734   5.341   0.769   5.601  0.0707  0.0600 -0.7413
  121OSM   H12S12735   5.393   0.675   5.575  1.5631  1.6513 -4.2155
  121OSM   H12T12736   5.425   0.841   5.589  2.6574 -2.6866 -0.2953
  121OSM   C13S12737   5.224   0.780   5.501 -0.2777 -0.6148 -0.0790
  121OSM   H13S12738   5.184   0.884   5.512  0.8759 -0.1051 -0.4886
  121OSM   H13T12739   5.139   0.710   5.514 -0.1543 -1.3544 -2.6648
  121OSM   C14S12740   5.264   0.758   5.364 -0.0647 -0.0490  0.3186
  121OSM   H14S12741   5.321   0.664   5.350  0.5744  0.2221  1.0118
  121OSM   H14T12742   5.321   0.845   5.325 -2.4423  0.9388 -1.1859
  121OSM   C15S12743   5.145   0.768   5.272 -0.5138  0.1316 -0.1241
  121OSM   H15S12744   5.079   0.856   5.289 -3.2727 -1.5946 -1.1888
  121OSM   H15T12745   5.086   0.675   5.286  0.5448 -1.0005 -2.6637
  121OSM   C16S12746   5.174   0.763   5.119 -0.3651  0.3356  0.4785
  121OSM   H16S12747   5.186   0.869   5.086 -1.7947  0.2374 -0.4853
  121OSM   H16T12748   5.080   0.741   5.064 -0.6881  3.3764 -0.3826
  121OSM   C17S12749   5.284   0.675   5.065 -0.1767 -0.4213  0.3828
  121OSM   H17S12750   5.266   0.585   5.127 -2.3850 -0.2044  0.1492
  121OSM   H17T12751   5.386   0.707   5.094 -0.0133 -0.0174 -0.5818
  121OSM   C18S12752   5.271   0.637   4.915 -0.1400  0.3251  0.6021
  121OSM   H18S12753   5.170   0.604   4.882  0.5386 -0.6881 -0.5479
  121OSM   H18T12754   5.345   0.560   4.886 -0.2570  0.0665  0.9733
  121OSM   H18U12755   5.300   0.729   4.861 -0.0265 -0.2083 -0.2582
  121OSM    C1F12756   5.062   1.037   6.496 -0.3885 -0.3724 -0.0702
  121OSM     OF12757   5.056   1.146   6.551 -0.0380  0.4798 -0.2488
  121OSM    C2F12758   4.997   1.005   6.363 -0.3965  0.0253  0.5139
  121OSM    H2F12759   4.919   0.930   6.386 -0.2340 -0.6832 -1.1224
  121OSM    H2G12760   5.068   0.969   6.286 -2.5384 -1.5665 -0.8353
  121OSM    C3F12761   4.921   1.133   6.325  0.1646 -0.5319  0.0596
  121OSM    H3F12762   4.994   1.216   6.307 -0.5780  0.5704  1.7758
  121OSM    H3G12763   4.853   1.160   6.409  1.4591  0.2404  0.9094
  121OSM    C4F12764   4.838   1.110   6.197 -0.8660 -0.2316  0.1070
  121OSM    H4F12765   4.766   1.193   6.180 -0.6070 -0.4235 -2.1573
  121OSM    H4G12766   4.781   1.014   6.205  0.9173 -1.2608  0.9769
  121OSM    C5F12767   4.924   1.098   6.073  1.1274 -0.1724 -0.1326
  121OSM    H5F12768   4.989   1.008   6.080  2.3069  0.6563 -0.1134
  121OSM    H5G12769   4.986   1.190   6.080 -1.8093  1.8291  2.1112
  121OSM    C6F12770   4.836   1.099   5.945 -0.0332 -0.5069 -0.7978
  121OSM    H6F12771   4.778   1.193   5.939  0.6909  0.1614  1.4977
  121OSM    H6G12772   4.771   1.009   5.949 -1.3966  0.4559 -0.7389
  121OSM    C7F12773   4.921   1.103   5.813 -0.0512 -0.1496  0.4409
  121OSM    H7F12774   5.006   1.033   5.809 -0.4234 -0.5759 -1.9722
  121OSM    H7G12775   4.952   1.210   5.803 -0.8868  0.1489  0.8997
  121OSM    C8F12776   4.827   1.082   5.698  0.2314 -0.1907 -0.4696
  121OSM    H8F12777   4.879   1.117   5.606 -0.0622 -4.0564 -2.2879
  121OSM    H8G12778   4.739   1.149   5.713 -0.5996 -0.9955 -1.5666
  121OSM    C9F12779   4.779   0.936   5.677  0.0900 -0.1922  0.8996
  121OSM    H9F12780   4.810   0.872   5.761 -0.5818 -1.0796  0.4860
  121OSM   C10F12781   4.722   0.879   5.568 -0.0274 -0.0335  0.5882
  121OSM   H10F12782   4.702   0.771   5.574 -0.6220  0.0423  0.0995
  121OSM   C11F12783   4.691   0.946   5.435  0.4037  0.2996 -0.5082
  121OSM   H11F12784   4.737   1.047   5.438  3.7169 -1.1015  0.0240
  121OSM   H11G12785   4.580   0.949   5.427  0.3175  0.1377  0.5976
  121OSM   C12F12786   4.739   0.874   5.301 -0.1771 -0.0948  0.2631
  121OSM   H12F12787   4.770   0.769   5.318 -0.1665 -0.2841 -0.8319
  121OSM   H12G12788   4.833   0.926   5.275 -0.0682  1.1126  2.7690
  121OSM   C13F12789   4.645   0.890   5.180 -0.1957  0.1492 -0.1643
  121OSM   H13F12790   4.636   0.998   5.153 -0.2085 -0.5631 -3.3705
  121OSM   H13G12791   4.545   0.852   5.210  0.4956 -1.7598 -0.1764
  121OSM   C14F12792   4.696   0.811   5.062  0.4859 -0.5808  0.4518
  121OSM   H14F12793   4.720   0.712   5.105  0.2867 -0.8354 -0.0160
  121OSM   H14G12794   4.792   0.859   5.032  0.4449  0.4514  1.8692
  121OSM   C15F12795   4.607   0.811   4.929 -0.0432 -0.0918  0.3644
  121OSM   H15F12796   4.657   0.736   4.864  0.6182  1.7431 -1.3381
  121OSM   H15G12797   4.616   0.902   4.867  1.0558  0.2739  1.0367
  121OSM   C16F12798   4.467   0.765   4.957  0.3571  0.3568  0.0645
  121OSM   H16F12799   4.412   0.844   5.014 -0.4870  0.8284 -1.3658
  121OSM   H16G12800   4.461   0.675   5.022 -1.3253  0.9660  0.8097
  121OSM   C17F12801   4.387   0.738   4.833  0.5152 -0.2093 -0.2467
  121OSM   H17F12802   4.375   0.832   4.776 -0.2841 -1.1478 -1.6909
  121OSM   H17G12803   4.284   0.707   4.863  0.3894 -0.7559 -1.2106
  121OSM   C18F12804   4.455   0.642   4.741  0.6835 -0.3570 -0.0557
  121OSM   H18F12805   4.515   0.572   4.802  2.0673  2.7653  2.4205
  121OSM   H18G12806   4.501   0.701   4.659 -0.1356 -1.0993 -1.0724
  121OSM   H18H12807   4.374   0.576   4.702 -2.2161  2.6373  0.3914
  122OSM      N12808   4.805   2.234   6.886  0.1018 -0.0587 -0.5202
  122OSM    C1512809   4.660   2.181   6.897 -0.2646 -0.3810  0.2605
  122OSM   H15A12810   4.594   2.260   6.865  0.6492  1.2618  2.2171
  122OSM   H15B12811   4.642   2.144   6.997  0.7300 -1.5918  0.0177
  122OSM   H15C12812   4.655   2.108   6.817 -0.1918  0.9189 -0.9623
  122OSM    C1412813   4.815   2.341   6.992 -0.4824  0.6179  0.6281
  122OSM   H14A12814   4.866   2.302   7.079 -0.2689  0.8153  0.5921
  122OSM   H14B12815   4.719   2.386   7.012 -0.2175  1.7204 -0.4209
  122OSM   H14C12816   4.876   2.423   6.956  0.2489 -0.4030 -0.5498
  122OSM    C1312817   4.896   2.126   6.908  0.2182  0.3561 -0.2726
  122OSM   H13A12818   4.871   2.065   6.993 -0.4321 -0.4493 -1.0171
  122OSM   H13B12819   4.997   2.162   6.918  1.3277 -2.7688  0.7237
  122OSM   H13C12820   4.891   2.079   6.811 -0.4102 -0.0496 -0.0467
  122OSM    C1212821   4.820   2.289   6.745 -0.2781 -0.6729  0.0726
  122OSM   H12A12822   4.817   2.219   6.662 -2.0860  1.3472 -1.7102
  122OSM   H12B12823   4.922   2.322   6.747 -1.1334  2.2329  0.2954
  122OSM    C1112824   4.733   2.404   6.700 -0.3350  0.1503 -0.3510
  122OSM   H11A12825   4.758   2.497   6.755  2.8636 -0.2878 -0.8844
  122OSM   H11B12826   4.623   2.390   6.714  0.2689 -2.3472  3.5806
  122OSM      P12827   4.876   2.517   6.510  0.2418 -0.0717 -0.7561
  122OSM    O1312828   4.836   2.655   6.525  0.2177  0.0205  0.0777
  122OSM    O1412829   5.005   2.475   6.576 -0.3709 -0.5821  0.1285
  122OSM    O1112830   4.886   2.492   6.354 -0.0265 -0.2203  0.1109
  122OSM    O1212831   4.755   2.426   6.561 -0.1280 -0.3588 -0.2360
  122OSM    C1S12832   4.763   2.505   6.272 -0.1833 -0.0282  0.0787
  122OSM    H1S12833   4.697   2.587   6.307 -0.6998  0.0765 -1.0974
  122OSM    H1T12834   4.701   2.413   6.285  2.9120 -2.0964  1.4333
  122OSM     NF12835   4.669   2.549   6.063 -0.0992 -0.0038 -0.1834
  122OSM    HNF12836   4.602   2.480   6.036 -0.6938  0.7326 -0.6388
  122OSM    C2S12837   4.794   2.505   6.122  0.0139 -0.9408 -0.1050
  122OSM    H2S12838   4.874   2.580   6.102  0.4422 -1.5467 -0.6802
  122OSM    C3S12839   4.842   2.373   6.069 -0.0045 -0.6828 -0.6893
  122OSM    H3S12840   4.775   2.288   6.094  0.0862 -0.5953 -0.1230
  122OSM     O312841   4.974   2.345   6.127 -0.4991 -0.5277  0.3290
  122OSM    HO312842   4.984   2.422   6.183 -1.9158 -0.9051  1.1701
  122OSM    C4S12843   4.853   2.370   5.920  0.6925  0.8464  0.3468
  122OSM    H4S12844   4.765   2.325   5.872  0.0001 -0.8068  2.9242
  122OSM    C5S12845   4.945   2.421   5.835 -0.1445 -0.5926 -0.2323
  122OSM    H5S12846   5.031   2.466   5.886 -1.6297  0.3209  1.5807
  122OSM    C6S12847   4.937   2.415   5.688  0.2503  0.2536 -0.0962
  122OSM    H6S12848   5.021   2.470   5.641  0.1713  0.0519 -0.4817
  122OSM    H6T12849   4.846   2.449   5.633  0.1261  0.4627  0.2369
  122OSM    C7S12850   4.946   2.265   5.641  0.2053 -0.8180 -0.0016
  122OSM    H7S12851   4.850   2.218   5.672 -0.0275 -0.0433  0.4933
  122OSM    H7T12852   5.027   2.210   5.693 -0.6760 -1.3831  0.8137
  122OSM    C8S12853   4.959   2.247   5.490  0.4387  0.4209  0.8635
  122OSM    H8S12854   4.950   2.138   5.469  2.3020 -0.0020  2.0513
  122OSM    H8T12855   5.062   2.283   5.475 -0.1849  2.9754  2.1387
  122OSM    C9S12856   4.858   2.328   5.397 -0.5490 -0.5602 -0.5408
  122OSM    H9S12857   4.869   2.436   5.421  2.0105 -1.1082  1.2744
  122OSM    H9T12858   4.760   2.289   5.432  0.9112 -3.1353  1.0318
  122OSM   C10S12859   4.877   2.299   5.244 -0.1032 -0.0701  0.1758
  122OSM   H10S12860   4.779   2.321   5.196  0.7903  1.5742 -0.9999
  122OSM   H10T12861   4.891   2.189   5.243  1.5525  0.1136  0.4941
  122OSM   C11S12862   4.998   2.372   5.172  0.4826 -0.3603  0.2588
  122OSM   H11S12863   5.090   2.371   5.234 -0.2372 -0.0962  1.3642
  122OSM   H11T12864   4.962   2.477   5.181 -1.3976 -0.9279 -0.1661
  122OSM   C12S12865   5.020   2.328   5.025  0.1280  0.3636 -0.1098
  122OSM   H12S12866   5.077   2.233   5.029  0.6095  0.6254 -0.7053
  122OSM   H12T12867   5.092   2.389   4.966 -1.3360 -0.0298 -2.4255
  122OSM   C13S12868   4.889   2.317   4.943 -0.3459 -0.2771  0.3582
  122OSM   H13S12869   4.831   2.410   4.962 -2.2304 -1.4586  0.5216
  122OSM   H13T12870   4.832   2.231   4.983 -0.8510 -0.4372 -0.6624
  122OSM   C14S12871   4.899   2.295   4.792  0.5192 -0.0220 -0.4615
  122OSM   H14S12872   4.952   2.385   4.753  2.2866 -0.7242  0.1884
  122OSM   H14T12873   4.807   2.280   4.731  1.2706 -0.7304 -1.4635
  122OSM   C15S12874   4.982   2.170   4.759  0.8391 -0.2999 -0.0942
  122OSM   H15S12875   4.919   2.090   4.803 -0.1549 -0.6298 -2.0080
  122OSM   H15T12876   5.082   2.166   4.808  0.6042 -2.7222  0.3275
  122OSM   C16S12877   4.988   2.117   4.616  0.1084 -0.4674 -0.4710
  122OSM   H16S12878   5.046   2.189   4.553 -1.1643  2.2987  1.3165
  122OSM   H16T12879   4.882   2.111   4.585  0.5870 -2.2271 -1.9440
  122OSM   C17S12880   5.041   1.974   4.592 -0.0295 -0.4411 -0.3722
  122OSM   H17S12881   5.123   1.945   4.660 -0.7403 -0.5473  0.4675
  122OSM   H17T12882   5.076   1.954   4.489 -0.2738  1.1958 -0.8052
  122OSM   C18S12883   4.928   1.872   4.588  0.2958  0.0579  0.3502
  122OSM   H18S12884   4.867   1.876   4.681  1.3139 -2.9734  1.2667
  122OSM   H18T12885   4.955   1.764   4.592 -0.7241 -0.3586 -2.1675
  122OSM   H18U12886   4.866   1.879   4.496  4.5717 -2.2232 -3.1090
  122OSM    C1F12887   4.631   2.680   6.076  0.1312  0.2959  0.2742
  122OSM     OF12888   4.705   2.761   6.141  0.9694 -0.2898  0.2804
  122OSM    C2F12889   4.504   2.716   6.018  0.1616 -0.9459  0.7087
  122OSM    H2F12890   4.446   2.763   6.100 -1.7191  0.2792 -1.2057
  122OSM    H2G12891   4.444   2.638   5.966 -0.0305 -1.6701  1.9614
  122OSM    C3F12892   4.514   2.829   5.907  0.6861  0.0145 -0.2973
  122OSM    H3F12893   4.540   2.926   5.954 -4.0262  1.2124  0.3462
  122OSM    H3G12894   4.414   2.841   5.860  1.1890 -1.4657 -1.8471
  122OSM    C4F12895   4.602   2.786   5.787  0.9333 -0.3413 -0.5482
  122OSM    H4F12896   4.563   2.693   5.742 -2.1770 -1.4191  3.7971
  122OSM    H4G12897   4.704   2.786   5.833  1.9208 -1.0734 -2.6001
  122OSM    C5F12898   4.617   2.892   5.675 -0.1458 -0.1088 -0.4130
  122OSM    H5F12899   4.648   2.982   5.732 -1.3513  0.2915 -0.3672
  122OSM    H5G12900   4.521   2.908   5.622 -1.3290  0.1296  1.6723
  122OSM    C6F12901   4.731   2.855   5.585 -0.3398  0.1210  1.0564
  122OSM    H6F12902   4.823   2.838   5.644  0.8634  1.1203 -0.4641
  122OSM    H6G12903   4.750   2.942   5.518  1.1468  0.2647  1.6375
  122OSM    C7F12904   4.701   2.731   5.495  0.5988 -0.7862  0.2034
  122OSM    H7F12905   4.610   2.741   5.432  0.4646 -0.6996  0.4113
  122OSM    H7G12906   4.699   2.642   5.561  0.0379  0.4568  1.9336
  122OSM    C8F12907   4.809   2.706   5.391  0.5427 -0.5390  0.2185
  122OSM    H8F12908   4.795   2.614   5.332  2.0212 -2.0092  2.0253
  122OSM    H8G12909   4.903   2.680   5.445  1.3255  0.4158 -0.6262
  122OSM    C9F12910   4.824   2.822   5.290 -0.1649  0.1274  0.1048
  122OSM    H9F12911   4.855   2.916   5.339  0.5292  0.3189 -0.6673
  122OSM   C10F12912   4.799   2.837   5.158  0.0297 -0.2024 -0.8009
  122OSM   H10F12913   4.800   2.936   5.112 -0.3202  0.2386  0.1125
  122OSM   C11F12914   4.757   2.730   5.063  0.0625 -0.6163 -1.6201
  122OSM   H11F12915   4.646   2.729   5.058 -0.1003  0.8469  0.5657
  122OSM   H11G12916   4.801   2.634   5.097  1.4948  0.0434 -1.5263
  122OSM   C12F12917   4.817   2.751   4.920  0.1899 -1.2152  0.1062
  122OSM   H12F12918   4.811   2.652   4.870 -0.3876 -0.5357 -1.2334
  122OSM   H12G12919   4.925   2.773   4.932 -0.1115 -0.3709  1.6032
  122OSM   C13F12920   4.734   2.852   4.829  0.6186 -0.0537 -0.3437
  122OSM   H13F12921   4.807   2.859   4.745  5.2406 -2.3871  3.0630
  122OSM   H13G12922   4.720   2.945   4.889 -0.0075 -0.7812  0.6671
  122OSM   C14F12923   4.603   2.790   4.779  0.1643 -0.0943  0.1741
  122OSM   H14F12924   4.541   2.782   4.871  0.5892 -0.9864  0.3884
  122OSM   H14G12925   4.628   2.686   4.750  2.3842  1.0152 -2.4061
  122OSM   C15F12926   4.522   2.863   4.667  0.5246  0.4861 -0.5257
  122OSM   H15F12927   4.471   2.953   4.708 -0.8807 -1.1323  1.5130
  122OSM   H15G12928   4.431   2.805   4.640  0.7578 -0.5797  0.8343
  122OSM   C16F12929   4.601   2.904   4.549 -0.7898  0.1940  0.1213
  122OSM   H16F12930   4.636   2.809   4.503 -1.5031  0.2586 -0.5868
  122OSM   H16G12931   4.697   2.955   4.572 -0.0605 -1.2804  0.4740
  122OSM   C17F12932   4.517   2.968   4.440 -0.0662  0.3619  0.0779
  122OSM   H17F12933   4.421   2.912   4.431  0.3022 -0.4736  1.1454
  122OSM   H17G12934   4.564   2.959   4.340 -0.2225 -2.2586  0.1661
  122OSM   C18F12935   4.500   3.118   4.452 -0.8324  0.1019 -0.7190
  122OSM   H18F12936   4.600   3.166   4.453 -0.6255 -0.2066 -2.4016
  122OSM   H18G12937   4.443   3.155   4.540  0.8576  1.0182  0.0246
  122OSM   H18H12938   4.459   3.166   4.361 -1.0439 -1.4814 -1.5010
  123OSM      N12939   3.716   5.313   2.343  0.1608 -0.7966 -0.1432
  123OSM    C1512940   3.659   5.412   2.247  0.5762 -0.2665 -0.7415
  123OSM   H15A12941   3.718   5.417   2.156  0.3097 -0.3093 -0.9178
  123OSM   H15B12942   3.667   5.510   2.291 -2.1772 -0.1594 -0.2864
  123OSM   H15C12943   3.553   5.396   2.231  0.7156 -1.1536 -0.8217
  123OSM    C1412944   3.625   5.317   2.463  0.4124 -0.7408 -0.4321
  123OSM   H14A12945   3.623   5.421   2.491  2.3193 -1.0944  1.3451
  123OSM   H14B12946   3.660   5.251   2.542 -0.0066 -0.3692  0.0675
  123OSM   H14C12947   3.520   5.299   2.448  0.4921  0.0258 -2.0545
  123OSM    C1312948   3.711   5.176   2.283  0.2121 -0.8782 -0.4078
  123OSM   H13A12949   3.609   5.155   2.257 -0.0652  0.8347 -0.7763
  123OSM   H13B12950   3.757   5.102   2.348 -0.5430  0.8543  2.2552
  123OSM   H13C12951   3.764   5.186   2.190  0.1638  0.2888 -0.3142
  123OSM    C1212952   3.857   5.343   2.378 -0.7095 -0.2235 -0.1023
  123OSM   H12A12953   3.917   5.372   2.294  1.3383  1.4780  1.8227
  123OSM   H12B12954   3.908   5.256   2.417  1.5027  1.1224  0.1493
  123OSM    C1112955   3.890   5.454   2.481  0.2151 -0.2320  0.3855
  123OSM   H11A12956   3.821   5.534   2.448 -2.8240 -2.6798  0.2872
  123OSM   H11B12957   3.994   5.482   2.456 -0.9492  2.8675 -1.5022
  123OSM      P12958   3.836   5.518   2.732  0.4210  0.3295  0.0715
  123OSM    O1312959   3.970   5.570   2.774  0.4035 -0.1879  0.8076
  123OSM    O1412960   3.725   5.608   2.686 -0.4090  0.1991  0.4982
  123OSM    O1112961   3.768   5.432   2.851  0.2143 -0.0388 -0.8388
  123OSM    O1212962   3.869   5.416   2.614 -0.0262 -0.4166  0.1602
  123OSM    C1S12963   3.787   5.293   2.847  0.3311 -0.1201 -0.5934
  123OSM    H1S12964   3.894   5.275   2.871  0.3751 -0.1128 -0.7836
  123OSM    H1T12965   3.771   5.246   2.748  1.1626  0.1592 -0.8750
  123OSM     NF12966   3.752   5.078   2.959 -0.5824  0.1392  1.1872
  123OSM    HNF12967   3.682   5.016   2.924 -0.6726  1.7165 -1.7789
  123OSM    C2S12968   3.715   5.223   2.959  0.3769  1.1147 -0.4954
  123OSM    H2S12969   3.736   5.260   3.062 -0.7214  1.5400 -0.4127
  123OSM    C3S12970   3.564   5.258   2.938  0.7054  0.4984 -0.4876
  123OSM    H3S12971   3.529   5.231   2.836  0.1191 -2.0372  0.3135
  123OSM     O312972   3.528   5.398   2.932  0.3893 -0.9187 -0.5266
  123OSM    HO312973   3.608   5.451   2.925 -0.7070  1.0367  0.7162
  123OSM    C4S12974   3.466   5.185   3.028 -0.7422  0.3724 -0.0241
  123OSM    H4S12975   3.444   5.079   3.006 -0.6813  0.3150  0.1842
  123OSM    C5S12976   3.428   5.227   3.149  0.3174  0.7507 -0.2554
  123OSM    H5S12977   3.475   5.317   3.190  1.6019 -0.4147  0.9139
  123OSM    C6S12978   3.348   5.156   3.251  0.4811  0.1497 -0.4666
  123OSM    H6S12979   3.286   5.072   3.212  0.4665  0.3491 -0.8827
  123OSM    H6T12980   3.287   5.229   3.308 -0.1119  0.4541 -1.4630
  123OSM    C7S12981   3.445   5.083   3.346  0.1666 -0.6149  0.5828
  123OSM    H7S12982   3.528   5.154   3.369  0.9461 -1.3931  0.2318
  123OSM    H7T12983   3.490   4.999   3.288 -0.2327 -0.9245  0.7214
  123OSM    C8S12984   3.380   5.065   3.485 -0.7061  0.0407 -0.1755
  123OSM    H8S12985   3.281   5.015   3.488 -0.1539 -1.5934 -3.8705
  123OSM    H8T12986   3.357   5.168   3.519  2.1086  0.2740  1.3887
  123OSM    C9S12987   3.464   4.983   3.578 -0.0140  0.3916  0.1842
  123OSM    H9S12988   3.562   5.034   3.578 -1.0711  2.5510  0.5400
  123OSM    H9T12989   3.477   4.879   3.540  1.9249  0.9313 -0.7313
  123OSM   C10S12990   3.408   5.000   3.726 -0.1639  0.2706  0.2838
  123OSM   H10S12991   3.316   4.939   3.741  0.6406 -0.5463  2.2206
  123OSM   H10T12992   3.377   5.106   3.743 -1.3599  0.1226 -0.8221
  123OSM   C11S12993   3.504   4.963   3.839 -0.2559  0.8751  0.4394
  123OSM   H11S12994   3.607   4.973   3.800 -1.2480 -0.0384 -2.7625
  123OSM   H11T12995   3.466   4.862   3.864 -2.7886  1.4351 -0.7402
  123OSM   C12S12996   3.487   5.055   3.964  0.3558  0.6515  0.4557
  123OSM   H12S12997   3.380   5.065   3.994  0.2912  0.2571  0.3638
  123OSM   H12T12998   3.507   5.156   3.923 -1.8048  1.4812  1.2909
  123OSM   C13S12999   3.571   5.014   4.080 -0.4358 -0.6181  0.4767
  123OSM   H13S13000   3.681   5.023   4.063 -0.4713  0.7227  0.8815
  123OSM   H13T13001   3.558   4.904   4.093  0.9573 -0.8802 -0.1863
  123OSM   C14S13002   3.534   5.077   4.215 -0.2107 -0.2086 -0.2046
  123OSM   H14S13003   3.433   5.060   4.257 -0.6001  1.4249 -0.4418
  123OSM   H14T13004   3.543   5.187   4.212 -1.7818 -0.0808 -2.2160
  123OSM   C15S13005   3.626   5.046   4.329  0.0856  0.1292  0.0434
  123OSM   H15S13006   3.621   4.936   4.347 -1.2371 -0.0244 -1.0520
  123OSM   H15T13007   3.579   5.083   4.423  0.8861 -0.8779  0.8725
  123OSM   C16S13008   3.767   5.092   4.315  0.4071  0.1824  1.0657
  123OSM   H16S13009   3.806   5.022   4.238  0.5071  1.8994 -0.5000
  123OSM   H16T13010   3.824   5.097   4.411 -0.0405  1.7363  1.2811
  123OSM   C17S13011   3.775   5.228   4.245 -0.5983  0.2767  0.4708
  123OSM   H17S13012   3.725   5.302   4.311 -1.8303  1.7689 -2.0065
  123OSM   H17T13013   3.726   5.230   4.145  0.3925 -0.4426 -0.0526
  123OSM   C18S13014   3.926   5.255   4.226 -0.1313  0.2850 -0.1931
  123OSM   H18S13015   3.977   5.263   4.324 -0.1282 -1.7003 -0.0016
  123OSM   H18T13016   3.940   5.353   4.175  1.8173 -0.4502 -1.2089
  123OSM   H18U13017   3.967   5.198   4.140 -1.4839  1.6573 -1.8341
  123OSM    C1F13018   3.872   5.043   2.998  0.1255  0.3217  0.3463
  123OSM     OF13019   3.947   5.130   3.047  0.3606 -0.4806  0.4417
  123OSM    C2F13020   3.919   4.899   2.993 -0.0380  0.2430  0.6237
  123OSM    H2F13021   4.015   4.903   2.939 -0.3344  2.5493  0.1723
  123OSM    H2G13022   3.844   4.835   2.942 -0.1822 -0.7182  1.9724
  123OSM    C3F13023   3.929   4.835   3.129  0.3115 -0.4452  0.0392
  123OSM    H3F13024   3.997   4.891   3.197 -2.6937  2.0283  1.2142
  123OSM    H3G13025   3.966   4.732   3.111  1.5577  0.0104 -0.1159
  123OSM    C4F13026   3.791   4.817   3.196  0.4047  0.5316 -0.6850
  123OSM    H4F13027   3.721   4.753   3.139  0.4650  0.6100 -0.8479
  123OSM    H4G13028   3.744   4.916   3.213 -0.9974 -0.3594  0.8559
  123OSM    C5F13029   3.801   4.754   3.340  0.3649  0.5860  0.4320
  123OSM    H5F13030   3.841   4.819   3.420 -0.4549  1.5266  0.1008
  123OSM    H5G13031   3.873   4.670   3.329  0.6587  1.0579 -1.7537
  123OSM    C6F13032   3.668   4.688   3.391  0.2898  0.3767 -0.0958
  123OSM    H6F13033   3.658   4.596   3.330 -1.0615 -1.7949  3.1433
  123OSM    H6G13034   3.591   4.760   3.353  0.4187  0.9961  0.7821
  123OSM    C7F13035   3.654   4.661   3.539  0.5191 -0.8705 -0.1013
  123OSM    H7F13036   3.561   4.603   3.562  0.1907  0.4123  2.0338
  123OSM    H7G13037   3.661   4.755   3.597  3.4121  2.0152 -4.5279
  123OSM    C8F13038   3.772   4.573   3.588  0.3800  0.1619  0.0360
  123OSM    H8F13039   3.869   4.626   3.575  0.6212 -0.3567 -0.3467
  123OSM    H8G13040   3.770   4.473   3.539  0.8253 -1.1012  2.4147
  123OSM    C9F13041   3.759   4.527   3.732 -0.5463  0.5361  0.1741
  123OSM    H9F13042   3.656   4.509   3.765 -0.3441 -1.1399 -0.0073
  123OSM   C10F13043   3.859   4.486   3.817 -0.3910 -0.0928 -0.7237
  123OSM   H10F13044   3.832   4.450   3.917  2.0651 -0.7152 -0.2171
  123OSM   C11F13045   4.009   4.475   3.780  0.1973 -0.1683  0.2787
  123OSM   H11F13046   4.015   4.466   3.669  2.6435 -1.8292  0.4572
  123OSM   H11G13047   4.062   4.387   3.823  3.5680  1.3407 -0.4425
  123OSM   C12F13048   4.086   4.604   3.819 -0.0104  0.5012  0.3870
  123OSM   H12F13049   4.050   4.691   3.760  0.8533 -0.5831 -1.8581
  123OSM   H12G13050   4.190   4.590   3.783  0.6755  1.6875  1.7958
  123OSM   C13F13051   4.093   4.636   3.968 -0.5472 -0.3466 -0.0869
  123OSM   H13F13052   4.125   4.549   4.029  0.7778  0.5815  0.6013
  123OSM   H13G13053   3.992   4.661   4.006 -0.0945  1.8959 -0.2412
  123OSM   C14F13054   4.186   4.759   3.995  0.5767  0.3168 -0.4140
  123OSM   H14F13055   4.162   4.839   3.922 -0.9600 -0.7711 -1.1572
  123OSM   H14G13056   4.289   4.724   3.972  0.3109 -0.5845 -0.2916
  123OSM   C15F13057   4.153   4.824   4.135 -0.1579  0.0736 -0.5363
  123OSM   H15F13058   4.151   4.741   4.209  0.2819  0.0333 -0.5690
  123OSM   H15G13059   4.047   4.858   4.133 -0.5340 -0.9217  1.0890
  123OSM   C16F13060   4.249   4.944   4.173  0.1998 -0.4624  0.0058
  123OSM   H16F13061   4.233   5.029   4.103 -3.2368  0.1550  1.3016
  123OSM   H16G13062   4.354   4.910   4.179  0.5578  0.6206  0.0209
  123OSM   C17F13063   4.231   4.993   4.319  0.8151 -0.4398 -0.6443
  123OSM   H17F13064   4.238   4.909   4.391 -1.8119  2.1702  3.0493
  123OSM   H17G13065   4.126   5.026   4.334  0.4188 -1.8754 -0.0734
  123OSM   C18F13066   4.324   5.098   4.367 -0.3080 -0.1353  0.2747
  123OSM   H18F13067   4.351   5.172   4.289  0.5399 -1.1606 -0.4145
  123OSM   H18G13068   4.417   5.058   4.414  1.0223  0.1716 -1.9878
  123OSM   H18H13069   4.269   5.156   4.445 -2.4325 -0.8455 -0.6071
  124OSM      N13070   1.900   5.242   1.656 -0.2039 -0.0821 -0.4962
  124OSM    C1513071   1.821   5.367   1.702 -0.2921  0.1965  0.5126
  124OSM   H15A13072   1.794   5.445   1.632  3.9139  0.7860 -0.6960
  124OSM   H15B13073   1.887   5.422   1.766  0.9899 -1.2281  0.4668
  124OSM   H15C13074   1.741   5.341   1.770  0.4886  1.5097  1.9919
  124OSM    C1413075   1.793   5.142   1.616  0.6071  0.2247  0.0745
  124OSM   H14A13076   1.709   5.183   1.563 -1.1214 -0.8493  1.8552
  124OSM   H14B13077   1.751   5.098   1.705 -0.9384  0.3748 -0.5613
  124OSM   H14C13078   1.840   5.059   1.566  1.4573 -0.8590  2.5092
  124OSM    C1313079   1.978   5.273   1.534  0.1311  0.1781  1.1440
  124OSM   H13A13080   1.926   5.283   1.440  1.0052 -1.2710  0.4633
  124OSM   H13B13081   2.047   5.193   1.511  1.4176  0.9952  1.9759
  124OSM   H13C13082   2.031   5.367   1.547  2.7915 -1.0723  0.0961
  124OSM    C1213083   2.003   5.189   1.758 -0.1492 -0.2916 -0.0889
  124OSM   H12A13084   2.089   5.254   1.752 -1.1537  0.9707 -1.4273
  124OSM   H12B13085   2.038   5.099   1.710  0.9821  0.6959 -1.1735
  124OSM    C1113086   1.962   5.169   1.908  0.2082  0.3424 -0.3133
  124OSM   H11A13087   2.043   5.113   1.961  0.5801  0.6335 -0.5711
  124OSM   H11B13088   1.863   5.119   1.909  0.6170 -0.4709 -0.1599
  124OSM      P13089   2.041   5.383   2.048  0.3053  0.0379 -0.2471
  124OSM    O1313090   2.180   5.356   2.003  0.2699  0.5885  0.8046
  124OSM    O1413091   2.002   5.521   2.040  0.8039 -0.7361  0.0493
  124OSM    O1113092   2.029   5.341   2.208 -0.2140  0.1445  0.1248
  124OSM    O1213093   1.936   5.300   1.977 -0.2036  0.3395  0.9553
  124OSM    C1S13094   1.898   5.340   2.257 -0.5014  0.1699 -0.2848
  124OSM    H1S13095   1.840   5.250   2.230  1.2961 -1.0691 -0.2141
  124OSM    H1T13096   1.838   5.423   2.214  0.8330  1.8478  0.9262
  124OSM     NF13097   1.753   5.338   2.462  0.1102  0.1672 -0.4977
  124OSM    HNF13098   1.718   5.419   2.509  0.2722  0.2482 -0.5148
  124OSM    C2S13099   1.890   5.358   2.416  0.5599 -0.3488 -0.4056
  124OSM    H2S13100   1.963   5.281   2.450 -0.7378 -0.3055  2.7708
  124OSM    C3S13101   1.950   5.498   2.452  0.5192 -0.4596  0.8322
  124OSM    H3S13102   1.882   5.570   2.401  1.1594 -2.4234 -3.2397
  124OSM     O313103   2.071   5.520   2.383 -0.0861 -0.5107 -0.0234
  124OSM    HO313104   2.088   5.442   2.330  1.6093 -0.4679  0.3856
  124OSM    C4S13105   1.965   5.515   2.608  0.6961 -0.0153  0.4582
  124OSM    H4S13106   2.025   5.434   2.652 -0.3397 -1.3940 -0.6187
  124OSM    C5S13107   1.904   5.614   2.674 -0.2614  0.8196 -0.5211
  124OSM    H5S13108   1.855   5.693   2.615  0.0206 -0.0216 -1.9091
  124OSM    C6S13109   1.921   5.637   2.824  0.5459  0.1040  0.2786
  124OSM    H6S13110   1.821   5.654   2.868  0.6127  2.9500 -0.5208
  124OSM    H6T13111   1.968   5.737   2.834  0.4231  0.0376  1.8132
  124OSM    C7S13112   1.993   5.524   2.906  0.0710  0.3760  0.5305
  124OSM    H7S13113   2.095   5.513   2.862 -0.8225  1.3529 -1.9830
  124OSM    H7T13114   1.932   5.432   2.899  1.2780 -0.4069 -0.0604
  124OSM    C8S13115   2.008   5.549   3.057 -0.4627 -0.5430  0.3501
  124OSM    H8S13116   1.906   5.558   3.100 -1.0254  1.0095 -1.2113
  124OSM    H8T13117   2.051   5.651   3.069 -1.2515 -0.1184 -0.3794
  124OSM    C9S13118   2.107   5.443   3.115  0.0742 -0.4227 -0.3483
  124OSM    H9S13119   2.205   5.461   3.066  0.9689 -0.3384  1.3919
  124OSM    H9T13120   2.067   5.341   3.093 -0.3503 -0.4333  0.4704
  124OSM   C10S13121   2.121   5.463   3.271  0.1835  0.3754 -0.0508
  124OSM   H10S13122   2.111   5.572   3.291 -0.0994 -0.1123  2.8747
  124OSM   H10T13123   2.216   5.410   3.295  0.5904  0.9633 -0.3359
  124OSM   C11S13124   2.005   5.394   3.347  0.1189 -0.5016 -0.4895
  124OSM   H11S13125   1.987   5.290   3.315 -1.9900 -0.7959  1.3167
  124OSM   H11T13126   1.913   5.453   3.327  1.4058  1.0783 -2.0285
  124OSM   C12S13127   2.029   5.382   3.499 -0.2176 -0.4627  0.2366
  124OSM   H12S13128   2.138   5.394   3.517 -0.2924 -0.1132  0.4713
  124OSM   H12T13129   1.985   5.285   3.531  2.1608 -1.6751  0.0205
  124OSM   C13S13130   1.971   5.497   3.585 -0.2777 -0.5042  0.2366
  124OSM   H13S13131   1.862   5.515   3.573 -1.1661 -3.8993  2.0415
  124OSM   H13T13132   2.027   5.593   3.585 -2.7729  1.0996  2.6505
  124OSM   C14S13133   1.990   5.454   3.729 -0.0202 -0.0325 -0.5999
  124OSM   H14S13134   2.090   5.408   3.741 -0.0956 -0.2317 -0.7178
  124OSM   H14T13135   1.913   5.382   3.765 -2.3685  3.6418  2.5305
  124OSM   C15S13136   1.980   5.567   3.829  0.3061  0.1012 -0.5631
  124OSM   H15S13137   1.893   5.636   3.830  1.0920  1.1128 -0.1306
  124OSM   H15T13138   2.071   5.629   3.836  0.6344 -0.4680  0.5013
  124OSM   C16S13139   1.992   5.503   3.971  0.2494 -0.8385  0.4847
  124OSM   H16S13140   2.094   5.460   3.974  0.8310  0.5093  1.6913
  124OSM   H16T13141   1.935   5.408   3.972  2.2464 -2.0912 -0.0424
  124OSM   C17S13142   1.985   5.601   4.081 -0.1458 -0.3172 -0.5651
  124OSM   H17S13143   2.013   5.703   4.049 -1.0710  0.3586  0.7180
  124OSM   H17T13144   2.065   5.575   4.154 -0.6782 -0.6023 -0.0749
  124OSM   C18S13145   1.849   5.593   4.160 -0.1494  0.6014  0.0429
  124OSM   H18S13146   1.768   5.609   4.087  0.0678  0.8000 -0.1569
  124OSM   H18T13147   1.840   5.681   4.228  0.4200  1.7779 -1.3680
  124OSM   H18U13148   1.822   5.497   4.209 -2.2113 -0.1575 -2.4192
  124OSM    C1F13149   1.688   5.225   2.451 -0.4199  0.0932  0.2153
  124OSM     OF13150   1.740   5.114   2.433 -0.3563  0.3838 -0.4829
  124OSM    C2F13151   1.544   5.229   2.461  0.3726 -0.4055 -0.6030
  124OSM    H2F13152   1.516   5.204   2.356  3.1037 -3.9451 -0.6714
  124OSM    H2G13153   1.511   5.333   2.485 -2.1362 -1.3563  0.4006
  124OSM    C3F13154   1.485   5.136   2.562  1.2801  0.3315 -0.1715
  124OSM    H3F13155   1.516   5.031   2.544  0.6292  0.4161 -2.0919
  124OSM    H3G13156   1.374   5.135   2.556  1.1396  1.1994  1.7343
  124OSM    C4F13157   1.532   5.171   2.698 -0.6311 -0.0106  0.0363
  124OSM    H4F13158   1.451   5.138   2.767 -0.2993  2.8906  1.9940
  124OSM    H4G13159   1.542   5.281   2.694  0.4412 -0.1366 -1.7265
  124OSM    C5F13160   1.665   5.116   2.752  0.5732 -0.1576 -0.2398
  124OSM    H5F13161   1.755   5.138   2.692  0.8228  1.1181  0.5736
  124OSM    H5G13162   1.651   5.007   2.735  0.9084 -0.1480 -0.5995
  124OSM    C6F13163   1.667   5.126   2.904 -0.3421 -0.2097 -0.1560
  124OSM    H6F13164   1.629   5.225   2.938  2.1371  0.9441 -0.5534
  124OSM    H6G13165   1.771   5.133   2.942 -0.6591  0.4459  0.6377
  124OSM    C7F13166   1.598   5.014   2.989 -0.2874  0.2216 -0.3922
  124OSM    H7F13167   1.645   4.921   2.951  2.1675  1.2181 -0.0150
  124OSM    H7G13168   1.488   5.018   2.975 -0.3313 -2.1055 -1.0413
  124OSM    C8F13169   1.648   5.016   3.137 -0.4864 -0.0671 -0.4030
  124OSM    H8F13170   1.627   5.113   3.187 -0.2869  0.6529 -1.6780
  124OSM    H8G13171   1.758   5.001   3.134 -0.5411 -0.4094 -2.5139
  124OSM    C9F13172   1.593   4.898   3.211 -0.4215 -0.6895  0.0363
  124OSM    H9F13173   1.612   4.802   3.161 -1.4639 -1.2010  0.5801
  124OSM   C10F13174   1.517   4.895   3.319 -0.4461  0.0737 -0.5144
  124OSM   H10F13175   1.489   4.791   3.343  1.5192 -0.5579 -0.7842
  124OSM   C11F13176   1.469   5.019   3.393  0.4446 -0.3023 -0.1952
  124OSM   H11F13177   1.428   5.091   3.319 -1.6777 -0.8149  0.4394
  124OSM   H11G13178   1.560   5.066   3.438  0.9511 -0.5047 -0.9859
  124OSM   C12F13179   1.353   4.995   3.484  0.3203  0.0605 -0.3763
  124OSM   H12F13180   1.270   4.956   3.422  1.9916  0.8766 -3.2993
  124OSM   H12G13181   1.310   5.092   3.519 -0.0631 -0.9503  2.2092
  124OSM   C13F13182   1.376   4.896   3.606 -0.2873 -0.0162  0.3319
  124OSM   H13F13183   1.450   4.940   3.677  0.8023 -1.2224 -0.0156
  124OSM   H13G13184   1.409   4.798   3.566 -1.3717  0.3430 -1.5282
  124OSM   C14F13185   1.258   4.875   3.699 -0.1188  0.2297 -0.4596
  124OSM   H14F13186   1.169   4.854   3.636 -0.0954 -2.6955  0.3433
  124OSM   H14G13187   1.246   4.971   3.752  0.7604  1.0601 -1.6984
  124OSM   C15F13188   1.260   4.765   3.808 -0.3829  0.1498  0.0973
  124OSM   H15F13189   1.275   4.673   3.748 -3.2763  0.6445 -1.5603
  124OSM   H15G13190   1.171   4.748   3.871 -1.2599  1.4588 -0.7456
  124OSM   C16F13191   1.376   4.783   3.909 -0.8096 -0.2114  0.2216
  124OSM   H16F13192   1.465   4.825   3.858 -0.1064  0.0099  1.5882
  124OSM   H16G13193   1.421   4.683   3.931  4.0647  1.1511 -2.1683
  124OSM   C17F13194   1.345   4.851   4.040 -0.4420 -0.3644 -0.8260
  124OSM   H17F13195   1.254   4.804   4.084  0.0328 -0.1882  0.3986
  124OSM   H17G13196   1.308   4.952   4.016  1.3400  0.9526  1.5620
  124OSM   C18F13197   1.461   4.858   4.139  0.5198  0.1130  0.0063
  124OSM   H18F13198   1.551   4.897   4.087  1.9081 -2.9347 -0.0783
  124OSM   H18G13199   1.483   4.761   4.188 -1.0389 -0.5459 -0.5282
  124OSM   H18H13200   1.435   4.939   4.210  0.6760  0.3006 -0.1473
  125OSM      N13201   2.255   0.884   2.549 -0.5391  0.3525 -0.0112
  125OSM    C1513202   2.200   0.866   2.684 -0.8910 -0.1478  0.2332
  125OSM   H15A13203   2.288   0.852   2.745 -0.8618  2.5013  0.8766
  125OSM   H15B13204   2.136   0.779   2.683 -0.8250 -0.1981  0.3333
  125OSM   H15C13205   2.139   0.951   2.710  1.2057  1.6215 -0.3655
  125OSM    C1413206   2.320   1.018   2.541  0.3356 -0.3438 -0.0343
  125OSM   H14A13207   2.373   1.025   2.446  0.1056 -0.5199 -0.1778
  125OSM   H14B13208   2.386   1.028   2.625  1.4919 -0.1546 -0.9347
  125OSM   H14C13209   2.247   1.097   2.544 -0.1877 -0.8312  0.0976
  125OSM    C1313210   2.353   0.776   2.519  0.5837  0.0648  0.2770
  125OSM   H13A13211   2.441   0.776   2.582  0.7506  0.7870  0.0520
  125OSM   H13B13212   2.381   0.789   2.416 -1.3216  1.3883 -0.1238
  125OSM   H13C13213   2.308   0.679   2.532  0.5220 -0.1249 -1.1845
  125OSM    C1213214   2.146   0.880   2.444 -0.2369 -0.3906 -0.5611
  125OSM   H12A13215   2.104   0.781   2.443  1.2771 -1.0629 -1.8059
  125OSM   H12B13216   2.191   0.904   2.349  0.7514  1.2809  0.2668
  125OSM    C1113217   2.035   0.989   2.477 -0.6936  0.2143 -0.3807
  125OSM   H11A13218   2.009   0.980   2.585 -0.0701  0.4556 -0.2026
  125OSM   H11B13219   1.940   0.967   2.424 -0.9531 -0.9034  0.4975
  125OSM      P13220   2.006   1.243   2.375  0.1921  0.0085  0.1336
  125OSM    O1313221   2.102   1.358   2.366  0.0804  0.6008 -0.4523
  125OSM    O1413222   1.958   1.185   2.248  0.6667 -0.1617  0.2446
  125OSM    O1113223   1.880   1.287   2.454 -0.2473  0.0507 -0.1756
  125OSM    O1213224   2.074   1.124   2.451  0.4681 -0.2697 -0.1186
  125OSM    C1S13225   1.875   1.261   2.590  0.0306 -0.0764 -0.4068
  125OSM    H1S13226   1.918   1.160   2.609 -0.7994 -0.7577 -1.9576
  125OSM    H1T13227   1.767   1.262   2.616  0.1249 -2.7629  0.4347
  125OSM     NF13228   1.941   1.323   2.811  0.2952 -0.9328  0.0197
  125OSM    HNF13229   1.875   1.365   2.872 -0.2875 -0.5058 -0.8751
  125OSM    C2S13230   1.942   1.376   2.674  0.0158  0.3148  0.2964
  125OSM    H2S13231   2.049   1.389   2.647 -0.2726 -1.0503 -1.7270
  125OSM    C3S13232   1.883   1.516   2.647  0.1405 -0.6547 -0.8788
  125OSM    H3S13233   1.786   1.503   2.700  0.4227 -0.1398 -0.2292
  125OSM     O313234   1.829   1.537   2.517  0.1695 -0.1197  0.4746
  125OSM    HO313235   1.813   1.451   2.477  0.0504 -0.5631  1.4330
  125OSM    C4S13236   1.951   1.627   2.717 -0.4821 -0.2582 -0.3728
  125OSM    H4S13237   1.932   1.632   2.825 -1.2936  1.7500 -0.5647
  125OSM    C5S13238   2.062   1.688   2.673  0.1831 -1.2046  0.4478
  125OSM    H5S13239   2.114   1.646   2.585  1.1306  1.4637 -0.3679
  125OSM    C6S13240   2.138   1.796   2.745  0.1613 -0.1650 -0.0480
  125OSM    H6S13241   2.111   1.896   2.704 -1.1708 -0.3392  0.3746
  125OSM    H6T13242   2.245   1.773   2.725  0.2171  0.5564 -0.6392
  125OSM    C7S13243   2.129   1.805   2.897  0.1391  0.8154 -0.3405
  125OSM    H7S13244   2.023   1.817   2.925  0.1988 -0.5545  0.5884
  125OSM    H7T13245   2.178   1.899   2.930 -0.6369  0.8701  0.6903
  125OSM    C8S13246   2.178   1.678   2.978  0.2540 -0.1133 -0.1687
  125OSM    H8S13247   2.271   1.632   2.938  0.9003  0.1700  0.9511
  125OSM    H8T13248   2.091   1.608   2.983  0.2022 -0.2261 -2.0055
  125OSM    C9S13249   2.189   1.706   3.131 -0.2496 -0.7371 -0.1361
  125OSM    H9S13250   2.294   1.740   3.148 -0.7308  0.7468 -0.0108
  125OSM    H9T13251   2.175   1.611   3.187  0.7906 -0.7514  0.1239
  125OSM   C10S13252   2.085   1.802   3.186 -0.5385  0.4229  0.4673
  125OSM   H10S13253   1.987   1.756   3.163 -0.4886  0.7555 -0.4811
  125OSM   H10T13254   2.100   1.900   3.135  2.3815 -0.3171 -0.3139
  125OSM   C11S13255   2.096   1.824   3.335 -0.2339 -0.3367 -0.1145
  125OSM   H11S13256   2.089   1.727   3.387 -0.7270 -0.4264 -0.3342
  125OSM   H11T13257   2.004   1.875   3.372  0.2533 -0.4509  1.3272
  125OSM   C12S13258   2.218   1.895   3.392  0.8528  0.2015 -0.6008
  125OSM   H12S13259   2.206   1.999   3.355 -0.4129  0.6828  1.0351
  125OSM   H12T13260   2.309   1.840   3.358  1.1852  0.7521 -0.6121
  125OSM   C13S13261   2.230   1.888   3.545 -0.2588 -0.2741  0.1057
  125OSM   H13S13262   2.323   1.916   3.598 -0.1766  1.2294 -0.7444
  125OSM   H13T13263   2.234   1.780   3.568  2.5156 -0.3988 -0.6417
  125OSM   C14S13264   2.120   1.959   3.623  0.1458  0.6134 -0.3351
  125OSM   H14S13265   2.028   1.976   3.563  1.0278 -1.6565 -2.5567
  125OSM   H14T13266   2.152   2.064   3.639 -0.3594  0.8929 -1.0888
  125OSM   C15S13267   2.094   1.872   3.747  0.2276 -0.3495  0.6401
  125OSM   H15S13268   2.053   1.772   3.722  0.0817  0.3542 -2.2781
  125OSM   H15T13269   2.016   1.920   3.810  1.6565  0.8407  1.5650
  125OSM   C16S13270   2.208   1.858   3.850  0.5153  1.2305  0.0048
  125OSM   H16S13271   2.225   1.954   3.902 -0.4218  0.2706  2.2283
  125OSM   H16T13272   2.308   1.834   3.806  0.8591  1.2649  0.7485
  125OSM   C17S13273   2.169   1.750   3.954 -0.0621  0.3265  0.0719
  125OSM   H17S13274   2.146   1.662   3.890  1.7343 -0.0302 -0.1483
  125OSM   H17T13275   2.079   1.782   4.010  0.6436  2.7069 -0.0332
  125OSM   C18S13276   2.290   1.726   4.040 -0.5909 -0.1682  0.3259
  125OSM   H18S13277   2.378   1.694   3.980 -0.3855  1.3683 -0.2576
  125OSM   H18T13278   2.271   1.640   4.108 -3.8245 -1.4657 -1.9868
  125OSM   H18U13279   2.323   1.816   4.097  1.9230 -0.1172 -1.0525
  125OSM    C1F13280   2.012   1.216   2.853  0.1298  0.2306  0.7821
  125OSM     OF13281   2.101   1.167   2.782  0.3378 -0.0210 -0.1476
  125OSM    C2F13282   1.981   1.146   2.987  0.0235 -0.3473 -0.0195
  125OSM    H2F13283   1.870   1.147   2.993 -0.4238 -3.6245 -3.5698
  125OSM    H2G13284   2.036   1.190   3.073  1.4822  1.7251 -1.8977
  125OSM    C3F13285   2.012   0.990   2.977 -0.9766  0.1064 -0.2502
  125OSM    H3F13286   2.122   0.975   2.977 -1.1229 -1.3814  1.7553
  125OSM    H3G13287   1.979   0.943   2.882  2.7318  0.5036 -1.8870
  125OSM    C4F13288   1.962   0.901   3.096 -0.0136 -0.1144  0.3383
  125OSM    H4F13289   1.972   0.794   3.069  0.0685 -0.1810  0.6335
  125OSM    H4G13290   1.853   0.922   3.103  0.2594  1.6302 -0.0603
  125OSM    C5F13291   2.029   0.946   3.229 -0.5733  0.9410  1.8149
  125OSM    H5F13292   2.014   1.055   3.241 -0.1130  1.0896  1.1071
  125OSM    H5G13293   2.137   0.921   3.225 -1.1779 -1.9835  0.7130
  125OSM    C6F13294   1.956   0.883   3.342 -0.5675 -0.3015  0.3264
  125OSM    H6F13295   1.953   0.772   3.338 -0.2263 -0.3910  2.1005
  125OSM    H6G13296   1.851   0.919   3.341 -0.3315  0.4085  0.7378
  125OSM    C7F13297   2.017   0.932   3.473  0.0449  0.7433 -0.4928
  125OSM    H7F13298   2.013   1.043   3.472 -1.1508  0.7113 -1.0146
  125OSM    H7G13299   2.116   0.882   3.485  0.8995  2.4346 -0.0555
  125OSM    C8F13300   1.935   0.881   3.593  0.3332 -0.1042 -0.1486
  125OSM    H8F13301   1.950   0.771   3.597  0.9140  0.0068  2.3463
  125OSM    H8G13302   1.831   0.916   3.577  1.2230  2.9053 -0.0103
  125OSM    C9F13303   1.978   0.945   3.715  0.1590  0.3795 -0.6578
  125OSM    H9F13304   1.957   1.053   3.716  2.3833  0.9388 -3.1190
  125OSM   C10F13305   2.021   0.881   3.826  0.7255 -1.1637 -0.9499
  125OSM   H10F13306   2.044   0.950   3.909 -1.0660 -0.1597 -1.2266
  125OSM   C11F13307   2.028   0.733   3.867  0.2220 -0.0780 -0.4806
  125OSM   H11F13308   2.049   0.655   3.791 -1.2566 -0.3444 -0.6507
  125OSM   H11G13309   1.932   0.718   3.921  0.6814 -0.2997  0.2870
  125OSM   C12F13310   2.136   0.692   3.968 -0.0109  0.1197 -0.0896
  125OSM   H12F13311   2.236   0.711   3.924  0.6316 -0.5715  0.9962
  125OSM   H12G13312   2.127   0.585   3.998 -2.0162 -0.0306 -1.0659
  125OSM   C13F13313   2.154   0.768   4.101 -0.0885  0.0810 -0.0477
  125OSM   H13F13314   2.167   0.878   4.096 -0.0498  0.0975  0.3434
  125OSM   H13G13315   2.245   0.732   4.155  0.2198  0.5717 -0.2327
  125OSM   C14F13316   2.036   0.746   4.200  0.3855  0.4551  0.0267
  125OSM   H14F13317   2.008   0.640   4.213  0.4038  0.5262  0.6976
  125OSM   H14G13318   1.955   0.810   4.158  1.3783  0.1545 -2.5569
  125OSM   C15F13319   2.078   0.798   4.338  0.3840 -1.1809 -0.7509
  125OSM   H15F13320   2.109   0.903   4.323  1.6524 -1.1445  1.6559
  125OSM   H15G13321   2.163   0.738   4.375  0.4576 -0.3362  0.4860
  125OSM   C16F13322   1.951   0.789   4.427  0.3662  0.7245 -0.2627
  125OSM   H16F13323   1.919   0.683   4.419 -0.1095  0.9735 -2.0724
  125OSM   H16G13324   1.865   0.843   4.382 -1.4740 -0.2381  1.8779
  125OSM   C17F13325   1.968   0.844   4.567 -0.3015  0.0187 -0.5881
  125OSM   H17F13326   2.020   0.942   4.577 -2.3901  1.2249 -1.0310
  125OSM   H17G13327   2.041   0.773   4.611 -1.3305 -2.0058 -1.9848
  125OSM   C18F13328   1.853   0.857   4.665 -0.3600  0.7410 -0.1822
  125OSM   H18F13329   1.799   0.952   4.645 -0.1625  0.5986 -1.4913
  125OSM   H18G13330   1.890   0.854   4.770  2.1906 -0.5579 -1.0329
  125OSM   H18H13331   1.773   0.780   4.660 -0.3899  0.5119  2.3594
  126OSM      N13332   0.593   2.944   1.870 -0.2345  0.2946  0.1763
  126OSM    C1513333   0.695   2.918   1.764 -0.3320  0.1408 -0.5003
  126OSM   H15A13334   0.754   3.005   1.743 -1.3590  0.9470 -0.1267
  126OSM   H15B13335   0.645   2.891   1.672  0.3041 -2.9096 -0.0571
  126OSM   H15C13336   0.754   2.830   1.785 -1.4557 -0.8411 -1.2969
  126OSM    C1413337   0.674   2.952   1.996  0.0925  0.1781 -0.4362
  126OSM   H14A13338   0.611   2.960   2.083 -0.5842 -0.6253 -0.8429
  126OSM   H14B13339   0.743   3.034   1.981  1.3354 -0.8543 -0.5449
  126OSM   H14C13340   0.726   2.858   2.008 -1.3148 -0.4615  1.0849
  126OSM    C1313341   0.528   3.079   1.860  0.4362 -0.3950 -0.4876
  126OSM   H13A13342   0.602   3.155   1.839  0.9283 -0.3135  1.3153
  126OSM   H13B13343   0.463   3.095   1.945 -1.2911 -1.1770 -1.6144
  126OSM   H13C13344   0.449   3.075   1.787 -1.1224 -0.4795  1.1452
  126OSM    C1213345   0.487   2.836   1.880 -0.1111  0.7107  0.3597
  126OSM   H12A13346   0.410   2.862   1.952  0.2919  2.0818  0.3269
  126OSM   H12B13347   0.527   2.743   1.917  0.3530  0.6657 -0.2395
  126OSM    C1113348   0.420   2.796   1.751  0.0876 -0.2733  0.1869
  126OSM   H11A13349   0.361   2.702   1.759 -0.8578  0.3974  1.5281
  126OSM   H11B13350   0.494   2.775   1.670 -0.7527  0.5799 -0.8406
  126OSM      P13351   0.187   2.896   1.715  0.3616  0.4636 -0.3677
  126OSM    O1313352   0.129   3.035   1.719 -0.4492  1.0080 -0.2246
  126OSM    O1413353   0.125   2.804   1.616  0.0599 -0.4345  0.0338
  126OSM    O1113354   0.168   2.836   1.861 -0.4040 -0.3812 -0.4481
  126OSM    O1213355   0.342   2.907   1.704  0.5121 -0.7993 -0.6407
  126OSM    C1S13356   0.100   2.711   1.881  0.4544 -0.3999 -0.3393
  126OSM    H1S13357   0.153   2.624   1.838  0.3910 -1.7687  2.1864
  126OSM    H1T13358  -0.000   2.709   1.833  1.1740  0.4125 -1.9792
  126OSM     NF13359   0.044   2.552   2.080 -0.6072 -0.1238 -0.1255
  126OSM    HNF13360  -0.050   2.521   2.091 -0.4155 -1.5704 -2.0269
  126OSM    C2S13361   0.081   2.691   2.041 -0.2653  0.4590  0.0708
  126OSM    H2S13362   0.180   2.714   2.086  0.2472  0.8175 -1.1797
  126OSM    C3S13363  -0.014   2.800   2.097  0.1008  0.1228  0.4914
  126OSM    H3S13364  -0.114   2.783   2.052 -0.0127 -0.4577  0.9511
  126OSM     O313365   0.033   2.930   2.072  0.1962  0.1401 -0.6761
  126OSM    HO313366   0.103   2.917   2.007 -0.9789  0.9530 -2.1602
  126OSM    C4S13367  -0.038   2.781   2.244  0.2368 -0.1566 -0.4234
  126OSM    H4S13368  -0.141   2.753   2.272  0.1343 -0.0021 -0.6447
  126OSM    C5S13369   0.043   2.801   2.348  1.0770 -0.3940  0.2966
  126OSM    H5S13370   0.145   2.840   2.332  1.2522 -1.3154 -0.9737
  126OSM    C6S13371   0.019   2.788   2.495  0.5586 -0.2460 -0.1039
  126OSM    H6S13372   0.009   2.884   2.550 -2.8649 -0.9605  0.7200
  126OSM    H6T13373   0.105   2.742   2.549  0.0117 -1.2683 -0.0696
  126OSM    C7S13374  -0.100   2.709   2.528  0.2507 -0.2351  0.1507
  126OSM    H7S13375  -0.082   2.605   2.494  1.2083 -0.1463  0.3511
  126OSM    H7T13376  -0.193   2.744   2.479 -0.3086 -0.6101  0.9240
  126OSM    C8S13377  -0.128   2.698   2.678  0.0173 -0.4794  0.5830
  126OSM    H8S13378  -0.034   2.687   2.736  0.2037 -3.7898 -0.1546
  126OSM    H8T13379  -0.190   2.607   2.692  0.3450 -0.7828  0.0932
  126OSM    C9S13380  -0.210   2.811   2.737  0.0151 -0.1629  0.3939
  126OSM    H9S13381  -0.317   2.782   2.725  0.2300 -0.5243 -0.7384
  126OSM    H9T13382  -0.187   2.903   2.678  0.2188 -0.5825 -0.1853
  126OSM   C10S13383  -0.176   2.844   2.887 -0.6461  0.3829  0.1319
  126OSM   H10S13384  -0.223   2.935   2.930  0.6800  0.7501  0.8941
  126OSM   H10T13385  -0.066   2.858   2.895 -0.5420 -1.2671  3.0628
  126OSM   C11S13386  -0.214   2.729   2.983  0.8003  0.1538  0.3918
  126OSM   H11S13387  -0.158   2.639   2.949  0.1945  0.2646 -0.9629
  126OSM   H11T13388  -0.324   2.718   2.973  0.9733 -0.5296 -1.1404
  126OSM   C12S13389  -0.170   2.783   3.123 -0.0841  0.0700  0.2790
  126OSM   H12S13390  -0.217   2.881   3.147 -1.7559 -1.1600  2.5263
  126OSM   H12T13391  -0.059   2.787   3.120  0.0078 -1.9814 -1.4001
  126OSM   C13S13392  -0.214   2.691   3.232  0.6553  0.0509  0.4261
  126OSM   H13S13393  -0.153   2.598   3.225  3.1763  1.5721  0.9789
  126OSM   H13T13394  -0.321   2.662   3.220  0.5621  0.5523 -0.0135
  126OSM   C14S13395  -0.188   2.739   3.375 -0.0499  1.0606  0.1745
  126OSM   H14S13396  -0.236   2.840   3.376  1.3710  1.8508 -2.3474
  126OSM   H14T13397  -0.080   2.756   3.394  0.0348  0.8618 -0.1205
  126OSM   C15S13398  -0.257   2.645   3.471 -0.3836  0.7043 -0.5307
  126OSM   H15S13399  -0.240   2.539   3.443  1.3065  1.5163 -2.7925
  126OSM   H15T13400  -0.364   2.669   3.448 -0.8206 -1.5578 -1.0825
  126OSM   C16S13401  -0.205   2.681   3.617  0.3254  0.5147 -0.0061
  126OSM   H16S13402  -0.244   2.785   3.623  0.3482  0.6436 -1.5682
  126OSM   H16T13403  -0.095   2.681   3.602  0.0553 -0.6334 -2.6015
  126OSM   C17S13404  -0.257   2.591   3.732 -0.2020 -0.1081 -0.2845
  126OSM   H17S13405  -0.225   2.486   3.714 -1.1632 -0.3190 -0.8941
  126OSM   H17T13406  -0.368   2.589   3.728 -0.1639 -0.6853 -1.6015
  126OSM   C18S13407  -0.206   2.638   3.867  0.0234 -0.5086 -0.4793
  126OSM   H18S13408  -0.220   2.748   3.881  0.0348 -0.6399  0.6459
  126OSM   H18T13409  -0.098   2.613   3.867  1.0915  3.2384 -2.1023
  126OSM   H18U13410  -0.252   2.574   3.944  0.9438  0.2671  0.7681
  126OSM    C1F13411   0.128   2.449   2.055 -0.0349 -0.1227  0.8634
  126OSM     OF13412   0.228   2.463   1.982 -0.2219  0.0179  0.2687
  126OSM    C2F13413   0.076   2.316   2.110  0.0253  0.4362 -0.2761
  126OSM    H2F13414   0.100   2.242   2.031  0.8108  1.5797 -1.1372
  126OSM    H2G13415  -0.035   2.325   2.109  0.0922  1.3293 -0.1498
  126OSM    C3F13416   0.119   2.279   2.256  0.2904 -0.1061 -0.2596
  126OSM    H3F13417   0.228   2.266   2.271  0.2019 -1.8534 -0.9111
  126OSM    H3G13418   0.064   2.184   2.276  0.3726  0.0100  0.5336
  126OSM    C4F13419   0.088   2.390   2.363 -0.0177  0.5329  0.3714
  126OSM    H4F13420  -0.015   2.429   2.370 -0.4286  0.1809 -2.5579
  126OSM    H4G13421   0.159   2.467   2.326  1.6193 -2.2906 -2.9658
  126OSM    C5F13422   0.127   2.347   2.501 -0.6055 -0.8923  0.1569
  126OSM    H5F13423   0.143   2.441   2.558  0.0665  0.4542 -2.1242
  126OSM    H5G13424   0.229   2.304   2.500  0.5905  1.7204 -1.0876
  126OSM    C6F13425   0.035   2.247   2.571 -0.6870  0.0192  0.2389
  126OSM    H6F13426   0.062   2.142   2.547 -1.3280 -0.0237 -0.3456
  126OSM    H6G13427  -0.070   2.274   2.546 -0.5978  0.8616  0.7271
  126OSM    C7F13428   0.036   2.252   2.728 -0.5453  0.0875  0.5683
  126OSM    H7F13429   0.007   2.357   2.747 -1.2472  0.2900 -1.4702
  126OSM    H7G13430   0.137   2.224   2.767 -0.5881  0.6177  1.0712
  126OSM    C8F13431  -0.088   2.173   2.787 -0.7852  0.4480 -0.1434
  126OSM    H8F13432  -0.113   2.080   2.731 -1.0506  0.7280 -0.4893
  126OSM    H8G13433  -0.164   2.252   2.771 -0.7738 -0.0795 -3.7550
  126OSM    C9F13434  -0.066   2.136   2.932  0.0386  0.3675 -0.5084
  126OSM    H9F13435   0.027   2.087   2.964 -0.5109  1.3718  3.0348
  126OSM   C10F13436  -0.149   2.171   3.036 -0.1322 -0.2825  0.0828
  126OSM   H10F13437  -0.116   2.149   3.139  1.4980 -2.4663 -0.8286
  126OSM   C11F13438  -0.277   2.256   3.039  0.0092 -0.4803  0.2438
  126OSM   H11F13439  -0.338   2.232   2.949  0.2455  1.0168 -0.3428
  126OSM   H11G13440  -0.254   2.364   3.049 -0.3987 -0.3773  0.0955
  126OSM   C12F13441  -0.375   2.220   3.148  0.3689  0.1777 -0.1109
  126OSM   H12F13442  -0.398   2.113   3.125 -0.4877 -0.0478  1.6240
  126OSM   H12G13443  -0.463   2.286   3.133  0.6510  0.6149  0.1322
  126OSM   C13F13444  -0.330   2.226   3.300  0.1862  0.1955  0.0496
  126OSM   H13F13445  -0.270   2.318   3.313 -0.0765  0.3200  0.3788
  126OSM   H13G13446  -0.272   2.136   3.327 -0.8540  0.1419  2.3082
  126OSM   C14F13447  -0.459   2.240   3.393 -0.2322 -0.4378  0.0992
  126OSM   H14F13448  -0.531   2.158   3.372 -1.3693  0.6788 -0.4388
  126OSM   H14G13449  -0.491   2.339   3.355  4.5468  0.5437 -2.1758
  126OSM   C15F13450  -0.419   2.235   3.535 -0.9218  0.4699 -0.3744
  126OSM   H15F13451  -0.333   2.304   3.552  0.7311 -1.0785 -2.0485
  126OSM   H15G13452  -0.374   2.134   3.544  2.6947  1.7943 -1.7665
  126OSM   C16F13453  -0.520   2.265   3.643 -0.1937 -0.3136  0.1709
  126OSM   H16F13454  -0.482   2.257   3.747  0.0869 -0.2347  0.0760
  126OSM   H16G13455  -0.608   2.199   3.628  0.9306 -1.9467  0.5325
  126OSM   C17F13456  -0.580   2.411   3.622 -0.5103  0.0657 -0.3387
  126OSM   H17F13457  -0.638   2.409   3.527  0.3587 -0.2646 -0.8712
  126OSM   H17G13458  -0.497   2.483   3.605 -1.0897  0.8307 -0.0207
  126OSM   C18F13459  -0.678   2.463   3.722 -0.0522  0.4655  0.5042
  126OSM   H18F13460  -0.705   2.569   3.704 -1.6960 -0.0801 -0.4286
  126OSM   H18G13461  -0.643   2.457   3.828  0.6442  0.6353  0.2889
  126OSM   H18H13462  -0.768   2.398   3.719  0.4306 -0.2075  0.2933
  127OSM      N13463   0.423   3.934   2.120  0.4440 -0.5453  0.2975
  127OSM    C1513464   0.520   4.022   2.047 -0.1334 -0.0696  0.2472
  127OSM   H15A13465   0.612   3.968   2.026 -0.1625 -0.8382  1.9273
  127OSM   H15B13466   0.561   4.096   2.114 -0.4865  0.9660 -0.6445
  127OSM   H15C13467   0.477   4.073   1.962 -0.5642  0.4244  0.7561
  127OSM    C1413468   0.322   4.030   2.170  0.1012  0.4430  0.3026
  127OSM   H14A13469   0.366   4.099   2.240 -0.7513  0.2258  1.0795
  127OSM   H14B13470   0.238   3.980   2.216  0.2047 -0.4864 -0.4915
  127OSM   H14C13471   0.267   4.085   2.095 -0.4194 -0.2815  0.1404
  127OSM    C1313472   0.364   3.836   2.028  0.6307  0.0470  0.1062
  127OSM   H13A13473   0.440   3.771   1.988  0.5356  0.1415 -0.2320
  127OSM   H13B13474   0.312   3.887   1.948  0.9760 -0.0559 -0.1902
  127OSM   H13C13475   0.288   3.773   2.071 -0.2312  0.8729 -0.1802
  127OSM    C1213476   0.491   3.866   2.235  0.0951 -0.1301 -0.1238
  127OSM   H12A13477   0.545   3.784   2.190 -1.5953 -1.2260 -0.2295
  127OSM   H12B13478   0.426   3.811   2.301  1.0654 -1.8648 -0.5515
  127OSM    C1113479   0.589   3.946   2.317  0.2263 -0.3825 -0.5266
  127OSM   H11A13480   0.621   3.901   2.413 -0.1999  0.1633 -0.1224
  127OSM   H11B13481   0.546   4.047   2.336  0.3450 -0.8491  2.7913
  127OSM      P13482   0.829   3.877   2.239  0.0045  0.3106  0.0376
  127OSM    O1313483   0.786   3.745   2.181  0.6731  0.5613 -0.6535
  127OSM    O1413484   0.949   3.934   2.165  0.3329  0.4728 -0.4195
  127OSM    O1113485   0.880   3.851   2.388  0.1266 -0.1802  0.0791
  127OSM    O1213486   0.711   3.976   2.249 -0.4879 -0.4336 -0.0458
  127OSM    C1S13487   0.932   3.959   2.459  0.1591  0.7552  0.4053
  127OSM    H1S13488   0.875   4.052   2.441  0.5190  0.6805 -1.2365
  127OSM    H1T13489   1.035   3.982   2.423 -0.7963  1.1211 -2.3432
  127OSM     NF13490   0.940   4.056   2.678 -0.2384  0.6137 -0.6553
  127OSM    HNF13491   1.031   4.096   2.678 -0.3032  0.8731 -3.0840
  127OSM    C2S13492   0.923   3.936   2.611  0.5413  0.2176  0.8232
  127OSM    H2S13493   0.823   3.891   2.629 -0.3233  2.0296  0.8582
  127OSM    C3S13494   1.026   3.828   2.656  0.2299 -0.9702  0.8498
  127OSM    H3S13495   1.128   3.873   2.650 -0.6360  1.3104  2.1465
  127OSM     O313496   1.017   3.705   2.577 -0.6790 -0.4510 -0.0666
  127OSM    HO313497   0.962   3.727   2.502 -0.7599  0.4639  0.2509
  127OSM    C4S13498   1.007   3.813   2.806 -0.0185 -0.2395  0.2724
  127OSM    H4S13499   1.064   3.886   2.865 -0.3183  0.7213 -0.5769
  127OSM    C5S13500   0.945   3.722   2.876 -0.1829 -0.5708 -1.1572
  127OSM    H5S13501   0.902   3.636   2.823 -0.0012 -1.6501  0.3892
  127OSM    C6S13502   0.937   3.729   3.026 -0.3353  0.2693 -0.0057
  127OSM    H6S13503   0.873   3.650   3.070  0.9341  1.0573  3.5361
  127OSM    H6T13504   0.905   3.825   3.072 -0.0959  0.0884  0.5364
  127OSM    C7S13505   1.071   3.694   3.097  0.2074 -0.2384  0.3497
  127OSM    H7S13506   1.150   3.770   3.079  0.2092 -0.2390  0.3531
  127OSM    H7T13507   1.102   3.599   3.048 -3.7193 -2.0283  1.0012
  127OSM    C8S13508   1.054   3.665   3.245 -0.1115  1.0284  0.3657
  127OSM    H8S13509   0.989   3.576   3.262 -0.1177  1.0250  0.3241
  127OSM    H8T13510   1.009   3.750   3.301  3.0595  2.0687  1.5394
  127OSM    C9S13511   1.185   3.647   3.313 -0.7410 -0.0929 -0.6679
  127OSM    H9S13512   1.245   3.740   3.297 -0.6844 -0.2725 -1.5381
  127OSM    H9T13513   1.247   3.575   3.255  0.0637 -1.7152  2.0446
  127OSM   C10S13514   1.173   3.595   3.458  0.0411  0.9751 -0.1337
  127OSM   H10S13515   1.096   3.514   3.457  3.3004 -2.4114 -0.1372
  127OSM   H10T13516   1.139   3.673   3.528 -1.9905  1.0396 -1.1240
  127OSM   C11S13517   1.306   3.548   3.520  0.4389  0.5516  0.5515
  127OSM   H11S13518   1.366   3.638   3.547  0.5611  1.0217 -1.1361
  127OSM   H11T13519   1.361   3.478   3.454  0.3575  1.0480 -0.0497
  127OSM   C12S13520   1.294   3.472   3.652 -0.4274 -0.0563  0.4043
  127OSM   H12S13521   1.213   3.399   3.634 -2.2905  1.9410  0.1987
  127OSM   H12T13522   1.265   3.528   3.744 -1.1695 -1.7039  1.2109
  127OSM   C13S13523   1.421   3.394   3.702  0.3900  0.7665 -0.9869
  127OSM   H13S13524   1.491   3.465   3.751  1.1924 -0.9624  0.4846
  127OSM   H13T13525   1.465   3.328   3.624 -0.6773  0.4783 -1.3612
  127OSM   C14S13526   1.383   3.309   3.830 -0.2908 -0.1002  0.1722
  127OSM   H14S13527   1.297   3.242   3.811 -0.4504  0.2648 -0.4235
  127OSM   H14T13528   1.360   3.375   3.916 -2.7149 -1.0091  0.3070
  127OSM   C15S13529   1.497   3.224   3.876 -0.5275  0.7913  0.1753
  127OSM   H15S13530   1.472   3.199   3.982 -3.6240  1.5093 -0.3039
  127OSM   H15T13531   1.585   3.291   3.877 -0.2781  0.4750  1.0183
  127OSM   C16S13532   1.512   3.085   3.809  0.3713 -0.7911 -0.0959
  127OSM   H16S13533   1.543   3.100   3.703 -1.7852  1.1014 -0.5421
  127OSM   H16T13534   1.409   3.044   3.807 -0.2296  0.6447 -0.1377
  127OSM   C17S13535   1.607   3.003   3.897  0.3419  0.0460 -1.0971
  127OSM   H17S13536   1.627   2.905   3.849 -1.0761 -0.4467 -0.7482
  127OSM   H17T13537   1.535   2.989   3.981 -1.1653  3.0379 -1.7677
  127OSM   C18S13538   1.739   3.065   3.944 -0.1036  0.1770  1.0799
  127OSM   H18S13539   1.797   2.988   3.999  0.1194 -0.1515  0.3903
  127OSM   H18T13540   1.724   3.154   4.010 -1.8355  1.6564 -1.1413
  127OSM   H18U13541   1.793   3.092   3.851 -2.0536 -1.8240 -0.7410
  127OSM    C1F13542   0.834   4.141   2.685 -0.1655  0.2730 -0.6393
  127OSM     OF13543   0.719   4.104   2.650 -0.1352 -0.2542 -0.0367
  127OSM    C2F13544   0.861   4.270   2.737 -0.3970 -0.0121 -0.5923
  127OSM    H2F13545   0.837   4.345   2.659 -1.1548  0.7185  0.3174
  127OSM    H2G13546   0.970   4.277   2.758 -0.2497 -3.1833  0.1890
  127OSM    C3F13547   0.771   4.302   2.859  0.3147  0.6248 -0.7225
  127OSM    H3F13548   0.669   4.277   2.824  0.8985  0.2571 -2.2293
  127OSM    H3G13549   0.781   4.411   2.878  1.6777  0.4539 -0.2949
  127OSM    C4F13550   0.813   4.233   2.991  0.4677 -0.1476  0.3377
  127OSM    H4F13551   0.829   4.127   2.961  1.8096  0.1692 -0.1089
  127OSM    H4G13552   0.732   4.242   3.067  0.9548  2.2689  0.6346
  127OSM    C5F13553   0.935   4.313   3.042  0.0638  0.0293 -0.4918
  127OSM    H5F13554   0.907   4.418   3.065 -0.9665  0.2829 -2.6630
  127OSM    H5G13555   1.008   4.327   2.960  1.7594  2.2862  1.2453
  127OSM    C6F13556   1.019   4.258   3.158 -0.5731  0.3765  0.2819
  127OSM    H6F13557   0.954   4.246   3.247  1.4034 -1.3198  1.5945
  127OSM    H6G13558   1.095   4.337   3.180 -0.4900  0.1406  0.8788
  127OSM    C7F13559   1.089   4.119   3.132  1.1619 -0.4351 -1.1805
  127OSM    H7F13560   1.021   4.048   3.080 -0.2660  1.1000 -1.4846
  127OSM    H7G13561   1.107   4.076   3.233 -2.2907 -0.6309 -0.5422
  127OSM    C8F13562   1.220   4.128   3.047 -0.0844  0.0573 -0.5595
  127OSM    H8F13563   1.188   4.137   2.941  1.1827 -0.3389 -0.9847
  127OSM    H8G13564   1.251   4.021   3.044  1.9880  0.6165 -0.3208
  127OSM    C9F13565   1.329   4.218   3.102  0.3627 -0.1898  0.1258
  127OSM    H9F13566   1.327   4.325   3.077  3.5860 -0.1154 -0.2357
  127OSM   C10F13567   1.428   4.181   3.179  0.3564  0.6712 -0.0574
  127OSM   H10F13568   1.503   4.255   3.212  1.5735 -1.1702  1.5541
  127OSM   C11F13569   1.446   4.042   3.229 -0.7385 -0.4898 -0.4391
  127OSM   H11F13570   1.541   4.020   3.176 -0.9435  0.4877 -1.2408
  127OSM   H11G13571   1.371   3.969   3.193 -2.2149  1.6832 -2.0290
  127OSM   C12F13572   1.472   4.044   3.383 -0.0390  0.1704 -0.2175
  127OSM   H12F13573   1.566   4.099   3.402 -0.7248  0.9558  1.1103
  127OSM   H12G13574   1.489   3.940   3.419 -1.8416  0.4658  1.7625
  127OSM   C13F13575   1.342   4.087   3.465  0.3277  0.1579  0.3537
  127OSM   H13F13576   1.282   4.171   3.424 -1.3764 -0.5889  1.2230
  127OSM   H13G13577   1.377   4.113   3.568  0.6508 -2.5208  0.9860
  127OSM   C14F13578   1.234   3.968   3.474 -0.1863 -0.3727 -0.1317
  127OSM   H14F13579   1.286   3.880   3.517 -0.3931 -1.0009 -1.1475
  127OSM   H14G13580   1.203   3.942   3.371 -1.1186  2.0496 -0.5369
  127OSM   C15F13581   1.105   4.003   3.555 -0.1590 -0.3467 -0.3534
  127OSM   H15F13582   1.025   3.928   3.539  2.0848 -3.1881  0.8829
  127OSM   H15G13583   1.062   4.099   3.518  0.7044  0.5833  0.9231
  127OSM   C16F13584   1.127   4.015   3.700 -0.1811 -0.2204 -0.8905
  127OSM   H16F13585   1.208   4.087   3.722 -0.4242 -0.1098 -0.3298
  127OSM   H16G13586   1.161   3.913   3.729  0.7175 -0.1484 -1.6602
  127OSM   C17F13587   0.996   4.044   3.779  0.1477 -0.4524 -0.5317
  127OSM   H17F13588   0.914   3.971   3.764 -0.5151  0.2817 -0.5071
  127OSM   H17G13589   0.960   4.143   3.744 -0.9757 -1.2213 -1.6379
  127OSM   C18F13590   1.025   4.037   3.930 -0.1982  0.0953 -0.4113
  127OSM   H18F13591   1.107   3.967   3.959 -0.2067  0.3492  0.2341
  127OSM   H18G13592   0.931   4.013   3.984 -1.8007  1.4638 -2.4622
  127OSM   H18H13593   1.053   4.137   3.968  1.1055 -0.8416  1.2707
  128OSM      N13594   2.203   2.477   2.023 -0.0455  0.2544 -0.1488
  128OSM    C1513595   2.086   2.480   1.929 -0.1180  0.3086  0.3558
  128OSM   H15A13596   2.026   2.395   1.959  2.2073 -1.3259  0.6038
  128OSM   H15B13597   2.119   2.467   1.827  0.2227  0.9912  0.3693
  128OSM   H15C13598   2.036   2.576   1.936  0.2030  0.3604  2.6447
  128OSM    C1413599   2.289   2.358   1.988  0.4713 -0.3692 -0.0494
  128OSM   H14A13600   2.351   2.377   1.902  0.3834 -1.3083 -0.3294
  128OSM   H14B13601   2.226   2.271   1.973  1.0844 -0.9634  0.7259
  128OSM   H14C13602   2.350   2.340   2.075 -1.2203  2.3836  1.8690
  128OSM    C1313603   2.283   2.597   2.000 -0.1399 -0.2718  0.2064
  128OSM   H13A13604   2.233   2.691   2.020  0.6046  0.0964  0.3722
  128OSM   H13B13605   2.324   2.597   1.900 -1.9183 -0.0806 -0.5503
  128OSM   H13C13606   2.364   2.609   2.071  0.6498  0.0933 -0.7444
  128OSM    C1213607   2.162   2.469   2.166  0.1520  0.2737 -0.4171
  128OSM   H12A13608   2.104   2.558   2.182 -0.6727 -0.1015 -1.2196
  128OSM   H12B13609   2.249   2.467   2.229 -1.1592 -1.6760  1.4736
  128OSM    C1113610   2.063   2.359   2.206  0.4054  0.4320  0.1300
  128OSM   H11A13611   2.067   2.358   2.317 -1.2406 -1.3857  0.2197
  128OSM   H11B13612   2.099   2.258   2.179  1.5641  0.5797  1.0275
  128OSM      P13613   1.828   2.467   2.218 -0.1832 -0.1460 -0.0202
  128OSM    O1313614   1.879   2.606   2.196  0.4201  0.3303 -0.0454
  128OSM    O1413615   1.691   2.442   2.170  0.3368 -0.3429 -0.7704
  128OSM    O1113616   1.829   2.440   2.372 -0.0719 -0.1133  0.1409
  128OSM    O1213617   1.930   2.365   2.156 -0.3295  0.0331  0.7335
  128OSM    C1S13618   1.787   2.306   2.415  0.2974 -0.8458 -0.0681
  128OSM    H1S13619   1.868   2.230   2.407  0.6527 -0.4160 -0.6394
  128OSM    H1T13620   1.701   2.265   2.358  0.0416  0.3957 -0.5990
  128OSM     NF13621   1.683   2.160   2.572  0.2708  0.0649 -0.2072
  128OSM    HNF13622   1.583   2.150   2.572  0.2879 -0.2026  0.6426
  128OSM    C2S13623   1.736   2.291   2.561 -0.0116  0.0109  0.2633
  128OSM    H2S13624   1.828   2.298   2.623  1.5725  2.4448 -2.1564
  128OSM    C3S13625   1.634   2.403   2.595  0.2116 -0.0538 -0.1689
  128OSM    H3S13626   1.559   2.400   2.514 -0.5630  0.4188  0.5167
  128OSM     O313627   1.697   2.530   2.584  0.1377  0.3471  0.1892
  128OSM    HO313628   1.761   2.514   2.514 -0.1973 -0.0763 -0.0208
  128OSM    C4S13629   1.567   2.391   2.731  0.4149 -0.0910  0.6365
  128OSM    H4S13630   1.458   2.380   2.716  0.3402  1.2122  0.0728
  128OSM    C5S13631   1.619   2.384   2.851  0.4186  0.0549 -0.0212
  128OSM    H5S13632   1.728   2.400   2.857  0.7058 -1.9793  1.0039
  128OSM    C6S13633   1.539   2.371   2.979  0.5517 -0.1702 -0.4368
  128OSM    H6S13634   1.548   2.457   3.049 -0.4850 -0.5134  0.1379
  128OSM    H6T13635   1.586   2.290   3.039  1.1501  1.1271  0.9265
  128OSM    C7S13636   1.392   2.335   2.962  0.0865 -0.1139  0.5742
  128OSM    H7S13637   1.373   2.253   2.890 -0.8414  0.3456  0.2808
  128OSM    H7T13638   1.338   2.420   2.915  0.0909 -0.1495  0.5044
  128OSM    C8S13639   1.318   2.316   3.093  0.4662 -0.3006  0.0169
  128OSM    H8S13640   1.338   2.392   3.172 -3.9395 -1.0833  2.2047
  128OSM    H8T13641   1.356   2.220   3.134  0.3833 -0.3572 -0.0388
  128OSM    C9S13642   1.170   2.284   3.061  0.2849 -0.4692  0.1089
  128OSM    H9S13643   1.176   2.243   2.958 -1.5589  1.6718 -0.9522
  128OSM    H9T13644   1.120   2.382   3.049  2.1473  0.3645 -1.3679
  128OSM   C10S13645   1.081   2.223   3.169 -0.3291  0.2151  0.0943
  128OSM   H10S13646   1.104   2.116   3.190  4.0240  0.9730  0.0038
  128OSM   H10T13647   0.978   2.228   3.128 -0.0215 -0.3799 -0.7765
  128OSM   C11S13648   1.081   2.298   3.302  0.3923 -0.4352  0.3348
  128OSM   H11S13649   1.038   2.398   3.280  2.7894  0.4361 -0.7960
  128OSM   H11T13650   1.185   2.316   3.338  0.5789  1.1102 -0.8694
  128OSM   C12S13651   0.993   2.227   3.409 -0.2634  0.2571  0.3620
  128OSM   H12S13652   1.037   2.125   3.408  1.8962  1.1332  0.3764
  128OSM   H12T13653   0.886   2.224   3.379 -0.6524  1.5009  1.4817
  128OSM   C13S13654   1.007   2.286   3.551 -0.3396 -0.2302  0.4600
  128OSM   H13S13655   0.978   2.393   3.550 -1.3359 -0.4787  0.7061
  128OSM   H13T13656   1.115   2.274   3.574 -0.1987 -0.4332 -0.3034
  128OSM   C14S13657   0.921   2.217   3.668  0.4233 -0.1698  0.3206
  128OSM   H14S13658   0.936   2.107   3.670  1.0346 -0.1084 -0.2583
  128OSM   H14T13659   0.814   2.229   3.644  0.2364 -0.9992  0.7100
  128OSM   C15S13660   0.936   2.287   3.803 -1.0480  0.3539 -0.3908
  128OSM   H15S13661   0.833   2.284   3.843 -0.4315  1.3500  1.3772
  128OSM   H15T13662   0.953   2.397   3.794 -1.8411  0.4305 -1.0209
  128OSM   C16S13663   1.029   2.226   3.909  0.5540 -0.0428  0.3970
  128OSM   H16S13664   1.134   2.255   3.888  0.3949 -0.2750 -0.8117
  128OSM   H16T13665   1.033   2.115   3.903  1.5212 -0.0050  0.3277
  128OSM   C17S13666   1.010   2.285   4.052 -1.0817  0.2927 -0.7349
  128OSM   H17S13667   1.078   2.242   4.128 -1.3483 -0.9219 -1.1528
  128OSM   H17T13668   0.910   2.251   4.087 -2.2675  3.0962 -1.1449
  128OSM   C18S13669   1.026   2.435   4.060 -0.5148  1.1009  0.1148
  128OSM   H18S13670   1.007   2.466   4.165 -1.3990 -1.0896  0.6508
  128OSM   H18T13671   0.950   2.481   3.992 -1.8146 -2.7622 -1.3467
  128OSM   H18U13672   1.130   2.462   4.035 -0.2366  0.0007  0.0519
  128OSM    C1F13673   1.764   2.060   2.582  0.4800  0.3600 -0.1054
  128OSM     OF13674   1.879   2.068   2.547 -0.2748  0.5499  0.5369
  128OSM    C2F13675   1.706   1.932   2.639 -0.0276 -0.3770 -0.2184
  128OSM    H2F13676   1.747   1.859   2.566  1.7340  1.0439 -0.7188
  128OSM    H2G13677   1.596   1.939   2.648 -0.0648 -1.4183  0.4116
  128OSM    C3F13678   1.748   1.901   2.779 -0.4313 -0.5121 -0.7824
  128OSM    H3F13679   1.858   1.909   2.793 -0.5272  3.0844 -1.1989
  128OSM    H3G13680   1.717   1.795   2.793  0.1729 -1.0588 -3.1316
  128OSM    C4F13681   1.690   1.993   2.883  0.1876 -0.1185  0.1257
  128OSM    H4F13682   1.582   1.970   2.894  0.3841 -0.1543  2.6765
  128OSM    H4G13683   1.693   2.102   2.865 -0.2969  0.1043  1.2876
  128OSM    C5F13684   1.751   1.947   3.015 -0.3654 -0.4133 -0.1939
  128OSM    H5F13685   1.856   1.983   3.012 -0.1507 -0.7990  1.4462
  128OSM    H5G13686   1.748   1.836   3.023 -0.7545 -0.2635  4.2691
  128OSM    C6F13687   1.683   2.000   3.149  0.0249 -0.4178  0.6303
  128OSM    H6F13688   1.578   2.015   3.116  0.2471  0.2004  0.2105
  128OSM    H6G13689   1.714   2.102   3.177  2.3467 -1.1751  0.9823
  128OSM    C7F13690   1.695   1.910   3.267 -0.9149  0.7190  0.0294
  128OSM    H7F13691   1.791   1.921   3.322 -1.5985 -2.5361  2.1248
  128OSM    H7G13692   1.693   1.804   3.234  2.2705  1.0090 -1.3896
  128OSM    C8F13693   1.594   1.933   3.373 -0.4572 -0.2654  0.6272
  128OSM    H8F13694   1.612   1.875   3.467  1.4763  2.5531  2.1611
  128OSM    H8G13695   1.491   1.922   3.333 -1.1319  0.8339  1.9820
  128OSM    C9F13696   1.606   2.068   3.429  0.0828 -0.2409 -0.4247
  128OSM    H9F13697   1.553   2.150   3.378 -1.3261  0.2117  1.6392
  128OSM   C10F13698   1.659   2.103   3.549  0.2406  0.4361  0.4140
  128OSM   H10F13699   1.656   2.207   3.584 -0.0236  1.1092 -1.5146
  128OSM   C11F13700   1.736   2.018   3.644 -0.1235  0.4710 -0.2775
  128OSM   H11F13701   1.835   2.066   3.660  0.3367 -0.8077  0.9177
  128OSM   H11G13702   1.748   1.913   3.610 -1.6963 -1.2523  3.8591
  128OSM   C12F13703   1.663   1.990   3.774  0.6068  0.3999 -0.4936
  128OSM   H12F13704   1.660   2.081   3.838 -0.9517 -0.7797  1.2202
  128OSM   H12G13705   1.723   1.912   3.825 -0.9672 -0.0077  0.7994
  128OSM   C13F13706   1.515   1.950   3.759 -0.1942  0.1465 -0.0474
  128OSM   H13F13707   1.502   1.851   3.711 -2.5634 -0.5891  1.8700
  128OSM   H13G13708   1.468   2.040   3.713  0.3815  1.8674  2.4955
  128OSM   C14F13709   1.445   1.932   3.898 -0.0141  0.0077  0.6860
  128OSM   H14F13710   1.341   1.902   3.871  0.5913  0.6039 -2.8940
  128OSM   H14G13711   1.446   2.029   3.951  0.4540 -1.0910  2.7762
  128OSM   C15F13712   1.509   1.826   3.983  0.3067 -0.3949 -0.0859
  128OSM   H15F13713   1.614   1.849   4.012 -0.1995  1.4830  0.3635
  128OSM   H15G13714   1.521   1.739   3.915 -1.6237 -1.8894  1.3978
  128OSM   C16F13715   1.424   1.787   4.111 -0.3374  0.2791 -0.4777
  128OSM   H16F13716   1.455   1.685   4.144 -0.6492  0.4469  0.3390
  128OSM   H16G13717   1.320   1.766   4.077 -0.5749 -2.7545  1.6689
  128OSM   C17F13718   1.432   1.877   4.230  0.3931 -0.7451  0.0425
  128OSM   H17F13719   1.390   1.978   4.211 -2.7365 -1.0688  3.8907
  128OSM   H17G13720   1.536   1.892   4.266 -0.1635  0.4065  1.2745
  128OSM   C18F13721   1.354   1.827   4.360  0.0815 -0.6084  0.0774
  128OSM   H18F13722   1.246   1.816   4.336 -0.0462  0.4706  0.0991
  128OSM   H18G13723   1.361   1.880   4.458 -1.9486  2.3729 -1.2460
  128OSM   H18H13724   1.392   1.727   4.389 -1.6545 -1.5843 -0.8390
  129OSM      N13725   3.437   0.986   2.580 -0.2516 -0.1286  0.3424
  129OSM    C1513726   3.454   0.840   2.561  0.3344  0.0054 -0.2064
  129OSM   H15A13727   3.511   0.787   2.635  0.6591 -0.5537 -0.8417
  129OSM   H15B13728   3.483   0.809   2.462 -2.9956  1.0746 -1.6742
  129OSM   H15C13729   3.357   0.794   2.579  0.4020  0.8475  2.8201
  129OSM    C1413730   3.578   1.027   2.600  0.0162  0.1354 -0.1506
  129OSM   H14A13731   3.626   0.998   2.508  0.9497 -5.1904  1.6528
  129OSM   H14B13732   3.627   0.991   2.689  0.5974 -0.3496 -0.6589
  129OSM   H14C13733   3.580   1.134   2.590 -1.8095  0.1723 -0.5432
  129OSM    C1313734   3.375   1.060   2.463 -0.4023  0.1296  0.1211
  129OSM   H13A13735   3.269   1.071   2.484 -0.6762 -0.6271 -0.8247
  129OSM   H13B13736   3.396   1.011   2.370  2.0849 -0.9816  1.1804
  129OSM   H13C13737   3.405   1.163   2.455 -1.6620  0.4064 -1.7131
  129OSM    C1213738   3.363   1.014   2.708  0.1692  0.0238 -0.1502
  129OSM   H12A13739   3.351   1.121   2.714 -0.7656 -0.0483 -0.5407
  129OSM   H12B13740   3.408   0.985   2.801 -2.1200  1.6366  1.5907
  129OSM    C1113741   3.215   0.962   2.724 -0.3379  0.5382 -0.1658
  129OSM   H11A13742   3.183   0.972   2.830  0.4441  2.8317 -0.1020
  129OSM   H11B13743   3.227   0.856   2.694 -0.3246  0.5451 -0.1849
  129OSM      P13744   3.045   1.159   2.672 -0.2518 -0.2740  0.1561
  129OSM    O1313745   3.040   1.245   2.553  0.1124 -0.3826 -0.0959
  129OSM    O1413746   2.923   1.125   2.741  0.1431 -0.5676 -0.2784
  129OSM    O1113747   3.143   1.225   2.778  0.3417  0.5265 -0.0593
  129OSM    O1213748   3.117   1.022   2.640  0.0637 -0.7278  0.2141
  129OSM    C1S13749   3.099   1.325   2.866  0.0473 -0.0251  0.1971
  129OSM    H1S13750   3.004   1.290   2.914  1.0314 -1.8970  0.9058
  129OSM    H1T13751   3.073   1.422   2.819 -0.6660  0.2753  1.1655
  129OSM     NF13752   3.156   1.425   3.088  0.0509  0.4645  0.0776
  129OSM    HNF13753   3.172   1.524   3.088  0.7614  0.3624 -0.6978
  129OSM    C2S13754   3.210   1.356   2.969  0.0781 -0.5935 -0.3356
  129OSM    H2S13755   3.244   1.259   3.013  2.0584  0.9603  1.8292
  129OSM    C3S13756   3.328   1.428   2.902 -0.7896 -0.5378  0.0173
  129OSM    H3S13757   3.288   1.523   2.862  0.0019 -0.0048  0.4561
  129OSM     O313758   3.384   1.341   2.812  0.0242 -0.5362  0.7682
  129OSM    HO313759   3.312   1.283   2.789 -1.9578  2.5528 -1.7478
  129OSM    C4S13760   3.433   1.453   3.000  0.0120 -0.3379  0.0960
  129OSM    H4S13761   3.472   1.360   3.045 -0.5951 -1.0831 -0.8813
  129OSM    C5S13762   3.495   1.567   3.039 -0.0634  0.3297 -0.5108
  129OSM    H5S13763   3.446   1.658   3.000  0.0648  0.8457  0.4729
  129OSM    C6S13764   3.610   1.583   3.142 -0.1722  0.7416 -0.9508
  129OSM    H6S13765   3.586   1.675   3.200 -3.2633 -0.8989  0.6404
  129OSM    H6T13766   3.705   1.602   3.088  1.1377  1.5547  1.5269
  129OSM    C7S13767   3.626   1.471   3.244 -0.6564  0.0248 -0.5467
  129OSM    H7S13768   3.664   1.379   3.196 -0.4318  0.2610 -0.8288
  129OSM    H7T13769   3.525   1.450   3.286 -0.5977  1.9591  0.7222
  129OSM    C8S13770   3.687   1.515   3.375 -0.3191 -0.0571  0.3701
  129OSM    H8S13771   3.615   1.584   3.423 -3.0030 -1.1435 -1.7631
  129OSM    H8T13772   3.787   1.562   3.361  0.0208 -1.2325 -1.7294
  129OSM    C9S13773   3.718   1.389   3.459 -0.1118 -0.1822 -0.0912
  129OSM    H9S13774   3.798   1.338   3.401 -0.6469  3.5278 -4.6582
  129OSM    H9T13775   3.635   1.316   3.468 -0.1523 -0.0167  0.9757
  129OSM   C10S13776   3.760   1.415   3.604  0.5732  0.1890 -0.0360
  129OSM   H10S13777   3.673   1.449   3.664  0.7291 -1.3633  1.1303
  129OSM   H10T13778   3.839   1.493   3.605  1.4656 -0.6937  0.2505
  129OSM   C11S13779   3.803   1.290   3.683 -0.2572 -0.7575  0.0792
  129OSM   H11S13780   3.871   1.221   3.629  2.5470  1.5039  0.4857
  129OSM   H11T13781   3.711   1.230   3.698 -0.0369 -1.1333 -0.0599
  129OSM   C12S13782   3.852   1.317   3.827 -0.8085 -0.5322  0.6338
  129OSM   H12S13783   3.788   1.392   3.877 -1.3867 -1.6358  1.6103
  129OSM   H12T13784   3.958   1.351   3.820 -0.8933 -0.5241 -1.2022
  129OSM   C13S13785   3.848   1.187   3.906 -0.1248 -0.1567  0.4778
  129OSM   H13S13786   3.888   1.105   3.844 -0.9528  1.2926 -2.1301
  129OSM   H13T13787   3.739   1.173   3.922 -0.8097  1.7287 -1.8683
  129OSM   C14S13788   3.919   1.185   4.036 -0.9402  0.0633 -0.3932
  129OSM   H14S13789   3.880   1.264   4.104  2.5594  1.1199  0.5886
  129OSM   H14T13790   4.027   1.208   4.024 -1.2103  2.0511  0.6245
  129OSM   C15S13791   3.916   1.047   4.105 -0.2140 -0.0895  0.0267
  129OSM   H15S13792   4.007   1.031   4.167 -0.3783 -1.2745 -0.0077
  129OSM   H15T13793   3.929   0.967   4.029 -0.0364  0.4334 -0.5043
  129OSM   C16S13794   3.792   1.014   4.177  0.1410 -0.8712 -0.3204
  129OSM   H16S13795   3.695   1.016   4.123 -0.9549 -1.2127  1.5838
  129OSM   H16T13796   3.797   1.088   4.260  0.8524  0.5299 -1.5447
  129OSM   C17S13797   3.796   0.880   4.242 -0.4882  0.8621 -0.8855
  129OSM   H17S13798   3.706   0.875   4.308 -1.5368 -1.0601 -2.3451
  129OSM   H17T13799   3.892   0.879   4.298 -0.0615  0.9637 -1.6058
  129OSM   C18S13800   3.788   0.760   4.143  0.2161  0.1159 -0.1387
  129OSM   H18S13801   3.739   0.671   4.188 -1.2219  0.1111 -1.6224
  129OSM   H18T13802   3.883   0.719   4.102  1.2092 -1.4815  3.3916
  129OSM   H18U13803   3.722   0.790   4.059 -0.1872  0.0536  0.1576
  129OSM    C1F13804   3.089   1.369   3.189  0.0147 -0.2688 -0.8860
  129OSM     OF13805   3.027   1.269   3.167  0.7898  0.6463  0.1123
  129OSM    C2F13806   3.093   1.430   3.325 -0.1269 -0.1117  0.3451
  129OSM    H2F13807   3.083   1.540   3.332  2.2126  0.3478 -1.8626
  129OSM    H2G13808   3.195   1.407   3.362 -1.0342 -0.9505  2.4765
  129OSM    C3F13809   2.995   1.357   3.420  0.5259  0.3329 -0.2769
  129OSM    H3F13810   3.029   1.252   3.427  0.7177  0.3880 -0.3706
  129OSM    H3G13811   2.891   1.360   3.381 -0.3370  1.8193  1.9209
  129OSM    C4F13812   2.993   1.424   3.557 -0.0642  1.0286  0.5614
  129OSM    H4F13813   2.959   1.528   3.543 -2.4871  0.0248 -2.0823
  129OSM    H4G13814   3.098   1.418   3.593 -0.8341 -0.9110  2.7233
  129OSM    C5F13815   2.918   1.342   3.669 -0.1123 -0.7031  0.4490
  129OSM    H5F13816   2.950   1.236   3.682 -2.9204 -1.6765  0.2338
  129OSM    H5G13817   2.812   1.345   3.636 -0.5192  1.5608  1.7954
  129OSM    C6F13818   2.942   1.401   3.809 -0.3788 -0.8561 -0.0810
  129OSM    H6F13819   2.931   1.511   3.801  0.0113 -0.8827 -1.0501
  129OSM    H6G13820   3.041   1.365   3.843 -0.4204 -2.2625 -1.3302
  129OSM    C7F13821   2.839   1.353   3.916  0.1039 -0.4051 -0.1000
  129OSM    H7F13822   2.734   1.382   3.895  0.7089  1.0184 -1.3349
  129OSM    H7G13823   2.864   1.413   4.006 -0.0823 -1.7284  0.8611
  129OSM    C8F13824   2.856   1.206   3.968 -0.8947 -0.3784 -0.1365
  129OSM    H8F13825   2.957   1.174   4.001 -0.7460 -1.2873 -1.4110
  129OSM    H8G13826   2.830   1.138   3.884 -0.5705  0.1671 -0.6939
  129OSM    C9F13827   2.758   1.191   4.080 -0.1081 -0.3176  0.3203
  129OSM    H9F13828   2.655   1.164   4.055 -0.0122  0.0400 -0.5201
  129OSM   C10F13829   2.775   1.216   4.206 -0.3125  0.3844 -0.5696
  129OSM   H10F13830   2.691   1.203   4.277 -0.8670  0.8847 -1.1278
  129OSM   C11F13831   2.905   1.277   4.263 -0.0186  0.8020  0.6424
  129OSM   H11F13832   2.869   1.370   4.313 -2.3998  0.5620 -0.4902
  129OSM   H11G13833   2.981   1.291   4.184  1.4355  2.2613  2.2061
  129OSM   C12F13834   2.987   1.195   4.365  0.1266  0.6814  0.6080
  129OSM   H12F13835   3.078   1.247   4.400  2.1906 -2.5733  0.4442
  129OSM   H12G13836   3.025   1.097   4.328  1.4726  0.6278  2.0548
  129OSM   C13F13837   2.908   1.162   4.488 -0.3574 -0.8374 -0.1374
  129OSM   H13F13838   2.821   1.095   4.469 -1.6473  0.5491  0.6296
  129OSM   H13G13839   2.856   1.252   4.527 -2.2764 -2.2996  0.8607
  129OSM   C14F13840   2.997   1.115   4.602 -0.0155 -0.5063 -0.0988
  129OSM   H14F13841   3.053   1.207   4.631  0.9971 -0.8895 -0.7948
  129OSM   H14G13842   3.071   1.037   4.575  1.1237 -0.6032  2.9033
  129OSM   C15F13843   2.919   1.083   4.725  0.3739  0.0148 -0.2141
  129OSM   H15F13844   2.853   0.997   4.699 -0.8588  0.7264  0.4634
  129OSM   H15G13845   2.834   1.150   4.750  0.1496 -0.1718 -0.4624
  129OSM   C16F13846   3.002   1.048   4.859  0.5889  0.1942  0.8149
  129OSM   H16F13847   3.045   1.143   4.897 -0.2428  0.5316  0.9365
  129OSM   H16G13848   3.078   0.966   4.861 -0.6873 -1.0136  1.6639
  129OSM   C17F13849   2.903   1.004   4.973  0.1072  0.0040  0.3745
  129OSM   H17F13850   2.851   0.914   4.933 -0.4170  1.1553 -1.6604
  129OSM   H17G13851   2.828   1.086   4.977 -0.1259 -0.2694  2.1560
  129OSM   C18F13852   2.967   0.981   5.109 -0.0132 -0.0026 -0.1795
  129OSM   H18F13853   3.026   1.072   5.134  2.4518 -1.8789  1.2907
  129OSM   H18G13854   3.042   0.899   5.102 -2.6609 -2.4277 -2.8405
  129OSM   H18H13855   2.885   0.970   5.183 -1.2944 -0.5314 -1.6189
  130OSM      N13856   2.340   4.525   2.257 -0.4645  0.4628 -0.2320
  130OSM    C1513857   2.222   4.566   2.330 -0.1815 -0.3000 -0.1736
  130OSM   H15A13858   2.147   4.488   2.333  0.0399 -0.5248 -0.5315
  130OSM   H15B13859   2.173   4.648   2.279  1.0220  0.6992  0.2188
  130OSM   H15C13860   2.245   4.596   2.432  1.2150  0.6249 -0.7309
  130OSM    C1413861   2.306   4.485   2.118  0.6435  0.1302  0.0621
  130OSM   H14A13862   2.399   4.455   2.073  0.1944  0.4939 -1.1331
  130OSM   H14B13863   2.254   4.559   2.059  0.5784  0.2408  0.2557
  130OSM   H14C13864   2.238   4.401   2.110  0.1688  0.3451  1.4831
  130OSM    C1313865   2.438   4.636   2.252 -0.4461  0.0205  0.3644
  130OSM   H13A13866   2.400   4.705   2.178  1.0546 -0.6038 -1.0504
  130OSM   H13B13867   2.532   4.597   2.216 -0.3553 -2.3686  2.9101
  130OSM   H13C13868   2.450   4.680   2.350 -1.0704 -1.9068  1.3570
  130OSM    C1213869   2.410   4.402   2.332  0.2065 -0.2990  0.2734
  130OSM   H12A13870   2.448   4.437   2.427  1.1698  0.4748 -0.3866
  130OSM   H12B13871   2.494   4.363   2.275  1.1175  3.6037 -1.3456
  130OSM    C1113872   2.314   4.288   2.381 -0.6585 -0.4277  0.0438
  130OSM   H11A13873   2.248   4.339   2.453  1.4034  0.5594  1.3259
  130OSM   H11B13874   2.370   4.210   2.437  0.5420  0.3041 -0.0968
  130OSM      P13875   2.316   4.140   2.165  0.6315 -0.1328  0.3252
  130OSM    O1313876   2.244   4.155   2.038 -0.1153  0.1508  0.9903
  130OSM    O1413877   2.461   4.162   2.161  0.2380  1.1372  0.6003
  130OSM    O1113878   2.292   3.998   2.221 -0.3084  0.4765  0.0512
  130OSM    O1213879   2.241   4.228   2.274 -0.0174  0.4641  0.3576
  130OSM    C1S13880   2.371   3.941   2.327 -0.0178 -0.0387 -0.5393
  130OSM    H1S13881   2.452   4.010   2.357  1.4868 -1.7656 -0.4695
  130OSM    H1T13882   2.404   3.838   2.299  1.5477  0.2593  0.1182
  130OSM     NF13883   2.368   3.854   2.554  0.6226  1.0822  0.1262
  130OSM    HNF13884   2.342   3.758   2.557 -2.5957  1.8381  0.9282
  130OSM    C2S13885   2.286   3.924   2.457 -0.6736  0.0863 -0.3463
  130OSM    H2S13886   2.274   4.027   2.497  1.8137 -0.1815  1.2691
  130OSM    C3S13887   2.146   3.861   2.440  0.0563  0.8149 -1.0000
  130OSM    H3S13888   2.151   3.753   2.416 -1.0688 -0.0420  2.1765
  130OSM     O313889   2.068   3.921   2.340 -0.4315  0.1489  0.7557
  130OSM    HO313890   2.144   3.947   2.288 -0.1493 -0.3059  0.9363
  130OSM    C4S13891   2.081   3.857   2.581 -0.0472  0.1401  0.2608
  130OSM    H4S13892   2.108   3.762   2.630 -0.6717 -0.5054 -0.6201
  130OSM    C5S13893   2.004   3.946   2.642 -0.2573 -0.0342  0.3499
  130OSM    H5S13894   1.975   4.028   2.576  0.5141 -0.7479 -0.9315
  130OSM    C6S13895   1.930   3.930   2.772 -0.2664  0.5816 -0.5023
  130OSM    H6S13896   1.948   4.018   2.837 -1.1722  0.0463  0.5104
  130OSM    H6T13897   1.978   3.849   2.831  0.5578 -0.5583 -2.6218
  130OSM    C7S13898   1.787   3.896   2.765 -0.2130  0.0866 -1.1233
  130OSM    H7S13899   1.778   3.802   2.707  1.2460 -1.0680  0.4311
  130OSM    H7T13900   1.727   3.978   2.721  0.8284 -0.8183 -4.5151
  130OSM    C8S13901   1.721   3.864   2.903  0.2748  0.4242  1.0429
  130OSM    H8S13902   1.614   3.882   2.880  1.2004  0.5895 -4.2687
  130OSM    H8T13903   1.754   3.943   2.974  0.2255  0.6423  0.8220
  130OSM    C9S13904   1.736   3.720   2.955 -0.4595 -0.4440 -0.8131
  130OSM    H9S13905   1.842   3.686   2.950 -0.4057 -0.1649 -1.7010
  130OSM    H9T13906   1.692   3.641   2.890 -1.1529 -0.9575  0.2490
  130OSM   C10S13907   1.665   3.687   3.092 -0.1012 -0.1569  0.6466
  130OSM   H10S13908   1.559   3.718   3.078 -0.1237 -0.7974 -0.9120
  130OSM   H10T13909   1.713   3.749   3.170 -2.0270 -0.1618  1.8858
  130OSM   C11S13910   1.682   3.539   3.130 -0.2220  0.0001  0.0520
  130OSM   H11S13911   1.792   3.526   3.126  0.0220  1.1608  1.8018
  130OSM   H11T13912   1.625   3.470   3.064  0.8724 -0.7184 -0.1644
  130OSM   C12S13913   1.634   3.522   3.277  0.1941  0.2294  0.0461
  130OSM   H12S13914   1.561   3.601   3.304 -0.0507 -0.3221  1.0247
  130OSM   H12T13915   1.723   3.532   3.343 -0.5506  2.6724  0.7752
  130OSM   C13S13916   1.565   3.389   3.297 -0.3175 -0.2779  0.1467
  130OSM   H13S13917   1.474   3.380   3.234 -1.3215 -0.3237  1.5479
  130OSM   H13T13918   1.532   3.390   3.404  2.3832  1.2059  1.0728
  130OSM   C14S13919   1.657   3.267   3.272  0.4007 -0.7659 -0.4719
  130OSM   H14S13920   1.724   3.253   3.359 -0.8603 -1.6936  0.3949
  130OSM   H14T13921   1.714   3.282   3.179 -1.8120  1.2890 -1.6035
  130OSM   C15S13922   1.570   3.143   3.251  0.6264 -0.0374  0.3628
  130OSM   H15S13923   1.636   3.059   3.220  0.5621  0.0971 -0.1500
  130OSM   H15T13924   1.498   3.168   3.171 -0.0109 -1.9651  0.2805
  130OSM   C16S13925   1.494   3.100   3.383 -0.5642  0.4357 -0.0360
  130OSM   H16S13926   1.550   3.127   3.475  0.5631  0.5924 -0.7499
  130OSM   H16T13927   1.484   2.989   3.376 -0.9704  0.3798  1.2785
  130OSM   C17S13928   1.348   3.136   3.402  0.4633 -0.0162 -0.7847
  130OSM   H17S13929   1.289   3.123   3.309  0.8982  2.2250 -1.4367
  130OSM   H17T13930   1.333   3.244   3.425 -0.5863 -0.3955  0.4199
  130OSM   C18S13931   1.280   3.055   3.516  0.5594 -0.1454 -0.0835
  130OSM   H18S13932   1.327   3.083   3.613  0.6074  1.7781 -0.6345
  130OSM   H18T13933   1.297   2.949   3.489 -0.4881  0.3603 -3.1419
  130OSM   H18U13934   1.172   3.083   3.518  0.0002 -2.1247 -0.5866
  130OSM    C1F13935   2.478   3.895   2.616  0.4552  0.3492 -0.7456
  130OSM     OF13936   2.513   4.013   2.598  0.3580 -0.2920  0.1658
  130OSM    C2F13937   2.551   3.785   2.684 -0.7479  0.0019 -0.4648
  130OSM    H2F13938   2.624   3.741   2.613  1.6078 -0.5276  2.1248
  130OSM    H2G13939   2.470   3.710   2.703 -0.8285  0.6760  2.3197
  130OSM    C3F13940   2.632   3.844   2.809  0.9209  0.1398 -0.2400
  130OSM    H3F13941   2.698   3.921   2.764  0.8018  0.2724 -0.1846
  130OSM    H3G13942   2.701   3.768   2.853  0.6563 -0.6643 -1.1684
  130OSM    C4F13943   2.554   3.894   2.927  0.3968 -0.0858 -0.6715
  130OSM    H4F13944   2.491   3.816   2.977  0.3031 -0.9647 -2.1009
  130OSM    H4G13945   2.488   3.979   2.899 -0.3535  0.3072  1.9495
  130OSM    C5F13946   2.643   3.942   3.045  0.4244 -0.2651 -0.2997
  130OSM    H5F13947   2.720   4.011   3.004 -1.1636  2.7779  1.5045
  130OSM    H5G13948   2.691   3.855   3.095  1.3686 -0.1388 -0.9653
  130OSM    C6F13949   2.556   4.011   3.154  0.6238  0.1975  0.1048
  130OSM    H6F13950   2.483   3.936   3.191  0.0402  1.4004  1.4645
  130OSM    H6G13951   2.483   4.086   3.116 -1.1507 -1.2593  0.5036
  130OSM    C7F13952   2.646   4.073   3.263 -0.0651 -0.1284 -0.1060
  130OSM    H7F13953   2.683   4.159   3.203  0.8950  1.4496  2.5710
  130OSM    H7G13954   2.729   4.005   3.290 -0.8078 -1.4012 -0.9346
  130OSM    C8F13955   2.576   4.137   3.384 -0.0104  1.3602  0.2991
  130OSM    H8F13956   2.517   4.222   3.344 -0.6329  0.5647 -0.5128
  130OSM    H8G13957   2.653   4.194   3.442  2.1292  1.3870 -2.3424
  130OSM    C9F13958   2.499   4.046   3.470 -0.1960 -0.6713 -0.1791
  130OSM    H9F13959   2.493   3.944   3.427  0.9822 -0.9607  0.3110
  130OSM   C10F13960   2.408   4.077   3.565 -0.5473  0.1711 -0.2722
  130OSM   H10F13961   2.355   3.999   3.622  0.2745 -0.2165 -0.0296
  130OSM   C11F13962   2.384   4.216   3.616 -0.9580 -0.7289  0.6135
  130OSM   H11F13963   2.273   4.228   3.624 -0.8892  1.8255 -1.0300
  130OSM   H11G13964   2.424   4.294   3.548 -0.5937  0.0441  1.6854
  130OSM   C12F13965   2.458   4.240   3.750  0.7102 -0.4313 -0.2035
  130OSM   H12F13966   2.568   4.242   3.735  0.8881 -1.7582  0.7250
  130OSM   H12G13967   2.422   4.150   3.804 -0.2514  0.6154  0.9579
  130OSM   C13F13968   2.411   4.363   3.832  0.1696  0.4523  0.7628
  130OSM   H13F13969   2.303   4.361   3.856 -0.0776 -0.5369 -0.3519
  130OSM   H13G13970   2.414   4.457   3.772  1.5955  0.2932  0.5394
  130OSM   C14F13971   2.488   4.384   3.958  0.1888  0.7209 -1.2302
  130OSM   H14F13972   2.593   4.394   3.925  0.8937 -1.0698  0.2777
  130OSM   H14G13973   2.480   4.286   4.010 -1.6943  1.5680  0.2189
  130OSM   C15F13974   2.422   4.489   4.045 -0.5253 -0.4856  0.2955
  130OSM   H15F13975   2.318   4.464   4.073 -0.0306 -1.8611  1.0179
  130OSM   H15G13976   2.418   4.587   3.994 -1.1741 -0.8387 -0.3470
  130OSM   C16F13977   2.505   4.500   4.178 -0.2817  0.0151 -0.7230
  130OSM   H16F13978   2.614   4.503   4.158 -0.3935 -0.6991 -1.5022
  130OSM   H16G13979   2.473   4.411   4.236 -2.0774  1.1853  0.1625
  130OSM   C17F13980   2.476   4.620   4.262 -1.1984 -0.3260  0.3524
  130OSM   H17F13981   2.479   4.718   4.210 -2.3118 -0.1979  0.5181
  130OSM   H17G13982   2.566   4.622   4.327 -1.6809 -0.3565  1.0281
  130OSM   C18F13983   2.349   4.611   4.352  0.7793  0.2259  0.6311
  130OSM   H18F13984   2.334   4.699   4.417 -0.9799  1.3730 -1.1967
  130OSM   H18G13985   2.352   4.520   4.417 -0.6121  0.5883  1.2363
  130OSM   H18H13986   2.261   4.604   4.284  2.8727 -2.0449 -2.1384
  131OSM      N13987   6.792   2.842   1.520 -0.0842  0.4223 -0.7622
  131OSM    C1513988   6.662   2.870   1.456 -0.1213  0.2690  0.1314
  131OSM   H15A13989   6.583   2.843   1.525  0.0598 -1.9893 -0.4840
  131OSM   H15B13990   6.662   2.819   1.361  2.9696  1.6304 -0.6970
  131OSM   H15C13991   6.656   2.976   1.433  2.3229  0.3290 -0.4503
  131OSM    C1413992   6.796   2.692   1.559 -0.4927 -0.4345  0.7205
  131OSM   H14A13993   6.745   2.688   1.654 -0.1407  0.3748  0.9588
  131OSM   H14B13994   6.900   2.661   1.566 -0.2838 -0.5686 -2.1272
  131OSM   H14C13995   6.753   2.628   1.484  0.4397 -0.4148  0.1522
  131OSM    C1313996   6.898   2.870   1.421 -0.2378  0.1910  0.6989
  131OSM   H13A13997   6.880   2.804   1.337 -1.4254  0.3954  0.7730
  131OSM   H13B13998   6.998   2.859   1.459 -0.8318 -0.0539  2.2737
  131OSM   H13C13999   6.900   2.974   1.392 -0.3374  0.2047  0.7400
  131OSM    C1214000   6.818   2.933   1.642 -0.1659 -0.3216 -0.6718
  131OSM   H12A14001   6.781   3.032   1.618 -1.6305 -0.6989 -0.1114
  131OSM   H12B14002   6.924   2.934   1.661 -0.2505 -3.4378  0.5941
  131OSM    C1114003   6.757   2.886   1.782 -0.1169  0.5881  0.3585
  131OSM   H11A14004   6.780   2.957   1.863  1.1433 -0.9634  1.4215
  131OSM   H11B14005   6.803   2.788   1.807 -0.4625  0.8993  2.3353
  131OSM      P14006   6.556   2.757   1.860  0.1243  0.3517 -0.2572
  131OSM    O1314007   6.409   2.767   1.870 -0.3782  0.4400 -0.2165
  131OSM    O1414008   6.609   2.631   1.796 -0.3141 -0.2135 -0.1119
  131OSM    O1114009   6.626   2.780   2.005  0.6147 -0.5773 -0.1780
  131OSM    O1214010   6.617   2.875   1.770 -0.2946 -0.1336  0.3069
  131OSM    C1S14011   6.547   2.735   2.119 -0.4298  0.0806  0.2250
  131OSM    H1S14012   6.551   2.625   2.124 -0.6291 -0.1798 -3.1577
  131OSM    H1T14013   6.437   2.751   2.107 -0.3062 -0.3584 -1.9203
  131OSM     NF14014   6.511   2.778   2.367 -0.7064 -0.4401  0.1646
  131OSM    HNF14015   6.426   2.826   2.390 -1.6419 -1.4956 -0.9245
  131OSM    C2S14016   6.582   2.811   2.254 -0.4722  0.3839 -0.2887
  131OSM    H2S14017   6.688   2.785   2.273 -0.2989  0.7176 -0.7849
  131OSM    C3S14018   6.583   2.964   2.234 -0.2316  0.6822  0.4465
  131OSM    H3S14019   6.476   2.988   2.219  0.1701  2.8887  0.8288
  131OSM     O314020   6.647   3.017   2.118 -0.1923  0.0002 -0.4538
  131OSM    HO314021   6.668   2.935   2.073 -1.7849  0.4565 -2.1815
  131OSM    C4S14022   6.632   3.044   2.352 -0.0119  0.4279  0.0129
  131OSM    H4S14023   6.559   3.107   2.405 -1.6108 -1.0889 -0.2730
  131OSM    C5S14024   6.763   3.053   2.389  0.2362  0.2397 -0.2929
  131OSM    H5S14025   6.839   2.997   2.332 -0.9663 -1.9473  0.1647
  131OSM    C6S14026   6.814   3.139   2.502 -0.4839  0.1841 -0.1007
  131OSM    H6S14027   6.861   3.220   2.442 -1.2523  1.2886  0.7343
  131OSM    H6T14028   6.892   3.077   2.552  0.4759  0.0700 -1.6893
  131OSM    C7S14029   6.718   3.196   2.608  0.3118 -0.4904  0.7330
  131OSM    H7S14030   6.664   3.104   2.639  0.0712 -0.6737 -0.1785
  131OSM    H7T14031   6.645   3.272   2.574  1.5757 -0.1772 -1.5333
  131OSM    C8S14032   6.806   3.252   2.728 -0.1756  0.3219 -0.0390
  131OSM    H8S14033   6.852   3.350   2.702  1.4296  0.1701  1.9401
  131OSM    H8T14034   6.897   3.190   2.744 -1.1219 -0.7952  1.2421
  131OSM    C9S14035   6.730   3.248   2.860  0.2257  0.1087  0.1924
  131OSM    H9S14036   6.720   3.139   2.882 -1.4271  0.1283 -0.3585
  131OSM    H9T14037   6.624   3.273   2.840  0.3513 -0.1949 -0.9647
  131OSM   C10S14038   6.782   3.344   2.976  0.5158  0.2041 -0.2082
  131OSM   H10S14039   6.821   3.440   2.936  1.9205 -0.4347 -0.4260
  131OSM   H10T14040   6.863   3.290   3.029  0.8078  1.0547  0.2282
  131OSM   C11S14041   6.662   3.372   3.083  0.1682 -0.3561 -0.2247
  131OSM   H11S14042   6.575   3.415   3.029 -0.5351 -0.8944  0.4659
  131OSM   H11T14043   6.694   3.449   3.157  0.4584  0.5223 -1.2285
  131OSM   C12S14044   6.620   3.246   3.151 -0.5035  0.6622  0.4165
  131OSM   H12S14045   6.593   3.173   3.072  3.3154 -0.2034 -0.2988
  131OSM   H12T14046   6.529   3.274   3.208 -0.9588  1.4133 -0.6456
  131OSM   C13S14047   6.717   3.179   3.254  0.2779  0.1582  0.1385
  131OSM   H13S14048   6.819   3.166   3.214  0.6328  0.0545  1.0653
  131OSM   H13T14049   6.685   3.077   3.284  0.6055 -0.0667 -0.2612
  131OSM   C14S14050   6.736   3.259   3.387 -0.1518 -0.3375 -1.0361
  131OSM   H14S14051   6.632   3.254   3.425 -0.2287 -3.9091 -1.3002
  131OSM   H14T14052   6.779   3.360   3.370 -1.8500  0.4788 -0.5979
  131OSM   C15S14053   6.827   3.189   3.488 -0.6004 -0.0889  0.4725
  131OSM   H15S14054   6.929   3.195   3.444 -0.8780  3.1683  0.0462
  131OSM   H15T14055   6.798   3.082   3.501  0.7757 -0.5089  0.2301
  131OSM   C16S14056   6.828   3.254   3.626 -0.5580 -0.1532  0.4279
  131OSM   H16S14057   6.728   3.233   3.671  0.1687 -1.8538  1.3498
  131OSM   H16T14058   6.849   3.361   3.603  0.4148 -0.3880  0.1969
  131OSM   C17S14059   6.930   3.206   3.731  0.1259  0.5431  0.3086
  131OSM   H17S14060   6.896   3.269   3.816  0.8615  2.3775 -0.7082
  131OSM   H17T14061   7.034   3.239   3.711 -0.1482  0.6456 -1.0214
  131OSM   C18S14062   6.923   3.055   3.760  0.4249  0.1069  0.8320
  131OSM   H18S14063   6.963   3.027   3.859 -1.7984  1.4228  2.1828
  131OSM   H18T14064   6.964   2.993   3.677 -1.3341 -0.2371  0.1542
  131OSM   H18U14065   6.818   3.021   3.772  0.7326 -0.9781  0.6153
  131OSM    C1F14066   6.521   2.657   2.424 -0.5883 -0.5301 -0.0956
  131OSM     OF14067   6.594   2.567   2.379  0.1378  0.2758  0.0514
  131OSM    C2F14068   6.440   2.629   2.549  0.0832 -0.6746  0.1374
  131OSM    H2F14069   6.369   2.711   2.573  0.0308 -0.2235 -1.4291
  131OSM    H2G14070   6.498   2.635   2.643 -1.2847 -0.9275  1.0258
  131OSM    C3F14071   6.365   2.494   2.542 -0.0325  0.2408  0.3586
  131OSM    H3F14072   6.438   2.413   2.522 -0.3566 -0.0910  0.5187
  131OSM    H3G14073   6.294   2.503   2.457 -0.4640  0.3552  0.7254
  131OSM    C4F14074   6.287   2.468   2.671 -0.4569 -0.3040  0.3794
  131OSM    H4F14075   6.217   2.385   2.645  0.4157 -1.3863  1.3666
  131OSM    H4G14076   6.222   2.553   2.700 -1.4321 -1.0182  0.3512
  131OSM    C5F14077   6.361   2.400   2.781 -0.4625 -0.1675 -0.1314
  131OSM    H5F14078   6.458   2.440   2.818 -0.5720 -0.0245  0.0006
  131OSM    H5G14079   6.382   2.295   2.750 -1.0616 -0.9400  1.8959
  131OSM    C6F14080   6.261   2.380   2.902  0.3726  0.3815  0.4130
  131OSM    H6F14081   6.264   2.277   2.942 -1.3414 -0.1277 -0.6635
  131OSM    H6G14082   6.157   2.401   2.870  0.5681  0.4025 -0.2234
  131OSM    C7F14083   6.303   2.468   3.022 -0.0032  0.0589 -0.0269
  131OSM    H7F14084   6.295   2.573   2.988  0.6244  0.9617  2.4386
  131OSM    H7G14085   6.405   2.438   3.052 -0.6307 -2.5417 -0.2368
  131OSM    C8F14086   6.218   2.461   3.149 -0.0727 -0.1246  0.0251
  131OSM    H8F14087   6.112   2.488   3.126  0.4055  1.3934 -0.5267
  131OSM    H8G14088   6.247   2.547   3.213 -0.1326  0.7458 -1.0740
  131OSM    C9F14089   6.242   2.332   3.221  0.0394 -0.3240  0.1483
  131OSM    H9F14090   6.320   2.267   3.177 -1.7428 -2.5462  0.1037
  131OSM   C10F14091   6.152   2.277   3.309  0.3888  0.6570  0.2022
  131OSM   H10F14092   6.176   2.179   3.354 -1.3004 -0.0011 -0.2677
  131OSM   C11F14093   6.025   2.328   3.366  0.0206  0.0120  0.1194
  131OSM   H11F14094   5.949   2.302   3.290  1.0727  2.2667 -1.8747
  131OSM   H11G14095   6.037   2.439   3.375  1.6981  0.0998 -2.2677
  131OSM   C12F14096   5.992   2.258   3.505 -0.1704  0.7167  0.0697
  131OSM   H12F14097   5.904   2.314   3.543  0.6311  0.2949  2.8054
  131OSM   H12G14098   6.073   2.270   3.580 -1.3990  1.0969  1.3817
  131OSM   C13F14099   5.943   2.113   3.481 -0.3227  0.5577  0.2730
  131OSM   H13F14100   6.030   2.045   3.465  0.9051  2.4156 -1.4654
  131OSM   H13G14101   5.883   2.101   3.388 -1.5843  0.5578  1.0749
  131OSM   C14F14102   5.858   2.064   3.594 -0.1651  0.1504  0.1268
  131OSM   H14F14103   5.826   1.960   3.571 -0.6533  0.5753 -1.1920
  131OSM   H14G14104   5.774   2.135   3.610 -0.3337 -0.0268  0.0360
  131OSM   C15F14105   5.930   2.060   3.729  0.4468  0.2083 -0.3356
  131OSM   H15F14106   5.948   2.161   3.772  3.3475 -0.4503  0.2340
  131OSM   H15G14107   6.032   2.021   3.707  0.3085 -0.2448 -0.1909
  131OSM   C16F14108   5.860   1.976   3.838 -0.4449  0.4313 -0.0492
  131OSM   H16F14109   5.916   2.006   3.929  1.7287  1.5040 -1.6597
  131OSM   H16G14110   5.886   1.872   3.809 -0.5665  0.1377  0.8517
  131OSM   C17F14111   5.706   1.973   3.868 -0.0374  0.1219  0.1458
  131OSM   H17F14112   5.688   1.913   3.960 -1.5171 -0.3528 -0.4318
  131OSM   H17G14113   5.652   1.941   3.777 -1.3402  0.6743  0.7046
  131OSM   C18F14114   5.656   2.109   3.894  0.2454 -0.3051  0.4165
  131OSM   H18F14115   5.546   2.118   3.884  0.4382  0.6754 -1.1574
  131OSM   H18G14116   5.701   2.181   3.821 -0.5395 -2.2993 -2.1763
  131OSM   H18H14117   5.682   2.135   3.999  0.8830 -0.2742  0.2565
  132OSM      N14118   5.398   1.781   2.138 -0.1918 -0.2952  0.5406
  132OSM    C1514119   5.279   1.700   2.118  1.0359  0.1746  0.5071
  132OSM   H15A14120   5.245   1.701   2.015  0.4057  0.8463  0.7131
  132OSM   H15B14121   5.193   1.739   2.169  0.4127 -1.4885  0.7897
  132OSM   H15C14122   5.292   1.602   2.161  0.9015 -0.4039 -0.7065
  132OSM    C1414123   5.511   1.739   2.051  0.1754  0.4134  0.1062
  132OSM   H14A14124   5.479   1.699   1.956 -1.1228  2.9416 -0.6008
  132OSM   H14B14125   5.572   1.660   2.094 -1.1175 -0.5788  0.1826
  132OSM   H14C14126   5.578   1.820   2.023 -1.1560  1.4402 -0.1797
  132OSM    C1314127   5.367   1.923   2.106  0.2402 -0.4469  0.8069
  132OSM   H13A14128   5.364   1.951   2.002 -0.3254  0.4249  1.0452
  132OSM   H13B14129   5.440   1.986   2.157 -2.0028  1.7474  1.4993
  132OSM   H13C14130   5.266   1.949   2.134  0.0921  1.3591 -1.0895
  132OSM    C1214131   5.447   1.770   2.282 -0.4607  0.0717 -0.7800
  132OSM   H12A14132   5.543   1.820   2.283 -0.7082  0.5497 -0.4625
  132OSM   H12B14133   5.470   1.667   2.305 -0.0049  0.3201 -0.0985
  132OSM    C1114134   5.349   1.831   2.396 -0.9135  0.9398 -0.4951
  132OSM   H11A14135   5.305   1.929   2.366 -1.9636  1.2925  1.9384
  132OSM   H11B14136   5.409   1.850   2.487  0.7473 -2.6574 -0.6482
  132OSM      P14137   5.275   1.603   2.484  0.0877 -0.2434  0.2744
  132OSM    O1314138   5.154   1.534   2.536 -0.2814 -0.2776  0.5134
  132OSM    O1414139   5.372   1.524   2.401  0.3305  0.4096  0.2100
  132OSM    O1114140   5.353   1.643   2.613  0.0881  0.2228  0.1381
  132OSM    O1214141   5.242   1.739   2.410  0.3345 -0.4062 -0.0789
  132OSM    C1S14142   5.295   1.727   2.711  0.4240 -0.0367 -0.6523
  132OSM    H1S14143   5.198   1.687   2.745  0.9024 -1.3646 -0.8012
  132OSM    H1T14144   5.292   1.834   2.680  0.8580  0.5392  1.1996
  132OSM     NF14145   5.319   1.826   2.932 -0.0555  0.5459 -0.6229
  132OSM    HNF14146   5.360   1.915   2.953 -0.2394 -0.0092  2.4834
  132OSM    C2S14147   5.391   1.743   2.834  0.0664 -0.2785  0.4359
  132OSM    H2S14148   5.411   1.642   2.877 -0.6874 -0.7850 -0.3739
  132OSM    C3S14149   5.532   1.798   2.798  0.8542  0.3843 -0.0006
  132OSM    H3S14150   5.508   1.905   2.782  0.2052  0.3344  0.5842
  132OSM     O314151   5.599   1.748   2.681 -0.0661 -0.2219 -0.6993
  132OSM    HO314152   5.531   1.690   2.645 -1.3425  1.2448 -0.7797
  132OSM    C4S14153   5.621   1.799   2.916 -0.4647  0.3763 -0.1697
  132OSM    H4S14154   5.600   1.882   2.984 -2.8920 -0.3024 -0.0014
  132OSM    C5S14155   5.711   1.706   2.951 -0.5657 -0.4527  0.4742
  132OSM    H5S14156   5.730   1.635   2.870  1.5231  1.1080 -0.4884
  132OSM    C6S14157   5.803   1.704   3.071 -0.3010 -0.6508 -0.7200
  132OSM    H6S14158   5.904   1.729   3.033  0.1133  0.1051  0.8283
  132OSM    H6T14159   5.816   1.604   3.116  3.1370  0.6839  1.6355
  132OSM    C7S14160   5.760   1.816   3.174  0.1894  0.2268  0.2937
  132OSM    H7S14161   5.741   1.912   3.122 -0.8646  0.0829  0.4028
  132OSM    H7T14162   5.843   1.837   3.245 -1.8432  2.7220  2.1062
  132OSM    C8S14163   5.649   1.753   3.254 -0.4511  0.5886  0.2000
  132OSM    H8S14164   5.690   1.673   3.320 -0.7329  1.6979  1.7807
  132OSM    H8T14165   5.578   1.698   3.188 -0.7158 -1.5720  2.1281
  132OSM    C9S14166   5.581   1.859   3.339 -0.3137 -0.3925  0.0530
  132OSM    H9S14167   5.530   1.931   3.272  0.7090  0.6959  0.4110
  132OSM    H9T14168   5.658   1.918   3.392 -0.9391 -0.1699  0.7405
  132OSM   C10S14169   5.479   1.785   3.431  0.1893 -1.2335  1.3645
  132OSM   H10S14170   5.531   1.734   3.515  0.6555 -1.4543  0.9432
  132OSM   H10T14171   5.427   1.724   3.354 -1.8761  0.9735  0.8758
  132OSM   C11S14172   5.361   1.869   3.482  0.1085  0.1290 -0.7279
  132OSM   H11S14173   5.316   1.938   3.408 -1.2079  1.3391  1.1140
  132OSM   H11T14174   5.399   1.935   3.563  0.1661  0.9400 -1.4069
  132OSM   C12S14175   5.245   1.784   3.522  0.4113 -0.1548  0.2341
  132OSM   H12S14176   5.272   1.717   3.606 -1.6031 -0.3425  0.7938
  132OSM   H12T14177   5.218   1.721   3.434 -1.7949  0.5529  0.3464
  132OSM   C13S14178   5.122   1.868   3.559 -0.8681  0.2160  0.1587
  132OSM   H13S14179   5.098   1.948   3.486 -0.4789  1.6624  1.5474
  132OSM   H13T14180   5.146   1.920   3.655 -0.5133 -0.2911  0.3489
  132OSM   C14S14181   5.002   1.778   3.571 -0.3433 -0.1543  0.1240
  132OSM   H14S14182   4.916   1.832   3.617  0.5939  1.0386  0.5383
  132OSM   H14T14183   5.039   1.702   3.642 -0.6108  1.8577  2.5803
  132OSM   C15S14184   4.954   1.701   3.441 -0.6856 -0.2507 -1.0382
  132OSM   H15S14185   5.032   1.636   3.396  1.3752  1.6749 -0.4342
  132OSM   H15T14186   4.933   1.776   3.362 -3.3121 -0.1002 -0.2857
  132OSM   C16S14187   4.826   1.628   3.468 -0.1395  0.8627 -0.0668
  132OSM   H16S14188   4.761   1.693   3.530 -1.2040 -0.5159  0.3311
  132OSM   H16T14189   4.856   1.553   3.544 -0.2021  0.1423 -0.7419
  132OSM   C17S14190   4.745   1.569   3.350  0.3518 -0.3458 -0.6964
  132OSM   H17S14191   4.734   1.661   3.287  1.0452  0.2241 -0.0040
  132OSM   H17T14192   4.644   1.538   3.383  0.4992 -2.4369 -2.0056
  132OSM   C18S14193   4.812   1.467   3.269  0.3003  0.6818  0.5673
  132OSM   H18S14194   4.917   1.503   3.256 -0.1071  2.2967  1.4849
  132OSM   H18T14195   4.778   1.459   3.164 -0.3410 -0.9193  0.8659
  132OSM   H18U14196   4.819   1.368   3.320  0.0238  0.6962  0.6347
  132OSM    C1F14197   5.216   1.779   3.008 -0.2181 -0.2427  0.0414
  132OSM     OF14198   5.187   1.659   2.998  0.1810  0.4325 -0.7559
  132OSM    C2F14199   5.147   1.864   3.101  0.1262 -0.5197 -0.3138
  132OSM    H2F14200   5.203   1.881   3.196 -2.0909 -0.3467  1.0437
  132OSM    H2G14201   5.050   1.812   3.117 -0.0495 -0.5417 -1.4154
  132OSM    C3F14202   5.127   2.006   3.040 -0.4009  0.2794  0.2463
  132OSM    H3F14203   5.080   1.982   2.943 -0.2806 -0.6186  0.4047
  132OSM    H3G14204   5.228   2.051   3.034  0.3842 -1.0523  2.3132
  132OSM    C4F14205   5.030   2.099   3.112 -0.2459  0.2518  0.2261
  132OSM    H4F14206   4.939   2.036   3.122 -0.1215 -0.1115 -0.7623
  132OSM    H4G14207   5.010   2.193   3.057  1.6839 -0.7137 -2.3479
  132OSM    C5F14208   5.081   2.144   3.249  1.2022  0.4369 -0.9412
  132OSM    H5F14209   5.183   2.188   3.248  0.8498  1.4086  0.9229
  132OSM    H5G14210   5.087   2.055   3.315 -1.6538  1.4603  0.8948
  132OSM    C6F14211   4.992   2.251   3.308 -0.6343  0.4868  1.7839
  132OSM    H6F14212   4.899   2.195   3.334 -1.4580  0.4383 -0.9854
  132OSM    H6G14213   4.967   2.333   3.238 -2.0432 -0.1799  1.4582
  132OSM    C7F14214   5.039   2.303   3.447 -0.2111  0.3136 -0.1212
  132OSM    H7F14215   5.142   2.344   3.444  0.0757 -0.2928  0.8796
  132OSM    H7G14216   5.056   2.216   3.515  0.6180  0.6468  0.1028
  132OSM    C8F14217   4.941   2.397   3.515 -0.2591 -0.7226  0.0459
  132OSM    H8F14218   4.963   2.393   3.624  1.3332  0.0892 -0.2059
  132OSM    H8G14219   4.835   2.367   3.500 -1.1284  1.3444  1.5915
  132OSM    C9F14220   4.948   2.541   3.480 -0.2607 -0.1446 -0.2951
  132OSM    H9F14221   4.985   2.563   3.379  2.1122  1.0656  0.7261
  132OSM   C10F14222   4.928   2.643   3.567 -0.5874  0.4294 -0.8050
  132OSM   H10F14223   4.943   2.745   3.528  0.3401  0.5010 -0.2887
  132OSM   C11F14224   4.884   2.630   3.706  0.5142  0.1935  0.0617
  132OSM   H11F14225   4.948   2.557   3.760 -0.9427 -1.1086  0.0990
  132OSM   H11G14226   4.784   2.581   3.712  0.3246  0.1900 -2.3692
  132OSM   C12F14227   4.877   2.764   3.784  0.1264  0.4628  0.7379
  132OSM   H12F14228   4.852   2.732   3.888 -0.6012  0.0829  0.4505
  132OSM   H12G14229   4.809   2.836   3.734  1.5833  2.0258  0.9113
  132OSM   C13F14230   5.007   2.836   3.804  0.2281 -0.6326 -0.0518
  132OSM   H13F14231   5.061   2.848   3.708  1.2248 -2.4934  0.2160
  132OSM   H13G14232   5.070   2.768   3.867 -1.4533 -2.0399  0.2002
  132OSM   C14F14233   4.995   2.983   3.867  0.6405  0.5743 -0.1459
  132OSM   H14F14234   4.926   3.048   3.809  0.5562  1.2342  0.6820
  132OSM   H14G14235   5.098   3.026   3.866  1.5727 -1.4401  1.4429
  132OSM   C15F14236   4.942   2.979   4.008 -0.2236  0.2117  0.1704
  132OSM   H15F14237   4.846   2.923   4.002  0.5481 -0.9734 -1.9987
  132OSM   H15G14238   4.909   3.072   4.060  1.8283  0.5907  0.8803
  132OSM   C16F14239   5.030   2.908   4.117  0.3652  0.0633 -0.8847
  132OSM   H16F14240   5.132   2.949   4.103 -0.0649  1.0271 -1.3239
  132OSM   H16G14241   5.034   2.800   4.092 -2.4882 -0.4975  0.6027
  132OSM   C17F14242   4.983   2.925   4.260 -1.0584  0.0073  0.2995
  132OSM   H17F14243   5.009   3.032   4.274  1.2371  0.2573 -4.0727
  132OSM   H17G14244   5.044   2.867   4.332 -0.1601 -0.5111 -0.8364
  132OSM   C18F14245   4.840   2.899   4.275  0.1728  0.0921 -0.6686
  132OSM   H18F14246   4.776   2.974   4.223  0.3278  0.7773  0.0968
  132OSM   H18G14247   4.809   2.898   4.382 -0.4463  0.1636 -0.8444
  132OSM   H18H14248   4.815   2.798   4.238 -0.8871  0.5985 -1.3901
  133OSM      N14249   2.065   3.665   1.980 -0.8690 -0.0034  0.1201
  133OSM    C1514250   2.167   3.763   2.026 -0.2036  0.3939 -0.0793
  133OSM   H15A14251   2.128   3.807   2.117  0.4740 -0.8967  0.8723
  133OSM   H15B14252   2.188   3.838   1.951 -0.1671  1.8006  1.2960
  133OSM   H15C14253   2.260   3.718   2.057  0.0496  1.7812  1.3211
  133OSM    C1414254   1.945   3.749   1.933  0.2080 -0.2869  0.3120
  133OSM   H14A14255   1.982   3.821   1.862 -0.0840 -0.2858  0.1587
  133OSM   H14B14256   1.905   3.809   2.013  0.2479  0.4031 -0.1768
  133OSM   H14C14257   1.863   3.694   1.889  1.5994 -1.5325 -0.8057
  133OSM    C1314258   2.118   3.575   1.879  0.0275 -1.1325  0.4790
  133OSM   H13A14259   2.043   3.501   1.856 -0.2904 -0.0336 -2.4801
  133OSM   H13B14260   2.211   3.532   1.913 -0.2810 -2.1989  0.0193
  133OSM   H13C14261   2.147   3.615   1.783  4.2692  1.1784  2.4433
  133OSM    C1214262   2.017   3.582   2.101 -0.0907 -0.4357  0.1191
  133OSM   H12A14263   1.968   3.499   2.054 -1.1955 -0.2740  0.9319
  133OSM   H12B14264   1.942   3.644   2.148 -1.6781 -2.1951  0.0203
  133OSM    C1114265   2.119   3.512   2.194  0.6019 -0.2226  0.2956
  133OSM   H11A14266   2.054   3.468   2.272  0.8825  0.0367  0.6740
  133OSM   H11B14267   2.193   3.577   2.244  0.2093 -0.5015  1.2545
  133OSM      P14268   2.152   3.274   2.076 -0.2466  0.2175 -0.3111
  133OSM    O1314269   2.032   3.279   1.986  0.3191 -0.5171 -0.1966
  133OSM    O1414270   2.271   3.201   2.025 -0.1599  0.1381  0.0411
  133OSM    O1114271   2.109   3.204   2.216 -0.5712 -0.3945  0.0076
  133OSM    O1214272   2.189   3.420   2.121 -0.0864  0.3692  0.3396
  133OSM    C1S14273   2.189   3.203   2.329 -1.2764 -0.4374 -0.2673
  133OSM    H1S14274   2.237   3.302   2.343  0.5302 -0.8389 -2.9339
  133OSM    H1T14275   2.277   3.138   2.308 -0.9044  0.4362 -1.5463
  133OSM     NF14276   2.207   3.142   2.580  0.5356 -0.5789  0.8173
  133OSM    HNF14277   2.225   3.056   2.628  0.8251 -0.1297  1.5295
  133OSM    C2S14278   2.123   3.132   2.457  0.7615 -0.5975  0.0337
  133OSM    H2S14279   2.028   3.188   2.473  0.3143 -2.0483  3.1548
  133OSM    C3S14280   2.064   2.990   2.428 -0.1895  0.4263  0.6900
  133OSM    H3S14281   2.146   2.916   2.428 -1.8092 -1.4357  0.2220
  133OSM     O314282   2.010   2.979   2.297  0.0939  0.0382  0.0294
  133OSM    HO314283   2.017   3.065   2.255  0.8883  1.2476  2.4790
  133OSM    C4S14284   1.970   2.933   2.528 -0.7831 -0.2954 -0.5318
  133OSM    H4S14285   1.888   2.995   2.567  0.9270  2.3374 -0.8941
  133OSM    C5S14286   1.986   2.812   2.586  0.2220 -0.3268 -0.3085
  133OSM    H5S14287   2.076   2.751   2.577 -1.6844 -3.4080  0.0462
  133OSM    C6S14288   1.897   2.757   2.699 -0.9389 -0.1567  0.9968
  133OSM    H6S14289   1.919   2.648   2.707 -2.5373 -0.4155  2.4819
  133OSM    H6T14290   1.789   2.778   2.684 -0.6717  0.5710 -0.0431
  133OSM    C7S14291   1.935   2.821   2.825  0.4726  0.0194  0.4135
  133OSM    H7S14292   1.906   2.928   2.823 -0.4783 -0.1900  1.7286
  133OSM    H7T14293   2.044   2.817   2.845  0.4917  2.6180  1.2826
  133OSM    C8S14294   1.866   2.762   2.952  0.3530 -0.0799 -0.0835
  133OSM    H8S14295   1.887   2.653   2.960  2.1260  0.2223 -0.1980
  133OSM    H8T14296   1.757   2.786   2.947  0.6453  1.4895  0.6879
  133OSM    C9S14297   1.912   2.819   3.084 -0.1756  0.2734  0.1061
  133OSM    H9S14298   1.858   2.916   3.094 -0.9259 -0.0239 -0.8573
  133OSM    H9T14299   2.020   2.844   3.091 -0.2683  0.7452 -0.0835
  133OSM   C10S14300   1.866   2.726   3.203  0.1495  0.0704 -0.0581
  133OSM   H10S14301   1.946   2.719   3.279  0.5918  0.2159 -0.5074
  133OSM   H10T14302   1.852   2.623   3.165  0.2120  0.4795 -1.2221
  133OSM   C11S14303   1.732   2.774   3.274  0.1115  0.6801  0.2915
  133OSM   H11S14304   1.657   2.791   3.194 -0.8770  1.4477  1.3503
  133OSM   H11T14305   1.735   2.870   3.330 -0.9629  0.4381  0.7863
  133OSM   C12S14306   1.701   2.666   3.384 -0.4325  0.3656 -0.9512
  133OSM   H12S14307   1.780   2.679   3.460  1.3797  0.0325 -2.7120
  133OSM   H12T14308   1.709   2.564   3.340 -0.7290 -0.3884  0.6529
  133OSM   C13S14309   1.572   2.697   3.464  0.2614 -0.2787  0.4730
  133OSM   H13S14310   1.495   2.685   3.386 -0.1298 -0.4748  0.8882
  133OSM   H13T14311   1.569   2.802   3.500 -2.2461 -0.5185  1.1375
  133OSM   C14S14312   1.543   2.595   3.578  0.4618 -0.4044 -0.3780
  133OSM   H14S14313   1.609   2.606   3.666  0.8410 -1.9653 -0.4474
  133OSM   H14T14314   1.559   2.497   3.528  0.0584  0.3320 -2.0071
  133OSM   C15S14315   1.394   2.597   3.625 -0.7373  0.4102  0.1744
  133OSM   H15S14316   1.330   2.583   3.535  1.2785  0.7459 -1.3768
  133OSM   H15T14317   1.357   2.684   3.683 -5.1213 -1.1563  0.1330
  133OSM   C16S14318   1.371   2.474   3.723  0.1156 -0.8320  0.3585
  133OSM   H16S14319   1.415   2.378   3.690  1.1282 -0.4226  0.4876
  133OSM   H16T14320   1.261   2.467   3.734 -0.3918  2.5059 -1.2683
  133OSM   C17S14321   1.411   2.496   3.868 -0.6773  0.1301 -0.1237
  133OSM   H17S14322   1.325   2.554   3.909 -1.8677 -1.3529 -0.4249
  133OSM   H17T14323   1.499   2.562   3.881 -1.5516  0.9387  2.2120
  133OSM   C18S14324   1.438   2.366   3.944  0.4028 -1.2401 -0.2259
  133OSM   H18S14325   1.363   2.287   3.922 -1.9511 -0.5124  4.0433
  133OSM   H18T14326   1.465   2.375   4.051 -1.1478 -2.6558  0.3155
  133OSM   H18U14327   1.532   2.326   3.900  1.0501 -1.1778  1.0711
  133OSM    C1F14328   2.261   3.260   2.622  0.0367  0.8544 -0.8125
  133OSM     OF14329   2.222   3.365   2.565 -0.0162 -0.1571 -0.0151
  133OSM    C2F14330   2.368   3.264   2.722 -0.4516 -0.3321 -0.3934
  133OSM    H2F14331   2.454   3.319   2.678 -1.9947  1.3794 -1.3957
  133OSM    H2G14332   2.400   3.160   2.743 -2.6981 -0.8404  0.8578
  133OSM    C3F14333   2.324   3.351   2.839 -0.4812  0.2257  0.1926
  133OSM    H3F14334   2.245   3.295   2.894 -1.4206 -0.8096 -2.0689
  133OSM    H3G14335   2.282   3.449   2.809  1.8972  1.0861 -0.4932
  133OSM    C4F14336   2.419   3.382   2.949 -0.0346 -0.0704  0.5824
  133OSM    H4F14337   2.516   3.417   2.907 -0.4475  2.4174  1.5792
  133OSM    H4G14338   2.436   3.288   3.006 -0.4844  0.0006  0.8331
  133OSM    C5F14339   2.366   3.502   3.028 -1.1142 -0.4676 -0.2092
  133OSM    H5F14340   2.276   3.460   3.079 -1.8646  0.1760 -0.9780
  133OSM    H5G14341   2.337   3.583   2.958 -0.8937 -1.3694 -1.3724
  133OSM    C6F14342   2.465   3.538   3.146 -0.2009 -0.1897 -0.1618
  133OSM    H6F14343   2.538   3.615   3.115  0.2483 -0.6965 -0.3923
  133OSM    H6G14344   2.521   3.449   3.183  1.5393  0.9127 -0.0285
  133OSM    C7F14345   2.388   3.591   3.269 -0.6785  0.2261 -0.5063
  133OSM    H7F14346   2.306   3.520   3.292 -1.5318  1.3414 -0.0425
  133OSM    H7G14347   2.347   3.692   3.248 -0.4731  0.5203  0.4544
  133OSM    C8F14348   2.478   3.601   3.399  0.1453 -0.6377  0.5689
  133OSM    H8F14349   2.561   3.673   3.381  0.4147 -1.3180 -1.0856
  133OSM    H8G14350   2.516   3.499   3.423  0.8803 -0.5128 -0.0329
  133OSM    C9F14351   2.394   3.665   3.511  0.0465  0.7672 -0.4950
  133OSM    H9F14352   2.356   3.765   3.486  0.0532  0.6405 -1.0312
  133OSM   C10F14353   2.376   3.609   3.633 -0.3698 -0.3336 -0.1068
  133OSM   H10F14354   2.321   3.672   3.704  1.5574  0.4212  0.8075
  133OSM   C11F14355   2.410   3.478   3.688  0.3918  0.3264  0.4949
  133OSM   H11F14356   2.379   3.400   3.615 -0.7704  1.1665  0.0572
  133OSM   H11G14357   2.352   3.460   3.782 -1.5408 -1.2256 -0.8934
  133OSM   C12F14358   2.553   3.443   3.716  0.3644  0.6944  0.4718
  133OSM   H12F14359   2.620   3.479   3.635  1.3753 -1.8450  0.0852
  133OSM   H12G14360   2.561   3.333   3.708  0.5901  0.7947 -1.0268
  133OSM   C13F14361   2.604   3.493   3.848 -0.6543  0.0070 -0.1100
  133OSM   H13F14362   2.547   3.585   3.872  1.2340  1.4914 -0.9893
  133OSM   H13G14363   2.714   3.510   3.846 -1.0777  3.1768 -0.9529
  133OSM   C14F14364   2.581   3.386   3.962 -0.0557 -0.0247  0.3643
  133OSM   H14F14365   2.665   3.317   3.942  1.3898  1.3843  1.2969
  133OSM   H14G14366   2.477   3.349   3.952  0.7407 -2.4106  0.2997
  133OSM   C15F14367   2.605   3.441   4.103  0.0950  0.1332 -0.1700
  133OSM   H15F14368   2.703   3.492   4.115 -0.4511  0.8737  1.4388
  133OSM   H15G14369   2.597   3.366   4.184 -1.7355 -0.0999 -0.5279
  133OSM   C16F14370   2.501   3.544   4.164 -0.3234  1.0121  0.1083
  133OSM   H16F14371   2.396   3.507   4.158  0.4691 -1.3007 -0.6825
  133OSM   H16G14372   2.506   3.630   4.093  0.0419  0.3683 -0.6633
  133OSM   C17F14373   2.538   3.587   4.306 -0.1181 -0.0912  0.0307
  133OSM   H17F14374   2.546   3.697   4.296 -0.2777 -0.1655 -1.0026
  133OSM   H17G14375   2.639   3.545   4.328 -0.4490 -0.3564  1.0773
  133OSM   C18F14376   2.467   3.539   4.433 -0.0461 -0.5617 -0.5390
  133OSM   H18F14377   2.463   3.429   4.440  0.2042 -0.5235  0.2929
  133OSM   H18G14378   2.370   3.593   4.448  0.0741 -0.5686  0.3127
  133OSM   H18H14379   2.529   3.560   4.523 -2.0445  0.4686  0.6878
  134OSM      N14380   4.180   5.990   2.162  0.1819  0.1473 -0.5622
  134OSM    C1514381   4.289   5.909   2.110  0.2254  0.4257  0.0811
  134OSM   H15A14382   4.286   5.891   2.003 -0.7491 -1.9453  0.4572
  134OSM   H15B14383   4.295   5.808   2.146 -0.6768 -0.3220 -1.7494
  134OSM   H15C14384   4.386   5.953   2.127 -0.5838  2.8309 -1.0650
  134OSM    C1414385   4.182   6.126   2.094  0.3319  0.1672 -0.5323
  134OSM   H14A14386   4.278   6.176   2.101  0.4281 -0.2432  1.3886
  134OSM   H14B14387   4.101   6.185   2.134 -0.1860 -0.0584 -1.2338
  134OSM   H14C14388   4.162   6.110   1.989  2.3755  1.3333 -1.1686
  134OSM    C1314389   4.044   5.927   2.160  0.3861 -0.3430  0.3651
  134OSM   H13A14390   4.014   5.905   2.058 -0.0373  0.0712  0.3953
  134OSM   H13B14391   3.968   5.993   2.198  1.3695 -0.0924  1.9709
  134OSM   H13C14392   4.024   5.835   2.213  2.7316 -2.2036 -1.7600
  134OSM    C1214393   4.217   6.017   2.311  0.3092 -0.4931  0.0976
  134OSM   H12A14394   4.203   5.922   2.359  2.7302 -1.9117 -1.7731
  134OSM   H12B14395   4.149   6.089   2.355  1.9481  0.8378  0.5372
  134OSM    C1114396   4.362   6.072   2.346  0.0783 -0.1647 -0.5883
  134OSM   H11A14397   4.354   6.083   2.456  0.1792 -1.2285 -0.4647
  134OSM   H11B14398   4.389   6.170   2.301  2.6945 -0.8247 -0.5958
  134OSM      P14399   4.496   5.844   2.378  0.5187 -0.1632  0.2145
  134OSM    O1314400   4.409   5.737   2.311  0.0823 -0.1691  0.3654
  134OSM    O1414401   4.643   5.826   2.370  0.0675  0.3755 -0.7448
  134OSM    O1114402   4.454   5.866   2.528 -0.0627  0.2110  0.3245
  134OSM    O1214403   4.473   5.981   2.311 -0.0456  0.2906 -0.3006
  134OSM    C1S14404   4.454   5.764   2.631 -0.6503 -1.2464 -0.3505
  134OSM    H1S14405   4.503   5.672   2.593  1.1511 -1.3181  1.9322
  134OSM    H1T14406   4.351   5.739   2.666 -1.2887  1.0704 -0.4514
  134OSM     NF14407   4.557   5.706   2.849  0.5475  0.2750  0.0762
  134OSM    HNF14408   4.503   5.701   2.933 -0.1801 -1.9799 -0.4378
  134OSM    C2S14409   4.528   5.816   2.764 -0.5452 -0.1686 -0.2926
  134OSM    H2S14410   4.630   5.849   2.735 -0.3908  0.0709  0.5049
  134OSM    C3S14411   4.463   5.935   2.839 -0.0794 -0.3896  0.0874
  134OSM    H3S14412   4.364   5.900   2.874  0.4090 -1.5618  0.3459
  134OSM     O314413   4.433   6.047   2.750 -0.5446  0.5789 -0.1481
  134OSM    HO314414   4.432   6.005   2.664  1.9075 -1.1937  0.5773
  134OSM    C4S14415   4.540   5.985   2.957  0.5405  0.8508  0.0566
  134OSM    H4S14416   4.649   5.996   2.947  0.7649 -1.6148 -0.9281
  134OSM    C5S14417   4.487   6.001   3.080  0.1805  0.2174 -0.4227
  134OSM    H5S14418   4.378   6.003   3.094 -0.1659  1.0344 -2.8506
  134OSM    C6S14419   4.565   6.039   3.204  0.2560  0.2116  0.1503
  134OSM    H6S14420   4.671   6.068   3.186  0.5086 -0.4335  0.5667
  134OSM    H6T14421   4.571   5.945   3.263 -0.2723  0.1519  0.1093
  134OSM    C7S14422   4.512   6.153   3.293  0.1041  0.4391 -0.9222
  134OSM    H7S14423   4.484   6.237   3.227  1.0816  2.1954  0.8035
  134OSM    H7T14424   4.587   6.191   3.366 -1.3832 -0.3208  1.0834
  134OSM    C8S14425   4.383   6.121   3.374 -0.1717  0.4990  0.6157
  134OSM    H8S14426   4.399   6.049   3.456  1.4586  1.7158  1.4233
  134OSM    H8T14427   4.308   6.086   3.300  0.5268 -2.4681  1.1657
  134OSM    C9S14428   4.324   6.249   3.438  0.2289 -0.4777  0.2176
  134OSM    H9S14429   4.224   6.239   3.486  0.1324  1.9807  0.6378
  134OSM    H9T14430   4.316   6.326   3.358  1.4333 -1.4063 -0.8492
  134OSM   C10S14431   4.415   6.319   3.545  0.9516 -0.7614  0.2452
  134OSM   H10S14432   4.365   6.412   3.579 -0.9043 -1.2774 -0.8818
  134OSM   H10T14433   4.509   6.349   3.494 -0.8361  2.7999 -1.3188
  134OSM   C11S14434   4.437   6.232   3.655  0.3617 -0.0048 -0.1855
  134OSM   H11S14435   4.508   6.158   3.613  0.2728  0.4245 -1.1131
  134OSM   H11T14436   4.341   6.182   3.684  0.9286  0.8257  3.6948
  134OSM   C12S14437   4.480   6.287   3.790  0.0693 -0.4084 -0.1983
  134OSM   H12S14438   4.395   6.334   3.843 -1.2328 -1.8348 -0.9358
  134OSM   H12T14439   4.559   6.359   3.762  0.5115 -1.2410 -1.1550
  134OSM   C13S14440   4.535   6.173   3.883  0.0998 -0.6977  0.1055
  134OSM   H13S14441   4.631   6.142   3.834  1.6773  2.8546  0.6648
  134OSM   H13T14442   4.467   6.086   3.888  0.6162 -1.1996 -1.0221
  134OSM   C14S14443   4.569   6.217   4.022  0.1492 -0.5708  0.1345
  134OSM   H14S14444   4.477   6.257   4.070 -0.6131  0.3384 -1.9570
  134OSM   H14T14445   4.635   6.307   4.017 -1.6285  0.7471 -4.7328
  134OSM   C15S14446   4.637   6.106   4.101  0.7706  0.0878  0.0813
  134OSM   H15S14447   4.741   6.117   4.064  0.1905  0.9751 -1.3841
  134OSM   H15T14448   4.596   6.008   4.068 -0.1558  0.3189  0.5174
  134OSM   C16S14449   4.626   6.131   4.252 -0.2410  0.1022  0.0363
  134OSM   H16S14450   4.607   6.240   4.266 -0.9936 -0.1291  0.8949
  134OSM   H16T14451   4.722   6.106   4.301 -0.0258 -1.0719 -0.9390
  134OSM   C17S14452   4.512   6.064   4.327 -0.2235 -0.6538 -1.3882
  134OSM   H17S14453   4.551   5.961   4.337  1.7082  0.0938 -0.7704
  134OSM   H17T14454   4.410   6.058   4.284 -0.5226 -1.6233 -0.5834
  134OSM   C18S14455   4.502   6.134   4.464 -0.2783  0.5791 -0.7804
  134OSM   H18S14456   4.427   6.084   4.529  2.0315 -0.7525  1.0470
  134OSM   H18T14457   4.482   6.243   4.454 -1.1401  0.5333  0.2320
  134OSM   H18U14458   4.599   6.122   4.518 -0.6562 -0.8931 -0.3706
  134OSM    C1F14459   4.636   5.609   2.816  0.5018 -0.1379  0.0691
  134OSM     OF14460   4.716   5.604   2.719 -0.4193  0.3373 -0.1029
  134OSM    C2F14461   4.628   5.495   2.918 -0.5414 -0.2433  0.5118
  134OSM    H2F14462   4.525   5.456   2.900 -0.8255 -0.0470  1.6705
  134OSM    H2G14463   4.642   5.530   3.022 -1.0976  0.9338  0.2124
  134OSM    C3F14464   4.724   5.381   2.880  0.3394  0.1086 -0.2299
  134OSM    H3F14465   4.830   5.412   2.883  0.0505  1.3727 -1.7854
  134OSM    H3G14466   4.706   5.344   2.776 -0.3841 -1.0266  0.2753
  134OSM    C4F14467   4.712   5.260   2.976 -0.2968 -0.5176  0.2960
  134OSM    H4F14468   4.717   5.288   3.084  3.3389 -0.7506  0.3185
  134OSM    H4G14469   4.793   5.185   2.961  0.1873  0.0601 -0.0579
  134OSM    C5F14470   4.572   5.191   2.960  0.2417  0.2529 -0.4418
  134OSM    H5F14471   4.551   5.178   2.852  1.9653 -0.9882 -0.6733
  134OSM    H5G14472   4.497   5.261   3.002  2.3964  1.9644  0.7463
  134OSM    C6F14473   4.561   5.046   3.026  0.1461 -0.0838 -1.2571
  134OSM    H6F14474   4.639   4.981   2.981  0.4876 -1.1895  0.8043
  134OSM    H6G14475   4.463   4.997   3.009 -0.0554  0.2896 -1.1831
  134OSM    C7F14476   4.586   5.060   3.178  0.3612 -0.3607  0.1385
  134OSM    H7F14477   4.682   5.108   3.206  0.4996 -1.1777  1.1379
  134OSM    H7G14478   4.593   4.963   3.233 -1.6402  0.4997  2.0556
  134OSM    C8F14479   4.473   5.130   3.261 -0.3931 -0.5618  0.0245
  134OSM    H8F14480   4.459   5.236   3.232  0.6833  0.1978  2.0428
  134OSM    H8G14481   4.505   5.129   3.368 -1.8861  2.6298  0.6259
  134OSM    C9F14482   4.341   5.057   3.255  0.5063 -0.1425  0.4474
  134OSM    H9F14483   4.349   4.965   3.194 -2.5227 -0.6210  0.6114
  134OSM   C10F14484   4.230   5.085   3.324  0.1501 -0.4251 -1.0272
  134OSM   H10F14485   4.138   5.029   3.304 -1.3977  1.5019  0.2403
  134OSM   C11F14486   4.222   5.197   3.427  0.6507  0.4243 -0.6108
  134OSM   H11F14487   4.134   5.263   3.417 -0.4833 -0.5767  1.9099
  134OSM   H11G14488   4.310   5.261   3.405  0.2497  1.6127  1.0873
  134OSM   C12F14489   4.237   5.160   3.578 -0.1043 -0.3991  0.2350
  134OSM   H12F14490   4.194   5.238   3.644 -2.0318 -1.9396  0.9112
  134OSM   H12G14491   4.347   5.161   3.594 -0.1927  2.3412  1.1967
  134OSM   C13F14492   4.158   5.040   3.631 -0.5009  0.1347  0.3105
  134OSM   H13F14493   4.146   5.039   3.742 -3.4483  1.6000  0.0891
  134OSM   H13G14494   4.198   4.944   3.594 -0.8169  0.1320 -0.0307
  134OSM   C14F14495   4.010   5.034   3.579 -0.6779  0.1882 -0.1350
  134OSM   H14F14496   3.971   4.938   3.619 -1.0221  1.1649  2.0110
  134OSM   H14G14497   4.005   5.015   3.469  0.4604 -0.5652 -0.0820
  134OSM   C15F14498   3.926   5.146   3.642 -0.4545 -0.1195 -0.1387
  134OSM   H15F14499   3.828   5.123   3.595 -0.2570 -0.1336 -0.5468
  134OSM   H15G14500   3.964   5.249   3.625 -2.3304  0.6674  0.1953
  134OSM   C16F14501   3.896   5.138   3.794  0.8560  0.6026 -0.1241
  134OSM   H16F14502   3.991   5.163   3.845  1.6818 -0.4413 -1.0952
  134OSM   H16G14503   3.875   5.034   3.826  2.3796 -0.4697 -2.3667
  134OSM   C17F14504   3.785   5.242   3.832  0.3040 -0.2852  0.1678
  134OSM   H17F14505   3.755   5.211   3.935 -2.1364 -0.5242 -0.5592
  134OSM   H17G14506   3.705   5.211   3.762  0.4724 -0.6125  0.1186
  134OSM   C18F14507   3.814   5.390   3.806  0.0472  0.0123 -0.4533
  134OSM   H18F14508   3.808   5.412   3.697  1.2440  0.8623 -0.3643
  134OSM   H18G14509   3.916   5.399   3.849  0.1494 -0.6109 -0.5565
  134OSM   H18H14510   3.748   5.454   3.868  1.1513 -0.4194  1.2344
  135OSM      N14511   5.757   3.352   2.043  0.0060  0.4639  0.4338
  135OSM    C1514512   5.731   3.325   2.184 -0.5394 -1.0337  0.1616
  135OSM   H15A14513   5.725   3.424   2.226 -0.4174 -0.2730 -1.5141
  135OSM   H15B14514   5.815   3.278   2.233  0.9000  0.7707 -0.4278
  135OSM   H15C14515   5.637   3.275   2.201 -0.0177 -1.5344  1.6987
  135OSM    C1414516   5.640   3.435   1.988  0.2962 -0.9752 -0.0895
  135OSM   H14A14517   5.547   3.394   2.025  0.1544 -0.1796  0.4637
  135OSM   H14B14518   5.645   3.442   1.880  4.0119 -0.2556  0.0118
  135OSM   H14C14519   5.642   3.535   2.030 -1.0264 -0.4576 -1.1628
  135OSM    C1314520   5.879   3.431   2.027  0.2052  0.3719 -0.4088
  135OSM   H13A14521   5.957   3.396   2.093 -0.1164  0.8178  0.2163
  135OSM   H13B14522   5.849   3.533   2.047 -1.5523 -0.3635  0.9049
  135OSM   H13C14523   5.911   3.429   1.924  2.4190 -0.0903  0.2348
  135OSM    C1214524   5.751   3.217   1.976 -0.3774 -0.0331  0.0874
  135OSM   H12A14525   5.761   3.226   1.869 -0.4245 -2.5618 -0.1831
  135OSM   H12B14526   5.655   3.169   1.985 -0.8307  0.9550  0.7740
  135OSM    C1114527   5.871   3.114   2.019 -0.3875  0.1867  0.3641
  135OSM   H11A14528   5.972   3.161   2.027 -1.5976  3.1719 -0.3042
  135OSM   H11B14529   5.875   3.041   1.935  0.0377  0.8984 -0.2525
  135OSM      P14530   5.937   2.939   2.193 -0.2790 -0.3612 -0.0327
  135OSM    O1314531   5.885   2.891   2.322 -0.3272 -1.0033  0.2752
  135OSM    O1414532   5.971   2.844   2.091 -0.0615  0.0170  0.6053
  135OSM    O1114533   6.071   3.017   2.224  0.1116 -0.1642  0.1899
  135OSM    O1214534   5.838   3.047   2.142 -0.6809  0.2473  0.0439
  135OSM    C1S14535   6.073   3.146   2.288 -0.2959 -0.1152  0.1821
  135OSM    H1S14536   5.974   3.196   2.284 -0.3178 -0.2412 -1.9626
  135OSM    H1T14537   6.144   3.219   2.244 -0.2792 -0.5305 -0.5036
  135OSM     NF14538   6.091   3.265   2.509  0.2093  0.1792 -0.1108
  135OSM    HNF14539   6.178   3.312   2.519  0.5241 -0.3077 -0.4811
  135OSM    C2S14540   6.104   3.134   2.441 -0.2306 -0.4242  0.0111
  135OSM    H2S14541   6.023   3.072   2.485 -0.6470  1.9553  2.9067
  135OSM    C3S14542   6.252   3.064   2.450  0.0229 -0.3422  0.3846
  135OSM    H3S14543   6.316   3.104   2.368 -1.7665  1.0241 -0.4164
  135OSM     O314544   6.256   2.933   2.412  0.4451 -0.0611 -0.1765
  135OSM    HO314545   6.185   2.931   2.348 -0.0594  1.6138  0.2780
  135OSM    C4S14546   6.313   3.080   2.588  0.2321 -0.5130 -0.2511
  135OSM    H4S14547   6.352   3.182   2.604  0.8663 -0.6489 -0.8783
  135OSM    C5S14548   6.310   2.990   2.693  0.2798 -0.6025  0.6117
  135OSM    H5S14549   6.257   2.896   2.672  0.4116 -0.0258 -2.9269
  135OSM    C6S14550   6.353   3.017   2.829  0.6189  1.3480  0.1387
  135OSM    H6S14551   6.271   3.078   2.872 -0.1580  0.6214 -0.2908
  135OSM    H6T14552   6.446   3.077   2.836  0.7944  1.1608 -0.5133
  135OSM    C7S14553   6.368   2.891   2.929 -0.4605 -0.2909 -0.0664
  135OSM    H7S14554   6.441   2.822   2.880 -0.2824  2.2660 -3.7800
  135OSM    H7T14555   6.274   2.833   2.928  0.2675 -1.5234 -1.4066
  135OSM    C8S14556   6.409   2.937   3.066 -0.2737  0.4547 -0.1793
  135OSM    H8S14557   6.361   3.033   3.093 -1.6695  0.0061 -0.9592
  135OSM    H8T14558   6.519   2.952   3.058 -0.4781  1.6618 -0.8476
  135OSM    C9S14559   6.375   2.835   3.178 -0.2844 -0.2190  0.4185
  135OSM    H9S14560   6.442   2.748   3.171 -1.2516 -1.0317  0.9404
  135OSM    H9T14561   6.276   2.789   3.158 -0.7445  1.9601 -3.3718
  135OSM   C10S14562   6.392   2.906   3.308 -0.2201 -0.8208  0.1838
  135OSM   H10S14563   6.308   2.977   3.320  0.5121  0.4421 -1.6766
  135OSM   H10T14564   6.485   2.968   3.314 -0.2782 -0.8459  1.7479
  135OSM   C11S14565   6.365   2.808   3.424  0.1764  0.4119  0.2803
  135OSM   H11S14566   6.419   2.717   3.392 -1.0990 -0.3806  0.2960
  135OSM   H11T14567   6.259   2.779   3.440 -0.6642  1.4284 -2.9173
  135OSM   C12S14568   6.451   2.849   3.536 -0.2694  0.0635 -0.0613
  135OSM   H12S14569   6.548   2.876   3.490  0.0407  2.4618  1.7991
  135OSM   H12T14570   6.475   2.769   3.609 -0.9531  0.3374  0.4793
  135OSM   C13S14571   6.397   2.971   3.612 -0.4114 -0.0641 -0.3600
  135OSM   H13S14572   6.293   2.956   3.650 -0.0339 -0.8036  0.4276
  135OSM   H13T14573   6.404   3.055   3.540  0.0795 -0.4444 -0.7618
  135OSM   C14S14574   6.492   3.019   3.713  0.6080 -0.3778 -0.0314
  135OSM   H14S14575   6.586   3.044   3.660  0.2874 -0.3970 -0.6246
  135OSM   H14T14576   6.522   2.937   3.781  0.0908 -0.2474  0.3630
  135OSM   C15S14577   6.421   3.127   3.799 -0.3527 -0.0731  0.8444
  135OSM   H15S14578   6.351   3.082   3.873  1.1784 -0.6986  1.9619
  135OSM   H15T14579   6.367   3.196   3.730 -2.1564 -0.4054  1.8568
  135OSM   C16S14580   6.525   3.204   3.886 -0.2168 -0.7679 -1.0783
  135OSM   H16S14581   6.583   3.274   3.822  0.1703 -1.2289 -1.2393
  135OSM   H16T14582   6.586   3.137   3.951 -0.7352  0.5720  0.9073
  135OSM   C17S14583   6.461   3.304   3.985  0.8608  0.1846 -0.3471
  135OSM   H17S14584   6.370   3.345   3.936  0.1300 -1.0739 -0.0813
  135OSM   H17T14585   6.535   3.381   4.019 -1.4976  0.9581  3.6982
  135OSM   C18S14586   6.410   3.251   4.119  0.6685 -0.4771  0.5816
  135OSM   H18S14587   6.337   3.170   4.099  0.1745  0.3186 -1.0689
  135OSM   H18T14588   6.355   3.328   4.178 -2.9228 -1.8373 -0.6956
  135OSM   H18U14589   6.492   3.203   4.175 -2.8904 -2.3815  4.7093
  135OSM    C1F14590   5.976   3.330   2.530  0.2117 -0.4352 -0.6916
  135OSM     OF14591   5.874   3.280   2.484  0.3322  0.4222  0.1804
  135OSM    C2F14592   5.974   3.462   2.598 -0.1401  0.2156 -0.5069
  135OSM    H2F14593   5.926   3.547   2.545  1.6588  2.9222  1.8752
  135OSM    H2G14594   6.079   3.492   2.618 -0.1236 -0.5485  0.6370
  135OSM    C3F14595   5.908   3.466   2.738 -0.2397  0.1971 -0.6796
  135OSM    H3F14596   5.798   3.451   2.730 -0.5704  0.2063  2.6371
  135OSM    H3G14597   5.937   3.560   2.788  1.8744  0.2287 -1.8224
  135OSM    C4F14598   5.949   3.347   2.825  0.4047  0.3573 -0.3344
  135OSM    H4F14599   6.054   3.321   2.800  0.3396 -1.1221  0.8069
  135OSM    H4G14600   5.885   3.261   2.796  1.1561 -0.0477 -0.8143
  135OSM    C5F14601   5.926   3.364   2.978  0.4510 -0.1847  0.1090
  135OSM    H5F14602   5.975   3.458   3.011 -1.0512  0.9720 -0.8188
  135OSM    H5G14603   5.977   3.282   3.034  2.6490  1.0904  0.0908
  135OSM    C6F14604   5.785   3.360   3.032  0.1184  0.2638 -0.5627
  135OSM    H6F14605   5.742   3.258   3.039 -1.5853  0.9648 -0.3247
  135OSM    H6G14606   5.726   3.423   2.962  1.3684  3.8390  1.3909
  135OSM    C7F14607   5.783   3.427   3.165  0.8982 -0.0255 -0.4694
  135OSM    H7F14608   5.822   3.530   3.149 -0.2771  0.2962 -1.3804
  135OSM    H7G14609   5.860   3.373   3.224  0.2405  0.1688  0.6002
  135OSM    C8F14610   5.651   3.434   3.250  0.1420 -0.2113 -0.1252
  135OSM    H8F14611   5.577   3.474   3.177  0.7303 -2.0706 -1.8154
  135OSM    H8G14612   5.662   3.508   3.332  1.2797  2.6828 -2.6698
  135OSM    C9F14613   5.597   3.301   3.282 -0.5377 -0.0391 -0.4594
  135OSM    H9F14614   5.589   3.231   3.197  1.6572 -0.2079 -0.5739
  135OSM   C10F14615   5.555   3.256   3.400  0.4844  0.2241  0.1139
  135OSM   H10F14616   5.522   3.151   3.401 -0.8594  0.6312  0.1393
  135OSM   C11F14617   5.540   3.335   3.529 -0.5846 -0.0857 -0.4940
  135OSM   H11F14618   5.439   3.380   3.534 -0.3939  0.1864  2.0452
  135OSM   H11G14619   5.623   3.409   3.539  0.9428 -2.0534  2.9969
  135OSM   C12F14620   5.570   3.237   3.649  0.3442 -0.7754  0.7473
  135OSM   H12F14621   5.561   3.309   3.733  1.8658  0.6929 -0.2828
  135OSM   H12G14622   5.675   3.202   3.648  0.1702 -1.4444  2.6774
  135OSM   C13F14623   5.477   3.116   3.656  0.3270  0.0754  0.0062
  135OSM   H13F14624   5.503   3.050   3.571  2.7997  1.2866 -0.2637
  135OSM   H13G14625   5.373   3.155   3.654  0.4625  0.5043 -2.8373
  135OSM   C14F14626   5.515   3.038   3.782  0.1475 -0.0189 -0.1796
  135OSM   H14F14627   5.622   3.010   3.788  0.3753  0.7656 -0.3909
  135OSM   H14G14628   5.465   2.939   3.779 -0.3489  0.2493 -1.4967
  135OSM   C15F14629   5.474   3.098   3.917  0.0861  0.0833 -0.6829
  135OSM   H15F14630   5.372   3.138   3.901 -0.0334  1.0369  1.9111
  135OSM   H15G14631   5.542   3.182   3.941  0.1903  0.0916 -1.0033
  135OSM   C16F14632   5.472   2.991   4.031  0.2186 -0.3080 -0.7137
  135OSM   H16F14633   5.399   2.911   4.004  1.8650 -2.7744  1.6325
  135OSM   H16G14634   5.438   3.038   4.126 -1.2548  0.8439 -1.7694
  135OSM   C17F14635   5.602   2.910   4.044 -0.1556 -1.1260 -0.1440
  135OSM   H17F14636   5.669   2.933   3.959 -2.0037  2.0987 -0.9335
  135OSM   H17G14637   5.583   2.801   4.041  2.7693 -1.7151  0.0671
  135OSM   C18F14638   5.680   2.941   4.168 -0.7815 -0.4339 -0.2295
  135OSM   H18F14639   5.627   3.024   4.219 -0.3044 -1.0570  1.3492
  135OSM   H18G14640   5.788   2.964   4.178 -1.2888  1.2679  2.6750
  135OSM   H18H14641   5.663   2.854   4.236 -2.8190  2.1210  2.8321
  136OSM      N14642   2.787   0.831   2.447  0.2430 -0.1482 -0.8039
  136OSM    C1514643   2.738   0.772   2.316 -0.3161  0.1351 -0.1359
  136OSM   H15A14644   2.809   0.699   2.280  0.0352  0.6785 -0.5572
  136OSM   H15B14645   2.733   0.855   2.247 -1.8461 -0.6474 -0.9939
  136OSM   H15C14646   2.635   0.743   2.307 -0.3524  0.6499 -1.6640
  136OSM    C1414647   2.689   0.928   2.514 -0.4038  0.0284 -0.5347
  136OSM   H14A14648   2.702   1.026   2.469 -2.8491  0.4402 -0.4679
  136OSM   H14B14649   2.704   0.945   2.619  0.0113  0.2558 -0.6267
  136OSM   H14C14650   2.586   0.904   2.493 -0.6961  0.6101  0.1949
  136OSM    C1314651   2.804   0.715   2.543  0.4455  0.3118  0.0684
  136OSM   H13A14652   2.712   0.659   2.552 -0.1049  1.3152  0.9466
  136OSM   H13B14653   2.836   0.759   2.636 -0.4789  2.3175 -0.5230
  136OSM   H13C14654   2.887   0.651   2.517  0.9039 -0.4755  3.0621
  136OSM    C1214655   2.925   0.904   2.418 -0.1103 -0.2776  0.4479
  136OSM   H12A14656   2.961   0.946   2.511 -0.8231 -1.0942  1.1097
  136OSM   H12B14657   2.905   0.996   2.366  2.0552  0.9423  1.6255
  136OSM    C1114658   3.041   0.821   2.361  0.5638  0.0923 -0.3301
  136OSM   H11A14659   3.131   0.884   2.370  1.2435 -0.8047 -0.6837
  136OSM   H11B14660   3.026   0.816   2.251  3.6194 -0.2176 -0.8203
  136OSM      P14661   3.167   0.604   2.411  0.1142  0.3492  0.0386
  136OSM    O1314662   3.122   0.483   2.343 -0.2637  0.1102  0.5368
  136OSM    O1414663   3.274   0.682   2.347  0.1172 -0.1042  0.0617
  136OSM    O1114664   3.201   0.570   2.564 -0.0148  0.5819  0.0959
  136OSM    O1214665   3.046   0.696   2.426  0.1389  0.2458  0.2032
  136OSM    C1S14666   3.104   0.576   2.673 -0.1253 -0.0475  1.0397
  136OSM    H1S14667   3.011   0.525   2.637  0.6928 -1.5869  1.0015
  136OSM    H1T14668   3.080   0.684   2.682 -0.3312 -0.0299  0.3054
  136OSM     NF14669   3.023   0.532   2.880  0.5188 -0.0326 -0.0743
  136OSM    HNF14670   2.998   0.609   2.937 -0.9549 -0.1870 -0.4755
  136OSM    C2S14671   3.145   0.527   2.816  0.5226  0.4025 -0.2020
  136OSM    H2S14672   3.190   0.426   2.814 -2.3095 -0.9446 -1.1656
  136OSM    C3S14673   3.254   0.619   2.875 -0.0734  0.1009  0.1117
  136OSM    H3S14674   3.231   0.728   2.867  0.3970  0.2074  0.1438
  136OSM     O314675   3.370   0.623   2.785 -0.3668  0.3809  0.8066
  136OSM    HO314676   3.343   0.561   2.717  0.4799  2.5991 -1.7212
  136OSM    C4S14677   3.297   0.574   3.018 -0.0871  0.3541  1.1585
  136OSM    H4S14678   3.217   0.611   3.084  0.3115  2.3844  0.5736
  136OSM    C5S14679   3.399   0.495   3.068  0.5925 -0.5764  0.4506
  136OSM    H5S14680   3.468   0.451   2.995 -0.1794 -3.1984  1.1950
  136OSM    C6S14681   3.425   0.449   3.208  0.5752 -0.4222  0.0586
  136OSM    H6S14682   3.492   0.520   3.261  0.4746 -1.3603  1.5128
  136OSM    H6T14683   3.487   0.357   3.211 -0.3854 -1.0569  2.0760
  136OSM    C7S14684   3.301   0.441   3.304  0.1651  0.7924 -0.3130
  136OSM    H7S14685   3.221   0.377   3.259 -0.8351  1.8829 -0.1263
  136OSM    H7T14686   3.258   0.541   3.327 -1.2108  0.1399  0.0966
  136OSM    C8S14687   3.356   0.381   3.435 -0.5488  0.4190  0.1132
  136OSM    H8S14688   3.442   0.439   3.474 -1.0601  0.5558  1.0637
  136OSM    H8T14689   3.387   0.275   3.420 -1.0930  0.3657 -0.6951
  136OSM    C9S14690   3.252   0.382   3.548 -0.2467  0.2810  0.4846
  136OSM    H9S14691   3.164   0.324   3.513 -0.9050 -0.1623  2.7527
  136OSM    H9T14692   3.225   0.489   3.560  0.8120  0.4232  1.7189
  136OSM   C10S14693   3.304   0.323   3.680  0.2889  0.3723 -0.9755
  136OSM   H10S14694   3.393   0.382   3.709 -0.4025  0.9625 -0.0245
  136OSM   H10T14695   3.339   0.220   3.653  0.6823  0.2436  0.0028
  136OSM   C11S14696   3.205   0.307   3.790 -0.4921  0.6657 -0.3520
  136OSM   H11S14697   3.129   0.230   3.765  0.6122 -0.3837 -0.5489
  136OSM   H11T14698   3.150   0.402   3.811 -1.3817 -0.4885  3.0705
  136OSM   C12S14699   3.283   0.267   3.917  0.0782  0.0684  0.5904
  136OSM   H12S14700   3.375   0.328   3.932  0.7482 -1.1490  1.6664
  136OSM   H12T14701   3.309   0.159   3.904  1.7197  0.4174  0.7815
  136OSM   C13S14702   3.192   0.279   4.034  0.2682 -0.3755 -0.4735
  136OSM   H13S14703   3.116   0.198   4.032  0.8079 -0.9033  0.1109
  136OSM   H13T14704   3.140   0.378   4.035  2.2790  0.7605 -1.4699
  136OSM   C14S14705   3.257   0.250   4.171  0.4150  0.0659  0.3139
  136OSM   H14S14706   3.351   0.309   4.175  0.4905  0.2358 -2.3179
  136OSM   H14T14707   3.288   0.143   4.179  2.4013  0.0715 -4.1289
  136OSM   C15S14708   3.165   0.294   4.281  0.6917 -0.0005  0.4679
  136OSM   H15S14709   3.069   0.238   4.273  0.4218  0.5429 -0.2504
  136OSM   H15T14710   3.144   0.400   4.254 -0.4066 -0.2970  0.1083
  136OSM   C16S14711   3.226   0.273   4.420 -0.6371  0.0343  0.4134
  136OSM   H16S14712   3.305   0.350   4.437  0.3200 -0.5632 -1.1243
  136OSM   H16T14713   3.288   0.181   4.422 -0.0829  0.3478 -0.9587
  136OSM   C17S14714   3.118   0.265   4.526  0.4365 -0.1214 -0.0808
  136OSM   H17S14715   3.040   0.197   4.486 -1.1812  2.4838 -1.5751
  136OSM   H17T14716   3.068   0.362   4.541 -0.4713  0.1294 -3.7872
  136OSM   C18S14717   3.169   0.209   4.656  0.2994  0.3667 -0.4790
  136OSM   H18S14718   3.231   0.117   4.648 -2.0644 -1.7078  2.5819
  136OSM   H18T14719   3.086   0.160   4.713 -1.3309 -0.7688 -3.5944
  136OSM   H18U14720   3.226   0.287   4.710  1.9296 -0.4812 -0.9077
  136OSM    C1F14721   2.935   0.430   2.872 -0.2362 -0.7094  0.0323
  136OSM     OF14722   2.955   0.332   2.799  0.1909  0.0502 -0.2417
  136OSM    C2F14723   2.802   0.448   2.943 -0.6907  1.1844  0.4533
  136OSM    H2F14724   2.723   0.415   2.873 -0.3087  1.2577 -0.0189
  136OSM    H2G14725   2.781   0.552   2.974 -1.8359  1.4234 -0.9763
  136OSM    C3F14726   2.786   0.359   3.069 -0.7037 -0.0588 -0.0320
  136OSM    H3F14727   2.884   0.334   3.116 -0.1239  1.7930 -0.1443
  136OSM    H3G14728   2.749   0.263   3.027 -0.5177  0.5860 -1.7625
  136OSM    C4F14729   2.695   0.419   3.171 -0.1958 -0.4604 -0.2689
  136OSM    H4F14730   2.614   0.463   3.110  1.3732  2.3160 -0.5443
  136OSM    H4G14731   2.748   0.504   3.220  0.0721 -0.4228 -0.6191
  136OSM    C5F14732   2.654   0.322   3.283  0.1997 -0.4224  0.4250
  136OSM    H5F14733   2.620   0.226   3.240  0.0326 -0.4683  0.6559
  136OSM    H5G14734   2.568   0.369   3.337 -0.7786  1.6914 -2.6681
  136OSM    C6F14735   2.762   0.316   3.390  0.2694 -0.0641  0.1815
  136OSM    H6F14736   2.792   0.418   3.422  1.6484  0.6015 -2.8032
  136OSM    H6G14737   2.860   0.274   3.358  0.2817 -0.4185  0.6667
  136OSM    C7F14738   2.707   0.256   3.519 -0.0520 -0.0241  0.5480
  136OSM    H7F14739   2.684   0.149   3.496  0.3476 -0.6231  2.7242
  136OSM    H7G14740   2.606   0.297   3.541 -0.7690 -0.3310 -1.8659
  136OSM    C8F14741   2.801   0.258   3.636 -0.0318  0.3052  0.3472
  136OSM    H8F14742   2.821   0.361   3.673  0.8448  1.0808 -2.0329
  136OSM    H8G14743   2.893   0.199   3.615 -0.3684 -0.0417 -0.1835
  136OSM    C9F14744   2.728   0.180   3.743  0.3671  0.3449  0.3339
  136OSM    H9F14745   2.656   0.107   3.705 -0.0373  0.9593 -0.0931
  136OSM   C10F14746   2.729   0.200   3.876 -0.0511 -1.1411 -0.6700
  136OSM   H10F14747   2.663   0.136   3.937  1.8775 -1.8102  0.8241
  136OSM   C11F14748   2.820   0.299   3.955  0.4094 -0.4189 -0.1640
  136OSM   H11F14749   2.810   0.406   3.926  0.1356 -0.2166  0.6587
  136OSM   H11G14750   2.927   0.273   3.938  0.8793 -0.0886  2.0771
  136OSM   C12F14751   2.791   0.291   4.105  0.5690  0.2336 -0.4236
  136OSM   H12F14752   2.691   0.339   4.117  0.0579 -0.4350 -1.8376
  136OSM   H12G14753   2.879   0.348   4.142  0.4621  1.0460 -1.3715
  136OSM   C13F14754   2.803   0.151   4.173 -0.5334 -0.1652 -0.4689
  136OSM   H13F14755   2.912   0.127   4.167 -0.5304 -0.0808 -0.7480
  136OSM   H13G14756   2.736   0.082   4.117 -0.9916 -0.1079  0.0045
  136OSM   C14F14757   2.771   0.161   4.327  0.2922 -0.2082  0.6079
  136OSM   H14F14758   2.661   0.174   4.323  0.0320 -1.4752  2.4560
  136OSM   H14G14759   2.820   0.244   4.381  0.3382  0.6282 -0.6566
  136OSM   C15F14760   2.787   0.023   4.399  0.8076  0.3143 -0.6194
  136OSM   H15F14761   2.733   0.021   4.496 -0.8057  1.4668 -1.4468
  136OSM   H15G14762   2.897   0.017   4.412  1.0842  0.2868 -2.6613
  136OSM   C16F14763   2.751  -0.098   4.319  0.0959  0.5759  0.0902
  136OSM   H16F14764   2.785  -0.187   4.376  1.2743  0.9342 -0.0356
  136OSM   H16G14765   2.805  -0.104   4.222  0.9278  0.4276  0.5520
  136OSM   C17F14766   2.599  -0.112   4.289 -0.2214  0.8222  0.3653
  136OSM   H17F14767   2.571  -0.013   4.247  1.8691  0.4896 -2.1132
  136OSM   H17G14768   2.538  -0.127   4.380  1.9925 -2.5980  1.4916
  136OSM   C18F14769   2.567  -0.223   4.194 -0.1382  0.9246 -1.0456
  136OSM   H18F14770   2.458  -0.228   4.173 -0.0327 -0.3680 -1.4001
  136OSM   H18G14771   2.597  -0.324   4.230 -0.2095  0.9835 -0.8196
  136OSM   H18H14772   2.613  -0.216   4.093 -2.2356  0.9481 -2.0685
  137OSM      N14773   6.317   3.140   1.891 -1.0797  0.4839  0.2319
  137OSM    C1514774   6.255   3.030   1.978 -0.9621  0.0474  0.0467
  137OSM   H15A14775   6.195   3.068   2.059 -2.3691 -0.9004 -0.4951
  137OSM   H15B14776   6.328   2.956   2.005 -0.0389  0.5444 -0.9842
  137OSM   H15C14777   6.185   2.977   1.914 -0.7211  0.0388 -0.2109
  137OSM    C1414778   6.365   3.085   1.758  0.9077  0.4210 -0.3104
  137OSM   H14A14779   6.421   2.993   1.769 -0.2917 -0.5990 -2.2520
  137OSM   H14B14780   6.434   3.155   1.714 -0.2561  3.5796  2.4852
  137OSM   H14C14781   6.283   3.057   1.694  0.8278 -1.9943  0.7263
  137OSM    C1314782   6.206   3.242   1.864 -0.2694 -0.4094 -0.0757
  137OSM   H13A14783   6.131   3.212   1.793 -0.4135  0.8962 -0.4945
  137OSM   H13B14784   6.255   3.325   1.815 -1.9063  0.3846 -0.4297
  137OSM   H13C14785   6.162   3.272   1.959  0.4424  0.0225  0.1292
  137OSM    C1214786   6.437   3.195   1.969  0.4731 -0.1047 -0.7622
  137OSM   H12A14787   6.495   3.261   1.906 -0.1272  0.7229 -0.4680
  137OSM   H12B14788   6.500   3.111   1.993 -0.2923 -0.5533 -0.3005
  137OSM    C1114789   6.416   3.265   2.105 -0.4010 -0.2567 -0.0356
  137OSM   H11A14790   6.518   3.281   2.147 -0.1672  0.9445 -1.0197
  137OSM   H11B14791   6.366   3.188   2.168  0.7745 -1.1940 -0.1956
  137OSM      P14792   6.417   3.507   2.042 -0.2070 -0.4706 -0.4620
  137OSM    O1314793   6.482   3.479   1.915 -0.0624 -0.2204  0.4166
  137OSM    O1414794   6.322   3.619   2.039 -0.0855  0.1853  0.2785
  137OSM    O1114795   6.521   3.549   2.157  0.0878  0.6024  0.5772
  137OSM    O1214796   6.340   3.386   2.099 -0.1134  0.4951 -0.0929
  137OSM    C1S14797   6.485   3.566   2.294 -0.0729 -0.3892 -0.0515
  137OSM    H1S14798   6.397   3.504   2.320 -0.7347 -0.1895 -1.7249
  137OSM    H1T14799   6.445   3.668   2.315  1.0177 -0.0006  0.2671
  137OSM     NF14800   6.545   3.558   2.544  0.3857  0.1691  0.0692
  137OSM    HNF14801   6.602   3.629   2.585 -1.1207  2.1898 -1.1098
  137OSM    C2S14802   6.591   3.528   2.402 -0.2498  0.2766 -0.5979
  137OSM    H2S14803   6.613   3.420   2.387 -1.2070  0.1477 -1.1762
  137OSM    C3S14804   6.720   3.607   2.367  0.3357 -0.8125 -0.0890
  137OSM    H3S14805   6.701   3.715   2.384  0.2481 -0.8765  0.2245
  137OSM     O314806   6.756   3.589   2.233 -0.0615 -0.1932 -0.2766
  137OSM    HO314807   6.671   3.552   2.210  0.6909 -1.2699 -1.4783
  137OSM    C4S14808   6.832   3.572   2.464  0.0797 -0.1929 -0.0176
  137OSM    H4S14809   6.820   3.591   2.572  3.3495  0.4452  0.3163
  137OSM    C5S14810   6.944   3.510   2.433 -0.1798 -1.1772 -0.2580
  137OSM    H5S14811   6.959   3.477   2.329 -2.0316  1.1883 -1.3508
  137OSM    C6S14812   7.055   3.461   2.526  0.5212  0.0600  0.3637
  137OSM    H6S14813   7.152   3.459   2.471 -0.1793 -0.1012 -0.9227
  137OSM    H6T14814   7.031   3.354   2.545  1.1523 -0.2422 -0.4518
  137OSM    C7S14815   7.071   3.535   2.662 -0.2358 -0.1241  0.0755
  137OSM    H7S14816   6.977   3.535   2.720  0.7168  0.7269  1.6728
  137OSM    H7T14817   7.101   3.641   2.647 -0.6998 -0.0035 -0.0168
  137OSM    C8S14818   7.175   3.465   2.748  0.5443  0.0559 -0.1271
  137OSM    H8S14819   7.263   3.465   2.680  2.3093  1.2971  2.0110
  137OSM    H8T14820   7.131   3.367   2.776  0.9275  0.4379  2.0017
  137OSM    C9S14821   7.205   3.540   2.883  0.1589 -0.1895 -0.0248
  137OSM    H9S14822   7.108   3.545   2.936 -0.8559  0.6592 -1.8788
  137OSM    H9T14823   7.229   3.645   2.855 -4.2132  0.2500 -3.0848
  137OSM   C10S14824   7.321   3.481   2.964  0.1090 -0.4091 -0.4711
  137OSM   H10S14825   7.415   3.501   2.908  1.3209 -0.4804  1.4522
  137OSM   H10T14826   7.297   3.373   2.968 -0.5533 -0.3874 -2.7307
  137OSM   C11S14827   7.327   3.545   3.101  0.1689  0.0745 -0.1642
  137OSM   H11S14828   7.242   3.514   3.166 -0.3422  3.2882  0.8706
  137OSM   H11T14829   7.327   3.656   3.096 -1.1705  0.0506 -1.1274
  137OSM   C12S14830   7.454   3.512   3.179  0.8025  0.2094 -0.2089
  137OSM   H12S14831   7.542   3.529   3.113  0.0863  1.3948 -0.8985
  137OSM   H12T14832   7.464   3.402   3.188 -1.9654 -0.0192  0.7224
  137OSM   C13S14833   7.464   3.578   3.318  0.0006 -0.3875 -0.4644
  137OSM   H13S14834   7.408   3.523   3.396  0.2295 -1.3120 -0.9437
  137OSM   H13T14835   7.425   3.680   3.298  0.2067 -0.4611 -1.2863
  137OSM   C14S14836   7.607   3.593   3.364  1.1392 -0.3253 -0.1268
  137OSM   H14S14837   7.658   3.668   3.300  0.4291  0.6268  0.3938
  137OSM   H14T14838   7.657   3.496   3.344 -0.1070 -0.5817 -2.2235
  137OSM   C15S14839   7.615   3.637   3.513 -0.1605 -0.1789  0.4257
  137OSM   H15S14840   7.573   3.550   3.568  0.8380  0.4338  2.2323
  137OSM   H15T14841   7.554   3.727   3.537 -0.6462 -0.7326  1.3542
  137OSM   C16S14842   7.764   3.650   3.544  0.9261  0.0038  0.0181
  137OSM   H16S14843   7.795   3.736   3.479  1.9740  1.1854  1.9831
  137OSM   H16T14844   7.809   3.556   3.506 -2.0078 -1.3631 -0.3417
  137OSM   C17S14845   7.778   3.671   3.698 -0.2470  0.4756 -0.9490
  137OSM   H17S14846   7.743   3.575   3.743  2.5492  0.3824  1.3396
  137OSM   H17T14847   7.712   3.749   3.743 -0.5324 -0.7805  0.9323
  137OSM   C18S14848   7.925   3.694   3.738  0.8862  0.1054 -0.1076
  137OSM   H18S14849   7.919   3.731   3.842  0.4949 -2.0691  0.6906
  137OSM   H18T14850   7.983   3.766   3.676 -0.1643  1.9043  0.9142
  137OSM   H18U14851   7.978   3.596   3.746  1.5220  0.5583  1.5716
  137OSM    C1F14852   6.433   3.509   2.600  0.1038  0.7874  0.3909
  137OSM     OF14853   6.356   3.436   2.536  0.1563 -0.0816  0.0226
  137OSM    C2F14854   6.409   3.539   2.750  0.0305  0.0232  0.3236
  137OSM    H2F14855   6.330   3.618   2.755 -0.7565 -0.4563 -2.7085
  137OSM    H2G14856   6.496   3.590   2.797  0.1706  0.0994 -0.0151
  137OSM    C3F14857   6.344   3.424   2.825  0.1215  0.0685 -0.7525
  137OSM    H3F14858   6.418   3.341   2.823  0.9653  0.7929 -0.1357
  137OSM    H3G14859   6.249   3.394   2.775  0.3535 -2.7625  0.3276
  137OSM    C4F14860   6.301   3.471   2.971 -0.8639  0.3182  0.0634
  137OSM    H4F14861   6.224   3.550   2.956  1.5218  2.7022 -0.2437
  137OSM    H4G14862   6.393   3.523   3.004 -1.0568  0.5273  0.2736
  137OSM    C5F14863   6.280   3.353   3.070 -0.3754  0.7341 -0.1792
  137OSM    H5F14864   6.369   3.286   3.063  0.2360  1.5334 -0.3281
  137OSM    H5G14865   6.187   3.312   3.026 -1.6300  0.5542  2.4659
  137OSM    C6F14866   6.246   3.392   3.223  0.4876  0.2349 -0.5138
  137OSM    H6F14867   6.153   3.453   3.232  0.2371  0.2533 -2.7612
  137OSM    H6G14868   6.335   3.445   3.262 -1.1689  0.9442  2.6295
  137OSM    C7F14869   6.208   3.259   3.305  0.2403 -0.3090  0.6611
  137OSM    H7F14870   6.290   3.187   3.289  3.1589  2.1953  3.0286
  137OSM    H7G14871   6.118   3.220   3.254  1.1323  0.6023 -1.7346
  137OSM    C8F14872   6.188   3.275   3.455 -0.2553 -1.4280 -0.2574
  137OSM    H8F14873   6.274   3.327   3.504 -0.7751 -0.3134 -0.4889
  137OSM    H8G14874   6.176   3.169   3.485  1.1416 -1.4169  0.4208
  137OSM    C9F14875   6.064   3.353   3.491  0.5030  0.0573 -0.3834
  137OSM    H9F14876   6.053   3.440   3.425  1.4993 -0.2347 -0.9669
  137OSM   C10F14877   5.974   3.332   3.595  0.1621  0.0184  0.5997
  137OSM   H10F14878   5.900   3.411   3.616  0.5632  1.0185 -1.4957
  137OSM   C11F14879   5.973   3.224   3.693  0.5121 -0.1500  0.1687
  137OSM   H11F14880   6.063   3.160   3.693  0.6380  0.0250  0.3484
  137OSM   H11G14881   5.881   3.165   3.675  0.9293 -0.0774 -2.5878
  137OSM   C12F14882   5.978   3.268   3.839 -0.2621  0.7600  0.6833
  137OSM   H12F14883   5.902   3.341   3.874 -1.5613  0.0127 -0.4195
  137OSM   H12G14884   6.070   3.327   3.856 -0.1267  0.6239  0.4217
  137OSM   C13F14885   5.979   3.151   3.942 -0.1187  0.3772  0.6145
  137OSM   H13F14886   5.877   3.117   3.971 -0.5075  1.3988  0.5019
  137OSM   H13G14887   6.016   3.189   4.040 -0.1627 -0.3971  0.9369
  137OSM   C14F14888   6.061   3.023   3.906 -0.0430 -0.6625  0.7828
  137OSM   H14F14889   6.162   3.035   3.863 -0.9214  0.2426 -1.1241
  137OSM   H14G14890   5.997   2.969   3.833 -0.7397  3.2290 -1.7831
  137OSM   C15F14891   6.068   2.934   4.029  0.3150  0.1986 -0.5524
  137OSM   H15F14892   5.966   2.895   4.049  0.8851 -0.1388  1.9724
  137OSM   H15G14893   6.100   2.979   4.125 -1.3105  1.6577 -0.6457
  137OSM   C16F14894   6.157   2.808   4.003 -0.1131 -0.0768  0.3420
  137OSM   H16F14895   6.256   2.839   3.964 -0.6754  1.1193 -0.1711
  137OSM   H16G14896   6.117   2.741   3.924  3.1434 -0.9938 -0.6939
  137OSM   C17F14897   6.181   2.720   4.124 -0.4447 -0.2215 -0.0231
  137OSM   H17F14898   6.085   2.675   4.157 -0.4616 -0.0279  0.1991
  137OSM   H17G14899   6.221   2.781   4.208  0.3817 -0.6086 -0.1254
  137OSM   C18F14900   6.286   2.605   4.113 -0.1806 -0.2372  0.2804
  137OSM   H18F14901   6.268   2.526   4.188 -0.0492  0.3240  0.9197
  137OSM   H18G14902   6.392   2.634   4.134  0.1885 -0.8653 -0.6848
  137OSM   H18H14903   6.294   2.562   4.011 -3.3808 -0.8208  0.1758
  138OSM      N14904   0.170   5.335   2.114 -0.5023 -0.2636  0.4184
  138OSM    C1514905   0.271   5.232   2.163 -0.4885 -0.1267 -0.1468
  138OSM   H15A14906   0.331   5.182   2.089  1.0821 -0.8057  1.5185
  138OSM   H15B14907   0.230   5.159   2.232 -1.1439  0.4955  0.1345
  138OSM   H15C14908   0.349   5.288   2.212 -0.3440  0.9153 -1.5064
  138OSM    C1414909   0.224   5.415   2.001 -0.1038  0.0264  0.3300
  138OSM   H14A14910   0.311   5.469   2.035  0.9746 -1.2891 -0.2439
  138OSM   H14B14911   0.154   5.488   1.963 -0.2558 -1.0537 -1.5920
  138OSM   H14C14912   0.244   5.353   1.915 -0.7936  0.8532 -0.4435
  138OSM    C1314913   0.042   5.264   2.078 -0.5075 -0.3359 -0.3860
  138OSM   H13A14914   0.015   5.176   2.134 -0.9105 -2.3391 -3.5105
  138OSM   H13B14915   0.043   5.245   1.972 -1.1357 -0.7448 -0.3216
  138OSM   H13C14916  -0.040   5.334   2.080 -2.5544 -2.5968 -0.3219
  138OSM    C1214917   0.135   5.430   2.225  0.9300  0.1187  0.2607
  138OSM   H12A14918   0.060   5.490   2.176  0.7592 -0.2038  0.1309
  138OSM   H12B14919   0.220   5.493   2.247  2.1030 -1.0755 -0.7078
  138OSM    C1114920   0.095   5.377   2.358 -0.4270  0.0982  0.6117
  138OSM   H11A14921   0.118   5.458   2.432  2.5106  0.4709 -0.5944
  138OSM   H11B14922   0.154   5.290   2.392 -0.7337 -0.2192  0.3353
  138OSM      P14923  -0.165   5.427   2.335  0.4309  0.0945  0.0138
  138OSM    O1314924  -0.154   5.470   2.193 -0.3007 -0.7015 -0.0923
  138OSM    O1414925  -0.278   5.350   2.383  0.5372  0.0129  0.1841
  138OSM    O1114926  -0.138   5.556   2.425 -0.2027  0.6294  0.6900
  138OSM    O1214927  -0.040   5.337   2.348  0.9294 -0.0996  0.4546
  138OSM    C1S14928  -0.203   5.587   2.550 -1.1274  0.6045 -0.3854
  138OSM    H1S14929  -0.134   5.543   2.626 -1.1125 -0.6820 -1.1070
  138OSM    H1T14930  -0.301   5.535   2.550 -0.7567 -0.1263 -0.6488
  138OSM     NF14931  -0.278   5.743   2.725 -0.0470 -0.0328  0.0913
  138OSM    HNF14932  -0.376   5.757   2.739 -0.3084 -0.3363 -1.2912
  138OSM    C2S14933  -0.224   5.737   2.589 -0.5398 -0.3857 -0.2205
  138OSM    H2S14934  -0.121   5.779   2.586 -1.0150  0.7440 -2.2805
  138OSM    C3S14935  -0.298   5.816   2.481 -0.0248  0.1297 -0.0305
  138OSM    H3S14936  -0.402   5.778   2.480 -0.9965  2.5747 -0.4599
  138OSM     O314937  -0.242   5.790   2.351  0.4872 -0.2474 -0.3365
  138OSM    HO314938  -0.164   5.740   2.377  0.7012 -1.4491 -2.9645
  138OSM    C4S14939  -0.269   5.959   2.506  0.6166  0.2590 -0.2207
  138OSM    H4S14940  -0.184   6.003   2.452 -0.6974  1.0631 -1.7290
  138OSM    C5S14941  -0.356   6.043   2.566 -0.3656 -0.3446 -0.3846
  138OSM    H5S14942  -0.443   6.005   2.622 -0.8789 -0.4831 -1.2644
  138OSM    C6S14943  -0.322   6.190   2.578 -0.1520 -0.0238 -0.4169
  138OSM    H6S14944  -0.412   6.252   2.559 -0.1767  0.5569  1.3854
  138OSM    H6T14945  -0.234   6.224   2.518  0.6831 -1.4831 -0.0662
  138OSM    C7S14946  -0.267   6.217   2.718  0.2654  0.3539  0.4826
  138OSM    H7S14947  -0.243   6.324   2.736  1.2652  0.0540  1.0138
  138OSM    H7T14948  -0.173   6.158   2.728  0.2209 -0.1405 -1.6083
  138OSM    C8S14949  -0.358   6.176   2.836 -0.5567  0.4335  0.4040
  138OSM    H8S14950  -0.400   6.073   2.827 -0.0084  0.2585 -0.2182
  138OSM    H8T14951  -0.441   6.249   2.839 -0.5551  0.4414  0.2560
  138OSM    C9S14952  -0.266   6.182   2.962  0.6012 -0.2187 -0.2076
  138OSM    H9S14953  -0.226   6.286   2.959 -1.1747  0.4937 -0.3123
  138OSM    H9T14954  -0.188   6.103   2.955  2.5254  1.5007  0.5735
  138OSM   C10S14955  -0.347   6.157   3.088  0.5787  0.7565  0.3878
  138OSM   H10S14956  -0.354   6.046   3.096  2.1060  0.4340 -1.8987
  138OSM   H10T14957  -0.446   6.206   3.098 -0.0886 -0.6472  0.9412
  138OSM   C11S14958  -0.275   6.198   3.222  0.0063  0.6855  0.6213
  138OSM   H11S14959  -0.288   6.309   3.223 -0.0754  0.7005 -0.7157
  138OSM   H11T14960  -0.168   6.169   3.211 -0.9203 -2.6216 -0.8331
  138OSM   C12S14961  -0.346   6.144   3.346  0.1564  0.2491 -0.1925
  138OSM   H12S14962  -0.360   6.034   3.341  0.8763  0.1825 -0.9831
  138OSM   H12T14963  -0.444   6.190   3.323 -0.0135 -0.1650 -0.3062
  138OSM   C13S14964  -0.292   6.185   3.483 -0.5145 -0.1667  0.9136
  138OSM   H13S14965  -0.293   6.296   3.486  0.4602 -0.1070 -0.0958
  138OSM   H13T14966  -0.183   6.162   3.483 -0.3279  0.5919 -0.5407
  138OSM   C14S14967  -0.365   6.123   3.602 -0.1124 -1.0081  0.3699
  138OSM   H14S14968  -0.377   6.015   3.580 -2.3174 -0.7739  0.2872
  138OSM   H14T14969  -0.473   6.142   3.616  0.3881  0.2282  3.3744
  138OSM   C15S14970  -0.293   6.124   3.741  0.4245 -0.2425 -0.2381
  138OSM   H15S14971  -0.204   6.061   3.720 -0.1330 -0.8503 -0.7887
  138OSM   H15T14972  -0.360   6.070   3.812  0.9194 -1.3333 -0.5901
  138OSM   C16S14973  -0.261   6.270   3.794  0.4193 -0.3639 -0.0278
  138OSM   H16S14974  -0.349   6.335   3.779  0.4206 -0.8584 -2.7488
  138OSM   H16T14975  -0.176   6.306   3.731  0.3906 -0.3210 -0.0413
  138OSM   C17S14976  -0.213   6.275   3.939  0.1679 -0.5452  0.7409
  138OSM   H17S14977  -0.167   6.373   3.963 -3.4580  1.0153  2.0293
  138OSM   H17T14978  -0.135   6.197   3.949  0.9678 -0.1593 -1.7243
  138OSM   C18S14979  -0.337   6.258   4.027  0.3266  0.4592  0.5113
  138OSM   H18S14980  -0.305   6.266   4.133  1.7299 -2.9169  0.4622
  138OSM   H18T14981  -0.389   6.162   4.005  2.0536 -0.1173 -1.3630
  138OSM   H18U14982  -0.410   6.339   4.006 -0.8874 -1.0865 -1.6312
  138OSM    C1F14983  -0.209   5.714   2.833  0.1685  0.2640  0.3386
  138OSM     OF14984  -0.090   5.690   2.820 -0.1535 -0.2309  0.5139
  138OSM    C2F14985  -0.276   5.719   2.968  0.0822 -0.4819  0.2493
  138OSM    H2F14986  -0.298   5.612   2.988  0.9421 -0.5063  1.1494
  138OSM    H2G14987  -0.362   5.787   2.950 -0.1825 -0.7726  0.4177
  138OSM    C3F14988  -0.186   5.773   3.088  0.4947 -0.3113 -0.1216
  138OSM    H3F14989  -0.166   5.882   3.092 -1.7549  0.1616 -0.4288
  138OSM    H3G14990  -0.098   5.706   3.078 -0.5775 -1.8467  0.3285
  138OSM    C4F14991  -0.262   5.724   3.219 -0.6537 -0.1281 -0.1397
  138OSM    H4F14992  -0.267   5.613   3.230  0.7223 -0.1471  0.5430
  138OSM    H4G14993  -0.364   5.766   3.206 -0.2439  0.8871 -0.1693
  138OSM    C5F14994  -0.188   5.762   3.347  0.4534 -0.7084  0.0793
  138OSM    H5F14995  -0.157   5.869   3.338  1.1146 -0.9726 -1.0343
  138OSM    H5G14996  -0.099   5.695   3.348 -0.1928 -1.6189 -1.2316
  138OSM    C6F14997  -0.261   5.750   3.474  0.7495  0.6475  0.4076
  138OSM    H6F14998  -0.321   5.657   3.477 -1.7899  2.0770 -1.3566
  138OSM    H6G14999  -0.323   5.843   3.475 -1.0205 -0.4464 -0.8500
  138OSM    C7F15000  -0.171   5.760   3.601  0.0294 -0.2763  0.4316
  138OSM    H7F15001  -0.105   5.848   3.591 -1.8535  1.1109 -0.4822
  138OSM    H7G15002  -0.107   5.669   3.599 -0.7480 -0.8479  0.8036
  138OSM    C8F15003  -0.254   5.761   3.733 -0.3036 -0.3744 -0.1028
  138OSM    H8F15004  -0.309   5.665   3.723 -1.3797  0.4151 -2.4843
  138OSM    H8G15005  -0.325   5.847   3.730  0.6911  0.5916  1.9807
  138OSM    C9F15006  -0.169   5.770   3.856 -0.5229 -0.2977 -0.6190
  138OSM    H9F15007  -0.105   5.859   3.847 -1.1124  0.0579 -1.4930
  138OSM   C10F15008  -0.179   5.687   3.968 -0.1991  1.0002 -0.1127
  138OSM   H10F15009  -0.111   5.697   4.054 -1.3580  0.9625  0.8362
  138OSM   C11F15010  -0.278   5.567   3.985 -0.3495  0.2366  0.0000
  138OSM   H11F15011  -0.229   5.468   3.981 -0.2517  0.3281 -2.2316
  138OSM   H11G15012  -0.355   5.555   3.905  0.0638 -2.7311 -0.0280
  138OSM   C12F15013  -0.344   5.586   4.125  0.1311 -0.4792 -0.2932
  138OSM   H12F15014  -0.394   5.685   4.128 -0.2988 -0.6958 -0.1631
  138OSM   H12G15015  -0.267   5.574   4.204  1.2765  0.1609 -1.2910
  138OSM   C13F15016  -0.462   5.496   4.143  0.4862 -0.2117  0.5392
  138OSM   H13F15017  -0.440   5.408   4.079  0.0205 -0.4678  0.7246
  138OSM   H13G15018  -0.552   5.551   4.106 -0.9628 -1.9325  1.3580
  138OSM   C14F15019  -0.486   5.450   4.283  0.2005 -0.6354  0.5999
  138OSM   H14F15020  -0.509   5.531   4.355 -0.4130  0.9925 -1.3215
  138OSM   H14G15021  -0.390   5.401   4.310  0.8118  1.1365  1.8175
  138OSM   C15F15022  -0.590   5.347   4.288  0.4046  0.6688 -0.3951
  138OSM   H15F15023  -0.585   5.286   4.195  1.4252  1.8335 -1.1233
  138OSM   H15G15024  -0.691   5.393   4.287 -0.1266 -0.4364 -1.4079
  138OSM   C16F15025  -0.582   5.266   4.416 -0.2472 -0.2625 -0.3999
  138OSM   H16F15026  -0.573   5.335   4.502  0.6268  1.2839 -1.6865
  138OSM   H16G15027  -0.508   5.183   4.426 -0.6973 -0.4910  1.2716
  138OSM   C17F15028  -0.716   5.190   4.435  0.2761 -0.4615  0.0602
  138OSM   H17F15029  -0.795   5.266   4.450 -0.8674 -1.1356 -2.1256
  138OSM   H17G15030  -0.712   5.122   4.522  1.6115  0.0413  0.4176
  138OSM   C18F15031  -0.749   5.119   4.310  0.1976  0.0216 -1.4594
  138OSM   H18F15032  -0.836   5.051   4.321 -0.7876  1.4714 -0.0557
  138OSM   H18G15033  -0.661   5.062   4.271  0.4474 -0.1991 -0.5928
  138OSM   H18H15034  -0.786   5.188   4.231 -2.4026 -1.8640 -2.0026
  139OSM      N15035   0.633   3.707   1.622  0.1689 -0.1574 -0.2808
  139OSM    C1515036   0.671   3.666   1.481 -0.3856  0.3508  0.2994
  139OSM   H15A15037   0.778   3.671   1.492 -0.1923 -2.3254  0.2074
  139OSM   H15B15038   0.643   3.733   1.401 -1.3758 -1.0420 -0.5509
  139OSM   H15C15039   0.655   3.563   1.453  2.2473 -0.8235  2.6679
  139OSM    C1415040   0.685   3.842   1.656 -0.4003  0.8058  0.2850
  139OSM   H14A15041   0.657   3.872   1.755 -0.6893 -2.8796  1.4951
  139OSM   H14B15042   0.651   3.922   1.592 -0.4747  0.6712  0.1542
  139OSM   H14C15043   0.793   3.844   1.649 -0.2071 -1.4923  1.6508
  139OSM    C1315044   0.485   3.720   1.622  0.3418 -0.3430  0.7229
  139OSM   H13A15045   0.445   3.787   1.548 -2.1104 -1.1964  1.1975
  139OSM   H13B15046   0.440   3.735   1.719  0.0567  0.4565  0.4726
  139OSM   H13C15047   0.449   3.623   1.592 -1.6307  1.0969 -2.0450
  139OSM    C1215048   0.693   3.609   1.716 -0.1845  0.0626  0.1106
  139OSM   H12A15049   0.798   3.597   1.692  0.0372  0.6107  0.7839
  139OSM   H12B15050   0.652   3.511   1.698 -1.3745  0.5737 -0.0621
  139OSM    C1115051   0.677   3.626   1.868  0.5314  0.1326 -0.1956
  139OSM   H11A15052   0.713   3.726   1.901 -1.7575  0.5266  1.2979
  139OSM   H11B15053   0.743   3.553   1.920 -0.8546  0.2536  1.8761
  139OSM      P15054   0.472   3.457   1.881  0.2353 -0.0564  0.2083
  139OSM    O1315055   0.326   3.485   1.852 -0.3007  0.0012 -0.2515
  139OSM    O1415056   0.541   3.369   1.779  0.0180 -1.1455 -0.4619
  139OSM    O1115057   0.472   3.387   2.021 -0.5737 -0.2584  0.8609
  139OSM    O1215058   0.549   3.595   1.910  0.1919  0.4808 -0.3824
  139OSM    C1S15059   0.510   3.439   2.144  0.0210 -0.3351 -0.6179
  139OSM    H1S15060   0.491   3.548   2.146  2.8677  0.2527  2.4585
  139OSM    H1T15061   0.618   3.428   2.166  0.0796  0.0551 -0.6994
  139OSM     NF15062   0.476   3.442   2.387 -0.5153 -0.0611  0.6253
  139OSM    HNF15063   0.565   3.409   2.418 -1.3738 -2.0972  1.1067
  139OSM    C2S15064   0.429   3.384   2.263 -0.3802  0.3297 -0.5196
  139OSM    H2S15065   0.320   3.402   2.260 -0.4016  0.4638  0.6058
  139OSM    C3S15066   0.446   3.231   2.270 -0.3171  0.3140  0.7759
  139OSM    H3S15067   0.549   3.197   2.248 -0.6865 -0.9358  0.9004
  139OSM     O315068   0.370   3.174   2.159 -0.4634 -0.1956  0.0041
  139OSM    HO315069   0.358   3.238   2.088 -2.4346  0.4426  0.8445
  139OSM    C4S15070   0.387   3.172   2.397  0.1276 -0.0945  0.8532
  139OSM    H4S15071   0.281   3.142   2.389 -0.7754  2.4900  2.1069
  139OSM    C5S15072   0.449   3.150   2.512  0.3478 -0.2322 -0.0725
  139OSM    H5S15073   0.558   3.167   2.511  0.1515  1.0877 -0.0964
  139OSM    C6S15074   0.385   3.100   2.634 -0.5510 -0.1881 -0.5591
  139OSM    H6S15075   0.418   3.166   2.717 -0.5353 -1.6192  0.6174
  139OSM    H6T15076   0.436   3.005   2.661  0.3904  0.4640  0.0217
  139OSM    C7S15077   0.235   3.076   2.647  0.4255  0.1544  0.2093
  139OSM    H7S15078   0.197   3.013   2.564  0.6574 -1.3551  1.2182
  139OSM    H7T15079   0.186   3.175   2.634 -1.2510 -0.7707 -1.0034
  139OSM    C8S15080   0.178   2.999   2.775 -0.2372 -0.4063 -0.5416
  139OSM    H8S15081   0.223   2.898   2.777  0.9835  0.1355 -0.1549
  139OSM    H8T15082   0.068   2.982   2.770 -0.7312  1.4315  2.0465
  139OSM    C9S15083   0.210   3.077   2.898 -0.6578  0.0226  0.2975
  139OSM    H9S15084   0.192   3.184   2.878 -1.3234 -0.4384 -1.7509
  139OSM    H9T15085   0.317   3.055   2.920 -1.5237 -1.9188  3.1800
  139OSM   C10S15086   0.118   3.042   3.017  0.3770  0.2393 -0.1688
  139OSM   H10S15087   0.125   2.935   3.043 -3.1930  0.0172  0.3319
  139OSM   H10T15088   0.014   3.057   2.981  0.8362  3.5570 -0.4735
  139OSM   C11S15089   0.130   3.133   3.135 -0.0364  0.1343  0.4817
  139OSM   H11S15090   0.045   3.101   3.199 -0.7148 -0.4162 -0.6537
  139OSM   H11T15091   0.099   3.236   3.107  0.7097  0.4474  0.7937
  139OSM   C12S15092   0.253   3.128   3.226  0.1507  0.1648 -0.5094
  139OSM   H12S15093   0.351   3.159   3.184  1.3012 -1.4435  0.8368
  139OSM   H12T15094   0.282   3.022   3.240  0.1216  0.4026  1.7513
  139OSM   C13S15095   0.219   3.208   3.356 -0.4193  0.2043 -0.2876
  139OSM   H13S15096   0.124   3.176   3.403  0.7660  0.9501  2.8248
  139OSM   H13T15097   0.210   3.314   3.322  0.8255  0.3858 -0.1179
  139OSM   C14S15098   0.337   3.183   3.459 -0.1225 -0.1211  0.0137
  139OSM   H14S15099   0.434   3.218   3.417  1.6316 -2.1262  2.0939
  139OSM   H14T15100   0.346   3.072   3.471  1.5232  0.1236  1.6257
  139OSM   C15S15101   0.302   3.257   3.589 -0.2945  0.2730  0.0875
  139OSM   H15S15102   0.205   3.229   3.634 -0.3533 -0.4713 -0.4806
  139OSM   H15T15103   0.284   3.362   3.559 -0.0044 -0.1012 -1.4690
  139OSM   C16S15104   0.408   3.260   3.704  0.6136  0.0087  0.8702
  139OSM   H16S15105   0.493   3.306   3.648 -0.5846  1.5151  0.1920
  139OSM   H16T15106   0.413   3.157   3.744 -0.3088  0.5182  2.3836
  139OSM   C17S15107   0.375   3.349   3.822  0.3459  0.2078 -0.6998
  139OSM   H17S15108   0.289   3.300   3.872  0.6624 -0.7961 -1.1043
  139OSM   H17T15109   0.330   3.439   3.775  0.2049 -0.0516 -1.0646
  139OSM   C18S15110   0.496   3.386   3.915 -0.5891  0.3031 -0.1395
  139OSM   H18S15111   0.469   3.470   3.982  0.4941  2.9271 -2.7693
  139OSM   H18T15112   0.585   3.419   3.857 -1.6960  0.9619 -1.5343
  139OSM   H18U15113   0.534   3.303   3.978  0.2433  1.8843  1.5249
  139OSM    C1F15114   0.446   3.563   2.427  0.8900  0.8469  0.9559
  139OSM     OF15115   0.350   3.615   2.376  0.0545 -0.2484 -0.4621
  139OSM    C2F15116   0.552   3.625   2.508  0.2053  0.5173  0.8612
  139OSM    H2F15117   0.606   3.703   2.450  2.3824 -0.6102  1.2545
  139OSM    H2G15118   0.621   3.541   2.531 -1.3307 -0.6792  1.2722
  139OSM    C3F15119   0.490   3.683   2.635 -0.6418  0.3892 -0.6176
  139OSM    H3F15120   0.450   3.602   2.699  0.2889 -1.2428 -2.0015
  139OSM    H3G15121   0.408   3.755   2.613 -1.9303 -1.0780 -0.8177
  139OSM    C4F15122   0.592   3.747   2.728  0.1298  0.2203  0.4269
  139OSM    H4F15123   0.646   3.821   2.666  0.8417 -0.8352 -0.2602
  139OSM    H4G15124   0.659   3.665   2.761  0.5410  0.4197  0.0832
  139OSM    C5F15125   0.518   3.823   2.838  0.3542 -0.1889 -0.1324
  139OSM    H5F15126   0.420   3.772   2.850 -0.5414  1.4352 -0.3274
  139OSM    H5G15127   0.495   3.920   2.789 -0.9671 -0.2830  0.2705
  139OSM    C6F15128   0.594   3.846   2.966  0.3551  0.7449  0.4303
  139OSM    H6F15129   0.694   3.885   2.937 -0.0204  0.7029 -1.0027
  139OSM    H6G15130   0.609   3.750   3.021  0.3523  1.2069  1.2504
  139OSM    C7F15131   0.520   3.950   3.048 -0.2535 -1.0579  0.2154
  139OSM    H7F15132   0.426   3.906   3.089  0.1005  0.2227  2.6506
  139OSM    H7G15133   0.489   4.035   2.983 -2.2290 -0.8459  1.3530
  139OSM    C8F15134   0.608   4.004   3.164 -0.1663 -0.6788 -0.1201
  139OSM    H8F15135   0.701   4.026   3.108 -0.8097  0.0334 -0.9382
  139OSM    H8G15136   0.633   3.921   3.234  0.1087 -1.6497 -1.3445
  139OSM    C9F15137   0.544   4.115   3.235 -0.2864  0.0934  0.4793
  139OSM    H9F15138   0.450   4.146   3.185 -0.5397 -0.9113  0.3019
  139OSM   C10F15139   0.583   4.164   3.356  0.4290  0.0240 -0.9044
  139OSM   H10F15140   0.524   4.239   3.411  1.4909 -0.1784  0.5782
  139OSM   C11F15141   0.706   4.118   3.433 -0.4246  0.8665  0.3089
  139OSM   H11F15142   0.783   4.198   3.430  2.1681 -1.4588  0.6207
  139OSM   H11G15143   0.748   4.025   3.389 -0.0079  0.2740  1.8749
  139OSM   C12F15144   0.662   4.079   3.578 -0.6903  0.1923  0.2995
  139OSM   H12F15145   0.731   4.002   3.617 -0.8984 -0.6129 -0.8403
  139OSM   H12G15146   0.559   4.035   3.575 -0.0298 -1.4036 -1.4906
  139OSM   C13F15147   0.655   4.205   3.672 -0.3218  0.3632 -0.0837
  139OSM   H13F15148   0.579   4.270   3.625  1.0264  0.9662 -1.5311
  139OSM   H13G15149   0.750   4.263   3.662 -0.2315 -0.1602 -3.3313
  139OSM   C14F15150   0.633   4.187   3.822  0.3266  0.3074  0.7929
  139OSM   H14F15151   0.685   4.099   3.866 -0.6488 -1.5143 -1.4956
  139OSM   H14G15152   0.526   4.162   3.840 -0.2755  0.0763 -2.5698
  139OSM   C15F15153   0.669   4.312   3.904  0.2835 -0.2479  0.7056
  139OSM   H15F15154   0.639   4.412   3.867 -1.3365  0.3397  3.3811
  139OSM   H15G15155   0.780   4.321   3.903  0.2496  0.1970  0.4110
  139OSM   C16F15156   0.619   4.311   4.051 -0.4209 -0.5701  0.0369
  139OSM   H16F15157   0.509   4.299   4.062 -0.5405  1.0852  1.1170
  139OSM   H16G15158   0.631   4.408   4.104  1.4886 -1.2081  0.8206
  139OSM   C17F15159   0.671   4.201   4.135 -0.2386  0.2775  0.1721
  139OSM   H17F15160   0.661   4.103   4.083 -1.0104  1.7285 -2.6273
  139OSM   H17G15161   0.626   4.188   4.235  0.9537 -0.7586  0.5968
  139OSM   C18F15162   0.811   4.228   4.180 -0.0654 -0.2663  1.1004
  139OSM   H18F15163   0.823   4.212   4.289 -1.7046  0.3460  1.4144
  139OSM   H18G15164   0.825   4.338   4.169 -1.8411  0.0265  1.4816
  139OSM   H18H15165   0.886   4.182   4.112  0.1982  2.0058 -0.2743
  140OSM      N15166   3.934   0.439   2.243  0.7898 -0.7088 -0.3664
  140OSM    C1515167   4.045   0.412   2.141 -0.8816 -0.3081 -0.0472
  140OSM   H15A15168   4.086   0.501   2.095 -0.6133 -1.5750 -2.4091
  140OSM   H15B15169   4.007   0.363   2.052  0.8698 -1.3295 -0.2775
  140OSM   H15C15170   4.130   0.356   2.176 -0.6748 -0.4182 -0.7064
  140OSM    C1415171   3.824   0.520   2.171 -0.4400 -0.1228  0.4392
  140OSM   H14A15172   3.864   0.618   2.148 -0.2420 -0.5330 -1.1249
  140OSM   H14B15173   3.738   0.536   2.233  0.4917 -1.2115  2.0857
  140OSM   H14C15174   3.800   0.471   2.078 -2.2959 -1.2796  1.4703
  140OSM    C1315175   3.871   0.313   2.302  0.0280  0.5329 -0.2231
  140OSM   H13A15176   3.803   0.333   2.383 -0.4651 -1.0145 -0.2160
  140OSM   H13B15177   3.947   0.243   2.334  0.4631 -0.1732 -2.5787
  140OSM   H13C15178   3.802   0.268   2.232 -0.6452 -0.3847  0.9780
  140OSM    C1215179   3.993   0.523   2.356 -0.0180  0.1331  0.2947
  140OSM   H12A15180   4.069   0.462   2.402  0.0655 -0.7262 -0.9124
  140OSM   H12B15181   3.914   0.534   2.429 -2.1823 -1.2428 -1.6848
  140OSM    C1115182   4.037   0.672   2.321 -0.5116 -0.3679 -0.1125
  140OSM   H11A15183   4.114   0.684   2.242 -0.9065  0.9402 -0.3321
  140OSM   H11B15184   4.086   0.707   2.414 -1.8717  1.1050  0.1162
  140OSM      P15185   3.827   0.814   2.396 -0.1261 -0.2088  0.0027
  140OSM    O1315186   3.872   0.951   2.427 -0.1610 -0.1668  0.1967
  140OSM    O1415187   3.691   0.793   2.346  0.3172 -0.5423 -0.4513
  140OSM    O1115188   3.853   0.720   2.522  0.1666  0.4098 -0.0290
  140OSM    O1215189   3.928   0.755   2.290  0.0650 -0.1573  0.0840
  140OSM    C1S15190   3.896   0.774   2.645 -0.2684  0.5776 -0.1047
  140OSM    H1S15191   3.868   0.880   2.662 -0.8379  0.3322  0.4827
  140OSM    H1T15192   4.007   0.764   2.639 -0.1936  1.1049  0.2707
  140OSM     NF15193   3.902   0.718   2.889  0.2044 -0.3616  0.1785
  140OSM    HNF15194   3.982   0.662   2.905  1.4307  0.5700 -2.0970
  140OSM    C2S15195   3.845   0.682   2.763  0.3545 -0.5811 -0.5550
  140OSM    H2S15196   3.737   0.705   2.775  0.5658  0.5777 -0.8057
  140OSM    C3S15197   3.861   0.526   2.728 -0.4443 -0.3838  0.4223
  140OSM    H3S15198   3.970   0.510   2.717 -0.1961  0.2952  1.6448
  140OSM     O315199   3.794   0.483   2.609 -0.4493  0.1971  0.2909
  140OSM    HO315200   3.765   0.562   2.562  0.5772  0.7518  0.5617
  140OSM    C4S15201   3.805   0.443   2.836  0.0430  0.3146  0.9271
  140OSM    H4S15202   3.696   0.452   2.834 -0.0754 -0.1585 -2.8865
  140OSM    C5S15203   3.865   0.356   2.914 -0.5487  0.2314 -0.4026
  140OSM    H5S15204   3.973   0.339   2.901  0.1012  2.7847  1.0159
  140OSM    C6S15205   3.804   0.263   3.017 -0.1187 -0.3738 -0.4777
  140OSM    H6S15206   3.893   0.202   3.044  1.6020  1.4110 -1.7728
  140OSM    H6T15207   3.713   0.210   2.982 -0.0626 -0.5168 -0.4068
  140OSM    C7S15208   3.766   0.336   3.151  0.6926 -0.0703  0.1102
  140OSM    H7S15209   3.699   0.268   3.209  0.9995  0.9508  1.7042
  140OSM    H7T15210   3.698   0.421   3.127 -1.5449 -1.5266  0.9474
  140OSM    C8S15211   3.891   0.386   3.227  0.4995  0.0408 -0.3321
  140OSM    H8S15212   3.963   0.434   3.157  0.7811  1.1120  0.6527
  140OSM    H8T15213   3.936   0.306   3.289 -1.1489  0.6742  1.7837
  140OSM    C9S15214   3.851   0.504   3.319 -0.5757 -0.1814 -0.3421
  140OSM    H9S15215   3.796   0.575   3.254  0.2995 -0.7219 -1.6994
  140OSM    H9T15216   3.944   0.542   3.365 -0.1387 -1.6606  0.0733
  140OSM   C10S15217   3.764   0.452   3.433  0.1513 -0.2383  0.2216
  140OSM   H10S15218   3.717   0.352   3.415 -0.7907 -0.0502  1.4928
  140OSM   H10T15219   3.674   0.516   3.434 -0.3549 -0.9397  0.8141
  140OSM   C11S15220   3.819   0.468   3.573  0.2126 -0.3331 -0.4169
  140OSM   H11S15221   3.874   0.562   3.591 -2.1364  1.3203 -1.3956
  140OSM   H11T15222   3.890   0.383   3.586  0.1783 -0.0208  2.2752
  140OSM   C12S15223   3.714   0.443   3.682  0.1930 -0.5367 -0.2110
  140OSM   H12S15224   3.667   0.345   3.661 -0.7242 -0.4564  1.3074
  140OSM   H12T15225   3.628   0.514   3.683  1.9804  1.7744 -0.0176
  140OSM   C13S15226   3.783   0.443   3.822  0.0753 -0.6761  0.4978
  140OSM   H13S15227   3.802   0.549   3.850 -1.3601  0.0908 -1.2355
  140OSM   H13T15228   3.885   0.397   3.819  1.8846  2.9548  0.6018
  140OSM   C14S15229   3.702   0.363   3.924  0.5899 -0.2274 -0.2747
  140OSM   H14S15230   3.676   0.265   3.880 -1.8351 -0.0351  0.5754
  140OSM   H14T15231   3.610   0.420   3.949 -0.5979 -2.5537  0.9135
  140OSM   C15S15232   3.781   0.334   4.054 -0.6982 -0.1457 -0.0127
  140OSM   H15S15233   3.812   0.434   4.090 -1.7292 -0.1523  0.9621
  140OSM   H15T15234   3.871   0.274   4.030 -0.5986 -0.6747  1.5352
  140OSM   C16S15235   3.702   0.268   4.166 -0.1208  0.3668  0.7929
  140OSM   H16S15236   3.696   0.159   4.144 -0.2471  0.2823  1.2380
  140OSM   H16T15237   3.602   0.317   4.160  0.3956  1.5223  1.4338
  140OSM   C17S15238   3.752   0.281   4.309  0.5139  0.2354 -0.2747
  140OSM   H17S15239   3.758   0.389   4.334  2.1298  0.0070  0.4967
  140OSM   H17T15240   3.854   0.242   4.331  0.7204  0.4291 -0.8572
  140OSM   C18S15241   3.661   0.203   4.402 -0.0668 -0.0003 -0.2803
  140OSM   H18S15242   3.555   0.232   4.389 -0.3785  0.0181  1.9668
  140OSM   H18T15243   3.684   0.231   4.507 -2.9922 -0.1308  0.4682
  140OSM   H18U15244   3.676   0.093   4.396  1.4131  0.1853 -0.3740
  140OSM    C1F15245   3.886   0.836   2.954 -0.5128 -0.4209  0.0921
  140OSM     OF15246   3.808   0.918   2.906  0.7450 -0.4468 -0.0804
  140OSM    C2F15247   3.962   0.855   3.085 -0.3872 -0.2369  0.2675
  140OSM    H2F15248   4.059   0.807   3.062  1.7204  3.4772  0.7303
  140OSM    H2G15249   3.915   0.801   3.170 -0.7091  1.7580  1.4085
  140OSM    C3F15250   3.981   1.001   3.110 -0.2924 -0.6840  0.2136
  140OSM    H3F15251   3.891   1.060   3.081  1.1064  2.1155  1.1609
  140OSM    H3G15252   4.063   1.037   3.044 -0.9076  3.6266  1.4642
  140OSM    C4F15253   4.010   1.032   3.262 -0.1613  0.3810  0.0532
  140OSM    H4F15254   4.074   0.950   3.302  0.7464  1.2658  0.4565
  140OSM    H4G15255   3.917   1.021   3.321 -2.1300  2.5814 -2.3630
  140OSM    C5F15256   4.079   1.164   3.298 -0.4793  0.2123 -0.4769
  140OSM    H5F15257   4.005   1.247   3.299  0.3247  0.9621  1.1222
  140OSM    H5G15258   4.167   1.193   3.238  0.1207  0.9338  0.7209
  140OSM    C6F15259   4.147   1.163   3.436 -0.6688 -0.2121  0.3667
  140OSM    H6F15260   4.074   1.140   3.516  0.7307  0.0411  1.7758
  140OSM    H6G15261   4.180   1.267   3.459  2.1962 -0.6761 -1.1369
  140OSM    C7F15262   4.265   1.067   3.458 -0.2974 -0.1849 -0.0388
  140OSM    H7F15263   4.339   1.066   3.375  1.5943  0.0963  1.5509
  140OSM    H7G15264   4.228   0.963   3.449  0.2526 -0.4065  0.2008
  140OSM    C8F15265   4.328   1.094   3.597 -0.8162  1.5321 -0.0693
  140OSM    H8F15266   4.240   1.095   3.666 -1.5190 -0.3668 -0.8707
  140OSM    H8G15267   4.375   1.194   3.599 -0.0245  1.2305 -1.9576
  140OSM    C9F15268   4.424   0.970   3.622  0.1584 -0.7546  0.4452
  140OSM    H9F15269   4.372   0.884   3.667 -0.6659 -0.1114  0.7349
  140OSM   C10F15270   4.553   0.966   3.600 -0.1433 -0.1827 -1.4558
  140OSM   H10F15271   4.608   0.873   3.623  0.0929 -0.0663 -1.5465
  140OSM   C11F15272   4.638   1.073   3.546  0.0847 -0.4042 -0.3286
  140OSM   H11F15273   4.578   1.141   3.482  2.2482  2.3977  0.4231
  140OSM   H11G15274   4.717   1.031   3.481  1.0491  1.2718 -0.2992
  140OSM   C12F15275   4.702   1.173   3.646 -0.8298  0.1898 -0.1768
  140OSM   H12F15276   4.743   1.260   3.591  1.9112  0.9141  2.7199
  140OSM   H12G15277   4.786   1.136   3.708 -0.0242  0.7799 -0.8935
  140OSM   C13F15278   4.603   1.247   3.738 -0.3552  0.3479  0.2877
  140OSM   H13F15279   4.521   1.180   3.772 -1.2566  1.1751 -0.1940
  140OSM   H13G15280   4.554   1.329   3.681  0.7137  1.3222  0.7222
  140OSM   C14F15281   4.671   1.301   3.868 -0.4717  0.5550  0.1770
  140OSM   H14F15282   4.753   1.364   3.826  2.1384 -1.9642  1.1246
  140OSM   H14G15283   4.722   1.212   3.911 -2.4535 -1.5306 -1.5698
  140OSM   C15F15284   4.575   1.374   3.964 -0.2196  0.1436 -0.7111
  140OSM   H15F15285   4.480   1.317   3.957 -0.8523  1.1001 -0.1189
  140OSM   H15G15286   4.547   1.476   3.929 -1.8068  0.5969  1.6698
  140OSM   C16F15287   4.637   1.382   4.104 -0.5069  0.6918  0.3112
  140OSM   H16F15288   4.719   1.455   4.118  0.4287 -0.5853  1.7821
  140OSM   H16G15289   4.675   1.282   4.136  0.0168  1.3202  1.6975
  140OSM   C17F15290   4.538   1.425   4.208  0.6063 -1.0610 -0.5207
  140OSM   H17F15291   4.484   1.512   4.165  2.8032  0.6649  0.0873
  140OSM   H17G15292   4.586   1.459   4.302  0.1642  1.5802 -1.1618
  140OSM   C18F15293   4.437   1.313   4.247  0.0635  0.4464 -0.2135
  140OSM   H18F15294   4.492   1.224   4.284  0.9215  1.1323  0.1874
  140OSM   H18G15295   4.368   1.290   4.164 -0.9832  0.7127  0.5514
  140OSM   H18H15296   4.376   1.360   4.327  1.7258  0.3462  1.1811
  141OSM      N15297   4.810   6.165   2.362  0.0344 -0.6862 -0.0663
  141OSM    C1515298   4.725   6.167   2.487  0.1465  0.9447  0.2602
  141OSM   H15A15299   4.782   6.123   2.568  2.2754  0.3283 -1.4684
  141OSM   H15B15300   4.649   6.092   2.471  0.3568 -0.2740  4.0074
  141OSM   H15C15301   4.683   6.263   2.515 -0.1330  0.3388  2.1000
  141OSM    C1415302   4.860   6.029   2.340  0.4214 -0.2482 -0.1680
  141OSM   H14A15303   4.784   5.958   2.369  1.2452 -0.7930  0.7161
  141OSM   H14B15304   4.950   6.017   2.398  0.4541 -3.0838 -0.6497
  141OSM   H14C15305   4.904   6.011   2.243  0.7602  3.9738 -0.9959
  141OSM    C1315306   4.715   6.201   2.248  0.4649 -0.0354 -0.3099
  141OSM   H13A15307   4.664   6.293   2.273  2.0924  0.7497  0.2603
  141OSM   H13B15308   4.633   6.133   2.231 -1.4173  1.8452  0.7223
  141OSM   H13C15309   4.775   6.212   2.160  2.7845 -2.4578  0.8367
  141OSM    C1215310   4.924   6.270   2.371 -0.1234  0.0728  0.4708
  141OSM   H12A15311   4.877   6.367   2.372 -0.7449 -0.2016 -0.5537
  141OSM   H12B15312   4.984   6.261   2.282 -0.1022 -1.7404  0.6253
  141OSM    C1115313   5.022   6.262   2.496 -0.7253  0.3685 -0.0169
  141OSM   H11A15314   4.969   6.288   2.590  2.1048  1.8931  1.2963
  141OSM   H11B15315   5.103   6.338   2.484 -1.5486  1.4670  1.1700
  141OSM      P15316   5.223   6.097   2.494  0.1511 -0.0634  0.4072
  141OSM    O1315317   5.236   5.949   2.489  0.5491  0.5100  0.0316
  141OSM    O1415318   5.270   6.170   2.376 -0.5021  0.0547 -0.3963
  141OSM    O1115319   5.296   6.148   2.623 -0.5135  0.6541  0.2423
  141OSM    O1215320   5.071   6.125   2.515 -0.3032 -0.6320 -0.0862
  141OSM    C1S15321   5.235   6.160   2.747 -0.5487 -0.3825 -0.4635
  141OSM    H1S15322   5.141   6.102   2.746 -0.9862  0.3142 -0.2702
  141OSM    H1T15323   5.228   6.265   2.784 -3.2484 -0.9009  0.7259
  141OSM     NF15324   5.255   6.102   2.999  0.5504 -0.1642 -0.2436
  141OSM    HNF15325   5.287   6.184   3.047 -1.7030  0.2764  0.5916
  141OSM    C2S15326   5.319   6.086   2.868 -0.0143 -0.1132  1.1203
  141OSM    H2S15327   5.317   5.978   2.841 -1.3274 -0.0871  1.0360
  141OSM    C3S15328   5.468   6.140   2.866  0.2991  0.4121  0.8022
  141OSM    H3S15329   5.464   6.251   2.880 -1.6589  0.6860 -1.2685
  141OSM     O315330   5.525   6.128   2.736  0.7496  0.1512 -0.0288
  141OSM    HO315331   5.459   6.090   2.678  0.5794 -1.4731  1.1760
  141OSM    C4S15332   5.549   6.077   2.976  0.2808  0.1589 -0.7693
  141OSM    H4S15333   5.554   6.141   3.065 -0.0035  0.8778 -1.2660
  141OSM    C5S15334   5.623   5.965   2.976 -0.6412  0.0829  0.4441
  141OSM    H5S15335   5.637   5.902   2.888  0.0943  1.6683 -0.6062
  141OSM    C6S15336   5.692   5.913   3.106  0.1190 -0.0221 -0.5140
  141OSM    H6S15337   5.798   5.946   3.115  0.5327 -1.4530  0.0633
  141OSM    H6T15338   5.697   5.803   3.097 -1.5679 -0.4069  2.0867
  141OSM    C7S15339   5.618   5.944   3.237 -0.3994  0.0904  0.2697
  141OSM    H7S15340   5.517   5.899   3.247 -0.8653  1.1010  0.2784
  141OSM    H7T15341   5.606   6.051   3.265  0.0567  0.4981 -1.0111
  141OSM    C8S15342   5.701   5.887   3.353  0.0107  0.3903 -0.2816
  141OSM    H8S15343   5.809   5.893   3.326  0.1808  1.6838  0.6104
  141OSM    H8T15344   5.677   5.779   3.349 -0.3536  0.5081 -2.7544
  141OSM    C9S15345   5.664   5.943   3.491 -0.0214 -0.0768  0.7041
  141OSM    H9S15346   5.554   5.943   3.505 -0.2271  1.5942 -0.6811
  141OSM    H9T15347   5.698   6.049   3.497 -0.5062  0.1642 -0.6107
  141OSM   C10S15348   5.728   5.872   3.610  0.0947 -0.2543 -0.3924
  141OSM   H10S15349   5.837   5.891   3.601 -0.2066  3.2902  1.4703
  141OSM   H10T15350   5.717   5.767   3.577  0.1478  0.6559 -3.7502
  141OSM   C11S15351   5.674   5.908   3.746 -0.4955 -0.6191 -0.1167
  141OSM   H11S15352   5.717   5.840   3.823  0.6556  1.7619  1.4555
  141OSM   H11T15353   5.563   5.905   3.745 -0.5996  1.5652 -0.7185
  141OSM   C12S15354   5.726   6.046   3.800  0.2151  0.1063 -0.1871
  141OSM   H12S15355   5.826   6.059   3.752  0.0585 -0.8454 -0.8075
  141OSM   H12T15356   5.747   6.042   3.909  1.8660  1.3894 -0.4138
  141OSM   C13S15357   5.636   6.169   3.767 -0.1796  0.1968 -0.1619
  141OSM   H13S15358   5.529   6.148   3.788 -0.1792 -0.4793 -0.7771
  141OSM   H13T15359   5.653   6.190   3.659  0.7065  0.1858 -0.0318
  141OSM   C14S15360   5.678   6.292   3.834  0.5231 -0.1570  0.2180
  141OSM   H14S15361   5.631   6.376   3.778  0.2990  0.2631  1.0223
  141OSM   H14T15362   5.787   6.310   3.821  1.3676 -3.0085  2.3007
  141OSM   C15S15363   5.642   6.303   3.982 -0.8384 -0.0299  0.0186
  141OSM   H15S15364   5.682   6.207   4.023  0.6305 -0.2659 -1.8530
  141OSM   H15T15365   5.532   6.315   3.995 -0.6006  2.3036  0.1744
  141OSM   C16S15366   5.729   6.422   4.043  0.4861 -0.2158  0.0106
  141OSM   H16S15367   5.738   6.513   3.979  2.5001  0.8199  1.6390
  141OSM   H16T15368   5.834   6.388   4.034  0.9209  1.2730 -1.2013
  141OSM   C17S15369   5.694   6.464   4.185 -0.5373  0.2984  0.1567
  141OSM   H17S15370   5.777   6.522   4.229  0.3294 -0.0441 -0.9745
  141OSM   H17T15371   5.683   6.368   4.240  0.5955  0.7970  1.2850
  141OSM   C18S15372   5.559   6.535   4.218  0.1348 -0.1348  0.0594
  141OSM   H18S15373   5.549   6.635   4.172  0.3156  0.5352  1.4374
  141OSM   H18T15374   5.539   6.550   4.326 -1.9585  0.6647 -0.3792
  141OSM   H18U15375   5.469   6.477   4.186 -0.1727  0.4651 -0.1891
  141OSM    C1F15376   5.147   6.044   3.036  0.6767 -0.0302 -0.2297
  141OSM     OF15377   5.091   5.966   2.964  0.3480 -0.0275 -0.2333
  141OSM    C2F15378   5.094   6.078   3.167  0.5508 -0.6813  0.1270
  141OSM    H2F15379   4.985   6.057   3.172  0.2360  0.6234 -0.8985
  141OSM    H2G15380   5.115   6.186   3.180 -1.0114 -0.2494 -0.6444
  141OSM    C3F15381   5.171   5.991   3.271 -0.5250 -0.3300 -0.5009
  141OSM    H3F15382   5.280   6.008   3.268  0.4356 -4.4156  2.9533
  141OSM    H3G15383   5.160   5.881   3.257 -1.9890 -0.6054  2.1515
  141OSM    C4F15384   5.120   6.023   3.411 -0.5660  0.0696 -0.4632
  141OSM    H4F15385   5.019   5.977   3.411 -0.2781 -0.5814 -0.9959
  141OSM    H4G15386   5.104   6.132   3.424 -0.9029  0.1536 -1.5143
  141OSM    C5F15387   5.211   5.955   3.511 -0.2848 -0.4334 -0.1312
  141OSM    H5F15388   5.311   6.002   3.524 -1.2805  1.1187  2.6385
  141OSM    H5G15389   5.223   5.846   3.492  3.1432 -0.0967 -0.7037
  141OSM    C6F15390   5.159   5.962   3.660 -0.4982 -0.5233  0.8648
  141OSM    H6F15391   5.059   5.916   3.671 -0.7801 -0.2316 -0.3147
  141OSM    H6G15392   5.139   6.068   3.685  0.8675  0.5228 -2.0650
  141OSM    C7F15393   5.240   5.885   3.766 -0.7313  0.2966  0.0028
  141OSM    H7F15394   5.341   5.925   3.784  0.6586 -2.7450 -0.3241
  141OSM    H7G15395   5.250   5.785   3.718  2.2623  0.1396  0.7598
  141OSM    C8F15396   5.170   5.886   3.901  0.0506  0.2338 -1.1585
  141OSM    H8F15397   5.222   5.803   3.953 -1.9326 -1.1819 -1.2841
  141OSM    H8G15398   5.063   5.863   3.881 -0.1443  2.3362 -2.8937
  141OSM    C9F15399   5.182   6.024   3.956 -0.4463 -0.1991  1.0302
  141OSM    H9F15400   5.104   6.094   3.923  0.3190  1.1618  2.0416
  141OSM   C10F15401   5.265   6.082   4.045 -0.2377 -0.3843  0.1288
  141OSM   H10F15402   5.258   6.190   4.063  1.6804 -0.0345 -0.9945
  141OSM   C11F15403   5.384   6.022   4.113 -0.2093 -0.4235  0.2342
  141OSM   H11F15404   5.474   6.075   4.075 -1.5504  2.3896  0.7679
  141OSM   H11G15405   5.391   5.912   4.093 -0.9826 -0.1180 -2.0231
  141OSM   C12F15406   5.394   6.037   4.263  0.1055 -0.1527 -0.2129
  141OSM   H12F15407   5.461   5.955   4.297 -0.3370 -0.4155  0.0256
  141OSM   H12G15408   5.293   6.020   4.307  0.4059 -0.2143  0.4788
  141OSM   C13F15409   5.432   6.182   4.316 -0.7103  0.4585 -0.3909
  141OSM   H13F15410   5.357   6.256   4.281 -0.0574  2.2838  1.8582
  141OSM   H13G15411   5.534   6.205   4.279 -0.2369 -2.3199 -1.0424
  141OSM   C14F15412   5.439   6.177   4.475  0.6535  0.9485  0.3936
  141OSM   H14F15413   5.491   6.087   4.513  0.9742  0.4740 -1.1056
  141OSM   H14G15414   5.336   6.159   4.513  1.7751 -0.1135  3.1825
  141OSM   C15F15415   5.504   6.297   4.543 -0.1127 -0.7425 -0.9132
  141OSM   H15F15416   5.435   6.382   4.527 -1.4564 -1.5530  0.4080
  141OSM   H15G15417   5.606   6.316   4.502  0.3412  1.6840  1.0622
  141OSM   C16F15418   5.505   6.287   4.696 -0.4103 -0.1767 -0.5872
  141OSM   H16F15419   5.553   6.374   4.746  0.7710 -1.0073 -0.1966
  141OSM   H16G15420   5.578   6.205   4.714 -0.8286 -0.9252 -2.1131
  141OSM   C17F15421   5.379   6.253   4.770  1.4193 -0.1835 -0.0530
  141OSM   H17F15422   5.340   6.152   4.741  2.3369 -0.4734 -0.3016
  141OSM   H17G15423   5.305   6.331   4.741  1.8776 -0.3629 -1.8336
  141OSM   C18F15424   5.398   6.275   4.919 -0.3526  0.3770 -0.0803
  141OSM   H18F15425   5.311   6.242   4.979 -0.1387  0.3260  0.2052
  141OSM   H18G15426   5.430   6.380   4.937 -0.1370  0.3747 -0.4452
  141OSM   H18H15427   5.484   6.215   4.957 -1.3560 -0.2894  1.2066
  142OSM      N15428   6.980   0.324   2.035  0.3978 -1.0989 -0.2304
  142OSM    C1515429   7.124   0.320   2.028  0.3927  0.7094  0.5158
  142OSM   H15A15430   7.162   0.386   2.105 -3.2445  3.7073  0.0005
  142OSM   H15B15431   7.172   0.350   1.936  0.6844 -0.4039  0.2863
  142OSM   H15C15432   7.148   0.216   2.044  1.2370  0.5674 -1.3850
  142OSM    C1415433   6.926   0.246   1.921 -0.5192 -0.3507 -0.0530
  142OSM   H14A15434   6.988   0.157   1.920 -0.2647 -0.2195  1.3057
  142OSM   H14B15435   6.945   0.294   1.827 -2.2171 -0.0911 -0.2866
  142OSM   H14C15436   6.824   0.211   1.933 -1.6848  2.5115 -0.8978
  142OSM    C1315437   6.940   0.261   2.175 -0.2620 -0.0587  0.2458
  142OSM   H13A15438   6.954   0.328   2.258  0.2653  2.0648 -1.4391
  142OSM   H13B15439   6.997   0.171   2.192 -0.1356 -0.5289 -2.1983
  142OSM   H13C15440   6.834   0.244   2.173 -0.5619  1.5456  0.6291
  142OSM    C1215441   6.916   0.474   2.039  0.1184  0.4871 -0.7569
  142OSM   H12A15442   6.813   0.460   2.009 -1.1851  1.1803  2.9210
  142OSM   H12B15443   6.963   0.532   1.961 -0.2081 -0.0859 -1.3929
  142OSM    C1115444   6.911   0.563   2.170 -0.1209  0.4714 -0.1346
  142OSM   H11A15445   6.846   0.530   2.254 -0.5656 -0.4932 -0.8552
  142OSM   H11B15446   6.882   0.667   2.144  0.6105  1.2052  1.7430
  142OSM      P15447   7.161   0.672   2.167 -0.1708  0.1158  0.4486
  142OSM    O1315448   7.276   0.591   2.114  0.2152  0.3572 -0.2516
  142OSM    O1415449   7.096   0.767   2.071  0.0379  0.0896 -0.7336
  142OSM    O1115450   7.207   0.750   2.302  0.3523  0.5069  0.6211
  142OSM    O1215451   7.046   0.568   2.214 -0.3161  0.7668 -0.1613
  142OSM    C1S15452   7.118   0.757   2.412  0.3791  0.1018  1.1936
  142OSM    H1S15453   7.064   0.662   2.431  1.3635 -0.6093  0.5738
  142OSM    H1T15454   7.035   0.828   2.393 -0.2259 -0.2478  2.4562
  142OSM     NF15455   7.111   0.800   2.653 -0.1483 -0.4774 -0.7619
  142OSM    HNF15456   7.081   0.883   2.700  1.8667 -0.4410  0.6027
  142OSM    C2S15457   7.193   0.806   2.536  0.2068 -0.1546  0.8848
  142OSM    H2S15458   7.281   0.740   2.539 -0.2610 -0.9032 -0.8845
  142OSM    C3S15459   7.240   0.951   2.505 -0.1906 -0.3378  0.0708
  142OSM    H3S15460   7.147   1.013   2.513 -0.3389 -0.5781  0.2334
  142OSM     O315461   7.290   0.985   2.376  0.2285 -0.3358  0.2151
  142OSM    HO315462   7.278   0.902   2.328  0.2430 -0.5870  0.6442
  142OSM    C4S15463   7.333   1.005   2.612  0.2750  0.2416  0.3004
  142OSM    H4S15464   7.282   1.038   2.704 -1.4163 -1.0679 -0.1181
  142OSM    C5S15465   7.468   1.008   2.605  0.7861  0.6402  0.2645
  142OSM    H5S15466   7.521   0.977   2.514 -0.4450  0.6946 -0.4879
  142OSM    C6S15467   7.559   1.047   2.715 -0.0248 -0.1752  0.2592
  142OSM    H6S15468   7.623   1.130   2.678  0.2064 -0.3225  0.3209
  142OSM    H6T15469   7.624   0.962   2.747  1.2773  0.2639 -1.0987
  142OSM    C7S15470   7.500   1.108   2.846  0.4071 -0.0003  0.0799
  142OSM    H7S15471   7.451   1.019   2.891  1.2971 -0.9399 -0.7462
  142OSM    H7T15472   7.422   1.184   2.827 -2.0529 -2.5317 -0.6759
  142OSM    C8S15473   7.610   1.160   2.935 -0.0041  0.1947 -0.5471
  142OSM    H8S15474   7.667   1.236   2.878 -1.6076 -0.3496 -3.0048
  142OSM    H8T15475   7.681   1.080   2.965  1.0913  1.8750  1.6881
  142OSM    C9S15476   7.545   1.210   3.067 -0.0338 -0.1550 -0.6103
  142OSM    H9S15477   7.450   1.263   3.044 -0.4429 -1.2247 -1.4738
  142OSM    H9T15478   7.615   1.281   3.116  0.0949 -0.3467 -0.5194
  142OSM   C10S15479   7.495   1.105   3.166 -0.0624 -0.0744 -0.0862
  142OSM   H10S15480   7.581   1.064   3.223  1.3442 -0.5142 -2.3597
  142OSM   H10T15481   7.453   1.011   3.123  0.9412 -1.4865  1.8747
  142OSM   C11S15482   7.392   1.167   3.266 -0.8085 -0.1548  0.2811
  142OSM   H11S15483   7.303   1.201   3.209 -0.0908  0.2701 -0.6084
  142OSM   H11T15484   7.444   1.256   3.307  1.4995 -0.5050 -1.7254
  142OSM   C12S15485   7.347   1.081   3.388 -0.5165 -0.1230 -0.5856
  142OSM   H12S15486   7.439   1.034   3.429  1.4537  1.6034 -2.7331
  142OSM   H12T15487   7.292   0.992   3.349  0.1268 -1.2031  0.8862
  142OSM   C13S15488   7.261   1.154   3.485  0.4798 -0.0198 -0.7066
  142OSM   H13S15489   7.162   1.175   3.438  0.4552  0.6048 -0.3882
  142OSM   H13T15490   7.310   1.252   3.504  2.1552 -1.3901  3.0164
  142OSM   C14S15491   7.248   1.070   3.608  0.0264  0.8357  0.0337
  142OSM   H14S15492   7.340   1.077   3.669  0.9845  1.7432 -1.4713
  142OSM   H14T15493   7.225   0.966   3.575 -2.5696  1.5472 -0.6575
  142OSM   C15S15494   7.115   1.100   3.683  0.3594 -0.3812 -0.5544
  142OSM   H15S15495   7.045   1.014   3.681  2.2375 -1.9896 -0.8834
  142OSM   H15T15496   7.066   1.188   3.637  0.0625 -0.1583  0.1794
  142OSM   C16S15497   7.140   1.141   3.829  0.9851 -0.2807 -0.3500
  142OSM   H16S15498   7.044   1.195   3.846 -0.0892 -2.2746  0.3828
  142OSM   H16T15499   7.225   1.212   3.833  1.8442 -1.3414  2.2719
  142OSM   C17S15500   7.168   1.019   3.913 -0.5049 -0.1877 -0.1950
  142OSM   H17S15501   7.264   0.976   3.877 -1.0176 -0.0646 -1.7861
  142OSM   H17T15502   7.075   0.958   3.906 -1.4565  1.4268 -3.3984
  142OSM   C18S15503   7.200   1.053   4.068  0.0270  0.2378  0.1753
  142OSM   H18S15504   7.102   1.059   4.120  0.0781 -2.8712  0.8275
  142OSM   H18T15505   7.264   1.144   4.069 -0.9104  0.9382 -1.0034
  142OSM   H18U15506   7.245   0.963   4.115 -0.7951 -0.3679 -0.1755
  142OSM    C1F15507   7.091   0.681   2.711 -0.2564  1.0965  0.5892
  142OSM     OF15508   7.135   0.575   2.663  0.3877  0.0339  0.5600
  142OSM    C2F15509   7.004   0.682   2.835 -0.2551 -0.1821 -0.2687
  142OSM    H2F15510   6.904   0.725   2.814 -1.6010 -1.9920  1.9908
  142OSM    H2G15511   7.062   0.739   2.910  3.0231 -0.5279 -2.3041
  142OSM    C3F15512   6.971   0.541   2.891 -0.2041 -0.6059  0.1162
  142OSM    H3F15513   7.065   0.503   2.936 -0.3806  0.7391  1.6903
  142OSM    H3G15514   6.928   0.463   2.823 -1.8787 -1.1532  1.7114
  142OSM    C4F15515   6.864   0.551   3.006 -0.4232 -0.2759  0.2761
  142OSM    H4F15516   6.850   0.458   3.065  1.7314 -0.0263  1.2819
  142OSM    H4G15517   6.766   0.559   2.954 -0.6375 -1.8642  0.3805
  142OSM    C5F15518   6.885   0.672   3.100 -0.3735 -0.2086  0.3798
  142OSM    H5F15519   6.884   0.767   3.043 -4.0220 -0.5418 -0.3548
  142OSM    H5G15520   6.986   0.664   3.145  0.2616  2.3504 -0.4273
  142OSM    C6F15521   6.759   0.692   3.192 -0.2413 -0.3946 -0.2619
  142OSM    H6F15522   6.743   0.601   3.252 -1.2587 -0.2219 -0.2622
  142OSM    H6G15523   6.677   0.709   3.119  0.0635  1.8921 -0.1398
  142OSM    C7F15524   6.768   0.820   3.276 -0.1152 -0.9658  0.0384
  142OSM    H7F15525   6.777   0.910   3.211  0.7228  0.2437  1.7670
  142OSM    H7G15526   6.855   0.818   3.345  1.1484  0.2827 -1.4382
  142OSM    C8F15527   6.635   0.839   3.358 -0.8307 -0.1881 -0.4105
  142OSM    H8F15528   6.552   0.805   3.292 -0.1505  0.4892 -1.6675
  142OSM    H8G15529   6.609   0.946   3.369 -2.1343 -0.3675 -1.3791
  142OSM    C9F15530   6.651   0.778   3.498 -0.0188  0.2859  0.6152
  142OSM    H9F15531   6.649   0.668   3.493  0.7443  0.3191 -3.3018
  142OSM   C10F15532   6.673   0.830   3.618 -0.4457  0.2352  0.2208
  142OSM   H10F15533   6.673   0.760   3.703 -0.8535  0.6327  0.5571
  142OSM   C11F15534   6.692   0.977   3.650  0.4996 -0.1625  0.1627
  142OSM   H11F15535   6.597   1.028   3.622 -0.2775 -1.2904  0.7008
  142OSM   H11G15536   6.780   1.010   3.590  2.0399 -0.3632  2.1974
  142OSM   C12F15537   6.731   0.998   3.799 -0.1977  0.4241 -0.2938
  142OSM   H12F15538   6.730   1.108   3.817  0.0997  0.2573  0.8463
  142OSM   H12G15539   6.830   0.954   3.821 -1.1052 -1.5045  0.0937
  142OSM   C13F15540   6.631   0.948   3.901  0.5481 -0.7488  0.8771
  142OSM   H13F15541   6.637   0.837   3.908 -0.7926 -0.8300  0.9829
  142OSM   H13G15542   6.533   0.994   3.876  1.4429  0.4408 -0.6361
  142OSM   C14F15543   6.660   1.010   4.044  0.0506 -0.1522 -0.2171
  142OSM   H14F15544   6.624   1.115   4.052  0.0736 -0.1760  0.2210
  142OSM   H14G15545   6.769   0.999   4.065 -0.0549  1.9166  1.7334
  142OSM   C15F15546   6.589   0.935   4.156 -0.5870  0.6194  0.2100
  142OSM   H15F15547   6.478   0.930   4.146 -0.3929 -1.5173 -1.3679
  142OSM   H15G15548   6.617   0.977   4.255 -1.6129  0.0521  0.7613
  142OSM   C16F15549   6.629   0.783   4.159 -0.5089  0.0268  0.1534
  142OSM   H16F15550   6.740   0.782   4.146 -0.5436  1.2681 -0.4448
  142OSM   H16G15551   6.598   0.733   4.064  2.2009 -0.1813 -0.7130
  142OSM   C17F15552   6.588   0.703   4.283 -0.6888 -0.5429 -0.2226
  142OSM   H17F15553   6.588   0.594   4.260  0.0552 -0.7848  0.8800
  142OSM   H17G15554   6.488   0.740   4.313 -0.5106 -0.6898  0.5759
  142OSM   C18F15555   6.686   0.721   4.400  0.1984 -0.0600 -0.1669
  142OSM   H18F15556   6.660   0.651   4.482 -1.8163  0.5160 -0.2619
  142OSM   H18G15557   6.672   0.822   4.446  1.9857 -0.6748  1.9071
  142OSM   H18H15558   6.795   0.716   4.382  0.4523  3.1558 -0.1881
  143OSM      N15559   1.154   5.584   1.956  0.0957 -0.6177 -0.0298
  143OSM    C1515560   1.240   5.542   1.843  0.0236 -0.3550 -0.3644
  143OSM   H15A15561   1.208   5.442   1.814 -0.2703  0.0170 -1.3610
  143OSM   H15B15562   1.339   5.532   1.885 -0.8594 -0.8476  1.7425
  143OSM   H15C15563   1.228   5.608   1.759 -1.6369 -1.3005 -0.9350
  143OSM    C1415564   1.190   5.718   2.010  0.3717  1.0685  0.1770
  143OSM   H14A15565   1.116   5.752   2.080 -0.8934  1.6021 -1.3478
  143OSM   H14B15566   1.205   5.788   1.929 -1.0422  1.9421  0.6473
  143OSM   H14C15567   1.284   5.702   2.060 -0.2344  0.6727  1.2182
  143OSM    C1315568   1.024   5.603   1.888 -0.2298 -0.0254  0.3954
  143OSM   H13A15569   0.986   5.511   1.844  0.7983 -0.7537  0.9888
  143OSM   H13B15570   1.027   5.679   1.811  2.4961 -0.6616 -0.2176
  143OSM   H13C15571   0.952   5.633   1.963  0.3841 -0.5858  1.2194
  143OSM    C1215572   1.144   5.477   2.061 -0.6141  0.1707  0.0649
  143OSM   H12A15573   1.097   5.392   2.013  1.6927 -1.1465  0.0147
  143OSM   H12B15574   1.101   5.501   2.157 -0.4393 -2.4110  0.8484
  143OSM    C1115575   1.287   5.421   2.108  0.7036 -0.0093 -0.1886
  143OSM   H11A15576   1.333   5.366   2.024  0.3480  0.1602 -0.4977
  143OSM   H11B15577   1.264   5.338   2.178  0.2628 -0.6072 -1.0200
  143OSM      P15578   1.519   5.541   2.123 -0.3734  0.2700  0.2734
  143OSM    O1315579   1.592   5.417   2.161 -0.2843  0.4745  0.7773
  143OSM    O1415580   1.544   5.584   1.983  0.1354 -0.2247  0.6491
  143OSM    O1115581   1.566   5.656   2.220  0.1883 -0.3398 -0.1875
  143OSM    O1215582   1.368   5.529   2.162 -0.1530  0.1596  0.7588
  143OSM    C1S15583   1.492   5.664   2.349 -1.0364  0.2372  0.5323
  143OSM    H1S15584   1.486   5.564   2.396 -0.3325 -1.2082 -2.2084
  143OSM    H1T15585   1.384   5.690   2.343 -1.6564 -2.0916  0.6919
  143OSM     NF15586   1.503   5.752   2.587  0.4857 -0.5229  0.6143
  143OSM    HNF15587   1.428   5.814   2.607  0.0793 -1.0988  0.9132
  143OSM    C2S15588   1.558   5.758   2.453 -0.5716 -0.4876  0.7552
  143OSM    H2S15589   1.663   5.722   2.456 -0.5037 -0.5487 -1.0134
  143OSM    C3S15590   1.571   5.907   2.389  0.1962  0.6981 -0.2350
  143OSM    H3S15591   1.470   5.951   2.374 -0.3883 -0.7696 -0.7558
  143OSM     O315592   1.632   5.921   2.255  0.1000 -0.0989  0.3641
  143OSM    HO315593   1.622   5.833   2.220 -1.1685  0.4711 -0.7791
  143OSM    C4S15594   1.649   5.999   2.478  0.7146  1.0879  0.5353
  143OSM    H4S15595   1.586   6.081   2.516  0.2060  0.7230  0.4871
  143OSM    C5S15596   1.784   5.995   2.493 -0.1423 -0.3388  0.1838
  143OSM    H5S15597   1.853   5.926   2.442  2.9976  2.3665  0.4469
  143OSM    C6S15598   1.849   6.102   2.583  0.6903 -0.2534  0.5164
  143OSM    H6S15599   1.825   6.203   2.541  0.8846 -0.3847  0.0885
  143OSM    H6T15600   1.960   6.097   2.579  0.8251  1.8428  0.0307
  143OSM    C7S15601   1.797   6.115   2.726 -0.0900 -0.2710  0.2794
  143OSM    H7S15602   1.686   6.119   2.718 -0.1507 -3.2317 -2.0163
  143OSM    H7T15603   1.828   6.213   2.769 -0.1920 -0.5603  1.0452
  143OSM    C8S15604   1.847   6.001   2.822  0.5863  0.5101 -0.0418
  143OSM    H8S15605   1.958   5.996   2.818  0.6471  1.5818 -0.0603
  143OSM    H8T15606   1.801   5.915   2.769  0.8772  1.3836 -1.7522
  143OSM    C9S15607   1.795   6.018   2.963 -0.3450  0.1392  0.2999
  143OSM    H9S15608   1.684   6.018   2.961 -0.3778 -1.5402  0.7400
  143OSM    H9T15609   1.821   6.121   2.996 -1.4323  0.1752  1.0729
  143OSM   C10S15610   1.855   5.928   3.076  0.7785  0.1493 -0.8206
  143OSM   H10S15611   1.955   5.969   3.102  0.8870 -1.0003  0.6599
  143OSM   H10T15612   1.865   5.826   3.033 -0.0805 -1.6200  2.8346
  143OSM   C11S15613   1.766   5.920   3.199  0.3094  0.0983  0.2308
  143OSM   H11S15614   1.663   5.895   3.166  1.0479 -1.0124 -1.3142
  143OSM   H11T15615   1.747   6.019   3.247 -0.6777 -0.8364  1.8644
  143OSM   C12S15616   1.822   5.833   3.301 -0.0051 -0.0742 -0.2574
  143OSM   H12S15617   1.924   5.872   3.319 -0.0997 -0.0271  0.1953
  143OSM   H12T15618   1.819   5.728   3.265 -1.4098 -0.5597  1.1785
  143OSM   C13S15619   1.737   5.823   3.433  0.2032 -0.6602  0.8485
  143OSM   H13S15620   1.753   5.734   3.497 -3.0872 -0.3490  2.3439
  143OSM   H13T15621   1.628   5.823   3.412 -0.1056  1.3119  2.1565
  143OSM   C14S15622   1.759   5.930   3.535 -0.2674  0.3224 -0.2213
  143OSM   H14S15623   1.698   6.017   3.501 -2.5382 -1.0523  0.1276
  143OSM   H14T15624   1.867   5.956   3.537 -0.3226  0.5294  0.2227
  143OSM   C15S15625   1.719   5.900   3.679  0.2249  0.8179  0.0372
  143OSM   H15S15626   1.773   5.810   3.715 -1.7624 -0.0264  1.0150
  143OSM   H15T15627   1.612   5.870   3.683  1.1359 -2.9636 -0.7633
  143OSM   C16S15628   1.733   6.025   3.762 -0.3549  0.1821 -0.3176
  143OSM   H16S15629   1.657   6.104   3.741 -1.0950 -0.1591  0.9487
  143OSM   H16T15630   1.832   6.068   3.737 -1.7119  3.4982 -0.5431
  143OSM   C17S15631   1.726   6.003   3.917  0.1261 -0.3185 -0.4148
  143OSM   H17S15632   1.633   5.947   3.941  0.6299 -1.1575 -0.3714
  143OSM   H17T15633   1.708   6.107   3.949 -0.2697 -0.2940 -0.6999
  143OSM   C18S15634   1.837   5.931   3.982  0.1809  0.3365  0.4572
  143OSM   H18S15635   1.832   5.950   4.091  3.6183  1.1752  0.5804
  143OSM   H18T15636   1.933   5.963   3.936  0.2763  0.7278  0.9226
  143OSM   H18U15637   1.834   5.824   3.950 -1.2899  0.6253 -0.4531
  143OSM    C1F15638   1.539   5.650   2.660 -1.0471 -1.0161 -0.0087
  143OSM     OF15639   1.592   5.548   2.613 -0.1775  0.1376 -0.1240
  143OSM    C2F15640   1.515   5.675   2.812 -0.3207 -0.9272 -0.0018
  143OSM    H2F15641   1.406   5.695   2.821 -0.1560  0.0252 -0.0566
  143OSM    H2G15642   1.575   5.760   2.849  2.4900 -3.5106  1.8432
  143OSM    C3F15643   1.543   5.548   2.896 -0.2598 -1.0115 -0.1037
  143OSM    H3F15644   1.645   5.505   2.888  0.1566  0.0248 -0.6046
  143OSM    H3G15645   1.471   5.468   2.869 -0.0482 -0.7517 -1.5347
  143OSM    C4F15646   1.525   5.589   3.039  0.6758 -0.5288 -0.3337
  143OSM    H4F15647   1.418   5.596   3.066 -0.0861 -0.4332 -3.0572
  143OSM    H4G15648   1.555   5.695   3.056 -1.6494 -0.0321  1.1196
  143OSM    C5F15649   1.590   5.490   3.140 -0.0779  0.0596 -0.2062
  143OSM    H5F15650   1.699   5.509   3.134 -0.5107  2.4289 -2.7462
  143OSM    H5G15651   1.568   5.389   3.098  0.8150  0.3905 -1.5188
  143OSM    C6F15652   1.562   5.509   3.289  1.4370 -0.4595 -0.0758
  143OSM    H6F15653   1.587   5.610   3.327  1.4063 -1.1820  1.9715
  143OSM    H6G15654   1.633   5.443   3.344  0.2624 -0.2502  1.7529
  143OSM    C7F15655   1.414   5.485   3.318 -0.3797 -0.0148 -0.6872
  143OSM    H7F15656   1.373   5.410   3.248  2.2132  1.2931 -3.8499
  143OSM    H7G15657   1.348   5.573   3.302 -0.9790 -0.0193  1.4608
  143OSM    C8F15658   1.396   5.429   3.461  0.2199  0.3552  0.2567
  143OSM    H8F15659   1.456   5.338   3.484 -0.1469  0.5639  2.2102
  143OSM    H8G15660   1.289   5.400   3.467  0.3368 -0.5196 -1.3984
  143OSM    C9F15661   1.415   5.550   3.555 -0.1844 -0.0778 -0.3197
  143OSM    H9F15662   1.363   5.641   3.522  1.8333  0.6422 -1.7012
  143OSM   C10F15663   1.497   5.558   3.665  0.4664 -0.6705  0.4677
  143OSM   H10F15664   1.514   5.659   3.705  1.8203 -0.8582  0.4255
  143OSM   C11F15665   1.583   5.452   3.730  0.1582  0.5236 -0.0861
  143OSM   H11F15666   1.648   5.496   3.808 -0.0399 -1.0659  1.0109
  143OSM   H11G15667   1.657   5.404   3.663  0.4834 -0.5147  0.9896
  143OSM   C12F15668   1.510   5.339   3.803  0.0025  0.3890  0.9913
  143OSM   H12F15669   1.427   5.296   3.743  3.0898 -1.1584 -2.5569
  143OSM   H12G15670   1.470   5.369   3.903 -0.7328  0.3966  0.6994
  143OSM   C13F15671   1.608   5.227   3.851  0.2110  0.4296  0.8578
  143OSM   H13F15672   1.556   5.163   3.925  2.8250 -0.2530  2.1977
  143OSM   H13G15673   1.686   5.273   3.915  2.2908  0.2200 -1.3790
  143OSM   C14F15674   1.669   5.147   3.739 -0.4747 -0.1860  0.0627
  143OSM   H14F15675   1.730   5.210   3.670  2.5054 -4.7908 -1.9659
  143OSM   H14G15676   1.589   5.104   3.675  1.4280 -2.4832 -0.9077
  143OSM   C15F15677   1.765   5.034   3.788  0.1175 -0.2021  0.3313
  143OSM   H15F15678   1.715   4.985   3.875  2.1500 -0.1647  1.5921
  143OSM   H15G15679   1.857   5.078   3.832  0.7618 -1.2917  0.0994
  143OSM   C16F15680   1.805   4.936   3.675  0.2462 -0.8578  0.8314
  143OSM   H16F15681   1.719   4.894   3.618  0.3139  0.8817 -0.6115
  143OSM   H16G15682   1.860   4.857   3.731 -0.0107 -0.1949  2.0710
  143OSM   C17F15683   1.900   5.001   3.576 -0.3255 -0.0647  0.2216
  143OSM   H17F15684   1.994   5.039   3.620 -0.8016  1.3332  0.0605
  143OSM   H17G15685   1.848   5.082   3.521  1.8959  1.7823  0.7136
  143OSM   C18F15686   1.940   4.897   3.471 -0.5535  0.0871 -0.8293
  143OSM   H18F15687   1.857   4.885   3.398  0.1276 -0.9531 -1.4595
  143OSM   H18G15688   1.966   4.795   3.508 -1.3095 -0.0280 -0.5871
  143OSM   H18H15689   2.021   4.923   3.400  0.0752  0.6119  0.0689
  144OSM      N15690   6.976   5.869   1.887 -0.0857  0.0732  0.3514
  144OSM    C1515691   7.037   5.961   1.777 -0.6880  0.3223  0.0981
  144OSM   H15A15692   7.144   5.970   1.786 -0.1932 -1.3901 -2.8762
  144OSM   H15B15693   6.992   6.059   1.786  0.2575  0.7832 -0.0868
  144OSM   H15C15694   7.022   5.932   1.674  0.8182 -0.1011 -0.0254
  144OSM    C1415695   6.824   5.869   1.869  0.3976  0.0518  0.0682
  144OSM   H14A15696   6.769   5.803   1.934 -2.0522  1.5669 -0.3421
  144OSM   H14B15697   6.815   5.831   1.768  0.9076 -2.0327  0.7633
  144OSM   H14C15698   6.778   5.965   1.889  0.6510 -0.1365  1.6748
  144OSM    C1315699   7.033   5.724   1.882  0.1079  0.2362 -0.0983
  144OSM   H13A15700   7.014   5.683   1.980 -0.5353 -1.1553 -0.7700
  144OSM   H13B15701   7.137   5.716   1.855  0.1584  0.3487  0.0626
  144OSM   H13C15702   6.983   5.669   1.803  2.9801 -2.0457 -0.5067
  144OSM    C1215703   7.031   5.933   2.013 -0.5830 -0.1874 -0.2443
  144OSM   H12A15704   6.983   6.030   2.015  0.3580  0.2925 -0.4750
  144OSM   H12B15705   7.137   5.947   2.000 -1.2707  2.8269 -4.5885
  144OSM    C1115706   7.010   5.854   2.149  0.5915  0.0982 -0.1318
  144OSM   H11A15707   6.906   5.815   2.153  0.5281  0.2446 -0.3964
  144OSM   H11B15708   7.014   5.939   2.220 -0.1147  0.3191 -0.3502
  144OSM      P15709   7.245   5.764   2.206 -0.7006 -0.0456 -0.0773
  144OSM    O1315710   7.328   5.647   2.227 -0.7244  0.2207  0.4211
  144OSM    O1415711   7.286   5.870   2.116  0.1329  0.0326  0.4301
  144OSM    O1115712   7.222   5.835   2.342 -0.5836  0.2744 -0.8955
  144OSM    O1215713   7.095   5.735   2.166 -0.3150 -0.2966  0.3744
  144OSM    C1S15714   7.163   5.760   2.449 -0.0146 -0.5526 -0.8056
  144OSM    H1S15715   7.192   5.653   2.460 -0.8459 -0.5911  1.7576
  144OSM    H1T15716   7.052   5.762   2.449 -0.1558 -0.0515  2.9107
  144OSM     NF15717   7.197   5.739   2.694  0.4277  0.7366  0.9426
  144OSM    HNF15718   7.118   5.731   2.755 -0.7537 -1.3456 -0.7186
  144OSM    C2S15719   7.198   5.830   2.583 -0.0309  0.3650 -0.0651
  144OSM    H2S15720   7.304   5.862   2.570 -0.4272  1.6647 -0.2457
  144OSM    C3S15721   7.118   5.959   2.614  0.3266 -0.3422  0.0373
  144OSM    H3S15722   7.010   5.934   2.619 -0.2602  1.4509 -1.9208
  144OSM     O315723   7.130   6.047   2.505  0.6868 -0.0893 -0.4810
  144OSM    HO315724   7.162   5.995   2.431 -0.7249 -2.6689  0.6059
  144OSM    C4S15725   7.158   6.032   2.737  0.1517  0.1911 -0.0525
  144OSM    H4S15726   7.244   6.100   2.739  0.1986  0.1810 -1.3148
  144OSM    C5S15727   7.081   6.022   2.842 -0.3400 -0.5311 -0.0175
  144OSM    H5S15728   7.000   5.947   2.837 -2.2739  1.3990  0.5142
  144OSM    C6S15729   7.114   6.079   2.974 -0.5883 -0.0664  0.1907
  144OSM    H6S15730   7.028   6.133   3.019  0.5630 -0.0519  2.5284
  144OSM    H6T15731   7.197   6.152   2.961 -1.5301  1.0673  0.3481
  144OSM    C7S15732   7.155   5.962   3.063 -0.6046  0.3425  1.3990
  144OSM    H7S15733   7.235   5.899   3.019 -0.1726  0.2241  2.3367
  144OSM    H7T15734   7.062   5.903   3.083 -0.5465 -0.9953 -1.7891
  144OSM    C8S15735   7.207   6.011   3.200 -0.2389  0.7751  0.5040
  144OSM    H8S15736   7.309   6.051   3.182  0.0293 -0.5485 -1.1830
  144OSM    H8T15737   7.220   5.926   3.270 -0.7621  1.0634  0.9587
  144OSM    C9S15738   7.123   6.112   3.274  0.2125  0.5358 -0.5035
  144OSM    H9S15739   7.026   6.066   3.301  1.2000 -2.3615 -1.4810
  144OSM    H9T15740   7.106   6.209   3.223 -2.6975  0.1808 -0.3343
  144OSM   C10S15741   7.191   6.156   3.405 -0.3436  0.7174  0.3764
  144OSM   H10S15742   7.139   6.244   3.450  1.8953  2.4941 -0.2914
  144OSM   H10T15743   7.291   6.196   3.379 -0.4196 -0.2668 -1.5960
  144OSM   C11S15744   7.194   6.053   3.514 -0.7197 -0.2274  0.1595
  144OSM   H11S15745   7.269   5.975   3.490 -0.2999 -0.3812  1.8316
  144OSM   H11T15746   7.099   6.000   3.539 -0.5269  0.2934  2.1563
  144OSM   C12S15747   7.243   6.117   3.650 -0.7159 -0.0440  0.6616
  144OSM   H12S15748   7.333   6.180   3.635 -0.7319 -0.0844  0.3912
  144OSM   H12T15749   7.276   6.040   3.723 -1.1931  0.2762  1.2206
  144OSM   C13S15750   7.136   6.189   3.731  0.0675  0.6785 -0.1590
  144OSM   H13S15751   7.041   6.137   3.755 -0.6822  2.2041  0.3424
  144OSM   H13T15752   7.105   6.277   3.670  1.0259  1.8128  0.9470
  144OSM   C14S15753   7.185   6.255   3.866  0.3497  0.3179 -0.1836
  144OSM   H14S15754   7.100   6.314   3.907 -1.8474 -3.9136  2.0383
  144OSM   H14T15755   7.261   6.331   3.839 -0.8690  1.4808 -0.3968
  144OSM   C15S15756   7.233   6.154   3.971 -0.3734 -0.3509  0.1530
  144OSM   H15S15757   7.332   6.121   3.931 -0.0546 -1.0170  1.4433
  144OSM   H15T15758   7.157   6.073   3.974  1.4037 -2.0869  1.0006
  144OSM   C16S15759   7.252   6.217   4.106 -0.4225 -0.0661 -0.3919
  144OSM   H16S15760   7.154   6.253   4.144 -0.1051  0.1415  0.2384
  144OSM   H16T15761   7.323   6.302   4.110 -2.9080  2.1544 -1.0162
  144OSM   C17S15762   7.295   6.116   4.206  0.4068  0.6483 -0.5219
  144OSM   H17S15763   7.402   6.091   4.190  0.3569  0.3930 -0.4647
  144OSM   H17T15764   7.230   6.025   4.210 -2.2856  2.4315 -0.6901
  144OSM   C18S15765   7.294   6.173   4.348 -0.2701  0.3691 -0.6118
  144OSM   H18S15766   7.378   6.241   4.373 -0.9496  0.7584  0.7103
  144OSM   H18T15767   7.310   6.093   4.422 -2.9740  0.0510 -0.2907
  144OSM   H18U15768   7.192   6.206   4.378  0.9519  0.1156  4.8809
  144OSM    C1F15769   7.291   5.647   2.691  0.0289  0.6868 -0.2691
  144OSM     OF15770   7.395   5.655   2.624  0.2963  0.4817 -0.1608
  144OSM    C2F15771   7.258   5.520   2.768 -0.1084 -0.0361 -0.0520
  144OSM    H2F15772   7.198   5.457   2.699 -0.8518 -0.5920  1.0700
  144OSM    H2G15773   7.189   5.546   2.851 -0.6055 -2.5737  0.4071
  144OSM    C3F15774   7.383   5.452   2.829 -0.5436  0.2613 -0.9100
  144OSM    H3F15775   7.463   5.455   2.753 -1.6168  1.8779 -2.0611
  144OSM    H3G15776   7.351   5.348   2.852 -0.2186  0.1807 -0.8252
  144OSM    C4F15777   7.438   5.531   2.951 -0.6784 -0.5673 -0.9369
  144OSM    H4F15778   7.445   5.636   2.917  0.3198 -0.7606 -1.3652
  144OSM    H4G15779   7.542   5.508   2.985 -0.1807  0.9097 -1.3924
  144OSM    C5F15780   7.352   5.518   3.078 -0.5396 -0.0343 -0.0112
  144OSM    H5F15781   7.330   5.414   3.112 -0.9066 -0.3079 -1.0421
  144OSM    H5G15782   7.250   5.556   3.053 -2.2222 -3.3290  1.1287
  144OSM    C6F15783   7.419   5.598   3.194  0.5882 -0.4372  1.1148
  144OSM    H6F15784   7.426   5.705   3.162  2.2456 -0.4409  1.3542
  144OSM    H6G15785   7.526   5.576   3.213  0.5441 -0.4734  1.3200
  144OSM    C7F15786   7.344   5.585   3.326 -0.3514  0.1871 -0.3914
  144OSM    H7F15787   7.336   5.475   3.340  0.8730 -0.0289 -1.2763
  144OSM    H7G15788   7.235   5.607   3.318 -0.9127 -1.3297  2.0295
  144OSM    C8F15789   7.401   5.656   3.453  0.2757  0.4829  0.6441
  144OSM    H8F15790   7.401   5.761   3.414 -1.9862  0.1696 -0.4010
  144OSM    H8G15791   7.509   5.637   3.472  0.2439  0.4780  0.8227
  144OSM    C9F15792   7.318   5.644   3.577 -0.6499  1.0159 -0.3313
  144OSM    H9F15793   7.208   5.645   3.568 -0.8388 -2.8886  0.1443
  144OSM   C10F15794   7.370   5.631   3.701  0.3961  0.4262 -0.2036
  144OSM   H10F15795   7.307   5.612   3.789  1.4861  1.0583  0.7401
  144OSM   C11F15796   7.515   5.637   3.738  0.4360  0.2683 -0.6742
  144OSM   H11F15797   7.520   5.699   3.830  0.7559  0.6939 -0.9808
  144OSM   H11G15798   7.584   5.674   3.661 -0.8539  1.4394 -1.3013
  144OSM   C12F15799   7.567   5.502   3.788 -0.4247  0.5993  0.0916
  144OSM   H12F15800   7.676   5.519   3.802 -0.1647 -1.2605  0.6416
  144OSM   H12G15801   7.566   5.429   3.704  2.6838  1.0054 -0.4029
  144OSM   C13F15802   7.501   5.454   3.920 -0.5178  0.1398  0.3561
  144OSM   H13F15803   7.531   5.348   3.937  1.2161  0.6106  0.3962
  144OSM   H13G15804   7.391   5.461   3.904 -0.5161 -0.4965  0.0057
  144OSM   C14F15805   7.548   5.521   4.049  0.1348  0.1679  0.3109
  144OSM   H14F15806   7.483   5.490   4.133  0.4593 -1.0457  0.1353
  144OSM   H14G15807   7.537   5.629   4.025  0.5970 -0.0801 -1.1547
  144OSM   C15F15808   7.696   5.505   4.087  0.1865  0.6168  0.4126
  144OSM   H15F15809   7.758   5.540   4.002  1.6292  3.0268  2.3123
  144OSM   H15G15810   7.712   5.397   4.109 -1.1353  1.1411  5.0558
  144OSM   C16F15811   7.729   5.577   4.214  0.7413  0.3911 -0.3185
  144OSM   H16F15812   7.702   5.685   4.212  2.2211  0.7756 -1.6136
  144OSM   H16G15813   7.840   5.578   4.216  0.8398 -0.4918 -2.8103
  144OSM   C17F15814   7.679   5.516   4.346 -0.3217  0.8731 -0.1559
  144OSM   H17F15815   7.570   5.495   4.339  0.1516 -1.5932 -1.2483
  144OSM   H17G15816   7.706   5.584   4.430  2.1712 -0.4302  0.1892
  144OSM   C18F15817   7.741   5.380   4.377 -0.9222  0.3832  0.2789
  144OSM   H18F15818   7.852   5.386   4.379 -0.9997  2.2713  0.4664
  144OSM   H18G15819   7.707   5.309   4.299 -0.3163 -0.3424  0.6517
  144OSM   H18H15820   7.700   5.346   4.475  1.3068 -2.3380  0.3904
  145SAPE     N15821   1.942   1.891   6.475  0.3478 -0.3895 -0.5983
  145SAPE   HN115822   2.021   1.899   6.407 -0.4620  2.5239 -1.3249
  145SAPE   HN215823   1.855   1.889   6.418  0.3956 -1.1277 -0.6535
  145SAPE   HN315824   1.937   1.978   6.531  2.2760 -0.7040  0.1386
  145SAPE   C1215825   1.946   1.755   6.549 -0.7624 -0.0667 -0.0285
  145SAPE  H12A15826   2.017   1.765   6.634 -0.7304 -0.9770  0.0610
  145SAPE  H12B15827   1.988   1.685   6.474  0.8872 -1.5131  2.1037
  145SAPE   C1115828   1.811   1.710   6.584 -0.2247  0.0624 -0.1472
  145SAPE  H11A15829   1.754   1.788   6.638 -0.6174 -0.6254  0.4483
  145SAPE  H11B15830   1.831   1.635   6.663  0.1225  1.7279  1.4243
  145SAPE     P15831   1.727   1.521   6.424  0.1852 -0.3897  0.1705
  145SAPE   O1315832   1.867   1.466   6.429  0.2540 -0.0794 -0.2436
  145SAPE   O1415833   1.627   1.457   6.509  0.1962 -0.0801 -0.4242
  145SAPE   O1215834   1.736   1.675   6.466 -0.4188 -0.1986  0.0783
  145SAPE   O1115835   1.682   1.535   6.273  0.2924 -0.0242 -0.0661
  145SAPE    C115836   1.678   1.654   6.192 -0.2249 -0.4657 -0.8448
  145SAPE    HA15837   1.741   1.733   6.239 -0.5777 -1.0007  0.5976
  145SAPE    HB15838   1.729   1.627   6.098  1.4960 -1.5477  0.3415
  145SAPE    C215839   1.531   1.703   6.157  0.6435  0.5785  0.1499
  145SAPE    HS15840   1.498   1.761   6.245  1.7579  1.8618 -0.2380
  145SAPE   O2115841   1.452   1.576   6.143  0.0922 -0.1375  0.5379
  145SAPE   C2115842   1.324   1.589   6.151 -0.0852  0.6092 -0.2022
  145SAPE   O2215843   1.267   1.685   6.201 -0.0762  0.2539 -0.7727
  145SAPE   C2215844   1.260   1.481   6.071  0.8340  0.9544  0.2550
  145SAPE   H2R15845   1.268   1.520   5.967 -2.3272  1.8510  0.2509
  145SAPE   H2S15846   1.319   1.388   6.088  1.5738  1.6728  1.7275
  145SAPE    C315847   1.518   1.785   6.022 -0.7037  0.4299 -0.0331
  145SAPE    HX15848   1.410   1.814   6.021 -1.4487 -1.9113  1.9525
  145SAPE    HY15849   1.541   1.706   5.948 -3.0055  1.0809 -1.5610
  145SAPE   O3115850   1.607   1.895   6.024  0.1557  0.4126  0.7811
  145SAPE   C3115851   1.587   1.965   5.910 -0.9055  0.2343  0.6662
  145SAPE   O3215852   1.483   1.973   5.845  0.3529 -0.5379 -0.1874
  145SAPE   C3215853   1.704   2.065   5.883  0.0239 -0.2606 -0.5164
  145SAPE   H2X15854   1.791   1.999   5.900  0.0479 -0.0207  0.3543
  145SAPE   H2Y15855   1.711   2.141   5.964 -1.6398 -0.3000 -0.3006
  145SAPE   C2315856   1.115   1.450   6.106  0.5530  0.0042 -0.5476
  145SAPE   H3R15857   1.052   1.540   6.087  0.3114 -0.4307 -1.9400
  145SAPE   H3S15858   1.106   1.432   6.215 -0.1367  0.2598 -0.5589
  145SAPE   C2415859   1.052   1.326   6.026  0.2291 -0.3157 -0.2753
  145SAPE   H4R15860   0.948   1.308   6.061 -0.6825  3.0936 -0.7809
  145SAPE   H4S15861   1.112   1.239   6.058 -0.0844 -0.6134 -0.4879
  145SAPE   C2515862   1.040   1.359   5.882  0.3801 -0.5510  0.4775
  145SAPE   H5R15863   0.967   1.432   5.845 -1.2572 -2.8467 -1.1053
  145SAPE   C2615864   1.103   1.297   5.779 -0.4595  0.0487 -0.0182
  145SAPE   H6R15865   1.093   1.334   5.675  0.4361 -0.9869 -0.4859
  145SAPE   C2715866   1.197   1.177   5.790  0.4964  0.1774  0.0254
  145SAPE   H7R15867   1.227   1.154   5.895 -0.7177  0.4945  0.4493
  145SAPE   H7S15868   1.294   1.219   5.754  0.9550 -1.1685 -0.3752
  145SAPE   C2815869   1.168   1.047   5.727 -0.3634 -0.2496 -0.1154
  145SAPE   H8R15870   1.119   0.978   5.797 -0.3280  0.9650  1.1307
  145SAPE   C2915871   1.211   1.011   5.601 -0.1243  0.2710 -0.9177
  145SAPE   H9R15872   1.189   0.910   5.566  0.8091 -0.3716  0.2654
  145SAPE  C21015873   1.274   1.111   5.504 -0.4090  0.6110 -0.0599
  145SAPE  H10R15874   1.377   1.083   5.474 -0.8607  0.4867 -1.5901
  145SAPE  H10S15875   1.297   1.209   5.550  0.9505  0.6338 -0.7600
  145SAPE  C21115876   1.190   1.138   5.380  0.6732 -0.2964  0.7539
  145SAPE  H11R15877   1.085   1.156   5.406  0.8396 -0.4377  1.5439
  145SAPE  C21215878   1.230   1.128   5.246  0.2864 -0.0831  0.6275
  145SAPE  H12R15879   1.149   1.142   5.174  0.3553 -1.0568  0.3493
  145SAPE  C21315880   1.371   1.097   5.194  0.1055  0.2851  0.0118
  145SAPE  H13R15881   1.373   0.988   5.214  0.3819  0.2769 -0.0565
  145SAPE  H13S15882   1.442   1.156   5.255 -0.9619  1.7667 -0.1156
  145SAPE  C21415883   1.384   1.128   5.051 -0.4473  0.0587 -1.3257
  145SAPE  H14R15884   1.366   1.228   5.009 -0.2554  0.6725 -0.0001
  145SAPE  C21515885   1.401   1.038   4.954  0.1245 -0.2807 -0.2236
  145SAPE  H15R15886   1.407   1.074   4.850  1.4405 -0.4635 -0.2291
  145SAPE  C21615887   1.413   0.890   4.960  0.3382 -0.1561  0.6381
  145SAPE  H16R15888   1.449   0.852   5.058  1.5342 -0.4888  0.0842
  145SAPE  H16S15889   1.493   0.865   4.888 -0.4304  1.6007 -0.8996
  145SAPE  C21715890   1.276   0.821   4.927 -0.0581 -0.1170 -0.5548
  145SAPE  H17R15891   1.191   0.890   4.909  0.3877  0.7083  0.3927
  145SAPE  H17S15892   1.265   0.749   5.011 -1.1994  1.8959  1.1143
  145SAPE  C21815893   1.288   0.744   4.797 -0.0542 -0.6762 -0.6553
  145SAPE  H18R15894   1.325   0.819   4.725 -0.5110  0.2666  0.0702
  145SAPE  H18S15895   1.185   0.708   4.777 -1.6587  1.8544  2.1905
  145SAPE  C21915896   1.382   0.618   4.788  0.9194 -0.0504 -0.1623
  145SAPE  H19R15897   1.490   0.638   4.774  1.7944 -3.0988  1.2166
  145SAPE  H19S15898   1.349   0.555   4.702  0.6527  1.1124 -0.9225
  145SAPE  C22015899   1.379   0.521   4.905  0.0935 -0.0234 -0.8057
  145SAPE  H20R15900   1.459   0.445   4.890  1.0559  1.3717 -3.3126
  145SAPE  H20S15901   1.281   0.470   4.917 -0.8481  2.2675  2.4693
  145SAPE  H20T15902   1.403   0.559   5.006 -0.2962 -2.2820  0.2127
  145SAPE   C3315903   1.719   2.123   5.741 -0.1621  1.2769 -0.1795
  145SAPE   H3X15904   1.637   2.191   5.710  0.2761  1.1353 -1.7483
  145SAPE   H3Y15905   1.727   2.039   5.669 -1.1213  2.1259 -1.3128
  145SAPE   C3415906   1.845   2.213   5.724 -0.4781  0.0583  0.1850
  145SAPE   H4X15907   1.931   2.144   5.718 -2.0138 -1.8967 -0.6209
  145SAPE   H4Y15908   1.852   2.272   5.818 -0.0168  1.1751 -0.5362
  145SAPE   C3515909   1.836   2.290   5.589 -1.2571  0.2330  0.6624
  145SAPE   H5X15910   1.920   2.361   5.574 -2.0293  0.7468 -1.4949
  145SAPE   H5Y15911   1.743   2.350   5.600 -0.3764  2.0047 -1.0711
  145SAPE   C3615912   1.825   2.204   5.459  0.3383 -0.3402  0.2331
  145SAPE   H6X15913   1.783   2.261   5.373  0.1918 -1.9005 -0.7749
  145SAPE   H6Y15914   1.739   2.135   5.469 -0.3235  0.2762 -0.8945
  145SAPE   C3715915   1.949   2.127   5.420  0.2201  0.1420  0.0088
  145SAPE   H7X15916   1.928   2.043   5.350  0.6737 -1.3626  1.6110
  145SAPE   H7Y15917   2.008   2.082   5.503 -1.1548 -2.1760 -0.1864
  145SAPE   C3815918   2.048   2.216   5.343 -0.2114 -0.0602 -0.0258
  145SAPE   H8X15919   2.077   2.302   5.407  1.1651  0.3397 -1.1367
  145SAPE   H8Y15920   1.987   2.273   5.269 -0.6690  0.7179  0.9359
  145SAPE   C3915921   2.164   2.142   5.268 -0.6307 -0.6673  0.2479
  145SAPE   H9X15922   2.124   2.061   5.204 -0.1928  0.1543 -1.1057
  145SAPE   H9Y15923   2.225   2.099   5.350 -2.0074  0.3103  1.8699
  145SAPE  C31015924   2.257   2.235   5.184 -0.1284  0.4059  0.0666
  145SAPE  H10X15925   2.306   2.304   5.255  0.4074  0.2834 -0.1802
  145SAPE  H10Y15926   2.196   2.298   5.116  2.7649  1.9222 -1.3173
  145SAPE  C31115927   2.372   2.163   5.120  0.5750 -0.3604 -0.5323
  145SAPE  H11X15928   2.327   2.074   5.072 -2.1060  0.8529 -0.4463
  145SAPE  H11Y15929   2.454   2.146   5.193 -0.1859  2.1299  1.0666
  145SAPE  C31215930   2.438   2.257   5.016  0.2564  0.3102  0.3514
  145SAPE  H12X15931   2.463   2.353   5.065 -1.5019 -0.1439  2.3083
  145SAPE  H12Y15932   2.355   2.272   4.943  0.3088 -0.9018  0.0192
  145SAPE  C31315933   2.567   2.197   4.955  0.1314 -0.6245  0.0195
  145SAPE  H13X15934   2.641   2.169   5.033  5.2553 -2.4828 -4.8142
  145SAPE  H13Y15935   2.631   2.274   4.908  1.3359 -0.5065  1.7299
  145SAPE  C31415936   2.544   2.079   4.861  0.3609  0.7796  0.0143
  145SAPE  H14X15937   2.491   2.113   4.769 -2.3548 -2.9766 -0.0409
  145SAPE  H14Y15938   2.491   1.994   4.907 -0.2154  0.8829 -0.4477
  145SAPE  C31515939   2.676   2.026   4.797  0.2578 -0.0696  0.2402
  145SAPE  H15X15940   2.726   1.943   4.851  3.8105  1.3647 -0.5242
  145SAPE  H15Y15941   2.747   2.111   4.802  1.2050 -0.8586  0.4731
  145SAPE  C31615942   2.670   1.999   4.653  0.4577 -0.5509  0.2176
  145SAPE  H16X15943   2.589   2.063   4.610  0.4454 -0.3674  0.5115
  145SAPE  H16Y15944   2.639   1.894   4.636 -0.9341 -0.2048  0.5350
  145SAPE  C31715945   2.805   2.013   4.575 -0.2552  0.1233  0.3462
  145SAPE  H17X15946   2.791   1.967   4.475  2.4425 -2.1007  0.8411
  145SAPE  H17Y15947   2.883   1.944   4.614  1.5726  2.4692  1.0734
  145SAPE  C31815948   2.863   2.153   4.570 -0.2150  0.1308  0.1162
  145SAPE  H18X15949   2.782   2.225   4.545 -0.0516 -0.0609 -1.0528
  145SAPE  H18Y15950   2.938   2.162   4.488 -1.1739  4.0070 -0.5282
  145SAPE  H18Z15951   2.919   2.168   4.664 -0.2555 -0.1567  0.1877
  146SAPE     N15952   4.357   0.571   6.719  0.0369  0.1627  0.2892
  146SAPE   HN115953   4.316   0.651   6.667 -2.2046 -0.7120  0.5796
  146SAPE   HN215954   4.411   0.613   6.797 -0.0382  1.4543 -0.3179
  146SAPE   HN315955   4.415   0.513   6.656  0.8969 -0.6001  1.7432
  146SAPE   C1215956   4.246   0.481   6.768 -0.4146  0.0644 -0.4017
  146SAPE  H12A15957   4.204   0.436   6.676  2.6038 -0.3008 -1.7129
  146SAPE  H12B15958   4.178   0.549   6.823  0.6317 -0.2487  1.3661
  146SAPE   C1115959   4.296   0.374   6.867 -0.6450  0.0037  0.2705
  146SAPE  H11A15960   4.200   0.331   6.901 -1.7198  1.7458 -0.4462
  146SAPE  H11B15961   4.351   0.418   6.953  0.0964  1.3635 -0.8673
  146SAPE     P15962   4.386   0.133   6.806 -0.2725  0.2035 -0.2877
  146SAPE   O1315963   4.511   0.079   6.746 -0.0756  0.6368  0.6668
  146SAPE   O1415964   4.371   0.102   6.953 -0.2104  0.7865 -0.2325
  146SAPE   O1215965   4.379   0.288   6.792 -0.5549 -0.1151  0.4527
  146SAPE   O1115966   4.255   0.083   6.744 -1.2388 -0.4192  0.1826
  146SAPE    C115967   4.198   0.143   6.629 -0.8175  0.0408 -0.2074
  146SAPE    HA15968   4.103   0.197   6.652  0.0098  0.6708  2.0525
  146SAPE    HB15969   4.275   0.213   6.590  0.4682 -2.2043 -1.8644
  146SAPE    C215970   4.173   0.037   6.520 -0.1311 -0.1036  0.0172
  146SAPE    HS15971   4.113  -0.045   6.564  1.1854 -0.2304  1.6363
  146SAPE   O2115972   4.296  -0.003   6.460  0.0609  0.4568  0.6592
  146SAPE   C2115973   4.331  -0.123   6.486 -0.3883  0.4454 -0.2069
  146SAPE   O2215974   4.275  -0.208   6.556 -0.0822 -0.0809 -0.1498
  146SAPE   C2215975   4.466  -0.145   6.412 -0.1738 -0.3274 -0.0615
  146SAPE   H2R15976   4.540  -0.097   6.479 -2.4369 -0.5999  2.8811
  146SAPE   H2S15977   4.474  -0.256   6.411 -0.1500 -0.3472  0.9098
  146SAPE    C315978   4.083   0.096   6.407 -0.2560  0.1032 -0.2577
  146SAPE    HX15979   4.136   0.188   6.374 -1.0683  2.1619  3.5715
  146SAPE    HY15980   3.987   0.119   6.458  0.0979 -2.9191  2.1001
  146SAPE   O3115981   4.059   0.005   6.303 -0.4631  0.1589  0.4225
  146SAPE   C3115982   3.969   0.051   6.214 -0.2072 -0.0705 -0.0640
  146SAPE   O3215983   3.896   0.146   6.236 -0.1890 -0.3714  0.4578
  146SAPE   C3215984   3.968  -0.040   6.099 -0.6090  0.5778  0.3826
  146SAPE   H2X15985   3.971  -0.140   6.148  4.2866  0.5534  0.4758
  146SAPE   H2Y15986   4.062  -0.034   6.041 -0.5202  2.1554  0.6348
  146SAPE   C2315987   4.462  -0.099   6.262 -0.9209 -0.1221 -0.0567
  146SAPE   H3R15988   4.561  -0.055   6.238 -0.2842 -1.1784  0.5487
  146SAPE   H3S15989   4.373  -0.036   6.242 -1.5920 -0.9144  0.3829
  146SAPE   C2415990   4.437  -0.208   6.156  0.1315 -0.3375  0.6863
  146SAPE   H4R15991   4.522  -0.279   6.168  1.1181  0.8088  0.6458
  146SAPE   H4S15992   4.440  -0.148   6.062 -1.6047 -0.4361  0.5280
  146SAPE   C2515993   4.299  -0.268   6.158  0.6343  0.4009  0.2121
  146SAPE   H5R15994   4.244  -0.236   6.247 -0.5248 -2.7784  0.7595
  146SAPE   C2615995   4.227  -0.326   6.057 -0.5861 -0.4602 -0.2961
  146SAPE   H6R15996   4.124  -0.362   6.071 -0.6890  0.1222  0.4602
  146SAPE   C2715997   4.297  -0.363   5.922 -0.2292  0.5571 -0.5260
  146SAPE   H7R15998   4.291  -0.474   5.912  0.9371  0.5216 -0.9379
  146SAPE   H7S15999   4.405  -0.336   5.924 -0.0114 -0.2765 -0.7017
  146SAPE   C2816000   4.235  -0.291   5.803 -0.8158  0.0424 -0.1986
  146SAPE   H8R16001   4.215  -0.183   5.808 -0.0315  0.2177 -0.6268
  146SAPE   C2916002   4.220  -0.349   5.683 -0.0454  0.9079 -0.3969
  146SAPE   H9R16003   4.185  -0.296   5.593  3.4899  0.8674 -1.9787
  146SAPE  C21016004   4.249  -0.495   5.654 -0.2834  0.9952  0.0261
  146SAPE  H10R16005   4.182  -0.573   5.698 -0.8279 -0.4122 -3.0488
  146SAPE  H10S16006   4.349  -0.523   5.694 -1.0129 -1.4174  0.3509
  146SAPE  C21116007   4.271  -0.522   5.507 -0.0724  0.0049  0.1779
  146SAPE  H11R16008   4.363  -0.471   5.474  0.3263 -0.0293  1.2073
  146SAPE  C21216009   4.215  -0.618   5.427  0.6570 -0.4708  0.2842
  146SAPE  H12R16010   4.233  -0.629   5.319 -0.2308  1.0104 -0.0491
  146SAPE  C21316011   4.090  -0.699   5.462 -0.2857 -0.0542 -0.1258
  146SAPE  H13R16012   4.006  -0.637   5.423  0.5419  1.1434 -0.0575
  146SAPE  H13S16013   4.089  -0.715   5.572  2.1127 -0.3802 -0.0986
  146SAPE  C21416014   4.100  -0.838   5.396  0.4609 -0.1291  0.2710
  146SAPE  H14R16015   4.155  -0.910   5.457  0.7797 -0.2771 -0.1871
  146SAPE  C21516016   4.026  -0.888   5.292 -0.6474 -0.1088 -0.1487
  146SAPE  H15R16017   4.052  -0.985   5.247 -2.4555 -0.9577  0.5456
  146SAPE  C21616018   3.942  -0.808   5.187 -0.0737 -0.1216  0.5532
  146SAPE  H16R16019   3.916  -0.707   5.227 -1.0766  0.5078 -1.5096
  146SAPE  H16S16020   3.844  -0.859   5.176  0.4598 -0.6324 -3.2237
  146SAPE  C21716021   4.017  -0.783   5.055  0.1314 -0.3083 -0.0933
  146SAPE  H17R16022   4.020  -0.885   5.013 -2.1137 -0.5489  0.1958
  146SAPE  H17S16023   4.118  -0.742   5.078 -1.0573  1.4850  2.5558
  146SAPE  C21816024   3.949  -0.689   4.958 -0.5095 -0.1009  0.5685
  146SAPE  H18R16025   3.917  -0.594   5.005  1.5875  0.6866  0.5154
  146SAPE  H18S16026   3.858  -0.732   4.911 -1.7131  2.4293  0.3913
  146SAPE  C21916027   4.048  -0.649   4.851 -1.1545  0.1266  0.2933
  146SAPE  H19R16028   4.133  -0.597   4.901 -0.0651 -0.5686 -0.7659
  146SAPE  H19S16029   3.997  -0.583   4.779  1.8375  0.6786 -1.4996
  146SAPE  C22016030   4.104  -0.765   4.769 -0.2294  0.4670 -0.3710
  146SAPE  H20R16031   4.148  -0.849   4.827 -1.3701  0.8799  1.1457
  146SAPE  H20S16032   4.177  -0.724   4.697  2.1893  0.4509  1.9298
  146SAPE  H20T16033   4.026  -0.814   4.707 -0.7451  0.7954  0.0100
  146SAPE   C3316034   3.841  -0.018   6.018  0.2570  0.7239 -0.7540
  146SAPE   H3X16035   3.841   0.060   5.938  2.1611 -0.1449 -1.6839
  146SAPE   H3Y16036   3.756   0.002   6.086 -1.2529  0.1533 -2.3720
  146SAPE   C3416037   3.798  -0.146   5.940  0.5004 -0.1540 -0.7192
  146SAPE   H4X16038   3.688  -0.137   5.932  0.4442  0.3737  0.3832
  146SAPE   H4Y16039   3.820  -0.235   6.003 -0.0646 -0.2789 -0.7013
  146SAPE   C3516040   3.864  -0.166   5.800 -0.3744  0.3175  0.2370
  146SAPE   H5X16041   3.969  -0.197   5.820 -0.4450 -0.1184 -0.0443
  146SAPE   H5Y16042   3.873  -0.078   5.733  2.5698  0.8269  1.1604
  146SAPE   C3616043   3.794  -0.265   5.703 -0.0905  0.3536  0.6088
  146SAPE   H6X16044   3.685  -0.249   5.693 -0.1321 -1.0010 -1.8859
  146SAPE   H6Y16045   3.813  -0.363   5.752  0.4425  0.1216 -0.0539
  146SAPE   C3716046   3.843  -0.252   5.555 -0.4309  0.4215  0.1111
  146SAPE   H7X16047   3.954  -0.262   5.548 -0.5486 -0.1924 -0.9585
  146SAPE   H7Y16048   3.813  -0.149   5.526 -0.4258  0.1217 -0.9975
  146SAPE   C3816049   3.787  -0.352   5.456 -0.2029  0.2268  0.3604
  146SAPE   H8X16050   3.681  -0.367   5.484 -0.3620  1.3472  0.3877
  146SAPE   H8Y16051   3.846  -0.446   5.461 -0.9955 -0.3740 -1.0779
  146SAPE   C3916052   3.784  -0.307   5.312  0.2111  0.3434 -0.8673
  146SAPE   H9X16053   3.879  -0.279   5.263 -0.4569  1.7641 -1.4309
  146SAPE   H9Y16054   3.741  -0.204   5.307  2.5957  1.4890  0.4589
  146SAPE  C31016055   3.691  -0.398   5.230 -0.2577  0.0490  0.1606
  146SAPE  H10X16056   3.613  -0.421   5.306 -0.6582 -0.0699 -0.2853
  146SAPE  H10Y16057   3.738  -0.498   5.218 -0.7572 -0.1837  0.1321
  146SAPE  C31116058   3.648  -0.335   5.095  0.2630  0.1123 -0.6302
  146SAPE  H11X16059   3.598  -0.238   5.111  0.2855  0.0040  0.1103
  146SAPE  H11Y16060   3.574  -0.402   5.046 -1.3422  1.8782 -0.7112
  146SAPE  C31216061   3.757  -0.311   4.989 -0.2687  0.0905 -0.2316
  146SAPE  H12X16062   3.830  -0.392   4.969  0.8566  1.3698 -1.5464
  146SAPE  H12Y16063   3.824  -0.232   5.030  1.4993 -1.2967 -0.2970
  146SAPE  C31316064   3.701  -0.267   4.852  0.2869  0.3938 -1.0742
  146SAPE  H13X16065   3.774  -0.205   4.795 -1.0361  0.5314 -2.6829
  146SAPE  H13Y16066   3.609  -0.206   4.860 -0.8619 -1.1886 -1.7831
  146SAPE  C31416067   3.666  -0.386   4.761 -1.0527  0.4121  0.3533
  146SAPE  H14X16068   3.595  -0.455   4.812 -0.1972 -1.7910 -1.2664
  146SAPE  H14Y16069   3.763  -0.436   4.742 -0.5490  0.1459  3.1681
  146SAPE  C31516070   3.593  -0.331   4.645 -0.6184 -0.0516 -0.5050
  146SAPE  H15X16071   3.670  -0.270   4.595 -1.0067  2.4801  1.7505
  146SAPE  H15Y16072   3.519  -0.259   4.686  1.1101  1.3966  0.1799
  146SAPE  C31616073   3.514  -0.434   4.566  0.2034 -0.1353  0.1456
  146SAPE  H16X16074   3.470  -0.400   4.470 -2.6088  2.2970  2.1087
  146SAPE  H16Y16075   3.424  -0.451   4.629 -0.2391 -2.3203 -0.9427
  146SAPE  C31716076   3.584  -0.565   4.531 -0.3297 -0.5743 -0.0414
  146SAPE  H17X16077   3.616  -0.618   4.623 -1.2143 -2.4090 -0.7429
  146SAPE  H17Y16078   3.665  -0.543   4.458  0.3071 -1.4444  0.3839
  146SAPE  C31816079   3.491  -0.666   4.461  0.1577  0.3338  0.6782
  146SAPE  H18X16080   3.434  -0.601   4.391 -1.6893  1.1377  2.7991
  146SAPE  H18Y16081   3.420  -0.716   4.530  0.0711 -0.3514  0.1029
  146SAPE  H18Z16082   3.545  -0.747   4.407  0.2451 -0.5029  1.9733
  147SAPE     N16083   3.533   3.099   6.611  0.5122  0.2063 -0.8577
  147SAPE   HN116084   3.441   3.091   6.563  0.7731 -0.1859 -1.2942
  147SAPE   HN216085   3.569   3.006   6.640 -1.1376  0.1537  1.2699
  147SAPE   HN316086   3.528   3.152   6.700  4.4365 -0.0727 -0.2891
  147SAPE   C1216087   3.624   3.171   6.512 -0.2111 -0.7853  0.0870
  147SAPE  H12A16088   3.642   3.091   6.437 -0.9049 -1.9506  1.1126
  147SAPE  H12B16089   3.716   3.208   6.561  0.4618 -0.1129 -1.6491
  147SAPE   C1116090   3.550   3.287   6.441 -0.2100 -0.1145  0.0901
  147SAPE  H11A16091   3.457   3.248   6.394 -0.3328  1.9560 -1.5577
  147SAPE  H11B16092   3.609   3.329   6.356  1.0701  0.4964  1.2425
  147SAPE     P16093   3.413   3.498   6.497 -0.6664  0.3359 -0.0864
  147SAPE   O1316094   3.288   3.430   6.458  0.5483 -0.2767 -0.0458
  147SAPE   O1416095   3.408   3.604   6.602  0.7610 -0.0438 -0.2918
  147SAPE   O1216096   3.528   3.389   6.541  0.0493 -0.4505  0.5317
  147SAPE   O1116097   3.460   3.573   6.360  0.3825  0.4610  0.0222
  147SAPE    C116098   3.577   3.661   6.365 -0.0722  0.5279 -0.3736
  147SAPE    HA16099   3.562   3.748   6.431  0.9332  0.9645 -0.6975
  147SAPE    HB16100   3.665   3.599   6.394  0.6684  0.7154 -2.0643
  147SAPE    C216101   3.627   3.688   6.225 -0.3998  0.5566 -1.2081
  147SAPE    HS16102   3.727   3.735   6.224 -0.3570  0.4834 -0.5044
  147SAPE   O2116103   3.533   3.763   6.161 -0.1506 -0.8590 -0.4965
  147SAPE   C2116104   3.526   3.894   6.199 -0.0516  1.0214 -0.1579
  147SAPE   O2216105   3.588   3.945   6.286 -0.1588  0.6238 -0.9736
  147SAPE   C2216106   3.419   3.956   6.116 -0.2802  0.1475 -0.0239
  147SAPE   H2R16107   3.363   3.878   6.059 -0.2075  0.0494  0.0396
  147SAPE   H2S16108   3.345   4.003   6.183 -0.9280 -0.7764 -0.0607
  147SAPE    C316109   3.648   3.553   6.147  0.1557  0.2007 -0.3336
  147SAPE    HX16110   3.552   3.496   6.151  0.4117 -0.1804  2.1218
  147SAPE    HY16111   3.715   3.496   6.214 -0.7426 -0.3483  0.1212
  147SAPE   O3116112   3.701   3.559   6.014 -0.3809  0.8684  0.2366
  147SAPE   C3116113   3.827   3.604   6.019 -0.5285 -0.6761  0.3447
  147SAPE   O3216114   3.895   3.610   6.120  0.3952  0.5375  0.5521
  147SAPE   C3216115   3.866   3.644   5.877  0.5048 -0.0812 -0.4337
  147SAPE   H2X16116   3.892   3.752   5.883  1.8707 -0.4711  2.6939
  147SAPE   H2Y16117   3.780   3.640   5.806  0.2279 -0.3652 -0.0861
  147SAPE   C2316118   3.478   4.051   6.013 -0.3146 -0.1978  0.5111
  147SAPE   H3R16119   3.531   4.127   6.075  0.2540 -0.6113  0.5453
  147SAPE   H3S16120   3.392   4.102   5.964  0.9717  1.2156 -0.3949
  147SAPE   C2416121   3.568   3.993   5.898 -0.6528 -0.0801 -0.0260
  147SAPE   H4R16122   3.513   3.918   5.839  1.3818 -2.1964  0.6301
  147SAPE   H4S16123   3.666   3.965   5.943 -0.7901  1.5476  1.4077
  147SAPE   C2516124   3.606   4.111   5.813  0.5283 -0.1112  0.2903
  147SAPE   H5R16125   3.679   4.178   5.861  0.1800  2.3922 -2.3790
  147SAPE   C2616126   3.550   4.158   5.699 -0.1544 -0.5415  0.6663
  147SAPE   H6R16127   3.595   4.246   5.650 -0.3460  0.4969  2.2642
  147SAPE   C2716128   3.431   4.088   5.617 -0.3745 -0.0308 -0.6525
  147SAPE   H7R16129   3.394   3.993   5.660 -3.0283  0.7732 -0.9710
  147SAPE   H7S16130   3.453   4.064   5.511 -0.0709 -2.7187 -0.0425
  147SAPE   C2816131   3.306   4.172   5.645 -0.1314  0.3971  0.0314
  147SAPE   H8R16132   3.250   4.140   5.734 -2.4687  3.1929 -0.2834
  147SAPE   C2916133   3.267   4.275   5.573 -0.4864 -0.0700 -0.4084
  147SAPE   H9R16134   3.166   4.308   5.600 -1.4784 -1.4940 -2.1136
  147SAPE  C21016135   3.324   4.334   5.444  0.0847  0.1679 -0.3231
  147SAPE  H10R16136   3.243   4.370   5.377 -1.6868 -0.3473  1.4645
  147SAPE  H10S16137   3.381   4.259   5.385  2.5038  3.3143 -2.3501
  147SAPE  C21116138   3.423   4.445   5.475  0.0052  0.4448 -0.3895
  147SAPE  H11R16139   3.456   4.467   5.578 -1.3382 -0.0184  0.1684
  147SAPE  C21216140   3.478   4.529   5.382  0.5675 -0.1350 -0.9517
  147SAPE  H12R16141   3.553   4.599   5.422 -0.3137  0.1023  0.3559
  147SAPE  C21316142   3.447   4.540   5.237 -0.0437  0.6066 -0.2989
  147SAPE  H13R16143   3.406   4.441   5.205  0.9927 -0.6729  2.0383
  147SAPE  H13S16144   3.540   4.548   5.178 -0.2894 -1.1918 -1.0097
  147SAPE  C21416145   3.357   4.657   5.205  0.7501  0.7721  0.4823
  147SAPE  H14R16146   3.360   4.739   5.277  0.1397  1.0258  0.2276
  147SAPE  C21516147   3.281   4.669   5.096  0.7292  0.4271  0.4729
  147SAPE  H15R16148   3.215   4.754   5.075  0.6479  0.1757 -0.3234
  147SAPE  C21616149   3.275   4.562   4.992  0.5551 -0.1992 -0.0999
  147SAPE  H16R16150   3.180   4.575   4.936  0.3711 -0.2400  0.2005
  147SAPE  H16S16151   3.266   4.455   5.021 -1.3819  0.8534  3.9905
  147SAPE  C21716152   3.389   4.588   4.900  0.0878  0.0024  0.6545
  147SAPE  H17R16153   3.482   4.537   4.934 -1.2208 -3.2191 -0.1928
  147SAPE  H17S16154   3.410   4.696   4.886  0.3127 -0.1745 -0.5051
  147SAPE  C21816155   3.359   4.546   4.750 -0.3748 -0.1365  0.0662
  147SAPE  H18R16156   3.278   4.609   4.707  1.0603  0.0201 -2.6360
  147SAPE  H18S16157   3.326   4.440   4.737 -1.9967  0.4922 -1.4273
  147SAPE  C21916158   3.481   4.562   4.656  0.6769 -0.4641  0.6617
  147SAPE  H19R16159   3.569   4.508   4.699  0.1024 -0.1536  2.2945
  147SAPE  H19S16160   3.499   4.670   4.638 -0.8983  0.6874  4.8055
  147SAPE  C22016161   3.433   4.483   4.529 -0.3821 -0.1289 -0.4697
  147SAPE  H20R16162   3.326   4.505   4.511 -0.7718 -2.2609 -0.9654
  147SAPE  H20S16163   3.426   4.374   4.544 -0.2615 -0.5166 -2.7832
  147SAPE  H20T16164   3.505   4.507   4.447  3.5976  0.4199  2.8769
  147SAPE   C3316165   3.977   3.568   5.816 -0.0843  0.7061  0.0008
  147SAPE   H3X16166   3.949   3.461   5.824 -0.5224  0.8213  0.0346
  147SAPE   H3Y16167   4.069   3.584   5.876 -1.1042 -0.5900  2.0417
  147SAPE   C3416168   3.992   3.617   5.673  0.4165  0.1786 -0.5356
  147SAPE   H4X16169   4.027   3.722   5.679  4.5519 -0.9651 -1.3214
  147SAPE   H4Y16170   3.897   3.618   5.615  0.5233 -2.7721 -0.8947
  147SAPE   C3516171   4.105   3.544   5.597  0.0190 -0.6048  0.4994
  147SAPE   H5X16172   4.080   3.436   5.599 -0.9258 -0.4312 -0.8093
  147SAPE   H5Y16173   4.201   3.553   5.652  0.0128 -1.6654  0.6876
  147SAPE   C3616174   4.114   3.601   5.458  1.2339  0.3131  0.7156
  147SAPE   H6X16175   4.111   3.712   5.463 -3.3063  0.4085  0.1767
  147SAPE   H6Y16176   4.014   3.585   5.411  1.7843  0.2237 -0.4736
  147SAPE   C3716177   4.222   3.540   5.372  0.0685 -0.1001 -0.3693
  147SAPE   H7X16178   4.196   3.442   5.328 -0.9429 -0.5041  1.0870
  147SAPE   H7Y16179   4.308   3.523   5.441 -1.8514  0.7788  2.4154
  147SAPE   C3816180   4.274   3.622   5.253  0.3881  0.3612  0.5356
  147SAPE   H8X16181   4.340   3.554   5.195 -0.7404 -1.7308  1.6093
  147SAPE   H8Y16182   4.320   3.713   5.296 -0.8469  0.6042  1.3771
  147SAPE   C3916183   4.160   3.667   5.156  0.4494  0.4228  0.3108
  147SAPE   H9X16184   4.088   3.724   5.218 -1.0894 -1.2717  0.1449
  147SAPE   H9Y16185   4.103   3.578   5.124 -0.6630  0.6436  1.6038
  147SAPE  C31016186   4.212   3.732   5.032 -0.6127  0.0212 -0.0605
  147SAPE  H10X16187   4.300   3.670   5.002 -0.3733 -0.2136  1.0748
  147SAPE  H10Y16188   4.255   3.833   5.047 -1.7697  0.6329 -0.6712
  147SAPE  C31116189   4.100   3.740   4.927 -0.6719 -0.0731  0.2570
  147SAPE  H11X16190   4.008   3.782   4.973 -2.4004 -2.9688 -0.3188
  147SAPE  H11Y16191   4.055   3.643   4.897 -2.3775  1.2260 -1.7056
  147SAPE  C31216192   4.146   3.816   4.803 -0.5242 -0.0479 -0.2245
  147SAPE  H12X16193   4.249   3.783   4.778 -0.3346 -0.8551  1.5401
  147SAPE  H12Y16194   4.141   3.922   4.835  0.9448  0.2838 -0.9792
  147SAPE  C31316195   4.065   3.790   4.677  0.3668  0.3059  0.7427
  147SAPE  H13X16196   3.959   3.811   4.699  0.9431 -0.0606  4.4568
  147SAPE  H13Y16197   4.074   3.683   4.647 -0.1740  0.5286 -0.2374
  147SAPE  C31416198   4.097   3.867   4.549  0.1421 -0.1400  0.4360
  147SAPE  H14X16199   4.180   3.822   4.491 -0.6600  0.1698 -1.0093
  147SAPE  H14Y16200   4.139   3.968   4.570 -0.3783  0.1080  0.3145
  147SAPE  C31516201   3.977   3.900   4.455  0.1678  0.2499 -0.3715
  147SAPE  H15X16202   4.015   3.975   4.382  0.6249  0.5722  0.1914
  147SAPE  H15Y16203   3.894   3.944   4.513 -0.3649 -3.0959  1.6603
  147SAPE  C31616204   3.926   3.779   4.374 -0.0757 -0.1845  0.1831
  147SAPE  H16X16205   3.880   3.708   4.446  1.2049 -0.1725  1.0587
  147SAPE  H16Y16206   4.012   3.742   4.316 -1.5791 -2.3304 -0.7924
  147SAPE  C31716207   3.814   3.812   4.265 -0.0647 -0.3977 -0.1889
  147SAPE  H17X16208   3.750   3.890   4.313  0.2845 -0.9951  1.3087
  147SAPE  H17Y16209   3.753   3.720   4.252  2.0846 -1.5299 -3.7001
  147SAPE  C31816210   3.871   3.832   4.125 -0.2424  0.0162  0.2542
  147SAPE  H18X16211   3.963   3.894   4.130 -0.9408  1.0604  0.4494
  147SAPE  H18Y16212   3.803   3.886   4.056 -1.0261  0.3709  1.2692
  147SAPE  H18Z16213   3.909   3.739   4.077  2.0963  0.9599  0.1746
  148SAPE     N16214   6.003   4.689   7.108 -0.4601  0.1842  0.1885
  148SAPE   HN116215   5.913   4.739   7.095 -1.1294 -1.4309 -2.2128
  148SAPE   HN216216   6.019   4.649   7.013  0.4701 -1.5651  1.0466
  148SAPE   HN316217   5.981   4.616   7.179 -0.2285  0.4722  0.5587
  148SAPE   C1216218   6.118   4.779   7.137 -0.6010  0.3651 -0.1702
  148SAPE  H12A16219   6.215   4.729   7.118 -0.7467  0.4885 -1.3309
  148SAPE  H12B16220   6.104   4.823   7.239  0.3352  0.3154 -0.0159
  148SAPE   C1116221   6.114   4.903   7.050  0.1720 -0.0100 -0.1754
  148SAPE  H11A16222   6.012   4.945   7.038 -0.1094 -0.7489 -0.4273
  148SAPE  H11B16223   6.145   4.875   6.946  1.3826  0.9458 -0.1012
  148SAPE     P16224   6.352   5.022   7.079 -0.1434  0.2424 -0.1047
  148SAPE   O1316225   6.404   5.148   7.123 -0.5093  0.0288 -0.0454
  148SAPE   O1416226   6.423   4.899   7.128  0.2988  0.3575  0.3422
  148SAPE   O1216227   6.198   5.003   7.106 -0.3406 -0.4388  0.1497
  148SAPE   O1116228   6.350   5.023   6.918  0.2363 -0.6134 -0.6293
  148SAPE    C116229   6.436   4.941   6.842  0.0698  0.2468  0.3499
  148SAPE    HA16230   6.543   4.962   6.860  0.6009 -1.9984  0.0454
  148SAPE    HB16231   6.427   4.833   6.865  0.1053  0.3459  0.8418
  148SAPE    C216232   6.390   4.956   6.692  0.5363 -0.3068  0.3551
  148SAPE    HS16233   6.448   4.880   6.635  1.4614 -0.9788  2.1140
  148SAPE   O2116234   6.401   5.092   6.638  0.4586  0.3487  0.0541
  148SAPE   C2116235   6.527   5.124   6.628 -0.5903 -0.2099  0.2231
  148SAPE   O2216236   6.626   5.052   6.629 -0.4367 -0.8047 -0.5423
  148SAPE   C2216237   6.528   5.276   6.595 -0.0630 -0.1180  0.3694
  148SAPE   H2R16238   6.482   5.327   6.682 -2.1900 -1.2220 -0.0306
  148SAPE   H2S16239   6.633   5.301   6.569 -0.2201 -1.5899 -1.9955
  148SAPE    C316240   6.242   4.915   6.669  0.6572  0.5036 -0.1521
  148SAPE    HX16241   6.162   4.972   6.721 -0.2172 -1.1162  0.3505
  148SAPE    HY16242   6.240   4.814   6.715  1.1309  0.7853  0.5116
  148SAPE   O3116243   6.214   4.916   6.524  0.2184  0.0390  0.0278
  148SAPE   C3116244   6.151   5.024   6.471 -0.3893  0.0943  0.3186
  148SAPE   O3216245   6.106   5.116   6.536 -0.1528 -0.2346 -0.6916
  148SAPE   C3216246   6.155   5.030   6.320  0.1468 -0.5484 -0.3146
  148SAPE   H2X16247   6.077   4.960   6.284  0.4554 -0.6824 -0.7358
  148SAPE   H2Y16248   6.250   4.989   6.279 -0.3463 -1.8692 -0.1805
  148SAPE   C2316249   6.451   5.310   6.460  0.1432 -0.1699  0.0387
  148SAPE   H3R16250   6.447   5.421   6.455 -1.0102 -0.2309 -0.8802
  148SAPE   H3S16251   6.355   5.255   6.458  0.4786 -0.8014  0.8171
  148SAPE   C2416252   6.536   5.270   6.332  0.6255  0.6183 -0.2250
  148SAPE   H4R16253   6.639   5.313   6.337  0.2156  1.6879 -0.7096
  148SAPE   H4S16254   6.489   5.313   6.241  1.4895 -0.4297 -1.2049
  148SAPE   C2516255   6.529   5.115   6.314  0.1850 -0.6218 -0.6975
  148SAPE   H5R16256   6.431   5.072   6.338  0.5756 -1.0956  0.0986
  148SAPE   C2616257   6.637   5.040   6.287  0.1841 -0.3625 -0.1868
  148SAPE   H6R16258   6.618   4.934   6.266  0.8228 -0.8818  1.6391
  148SAPE   C2716259   6.783   5.091   6.265 -0.2962 -0.0024  0.3676
  148SAPE   H7R16260   6.832   5.110   6.363 -0.6091  2.2229  0.1344
  148SAPE   H7S16261   6.775   5.191   6.217 -1.9587  0.1729  0.9431
  148SAPE   C2816262   6.885   5.007   6.182  0.0948  0.0317 -0.3300
  148SAPE   H8R16263   6.959   4.949   6.239 -2.1386 -2.5590  0.1748
  148SAPE   C2916264   6.900   5.007   6.047 -0.5398  0.0057 -0.8062
  148SAPE   H9R16265   6.982   4.947   6.005 -0.8306 -3.0358  2.4357
  148SAPE  C21016266   6.819   5.088   5.951 -0.5702 -0.3061  0.1774
  148SAPE  H10R16267   6.876   5.089   5.856  1.1373  1.6705  1.1365
  148SAPE  H10S16268   6.812   5.197   5.973  0.3527  0.2584 -2.0573
  148SAPE  C21116269   6.679   5.031   5.934 -1.1413  0.3701 -0.1761
  148SAPE  H11R16270   6.605   5.048   6.014 -0.3640 -0.5381  0.7726
  148SAPE  C21216271   6.627   4.975   5.820  0.2026 -0.3955  0.8622
  148SAPE  H12R16272   6.519   4.954   5.815  0.7868 -3.8445  0.5732
  148SAPE  C21316273   6.698   4.961   5.689 -0.0219  0.5371 -0.0076
  148SAPE  H13R16274   6.684   4.860   5.645  0.1470  0.4625  0.1108
  148SAPE  H13S16275   6.808   4.972   5.701  0.5085 -0.4288 -3.0333
  148SAPE  C21416276   6.640   5.071   5.600  0.3809 -0.1224  0.2367
  148SAPE  H14R16277   6.673   5.169   5.637 -1.0955 -0.4980  2.8304
  148SAPE  C21516278   6.543   5.060   5.505 -0.0825  0.2643 -0.4682
  148SAPE  H15R16279   6.538   5.145   5.435  0.0658 -2.0330 -3.4604
  148SAPE  C21616280   6.469   4.941   5.452  0.3672  0.4686  0.0333
  148SAPE  H16R16281   6.359   4.955   5.452  0.1717 -0.8956  0.1036
  148SAPE  H16S16282   6.488   4.860   5.526 -2.1745 -0.5510 -0.3568
  148SAPE  C21716283   6.507   4.897   5.309 -1.0243  0.4928  0.0249
  148SAPE  H17R16284   6.505   4.985   5.241 -0.5442 -0.5690 -1.4104
  148SAPE  H17S16285   6.431   4.828   5.266 -1.5780  0.8179  0.4731
  148SAPE  C21816286   6.648   4.828   5.295 -0.1174 -0.3764  0.6102
  148SAPE  H18R16287   6.631   4.724   5.329 -0.0190 -1.6584 -2.8861
  148SAPE  H18S16288   6.734   4.856   5.360 -1.0678  1.4745  1.1710
  148SAPE  C21916289   6.694   4.837   5.154 -0.5382  0.2256  0.3307
  148SAPE  H19R16290   6.706   4.936   5.106  1.9404 -0.8870 -1.5617
  148SAPE  H19S16291   6.608   4.793   5.099 -0.1151  1.6486 -1.5495
  148SAPE  C22016292   6.809   4.752   5.122 -0.7267 -0.7074 -0.2482
  148SAPE  H20R16293   6.899   4.809   5.155 -2.7636  2.5754  0.1131
  148SAPE  H20S16294   6.820   4.745   5.012 -1.6366 -0.6944 -0.3482
  148SAPE  H20T16295   6.812   4.648   5.160  1.7854 -0.2539  1.0324
  148SAPE   C3316296   6.123   5.169   6.261 -0.0959  0.2013  0.0434
  148SAPE   H3X16297   6.210   5.237   6.269  0.0607  0.0011  0.0609
  148SAPE   H3Y16298   6.037   5.224   6.306 -0.6356 -1.1696  0.7445
  148SAPE   C3416299   6.096   5.160   6.115 -0.7758 -0.7260 -0.1983
  148SAPE   H4X16300   6.015   5.087   6.093 -1.4999 -0.3596  1.1653
  148SAPE   H4Y16301   6.186   5.123   6.060 -0.3198 -0.7606  0.5531
  148SAPE   C3516302   6.079   5.303   6.048  0.5951  0.3690 -0.5906
  148SAPE   H5X16303   6.182   5.343   6.036  1.4636 -2.3623 -3.4047
  148SAPE   H5Y16304   6.013   5.367   6.111  1.9901  1.3355 -0.0615
  148SAPE   C3616305   6.024   5.294   5.904 -0.1978 -0.2731  0.4404
  148SAPE   H6X16306   5.940   5.364   5.889 -1.2086 -0.9353  2.6273
  148SAPE   H6Y16307   5.994   5.189   5.887  1.3946 -0.7185  0.1765
  148SAPE   C3716308   6.139   5.304   5.806 -0.4273 -0.4849  1.0060
  148SAPE   H7X16309   6.218   5.226   5.815  1.9936  1.3458 -2.1413
  148SAPE   H7Y16310   6.171   5.410   5.804 -1.1872 -0.2209 -1.6738
  148SAPE   C3816311   6.092   5.264   5.663  0.3706  0.3514  0.1246
  148SAPE   H8X16312   5.996   5.318   5.647 -0.3146 -1.0338 -0.5530
  148SAPE   H8Y16313   6.068   5.156   5.668 -1.6093  0.6952 -0.8742
  148SAPE   C3916314   6.194   5.283   5.549  0.5139  0.6779  0.7118
  148SAPE   H9X16315   6.286   5.231   5.583 -0.0888 -1.8710 -1.2826
  148SAPE   H9Y16316   6.216   5.391   5.535  0.1598  0.7884  0.9865
  148SAPE  C31016317   6.143   5.213   5.424  0.3431 -0.2355  0.9582
  148SAPE  H10X16318   6.034   5.231   5.411  0.3327 -1.5961 -1.4096
  148SAPE  H10Y16319   6.169   5.107   5.447 -1.5671 -0.7450  0.9873
  148SAPE  C31116320   6.208   5.264   5.295 -0.0440 -0.3051  1.0668
  148SAPE  H11X16321   6.314   5.234   5.281 -0.1052  0.1837 -0.7031
  148SAPE  H11Y16322   6.205   5.375   5.298 -0.1089 -0.2802  0.4163
  148SAPE  C31216323   6.130   5.236   5.167 -0.2165 -0.6818  0.8127
  148SAPE  H12X16324   6.034   5.291   5.174  0.5761  0.7323  0.8587
  148SAPE  H12Y16325   6.102   5.130   5.148  0.7517 -0.7276 -0.4354
  148SAPE  C31316326   6.206   5.275   5.032  0.0666  0.3040  0.0249
  148SAPE  H13X16327   6.256   5.374   5.044  3.3149 -1.2042 -0.2167
  148SAPE  H13Y16328   6.137   5.282   4.946  0.2358 -0.8073 -0.2038
  148SAPE  C31416329   6.324   5.188   4.987  0.2215  0.2161  0.0720
  148SAPE  H14X16330   6.288   5.088   4.955  1.3613 -0.0074 -0.5704
  148SAPE  H14Y16331   6.400   5.177   5.068  0.8916  1.2291 -0.3934
  148SAPE  C31516332   6.400   5.240   4.859 -0.5180  0.3572  0.7245
  148SAPE  H15X16333   6.438   5.344   4.873 -2.5787  0.9382  2.5494
  148SAPE  H15Y16334   6.322   5.258   4.782 -1.9559 -0.3616  1.9588
  148SAPE  C31616335   6.508   5.144   4.804 -0.1615  0.8665 -0.6476
  148SAPE  H16X16336   6.602   5.143   4.862  0.0226 -2.9308 -0.7646
  148SAPE  H16Y16337   6.545   5.170   4.703  0.9883 -0.7876 -0.6901
  148SAPE  C31716338   6.478   4.994   4.772  0.0068 -0.6811 -0.6992
  148SAPE  H17X16339   6.391   4.987   4.704 -0.2343 -4.2895 -0.1729
  148SAPE  H17Y16340   6.448   4.948   4.868 -1.6499 -0.9231 -1.3021
  148SAPE  C31816341   6.594   4.916   4.707  0.6446  0.1944  0.3149
  148SAPE  H18X16342   6.590   4.944   4.600 -1.1304  0.1274  0.3336
  148SAPE  H18Y16343   6.585   4.805   4.715  4.4024 -0.1436  1.7057
  148SAPE  H18Z16344   6.699   4.939   4.734  1.0765  0.2890 -1.3438
  149SAPE     N16345   1.345   2.772   6.626  0.0201  0.2693  0.1677
  149SAPE   HN116346   1.321   2.733   6.719  0.4791 -2.6533 -0.8245
  149SAPE   HN216347   1.447   2.758   6.609  0.0181  0.9710 -0.4954
  149SAPE   HN316348   1.326   2.874   6.615  1.1764  0.2457 -3.0701
  149SAPE   C1216349   1.266   2.698   6.516  0.2367  0.1051  0.2087
  149SAPE  H12A16350   1.171   2.754   6.505  0.4310  0.2762 -0.6795
  149SAPE  H12B16351   1.236   2.596   6.548  2.1079 -0.8908 -1.0555
  149SAPE   C1116352   1.322   2.689   6.372 -0.5190 -0.1190  0.1886
  149SAPE  H11A16353   1.245   2.659   6.298  0.2042  1.1166 -1.1104
  149SAPE  H11B16354   1.404   2.614   6.368  0.2163  0.5693  1.5558
  149SAPE     P16355   1.347   2.900   6.211  0.5142 -0.3256  0.1163
  149SAPE   O1316356   1.240   2.985   6.269 -0.2643 -0.4175 -0.6999
  149SAPE   O1416357   1.464   2.973   6.167  0.4830  0.4940 -0.6971
  149SAPE   O1216358   1.396   2.808   6.328  0.3087 -0.0526  0.9182
  149SAPE   O1116359   1.299   2.800   6.106  0.0051  0.1877 -0.2479
  149SAPE    C116360   1.199   2.826   6.010  0.5436 -0.0748  0.3697
  149SAPE    HA16361   1.178   2.934   5.993  1.4520  0.1205  0.4124
  149SAPE    HB16362   1.221   2.785   5.909 -0.3676 -0.5191  0.3418
  149SAPE    C216363   1.069   2.749   6.054  0.3448  0.3865 -0.5524
  149SAPE    HS16364   1.047   2.762   6.162 -1.0321 -1.3997 -0.5716
  149SAPE   O2116365   1.092   2.617   6.011 -0.1282  1.3470  0.4051
  149SAPE   C2116366   1.018   2.514   6.061  0.1111 -0.3865 -0.4476
  149SAPE   O2216367   0.921   2.536   6.134  0.2801  0.6564  0.0798
  149SAPE   C2216368   1.077   2.372   6.024  0.6373 -0.3485 -0.0493
  149SAPE   H2R16369   1.115   2.384   5.920  0.6734  1.0553  0.1142
  149SAPE   H2S16370   1.159   2.361   6.098  1.6071 -0.6883 -1.1342
  149SAPE    C316371   0.943   2.797   5.973 -0.0083 -0.1855  0.4229
  149SAPE    HX16372   0.908   2.889   6.024 -0.8961 -0.3001  0.0383
  149SAPE    HY16373   0.851   2.736   5.981  0.4504 -1.0355 -0.4643
  149SAPE   O3116374   0.979   2.839   5.840 -0.0159  0.5283 -0.6269
  149SAPE   C3116375   0.939   2.749   5.751 -0.7854 -0.0973 -0.1071
  149SAPE   O3216376   0.893   2.637   5.773 -0.6138  0.4801 -0.0493
  149SAPE   C3216377   0.978   2.803   5.616  0.1026 -0.0639 -0.2585
  149SAPE   H2X16378   1.077   2.852   5.623 -0.1454  0.3069  0.7449
  149SAPE   H2Y16379   0.901   2.875   5.581 -1.0230 -1.4577 -0.7631
  149SAPE   C2316380   0.971   2.262   6.046 -0.3015 -0.0858  0.3269
  149SAPE   H3R16381   0.891   2.265   5.969 -1.5160  1.3122  1.5785
  149SAPE   H3S16382   0.915   2.268   6.142  0.6130 -1.6742  0.9977
  149SAPE   C2416383   1.027   2.116   6.037  0.2882 -0.1785 -0.8256
  149SAPE   H4R16384   1.104   2.100   6.115 -1.5265 -2.9485  0.5289
  149SAPE   H4S16385   1.097   2.117   5.950  1.6321  1.1618  0.2089
  149SAPE   C2516386   0.919   2.007   6.048  0.7415  0.0803  0.9233
  149SAPE   H5R16387   0.821   2.036   6.090 -0.6455 -0.8942 -1.4241
  149SAPE   C2616388   0.914   1.885   6.000  0.4345  0.2944 -0.3095
  149SAPE   H6R16389   0.820   1.828   6.007 -0.0765  1.1687  0.0698
  149SAPE   C2716390   1.029   1.825   5.928 -0.7154  0.0824 -1.0980
  149SAPE   H7R16391   1.037   1.721   5.967  0.2153 -0.2814 -2.2087
  149SAPE   H7S16392   1.127   1.872   5.952 -0.4021 -1.6321  1.4206
  149SAPE   C2816393   1.024   1.832   5.778  1.8912  0.3935  0.3385
  149SAPE   H8R16394   0.933   1.884   5.744  1.0078 -1.4316 -0.2568
  149SAPE   C2916395   1.104   1.779   5.685 -0.1849 -0.2485  0.1605
  149SAPE   H9R16396   1.082   1.791   5.578 -1.1980 -0.3611  0.3535
  149SAPE  C21016397   1.234   1.712   5.722 -0.3775  0.2104 -0.5191
  149SAPE  H10R16398   1.205   1.605   5.724  0.4643 -0.0257 -0.8046
  149SAPE  H10S16399   1.273   1.741   5.822  0.6995 -0.4273 -0.7385
  149SAPE  C21116400   1.346   1.736   5.628  0.1935  0.2265 -0.0824
  149SAPE  H11R16401   1.403   1.829   5.644 -0.3080  0.6101 -0.4779
  149SAPE  C21216402   1.372   1.668   5.520  0.2438  0.2887  0.5633
  149SAPE  H12R16403   1.467   1.695   5.473 -0.2544  2.1327  0.5377
  149SAPE  C21316404   1.299   1.546   5.471  0.2654  0.2841 -0.5436
  149SAPE  H13R16405   1.190   1.563   5.459 -0.1258 -2.1652 -0.9772
  149SAPE  H13S16406   1.302   1.470   5.553  2.3487  1.1632  0.2705
  149SAPE  C21416407   1.340   1.482   5.341 -0.0935  0.0312  0.0276
  149SAPE  H14R16408   1.364   1.375   5.355 -0.5546 -0.2860 -1.4124
  149SAPE  C21516409   1.333   1.528   5.209  0.2525  0.5843 -0.4243
  149SAPE  H15R16410   1.359   1.462   5.125  1.0256  0.5324 -0.1535
  149SAPE  C21616411   1.296   1.671   5.172 -0.0626 -0.2800 -0.1866
  149SAPE  H16R16412   1.307   1.748   5.251 -0.6765  1.4512 -1.7222
  149SAPE  H16S16413   1.188   1.671   5.143 -0.1997  2.3385  0.1012
  149SAPE  C21716414   1.375   1.715   5.051  0.0020  0.0527 -0.4211
  149SAPE  H17R16415   1.353   1.637   4.975 -0.7818 -0.1449 -0.0033
  149SAPE  H17S16416   1.483   1.718   5.074  0.4092  1.6473 -2.2486
  149SAPE  C21816417   1.336   1.857   5.002 -0.4246  0.3727 -0.1792
  149SAPE  H18R16418   1.355   1.928   5.085  2.8902 -1.0553  0.4401
  149SAPE  H18S16419   1.228   1.867   4.976 -0.4070 -0.1264 -0.4568
  149SAPE  C21916420   1.422   1.914   4.888  0.4798  0.2282  0.0089
  149SAPE  H19R16421   1.409   1.842   4.805  0.3487 -0.9288  0.9999
  149SAPE  H19S16422   1.530   1.916   4.917  0.0472  0.2649  1.7502
  149SAPE  C22016423   1.379   2.049   4.842  0.3810 -0.0481 -0.2908
  149SAPE  H20R16424   1.442   2.085   4.758 -0.7919 -1.7555 -1.9769
  149SAPE  H20S16425   1.345   2.117   4.923 -0.5048  0.3007 -0.9372
  149SAPE  H20T16426   1.286   2.028   4.785  0.6449 -1.5103 -0.2249
  149SAPE   C3316427   0.990   2.695   5.496  0.5873 -0.8811  0.5090
  149SAPE   H3X16428   0.900   2.629   5.503  0.9155 -1.5271 -0.8710
  149SAPE   H3Y16429   1.071   2.620   5.513  1.3368 -0.7387 -2.0239
  149SAPE   C3416430   0.984   2.757   5.355 -0.1267  0.2495  0.1476
  149SAPE   H4X16431   1.070   2.820   5.322 -0.7956  0.0334 -2.1975
  149SAPE   H4Y16432   0.895   2.822   5.345 -2.4276 -2.6561  0.4963
  149SAPE   C3516433   0.951   2.650   5.247 -0.3302 -0.0729 -0.0430
  149SAPE   H5X16434   0.846   2.617   5.262 -0.2028 -1.1305 -1.3001
  149SAPE   H5Y16435   1.014   2.562   5.274 -1.6375 -0.8359  0.6264
  149SAPE   C3616436   0.975   2.687   5.104 -0.2294 -0.4018 -0.1135
  149SAPE   H6X16437   0.978   2.597   5.040  3.7141 -0.1690 -0.5112
  149SAPE   H6Y16438   1.079   2.726   5.112 -0.1082 -0.9428  1.1294
  149SAPE   C3716439   0.884   2.799   5.042 -0.6124 -0.6036 -0.0342
  149SAPE   H7X16440   0.932   2.897   5.021  0.9481 -1.5760 -1.1977
  149SAPE   H7Y16441   0.808   2.817   5.121 -2.4463  1.8767 -2.1779
  149SAPE   C3816442   0.818   2.759   4.913 -0.0365 -0.0034  0.3016
  149SAPE   H8X16443   0.746   2.840   4.887 -0.5312  0.0680  1.7943
  149SAPE   H8Y16444   0.761   2.665   4.930 -0.8684  0.5690  0.7714
  149SAPE   C3916445   0.913   2.749   4.797  0.2814  0.2508  0.3998
  149SAPE   H9X16446   0.994   2.677   4.820 -0.6325 -1.0110 -0.1955
  149SAPE   H9Y16447   0.956   2.852   4.795 -2.4575  1.4948 -2.0815
  149SAPE  C31016448   0.853   2.725   4.660 -0.6174  0.3196  0.7240
  149SAPE  H10X16449   0.750   2.766   4.657 -0.8236 -0.2791 -0.6953
  149SAPE  H10Y16450   0.850   2.616   4.640 -0.2495  0.3308  0.5946
  149SAPE  C31116451   0.931   2.801   4.553  0.2603  0.0358  0.0881
  149SAPE  H11X16452   0.971   2.895   4.597 -0.6875 -0.3971  1.9738
  149SAPE  H11Y16453   0.879   2.813   4.456  0.8834 -1.2055 -0.4253
  149SAPE  C31216454   1.055   2.720   4.519  1.0565 -0.7119  1.1327
  149SAPE  H12X16455   1.102   2.701   4.618  1.4706 -0.7203  0.9353
  149SAPE  H12Y16456   1.118   2.786   4.457 -0.4302 -0.5088 -0.2178
  149SAPE  C31316457   1.038   2.598   4.426 -0.5431 -0.0032 -0.2890
  149SAPE  H13X16458   0.983   2.604   4.330  0.2091 -1.6130 -0.8691
  149SAPE  H13Y16459   0.987   2.516   4.480 -0.0826  0.1174  0.3445
  149SAPE  C31416460   1.178   2.534   4.401 -0.1684 -0.2837  0.0291
  149SAPE  H14X16461   1.251   2.605   4.354  0.3040 -1.7273 -1.5174
  149SAPE  H14Y16462   1.169   2.449   4.330 -1.3170  0.9027 -1.3157
  149SAPE  C31516463   1.254   2.470   4.520 -0.1431 -0.7556  0.3965
  149SAPE  H15X16464   1.197   2.383   4.558 -0.6711 -0.5082  0.1702
  149SAPE  H15Y16465   1.279   2.541   4.601  1.1671 -1.1056  0.3371
  149SAPE  C31616466   1.395   2.422   4.478 -0.1719 -0.3801 -0.5973
  149SAPE  H16X16467   1.453   2.507   4.437 -0.3165 -0.9497 -2.0795
  149SAPE  H16Y16468   1.378   2.353   4.392  0.4490  0.1766 -1.1742
  149SAPE  C31716469   1.466   2.351   4.595 -0.4904  0.5328  0.7372
  149SAPE  H17X16470   1.409   2.269   4.642  1.9581 -1.1225  1.0291
  149SAPE  H17Y16471   1.496   2.424   4.673  1.2054  0.6517  0.0330
  149SAPE  C31816472   1.604   2.286   4.558  0.0313 -0.0322 -0.6179
  149SAPE  H18X16473   1.670   2.357   4.503 -0.1252  2.1560  1.7776
  149SAPE  H18Y16474   1.597   2.196   4.493 -1.2493  0.9035 -1.8344
  149SAPE  H18Z16475   1.657   2.252   4.649  1.8025 -2.0831 -2.3100
  150SAPE     N16476   3.921   0.764   7.161  0.2592 -0.2029 -0.5781
  150SAPE   HN116477   3.906   0.789   7.261 -2.2804 -1.0579 -0.6795
  150SAPE   HN216478   3.831   0.752   7.112 -0.0124 -0.8023  0.0389
  150SAPE   HN316479   3.964   0.669   7.165 -0.5754 -0.5492  1.3409
  150SAPE   C1216480   3.990   0.871   7.090 -0.4246  0.6644 -0.6955
  150SAPE  H12A16481   4.090   0.882   7.138 -2.3463  1.2157  3.5693
  150SAPE  H12B16482   3.920   0.956   7.100 -2.4452 -1.0582  0.8971
  150SAPE   C1116483   4.013   0.847   6.939 -0.1856 -0.2157  0.0861
  150SAPE  H11A16484   4.068   0.752   6.924 -1.5996 -1.2064  0.9293
  150SAPE  H11B16485   4.079   0.929   6.904 -0.0092 -0.0721  0.7478
  150SAPE     P16486   3.821   0.958   6.798 -0.3390  0.2189  0.0847
  150SAPE   O1316487   3.706   0.906   6.721 -0.3438 -0.7825 -0.2172
  150SAPE   O1416488   3.799   1.077   6.886 -0.6652 -0.1533 -0.0881
  150SAPE   O1216489   3.888   0.840   6.871  0.4316  0.3913 -0.6158
  150SAPE   O1116490   3.932   1.006   6.698 -0.5012 -0.0756 -0.1232
  150SAPE    C116491   3.979   0.918   6.595 -0.2137  0.7705  0.1858
  150SAPE    HA16492   4.029   0.827   6.635 -1.0090  0.2169 -0.0574
  150SAPE    HB16493   3.895   0.872   6.538 -0.8345 -1.7124  2.8698
  150SAPE    C216494   4.091   0.976   6.504 -0.1336  0.6934  0.1473
  150SAPE    HS16495   4.139   0.898   6.441  1.3968  0.9353  0.9640
  150SAPE   O2116496   4.198   1.037   6.582  0.4730 -0.2080  0.0573
  150SAPE   C2116497   4.294   0.956   6.635 -0.3351 -0.3487 -0.7838
  150SAPE   O2216498   4.288   0.834   6.629 -0.6390 -0.0306  0.4243
  150SAPE   C2216499   4.410   1.040   6.689  0.5243  0.1108  0.5982
  150SAPE   H2R16500   4.417   1.133   6.628  0.2277 -1.9779 -2.8958
  150SAPE   H2S16501   4.388   1.077   6.791 -2.3334  0.8738 -0.1788
  150SAPE    C316502   4.037   1.087   6.407 -0.3941  0.2330 -0.3140
  150SAPE    HX16503   4.128   1.121   6.351 -0.6903  1.1456 -0.2597
  150SAPE    HY16504   3.997   1.170   6.469 -0.9145 -0.4898  0.3305
  150SAPE   O3116505   3.929   1.025   6.339 -0.2447 -0.1213  0.8668
  150SAPE   C3116506   3.945   1.003   6.207 -0.3080 -0.0491 -0.3757
  150SAPE   O3216507   4.041   1.041   6.142  0.5542 -0.0403  0.2326
  150SAPE   C3216508   3.819   0.924   6.157 -0.1700  0.1516 -0.5363
  150SAPE   H2X16509   3.746   0.990   6.106 -0.5828  0.6574  0.6606
  150SAPE   H2Y16510   3.757   0.899   6.246  1.1239 -0.7979  0.1322
  150SAPE   C2316511   4.545   0.962   6.694  0.0046 -0.3163  0.4023
  150SAPE   H3R16512   4.537   0.861   6.739  0.8738  0.0486  1.4137
  150SAPE   H3S16513   4.620   1.026   6.744  0.0058  0.7915 -0.9618
  150SAPE   C2416514   4.608   0.933   6.555  0.1319 -0.0380 -0.5137
  150SAPE   H4R16515   4.565   0.837   6.520 -4.7582  2.0281 -1.0244
  150SAPE   H4S16516   4.717   0.923   6.574  0.4284 -0.8224 -2.3468
  150SAPE   C2516517   4.589   1.039   6.447  0.4873  0.1446  0.0890
  150SAPE   H5R16518   4.623   1.140   6.475  0.6054 -0.2401  1.4250
  150SAPE   C2616519   4.537   1.016   6.327  0.0571 -0.3898  0.5790
  150SAPE   H6R16520   4.524   1.107   6.266  0.7330 -0.4880  0.2848
  150SAPE   C2716521   4.487   0.881   6.270  0.1689  1.1573  0.2340
  150SAPE   H7R16522   4.476   0.800   6.345  0.8761  1.3645  0.5621
  150SAPE   H7S16523   4.549   0.851   6.183  0.1592  1.2805  0.1840
  150SAPE   C2816524   4.354   0.898   6.209 -0.2976  0.0293 -0.2527
  150SAPE   H8R16525   4.281   0.957   6.267  0.2529 -1.5996  2.2527
  150SAPE   C2916526   4.299   0.825   6.115 -0.3633  0.6654 -0.3551
  150SAPE   H9R16527   4.194   0.841   6.086 -0.4079 -2.1407 -2.0847
  150SAPE  C21016528   4.366   0.710   6.031  0.5793  0.3218  0.1494
  150SAPE  H10R16529   4.285   0.665   5.971  0.2784  1.0326  0.0116
  150SAPE  H10S16530   4.399   0.632   6.104  0.0443  0.8507  0.9698
  150SAPE  C21116531   4.487   0.750   5.946 -0.2479 -0.0048  0.1272
  150SAPE  H11R16532   4.578   0.783   5.998  1.3836 -2.4225 -1.0210
  150SAPE  C21216533   4.512   0.706   5.827  0.4529  0.2075  0.6535
  150SAPE  H12R16534   4.600   0.739   5.771 -1.2520  1.0298 -1.7265
  150SAPE  C21316535   4.417   0.624   5.737  0.2024 -0.2440  0.2638
  150SAPE  H13R16536   4.311   0.642   5.766  0.7529 -0.1095  2.3660
  150SAPE  H13S16537   4.425   0.514   5.735 -0.7765 -0.3218 -1.3138
  150SAPE  C21416538   4.434   0.681   5.601 -0.0470  0.1187 -0.3273
  150SAPE  H14R16539   4.414   0.788   5.589 -1.5816  0.0262  1.1047
  150SAPE  C21516540   4.467   0.611   5.493 -0.0645  0.7891  0.6073
  150SAPE  H15R16541   4.483   0.668   5.400 -0.5450 -0.4214 -0.2435
  150SAPE  C21616542   4.499   0.462   5.477 -0.1265  0.1816 -0.2353
  150SAPE  H16R16543   4.477   0.409   5.572  1.2003  1.0094  0.5703
  150SAPE  H16S16544   4.610   0.453   5.467 -0.1838 -2.9482  0.7884
  150SAPE  C21716545   4.457   0.377   5.358  0.3450  0.0891 -0.0172
  150SAPE  H17R16546   4.347   0.366   5.358  0.3650 -1.4281  3.6223
  150SAPE  H17S16547   4.482   0.269   5.360 -2.6334 -0.7261 -1.3766
  150SAPE  C21816548   4.520   0.426   5.225 -0.3211  0.0883 -0.0716
  150SAPE  H18R16549   4.631   0.432   5.234 -0.0569 -3.3065 -0.0454
  150SAPE  H18S16550   4.485   0.529   5.202  0.8849  0.8670  1.3869
  150SAPE  C21916551   4.502   0.337   5.102  0.1765  0.1502  0.4477
  150SAPE  H19R16552   4.558   0.243   5.121  0.2653 -0.1661 -1.2197
  150SAPE  H19S16553   4.554   0.383   5.015  0.3478 -0.2782  0.3222
  150SAPE  C22016554   4.358   0.293   5.074  0.4878 -0.4726  0.3183
  150SAPE  H20R16555   4.305   0.240   5.155  1.2967  0.0521  1.2152
  150SAPE  H20S16556   4.353   0.234   4.980  2.0940  2.1435 -1.5597
  150SAPE  H20T16557   4.298   0.385   5.054 -0.4345 -0.8016  1.4455
  150SAPE   C3316558   3.851   0.807   6.054  0.3004 -0.4340 -0.1768
  150SAPE   H3X16559   3.748   0.774   6.029 -0.9915 -0.0839  3.9611
  150SAPE   H3Y16560   3.903   0.719   6.096  0.7213 -0.2496 -0.3045
  150SAPE   C3416561   3.914   0.851   5.924 -0.2036  0.2398 -0.0906
  150SAPE   H4X16562   4.012   0.902   5.939 -0.6683  0.7300  1.4975
  150SAPE   H4Y16563   3.851   0.922   5.867 -0.3027 -0.7355 -1.2225
  150SAPE   C3516564   3.951   0.725   5.827 -0.5305  0.2103 -0.6548
  150SAPE   H5X16565   3.859   0.664   5.818 -0.2731 -0.2307 -0.3251
  150SAPE   H5Y16566   4.039   0.667   5.862  0.2043  0.9300 -1.2498
  150SAPE   C3616567   3.969   0.787   5.684 -0.2473  0.4163 -0.0179
  150SAPE   H6X16568   4.049   0.864   5.689  2.0637 -1.8656  0.1763
  150SAPE   H6Y16569   3.870   0.829   5.657  0.4874  2.4148  0.1710
  150SAPE   C3716570   4.008   0.681   5.576  0.4461  0.1047 -0.5809
  150SAPE   H7X16571   3.921   0.615   5.560 -0.7790  1.1146  1.5086
  150SAPE   H7Y16572   4.090   0.626   5.626 -0.4173 -0.7538 -0.0935
  150SAPE   C3816573   4.060   0.757   5.453 -0.0199 -0.3291 -0.1873
  150SAPE   H8X16574   4.142   0.826   5.481  0.0284  0.8111 -2.8098
  150SAPE   H8Y16575   3.982   0.824   5.410  0.3034 -0.6172 -1.2667
  150SAPE   C3916576   4.105   0.661   5.341 -0.7313 -0.5159 -0.3684
  150SAPE   H9X16577   4.019   0.598   5.309  0.0806 -1.7155 -0.2562
  150SAPE   H9Y16578   4.184   0.594   5.382  0.0687  0.9462  0.5683
  150SAPE  C31016579   4.186   0.734   5.234  0.4335  0.2109 -0.0572
  150SAPE  H10X16580   4.244   0.658   5.177  1.7776 -0.9182  2.6613
  150SAPE  H10Y16581   4.272   0.781   5.286  0.6127 -0.1569 -0.0189
  150SAPE  C31116582   4.109   0.830   5.142 -0.1815 -0.5859  0.0545
  150SAPE  H11X16583   4.183   0.881   5.077 -0.7716 -0.6111 -0.6558
  150SAPE  H11Y16584   4.056   0.901   5.209  0.9825 -1.7122  2.2753
  150SAPE  C31216585   4.009   0.744   5.067  0.0217 -0.2278  0.0016
  150SAPE  H12X16586   3.929   0.710   5.136  0.2886  0.1084  0.4789
  150SAPE  H12Y16587   4.056   0.658   5.015  0.3710  0.3988 -0.7332
  150SAPE  C31316588   3.918   0.811   4.952 -0.0271  0.3443 -0.3189
  150SAPE  H13X16589   3.992   0.865   4.889  0.4672 -1.5167 -1.4160
  150SAPE  H13Y16590   3.853   0.884   5.005  1.3311 -0.0295  2.0428
  150SAPE  C31416591   3.845   0.701   4.875  0.0854  0.0110  0.0502
  150SAPE  H14X16592   3.789   0.639   4.947 -0.1159 -0.7239 -0.7148
  150SAPE  H14Y16593   3.910   0.636   4.812 -1.7872 -0.5052 -1.4232
  150SAPE  C31516594   3.757   0.762   4.775  0.0594  0.0720 -0.7528
  150SAPE  H15X16595   3.815   0.823   4.702 -0.6554  1.0811 -0.5138
  150SAPE  H15Y16596   3.691   0.829   4.834  1.3622 -0.3709  1.2726
  150SAPE  C31616597   3.670   0.658   4.700  0.4741  0.5694  0.1047
  150SAPE  H16X16598   3.614   0.597   4.774  0.3248  1.7051  0.9645
  150SAPE  H16Y16599   3.740   0.591   4.644  0.4899  1.5111 -1.0483
  150SAPE  C31716600   3.580   0.718   4.596  0.1172 -0.2008  0.8745
  150SAPE  H17X16601   3.647   0.777   4.529 -1.0201 -0.0655 -0.1721
  150SAPE  H17Y16602   3.515   0.784   4.656 -0.1181  0.6328 -0.2645
  150SAPE  C31816603   3.503   0.634   4.494  0.0978  0.8976  0.1157
  150SAPE  H18X16604   3.421   0.579   4.545  1.2978  0.1766  1.3186
  150SAPE  H18Y16605   3.570   0.557   4.449  1.5306  0.8585  2.2007
  150SAPE  H18Z16606   3.457   0.707   4.425 -0.1436  1.1190  0.5113
  151SAPE     N16607   2.310   0.772   6.474 -0.0182 -0.2995  0.5016
  151SAPE   HN116608   2.372   0.715   6.414 -1.7638  0.0707 -1.7687
  151SAPE   HN216609   2.331   0.873   6.463 -0.9642  0.0789  1.8252
  151SAPE   HN316610   2.328   0.756   6.576  1.3634 -0.8196  0.1895
  151SAPE   C1216611   2.176   0.753   6.417  0.0424 -0.3061  0.9101
  151SAPE  H12A16612   2.177   0.810   6.321  1.5180  0.1614  1.1744
  151SAPE  H12B16613   2.097   0.801   6.478  0.0772  0.7905  0.1171
  151SAPE   C1116614   2.160   0.601   6.400  0.4616  0.2657 -0.6928
  151SAPE  H11A16615   2.245   0.553   6.348  1.2710 -1.9756  2.3442
  151SAPE  H11B16616   2.068   0.585   6.341 -0.2213  0.1944  0.3489
  151SAPE     P16617   2.194   0.402   6.560 -0.5551  0.6848 -0.0668
  151SAPE   O1316618   2.345   0.405   6.548 -0.0941  0.2290  0.4179
  151SAPE   O1416619   2.141   0.359   6.685  0.4645  0.0917  0.3618
  151SAPE   O1216620   2.142   0.543   6.529 -0.4817  0.8926 -0.3723
  151SAPE   O1116621   2.131   0.313   6.452  0.0699 -0.4790 -0.1408
  151SAPE    C116622   1.998   0.249   6.450 -0.6661  0.7249  0.8805
  151SAPE    HA16623   2.008   0.163   6.519  2.9766 -0.4779 -0.8559
  151SAPE    HB16624   1.915   0.316   6.482 -2.0897 -0.6874  0.2460
  151SAPE    C216625   1.961   0.197   6.316 -0.3376  0.2772  0.0122
  151SAPE    HS16626   2.002   0.096   6.291  0.9607  1.0165 -1.0013
  151SAPE   O2116627   1.986   0.290   6.210 -0.1066 -0.0715  0.6615
  151SAPE   C2116628   2.100   0.291   6.151  0.1064 -0.0858 -0.0614
  151SAPE   O2216629   2.197   0.213   6.172 -0.0246  0.5164 -0.1151
  151SAPE   C2216630   2.092   0.400   6.038 -0.6653 -0.2538  0.0388
  151SAPE   H2R16631   2.008   0.396   5.965 -2.1824 -2.8862  1.7585
  151SAPE   H2S16632   2.099   0.500   6.084 -0.8008  0.1908 -0.8901
  151SAPE    C316633   1.807   0.162   6.325  1.1977  0.4742 -0.3367
  151SAPE    HX16634   1.749   0.248   6.363  1.7388  2.1110 -2.9934
  151SAPE    HY16635   1.789   0.088   6.406  1.8269  0.4199 -0.2464
  151SAPE   O3116636   1.765   0.106   6.197  0.1662  0.3744 -0.1245
  151SAPE   C3116637   1.644   0.117   6.169 -0.4389  0.8137  0.1446
  151SAPE   O3216638   1.552   0.157   6.239  0.3521 -0.1044 -0.2367
  151SAPE   C3216639   1.629   0.076   6.019  0.2816 -0.5775 -0.3275
  151SAPE   H2X16640   1.521   0.067   5.994 -0.0689  3.2880 -0.8314
  151SAPE   H2Y16641   1.681  -0.022   6.012  4.0752  1.1631  0.8169
  151SAPE   C2316642   2.227   0.393   5.962  0.0421 -0.7757  0.4463
  151SAPE   H3R16643   2.240   0.298   5.906  2.0455 -0.5419  0.4235
  151SAPE   H3S16644   2.306   0.422   6.035 -1.4816  0.8403  1.5106
  151SAPE   C2416645   2.244   0.497   5.852 -0.7401 -0.1175 -0.1761
  151SAPE   H4R16646   2.151   0.519   5.797 -0.6642  1.1670  0.1847
  151SAPE   H4S16647   2.322   0.459   5.782 -0.5595  0.3940 -0.2615
  151SAPE   C2516648   2.289   0.628   5.903  0.3742  0.8248  0.4068
  151SAPE   H5R16649   2.205   0.693   5.931 -1.9629 -1.5285 -0.7647
  151SAPE   C2616650   2.413   0.670   5.911 -0.8555  0.5293  0.1172
  151SAPE   H6R16651   2.431   0.765   5.963 -0.8121 -0.4125  1.8888
  151SAPE   C2716652   2.535   0.586   5.879 -0.4538 -0.1938  0.1167
  151SAPE   H7R16653   2.540   0.564   5.770 -0.9164 -1.0712  0.2584
  151SAPE   H7S16654   2.528   0.483   5.921 -0.0182 -1.6029 -3.0205
  151SAPE   C2816655   2.666   0.645   5.930 -0.1934  0.7407  0.1909
  151SAPE   H8R16656   2.699   0.606   6.027  0.1225  0.8708  0.1366
  151SAPE   C2916657   2.747   0.731   5.869 -0.2868  0.7121 -0.9612
  151SAPE   H9R16658   2.832   0.766   5.930 -1.6193  0.8866  0.9110
  151SAPE  C21016659   2.723   0.794   5.735 -0.1486  0.8121 -0.4553
  151SAPE  H10R16660   2.655   0.724   5.683  2.9255 -1.6268 -1.4560
  151SAPE  H10S16661   2.814   0.783   5.673  1.1147  2.1117  1.0667
  151SAPE  C21116662   2.662   0.932   5.741  0.0714 -1.1942  0.5964
  151SAPE  H11R16663   2.595   0.948   5.828 -0.6610 -2.0514  0.2085
  151SAPE  C21216664   2.693   1.031   5.663 -0.1404 -0.0347  0.1593
  151SAPE  H12R16665   2.645   1.130   5.668  0.6204  0.3702 -0.3333
  151SAPE  C21316666   2.788   1.019   5.544  0.5276 -0.1908  0.0410
  151SAPE  H13R16667   2.745   0.934   5.487 -1.2860 -2.2640  4.0729
  151SAPE  H13S16668   2.888   0.980   5.572  2.0321  2.3489 -1.3266
  151SAPE  C21416669   2.804   1.147   5.461  0.1390 -0.1391 -0.2823
  151SAPE  H14R16670   2.871   1.221   5.507 -1.4236  0.1470  1.6699
  151SAPE  C21516671   2.733   1.178   5.348 -0.1150 -0.8177 -0.5711
  151SAPE  H15R16672   2.749   1.271   5.292 -0.9112 -1.6295 -2.2323
  151SAPE  C21616673   2.615   1.095   5.305  0.1499 -0.1962  0.0516
  151SAPE  H16R16674   2.561   1.068   5.397 -0.2214 -0.8689 -0.3617
  151SAPE  H16S16675   2.638   0.997   5.259  1.2005  0.0244  0.0796
  151SAPE  C21716676   2.522   1.181   5.224 -0.5218 -0.6049  0.0522
  151SAPE  H17R16677   2.502   1.280   5.270 -1.6919 -0.3829 -0.8998
  151SAPE  H17S16678   2.430   1.120   5.215  0.4914 -2.4669  1.4789
  151SAPE  C21816679   2.585   1.216   5.086 -0.4139  0.4857  0.1534
  151SAPE  H18R16680   2.601   1.124   5.027 -1.7509  0.4046 -0.1109
  151SAPE  H18S16681   2.688   1.257   5.097  0.1405 -1.2445  2.0182
  151SAPE  C21916682   2.502   1.308   4.998  0.9147  0.0040  0.1142
  151SAPE  H19R16683   2.534   1.320   4.892 -2.9805  1.6804 -1.0680
  151SAPE  H19S16684   2.489   1.410   5.042 -3.1778 -0.4809  0.4710
  151SAPE  C22016685   2.356   1.256   4.982 -0.2889 -0.0183 -0.1363
  151SAPE  H20R16686   2.305   1.329   4.915 -0.7005  0.4074  0.6263
  151SAPE  H20S16687   2.302   1.247   5.079  0.8430  0.7449  0.5810
  151SAPE  H20T16688   2.360   1.167   4.915  0.1917 -0.0714 -0.0383
  151SAPE   C3316689   1.706   0.168   5.927 -0.1783  0.3223  0.7763
  151SAPE   H3X16690   1.728   0.110   5.835  0.4152 -0.1993  1.2395
  151SAPE   H3Y16691   1.806   0.192   5.971  0.3845  0.0556 -0.3125
  151SAPE   C3416692   1.629   0.297   5.889 -0.2093 -0.9252 -0.0221
  151SAPE   H4X16693   1.569   0.337   5.974 -0.3463 -1.5294  0.1724
  151SAPE   H4Y16694   1.550   0.276   5.814 -0.8538  0.0323  0.3648
  151SAPE   C3516695   1.717   0.412   5.840 -0.5313 -0.2906 -0.2998
  151SAPE   H5X16696   1.798   0.425   5.915  0.2209  0.5374 -1.2195
  151SAPE   H5Y16697   1.661   0.508   5.840  0.9451  0.6199 -0.3609
  151SAPE   C3616698   1.780   0.384   5.703  0.0017  0.8384 -0.0498
  151SAPE   H6X16699   1.706   0.381   5.620  0.6121 -0.5640 -0.5804
  151SAPE   H6Y16700   1.824   0.282   5.711 -1.2685  0.3164  0.4514
  151SAPE   C3716701   1.881   0.497   5.681 -0.7195  0.2646 -0.3703
  151SAPE   H7X16702   1.955   0.499   5.765 -0.2178 -2.3481 -0.6601
  151SAPE   H7Y16703   1.829   0.595   5.672 -0.2326  0.5349 -0.3063
  151SAPE   C3816704   1.948   0.480   5.548  0.4472  0.3294  0.6852
  151SAPE   H8X16705   1.987   0.575   5.504  0.1853  0.4943  0.8094
  151SAPE   H8Y16706   1.880   0.439   5.471 -3.4982 -0.6127  4.3167
  151SAPE   C3916707   2.063   0.385   5.554 -0.4448 -0.1549 -0.3220
  151SAPE   H9X16708   2.026   0.288   5.595  0.1983 -0.0436  0.5400
  151SAPE   H9Y16709   2.146   0.413   5.621 -1.1937 -1.3278  1.1397
  151SAPE  C31016710   2.122   0.377   5.414 -0.3521  0.9831  0.3446
  151SAPE  H10X16711   2.140   0.472   5.359  1.4455  0.3541 -0.2455
  151SAPE  H10Y16712   2.042   0.326   5.356 -0.8067  0.0620  1.7198
  151SAPE  C31116713   2.244   0.285   5.403 -0.5470  0.2052  0.5942
  151SAPE  H11X16714   2.234   0.197   5.470 -2.3939 -0.3164 -0.2994
  151SAPE  H11Y16715   2.330   0.342   5.445 -1.3396  2.8511 -1.1211
  151SAPE  C31216716   2.278   0.240   5.258 -0.4785 -0.1669 -0.4495
  151SAPE  H12X16717   2.287   0.325   5.188 -0.5866  0.3664  0.1666
  151SAPE  H12Y16718   2.191   0.183   5.217  1.6922 -2.4857 -2.1081
  151SAPE  C31316719   2.402   0.145   5.252 -0.3101  0.6853  0.2316
  151SAPE  H13X16720   2.374   0.046   5.294 -0.1055  0.8665  0.8192
  151SAPE  H13Y16721   2.479   0.197   5.313 -2.6744  0.6441  3.5499
  151SAPE  C31416722   2.460   0.125   5.112 -0.4025 -0.6063 -0.7939
  151SAPE  H14X16723   2.564   0.088   5.100 -0.5305 -1.1705 -0.1881
  151SAPE  H14Y16724   2.462   0.228   5.070 -3.0560  0.2944  0.9893
  151SAPE  C31516725   2.383   0.041   5.009  0.0724 -0.4494 -0.1814
  151SAPE  H15X16726   2.435   0.056   4.912 -0.3096 -0.4993 -0.3975
  151SAPE  H15Y16727   2.285   0.094   5.007  0.2765 -0.0495  0.1407
  151SAPE  C31616728   2.377  -0.112   5.035  0.1530 -0.0101 -0.5764
  151SAPE  H16X16729   2.342  -0.132   5.138 -0.7794  0.4553 -0.7922
  151SAPE  H16Y16730   2.480  -0.155   5.039  0.7733  1.5180  1.4629
  151SAPE  C31716731   2.287  -0.189   4.933  0.0071 -0.7376  0.6692
  151SAPE  H17X16732   2.310  -0.297   4.945  0.6034 -0.3823  3.4038
  151SAPE  H17Y16733   2.323  -0.160   4.832  3.3573  2.6822  2.5978
  151SAPE  C31816734   2.137  -0.166   4.953 -0.0516  0.4565  0.2206
  151SAPE  H18X16735   2.067  -0.236   4.902 -1.2249  2.3697 -0.9010
  151SAPE  H18Y16736   2.103  -0.066   4.920  0.8578  0.5285 -0.5740
  151SAPE  H18Z16737   2.125  -0.173   5.063  0.6062 -1.0233  0.2283
  152SAPE     N16738   6.409   1.057   7.009  0.1918  0.3765 -0.2274
  152SAPE   HN116739   6.360   1.112   6.936  0.1709 -0.5120 -0.9055
  152SAPE   HN216740   6.327   1.052   7.073  0.9384 -1.3085  0.6848
  152SAPE   HN316741   6.477   1.109   7.067  0.0078  0.4487 -0.0729
  152SAPE   C1216742   6.458   0.927   6.945  0.3249  0.0333 -0.3831
  152SAPE  H12A16743   6.390   0.888   6.866 -1.5492 -0.1473  1.2687
  152SAPE  H12B16744   6.470   0.853   7.026  1.7047 -1.0068 -1.4837
  152SAPE   C1116745   6.598   0.954   6.889 -0.6813  0.0323  0.0080
  152SAPE  H11A16746   6.600   1.025   6.803  3.1461  1.0017  0.6927
  152SAPE  H11B16747   6.630   0.863   6.834  0.5593  0.7637 -0.5311
  152SAPE     P16748   6.824   1.068   6.970 -0.1004 -0.1459  0.2563
  152SAPE   O1316749   6.815   1.203   7.024 -0.3989  0.3193  0.1408
  152SAPE   O1416750   6.933   0.976   7.004 -0.0180 -0.1673  0.0993
  152SAPE   O1216751   6.690   0.986   6.998  0.1660 -0.1499 -0.2127
  152SAPE   O1116752   6.812   1.073   6.815 -0.3988 -0.7148  0.5489
  152SAPE    C116753   6.863   0.966   6.734  0.2064 -0.1928 -0.2782
  152SAPE    HA16754   6.973   0.950   6.731  0.2265  0.0605 -2.2333
  152SAPE    HB16755   6.829   0.863   6.757  0.6866 -0.6720 -1.6053
  152SAPE    C216756   6.850   0.976   6.576  0.2218 -0.2424 -0.8925
  152SAPE    HS16757   6.908   1.068   6.550 -1.9639  1.3411 -0.4496
  152SAPE   O2116758   6.713   0.985   6.531  0.2697  0.4016  0.4090
  152SAPE   C2116759   6.683   1.061   6.427  0.0387  0.3721 -0.5864
  152SAPE   O2216760   6.760   1.128   6.362 -0.2577 -0.0730  0.8249
  152SAPE   C2216761   6.533   1.060   6.399 -0.2477  0.2371  0.1696
  152SAPE   H2R16762   6.487   0.981   6.462 -1.0036 -0.5794 -1.3406
  152SAPE   H2S16763   6.497   1.160   6.429  3.7525  1.4834  1.4787
  152SAPE    C316764   6.923   0.855   6.512 -0.3422  0.3986  0.0494
  152SAPE    HX16765   6.857   0.766   6.518 -0.2740  0.4302  2.0471
  152SAPE    HY16766   7.013   0.827   6.571  0.2514 -1.3679 -1.5998
  152SAPE   O3116767   6.962   0.884   6.376 -0.2380  0.3402 -1.0483
  152SAPE   C3116768   7.083   0.932   6.357 -0.1994 -0.5934  0.0156
  152SAPE   O3216769   7.169   0.953   6.439 -0.3048  0.0503 -0.0603
  152SAPE   C3216770   7.082   0.984   6.209  0.2926 -0.6666 -0.3754
  152SAPE   H2X16771   6.995   1.052   6.220  1.6166  0.6668  3.8545
  152SAPE   H2Y16772   7.053   0.897   6.147 -2.8254 -0.7032  0.9679
  152SAPE   C2316773   6.498   1.044   6.239 -0.3556  0.5819  0.3745
  152SAPE   H3R16774   6.557   1.119   6.183  0.4054 -1.1849 -1.2863
  152SAPE   H3S16775   6.391   1.058   6.212  0.2782  1.2047 -2.0427
  152SAPE   C2416776   6.542   0.902   6.181  0.2580 -0.3384 -0.0796
  152SAPE   H4R16777   6.652   0.887   6.192  0.4393 -0.6496 -2.0076
  152SAPE   H4S16778   6.526   0.921   6.072 -1.6045  2.9743  0.6185
  152SAPE   C2516779   6.455   0.783   6.231  0.3735 -0.4333 -0.4069
  152SAPE   H5R16780   6.348   0.792   6.211  0.0502  3.9798  2.1216
  152SAPE   C2616781   6.502   0.682   6.300  0.3564 -0.4511 -0.3912
  152SAPE   H6R16782   6.435   0.599   6.327  2.3216 -2.1040 -0.2790
  152SAPE   C2716783   6.641   0.657   6.340 -0.0474 -0.2901 -0.1500
  152SAPE   H7R16784   6.651   0.696   6.444  1.4986  0.0323 -0.3811
  152SAPE   H7S16785   6.717   0.716   6.283  2.1880 -1.2138  1.7121
  152SAPE   C2816786   6.691   0.519   6.345  0.0318  0.2371  0.4091
  152SAPE   H8R16787   6.654   0.461   6.430 -1.7469 -1.9478 -1.6951
  152SAPE   C2916788   6.752   0.450   6.244 -0.5382 -0.3137 -0.3714
  152SAPE   H9R16789   6.788   0.351   6.277  0.4071 -0.6505 -2.2620
  152SAPE  C21016790   6.792   0.497   6.102  0.8811  0.1079 -0.3350
  152SAPE  H10R16791   6.789   0.608   6.096 -0.3187  0.1062 -0.0561
  152SAPE  H10S16792   6.711   0.454   6.039 -1.3808  0.8764  1.8881
  152SAPE  C21116793   6.929   0.440   6.059 -0.0776  0.6039 -0.1172
  152SAPE  H11R16794   6.942   0.332   6.075 -1.2609  0.7251  2.1292
  152SAPE  C21216795   7.033   0.509   6.001  1.0632  0.1032  0.1162
  152SAPE  H12R16796   7.122   0.454   5.968  0.9502  1.0192 -1.8805
  152SAPE  C21316797   7.034   0.661   5.985 -0.2078  0.1531  0.2675
  152SAPE  H13R16798   7.133   0.691   6.026  0.4394 -0.4742 -0.7902
  152SAPE  H13S16799   6.951   0.716   6.034 -0.9920 -0.4429 -0.3694
  152SAPE  C21416800   7.046   0.692   5.839 -0.3743 -0.0180  0.2457
  152SAPE  H14R16801   7.144   0.686   5.788 -0.6433 -1.3582 -0.1497
  152SAPE  C21516802   6.942   0.739   5.763  0.7798 -0.3112  0.3665
  152SAPE  H15R16803   6.949   0.766   5.657 -2.3407  0.8243  0.3460
  152SAPE  C21616804   6.798   0.742   5.794  0.1484 -0.1192 -0.1849
  152SAPE  H16R16805   6.771   0.837   5.845  1.6230  0.1156  0.1971
  152SAPE  H16S16806   6.781   0.676   5.882  1.4221  2.1248  1.8703
  152SAPE  C21716807   6.713   0.702   5.677  0.0543  1.0729  0.5200
  152SAPE  H17R16808   6.743   0.602   5.641 -1.1629  0.9494 -0.2028
  152SAPE  H17S16809   6.718   0.766   5.587  1.7466 -0.3284 -0.4319
  152SAPE  C21816810   6.556   0.705   5.703 -0.0487 -0.1732  0.1992
  152SAPE  H18R16811   6.542   0.628   5.782  2.2093 -2.1998 -1.2309
  152SAPE  H18S16812   6.506   0.659   5.615  0.0711 -2.2026  1.1376
  152SAPE  C21916813   6.511   0.841   5.770  0.2548 -0.2596  0.3779
  152SAPE  H19R16814   6.515   0.915   5.687 -0.8345 -1.7905 -1.1145
  152SAPE  H19S16815   6.551   0.877   5.867  0.2084 -0.3379  0.4264
  152SAPE  C22016816   6.361   0.834   5.806 -0.1313 -0.3044  0.5189
  152SAPE  H20R16817   6.357   0.755   5.884  0.6161 -2.1146 -1.1916
  152SAPE  H20S16818   6.302   0.796   5.721  1.1360  0.0112 -0.5353
  152SAPE  H20T16819   6.315   0.934   5.818 -1.8237 -0.6672 -2.1151
  152SAPE   C3316820   7.208   1.052   6.159  0.0403  0.7670 -0.9412
  152SAPE   H3X16821   7.286   0.974   6.161 -1.5813 -0.9015  0.0713
  152SAPE   H3Y16822   7.233   1.135   6.228  0.2314  1.1528 -1.4667
  152SAPE   C3416823   7.201   1.118   6.018 -0.0759  0.3132 -0.5426
  152SAPE   H4X16824   7.264   1.209   6.030 -1.3305  1.0761  0.4721
  152SAPE   H4Y16825   7.105   1.157   5.979 -0.5295 -1.0684 -0.8427
  152SAPE   C3516826   7.264   1.018   5.915  0.6027 -0.6040  0.1179
  152SAPE   H5X16827   7.192   0.934   5.910 -0.0357 -0.0812  0.2785
  152SAPE   H5Y16828   7.364   0.982   5.946  0.1710 -0.8105  1.3333
  152SAPE   C3616829   7.282   1.087   5.775 -0.6817 -0.2653 -0.0705
  152SAPE   H6X16830   7.191   1.114   5.717 -0.2336 -2.3550 -1.9128
  152SAPE   H6Y16831   7.324   1.012   5.704  1.4192  1.7628 -1.1269
  152SAPE   C3716832   7.393   1.199   5.783  0.5873 -0.4546  1.1389
  152SAPE   H7X16833   7.477   1.164   5.847  2.0903  0.7260 -0.1154
  152SAPE   H7Y16834   7.360   1.301   5.811  0.9336  0.6705 -2.0936
  152SAPE   C3816835   7.451   1.226   5.642 -0.9150 -0.6471  0.7077
  152SAPE   H8X16836   7.487   1.130   5.599  0.2347  0.0408  0.0878
  152SAPE   H8Y16837   7.545   1.283   5.660 -1.0550 -0.2306  0.1351
  152SAPE   C3916838   7.368   1.299   5.532  0.4909 -0.0034 -0.6097
  152SAPE   H9X16839   7.430   1.370   5.474  0.2833  0.6382 -0.0542
  152SAPE   H9Y16840   7.285   1.352   5.583 -1.1556 -1.4099 -1.7339
  152SAPE  C31016841   7.292   1.209   5.429  0.6260 -0.0766 -0.0231
  152SAPE  H10X16842   7.213   1.267   5.377 -0.7517 -1.6069  0.2952
  152SAPE  H10Y16843   7.241   1.130   5.487  1.4213  2.7005  5.1307
  152SAPE  C31116844   7.381   1.141   5.325 -0.5802  0.2734 -0.2022
  152SAPE  H11X16845   7.461   1.081   5.373 -1.9606 -1.5982 -0.1496
  152SAPE  H11Y16846   7.436   1.222   5.271 -0.6610  0.7904  0.4708
  152SAPE  C31216847   7.304   1.052   5.237  0.7241  0.1972 -0.3510
  152SAPE  H12X16848   7.227   1.098   5.171 -0.2095  0.9734  1.2215
  152SAPE  H12Y16849   7.241   0.984   5.298  2.7728  0.4459  2.1915
  152SAPE  C31316850   7.404   0.962   5.165  0.3602 -0.4927  0.1877
  152SAPE  H13X16851   7.354   0.870   5.129 -0.9987  0.0006  0.7453
  152SAPE  H13Y16852   7.484   0.933   5.236  2.3214  1.2751 -1.1657
  152SAPE  C31416853   7.463   1.038   5.046 -0.3787 -0.6033  0.6923
  152SAPE  H14X16854   7.570   1.007   5.039 -0.3227 -0.4835  0.9932
  152SAPE  H14Y16855   7.488   1.146   5.052  0.9800 -0.7363 -1.3799
  152SAPE  C31516856   7.388   1.023   4.916 -0.0429 -0.8526 -0.2867
  152SAPE  H15X16857   7.442   1.082   4.839 -0.5733 -0.8167 -0.6408
  152SAPE  H15Y16858   7.288   1.071   4.925  0.9572  1.3579 -0.3112
  152SAPE  C31616859   7.381   0.877   4.863 -0.3461  0.0043  0.0648
  152SAPE  H16X16860   7.318   0.817   4.932 -2.2937 -0.7739 -2.2491
  152SAPE  H16Y16861   7.485   0.839   4.866 -1.2105 -2.5501 -0.3604
  152SAPE  C31716862   7.312   0.859   4.724  0.1365  0.1378  0.1176
  152SAPE  H17X16863   7.211   0.899   4.748  0.3475  2.5150 -2.4569
  152SAPE  H17Y16864   7.289   0.751   4.717 -1.9296  0.3304  2.3270
  152SAPE  C31816865   7.363   0.926   4.596  0.3894  0.2311  0.1799
  152SAPE  H18X16866   7.339   0.864   4.508 -0.2132 -2.9186  2.3746
  152SAPE  H18Y16867   7.472   0.942   4.610  1.0192 -3.2971  0.2826
  152SAPE  H18Z16868   7.326   1.029   4.578 -1.6667 -0.4292  0.2976
  153SAPE     N16869   6.446   6.529   6.919  0.6131 -0.5182 -0.6361
  153SAPE   HN116870   6.369   6.506   6.986  1.3993  2.9327  1.7002
  153SAPE   HN216871   6.515   6.451   6.921 -0.4216 -1.4786  1.7871
  153SAPE   HN316872   6.496   6.591   6.986  1.1178 -2.4373  0.8678
  153SAPE   C1216873   6.413   6.601   6.793 -0.2672  0.0367  0.5454
  153SAPE  H12A16874   6.361   6.527   6.728  2.6397 -0.5724 -1.2620
  153SAPE  H12B16875   6.500   6.634   6.732  0.2987 -0.2847  1.1679
  153SAPE   C1116876   6.327   6.722   6.815 -0.5958  0.1162  0.7671
  153SAPE  H11A16877   6.298   6.769   6.719 -1.2339 -1.1841  0.3042
  153SAPE  H11B16878   6.393   6.799   6.862 -0.8438  0.7846  0.0416
  153SAPE     P16879   6.091   6.633   6.836  0.4123 -0.2610 -0.0019
  153SAPE   O1316880   6.130   6.492   6.805 -0.0167  0.1498  0.4865
  153SAPE   O1416881   5.978   6.644   6.922  0.2754 -0.1862 -0.3602
  153SAPE   O1216882   6.217   6.701   6.897 -0.0939  0.5932 -0.0660
  153SAPE   O1116883   6.065   6.717   6.704 -0.3236 -0.0464  0.6075
  153SAPE    C116884   6.037   6.861   6.708  1.2806 -0.1059 -0.1559
  153SAPE    HA16885   5.946   6.893   6.763  0.2514  0.0497 -1.8720
  153SAPE    HB16886   6.119   6.916   6.759  1.2954 -1.2798  1.1304
  153SAPE    C216887   6.040   6.918   6.562 -0.4252  0.2085  0.1564
  153SAPE    HS16888   6.007   7.024   6.564 -1.4140 -0.0892  2.1920
  153SAPE   O2116889   5.955   6.837   6.480 -0.4377  0.2052 -0.1725
  153SAPE   C2116890   5.820   6.860   6.507 -0.5969  0.6070 -0.6535
  153SAPE   O2216891   5.782   6.942   6.584 -0.2231 -0.1988 -0.3096
  153SAPE   C2216892   5.739   6.765   6.433 -0.4136 -0.3447  0.0065
  153SAPE   H2R16893   5.757   6.788   6.325 -1.5811 -2.3176 -0.6662
  153SAPE   H2S16894   5.786   6.668   6.458  0.0735 -0.8038 -2.3938
  153SAPE    C316895   6.187   6.914   6.503  1.1628 -0.6954  0.0061
  153SAPE    HX16896   6.213   6.809   6.479 -0.4967 -1.2874  0.6309
  153SAPE    HY16897   6.266   6.953   6.570 -0.1468  2.9540 -0.3229
  153SAPE   O3116898   6.194   7.002   6.380  0.0406  0.0281  0.3751
  153SAPE   C3116899   6.316   7.029   6.338 -0.8476  0.2009 -0.2521
  153SAPE   O3216900   6.422   6.982   6.389  0.5933 -0.2107  0.6419
  153SAPE   C3216901   6.303   7.127   6.225  0.1396 -0.6367  0.1018
  153SAPE   H2X16902   6.229   7.202   6.261  0.4602 -0.6922  0.9006
  153SAPE   H2Y16903   6.255   7.082   6.136 -0.6188  2.4248 -1.1738
  153SAPE   C2316904   5.595   6.770   6.449  0.4738  0.2352 -0.6343
  153SAPE   H3R16905   5.545   6.869   6.439 -1.0567 -0.3898  0.3195
  153SAPE   H3S16906   5.572   6.729   6.550 -0.9798 -0.5611 -1.2524
  153SAPE   C2416907   5.522   6.682   6.348  0.1200 -0.2963  0.2805
  153SAPE   H4R16908   5.526   6.740   6.253 -1.4840  2.2705  1.6710
  153SAPE   H4S16909   5.420   6.686   6.391  1.3271  0.8041  3.3365
  153SAPE   C2516910   5.577   6.542   6.327 -0.3042 -0.2674  0.7861
  153SAPE   H5R16911   5.594   6.479   6.416 -3.1711 -1.4653  0.6140
  153SAPE   C2616912   5.607   6.482   6.211 -0.3486  0.9968 -0.0024
  153SAPE   H6R16913   5.650   6.381   6.217  2.6248  2.0891 -1.3051
  153SAPE   C2716914   5.574   6.534   6.073 -0.1953  0.0560 -0.3510
  153SAPE   H7R16915   5.471   6.575   6.078  0.1126  0.6668  2.2589
  153SAPE   H7S16916   5.572   6.446   6.005 -0.9150 -1.0949  1.0971
  153SAPE   C2816917   5.678   6.638   6.040 -0.0131 -0.1696  0.5664
  153SAPE   H8R16918   5.782   6.628   6.073  0.5865 -2.5748 -1.6800
  153SAPE   C2916919   5.660   6.735   5.949 -0.2464 -0.6822 -0.0649
  153SAPE   H9R16920   5.745   6.802   5.930 -1.1683 -0.0120 -2.0262
  153SAPE  C21016921   5.533   6.760   5.867 -0.5872  0.3141  0.0051
  153SAPE  H10R16922   5.447   6.712   5.919 -0.9566  0.4076 -0.5109
  153SAPE  H10S16923   5.550   6.706   5.771 -1.7852  0.1902 -0.1470
  153SAPE  C21116924   5.503   6.899   5.828 -0.9179 -0.1854  0.3515
  153SAPE  H11R16925   5.451   6.954   5.909 -0.8027  0.5952 -0.0985
  153SAPE  C21216926   5.507   6.940   5.701 -0.2245  0.0309  0.5968
  153SAPE  H12R16927   5.491   7.047   5.684  1.1719 -0.0090 -1.2591
  153SAPE  C21316928   5.547   6.874   5.572 -0.2232 -0.0695 -0.1389
  153SAPE  H13R16929   5.524   6.943   5.488 -0.5168 -1.6329 -1.3849
  153SAPE  H13S16930   5.470   6.797   5.552  0.2263 -0.7546  0.7250
  153SAPE  C21416931   5.686   6.818   5.560  0.3964 -0.4845 -0.2751
  153SAPE  H14R16932   5.724   6.776   5.654  1.5601  0.5896 -0.2272
  153SAPE  C21516933   5.764   6.818   5.453 -0.1180 -0.5080  0.3435
  153SAPE  H15R16934   5.870   6.794   5.466 -0.8128 -3.6542  0.9802
  153SAPE  C21616935   5.732   6.865   5.319 -0.0050  0.5662  0.3491
  153SAPE  H16R16936   5.787   6.960   5.301 -0.5526  1.0187  0.9757
  153SAPE  H16S16937   5.624   6.894   5.322 -0.5411 -1.3522  1.0498
  153SAPE  C21716938   5.763   6.770   5.198  0.5192 -0.7621  0.0498
  153SAPE  H17R16939   5.744   6.666   5.232  0.3763 -1.0727 -0.9394
  153SAPE  H17S16940   5.872   6.777   5.179  1.0632 -1.6027  2.5726
  153SAPE  C21816941   5.698   6.803   5.064  0.0726 -0.2967  0.0013
  153SAPE  H18R16942   5.756   6.776   4.973 -0.3509 -0.3617 -0.2532
  153SAPE  H18S16943   5.689   6.913   5.053  0.9010 -0.4674 -3.7865
  153SAPE  C21916944   5.556   6.740   5.058  0.6315  0.1807  0.6238
  153SAPE  H19R16945   5.480   6.782   5.127 -2.1036 -0.5845 -1.7371
  153SAPE  H19S16946   5.567   6.632   5.082  0.2109 -0.5158 -1.9986
  153SAPE  C22016947   5.488   6.743   4.917 -0.3947  0.1763 -0.1305
  153SAPE  H20R16948   5.551   6.682   4.849 -0.1427 -1.6441  1.6464
  153SAPE  H20S16949   5.474   6.847   4.882  0.5724  0.1515 -0.6116
  153SAPE  H20T16950   5.389   6.693   4.903 -0.3130 -0.1044  0.2773
  153SAPE   C3316951   6.443   7.176   6.175  0.4488 -0.0939  0.6666
  153SAPE   H3X16952   6.493   7.103   6.108  1.3638  1.4578 -0.4134
  153SAPE   H3Y16953   6.511   7.200   6.259 -2.0496  1.1644  2.4795
  153SAPE   C3416954   6.430   7.306   6.101  0.4012 -0.5442 -0.1465
  153SAPE   H4X16955   6.533   7.342   6.079  0.3806 -1.7174 -2.4788
  153SAPE   H4Y16956   6.377   7.385   6.158  1.2609  1.4023 -1.9283
  153SAPE   C3516957   6.361   7.294   5.965  0.5303 -0.2508 -0.0576
  153SAPE   H5X16958   6.260   7.248   5.967  0.2388  0.3904  0.3816
  153SAPE   H5Y16959   6.420   7.233   5.894 -0.7952 -0.9570 -0.5927
  153SAPE   C3616960   6.337   7.431   5.913  1.1381  0.3863  0.0482
  153SAPE   H6X16961   6.438   7.476   5.902  0.4896  1.5724 -1.4054
  153SAPE   H6Y16962   6.290   7.496   5.991 -0.4075  0.8823 -1.2345
  153SAPE   C3716963   6.269   7.439   5.776  0.1411  0.8851 -0.6543
  153SAPE   H7X16964   6.243   7.540   5.740 -0.2429  1.0259  0.0020
  153SAPE   H7Y16965   6.170   7.388   5.772  0.7404 -0.2720 -1.5284
  153SAPE   C3816966   6.360   7.384   5.666 -0.8090  0.0127  0.0174
  153SAPE   H8X16967   6.358   7.273   5.679  0.6761  0.0135  0.5195
  153SAPE   H8Y16968   6.461   7.429   5.672 -0.5611 -0.5590  0.2654
  153SAPE   C3916969   6.308   7.409   5.528 -0.2138  0.0510  0.1808
  153SAPE   H9X16970   6.319   7.518   5.511  2.0998  0.0677  1.3860
  153SAPE   H9Y16971   6.203   7.372   5.521  0.9835 -3.7305  0.0086
  153SAPE  C31016972   6.404   7.344   5.421  0.8080 -0.3448 -0.8647
  153SAPE  H10X16973   6.389   7.234   5.436 -0.7320 -0.3954 -2.3403
  153SAPE  H10Y16974   6.511   7.366   5.440  0.7033  1.2162 -1.9214
  153SAPE  C31116975   6.375   7.396   5.285 -0.2151 -0.1053  0.5751
  153SAPE  H11X16976   6.392   7.505   5.288  0.3056 -0.0519 -1.9167
  153SAPE  H11Y16977   6.273   7.361   5.260 -0.3102 -0.1204  0.9801
  153SAPE  C31216978   6.476   7.342   5.182 -0.2770 -0.5560  0.5002
  153SAPE  H12X16979   6.485   7.231   5.194  2.7562 -0.2665  1.8536
  153SAPE  H12Y16980   6.575   7.386   5.206 -0.0857 -1.8608  2.4149
  153SAPE  C31316981   6.445   7.385   5.037  0.0419 -0.3726  1.2574
  153SAPE  H13X16982   6.390   7.481   5.035 -2.5739 -1.8126  0.3564
  153SAPE  H13Y16983   6.377   7.316   4.983  1.0330 -0.8740  0.5950
  153SAPE  C31416984   6.571   7.392   4.948  0.7292  0.4237 -0.0326
  153SAPE  H14X16985   6.630   7.298   4.953  1.6516  1.0693  2.2063
  153SAPE  H14Y16986   6.627   7.475   4.995  0.7505  0.8869 -0.8555
  153SAPE  C31516987   6.526   7.438   4.803  0.2055  0.5217  0.2493
  153SAPE  H15X16988   6.449   7.515   4.826 -0.4010 -0.6634  2.4941
  153SAPE  H15Y16989   6.476   7.354   4.751  0.7582 -0.6157  1.5014
  153SAPE  C31616990   6.637   7.495   4.708 -0.4872 -0.1097  0.1146
  153SAPE  H16X16991   6.658   7.596   4.751 -1.5116  1.5052 -2.9002
  153SAPE  H16Y16992   6.589   7.499   4.608  1.3122 -3.5392 -1.0312
  153SAPE  C31716993   6.773   7.420   4.712  0.5209 -0.5293 -0.5653
  153SAPE  H17X16994   6.745   7.323   4.665  1.3280  0.1689 -2.6378
  153SAPE  H17Y16995   6.810   7.404   4.815  1.5247 -0.9134 -0.9742
  153SAPE  C31816996   6.891   7.471   4.628 -0.3153 -0.0008 -0.2670
  153SAPE  H18X16997   6.923   7.575   4.653  1.8246 -0.7768  0.4480
  153SAPE  H18Y16998   6.882   7.454   4.518  0.2051 -3.7056  0.1314
  153SAPE  H18Z16999   6.985   7.418   4.653  0.5275  2.4686  2.3170
  154SAPE     N17000   3.242   4.067   6.530  0.2130  0.9775  0.2633
  154SAPE   HN117001   3.333   4.094   6.573 -0.6630  2.4919  1.2753
  154SAPE   HN217002   3.171   4.069   6.605  1.3699 -1.5295  1.5409
  154SAPE   HN317003   3.247   3.970   6.493 -0.7007  0.6719  0.9223
  154SAPE   C1217004   3.208   4.173   6.424 -0.5359 -0.3835  0.4228
  154SAPE  H12A17005   3.303   4.183   6.367 -0.5215  0.3307  0.5596
  154SAPE  H12B17006   3.194   4.272   6.472 -1.6885 -1.0573  1.5448
  154SAPE   C1117007   3.084   4.136   6.342  0.5144  0.1601  0.3095
  154SAPE  H11A17008   3.102   4.033   6.302 -0.6984  0.2679 -0.5632
  154SAPE  H11B17009   3.069   4.213   6.264 -1.0171 -1.2035 -0.8208
  154SAPE     P17010   2.847   4.222   6.419 -0.1180  0.1873 -0.2151
  154SAPE   O1317011   2.737   4.157   6.345  0.5079  0.6157 -0.8143
  154SAPE   O1417012   2.819   4.277   6.554 -0.1878 -0.0363 -0.6524
  154SAPE   O1217013   2.972   4.134   6.428 -0.4447  0.2211 -0.3817
  154SAPE   O1117014   2.893   4.350   6.334 -0.0970  0.0756  0.2507
  154SAPE    C117015   2.939   4.466   6.403 -0.0335 -0.1423 -0.6333
  154SAPE    HA17016   2.973   4.454   6.508 -0.0597  0.6891 -0.5311
  154SAPE    HB17017   3.030   4.509   6.356 -0.6467  1.4325 -0.4327
  154SAPE    C217018   2.828   4.579   6.399 -0.0561 -0.3712  0.5481
  154SAPE    HS17019   2.738   4.529   6.441 -1.1192 -0.6621 -1.9119
  154SAPE   O2117020   2.803   4.624   6.263 -0.6415 -0.3562  0.2846
  154SAPE   C2117021   2.677   4.673   6.243 -0.4724  0.3829 -0.4050
  154SAPE   O2217022   2.585   4.661   6.321 -0.2388  0.0036  0.1304
  154SAPE   C2217023   2.680   4.752   6.115 -0.0240 -0.3984 -0.6079
  154SAPE   H2R17024   2.644   4.854   6.142 -0.1669 -0.7465  0.5372
  154SAPE   H2S17025   2.790   4.759   6.099  0.3404 -0.4911  1.5099
  154SAPE    C317026   2.867   4.695   6.487  0.0331 -0.2330  0.0583
  154SAPE    HX17027   2.885   4.660   6.591 -3.1508 -0.6699  0.5540
  154SAPE    HY17028   2.777   4.759   6.498  0.3659  0.1408  0.6962
  154SAPE   O3117029   2.987   4.760   6.439  0.7227 -0.3762 -0.2799
  154SAPE   C3117030   2.973   4.854   6.351  0.0011 -0.6120 -0.2982
  154SAPE   O3217031   2.863   4.893   6.305 -0.1950  0.4443  0.3734
  154SAPE   C3217032   3.109   4.909   6.310  0.4590  0.2449  0.5077
  154SAPE   H2X17033   3.183   4.890   6.391  0.9190 -2.0249 -0.3760
  154SAPE   H2Y17034   3.096   5.019   6.297 -2.0141  0.1471  1.5091
  154SAPE   C2317035   2.599   4.697   6.003  0.1357  0.1218 -0.4059
  154SAPE   H3R17036   2.568   4.770   5.925  1.2453 -1.5616 -2.5343
  154SAPE   H3S17037   2.508   4.652   6.047  0.7284  0.3449  1.1312
  154SAPE   C2417038   2.673   4.589   5.920 -0.1914 -0.7697  0.4352
  154SAPE   H4R17039   2.716   4.511   5.987  1.7434 -0.8750 -0.8652
  154SAPE   H4S17040   2.757   4.638   5.867 -1.2252 -0.1292 -0.6572
  154SAPE   C2517041   2.582   4.517   5.829 -0.4362 -0.5483  0.2427
  154SAPE   H5R17042   2.475   4.519   5.856 -0.5674 -0.1599 -0.2884
  154SAPE   C2617043   2.613   4.467   5.709 -1.0510  0.1412  0.0529
  154SAPE   H6R17044   2.536   4.410   5.655 -1.0499  1.0879 -0.9738
  154SAPE   C2717045   2.747   4.455   5.645 -0.4886  0.0950 -0.5973
  154SAPE   H7R17046   2.824   4.512   5.703 -0.0664  0.1703 -1.2248
  154SAPE   H7S17047   2.738   4.509   5.549 -1.2685  1.2280  0.0807
  154SAPE   C2817048   2.785   4.318   5.622 -0.6503  0.4391 -0.0873
  154SAPE   H8R17049   2.784   4.252   5.710 -2.2455 -0.2956 -0.6207
  154SAPE   C2917050   2.830   4.259   5.510 -0.1685  0.2158  0.4257
  154SAPE   H9R17051   2.868   4.156   5.516  2.8900  1.1705 -0.8440
  154SAPE  C21017052   2.828   4.321   5.371  0.3226 -0.0900  0.0583
  154SAPE  H10R17053   2.739   4.386   5.359  0.2175  0.0237  1.2419
  154SAPE  H10S17054   2.820   4.243   5.293  1.4872  1.6726 -1.9368
  154SAPE  C21117055   2.946   4.411   5.345 -0.9077 -0.3206 -0.2118
  154SAPE  H11R17056   2.997   4.457   5.431  1.2279 -0.2850 -1.4416
  154SAPE  C21217057   2.976   4.453   5.222 -0.6100 -0.5914  0.3789
  154SAPE  H12R17058   3.065   4.514   5.201 -0.4433 -1.5148 -1.7951
  154SAPE  C21317059   2.907   4.411   5.099  0.3203  0.4387  1.0637
  154SAPE  H13R17060   2.871   4.307   5.112 -0.9434  0.7597  0.2621
  154SAPE  H13S17061   2.980   4.410   5.016 -1.5144  1.2015 -0.6475
  154SAPE  C21417062   2.787   4.494   5.064 -0.1940  0.3611 -0.1589
  154SAPE  H14R17063   2.694   4.484   5.123  0.2391 -0.7311  0.3637
  154SAPE  C21517064   2.776   4.577   4.958  1.1499 -0.1372  0.9644
  154SAPE  H15R17065   2.684   4.637   4.949  0.7899 -0.8455 -0.4303
  154SAPE  C21617066   2.872   4.599   4.841 -0.5741 -0.7546 -0.0763
  154SAPE  H16R17067   2.967   4.544   4.853 -0.7094 -1.2038 -0.9847
  154SAPE  H16S17068   2.895   4.707   4.858  0.0798 -1.1131  1.4340
  154SAPE  C21717069   2.817   4.558   4.707  0.1279 -0.1099 -0.1617
  154SAPE  H17R17070   2.723   4.613   4.685 -0.1822 -0.8510 -0.7359
  154SAPE  H17S17071   2.778   4.454   4.715 -1.7217  0.6397  1.3192
  154SAPE  C21817072   2.913   4.581   4.592 -0.0962 -0.3336 -0.0419
  154SAPE  H18R17073   3.006   4.521   4.604  0.3385 -0.0859 -1.8573
  154SAPE  H18S17074   2.936   4.689   4.587  1.1569 -0.4849  1.6535
  154SAPE  C21917075   2.847   4.551   4.449  0.5725 -0.3768  0.3866
  154SAPE  H19R17076   2.758   4.615   4.430  1.2266 -0.1861 -2.5254
  154SAPE  H19S17077   2.820   4.443   4.445  2.8972 -0.9865 -0.3561
  154SAPE  C22017078   2.923   4.599   4.331  0.3782  0.3198  0.4653
  154SAPE  H20R17079   2.868   4.577   4.237  0.8760  1.5194 -0.1241
  154SAPE  H20S17080   3.027   4.559   4.326  0.4755  0.6952 -3.2339
  154SAPE  H20T17081   2.919   4.709   4.323  0.1590  0.1775 -3.5660
  154SAPE   C3317082   3.158   4.838   6.176 -0.3393 -0.0710 -0.2653
  154SAPE   H3X17083   3.127   4.732   6.187  0.1527 -0.4032 -1.8968
  154SAPE   H3Y17084   3.266   4.843   6.152 -0.4488  0.5010 -0.6568
  154SAPE   C3417085   3.088   4.909   6.060 -0.0117 -0.0943  0.3144
  154SAPE   H4X17086   3.132   5.009   6.041  0.9900 -0.8577 -1.5374
  154SAPE   H4Y17087   2.978   4.913   6.075 -0.5083 -0.7219 -2.5584
  154SAPE   C3517088   3.102   4.825   5.926  0.5573  0.3885 -0.3198
  154SAPE   H5X17089   3.050   4.727   5.933  0.6387  0.2961 -0.9366
  154SAPE   H5Y17090   3.207   4.792   5.910 -0.2640 -1.7973 -1.6887
  154SAPE   C3617091   3.060   4.909   5.812  0.4341  0.5026  0.2979
  154SAPE   H6X17092   3.136   4.977   5.768  0.7566  0.2268  0.4194
  154SAPE   H6Y17093   2.975   4.976   5.835  1.4993  1.5201  1.4331
  154SAPE   C3717094   3.007   4.821   5.695 -0.7727 -0.4038 -0.1428
  154SAPE   H7X17095   2.927   4.755   5.736 -1.5855  2.0448  2.4888
  154SAPE   H7Y17096   3.086   4.755   5.652 -0.2286 -1.0715  1.8100
  154SAPE   C3817097   2.959   4.914   5.582  0.1073  0.5540  0.3663
  154SAPE   H8X17098   3.037   4.993   5.571  1.8840 -1.2942 -1.1820
  154SAPE   H8Y17099   2.868   4.961   5.624  1.0171  0.4807  2.5213
  154SAPE   C3917100   2.942   4.848   5.445 -0.3579 -0.4260  0.3392
  154SAPE   H9X17101   3.034   4.791   5.420 -0.0715  0.5181 -0.8228
  154SAPE   H9Y17102   2.928   4.915   5.358  0.1572 -0.9571 -0.1619
  154SAPE  C31017103   2.813   4.761   5.441 -0.8655 -0.3875  0.2376
  154SAPE  H10X17104   2.827   4.697   5.531  1.1247  0.3935  0.5590
  154SAPE  H10Y17105   2.820   4.701   5.348  0.5804 -0.0327  0.0819
  154SAPE  C31117106   2.679   4.831   5.452  0.0472  0.4461 -0.1096
  154SAPE  H11X17107   2.678   4.921   5.387  2.3987  0.9768  0.5065
  154SAPE  H11Y17108   2.678   4.855   5.560  0.5142 -2.3048  0.5761
  154SAPE  C31217109   2.560   4.736   5.423  0.0563 -0.7628  0.0533
  154SAPE  H12X17110   2.463   4.790   5.417  1.2085  1.4070  0.0040
  154SAPE  H12Y17111   2.543   4.664   5.505  0.1816  0.0392  0.7951
  154SAPE  C31317112   2.576   4.659   5.297  0.7206 -0.2109 -0.6133
  154SAPE  H13X17113   2.641   4.573   5.324  0.7935  0.7238  2.6171
  154SAPE  H13Y17114   2.627   4.729   5.227  0.4455  2.3016  1.5616
  154SAPE  C31417115   2.446   4.610   5.234  0.8000  0.2714 -0.0214
  154SAPE  H14X17116   2.474   4.564   5.137 -0.2090  0.7488 -0.5451
  154SAPE  H14Y17117   2.370   4.688   5.215 -0.5768 -0.5923  1.6237
  154SAPE  C31517118   2.395   4.485   5.317 -0.5214  0.1531  0.0524
  154SAPE  H15X17119   2.448   4.473   5.414 -0.8697 -0.5038  0.1691
  154SAPE  H15Y17120   2.432   4.399   5.257  0.2209  1.0350 -0.7943
  154SAPE  C31617121   2.244   4.473   5.322 -1.3582  0.2682 -0.2531
  154SAPE  H16X17122   2.206   4.470   5.217 -1.4330  1.0189 -0.2540
  154SAPE  H16Y17123   2.194   4.554   5.380  0.6864 -0.4914  2.8304
  154SAPE  C31717124   2.200   4.351   5.399  0.5514 -0.5105  0.5867
  154SAPE  H17X17125   2.262   4.264   5.367  0.9526  0.1605 -0.4861
  154SAPE  H17Y17126   2.105   4.319   5.351  1.6896 -0.0919 -2.1437
  154SAPE  C31817127   2.201   4.367   5.551  0.4278  0.2035 -0.4697
  154SAPE  H18X17128   2.141   4.457   5.576  1.6330  1.0917 -0.7245
  154SAPE  H18Y17129   2.304   4.391   5.585  0.3251  1.1510 -0.8023
  154SAPE  H18Z17130   2.165   4.274   5.601  1.9001 -0.1445 -0.0255
  155SAPE     N17131   5.284   5.928   6.754 -0.1137 -0.0654 -0.2761
  155SAPE   HN117132   5.250   6.014   6.707 -3.0120 -0.3823  1.0381
  155SAPE   HN217133   5.312   5.956   6.850 -0.8981  1.3071 -0.4101
  155SAPE   HN317134   5.359   5.887   6.694 -1.3140  0.5620 -2.3344
  155SAPE   C1217135   5.163   5.841   6.756 -0.5550  0.7921 -0.1293
  155SAPE  H12A17136   5.211   5.741   6.768  0.3384  1.2319 -0.0494
  155SAPE  H12B17137   5.111   5.846   6.658  0.5486  2.6597 -0.6563
  155SAPE   C1117138   5.065   5.849   6.875 -0.1392  0.0449 -0.6689
  155SAPE  H11A17139   5.110   5.856   6.977 -0.0402 -2.0203 -0.5133
  155SAPE  H11B17140   5.010   5.752   6.882  0.0834  0.0060  0.9534
  155SAPE     P17141   4.992   6.099   6.916 -0.2745  0.1963  0.3262
  155SAPE   O1317142   4.973   6.087   7.065 -0.0206 -0.2730  0.1894
  155SAPE   O1417143   5.130   6.147   6.875  0.5339  0.4354 -0.5033
  155SAPE   O1217144   4.965   5.954   6.857  0.2976  0.1252 -0.0781
  155SAPE   O1117145   4.883   6.198   6.858 -0.7653 -0.2340  0.2461
  155SAPE    C117146   4.751   6.145   6.825 -0.6326 -0.1872  0.2418
  155SAPE    HA17147   4.720   6.075   6.906  3.1101  0.9624  2.9143
  155SAPE    HB17148   4.681   6.230   6.838 -0.5763 -0.1889  0.5564
  155SAPE    C217149   4.746   6.087   6.679 -0.4108 -0.2855 -0.1076
  155SAPE    HS17150   4.814   6.000   6.675 -1.3774 -1.2623  2.5364
  155SAPE   O2117151   4.770   6.191   6.583  0.4520  0.1560 -0.1237
  155SAPE   C2117152   4.888   6.206   6.539 -0.2519  0.0613  0.5165
  155SAPE   O2217153   4.982   6.125   6.552 -0.2675  0.4758  0.3724
  155SAPE   C2217154   4.895   6.346   6.485  0.5962  0.1468 -0.0494
  155SAPE   H2R17155   4.804   6.358   6.422 -0.0920 -0.1947  0.8465
  155SAPE   H2S17156   4.888   6.410   6.576 -0.8334  0.7262 -0.5312
  155SAPE    C317157   4.611   6.013   6.641  0.2362 -0.6229  0.0774
  155SAPE    HX17158   4.539   6.090   6.607 -0.2690  0.7307  3.7202
  155SAPE    HY17159   4.579   5.961   6.734  0.7494  0.1431  0.6910
  155SAPE   O3117160   4.640   5.917   6.533  0.1431 -0.1756  0.2058
  155SAPE   C3117161   4.532   5.863   6.480  0.7840  0.6743  0.8543
  155SAPE   O3217162   4.415   5.889   6.505 -0.4209 -0.0225 -0.2337
  155SAPE   C3217163   4.569   5.760   6.370  0.0877 -0.1169 -0.6888
  155SAPE   H2X17164   4.619   5.680   6.428 -2.0824 -0.3211  1.0157
  155SAPE   H2Y17165   4.642   5.805   6.299 -0.1389 -0.9962 -1.5031
  155SAPE   C2317166   5.016   6.377   6.399  0.1519  0.8940  0.2906
  155SAPE   H3R17167   5.048   6.282   6.352  0.0303  0.9073  0.1812
  155SAPE   H3S17168   5.105   6.403   6.461  0.6781 -0.1506 -0.0119
  155SAPE   C2417169   4.998   6.481   6.283  0.0147  0.6218  0.0112
  155SAPE   H4R17170   4.955   6.579   6.311  0.8203  1.0105 -0.0810
  155SAPE   H4S17171   4.920   6.437   6.217  1.4373 -1.4418 -0.3883
  155SAPE   C2517172   5.132   6.500   6.218  0.1761 -0.1018 -0.9163
  155SAPE   H5R17173   5.201   6.564   6.274  2.2376 -0.1017 -3.2701
  155SAPE   C2617174   5.180   6.432   6.111  0.2622  0.3807 -0.6199
  155SAPE   H6R17175   5.282   6.453   6.076  0.3928  0.4274 -0.2202
  155SAPE   C2717176   5.095   6.339   6.024 -0.9549 -0.6128  0.9257
  155SAPE   H7R17177   5.000   6.307   6.073 -1.9538  0.6967 -0.0815
  155SAPE   H7S17178   5.153   6.249   5.994  0.3291  0.1341  1.0982
  155SAPE   C2817179   5.041   6.410   5.903  0.0720  0.4716 -0.2043
  155SAPE   H8R17180   4.944   6.462   5.904 -0.0729  0.1932  0.1134
  155SAPE   C2917181   5.109   6.421   5.788 -0.3414  0.4675  0.3028
  155SAPE   H9R17182   5.064   6.465   5.698  2.5159  0.8236 -1.0278
  155SAPE  C21017183   5.239   6.357   5.754 -0.1368  0.7716  0.4136
  155SAPE  H10R17184   5.220   6.304   5.659  1.2742  0.3205  0.3576
  155SAPE  H10S17185   5.285   6.289   5.830  2.5711  0.2728 -1.5246
  155SAPE  C21117186   5.340   6.468   5.743  0.9561 -0.1651 -0.7647
  155SAPE  H11R17187   5.336   6.560   5.802 -0.4757  1.2158 -2.8598
  155SAPE  C21217188   5.438   6.467   5.654 -0.0872  0.3335  0.5348
  155SAPE  H12R17189   5.518   6.540   5.674  0.1542 -0.2266  1.6633
  155SAPE  C21317190   5.456   6.372   5.533 -0.1574 -0.1738  0.1620
  155SAPE  H13R17191   5.365   6.310   5.515 -1.4289  2.1505 -2.1844
  155SAPE  H13S17192   5.541   6.304   5.553 -0.6428 -1.3062 -1.4334
  155SAPE  C21417193   5.493   6.437   5.402  0.3362 -0.3157  0.8958
  155SAPE  H14R17194   5.599   6.466   5.401  0.1175  0.5918  1.6962
  155SAPE  C21517195   5.403   6.445   5.300  1.0195  0.2039  0.3040
  155SAPE  H15R17196   5.438   6.491   5.206 -1.0794  0.6324 -0.3294
  155SAPE  C21617197   5.257   6.413   5.300  0.2467  0.1406 -0.3016
  155SAPE  H16R17198   5.194   6.476   5.234 -1.2803 -0.0328  0.9527
  155SAPE  H16S17199   5.218   6.430   5.403  2.3559 -2.1998  0.9781
  155SAPE  C21717200   5.220   6.266   5.257  0.5565  0.5217  0.6452
  155SAPE  H17R17201   5.274   6.199   5.327  3.0892  0.7836 -0.9314
  155SAPE  H17S17202   5.271   6.254   5.159 -0.2704 -2.1365  0.4720
  155SAPE  C21817203   5.071   6.239   5.271 -0.2508 -0.3374  0.3958
  155SAPE  H18R17204   5.017   6.283   5.184  1.0487 -0.2166 -0.3745
  155SAPE  H18S17205   5.033   6.292   5.362 -1.0513 -0.6011  0.2165
  155SAPE  C21917206   5.036   6.088   5.272 -0.3533  0.0847  0.3467
  155SAPE  H19R17207   4.925   6.096   5.270 -0.3024  1.0784  1.0349
  155SAPE  H19S17208   5.056   6.047   5.373  1.8492 -1.0827 -0.4979
  155SAPE  C22017209   5.083   5.990   5.158 -0.0433 -0.0608 -0.8482
  155SAPE  H20R17210   5.041   5.889   5.177 -1.8704  1.1101  2.2375
  155SAPE  H20S17211   5.193   5.983   5.162  0.0749  0.3032 -2.8039
  155SAPE  H20T17212   5.051   6.030   5.059  2.6648 -1.5963 -2.4540
  155SAPE   C3317213   4.447   5.722   6.279  0.3328 -0.9239 -0.3021
  155SAPE   H3X17214   4.363   5.676   6.337 -1.0828  1.7914 -0.0596
  155SAPE   H3Y17215   4.502   5.656   6.209  4.1171  4.1214 -2.7134
  155SAPE   C3417216   4.404   5.835   6.185 -0.6242 -0.5460  0.1847
  155SAPE   H4X17217   4.493   5.869   6.128  0.3335 -1.3627  1.1525
  155SAPE   H4Y17218   4.370   5.921   6.248  0.9022 -1.7061  2.7359
  155SAPE   C3517219   4.282   5.795   6.101  0.0650 -0.3819  0.1001
  155SAPE   H5X17220   4.218   5.886   6.103 -0.9589 -1.0451 -0.9701
  155SAPE   H5Y17221   4.212   5.721   6.147  0.2657  0.5602  2.0297
  155SAPE   C3617222   4.324   5.755   5.966 -0.5272  0.3909  0.2196
  155SAPE   H6X17223   4.361   5.651   5.954 -1.3440  0.3503 -2.4691
  155SAPE   H6Y17224   4.414   5.814   5.939 -0.6802  0.7462  0.4683
  155SAPE   C3717225   4.224   5.758   5.848  0.7178  0.1653 -0.6566
  155SAPE   H7X17226   4.188   5.862   5.834  0.9570  0.7533  2.3604
  155SAPE   H7Y17227   4.133   5.702   5.879 -0.0522  1.1605 -1.0468
  155SAPE   C3817228   4.280   5.707   5.715  0.3290  0.1966  0.7671
  155SAPE   H8X17229   4.351   5.623   5.729  0.4211 -0.3453 -2.3176
  155SAPE   H8Y17230   4.333   5.795   5.674 -0.3348  0.8513  1.2904
  155SAPE   C3917231   4.165   5.686   5.611  0.1402 -0.1741  0.5436
  155SAPE   H9X17232   4.116   5.783   5.590  0.8160  0.5521  2.2064
  155SAPE   H9Y17233   4.082   5.632   5.660 -0.6279  0.2418 -0.2681
  155SAPE  C31017234   4.196   5.608   5.482 -0.1230 -0.3462 -0.0523
  155SAPE  H10X17235   4.232   5.509   5.516  0.7702  0.7856  2.5070
  155SAPE  H10Y17236   4.285   5.648   5.429  0.7610 -1.6338  0.4014
  155SAPE  C31117237   4.076   5.596   5.387 -0.0786  0.2584  0.6044
  155SAPE  H11X17238   4.034   5.694   5.357 -1.6535 -0.2010  1.2135
  155SAPE  H11Y17239   3.996   5.540   5.439 -0.1666  0.4511  0.6760
  155SAPE  C31217240   4.114   5.503   5.265  0.0764 -0.1024 -0.0789
  155SAPE  H12X17241   4.026   5.490   5.199  0.0096 -1.2789  0.2287
  155SAPE  H12Y17242   4.151   5.402   5.293  0.0722  0.3979  1.8608
  155SAPE  C31317243   4.228   5.569   5.178 -0.2143 -0.4598 -0.1231
  155SAPE  H13X17244   4.255   5.509   5.089 -2.7725  0.3019 -1.5184
  155SAPE  H13Y17245   4.317   5.571   5.244  1.1800  1.9985 -1.9121
  155SAPE  C31417246   4.203   5.708   5.134  0.1322  0.1678 -0.6986
  155SAPE  H14X17247   4.174   5.780   5.212 -0.7897 -0.8345 -0.0843
  155SAPE  H14Y17248   4.124   5.708   5.056  1.6422 -2.3014 -2.3918
  155SAPE  C31517249   4.324   5.775   5.063 -0.4582  0.1517  0.3429
  155SAPE  H15X17250   4.376   5.717   4.983 -0.8402  0.4867 -0.1557
  155SAPE  H15Y17251   4.407   5.782   5.137  0.9951  1.3861 -1.3082
  155SAPE  C31617252   4.281   5.911   5.009 -0.4662 -0.0814 -0.7865
  155SAPE  H16X17253   4.358   5.989   5.024  0.4185 -1.1699  0.5905
  155SAPE  H16Y17254   4.185   5.932   5.061 -0.7258 -0.7677 -0.9802
  155SAPE  C31717255   4.265   5.901   4.856  0.1113  0.1851  0.0166
  155SAPE  H17X17256   4.169   5.945   4.821 -0.6745  1.1834  3.0818
  155SAPE  H17Y17257   4.263   5.794   4.827  1.4338 -0.1794  1.1154
  155SAPE  C31817258   4.365   5.983   4.775  0.1442  0.1777 -0.0621
  155SAPE  H18X17259   4.326   5.985   4.671  0.4697  0.7491 -0.1766
  155SAPE  H18Y17260   4.460   5.929   4.790 -0.8975 -1.3734  1.3888
  155SAPE  H18Z17261   4.382   6.090   4.800  2.3085 -0.3347  0.8418
  156SAPE     N17262   6.969   2.237   6.092  0.3617 -1.2644  0.5458
  156SAPE   HN117263   7.061   2.190   6.080  1.8083  1.6969 -0.9446
  156SAPE   HN217264   6.938   2.218   6.190 -0.0006 -0.3854  0.6118
  156SAPE   HN317265   6.894   2.187   6.040 -1.3586  2.1531 -0.5433
  156SAPE   C1217266   6.967   2.384   6.053 -0.8081 -0.1598 -0.0322
  156SAPE  H12A17267   6.990   2.389   5.944 -1.5478  0.6806 -0.1625
  156SAPE  H12B17268   7.048   2.439   6.105 -0.0902 -0.0059 -1.2757
  156SAPE   C1117269   6.827   2.451   6.061 -0.2607 -0.2787 -0.2151
  156SAPE  H11A17270   6.753   2.392   6.002  1.6342 -1.1764 -1.8246
  156SAPE  H11B17271   6.829   2.548   6.007 -0.0177  1.0363  2.0148
  156SAPE     P17272   6.790   2.585   6.289  0.0350  0.1174 -0.0090
  156SAPE   O1317273   6.750   2.540   6.422 -0.0747  0.2934 -0.1805
  156SAPE   O1417274   6.921   2.654   6.279  0.5251  0.2043  0.1592
  156SAPE   O1217275   6.778   2.453   6.198 -0.9684 -0.3331  0.2728
  156SAPE   O1117276   6.677   2.673   6.232  0.5638  0.1194  0.2643
  156SAPE    C117277   6.538   2.654   6.255 -0.8036  0.1174 -0.0989
  156SAPE    HA17278   6.511   2.620   6.357 -2.3770  0.1252 -0.4791
  156SAPE    HB17279   6.486   2.752   6.251 -1.0623 -0.0437 -0.9522
  156SAPE    C217280   6.472   2.561   6.143  0.2324 -0.6535 -0.0735
  156SAPE    HS17281   6.510   2.458   6.161  1.8956 -0.5016 -2.2683
  156SAPE   O2117282   6.515   2.607   6.011  0.3722 -0.4949 -0.3223
  156SAPE   C2117283   6.517   2.515   5.927  0.2066  0.3578  0.2731
  156SAPE   O2217284   6.504   2.393   5.949 -0.2383 -0.2115 -0.4899
  156SAPE   C2217285   6.538   2.567   5.785 -0.2215  0.1209 -0.8734
  156SAPE   H2R17286   6.439   2.583   5.737 -1.8181  1.0740  2.4283
  156SAPE   H2S17287   6.588   2.666   5.791  1.2989 -0.6986  2.0701
  156SAPE    C317288   6.314   2.570   6.150  0.1201  0.1470  0.6250
  156SAPE    HX17289   6.285   2.677   6.150 -1.8322 -0.3370 -0.4492
  156SAPE    HY17290   6.295   2.524   6.250 -0.4332 -0.2295  0.3546
  156SAPE   O3117291   6.254   2.497   6.036  0.3866 -0.1777 -0.1057
  156SAPE   C3117292   6.157   2.555   5.970 -0.1855 -0.0286  0.4981
  156SAPE   O3217293   6.115   2.668   5.987  0.2143  0.3761  0.4900
  156SAPE   C3217294   6.111   2.452   5.867  0.2527 -0.2045  0.3548
  156SAPE   H2X17295   6.044   2.378   5.917 -0.6623 -2.2265 -3.5031
  156SAPE   H2Y17296   6.199   2.396   5.830 -1.7021 -1.6020 -2.5840
  156SAPE   C2317297   6.612   2.467   5.685  1.3140 -0.2239  0.3503
  156SAPE   H3R17298   6.553   2.373   5.680 -0.4826  0.8785 -0.1176
  156SAPE   H3S17299   6.710   2.448   5.734  1.4998 -1.5110 -0.4617
  156SAPE   C2417300   6.640   2.540   5.553 -0.4011 -0.3441 -0.1935
  156SAPE   H4R17301   6.734   2.493   5.517 -0.3667  0.0908 -0.6817
  156SAPE   H4S17302   6.654   2.648   5.578  0.4532 -1.0480  2.8669
  156SAPE   C2517303   6.527   2.537   5.452  0.2931 -0.7638  0.9830
  156SAPE   H5R17304   6.439   2.598   5.476 -1.7400 -2.8339 -0.6895
  156SAPE   C2617305   6.547   2.502   5.324  0.1501  0.5805 -0.5368
  156SAPE   H6R17306   6.459   2.515   5.259 -0.9104  1.9610  1.0843
  156SAPE   C2717307   6.668   2.443   5.257 -0.5816  0.3152  0.2401
  156SAPE   H7R17308   6.639   2.394   5.162 -0.3238 -0.7690  0.7131
  156SAPE   H7S17309   6.725   2.371   5.319  1.2668  0.8119 -0.8028
  156SAPE   C2817310   6.767   2.560   5.220  0.0503 -0.1511 -0.5106
  156SAPE   H8R17311   6.836   2.583   5.302 -0.4396 -1.6341  0.3560
  156SAPE   C2917312   6.779   2.627   5.116 -0.9913 -0.9939  0.4239
  156SAPE   H9R17313   6.861   2.701   5.115 -0.4668 -1.2821  4.2403
  156SAPE  C21017314   6.715   2.602   4.983 -0.0657  0.1523 -0.1927
  156SAPE  H10R17315   6.605   2.598   4.993 -0.1684 -2.2432 -1.4266
  156SAPE  H10S17316   6.750   2.501   4.951 -0.0622  0.2874 -0.6196
  156SAPE  C21117317   6.739   2.705   4.872 -0.0778 -0.2272  0.4031
  156SAPE  H11R17318   6.670   2.790   4.867 -0.0217 -0.1786  0.4440
  156SAPE  C21217319   6.823   2.687   4.768  0.3894  0.3924 -0.3249
  156SAPE  H12R17320   6.827   2.760   4.686  0.6446  1.8011  0.8884
  156SAPE  C21317321   6.938   2.585   4.762 -0.4462 -0.6260 -0.4746
  156SAPE  H13R17322   6.909   2.499   4.698 -3.1285 -1.0568  1.1945
  156SAPE  H13S17323   6.958   2.547   4.865 -1.8566  3.3341  1.4778
  156SAPE  C21417324   7.062   2.647   4.712  0.0613 -0.1273 -0.3062
  156SAPE  H14R17325   7.119   2.698   4.791 -0.0186  0.1244 -0.4086
  156SAPE  C21517326   7.126   2.641   4.592  0.6307  0.1627 -0.0076
  156SAPE  H15R17327   7.228   2.681   4.582  2.5586 -3.8510  1.2792
  156SAPE  C21617328   7.074   2.576   4.472  0.3706  1.0944  0.5261
  156SAPE  H16R17329   7.065   2.653   4.393  0.9195  1.2390  0.5981
  156SAPE  H16S17330   6.970   2.538   4.483  1.2284 -0.9525  2.2668
  156SAPE  C21717331   7.166   2.453   4.419 -0.2337  0.1764 -0.4233
  156SAPE  H17R17332   7.266   2.502   4.413 -0.2474  0.5453  1.5919
  156SAPE  H17S17333   7.141   2.424   4.315  0.3800  0.0738 -0.5474
  156SAPE  C21817334   7.193   2.333   4.512  0.1031 -0.2211 -0.3342
  156SAPE  H18R17335   7.100   2.309   4.566  0.1537 -0.4777 -0.3603
  156SAPE  H18S17336   7.264   2.355   4.595  0.8698  1.5040 -1.3894
  156SAPE  C21917337   7.256   2.216   4.440 -0.2807  0.1388  0.9886
  156SAPE  H19R17338   7.353   2.262   4.411 -0.3830 -0.1463  0.1838
  156SAPE  H19S17339   7.194   2.193   4.351  1.2130 -0.4853  0.0679
  156SAPE  C22017340   7.277   2.094   4.520  0.1070  0.4797 -0.0110
  156SAPE  H20R17341   7.343   2.122   4.604  1.9435  0.3313 -1.3461
  156SAPE  H20S17342   7.309   2.003   4.464  0.1826  0.8984 -0.6536
  156SAPE  H20T17343   7.186   2.057   4.573  2.0827 -2.0533  1.8492
  156SAPE   C3317344   6.021   2.508   5.753 -0.3725 -0.0137  0.6944
  156SAPE   H3X17345   5.933   2.553   5.804 -1.6512 -1.0326 -0.5191
  156SAPE   H3Y17346   5.983   2.421   5.695  0.3685 -0.8340  1.4062
  156SAPE   C3417347   6.094   2.600   5.657 -0.1995  0.6138 -0.3143
  156SAPE   H4X17348   6.156   2.666   5.721 -0.9524  0.5118  0.5270
  156SAPE   H4Y17349   6.014   2.662   5.611 -1.7241  1.1761  2.8644
  156SAPE   C3517350   6.190   2.538   5.562  0.5020  0.5014  0.0383
  156SAPE   H5X17351   6.282   2.496   5.607 -0.2657 -2.1713 -0.7066
  156SAPE   H5Y17352   6.229   2.606   5.483  0.1041  0.0926 -0.5273
  156SAPE   C3617353   6.114   2.434   5.473  0.4516  0.8283  0.0106
  156SAPE   H6X17354   6.013   2.475   5.452 -0.3005 -1.0082 -0.2288
  156SAPE   H6Y17355   6.107   2.342   5.535 -0.2756  0.9949  0.1844
  156SAPE   C3717356   6.170   2.413   5.329  0.5215 -0.1563  0.4898
  156SAPE   H7X17357   6.277   2.382   5.320  0.0438 -2.2838  1.5531
  156SAPE   H7Y17358   6.157   2.508   5.274 -0.0265  0.2818  1.3521
  156SAPE   C3817359   6.095   2.307   5.244  0.6000 -0.3335 -0.3510
  156SAPE   H8X17360   5.988   2.314   5.271  0.6656 -1.1865  0.1715
  156SAPE   H8Y17361   6.129   2.206   5.276  1.4715 -0.1035 -0.5053
  156SAPE   C3917362   6.103   2.342   5.099 -0.6690  0.1256 -0.7815
  156SAPE   H9X17363   6.210   2.361   5.076  0.5327 -0.2738  3.5315
  156SAPE   H9Y17364   6.043   2.435   5.083 -3.3678 -1.3474  0.1651
  156SAPE  C31017365   6.055   2.224   5.019 -0.2912 -0.5661 -0.3069
  156SAPE  H10X17366   5.974   2.168   5.072  1.6264 -2.4863  0.7659
  156SAPE  H10Y17367   6.140   2.152   5.014  0.4316  0.3276 -1.2780
  156SAPE  C31117368   6.011   2.263   4.879  0.0333 -0.1695  0.3129
  156SAPE  H11X17369   6.082   2.341   4.844  0.2913 -0.0988  0.9675
  156SAPE  H11Y17370   5.915   2.316   4.895  0.8062  1.5102 -0.3345
  156SAPE  C31217371   5.997   2.165   4.763 -0.1967 -0.4287  0.3393
  156SAPE  H12X17372   6.101   2.143   4.730 -0.1418 -1.3343  1.0722
  156SAPE  H12Y17373   5.953   2.217   4.675 -0.9715 -0.1556  0.8846
  156SAPE  C31317374   5.926   2.037   4.808 -0.4744 -0.1028  0.0245
  156SAPE  H13X17375   5.827   2.055   4.855 -1.5270  0.7215 -2.3539
  156SAPE  H13Y17376   5.999   1.983   4.872  0.9266 -1.4351 -2.5259
  156SAPE  C31417377   5.896   1.953   4.686  0.1110 -0.0273  0.5242
  156SAPE  H14X17378   5.857   1.855   4.722  1.2785 -0.8035 -0.2445
  156SAPE  H14Y17379   5.989   1.925   4.632  0.3457 -0.1120  0.9709
  156SAPE  C31517380   5.788   2.015   4.585 -0.0810 -0.6620 -0.1122
  156SAPE  H15X17381   5.839   2.102   4.538  0.0209 -0.8328 -0.3207
  156SAPE  H15Y17382   5.700   2.062   4.634  0.8512 -0.2805  1.2673
  156SAPE  C31617383   5.746   1.908   4.484  0.4869 -0.1079  0.2576
  156SAPE  H16X17384   5.707   1.827   4.549  3.4623 -0.3400  1.9129
  156SAPE  H16Y17385   5.831   1.864   4.428  1.6761  1.5302  0.6855
  156SAPE  C31717386   5.639   1.958   4.377  0.3505  0.3652 -0.2050
  156SAPE  H17X17387   5.569   2.028   4.427 -2.4431 -1.1036 -1.7957
  156SAPE  H17Y17388   5.569   1.880   4.341 -0.7482  0.4957  1.5221
  156SAPE  C31817389   5.706   2.030   4.264  0.2472  0.0285  0.2881
  156SAPE  H18X17390   5.626   2.078   4.203 -0.3004 -1.4408 -0.1905
  156SAPE  H18Y17391   5.762   1.954   4.206  3.8201 -0.9609  4.4993
  156SAPE  H18Z17392   5.777   2.108   4.299 -0.8998  1.1289  0.2624
  157SAPE     N17393   0.252   5.959   6.423 -0.4752  0.1952  0.7110
  157SAPE   HN117394   0.250   5.978   6.525 -0.5474 -1.5141  1.0607
  157SAPE   HN217395   0.350   5.974   6.393 -0.9983  0.5285 -0.9648
  157SAPE   HN317396   0.200   6.034   6.372  3.3714  1.7708 -1.2846
  157SAPE   C1217397   0.211   5.820   6.378 -0.3234  0.3836 -0.1995
  157SAPE  H12A17398   0.103   5.796   6.364  0.0981  0.1671 -4.4616
  157SAPE  H12B17399   0.258   5.757   6.456  0.9699  2.0959  0.4597
  157SAPE   C1117400   0.249   5.798   6.232 -0.3764 -0.7067 -0.5787
  157SAPE  H11A17401   0.207   5.872   6.160 -1.9133  0.0827  1.0403
  157SAPE  H11B17402   0.192   5.709   6.200 -2.2253  0.4378 -0.6509
  157SAPE     P17403   0.483   5.899   6.170 -0.1052 -0.0697 -0.2532
  157SAPE   O1317404   0.474   6.001   6.275  0.0103 -0.5233  0.2663
  157SAPE   O1417405   0.620   5.847   6.146 -0.5722 -0.9240  0.2885
  157SAPE   O1217406   0.389   5.777   6.216  0.3258 -0.0515  0.0828
  157SAPE   O1117407   0.406   5.948   6.042 -0.3206  0.0591  0.0735
  157SAPE    C117408   0.411   5.878   5.916 -0.6138 -0.2713 -0.6287
  157SAPE    HA17409   0.517   5.864   5.884 -1.1650 -3.5924 -1.3323
  157SAPE    HB17410   0.349   5.787   5.919 -0.0390 -0.6403  1.6552
  157SAPE    C217411   0.375   5.977   5.802  0.3137  0.0116  0.3482
  157SAPE    HS17412   0.397   5.928   5.705  1.2560 -1.2203  1.1576
  157SAPE   O2117413   0.450   6.097   5.822 -0.3345  0.1095 -0.0202
  157SAPE   C2117414   0.575   6.099   5.795  0.6714 -0.3981  0.8465
  157SAPE   O2217415   0.643   6.007   5.752 -0.1791 -0.0302  0.1844
  157SAPE   C2217416   0.619   6.240   5.853  0.5637 -0.8276  0.8058
  157SAPE   H2R17417   0.593   6.252   5.960  1.6333  1.1701  0.8863
  157SAPE   H2S17418   0.729   6.242   5.834  0.9333 -0.0914  2.7823
  157SAPE    C317419   0.226   6.016   5.819  1.0251  0.2737 -0.6523
  157SAPE    HX17420   0.211   6.037   5.927 -1.4816 -4.8453  0.3326
  157SAPE    HY17421   0.147   5.938   5.811  0.1136  0.5721  3.3022
  157SAPE   O3117422   0.181   6.122   5.739 -0.3938  0.2169 -0.3832
  157SAPE   C3117423   0.166   6.243   5.798  0.2400  0.4589 -0.0678
  157SAPE   O3217424   0.168   6.261   5.917  0.2622  0.4891 -0.4756
  157SAPE   C3217425   0.129   6.348   5.687  0.0613 -0.0039 -0.3302
  157SAPE   H2X17426   0.021   6.332   5.667 -0.1375  2.0626 -1.1621
  157SAPE   H2Y17427   0.180   6.327   5.591 -2.0136  3.1966 -2.3223
  157SAPE   C2317428   0.556   6.361   5.781 -0.3668  0.2236  0.0688
  157SAPE   H3R17429   0.626   6.437   5.824  0.6960 -1.8765  2.3334
  157SAPE   H3S17430   0.449   6.382   5.801 -0.8785  0.5648 -2.6607
  157SAPE   C2417431   0.569   6.372   5.626 -0.0750  0.6746 -0.1047
  157SAPE   H4R17432   0.499   6.304   5.572  0.6997  0.4991 -0.9249
  157SAPE   H4S17433   0.671   6.333   5.602  0.6976  1.2780  1.9503
  157SAPE   C2517434   0.564   6.512   5.573 -0.0924  0.1315  0.1034
  157SAPE   H5R17435   0.593   6.584   5.650 -3.4888 -1.1679  2.8980
  157SAPE   C2617436   0.532   6.561   5.456 -0.4785  0.4578  0.8677
  157SAPE   H6R17437   0.536   6.669   5.436 -1.4701  0.6762  1.7761
  157SAPE   C2717438   0.497   6.482   5.333  0.7400  0.5513 -0.1730
  157SAPE   H7R17439   0.400   6.525   5.300  0.9472  0.2990 -1.1603
  157SAPE   H7S17440   0.457   6.388   5.375  2.6206  0.1096  0.7472
  157SAPE   C2817441   0.603   6.489   5.223 -0.9485 -0.3006 -0.5553
  157SAPE   H8R17442   0.701   6.448   5.251 -0.7696 -0.3028 -1.1663
  157SAPE   C2917443   0.590   6.537   5.100 -0.1194  0.1279  0.8592
  157SAPE   H9R17444   0.688   6.538   5.050  0.0944 -0.4656  1.2538
  157SAPE  C21017445   0.465   6.593   5.034 -0.1635  0.1689 -0.6312
  157SAPE  H10R17446   0.500   6.664   4.955 -1.2087  1.7643  0.2737
  157SAPE  H10S17447   0.416   6.661   5.107 -0.1455 -0.1226 -0.3448
  157SAPE  C21117448   0.356   6.498   4.998  0.3337  0.1568  0.2933
  157SAPE  H11R17449   0.326   6.418   5.068 -0.2310 -1.2223 -1.4337
  157SAPE  C21217450   0.306   6.496   4.869 -0.2412 -0.5746  0.3576
  157SAPE  H12R17451   0.234   6.418   4.840 -0.5528 -0.0136 -0.4013
  157SAPE  C21317452   0.340   6.596   4.761 -0.1359  0.0998 -0.1777
  157SAPE  H13R17453   0.451   6.600   4.755 -0.1273  3.2938  0.4997
  157SAPE  H13S17454   0.325   6.696   4.807 -5.9345 -0.9209  0.8808
  157SAPE  C21417455   0.274   6.593   4.621 -0.1059  0.2939 -0.0630
  157SAPE  H14R17456   0.323   6.535   4.540  1.3206  1.3327  0.0236
  157SAPE  C21517457   0.158   6.655   4.586 -0.2593  0.3650 -0.7010
  157SAPE  H15R17458   0.112   6.631   4.489 -1.8019  0.0019  0.0870
  157SAPE  C21617459   0.068   6.722   4.689 -0.7011 -0.1657 -0.0023
  157SAPE  H16R17460   0.117   6.728   4.788 -0.6112  1.2225 -0.1090
  157SAPE  H16S17461  -0.022   6.661   4.709 -1.0450  1.0138  2.4144
  157SAPE  C21717462   0.030   6.865   4.641  0.3681  0.3636 -0.0618
  157SAPE  H17R17463   0.132   6.909   4.636  0.9194 -0.8967 -0.2266
  157SAPE  H17S17464  -0.005   6.916   4.733  1.9592 -0.7558  1.2089
  157SAPE  C21817465  -0.070   6.879   4.525  0.3828 -0.0596 -0.1514
  157SAPE  H18R17466  -0.157   6.814   4.549 -0.4808  2.1751  3.6803
  157SAPE  H18S17467  -0.015   6.835   4.439  0.7648 -0.4671  0.2949
  157SAPE  C21917468  -0.142   7.018   4.512 -0.4078  0.5445 -0.2232
  157SAPE  H19R17469  -0.197   7.046   4.605  1.1230 -0.7176  1.1251
  157SAPE  H19S17470  -0.220   6.999   4.436  0.3800 -4.0138 -0.1931
  157SAPE  C22017471  -0.048   7.127   4.481 -0.5703 -0.4208 -0.3110
  157SAPE  H20R17472   0.016   7.094   4.396 -0.7543 -0.2228 -0.5281
  157SAPE  H20S17473   0.013   7.145   4.572 -1.1080 -0.6016  0.0892
  157SAPE  H20T17474  -0.100   7.216   4.440  0.8868  1.1420  1.1135
  157SAPE   C3317475   0.158   6.495   5.716  1.0619 -0.6899  0.4252
  157SAPE   H3X17476   0.267   6.514   5.720  1.1150 -0.9966  0.4718
  157SAPE   H3Y17477   0.116   6.519   5.816 -0.6785 -1.0100 -0.1985
  157SAPE   C3417478   0.097   6.596   5.624 -0.2543  0.0961  0.5265
  157SAPE   H4X17479  -0.011   6.576   5.612  0.1854 -1.7277 -0.8653
  157SAPE   H4Y17480   0.139   6.588   5.522  0.0511  0.9334  0.5758
  157SAPE   C3517481   0.111   6.740   5.677 -0.4559 -0.0534 -0.1505
  157SAPE   H5X17482   0.206   6.757   5.732 -0.1282  0.1716 -0.7742
  157SAPE   H5Y17483   0.035   6.770   5.752 -1.2359 -0.7266 -0.6581
  157SAPE   C3617484   0.112   6.834   5.552  0.2872 -0.0534 -0.6802
  157SAPE   H6X17485   0.089   6.938   5.585  1.1041  0.8666 -2.8043
  157SAPE   H6Y17486   0.030   6.793   5.490  1.1471 -0.3756 -1.6273
  157SAPE   C3717487   0.246   6.832   5.475  0.5196  0.1618  0.3106
  157SAPE   H7X17488   0.244   6.754   5.396 -1.2790 -0.0111  0.4787
  157SAPE   H7Y17489   0.336   6.808   5.536  0.0923  0.4241  1.0480
  157SAPE   C3817490   0.284   6.965   5.409 -0.1450 -0.2253  0.6301
  157SAPE   H8X17491   0.381   6.961   5.355  0.4142 -2.6759  1.6751
  157SAPE   H8Y17492   0.296   7.041   5.488  0.1983 -0.0204  0.3830
  157SAPE   C3917493   0.182   7.027   5.313  0.8226  0.1570  0.0373
  157SAPE   H9X17494   0.147   7.126   5.349  0.0177  0.4594 -1.4869
  157SAPE   H9Y17495   0.093   6.962   5.297  1.0261 -0.2664  0.6048
  157SAPE  C31017496   0.247   7.072   5.184  0.5432  1.0079 -0.0866
  157SAPE  H10X17497   0.339   7.133   5.195  0.7628  0.5642  0.6095
  157SAPE  H10Y17498   0.162   7.117   5.129  0.3477  0.9362  0.1516
  157SAPE  C31117499   0.289   6.943   5.110 -0.2318  0.6496  0.3942
  157SAPE  H11X17500   0.215   6.861   5.124  1.0653 -1.4066 -3.3978
  157SAPE  H11Y17501   0.387   6.902   5.141  0.6096  0.4725 -2.2163
  157SAPE  C31217502   0.296   6.968   4.956  0.3587  0.1502  0.2117
  157SAPE  H12X17503   0.203   6.941   4.902 -0.2794 -0.1947  1.4471
  157SAPE  H12Y17504   0.369   6.892   4.922 -0.4910 -1.0588  0.9904
  157SAPE  C31317505   0.335   7.108   4.907 -0.4783  0.8018  0.2732
  157SAPE  H13X17506   0.404   7.158   4.978 -0.0270  0.3038  0.1896
  157SAPE  H13Y17507   0.243   7.170   4.899 -0.7679  0.3177 -0.2500
  157SAPE  C31417508   0.386   7.104   4.761  0.4011 -0.5458 -0.9626
  157SAPE  H14X17509   0.322   7.046   4.692 -0.9075 -0.2516 -0.0314
  157SAPE  H14Y17510   0.478   7.047   4.736 -0.8333 -3.7575  1.2045
  157SAPE  C31517511   0.398   7.251   4.702 -0.0441  0.4536 -0.0586
  157SAPE  H15X17512   0.299   7.297   4.718  0.1295  0.7844  0.0792
  157SAPE  H15Y17513   0.404   7.237   4.592 -3.0939  1.6609 -0.4561
  157SAPE  C31617514   0.500   7.341   4.773  0.8585  0.4183 -0.1634
  157SAPE  H16X17515   0.604   7.306   4.756  1.2966  1.3266  0.5625
  157SAPE  H16Y17516   0.482   7.343   4.882 -3.7273 -1.4978 -0.6608
  157SAPE  C31717517   0.494   7.493   4.732 -0.1278 -0.1966  0.0215
  157SAPE  H17X17518   0.398   7.534   4.769 -0.4694 -0.3153 -0.6996
  157SAPE  H17Y17519   0.490   7.485   4.621  0.4906 -1.8785  0.0990
  157SAPE  C31817520   0.611   7.569   4.790 -1.2859 -0.7966  0.3354
  157SAPE  H18X17521   0.581   7.664   4.839  0.2557  0.1440 -0.4621
  157SAPE  H18Y17522   0.690   7.598   4.717 -1.0180  0.1408  0.9866
  157SAPE  H18Z17523   0.659   7.506   4.867  1.8103 -0.6788 -1.3494
  158SAPE     N17524   1.966   3.452   6.476 -0.0114 -0.4296  0.4977
  158SAPE   HN117525   1.919   3.360   6.469 -0.7808  0.0249 -0.8185
  158SAPE   HN217526   2.051   3.450   6.417  0.0122 -0.5118  0.5355
  158SAPE   HN317527   2.000   3.460   6.574  0.4361  0.9337  0.2511
  158SAPE   C1217528   1.869   3.566   6.449  0.7001  0.0353  0.3434
  158SAPE  H12A17529   1.769   3.524   6.475  0.9760 -1.2903 -0.6411
  158SAPE  H12B17530   1.874   3.586   6.340  0.9509 -2.3102 -0.1259
  158SAPE   C1117531   1.902   3.696   6.528  0.0106  0.0071  0.2830
  158SAPE  H11A17532   1.904   3.687   6.638 -0.9540  0.0904  0.3215
  158SAPE  H11B17533   1.812   3.755   6.499  0.1884  1.3982  2.3940
  158SAPE     P17534   2.037   3.898   6.427 -0.1747 -0.4334  0.4411
  158SAPE   O1317535   1.970   3.999   6.519 -0.4954 -0.2944  0.6016
  158SAPE   O1417536   2.182   3.917   6.394 -0.2950  0.1129  0.1390
  158SAPE   O1217537   2.028   3.754   6.493  0.0005  0.3793  0.5923
  158SAPE   O1117538   1.941   3.889   6.295 -0.4765  0.7028  0.3284
  158SAPE    C117539   1.997   3.822   6.178 -0.0372  0.8440 -0.0411
  158SAPE    HA17540   2.063   3.736   6.203  2.9071  2.5471 -1.3995
  158SAPE    HB17541   1.924   3.758   6.124  1.7513 -0.9997 -0.3963
  158SAPE    C217542   2.078   3.897   6.080 -0.1492 -0.2589  0.5547
  158SAPE    HS17543   2.144   3.958   6.145  2.0253 -0.8429 -0.9800
  158SAPE   O2117544   1.990   3.989   6.009  0.3628  0.3149 -0.3656
  158SAPE   C2117545   2.036   4.105   5.960 -0.5660 -0.2459 -0.3743
  158SAPE   O2217546   2.157   4.137   5.966  0.1709 -0.4131 -0.7923
  158SAPE   C2217547   1.917   4.189   5.909 -0.1792 -0.0860 -0.3785
  158SAPE   H2R17548   1.847   4.130   5.847  0.9459 -2.2078  0.2561
  158SAPE   H2S17549   1.872   4.216   6.007 -0.8159  1.5634 -1.0892
  158SAPE    C317550   2.150   3.800   5.978 -0.2150 -0.2042 -0.1374
  158SAPE    HX17551   2.077   3.717   5.964 -1.9672  1.4393 -1.1711
  158SAPE    HY17552   2.238   3.768   6.038 -0.5088  1.9537  1.5637
  158SAPE   O3117553   2.181   3.858   5.845 -0.0666  0.4343  0.1809
  158SAPE   C3117554   2.310   3.893   5.828 -0.4514  0.8246  0.1673
  158SAPE   O3217555   2.403   3.861   5.902 -0.1326 -0.2374  0.3241
  158SAPE   C3217556   2.332   3.963   5.693 -0.2767  0.1213 -0.4365
  158SAPE   H2X17557   2.269   4.054   5.693  0.8062  0.8930 -0.3448
  158SAPE   H2Y17558   2.300   3.893   5.612  0.7539  1.7194 -2.3247
  158SAPE   C2317559   1.954   4.325   5.847  0.3156 -0.7250 -0.3455
  158SAPE   H3R17560   2.030   4.307   5.768  2.6546  0.6954  1.4493
  158SAPE   H3S17561   1.994   4.398   5.921  1.6940 -0.3183 -1.4243
  158SAPE   C2417562   1.829   4.389   5.781 -0.1732  0.0347 -0.8573
  158SAPE   H4R17563   1.743   4.401   5.851  0.6563  1.3653 -0.0245
  158SAPE   H4S17564   1.793   4.308   5.714 -1.4416 -1.6537  1.6874
  158SAPE   C2517565   1.843   4.514   5.701 -0.1834  0.3714  0.0876
  158SAPE   H5R17566   1.854   4.605   5.762  3.4424  2.0264 -2.6888
  158SAPE   C2617567   1.851   4.530   5.566  0.3904  0.1764 -0.5888
  158SAPE   H6R17568   1.840   4.627   5.516  0.9573 -0.7197 -2.5578
  158SAPE   C2717569   1.853   4.416   5.469  0.5488 -0.0099  0.2189
  158SAPE   H7R17570   1.891   4.320   5.510 -0.7022  0.1437  1.8531
  158SAPE   H7S17571   1.930   4.421   5.389  0.1215 -3.6255 -0.5796
  158SAPE   C2817572   1.715   4.383   5.410  0.2247  0.6956  0.1752
  158SAPE   H8R17573   1.645   4.326   5.473  0.8440 -1.3931 -0.9217
  158SAPE   C2917574   1.676   4.400   5.287 -0.3762 -0.6279  0.4807
  158SAPE   H9R17575   1.571   4.383   5.258 -0.8323 -1.6408  2.5851
  158SAPE  C21017576   1.762   4.465   5.178 -0.0082  0.3540  0.3768
  158SAPE  H10R17577   1.834   4.395   5.130 -0.1466 -0.3204  1.1221
  158SAPE  H10S17578   1.819   4.547   5.228 -0.0939  0.3057  0.5536
  158SAPE  C21117579   1.680   4.507   5.057  0.2779  0.4856  0.3699
  158SAPE  H11R17580   1.571   4.493   5.067  0.3053 -0.7096 -0.7321
  158SAPE  C21217581   1.730   4.556   4.942  0.3085 -0.3130 -0.1778
  158SAPE  H12R17582   1.661   4.600   4.869  0.2871  2.0131  1.1532
  158SAPE  C21317583   1.876   4.544   4.903  0.3503  0.3922 -0.5318
  158SAPE  H13R17584   1.897   4.436   4.920 -0.7795  0.2665  0.2476
  158SAPE  H13S17585   1.925   4.608   4.979 -0.4284 -0.0720  0.3947
  158SAPE  C21417586   1.916   4.588   4.764  0.3925  0.3730 -0.0789
  158SAPE  H14R17587   1.833   4.625   4.702 -1.7916 -1.6201  1.4828
  158SAPE  C21517588   2.045   4.581   4.723  0.1849  0.2596  0.2513
  158SAPE  H15R17589   2.065   4.623   4.623 -0.8126 -1.3255 -0.6513
  158SAPE  C21617590   2.156   4.526   4.803 -0.0606  0.4266 -0.3384
  158SAPE  H16R17591   2.152   4.415   4.805 -0.2568  0.4335  1.1236
  158SAPE  H16S17592   2.144   4.554   4.910  0.3828 -0.1882 -0.1220
  158SAPE  C21717593   2.301   4.577   4.765 -0.5813 -0.7982 -0.0358
  158SAPE  H17R17594   2.304   4.678   4.811  1.0676 -0.8925  0.0950
  158SAPE  H17S17595   2.329   4.584   4.658 -0.3603  0.3672  0.0806
  158SAPE  C21817596   2.415   4.501   4.835  0.5493 -0.6676  0.9453
  158SAPE  H18R17597   2.384   4.504   4.941  1.5483  1.1703  1.2327
  158SAPE  H18S17598   2.502   4.571   4.831  1.1427 -1.3743  1.1406
  158SAPE  C21917599   2.440   4.363   4.781  0.5372  0.0778 -0.4849
  158SAPE  H19R17600   2.340   4.315   4.785  0.8821 -0.5726  1.4557
  158SAPE  H19S17601   2.502   4.319   4.861  1.2881  1.4307 -0.3008
  158SAPE  C22017602   2.482   4.348   4.638 -0.3656 -0.0571 -0.1111
  158SAPE  H20R17603   2.567   4.417   4.618  2.0547 -3.2244 -1.6453
  158SAPE  H20S17604   2.398   4.372   4.569  0.8629  0.3208 -1.5255
  158SAPE  H20T17605   2.518   4.244   4.620  0.2066  0.3078 -1.1743
  158SAPE   C3317606   2.479   4.008   5.680  0.6138 -0.3584  0.5588
  158SAPE   H3X17607   2.548   3.920   5.678  1.4098  0.2209 -2.1890
  158SAPE   H3Y17608   2.510   4.072   5.765  1.2393 -2.1268  1.7244
  158SAPE   C3417609   2.505   4.089   5.545 -0.4270 -1.4161 -0.3294
  158SAPE   H4X17610   2.607   4.134   5.541 -0.0496 -2.2701 -0.5616
  158SAPE   H4Y17611   2.438   4.177   5.532 -0.5227 -1.2998  0.8210
  158SAPE   C3517612   2.492   3.994   5.425 -0.1661  0.3269 -0.1922
  158SAPE   H5X17613   2.385   3.977   5.402 -0.5770  0.0340  1.7090
  158SAPE   H5Y17614   2.532   3.895   5.455 -0.1242  0.5219  0.4168
  158SAPE   C3617615   2.570   4.038   5.305  0.0497  0.1789 -0.4778
  158SAPE   H6X17616   2.678   4.045   5.327 -0.3981  0.7915  1.8026
  158SAPE   H6Y17617   2.534   4.138   5.272  2.4114  1.3431  0.2386
  158SAPE   C3717618   2.543   3.954   5.178 -0.0706 -0.0680 -0.1699
  158SAPE   H7X17619   2.434   3.931   5.176 -0.1002  0.1163 -0.6329
  158SAPE   H7Y17620   2.615   3.870   5.186  2.3117  1.9789  1.0241
  158SAPE   C3817621   2.566   4.036   5.046 -0.8413 -0.4511  0.6137
  158SAPE   H8X17622   2.537   4.143   5.043 -1.3629 -0.5326  2.2372
  158SAPE   H8Y17623   2.510   3.982   4.966 -2.7879  0.9914  0.9463
  158SAPE   C3917624   2.710   4.017   4.994 -0.0634 -0.1593 -0.2548
  158SAPE   H9X17625   2.709   3.912   4.958  1.2354 -0.9996  1.8956
  158SAPE   H9Y17626   2.785   4.027   5.076 -0.2348 -1.3977  0.0715
  158SAPE  C31017627   2.762   4.122   4.891 -0.0841 -0.2302  0.0582
  158SAPE  H10X17628   2.753   4.224   4.934 -1.3676 -0.4341  0.3251
  158SAPE  H10Y17629   2.686   4.109   4.811  1.3775 -1.1097 -1.2293
  158SAPE  C31117630   2.904   4.081   4.840 -0.2728  0.1933  0.3535
  158SAPE  H11X17631   2.892   3.978   4.800 -0.2657  0.1330  0.5047
  158SAPE  H11Y17632   2.970   4.065   4.928  0.5681  1.4413 -0.0227
  158SAPE  C31217633   2.964   4.180   4.738  0.3398  0.5259 -0.4918
  158SAPE  H12X17634   3.069   4.160   4.706 -0.0478 -0.5301 -1.1809
  158SAPE  H12Y17635   2.965   4.273   4.797 -1.4935 -0.8227  1.8428
  158SAPE  C31317636   2.868   4.198   4.617  0.6746 -0.5695 -0.0985
  158SAPE  H13X17637   2.920   4.277   4.559 -0.6615  0.1653 -0.3356
  158SAPE  H13Y17638   2.770   4.238   4.650  1.4838  1.4404 -0.0219
  158SAPE  C31417639   2.869   4.079   4.531 -0.7008  1.1760  0.5192
  158SAPE  H14X17640   2.841   3.985   4.585 -1.9397  1.9176  1.2203
  158SAPE  H14Y17641   2.976   4.060   4.510 -0.9462 -2.6129  1.7946
  158SAPE  C31517642   2.779   4.103   4.408  0.1588 -0.4518  0.1250
  158SAPE  H15X17643   2.793   4.206   4.369 -0.3103 -0.5218 -0.2388
  158SAPE  H15Y17644   2.673   4.085   4.433 -0.3623  0.1861 -1.4880
  158SAPE  C31617645   2.802   4.012   4.279  0.7745 -0.3160 -0.5976
  158SAPE  H16X17646   2.900   4.030   4.231  0.9848  4.0977  0.9917
  158SAPE  H16Y17647   2.720   4.042   4.210 -0.5045  1.5426  1.5621
  158SAPE  C31717648   2.794   3.864   4.316 -0.5394 -0.6752 -0.4946
  158SAPE  H17X17649   2.696   3.848   4.366 -1.2982  4.2370  0.1201
  158SAPE  H17Y17650   2.869   3.826   4.388 -1.7973 -2.2772  0.0283
  158SAPE  C31817651   2.808   3.780   4.189 -0.0980  0.1014 -0.4297
  158SAPE  H18X17652   2.800   3.674   4.224  0.4785  0.3198  0.3891
  158SAPE  H18Y17653   2.903   3.795   4.133 -0.7309 -1.0202 -1.8774
  158SAPE  H18Z17654   2.732   3.809   4.113  0.8198  0.2169 -1.3426
  159SAPE     N17655   4.224   3.063   2.303 -0.0919 -0.3870 -0.0655
  159SAPE   HN117656   4.157   3.130   2.260  0.6076 -0.3879 -1.1837
  159SAPE   HN217657   4.316   3.111   2.301 -1.3382  2.2298 -2.7594
  159SAPE   HN317658   4.232   2.970   2.257 -0.0345  0.0202 -0.8939
  159SAPE   C1217659   4.173   3.040   2.448  1.2844 -0.0871 -0.3248
  159SAPE  H12A17660   4.124   2.941   2.442  0.6413  0.2027  0.0391
  159SAPE  H12B17661   4.095   3.116   2.470 -0.0385 -1.4500 -0.1343
  159SAPE   C1117662   4.282   3.046   2.540 -0.2351  0.2190 -0.0246
  159SAPE  H11A17663   4.342   2.952   2.535 -0.2481  0.0175  2.3336
  159SAPE  H11B17664   4.238   3.047   2.642  1.1899  0.7583  0.6073
  159SAPE     P17665   4.521   3.156   2.524  0.1422 -0.2761 -0.1851
  159SAPE   O1317666   4.556   3.041   2.609  0.1943  0.2658 -0.2687
  159SAPE   O1417667   4.567   3.149   2.388 -0.4115 -1.0652 -0.3862
  159SAPE   O1217668   4.363   3.168   2.522 -0.6738 -0.1382 -0.1187
  159SAPE   O1117669   4.599   3.283   2.577  0.1642  0.1318 -0.2885
  159SAPE    C117670   4.548   3.419   2.557 -1.0468  1.1090  0.1306
  159SAPE    HA17671   4.496   3.429   2.459  1.1114 -3.2235 -1.7336
  159SAPE    HB17672   4.486   3.449   2.644 -0.1299  0.5946  0.9804
  159SAPE    C217673   4.663   3.522   2.555 -0.6826  0.7621 -0.0786
  159SAPE    HS17674   4.726   3.495   2.468 -0.3229 -0.5224  0.5446
  159SAPE   O2117675   4.749   3.512   2.671  0.0145 -0.4492  0.4035
  159SAPE   C2117676   4.880   3.538   2.650 -0.1556  0.0961 -0.8396
  159SAPE   O2217677   4.930   3.556   2.542  0.7423 -0.0586 -0.0226
  159SAPE   C2217678   4.946   3.554   2.786  0.0550  0.3033 -0.0595
  159SAPE   H2R17679   4.872   3.616   2.842 -0.4837 -0.7354  0.4041
  159SAPE   H2S17680   4.957   3.453   2.829  0.4669  0.6273  0.6210
  159SAPE    C317681   4.606   3.659   2.543 -0.0960  0.3482 -0.7555
  159SAPE    HX17682   4.525   3.649   2.467 -1.7070 -1.3926  1.0724
  159SAPE    HY17683   4.684   3.720   2.494  1.0639 -0.1040  0.4627
  159SAPE   O3117684   4.550   3.712   2.667 -0.2374 -0.1944  0.5858
  159SAPE   C3117685   4.625   3.807   2.720 -0.2312 -0.4339  0.1431
  159SAPE   O3217686   4.734   3.837   2.675 -0.5553  0.0928 -0.0639
  159SAPE   C3217687   4.570   3.857   2.858 -0.6291  0.2015  0.0184
  159SAPE   H2X17688   4.573   3.968   2.849  0.4413  0.4296  2.3380
  159SAPE   H2Y17689   4.652   3.837   2.931  1.4531  1.6128 -1.8101
  159SAPE   C2317690   5.094   3.613   2.779  0.5890 -0.3676 -0.0637
  159SAPE   H3R17691   5.082   3.722   2.760 -1.3930 -0.5345 -0.0332
  159SAPE   H3S17692   5.145   3.554   2.700 -1.2052 -0.7459 -1.0092
  159SAPE   C2417693   5.156   3.580   2.910  0.2048 -0.8491 -0.7044
  159SAPE   H4R17694   5.262   3.552   2.896  0.4924  0.3470 -1.0840
  159SAPE   H4S17695   5.125   3.480   2.948 -0.2296 -0.4540  0.0007
  159SAPE   C2517696   5.141   3.682   3.019 -0.7463 -0.6741 -0.1656
  159SAPE   H5R17697   5.133   3.785   2.981  1.6149  0.2675  1.6502
  159SAPE   C2617698   5.148   3.662   3.159 -0.6118  0.3160  0.7486
  159SAPE   H6R17699   5.136   3.747   3.227 -1.8384 -0.1953  1.1966
  159SAPE   C2717700   5.185   3.526   3.226  0.3139 -0.4789 -0.4284
  159SAPE   H7R17701   5.220   3.442   3.163 -0.0650 -0.2544 -0.9419
  159SAPE   H7S17702   5.094   3.465   3.244  0.4409 -0.5733 -0.0976
  159SAPE   C2817703   5.261   3.547   3.355  0.7365 -0.0913  0.1386
  159SAPE   H8R17704   5.369   3.533   3.338  0.8779  1.8615 -0.8759
  159SAPE   C2917705   5.213   3.564   3.477  0.4334  0.4533  0.3368
  159SAPE   H9R17706   5.287   3.594   3.552  2.3251 -0.9934 -0.8731
  159SAPE  C21017707   5.070   3.569   3.515  0.3617 -0.3158  0.3750
  159SAPE  H10R17708   5.004   3.561   3.427 -1.8268  0.5004  1.8618
  159SAPE  H10S17709   5.058   3.665   3.570  1.4743 -1.3439  2.5780
  159SAPE  C21117710   5.047   3.445   3.602  0.3516 -0.1740 -1.0264
  159SAPE  H11R17711   5.021   3.353   3.547  0.4719 -0.0490 -1.2951
  159SAPE  C21217712   5.045   3.438   3.733 -0.4580  0.0600 -0.4668
  159SAPE  H12R17713   5.017   3.344   3.783 -0.2542 -0.0519 -0.5641
  159SAPE  C21317714   5.083   3.535   3.842  0.7225  0.3727  0.3158
  159SAPE  H13R17715   4.991   3.536   3.904  0.0212 -2.1508 -0.5206
  159SAPE  H13S17716   5.089   3.637   3.800  1.3939  0.9220  1.6930
  159SAPE  C21417717   5.209   3.509   3.918  0.0620  0.4508  0.2568
  159SAPE  H14R17718   5.289   3.445   3.876 -0.1751 -1.1113  2.0143
  159SAPE  C21517719   5.234   3.559   4.040  0.3766 -0.3832 -0.2249
  159SAPE  H15R17720   5.330   3.532   4.087  0.0465 -0.6115  0.3250
  159SAPE  C21617721   5.141   3.654   4.126 -0.3681 -0.2919  0.0658
  159SAPE  H16R17722   5.093   3.590   4.204  1.6551 -1.4503  0.4394
  159SAPE  H16S17723   5.061   3.699   4.064 -0.6167 -1.3508 -0.4050
  159SAPE  C21717724   5.229   3.767   4.174  0.3392 -0.2398  0.0697
  159SAPE  H17R17725   5.163   3.829   4.237  0.3237 -0.2703  0.0837
  159SAPE  H17S17726   5.266   3.831   4.090  3.5725 -0.2200  1.3822
  159SAPE  C21817727   5.334   3.732   4.273  0.6724  0.3230  0.3258
  159SAPE  H18R17728   5.394   3.647   4.235  1.3321  0.4600  1.0340
  159SAPE  H18S17729   5.291   3.695   4.369 -1.0395 -2.6068 -1.4132
  159SAPE  C21917730   5.422   3.855   4.307 -0.7497 -0.4986  0.1488
  159SAPE  H19R17731   5.366   3.938   4.356 -0.3602 -1.8609  3.1185
  159SAPE  H19S17732   5.469   3.888   4.212 -0.2260 -1.8352 -0.0706
  159SAPE  C22017733   5.523   3.815   4.407  0.0178  0.2511  1.1219
  159SAPE  H20R17734   5.581   3.735   4.355  1.9832  1.3935  1.4353
  159SAPE  H20S17735   5.484   3.765   4.498  0.8723  1.9163  2.4497
  159SAPE  H20T17736   5.600   3.889   4.437  1.3019  0.2765 -1.8761
  159SAPE   C3317737   4.433   3.806   2.900 -0.2322  0.2731  0.3199
  159SAPE   H3X17738   4.446   3.703   2.940  0.4800  0.5622  0.8351
  159SAPE   H3Y17739   4.369   3.789   2.811  2.6976  0.8365 -2.0607
  159SAPE   C3417740   4.356   3.888   3.016 -0.6826  0.6202  0.7219
  159SAPE   H4X17741   4.253   3.846   3.022  0.9316 -3.7769  1.1988
  159SAPE   H4Y17742   4.349   3.993   2.981  0.0658  0.9509  1.5314
  159SAPE   C3517743   4.438   3.889   3.152  0.3428  0.5292 -0.1624
  159SAPE   H5X17744   4.540   3.922   3.122  0.6867 -0.3379  0.0021
  159SAPE   H5Y17745   4.448   3.783   3.185  0.8494  0.0814 -1.6649
  159SAPE   C3617746   4.369   3.972   3.261 -0.9905  0.6685  0.6181
  159SAPE   H6X17747   4.395   3.929   3.360 -1.4995 -2.3769 -0.4646
  159SAPE   H6Y17748   4.259   3.974   3.245 -0.8587  0.7822 -0.2909
  159SAPE   C3717749   4.422   4.117   3.254  0.4727  0.6663 -0.6441
  159SAPE   H7X17750   4.339   4.182   3.289 -1.0867 -2.8584  2.8598
  159SAPE   H7Y17751   4.451   4.141   3.149 -0.2900 -1.7170 -1.4596
  159SAPE   C3817752   4.539   4.143   3.350 -0.9795 -0.1680 -0.0369
  159SAPE   H8X17753   4.571   4.247   3.329 -3.3900 -0.0517 -4.1213
  159SAPE   H8Y17754   4.617   4.071   3.317 -0.9356  1.2908 -3.4972
  159SAPE   C3917755   4.499   4.149   3.500 -0.4645  0.3785 -0.0277
  159SAPE   H9X17756   4.454   4.051   3.527  0.3012 -0.3961 -1.4457
  159SAPE   H9Y17757   4.427   4.233   3.511 -0.0761  0.6383  0.5709
  159SAPE  C31017758   4.629   4.176   3.577  0.3446 -0.2557 -0.0008
  159SAPE  H10X17759   4.679   4.273   3.556  0.7404  0.1424  2.3987
  159SAPE  H10Y17760   4.700   4.092   3.562 -0.7249 -0.9427 -1.4938
  159SAPE  C31117761   4.596   4.173   3.730  0.2795 -0.1238  0.8695
  159SAPE  H11X17762   4.694   4.165   3.782  1.1634  3.9654  0.1700
  159SAPE  H11Y17763   4.526   4.090   3.752  1.7818 -1.6753  0.0251
  159SAPE  C31217764   4.540   4.311   3.777 -0.3341  0.8067 -0.7508
  159SAPE  H12X17765   4.448   4.339   3.721 -1.2933 -2.0727 -0.7974
  159SAPE  H12Y17766   4.616   4.385   3.742  0.4873 -0.4856 -1.8039
  159SAPE  C31317767   4.520   4.324   3.927  0.1659  0.1889  0.6498
  159SAPE  H13X17768   4.617   4.306   3.977 -0.4216 -0.1902  1.6648
  159SAPE  H13Y17769   4.454   4.240   3.958  1.6947 -1.1512  0.4108
  159SAPE  C31417770   4.465   4.460   3.979 -0.6158  0.0147  0.0086
  159SAPE  H14X17771   4.362   4.465   3.937 -0.1703  0.2708 -1.0890
  159SAPE  H14Y17772   4.527   4.541   3.935  2.6919 -3.5752 -2.6006
  159SAPE  C31517773   4.476   4.468   4.125  0.0535 -1.1058 -0.0966
  159SAPE  H15X17774   4.551   4.394   4.160 -0.2061 -0.6737  1.4452
  159SAPE  H15Y17775   4.379   4.446   4.174  0.0829  0.6225  0.7849
  159SAPE  C31617776   4.522   4.608   4.179 -0.0052  0.5773 -0.2108
  159SAPE  H16X17777   4.463   4.690   4.132 -0.8414  0.0668 -0.0554
  159SAPE  H16Y17778   4.623   4.607   4.132 -0.6580  1.3638 -1.7078
  159SAPE  C31717779   4.546   4.615   4.330  0.4657  0.0342  0.5456
  159SAPE  H17X17780   4.601   4.711   4.340  2.4205 -0.6534 -2.2688
  159SAPE  H17Y17781   4.625   4.540   4.354 -0.3812 -1.3947 -0.9397
  159SAPE  C31817782   4.420   4.586   4.408 -0.4604  0.6011  0.6661
  159SAPE  H18X17783   4.378   4.485   4.390 -0.5135  0.7201  0.1075
  159SAPE  H18Y17784   4.349   4.667   4.382  1.6571  1.8388 -1.7522
  159SAPE  H18Z17785   4.441   4.590   4.517  1.2285 -1.7491  0.4913
  160SAPE     N17786   3.790   1.619   2.703 -0.3340  0.0723  0.1431
  160SAPE   HN117787   3.715   1.688   2.723 -0.3750  0.2082 -0.4813
  160SAPE   HN217788   3.784   1.609   2.600  1.1926  0.9269 -0.0541
  160SAPE   HN317789   3.757   1.525   2.732  0.8138 -0.8686 -1.4704
  160SAPE   C1217790   3.927   1.662   2.756  0.3407 -0.2147 -0.5307
  160SAPE  H12A17791   3.916   1.657   2.867 -0.8335  0.1509 -0.6133
  160SAPE  H12B17792   3.947   1.768   2.730  3.3741 -0.8042 -0.9104
  160SAPE   C1117793   4.038   1.571   2.711  0.1970 -0.2538 -0.8167
  160SAPE  H11A17794   4.132   1.608   2.757 -0.1019  0.6328 -0.9112
  160SAPE  H11B17795   4.045   1.572   2.600 -2.1591 -0.6186 -1.0128
  160SAPE     P17796   4.111   1.331   2.773  0.2493 -0.1253 -0.2584
  160SAPE   O1317797   4.063   1.203   2.717  0.1170 -0.4018  0.9034
  160SAPE   O1417798   4.246   1.386   2.739 -0.3212  0.1333  0.4211
  160SAPE   O1217799   4.001   1.435   2.745  0.2530  0.0769 -0.0760
  160SAPE   O1117800   4.106   1.309   2.933  0.1253  0.0345 -0.2468
  160SAPE    C117801   4.108   1.403   3.032  0.2119 -0.2630  0.0597
  160SAPE    HA17802   4.044   1.493   3.013 -0.3128 -0.2083  1.8889
  160SAPE    HB17803   4.070   1.370   3.131  0.5485  0.4107  0.4227
  160SAPE    C217804   4.253   1.449   3.056 -0.1248  0.8016  0.1561
  160SAPE    HS17805   4.277   1.501   2.961 -0.6538  0.2574 -0.2889
  160SAPE   O2117806   4.329   1.331   3.082 -0.3453 -0.3091  0.3136
  160SAPE   C2117807   4.454   1.329   3.040  0.3354 -0.2414 -0.0259
  160SAPE   O2217808   4.517   1.425   3.001  0.1453 -0.3090  0.3578
  160SAPE   C2217809   4.511   1.192   3.068  0.0480 -0.0297  0.4101
  160SAPE   H2R17810   4.616   1.191   3.032 -0.4815  1.1858 -1.2938
  160SAPE   H2S17811   4.494   1.183   3.178 -0.1459  1.1099  0.4878
  160SAPE    C317812   4.258   1.555   3.164 -0.9182  0.2161  0.0188
  160SAPE    HX17813   4.224   1.656   3.132 -0.0683  0.4373 -0.2000
  160SAPE    HY17814   4.365   1.579   3.182 -1.4232  1.0185  2.3032
  160SAPE   O3117815   4.206   1.518   3.294  0.0658  0.0011 -0.2287
  160SAPE   C3117816   4.109   1.584   3.352 -0.0720  0.5834 -0.0245
  160SAPE   O3217817   4.029   1.660   3.299  0.3756  0.5047  0.0966
  160SAPE   C3217818   4.101   1.559   3.505 -0.6171 -0.4747  0.7550
  160SAPE   H2X17819   4.204   1.525   3.530  0.7221  0.8290 -2.4263
  160SAPE   H2Y17820   4.026   1.481   3.530  0.6375 -2.1488 -0.4515
  160SAPE   C2317821   4.429   1.081   2.998 -0.2467  0.4015 -0.2081
  160SAPE   H3R17822   4.434   1.091   2.888  1.6925 -1.0503 -0.3135
  160SAPE   H3S17823   4.323   1.078   3.029 -0.2399 -1.1046 -0.2516
  160SAPE   C2417824   4.493   0.939   3.023 -0.4951 -0.0897 -0.2480
  160SAPE   H4R17825   4.589   0.944   2.966  0.7449 -0.5235  1.6939
  160SAPE   H4S17826   4.421   0.874   2.968  0.4816 -1.1967 -0.2689
  160SAPE   C2517827   4.511   0.911   3.165  0.1110  0.0182 -0.4292
  160SAPE   H5R17828   4.579   0.974   3.225  1.1978 -0.0896 -1.5020
  160SAPE   C2617829   4.444   0.821   3.237 -0.0166 -0.8185 -0.9094
  160SAPE   H6R17830   4.471   0.809   3.343 -0.4893 -1.0714 -0.8143
  160SAPE   C2717831   4.355   0.721   3.168 -0.6240  0.1990 -0.2221
  160SAPE   H7R17832   4.421   0.658   3.105 -0.5259 -0.0521  0.1269
  160SAPE   H7S17833   4.280   0.776   3.108 -0.0689 -0.4212 -1.5162
  160SAPE   C2817834   4.274   0.647   3.272  0.2751 -0.4799  0.7916
  160SAPE   H8R17835   4.179   0.689   3.305  1.1185  2.1950  0.0602
  160SAPE   C2917836   4.307   0.532   3.335 -0.0302  0.2934 -0.3458
  160SAPE   H9R17837   4.232   0.504   3.411  1.5897 -0.8606  0.8762
  160SAPE  C21017838   4.442   0.461   3.337 -0.0737 -0.3532 -0.6015
  160SAPE  H10R17839   4.502   0.510   3.417  0.4805 -0.2440 -1.0738
  160SAPE  H10S17840   4.493   0.487   3.242  1.5193 -4.3554 -1.0001
  160SAPE  C21117841   4.440   0.316   3.369  0.9479  0.4072 -0.0348
  160SAPE  H11R17842   4.449   0.259   3.276 -1.1479 -0.2419  0.1238
  160SAPE  C21217843   4.427   0.262   3.493 -0.2598  0.3717 -0.2162
  160SAPE  H12R17844   4.441   0.153   3.496 -0.4164  0.3667  0.6214
  160SAPE  C21317845   4.413   0.331   3.627 -0.7718 -0.2308 -0.5801
  160SAPE  H13R17846   4.438   0.439   3.616 -0.4803 -0.3435 -1.0541
  160SAPE  H13S17847   4.478   0.273   3.697 -0.5937 -1.1433 -1.4709
  160SAPE  C21417848   4.274   0.318   3.679  0.3625 -0.1436 -0.2776
  160SAPE  H14R17849   4.243   0.213   3.672 -0.8716  0.2252 -0.5525
  160SAPE  C21517850   4.182   0.412   3.723  0.5016 -0.7847 -0.0360
  160SAPE  H15R17851   4.088   0.372   3.762  0.4950 -1.6387 -0.8824
  160SAPE  C21617852   4.203   0.562   3.721  0.1754 -0.2513  0.1330
  160SAPE  H16R17853   4.147   0.604   3.635  1.0250 -1.4505 -1.0542
  160SAPE  H16S17854   4.310   0.591   3.714  0.5415 -1.7032 -0.7239
  160SAPE  C21717855   4.136   0.611   3.849 -0.0862  0.6029  0.0426
  160SAPE  H17R17856   4.193   0.576   3.938  2.3840  2.6812 -0.5826
  160SAPE  H17S17857   4.034   0.568   3.849  0.2134 -0.1389 -0.6063
  160SAPE  C21817858   4.125   0.763   3.857 -0.2064 -0.5904 -0.0905
  160SAPE  H18R17859   4.224   0.813   3.869 -0.8699  1.5453 -2.5694
  160SAPE  H18S17860   4.062   0.794   3.943 -0.5216 -0.2509 -0.4421
  160SAPE  C21917861   4.073   0.846   3.737 -0.2995 -0.6199  0.3595
  160SAPE  H19R17862   4.139   0.832   3.648  0.4078 -0.7383  0.8937
  160SAPE  H19S17863   4.092   0.950   3.772  1.7311 -0.6581 -0.4925
  160SAPE  C22017864   3.929   0.838   3.714 -0.0308  0.1024 -0.4167
  160SAPE  H20R17865   3.874   0.827   3.809 -1.8893  0.1645 -1.4477
  160SAPE  H20S17866   3.906   0.757   3.642  0.7341  0.3640 -0.9803
  160SAPE  H20T17867   3.897   0.927   3.656  0.5834 -1.1707 -2.8798
  160SAPE   C3317868   4.043   1.688   3.583  0.2781  0.2458  0.4824
  160SAPE   H3X17869   3.940   1.708   3.546 -0.2423  1.3853  2.3994
  160SAPE   H3Y17870   4.103   1.777   3.552  0.6731 -0.3825 -0.6000
  160SAPE   C3417871   4.040   1.681   3.743 -0.2181 -0.2791  0.6093
  160SAPE   H4X17872   3.955   1.617   3.774 -1.3782  1.2467  0.7054
  160SAPE   H4Y17873   4.016   1.784   3.778  1.1978  0.8850 -1.6100
  160SAPE   C3517874   4.170   1.621   3.798  0.3841 -0.5569 -0.1187
  160SAPE   H5X17875   4.255   1.689   3.775 -0.5398  0.1728 -1.4787
  160SAPE   H5Y17876   4.194   1.521   3.754 -0.4361 -1.1176  0.6841
  160SAPE   C3617877   4.154   1.590   3.948 -0.2351  0.8506 -0.3895
  160SAPE   H6X17878   4.228   1.518   3.989  0.4019  1.1002 -1.0526
  160SAPE   H6Y17879   4.057   1.537   3.952  0.6423 -0.9451  4.3206
  160SAPE   C3717880   4.158   1.712   4.031  0.0290 -0.4125  0.1316
  160SAPE   H7X17881   4.083   1.781   3.986 -2.0904 -3.0757 -0.6715
  160SAPE   H7Y17882   4.259   1.758   4.020  0.0110  0.0745  1.7972
  160SAPE   C3817883   4.115   1.694   4.178  0.5081 -1.0689 -0.3745
  160SAPE   H8X17884   4.143   1.793   4.220  2.8474 -1.2650 -1.3235
  160SAPE   H8Y17885   4.174   1.614   4.227 -2.1692 -2.4431  0.8236
  160SAPE   C3917886   3.969   1.654   4.202  0.1342  0.3389 -0.0612
  160SAPE   H9X17887   3.971   1.593   4.294 -0.2077  0.1385 -0.1855
  160SAPE   H9Y17888   3.919   1.595   4.122 -1.2727  0.6270  0.5767
  160SAPE  C31017889   3.885   1.783   4.219 -0.5816 -0.3534 -0.0477
  160SAPE  H10X17890   3.918   1.849   4.135  0.0817 -1.1123 -0.3977
  160SAPE  H10Y17891   3.929   1.827   4.311  1.7906 -3.2346  0.3352
  160SAPE  C31117892   3.733   1.777   4.205 -0.5806  0.0142 -0.1605
  160SAPE  H11X17893   3.691   1.874   4.240 -0.4991 -0.7696  2.3024
  160SAPE  H11Y17894   3.683   1.700   4.268  1.4922 -1.1590  0.1604
  160SAPE  C31217895   3.684   1.735   4.064 -0.1598  0.0865 -0.1304
  160SAPE  H12X17896   3.575   1.751   4.079 -0.5394 -1.5878 -0.8883
  160SAPE  H12Y17897   3.701   1.625   4.061  1.1773  0.2944 -0.5853
  160SAPE  C31317898   3.742   1.802   3.946  0.3552 -0.2464  0.1712
  160SAPE  H13X17899   3.836   1.752   3.916  0.4660  0.2607 -0.3601
  160SAPE  H13Y17900   3.764   1.907   3.975 -2.1116  0.3489  0.1420
  160SAPE  C31417901   3.650   1.794   3.825 -0.1654 -0.3140  0.1792
  160SAPE  H14X17902   3.553   1.846   3.845 -1.1858 -1.5991 -1.2145
  160SAPE  H14Y17903   3.621   1.690   3.801 -0.1931 -0.5339  1.1079
  160SAPE  C31517904   3.708   1.873   3.709 -0.2324 -0.4112  0.1031
  160SAPE  H15X17905   3.817   1.863   3.690  0.1564  1.0298  1.3529
  160SAPE  H15Y17906   3.709   1.982   3.731  1.0465  0.0062 -1.7298
  160SAPE  C31617907   3.633   1.849   3.579  0.1061 -0.1231 -0.1331
  160SAPE  H16X17908   3.525   1.870   3.595 -0.3581 -2.8877  0.8646
  160SAPE  H16Y17909   3.634   1.740   3.558 -0.0765  0.3918 -3.2565
  160SAPE  C31717910   3.692   1.926   3.459  0.7965  0.1892 -0.0960
  160SAPE  H17X17911   3.705   1.851   3.378  0.3116  0.6875 -0.6438
  160SAPE  H17Y17912   3.793   1.970   3.477  0.3611  0.3118  2.4505
  160SAPE  C31817913   3.608   2.039   3.402  0.8502 -0.5061 -0.1212
  160SAPE  H18X17914   3.507   1.994   3.388  0.4242 -1.1704  4.0195
  160SAPE  H18Y17915   3.652   2.074   3.306 -0.2148  1.2565 -0.0237
  160SAPE  H18Z17916   3.592   2.127   3.468  1.3622  1.3232 -2.3071
  161SAPE     N17917   2.512   5.359   2.342  0.3151 -0.3495 -0.4220
  161SAPE   HN117918   2.507   5.463   2.339  1.6972 -0.0741  2.6299
  161SAPE   HN217919   2.501   5.347   2.445 -1.3786 -0.3710 -0.5752
  161SAPE   HN317920   2.612   5.329   2.334  1.0111  1.8347 -0.6691
  161SAPE   C1217921   2.412   5.289   2.263 -0.2574  0.1224  0.1344
  161SAPE  H12A17922   2.431   5.299   2.155  0.9321  1.4503  0.4373
  161SAPE  H12B17923   2.313   5.336   2.283 -0.7657 -0.8658  0.0196
  161SAPE   C1117924   2.409   5.143   2.307 -0.1785 -0.6548 -0.2641
  161SAPE  H11A17925   2.510   5.102   2.285 -0.0495  0.2188 -1.3534
  161SAPE  H11B17926   2.345   5.082   2.240 -1.0757  0.0367 -0.0552
  161SAPE     P17927   2.433   4.998   2.519 -0.1070  0.2257  0.2680
  161SAPE   O1317928   2.437   4.883   2.425  0.0692 -0.6489 -0.1123
  161SAPE   O1417929   2.552   5.033   2.599 -0.2461 -0.4583  0.3209
  161SAPE   O1217930   2.383   5.120   2.442  0.1007  0.1630  0.1012
  161SAPE   O1117931   2.317   4.964   2.621  0.5841 -0.1069  0.1919
  161SAPE    C117932   2.242   5.068   2.676 -0.8606 -0.4418 -0.6497
  161SAPE    HA17933   2.292   5.167   2.672 -0.9369 -0.4397 -1.7745
  161SAPE    HB17934   2.152   5.084   2.613 -0.1286 -0.4649 -1.7212
  161SAPE    C217935   2.199   5.042   2.826  0.0042  0.2133 -0.1125
  161SAPE    HS17936   2.135   5.127   2.857 -0.8267  0.0424 -1.3093
  161SAPE   O2117937   2.324   5.026   2.904 -0.0962  0.3415  0.4823
  161SAPE   C2117938   2.383   5.139   2.957  0.0048 -0.5379 -0.9174
  161SAPE   O2217939   2.335   5.248   2.957  0.4607 -0.0529  0.4033
  161SAPE   C2217940   2.497   5.091   3.043 -0.0885  1.0848 -0.2104
  161SAPE   H2R17941   2.553   5.019   2.980 -1.3880 -1.4348  1.3419
  161SAPE   H2S17942   2.571   5.170   3.069  0.4747  0.2298  0.9000
  161SAPE    C317943   2.109   4.908   2.845 -0.4876 -0.7022 -0.5085
  161SAPE    HX17944   2.168   4.827   2.799 -0.0322 -2.1884  2.4978
  161SAPE    HY17945   2.022   4.923   2.777  0.6507 -0.4212 -1.9551
  161SAPE   O3117946   2.072   4.877   2.980 -0.0499  0.1978  0.7655
  161SAPE   C3117947   2.023   4.750   2.990 -1.0121 -0.5824  0.1628
  161SAPE   O3217948   2.032   4.669   2.901  0.3827 -0.3007  0.1330
  161SAPE   C3217949   1.966   4.727   3.133 -0.1810 -0.3990 -0.1813
  161SAPE   H2X17950   1.917   4.825   3.155  0.2748 -0.1977 -0.0288
  161SAPE   H2Y17951   2.054   4.722   3.201  0.7223  0.9104 -1.1970
  161SAPE   C2317952   2.461   5.005   3.167 -0.2500 -0.2777 -0.2526
  161SAPE   H3R17953   2.562   4.992   3.213 -0.8021 -0.2338  1.0034
  161SAPE   H3S17954   2.426   4.908   3.126  0.9320 -1.0594  0.5325
  161SAPE   C2417955   2.360   5.067   3.260  1.0649 -0.2300 -0.5525
  161SAPE   H4R17956   2.338   4.996   3.343  3.8446  0.5551  0.9772
  161SAPE   H4S17957   2.265   5.080   3.204  0.7463  0.7819  0.1969
  161SAPE   C2517958   2.393   5.194   3.323  0.1221 -0.1431 -0.0473
  161SAPE   H5R17959   2.392   5.286   3.262  2.2647  0.0357  0.0937
  161SAPE   C2617960   2.438   5.209   3.446 -0.1975  0.5711 -0.2396
  161SAPE   H6R17961   2.465   5.312   3.474 -0.5244  0.3365  1.0099
  161SAPE   C2717962   2.452   5.102   3.554 -0.4611 -0.2749 -0.5201
  161SAPE   H7R17963   2.508   5.142   3.641 -2.6774 -0.3137  1.0202
  161SAPE   H7S17964   2.515   5.017   3.520  0.3019  0.1091 -0.0954
  161SAPE   C2817965   2.323   5.050   3.618 -0.2053 -0.0172 -0.0796
  161SAPE   H8R17966   2.247   5.014   3.548 -2.6379 -0.0733  2.3837
  161SAPE   C2917967   2.305   5.055   3.755  0.8079  1.0442  0.8087
  161SAPE   H9R17968   2.211   5.003   3.781 -1.4163  2.5192 -3.3380
  161SAPE  C21017969   2.399   5.106   3.862  0.9255 -0.9106 -0.3462
  161SAPE  H10R17970   2.349   5.167   3.941 -0.0849 -2.8615  0.6005
  161SAPE  H10S17971   2.472   5.185   3.835 -0.9876  0.3361 -2.1839
  161SAPE  C21117972   2.445   4.983   3.933 -0.4507  0.8267 -0.1267
  161SAPE  H11R17973   2.466   4.903   3.861  2.6776  0.5425  0.9500
  161SAPE  C21217974   2.462   4.957   4.068 -0.2213 -0.3561 -0.2358
  161SAPE  H12R17975   2.507   4.865   4.108 -0.6378 -0.2694  0.4401
  161SAPE  C21317976   2.419   5.058   4.165  0.6362 -0.5481  0.4865
  161SAPE  H13R17977   2.359   5.137   4.116 -0.7419 -1.6641  0.3157
  161SAPE  H13S17978   2.506   5.117   4.200 -0.9264  1.5744  1.0131
  161SAPE  C21417979   2.331   5.005   4.271 -0.0848  0.1063 -0.6121
  161SAPE  H14R17980   2.320   4.897   4.285  0.5741  0.1832  0.5906
  161SAPE  C21517981   2.270   5.087   4.360 -0.3609 -0.0765 -0.4012
  161SAPE  H15R17982   2.200   5.047   4.435 -0.8783  1.3529 -0.0757
  161SAPE  C21617983   2.283   5.237   4.374  0.8619 -0.1652 -0.0906
  161SAPE  H16R17984   2.385   5.270   4.347  1.0045 -0.0005  0.6147
  161SAPE  H16S17985   2.272   5.274   4.478  1.4825  2.8130 -0.9993
  161SAPE  C21717986   2.186   5.333   4.298  0.7954  0.3152 -0.0299
  161SAPE  H17R17987   2.192   5.338   4.188  0.3506  2.0579 -0.0133
  161SAPE  H17S17988   2.211   5.437   4.328 -3.8910  1.2002  1.6984
  161SAPE  C21817989   2.035   5.301   4.338 -0.1908  0.2992 -0.1982
  161SAPE  H18R17990   2.002   5.399   4.380  2.5354  0.9486  0.6160
  161SAPE  H18S17991   2.023   5.234   4.425 -2.2763  1.4025  0.4394
  161SAPE  C21917992   1.946   5.231   4.233  0.8437  0.3855  0.1184
  161SAPE  H19R17993   1.992   5.139   4.190 -1.4762 -0.9513  0.3649
  161SAPE  H19S17994   1.932   5.293   4.142  1.3355  1.9340  1.0636
  161SAPE  C22017995   1.802   5.195   4.278 -0.0628  0.0451 -0.7556
  161SAPE  H20R17996   1.745   5.124   4.214 -1.4531 -0.7290  1.2414
  161SAPE  H20S17997   1.748   5.292   4.290  1.3304  0.7012  0.5024
  161SAPE  H20T17998   1.805   5.140   4.374  2.4339 -0.0041 -0.8090
  161SAPE   C3317999   1.873   4.610   3.146  0.4223 -0.4402  0.4903
  161SAPE   H3X18000   1.910   4.522   3.090  0.0364  1.5263 -3.1887
  161SAPE   H3Y18001   1.782   4.639   3.089  1.2078 -0.8231 -1.0093
  161SAPE   C3418002   1.810   4.582   3.285  0.0160  0.5036  0.6898
  161SAPE   H4X18003   1.748   4.664   3.328 -1.1249 -0.0084  0.0411
  161SAPE   H4Y18004   1.895   4.567   3.355  1.6562  0.9170 -1.1105
  161SAPE   C3518005   1.718   4.460   3.275  0.7499  0.0093 -0.2338
  161SAPE   H5X18006   1.775   4.365   3.271 -0.0804 -0.6251  1.8093
  161SAPE   H5Y18007   1.651   4.465   3.186 -2.7177  1.8960  2.2456
  161SAPE   C3618008   1.614   4.457   3.394 -0.3070  0.5605  0.1221
  161SAPE   H6X18009   1.543   4.373   3.379 -0.8823  1.3441 -1.8247
  161SAPE   H6Y18010   1.561   4.554   3.394 -0.2313  0.6348  1.9584
  161SAPE   C3718011   1.686   4.437   3.526  0.2192  0.1511 -0.2874
  161SAPE   H7X18012   1.744   4.529   3.549  0.9624 -0.6718  1.3501
  161SAPE   H7Y18013   1.768   4.362   3.522  0.7874  0.8258 -1.8121
  161SAPE   C3818014   1.583   4.409   3.641 -0.4269 -0.3780  0.5308
  161SAPE   H8X18015   1.510   4.333   3.605 -2.1868  0.9736  1.0966
  161SAPE   H8Y18016   1.531   4.501   3.676  1.5353  0.5607  1.0690
  161SAPE   C3918017   1.652   4.349   3.764  0.2809 -0.3367 -0.4287
  161SAPE   H9X18018   1.721   4.269   3.727  1.4766  0.2218  0.5080
  161SAPE   H9Y18019   1.573   4.303   3.827 -0.1752  0.0545 -0.7093
  161SAPE  C31018020   1.734   4.448   3.857  0.0760 -0.2336 -0.2769
  161SAPE  H10X18021   1.663   4.528   3.886 -0.8912 -1.5368  1.1295
  161SAPE  H10Y18022   1.820   4.497   3.807  1.2169 -0.7875  1.0799
  161SAPE  C31118023   1.781   4.391   3.989 -0.3987  0.9682 -0.2240
  161SAPE  H11X18024   1.699   4.341   4.046  0.6881  0.6968  1.1468
  161SAPE  H11Y18025   1.818   4.467   4.061 -1.2368  0.4765  0.7617
  161SAPE  C31218026   1.893   4.298   3.959 -0.2046 -0.5301 -0.0893
  161SAPE  H12X18027   1.971   4.351   3.899 -0.7053 -2.4635 -2.6403
  161SAPE  H12Y18028   1.865   4.210   3.897  1.9294 -0.8884 -0.6571
  161SAPE  C31318029   1.959   4.248   4.092  0.1074  0.0455 -0.7662
  161SAPE  H13X18030   1.878   4.222   4.163  0.9544  2.0578  1.0678
  161SAPE  H13Y18031   2.007   4.340   4.133  0.2723 -0.0287 -0.7910
  161SAPE  C31418032   2.051   4.124   4.086 -0.6571  0.2988 -0.3830
  161SAPE  H14X18033   2.015   4.031   4.038  0.4752 -0.4967  0.2501
  161SAPE  H14Y18034   2.073   4.094   4.191  0.2373  0.3325 -0.5492
  161SAPE  C31518035   2.182   4.148   4.012 -0.2078 -0.0646 -0.6977
  161SAPE  H15X18036   2.209   4.249   4.050 -1.1763 -0.4730  1.1835
  161SAPE  H15Y18037   2.170   4.148   3.902  1.6920 -1.5191 -0.9497
  161SAPE  C31618038   2.298   4.049   4.033 -0.9506 -0.2215  0.4100
  161SAPE  H16X18039   2.291   4.013   4.138  0.6131  0.7100  0.8709
  161SAPE  H16Y18040   2.395   4.102   4.023 -0.3909 -1.5862 -1.9321
  161SAPE  C31718041   2.294   3.925   3.944  0.2565  0.5309  0.4688
  161SAPE  H17X18042   2.286   3.945   3.835  0.8421  0.0622  0.3342
  161SAPE  H17Y18043   2.200   3.874   3.975 -1.0066  2.8096  0.5946
  161SAPE  C31818044   2.401   3.829   3.980  0.4601  0.4773  0.7689
  161SAPE  H18X18045   2.502   3.870   3.958  0.8402 -1.5387 -1.6960
  161SAPE  H18Y18046   2.397   3.729   3.932  1.8024  1.3159 -1.2093
  161SAPE  H18Z18047   2.403   3.805   4.089  1.8581 -1.4418  0.3631
  162SAPE     N18048   0.601   6.391   2.193  0.4230 -0.1846 -0.4030
  162SAPE   HN118049   0.646   6.481   2.165 -0.1817  0.0264 -0.7160
  162SAPE   HN218050   0.674   6.318   2.182  0.1088 -0.6440  0.4977
  162SAPE   HN318051   0.527   6.377   2.121  0.2316  0.2744 -0.2960
  162SAPE   C1218052   0.561   6.402   2.337 -0.4065 -0.2252 -0.1987
  162SAPE  H12A18053   0.649   6.443   2.391  1.7867 -0.6049 -3.2381
  162SAPE  H12B18054   0.542   6.299   2.372 -1.7618  0.5853  1.6142
  162SAPE   C1118055   0.434   6.490   2.359 -0.7874  0.7244 -0.0912
  162SAPE  H11A18056   0.414   6.506   2.467  0.1929 -0.2851  0.2580
  162SAPE  H11B18057   0.344   6.442   2.314 -0.9548  1.0329 -0.0927
  162SAPE     P18058   0.357   6.737   2.298 -0.1569  0.1459  0.2534
  162SAPE   O1318059   0.390   6.811   2.170 -0.4158  0.3113 -0.6255
  162SAPE   O1418060   0.223   6.675   2.306 -0.0047  0.5911 -0.5832
  162SAPE   O1218061   0.466   6.623   2.305 -0.0114  0.5542 -0.2340
  162SAPE   O1118062   0.391   6.828   2.414  0.1166  0.2823 -0.4502
  162SAPE    C118063   0.511   6.900   2.429 -0.2206  0.1322  0.5880
  162SAPE    HA18064   0.597   6.847   2.383 -0.2687  1.4495 -1.0944
  162SAPE    HB18065   0.509   6.998   2.377  3.1243 -0.0578 -0.1497
  162SAPE    C218066   0.557   6.938   2.580  0.3857 -0.0571  0.0408
  162SAPE    HS18067   0.633   7.016   2.558  0.4331 -0.5677 -1.7912
  162SAPE   O2118068   0.609   6.826   2.658  0.1386  0.0354  0.5632
  162SAPE   C2118069   0.737   6.799   2.629  0.7239 -0.5790 -0.5325
  162SAPE   O2218070   0.795   6.838   2.528 -0.2609 -0.3157  0.0657
  162SAPE   C2218071   0.807   6.716   2.737  0.7433  0.4491  0.6580
  162SAPE   H2R18072   0.731   6.693   2.814 -1.0827 -3.5183 -1.9850
  162SAPE   H2S18073   0.836   6.623   2.684  0.4922  0.2188  0.9223
  162SAPE    C318074   0.453   7.009   2.663  0.8625 -0.1342 -0.2759
  162SAPE    HX18075   0.360   6.948   2.663 -0.6242  1.9467 -1.9040
  162SAPE    HY18076   0.425   7.103   2.610  0.4161 -0.0809  0.0513
  162SAPE   O3118077   0.489   7.025   2.799  0.0006  0.2004  0.0834
  162SAPE   C3118078   0.508   7.149   2.843  0.1164  0.2305 -0.4577
  162SAPE   O3218079   0.483   7.248   2.780  0.6969  0.0436 -0.4315
  162SAPE   C3218080   0.579   7.151   2.977  0.1099  0.6723  0.0945
  162SAPE   H2X18081   0.687   7.134   2.959 -0.1038 -0.1267 -0.4661
  162SAPE   H2Y18082   0.539   7.063   3.032  0.2163  1.5283  1.6076
  162SAPE   C2318083   0.936   6.780   2.795 -0.3869  0.0597 -0.0151
  162SAPE   H3R18084   0.996   6.830   2.716  1.3620  1.0477  1.8689
  162SAPE   H3S18085   1.005   6.708   2.845  1.3488  2.5315  1.3634
  162SAPE   C2418086   0.898   6.892   2.892 -0.2256  0.0384 -0.2726
  162SAPE   H4R18087   0.811   6.951   2.857  1.0866  3.3328  1.5983
  162SAPE   H4S18088   0.984   6.960   2.909  0.1123 -0.6093  0.6827
  162SAPE   C2518089   0.856   6.820   3.023 -0.8712 -0.0806  0.7177
  162SAPE   H5R18090   0.776   6.745   3.014  1.5795 -2.8512  0.4919
  162SAPE   C2618091   0.914   6.835   3.145 -0.3220 -0.1549  0.6015
  162SAPE   H6R18092   0.876   6.773   3.228  1.5096 -1.9537  0.1984
  162SAPE   C2718093   1.024   6.936   3.182  0.3865  0.4534  0.4351
  162SAPE   H7R18094   1.109   6.932   3.111  2.3884  1.0933  2.6689
  162SAPE   H7S18095   1.057   6.892   3.279 -0.6434 -2.0457 -0.2624
  162SAPE   C2818096   0.978   7.075   3.192 -0.5994 -0.0470 -0.6228
  162SAPE   H8R18097   0.946   7.112   3.094  2.4854  2.9316 -0.6913
  162SAPE   C2918098   0.952   7.145   3.300  0.2484  0.7761 -1.3670
  162SAPE   H9R18099   0.900   7.240   3.277 -1.3965  0.2686  0.0928
  162SAPE  C21018100   0.966   7.113   3.449 -0.6294  0.0612  0.8837
  162SAPE  H10R18101   1.009   7.202   3.498  0.7234  0.0062 -0.1649
  162SAPE  H10S18102   1.045   7.035   3.457  0.5333  0.8882 -1.6799
  162SAPE  C21118103   0.838   7.079   3.536  0.2643 -0.4220  1.0017
  162SAPE  H11R18104   0.742   7.062   3.485  0.9616 -0.4034 -0.3643
  162SAPE  C21218105   0.835   7.079   3.668 -0.2813  0.8005 -0.2534
  162SAPE  H12R18106   0.742   7.058   3.723 -2.4984  2.1644 -3.2496
  162SAPE  C21318107   0.951   7.099   3.758  0.1173  0.2330  0.0076
  162SAPE  H13R18108   1.042   7.071   3.700 -0.9765 -2.3176 -0.5865
  162SAPE  H13S18109   0.945   7.040   3.852 -0.4989  1.7782  0.9695
  162SAPE  C21418110   0.958   7.242   3.796 -0.8179  0.4539  0.0740
  162SAPE  H14R18111   0.963   7.313   3.712  1.3358 -1.2861 -1.3595
  162SAPE  C21518112   0.980   7.280   3.924 -0.1747  0.3083  0.4788
  162SAPE  H15R18113   0.988   7.386   3.952 -1.5000 -0.2691  3.5492
  162SAPE  C21618114   1.000   7.200   4.049  0.1148 -0.2589 -0.5528
  162SAPE  H16R18115   0.971   7.094   4.037  0.0095  0.0178 -3.6575
  162SAPE  H16S18116   0.936   7.251   4.124 -0.5581 -1.4780 -0.2814
  162SAPE  C21718117   1.154   7.205   4.085 -0.5800 -0.3363 -0.0081
  162SAPE  H17R18118   1.198   7.302   4.055  0.2555 -1.1605 -1.5903
  162SAPE  H17S18119   1.198   7.127   4.019  1.0408  0.2650  0.3226
  162SAPE  C21818120   1.188   7.179   4.229  0.1176 -0.2898 -0.6971
  162SAPE  H18R18121   1.296   7.155   4.226  0.5370  1.5567 -2.5856
  162SAPE  H18S18122   1.127   7.093   4.265  0.8102 -0.6971 -0.4754
  162SAPE  C21918123   1.157   7.302   4.322  0.5707  0.5635 -0.4090
  162SAPE  H19R18124   1.049   7.295   4.345  0.7622  1.8636  1.0216
  162SAPE  H19S18125   1.189   7.400   4.281  1.0915  0.7401  0.3987
  162SAPE  C22018126   1.234   7.289   4.454 -0.8707  0.1641  0.0686
  162SAPE  H20R18127   1.200   7.198   4.509  1.8185  0.0303  1.6930
  162SAPE  H20S18128   1.210   7.376   4.520  0.3352 -1.6739  3.1736
  162SAPE  H20T18129   1.343   7.276   4.440 -0.2052  3.9879  0.4724
  162SAPE   C3318130   0.544   7.278   3.068 -0.1683  0.7490  0.2001
  162SAPE   H3X18131   0.435   7.291   3.053 -0.3087 -0.5067 -0.0243
  162SAPE   H3Y18132   0.605   7.362   3.029  3.0399 -1.0953  0.8914
  162SAPE   C3418133   0.580   7.269   3.212  0.0955 -0.0450  0.9222
  162SAPE   H4X18134   0.688   7.245   3.218  0.4149  1.2797  0.9205
  162SAPE   H4Y18135   0.517   7.191   3.259 -1.7230  1.3259  0.9055
  162SAPE   C3518136   0.568   7.394   3.298  0.2196  0.0128 -0.2736
  162SAPE   H5X18137   0.464   7.432   3.302 -0.1554 -1.1100  1.7457
  162SAPE   H5Y18138   0.630   7.479   3.261  1.8633 -1.6794 -1.5833
  162SAPE   C3618139   0.605   7.355   3.441  0.4839  0.1985  0.5971
  162SAPE   H6X18140   0.711   7.324   3.452 -0.0953 -2.1140  0.0618
  162SAPE   H6Y18141   0.539   7.274   3.480  2.0070 -2.0045 -1.1819
  162SAPE   C3718142   0.586   7.471   3.546  0.2808  0.4500 -0.0960
  162SAPE   H7X18143   0.482   7.508   3.536  0.0576 -0.4296 -1.1603
  162SAPE   H7Y18144   0.661   7.550   3.525  0.0334  0.6105 -0.3804
  162SAPE   C3818145   0.602   7.404   3.680  1.1145 -0.4766  0.1398
  162SAPE   H8X18146   0.668   7.316   3.697  0.8490 -0.3830  1.8436
  162SAPE   H8Y18147   0.501   7.359   3.689  1.5077 -1.7924 -1.5423
  162SAPE   C3918148   0.607   7.510   3.795  0.1707  0.3519  0.4705
  162SAPE   H9X18149   0.549   7.593   3.750 -0.4677 -0.3935 -0.1194
  162SAPE   H9Y18150   0.710   7.541   3.822  0.5670 -0.4838 -0.0245
  162SAPE  C31018151   0.530   7.462   3.918 -0.4364 -0.0791 -0.0674
  162SAPE  H10X18152   0.437   7.413   3.882 -0.0022 -0.9067 -0.0945
  162SAPE  H10Y18153   0.505   7.546   3.986 -0.1030  0.2686 -0.3732
  162SAPE  C31118154   0.606   7.356   3.998  0.6136 -1.0612  0.4119
  162SAPE  H11X18155   0.710   7.395   4.008 -0.5773  3.4237 -2.0560
  162SAPE  H11Y18156   0.602   7.273   3.924 -2.1177  1.4953 -2.6331
  162SAPE  C31218157   0.551   7.312   4.129 -0.1899 -0.0203 -0.3013
  162SAPE  H12X18158   0.440   7.321   4.121 -0.0404  1.9175 -0.6892
  162SAPE  H12Y18159   0.588   7.378   4.211 -0.1496 -0.9890  0.4819
  162SAPE  C31318160   0.603   7.179   4.176 -0.1695  0.6282 -0.1231
  162SAPE  H13X18161   0.573   7.163   4.281 -0.9897  1.4264 -0.2293
  162SAPE  H13Y18162   0.714   7.173   4.175 -0.1990  0.0063 -0.0242
  162SAPE  C31418163   0.550   7.057   4.112 -0.3466 -0.4827  0.3302
  162SAPE  H14X18164   0.625   6.980   4.139  1.2905  1.2312  0.8609
  162SAPE  H14Y18165   0.547   7.073   4.002 -1.8641  0.6023  0.4921
  162SAPE  C31518166   0.409   7.003   4.142  0.3305  0.4979 -0.5482
  162SAPE  H15X18167   0.390   6.914   4.077 -1.5000 -0.7876  1.6228
  162SAPE  H15Y18168   0.338   7.083   4.113 -0.8704  0.7316  2.7109
  162SAPE  C31618169   0.386   6.980   4.293  0.1850  0.3599  0.5008
  162SAPE  H16X18170   0.276   6.964   4.300  0.1047  0.8932  0.5506
  162SAPE  H16Y18171   0.413   7.067   4.357  0.4979 -0.7153  1.8656
  162SAPE  C31718172   0.466   6.863   4.345 -0.6133  0.1615  0.4630
  162SAPE  H17X18173   0.565   6.840   4.300 -0.3230  0.2378  1.0409
  162SAPE  H17Y18174   0.397   6.782   4.314 -1.1252  0.9255 -0.4242
  162SAPE  C31818175   0.480   6.850   4.496  0.3189  0.4081 -0.8118
  162SAPE  H18X18176   0.381   6.847   4.544 -0.2717  1.6693 -1.8857
  162SAPE  H18Y18177   0.540   6.937   4.532  1.4988 -1.2306  1.4398
  162SAPE  H18Z18178   0.538   6.759   4.522  0.6053  0.8541  0.1738
  163SAPE     N18179   0.662   5.727   1.841  0.4030  0.4475  0.6088
  163SAPE   HN118180   0.732   5.803   1.855  1.0442 -0.1101  0.5178
  163SAPE   HN218181   0.717   5.640   1.823 -2.5123 -1.0977 -1.6695
  163SAPE   HN318182   0.603   5.763   1.764  2.3209  0.2786 -1.0388
  163SAPE   C1218183   0.591   5.712   1.970  0.1088  0.4788 -0.3772
  163SAPE  H12A18184   0.517   5.632   1.949  1.4560 -1.3013  1.2586
  163SAPE  H12B18185   0.540   5.808   1.992 -3.1961 -1.0752 -0.6093
  163SAPE   C1118186   0.688   5.661   2.075 -0.2870 -0.3777 -0.1960
  163SAPE  H11A18187   0.718   5.554   2.065  2.1972 -0.1816  3.4589
  163SAPE  H11B18188   0.639   5.665   2.174  0.8484  0.1072  0.3640
  163SAPE     P18189   0.828   5.862   2.169 -0.4821 -0.0873  0.0918
  163SAPE   O1318190   0.978   5.880   2.172  0.2671 -0.3354  0.1132
  163SAPE   O1418191   0.746   5.977   2.131 -0.2019 -0.2515 -0.0596
  163SAPE   O1218192   0.805   5.743   2.078  1.0849 -0.2934  0.4501
  163SAPE   O1118193   0.775   5.805   2.310 -0.5688 -0.4354 -0.6443
  163SAPE    C118194   0.651   5.846   2.366 -0.2510 -0.0968  0.2350
  163SAPE    HA18195   0.571   5.848   2.289  1.0102 -1.0036 -1.1515
  163SAPE    HB18196   0.620   5.787   2.454 -0.2971  1.4459  1.2999
  163SAPE    C218197   0.660   5.990   2.424  1.0472  0.3097  0.0903
  163SAPE    HS18198   0.641   6.053   2.335  2.1410  0.4546 -0.0585
  163SAPE   O2118199   0.795   6.013   2.476 -0.3608  0.7600 -0.4037
  163SAPE   C2118200   0.828   6.133   2.505  0.0625  0.4323 -0.3473
  163SAPE   O2218201   0.765   6.228   2.477 -0.2757 -0.1458  0.1537
  163SAPE   C2218202   0.951   6.136   2.601 -0.0926  0.2270  0.1056
  163SAPE   H2R18203   0.923   6.076   2.690  0.4738 -1.7240 -0.9761
  163SAPE   H2S18204   1.029   6.078   2.548 -0.7451 -0.1775 -0.4298
  163SAPE    C318205   0.553   6.030   2.530  0.3658  0.4744 -0.3891
  163SAPE    HX18206   0.456   5.986   2.499  0.4757  1.3943 -2.1582
  163SAPE    HY18207   0.537   6.139   2.517  0.3467  0.4299 -0.7549
  163SAPE   O3118208   0.585   5.967   2.659 -0.4840  0.1013  0.0069
  163SAPE   C3118209   0.552   6.037   2.762 -1.1808 -0.1254 -0.5700
  163SAPE   O3218210   0.512   6.149   2.750  0.3807  0.1261  0.0474
  163SAPE   C3218211   0.582   5.965   2.900  0.1191 -0.0286 -1.1920
  163SAPE   H2X18212   0.690   5.945   2.917  0.3865  2.5707  0.7475
  163SAPE   H2Y18213   0.510   5.880   2.900  1.5640 -1.3393 -2.6836
  163SAPE   C2318214   1.001   6.279   2.627  0.4535 -0.1707 -0.7791
  163SAPE   H3R18215   0.977   6.341   2.537 -0.3870  2.0028  0.8589
  163SAPE   H3S18216   1.112   6.274   2.630  0.3913 -2.5129 -1.0623
  163SAPE   C2418217   0.947   6.356   2.743  0.5072 -0.0033 -0.7317
  163SAPE   H4R18218   0.975   6.463   2.733  1.0186  0.0638  0.9963
  163SAPE   H4S18219   1.002   6.320   2.833  2.3740 -0.8876 -2.1538
  163SAPE   C2518220   0.800   6.342   2.770 -0.3528 -0.1388 -0.0747
  163SAPE   H5R18221   0.740   6.317   2.681  2.1317  1.5327 -2.3592
  163SAPE   C2618222   0.731   6.371   2.890 -0.2140  0.4894 -0.4939
  163SAPE   H6R18223   0.621   6.361   2.889 -0.2822  1.2073 -1.1856
  163SAPE   C2718224   0.795   6.408   3.021  0.3064  0.2633 -0.3353
  163SAPE   H7R18225   0.708   6.449   3.078 -0.2417 -2.2129  0.7169
  163SAPE   H7S18226   0.862   6.496   3.010 -1.1649  1.4362 -0.2501
  163SAPE   C2818227   0.849   6.296   3.106 -0.0644  0.4046  0.0813
  163SAPE   H8R18228   0.877   6.200   3.060 -0.1449 -1.1033  2.9593
  163SAPE   C2918229   0.905   6.313   3.226 -0.2044 -0.1698 -0.3908
  163SAPE   H9R18230   0.952   6.234   3.286  0.1398 -0.2553 -0.7729
  163SAPE  C21018231   0.915   6.451   3.303  0.0840 -0.4766  0.1158
  163SAPE  H10R18232   0.856   6.443   3.397 -1.0872  2.6822 -0.2420
  163SAPE  H10S18233   0.871   6.535   3.245  0.9760 -1.1826 -1.6558
  163SAPE  C21118234   1.056   6.490   3.341  0.1498 -0.5758 -0.0130
  163SAPE  H11R18235   1.139   6.442   3.287 -1.1205 -3.5226  0.4997
  163SAPE  C21218236   1.085   6.578   3.439  0.4284  0.1262 -0.0259
  163SAPE  H12R18237   1.187   6.595   3.477  0.0616 -1.9506  2.1363
  163SAPE  C21318238   0.978   6.665   3.510 -0.1033  0.4404  0.2670
  163SAPE  H13R18239   0.875   6.647   3.472 -0.7691  0.1721  2.1352
  163SAPE  H13S18240   0.994   6.773   3.488 -1.3941  0.3015 -1.6659
  163SAPE  C21418241   0.968   6.641   3.659  0.3570 -0.4193  0.5299
  163SAPE  H14R18242   0.877   6.583   3.679  0.7745 -0.8477  1.2215
  163SAPE  C21518243   1.028   6.698   3.761 -0.4448 -0.3550  0.4938
  163SAPE  H15R18244   0.999   6.667   3.862 -1.1270 -0.8269  0.1625
  163SAPE  C21618245   1.147   6.783   3.763  0.2338  0.1430  0.4024
  163SAPE  H16R18246   1.139   6.854   3.848  2.8760 -2.3456  2.9285
  163SAPE  H16S18247   1.158   6.850   3.674 -2.7871  0.5459  0.2005
  163SAPE  C21718248   1.275   6.700   3.802 -0.4534 -0.2047 -0.2957
  163SAPE  H17R18249   1.364   6.766   3.816 -1.3856  1.0980 -0.3178
  163SAPE  H17S18250   1.298   6.636   3.714  1.9957 -2.1374  1.6093
  163SAPE  C21818251   1.270   6.625   3.941 -0.0193  0.4899 -0.4786
  163SAPE  H18R18252   1.325   6.528   3.943 -0.1747  0.3982  2.1908
  163SAPE  H18S18253   1.163   6.615   3.971  0.1728 -0.0601  0.0292
  163SAPE  C21918254   1.343   6.702   4.055 -0.3642  0.0332  0.3839
  163SAPE  H19R18255   1.450   6.710   4.029  0.2342 -0.7863  2.3524
  163SAPE  H19S18256   1.341   6.637   4.146  0.6884  0.7451  0.9352
  163SAPE  C22018257   1.271   6.833   4.094 -0.0002 -0.0286  0.3415
  163SAPE  H20R18258   1.342   6.897   4.151  0.4442 -0.4080  0.2152
  163SAPE  H20S18259   1.182   6.822   4.159  1.0883  0.3065  1.9280
  163SAPE  H20T18260   1.259   6.896   4.003 -1.1880  0.6651  0.9572
  163SAPE   C3318261   0.566   6.061   3.022  0.1007  0.0164 -0.2411
  163SAPE   H3X18262   0.456   6.068   3.034  0.3748  2.0461  1.7919
  163SAPE   H3Y18263   0.608   6.164   3.014  2.6382 -0.9959 -0.9749
  163SAPE   C3418264   0.631   5.995   3.146  0.6764 -0.6742  0.5481
  163SAPE   H4X18265   0.741   6.001   3.133  0.2765  0.5262 -4.2786
  163SAPE   H4Y18266   0.613   5.886   3.152 -0.3740 -0.6036 -0.7505
  163SAPE   C3518267   0.593   6.073   3.278 -0.3977  0.6544  0.4719
  163SAPE   H5X18268   0.491   6.045   3.312  0.1713  0.0294  1.7012
  163SAPE   H5Y18269   0.590   6.183   3.264 -1.4765  0.7255  1.1372
  163SAPE   C3618270   0.702   6.048   3.384  0.4070 -0.6958 -0.4305
  163SAPE   H6X18271   0.790   6.110   3.356  0.9387  0.2148  2.8608
  163SAPE   H6Y18272   0.731   5.941   3.389  1.1091 -0.5536 -1.1394
  163SAPE   C3718273   0.649   6.105   3.524  0.0199  0.2677 -0.2460
  163SAPE   H7X18274   0.541   6.124   3.513 -0.0534 -0.3279 -0.6736
  163SAPE   H7Y18275   0.676   6.207   3.558 -0.6974 -0.2608  2.0822
  163SAPE   C3818276   0.648   6.004   3.629 -0.6347 -0.2441 -0.2614
  163SAPE   H8X18277   0.757   5.985   3.642 -0.6843  0.1263  0.8056
  163SAPE   H8Y18278   0.600   5.906   3.607 -1.1439 -0.5330  1.8842
  163SAPE   C3918279   0.600   6.058   3.763  0.4822 -0.3618  0.5219
  163SAPE   H9X18280   0.490   6.048   3.756  0.5675 -0.2917 -4.2465
  163SAPE   H9Y18281   0.622   6.167   3.762 -2.2189  0.2829 -1.5633
  163SAPE  C31018282   0.649   5.986   3.893 -0.2347  0.1855  0.5027
  163SAPE  H10X18283   0.760   5.990   3.890 -0.1964 -0.8537 -1.9095
  163SAPE  H10Y18284   0.632   5.877   3.889 -0.9053  0.2359  1.6140
  163SAPE  C31118285   0.603   6.056   4.025  0.5645  0.0624  0.0644
  163SAPE  H11X18286   0.494   6.036   4.023  0.4976  0.3636  0.5117
  163SAPE  H11Y18287   0.626   6.164   4.015 -0.5779  0.1219 -2.8669
  163SAPE  C31218288   0.668   5.991   4.150 -0.2606 -0.1757 -0.2173
  163SAPE  H12X18289   0.771   5.962   4.120 -0.7666 -1.5836 -0.7127
  163SAPE  H12Y18290   0.621   5.892   4.173 -1.8493  1.4142  4.6089
  163SAPE  C31318291   0.655   6.074   4.276 -0.2471  0.0393  0.7911
  163SAPE  H13X18292   0.550   6.098   4.306 -0.0470  1.2297  0.5896
  163SAPE  H13Y18293   0.715   6.165   4.253  0.0864 -0.7004 -1.5376
  163SAPE  C31418294   0.716   6.001   4.394 -0.2208  0.7968  0.4849
  163SAPE  H14X18295   0.695   5.892   4.394  0.8014  0.5868 -0.5750
  163SAPE  H14Y18296   0.665   6.037   4.486 -1.5813  0.9415 -0.3013
  163SAPE  C31518297   0.866   6.024   4.412  0.1436 -0.4802 -0.0431
  163SAPE  H15X18298   0.882   6.129   4.443 -0.3719 -0.3296 -0.2711
  163SAPE  H15Y18299   0.910   6.012   4.311 -0.5092  1.0737 -0.5392
  163SAPE  C31618300   0.930   5.923   4.508  0.4958 -0.4196  0.1273
  163SAPE  H16X18301   1.037   5.929   4.482  0.5981 -0.7245  0.4710
  163SAPE  H16Y18302   0.892   5.822   4.481 -0.7633 -0.1500  0.7674
  163SAPE  C31718303   0.919   5.948   4.664 -0.2962  0.3022  0.2454
  163SAPE  H17X18304   0.814   5.954   4.699 -0.8352  0.7680 -1.3699
  163SAPE  H17Y18305   0.971   6.045   4.680 -1.7028  1.4898 -1.9897
  163SAPE  C31818306   0.993   5.835   4.739  0.4042  0.0315  0.1001
  163SAPE  H18X18307   0.979   5.849   4.848 -1.3048  0.9623 -0.2075
  163SAPE  H18Y18308   1.096   5.825   4.698  0.7165  0.1809  0.8268
  163SAPE  H18Z18309   0.937   5.740   4.722 -0.5803  0.6705 -0.2858
  164SAPE     N18310   5.707   4.476   1.985 -0.4298  0.3967 -0.1049
  164SAPE   HN118311   5.612   4.517   1.984 -0.4594  0.3425  0.3918
  164SAPE   HN218312   5.777   4.544   2.022  0.8149 -1.1415  0.5019
  164SAPE   HN318313   5.733   4.435   1.892  3.6678 -3.1463  2.1918
  164SAPE   C1218314   5.705   4.344   2.075 -0.0885 -0.4689 -0.2977
  164SAPE  H12A18315   5.804   4.293   2.072 -0.9768 -2.3438  0.6197
  164SAPE  H12B18316   5.631   4.275   2.028  1.0631 -1.2430 -1.0457
  164SAPE   C1118317   5.660   4.374   2.223  0.5037 -0.4674 -0.2076
  164SAPE  H11A18318   5.734   4.435   2.279 -0.2288  0.9192 -0.7039
  164SAPE  H11B18319   5.671   4.280   2.282 -0.7379  1.1111  2.7863
  164SAPE     P18320   5.399   4.340   2.225  0.0850 -0.4122  0.0263
  164SAPE   O1318321   5.281   4.417   2.281 -0.3176  0.0925  0.5014
  164SAPE   O1418322   5.378   4.277   2.093 -0.4927  0.3720  0.0512
  164SAPE   O1218323   5.523   4.433   2.231  0.0973  0.4106  0.2426
  164SAPE   O1118324   5.437   4.230   2.330  0.5010  0.3920 -0.0179
  164SAPE    C118325   5.339   4.130   2.368 -0.1289 -0.1906  0.5757
  164SAPE    HA18326   5.248   4.184   2.403  0.8122  3.0518 -1.4933
  164SAPE    HB18327   5.307   4.066   2.283 -0.4655  0.0638  0.5096
  164SAPE    C218328   5.395   4.036   2.479  0.4636  0.1636  0.1568
  164SAPE    HS18329   5.311   3.968   2.504 -1.7044  2.1097 -1.3013
  164SAPE   O2118330   5.443   4.115   2.588 -0.0493  0.2061 -0.7441
  164SAPE   C2118331   5.352   4.127   2.681  0.3029  0.6971 -0.4909
  164SAPE   O2218332   5.231   4.101   2.671  0.4150 -0.1972 -0.3368
  164SAPE   C2218333   5.413   4.186   2.811  0.0494  0.2205 -0.6014
  164SAPE   H2R18334   5.467   4.102   2.858 -2.4657 -0.7869  0.7021
  164SAPE   H2S18335   5.481   4.264   2.771  0.3942 -0.0824 -0.6109
  164SAPE    C318336   5.508   3.936   2.426 -0.3950  0.2040 -0.8662
  164SAPE    HX18337   5.607   3.982   2.406  1.3997 -2.0818  1.9863
  164SAPE    HY18338   5.464   3.899   2.331 -0.5387 -1.2943 -0.2475
  164SAPE   O3118339   5.520   3.837   2.527  0.0134 -0.1954 -0.1459
  164SAPE   C3118340   5.618   3.836   2.605  0.5951 -0.1483  0.1487
  164SAPE   O3218341   5.701   3.925   2.631  0.4696  0.3626  0.0661
  164SAPE   C3218342   5.620   3.693   2.667 -0.9010  0.3375  0.6057
  164SAPE   H2X18343   5.704   3.642   2.615 -1.1128 -0.9168  1.4541
  164SAPE   H2Y18344   5.524   3.640   2.649 -0.7018  0.4442 -0.8916
  164SAPE   C2318345   5.313   4.245   2.912  0.1402  0.3058  0.1945
  164SAPE   H3R18346   5.219   4.188   2.927  0.7537 -0.4409  1.3093
  164SAPE   H3S18347   5.293   4.349   2.879  3.7898  1.1021  0.0473
  164SAPE   C2418348   5.365   4.257   3.055  0.0936  1.0169 -0.3190
  164SAPE   H4R18349   5.383   4.152   3.085  0.1506  0.8902 -0.8017
  164SAPE   H4S18350   5.279   4.281   3.122  0.2743 -1.3722  0.8644
  164SAPE   C2518351   5.481   4.353   3.083  0.2881 -0.0695  0.6526
  164SAPE   H5R18352   5.577   4.333   3.034  0.5905  0.2465  1.1036
  164SAPE   C2618353   5.476   4.449   3.180 -1.0482  0.0085  0.5131
  164SAPE   H6R18354   5.561   4.520   3.186 -0.3538 -0.8390  0.9021
  164SAPE   C2718355   5.363   4.478   3.277 -0.1350 -0.1123 -0.3132
  164SAPE   H7R18356   5.318   4.383   3.313 -1.1140  0.2346 -0.5924
  164SAPE   H7S18357   5.281   4.536   3.229 -0.3349  0.4686  0.7143
  164SAPE   C2818358   5.411   4.566   3.389  0.1331  0.4231 -0.8662
  164SAPE   H8R18359   5.456   4.662   3.358  1.8151 -0.0870 -0.0879
  164SAPE   C2918360   5.412   4.538   3.523 -0.0933  0.6010  0.3803
  164SAPE   H9R18361   5.450   4.614   3.593 -1.5321  1.3425  0.4014
  164SAPE  C21018362   5.347   4.419   3.584  0.7069 -0.1079 -0.9840
  164SAPE  H10R18363   5.403   4.329   3.549  0.0213 -0.3181 -1.5782
  164SAPE  H10S18364   5.244   4.396   3.547  0.9986  0.2944 -2.0850
  164SAPE  C21118365   5.319   4.423   3.732 -0.1270 -0.4234 -0.1726
  164SAPE  H11R18366   5.217   4.391   3.756  0.1685 -0.3330  1.2757
  164SAPE  C21218367   5.407   4.445   3.829 -0.4405 -0.0691  0.0669
  164SAPE  H12R18368   5.371   4.457   3.932  0.7855  3.1516  0.2222
  164SAPE  C21318369   5.561   4.474   3.839  0.1331  0.2516 -0.5610
  164SAPE  H13R18370   5.601   4.450   3.738 -1.9529 -0.1670 -1.3494
  164SAPE  H13S18371   5.601   4.393   3.903  1.1205  0.1150 -1.3204
  164SAPE  C21418372   5.593   4.614   3.885  0.1601 -0.0939  0.0067
  164SAPE  H14R18373   5.665   4.668   3.821  2.0060 -1.3091  0.9788
  164SAPE  C21518374   5.574   4.654   4.012  0.2834  0.2366 -0.6182
  164SAPE  H15R18375   5.615   4.755   4.023  0.8512 -0.0943  0.4538
  164SAPE  C21618376   5.516   4.587   4.136 -0.0433  0.1694 -0.0644
  164SAPE  H16R18377   5.463   4.492   4.113 -1.2661  1.2271 -1.8550
  164SAPE  H16S18378   5.437   4.654   4.176 -0.6528 -0.0920 -0.8077
  164SAPE  C21718379   5.618   4.565   4.253  0.1073 -0.0406  0.0769
  164SAPE  H17R18380   5.685   4.487   4.211  1.7923  0.8681  0.9840
  164SAPE  H17S18381   5.571   4.520   4.344  2.7394 -3.8208 -0.1694
  164SAPE  C21818382   5.697   4.686   4.307  0.3599 -0.6559 -0.5069
  164SAPE  H18R18383   5.626   4.764   4.341  0.7371 -1.2356  1.7960
  164SAPE  H18S18384   5.761   4.732   4.228 -1.8288  2.2264 -0.7755
  164SAPE  C21918385   5.788   4.663   4.426  0.4990  0.5120 -0.2937
  164SAPE  H19R18386   5.859   4.593   4.378 -0.3424 -0.7514  0.2519
  164SAPE  H19S18387   5.743   4.616   4.516  3.1983  0.5549  1.1730
  164SAPE  C22018388   5.853   4.788   4.482 -0.1185  0.0174  0.5348
  164SAPE  H20R18389   5.768   4.856   4.504  0.2933  1.1737 -1.2538
  164SAPE  H20S18390   5.917   4.841   4.408 -3.0611 -0.3212 -2.4926
  164SAPE  H20T18391   5.905   4.758   4.576 -0.6390  1.7557  1.4092
  164SAPE   C3318392   5.648   3.695   2.819  0.3985 -0.7662  0.0067
  164SAPE   H3X18393   5.735   3.756   2.850  1.0311 -2.0451  0.8251
  164SAPE   H3Y18394   5.664   3.592   2.858  1.6432 -0.5403  0.1229
  164SAPE   C3418395   5.523   3.758   2.891  0.3676  0.5744 -0.1902
  164SAPE   H4X18396   5.430   3.712   2.851  0.9733 -1.7824  0.9564
  164SAPE   H4Y18397   5.536   3.866   2.870  1.6063  0.2631 -1.1640
  164SAPE   C3518398   5.530   3.730   3.043  0.2357  0.1789 -0.2779
  164SAPE   H5X18399   5.626   3.682   3.070  0.1953 -0.2370 -0.8709
  164SAPE   H5Y18400   5.446   3.665   3.075 -0.5062  1.0462 -0.4165
  164SAPE   C3618401   5.535   3.864   3.123 -0.2577  0.6864 -0.4057
  164SAPE   H6X18402   5.436   3.908   3.099 -1.1711 -1.6263 -1.1516
  164SAPE   H6Y18403   5.607   3.936   3.079  0.2460  0.6077  0.2790
  164SAPE   C3718404   5.546   3.839   3.280 -0.5882 -0.3216 -0.8839
  164SAPE   H7X18405   5.657   3.829   3.286 -0.4238  0.5917 -2.1059
  164SAPE   H7Y18406   5.507   3.738   3.305 -4.0141  0.8666 -0.9498
  164SAPE   C3818407   5.490   3.949   3.377 -0.0874  0.0480 -0.0243
  164SAPE   H8X18408   5.383   3.924   3.396 -0.5586  1.4302 -0.6604
  164SAPE   H8Y18409   5.497   4.046   3.322 -2.8823 -0.5762 -1.6930
  164SAPE   C3918410   5.556   3.946   3.514  0.6732 -0.3073  0.3370
  164SAPE   H9X18411   5.490   4.012   3.574 -0.3786 -1.7318  0.7945
  164SAPE   H9Y18412   5.655   3.996   3.508 -1.0684  3.2454 -1.4034
  164SAPE  C31018413   5.568   3.800   3.568 -0.5975 -0.2710  0.8487
  164SAPE  H10X18414   5.666   3.765   3.531 -0.7361  0.5297 -0.3401
  164SAPE  H10Y18415   5.495   3.733   3.518  0.9403 -1.8120  0.5843
  164SAPE  C31118416   5.563   3.774   3.722 -0.0447  0.4810  0.0296
  164SAPE  H11X18417   5.474   3.818   3.771  0.7234  0.4517  1.5205
  164SAPE  H11Y18418   5.655   3.826   3.756 -0.7833  2.8633 -1.3621
  164SAPE  C31218419   5.581   3.632   3.773 -0.1841 -0.4895 -0.4020
  164SAPE  H12X18420   5.681   3.591   3.747  1.1979  1.2630  1.8094
  164SAPE  H12Y18421   5.503   3.555   3.754  1.8748 -2.4868 -1.2872
  164SAPE  C31318422   5.580   3.641   3.928  0.2566  0.1153 -0.2186
  164SAPE  H13X18423   5.478   3.658   3.967  0.1357  0.0551 -0.5050
  164SAPE  H13Y18424   5.642   3.730   3.951 -1.1413  1.9397 -2.9387
  164SAPE  C31418425   5.630   3.515   3.997 -0.2036 -0.5811 -0.2989
  164SAPE  H14X18426   5.724   3.488   3.945 -1.2553 -0.4220 -2.3765
  164SAPE  H14Y18427   5.550   3.444   3.966 -2.2784  0.8490  1.4030
  164SAPE  C31518428   5.646   3.537   4.143  0.3513 -0.1522  0.4829
  164SAPE  H15X18429   5.583   3.469   4.204  0.9899  1.2299  2.7760
  164SAPE  H15Y18430   5.625   3.643   4.167  3.3539  0.7335 -0.2809
  164SAPE  C31618431   5.793   3.517   4.196  0.2412 -0.0748  0.4449
  164SAPE  H16X18432   5.796   3.557   4.299 -4.7871  0.7386  0.5551
  164SAPE  H16Y18433   5.864   3.582   4.140 -1.1557  0.5221 -0.7173
  164SAPE  C31718434   5.842   3.371   4.182 -0.4333 -0.5776 -0.7375
  164SAPE  H17X18435   5.852   3.350   4.073 -0.0387 -0.7743 -0.6652
  164SAPE  H17Y18436   5.777   3.289   4.219  1.4650 -1.7705  0.0582
  164SAPE  C31818437   5.979   3.352   4.242 -0.0927  0.0132 -1.5200
  164SAPE  H18X18438   6.004   3.244   4.235  0.8577  0.2407 -1.8693
  164SAPE  H18Y18439   5.988   3.371   4.351 -1.1660 -0.7008 -1.2936
  164SAPE  H18Z18440   6.060   3.400   4.182 -1.2231  1.3145 -2.0624
  165SAPE     N18441   5.500   0.928   2.545 -0.5123  0.1169 -0.3961
  165SAPE   HN118442   5.551   0.981   2.471 -1.3402  0.4015 -0.7655
  165SAPE   HN218443   5.439   0.854   2.504  0.0349  0.9453 -2.8874
  165SAPE   HN318444   5.434   0.993   2.592 -2.0228  0.6233 -3.0549
  165SAPE   C1218445   5.590   0.875   2.646 -0.6858 -0.4391 -0.4189
  165SAPE  H12A18446   5.641   0.786   2.603  0.9834 -0.8177  2.1174
  165SAPE  H12B18447   5.534   0.846   2.738 -0.9157 -0.2545 -0.5015
  165SAPE   C1118448   5.703   0.977   2.681  0.3563 -0.5207  0.3862
  165SAPE  H11A18449   5.768   0.917   2.748 -0.0243 -0.4003  0.8716
  165SAPE  H11B18450   5.660   1.067   2.730 -0.4256 -1.0594  0.7276
  165SAPE     P18451   5.878   1.129   2.545  0.0588 -0.0685  0.1696
  165SAPE   O1318452   5.958   1.100   2.420 -0.3964  0.4340 -0.4778
  165SAPE   O1418453   5.793   1.251   2.547 -0.5355  0.0752  0.1262
  165SAPE   O1218454   5.785   1.004   2.564 -0.4602  0.0906  0.1195
  165SAPE   O1118455   5.962   1.117   2.683 -0.1627 -0.1864  0.1148
  165SAPE    C118456   6.048   1.004   2.700  0.0501  0.1122 -0.0566
  165SAPE    HA18457   5.979   0.919   2.718 -0.2882  0.0179 -1.6396
  165SAPE    HB18458   6.108   0.981   2.609 -0.6256 -1.0333 -0.2421
  165SAPE    C218459   6.148   1.012   2.819  0.0193 -0.2813 -0.2747
  165SAPE    HS18460   6.205   0.917   2.830  1.0446  0.5814  3.0660
  165SAPE   O2118461   6.086   1.037   2.943  0.1235  0.3891  0.1306
  165SAPE   C2118462   6.028   0.935   3.005  0.1926  0.1962 -1.1973
  165SAPE   O2218463   6.028   0.817   2.958 -0.0062 -0.7605 -0.5646
  165SAPE   C2218464   5.985   0.981   3.148  0.2919  0.1331  0.1173
  165SAPE   H2R18465   6.043   1.073   3.170  2.1758 -0.1275 -3.0705
  165SAPE   H2S18466   5.874   0.990   3.144  0.2648  0.4084  1.3163
  165SAPE    C318467   6.269   1.113   2.804  0.8019 -0.4530 -0.8739
  165SAPE    HX18468   6.224   1.213   2.784  0.8795 -0.2660 -0.1383
  165SAPE    HY18469   6.326   1.080   2.714  1.5213 -0.3311 -0.4649
  165SAPE   O3118470   6.349   1.135   2.924  0.1598 -0.2029  0.0259
  165SAPE   C3118471   6.446   1.051   2.950 -0.1210 -0.1007 -0.1070
  165SAPE   O3218472   6.488   0.962   2.878 -0.7986 -0.5748 -0.0495
  165SAPE   C3218473   6.503   1.095   3.080  0.9260 -0.8320 -0.4924
  165SAPE   H2X18474   6.562   1.016   3.130  0.5286 -0.7824  0.0629
  165SAPE   H2Y18475   6.415   1.118   3.144  0.9659 -1.3767 -0.2407
  165SAPE   C2318476   6.004   0.865   3.246 -0.3045  0.4132 -0.0206
  165SAPE   H3R18477   5.974   0.765   3.205 -0.8455  0.9157 -0.8878
  165SAPE   H3S18478   5.940   0.890   3.333 -1.1652  2.8764 -1.2688
  165SAPE   C2418479   6.143   0.857   3.291 -0.8953  0.5238  0.5984
  165SAPE   H4R18480   6.212   0.826   3.210 -2.6495 -2.2490  0.0459
  165SAPE   H4S18481   6.154   0.774   3.365 -0.0658  0.8151  0.8215
  165SAPE   C2518482   6.198   0.988   3.362 -0.3619  0.3267  0.6208
  165SAPE   H5R18483   6.220   1.077   3.301  0.4062  0.8469  1.6324
  165SAPE   C2618484   6.241   0.992   3.487 -0.3214  0.1604 -0.1509
  165SAPE   H6R18485   6.280   1.088   3.525  0.1306  0.4548 -1.3097
  165SAPE   C2718486   6.246   0.881   3.589 -0.1828  0.5590  0.1087
  165SAPE   H7R18487   6.325   0.808   3.562 -1.3264 -0.0481 -1.7745
  165SAPE   H7S18488   6.155   0.819   3.578  0.8008 -0.6795 -1.3025
  165SAPE   C2818489   6.268   0.918   3.733  0.4554 -0.2338  0.5281
  165SAPE   H8R18490   6.360   0.876   3.776 -0.0909 -0.9419  1.0294
  165SAPE   C2918491   6.181   0.982   3.812 -0.3251 -0.4878  0.1039
  165SAPE   H9R18492   6.189   0.977   3.921 -1.0237 -1.2192  0.1279
  165SAPE  C21018493   6.046   1.030   3.766  0.3185  0.4418 -0.6352
  165SAPE  H10R18494   6.032   0.988   3.665  1.0498  0.3447 -0.6968
  165SAPE  H10S18495   6.027   1.139   3.757  1.2739  0.7210  0.4527
  165SAPE  C21118496   5.922   0.965   3.831  0.4599 -0.3806 -0.5541
  165SAPE  H11R18497   5.916   0.856   3.823 -2.2003 -0.3980  0.6005
  165SAPE  C21218498   5.823   1.021   3.901  1.1917 -0.1884 -0.5833
  165SAPE  H12R18499   5.747   0.951   3.938  1.8321 -0.9360 -0.6694
  165SAPE  C21318500   5.806   1.158   3.952  0.3080  0.2583 -0.0071
  165SAPE  H13R18501   5.814   1.223   3.863  0.1820 -1.7470 -1.5460
  165SAPE  H13S18502   5.883   1.180   4.028  0.3743 -0.9429  0.2895
  165SAPE  C21418503   5.664   1.187   4.011  0.7579 -0.2672  0.3980
  165SAPE  H14R18504   5.598   1.235   3.937  0.5241 -0.6195  0.3738
  165SAPE  C21518505   5.614   1.170   4.135 -0.1699 -0.2253  0.1770
  165SAPE  H15R18506   5.514   1.207   4.159  0.1708  1.7659 -1.2086
  165SAPE  C21618507   5.682   1.104   4.251 -0.7679  1.0900 -0.9388
  165SAPE  H16R18508   5.759   1.165   4.302  0.0135 -1.8398  1.7643
  165SAPE  H16S18509   5.736   1.011   4.221 -0.7067  0.6315  0.5325
  165SAPE  C21718510   5.581   1.063   4.360 -0.2465  0.2241  0.0815
  165SAPE  H17R18511   5.536   1.162   4.383  2.8920  1.4370  1.6644
  165SAPE  H17S18512   5.636   1.026   4.449 -0.4309  1.9805  0.9861
  165SAPE  C21818513   5.484   0.955   4.329 -0.3852  0.5434  0.2439
  165SAPE  H18R18514   5.523   0.855   4.299  2.0975  1.5908 -0.1718
  165SAPE  H18S18515   5.411   0.985   4.251  0.2659 -0.2642 -0.6969
  165SAPE  C21918516   5.380   0.926   4.441  0.2435 -0.4388  0.2124
  165SAPE  H19R18517   5.446   0.884   4.520  2.5703  1.9053 -0.3666
  165SAPE  H19S18518   5.306   0.856   4.396 -0.4000 -1.2199  2.3137
  165SAPE  C22018519   5.307   1.050   4.489  0.8188  0.9992 -0.5179
  165SAPE  H20R18520   5.270   1.097   4.396  0.7383  3.4247  0.6593
  165SAPE  H20S18521   5.384   1.119   4.531  1.0322  0.8498 -0.6608
  165SAPE  H20T18522   5.231   1.040   4.569  3.3279 -1.4914  1.8007
  165SAPE   C3318523   6.595   1.221   3.072  0.2862 -0.7135  0.2108
  165SAPE   H3X18524   6.524   1.294   3.027 -1.2127 -2.2750 -0.0772
  165SAPE   H3Y18525   6.683   1.214   3.005 -1.2725 -0.1207 -2.0599
  165SAPE   C3418526   6.656   1.271   3.194  0.2438 -0.5290 -0.3155
  165SAPE   H4X18527   6.726   1.355   3.175 -1.1484  0.1010 -3.1902
  165SAPE   H4Y18528   6.723   1.189   3.227  0.8483 -0.2922 -0.9179
  165SAPE   C3518529   6.572   1.301   3.319 -1.0403 -0.4818 -0.9274
  165SAPE   H5X18530   6.492   1.224   3.326  0.0113 -1.6215 -1.0783
  165SAPE   H5Y18531   6.529   1.403   3.305 -1.8492 -0.9450 -1.9525
  165SAPE   C3618532   6.662   1.314   3.452  0.6806 -0.2612  0.3313
  165SAPE   H6X18533   6.749   1.383   3.443  0.1396  0.5406  1.0856
  165SAPE   H6Y18534   6.706   1.213   3.471  0.4883 -0.5733 -0.7894
  165SAPE   C3718535   6.576   1.357   3.569  0.0773 -0.0872  0.3110
  165SAPE   H7X18536   6.560   1.467   3.570 -1.0979 -0.2313  2.3702
  165SAPE   H7Y18537   6.644   1.344   3.655  2.0396  0.3139 -1.1119
  165SAPE   C3818538   6.443   1.286   3.595 -0.4430  0.2671 -0.1469
  165SAPE   H8X18539   6.459   1.180   3.566  0.7289  0.4918 -0.3945
  165SAPE   H8Y18540   6.364   1.327   3.529  0.3104  1.7386 -0.1829
  165SAPE   C3918541   6.396   1.309   3.744  0.8023  0.0103 -0.0396
  165SAPE   H9X18542   6.471   1.361   3.807  1.3509 -1.3865  0.5201
  165SAPE   H9Y18543   6.362   1.213   3.790 -0.7950 -0.3569 -1.8425
  165SAPE  C31018544   6.264   1.383   3.736  0.8684 -0.1641 -0.9755
  165SAPE  H10X18545   6.193   1.320   3.677 -0.8985 -1.0770  1.8849
  165SAPE  H10Y18546   6.280   1.475   3.676 -0.6153  0.6397 -0.1817
  165SAPE  C31118547   6.197   1.423   3.864  0.6548 -0.1874 -0.0096
  165SAPE  H11X18548   6.272   1.461   3.938 -0.2372  2.2505 -0.2796
  165SAPE  H11Y18549   6.137   1.339   3.905  1.4786 -0.0029  1.6972
  165SAPE  C31218550   6.110   1.539   3.839  0.1623  0.3176  0.3144
  165SAPE  H12X18551   6.028   1.498   3.777 -0.8030  0.8754  1.1800
  165SAPE  H12Y18552   6.167   1.607   3.771  1.2842 -0.1036  0.8016
  165SAPE  C31318553   6.056   1.599   3.969  0.0252 -0.1460  0.2493
  165SAPE  H13X18554   5.993   1.689   3.949 -1.6748 -1.3618 -0.1281
  165SAPE  H13Y18555   6.141   1.648   4.021  0.5345 -1.5728  0.8270
  165SAPE  C31418556   5.977   1.507   4.058 -0.1198 -0.1865 -0.5736
  165SAPE  H14X18557   6.045   1.440   4.114  1.0856 -0.8187 -2.6759
  165SAPE  H14Y18558   5.915   1.443   3.991  0.0265 -2.5808  1.4361
  165SAPE  C31518559   5.889   1.581   4.165 -0.1466  0.0828 -0.0695
  165SAPE  H15X18560   5.812   1.635   4.107 -0.9831 -0.7606  0.2280
  165SAPE  H15Y18561   5.949   1.646   4.232  0.0352  0.7794 -0.8864
  165SAPE  C31618562   5.824   1.483   4.255  0.0855  0.1576 -0.4710
  165SAPE  H16X18563   5.806   1.392   4.193 -3.1438  1.4720 -1.6989
  165SAPE  H16Y18564   5.722   1.508   4.289 -0.0521  0.5443 -1.1393
  165SAPE  C31718565   5.889   1.444   4.389  0.3088  0.2773  0.0159
  165SAPE  H17X18566   5.996   1.429   4.360 -0.1997 -2.1129 -0.8861
  165SAPE  H17Y18567   5.853   1.342   4.416  1.3809 -0.8142 -2.3239
  165SAPE  C31818568   5.873   1.535   4.510 -0.3885  0.1939  0.3616
  165SAPE  H18X18569   5.921   1.486   4.598  3.0535 -0.3258 -1.6436
  165SAPE  H18Y18570   5.768   1.560   4.537 -0.6531 -0.4434 -0.0617
  165SAPE  H18Z18571   5.923   1.632   4.490 -1.1942  0.5735  0.1585
  166SAPE     N18572   5.012   6.686   2.186  0.1016 -0.5031  0.4545
  166SAPE   HN118573   5.053   6.640   2.269  0.2896 -1.2336 -0.0285
  166SAPE   HN218574   5.084   6.728   2.123  1.9987 -4.2424 -0.1175
  166SAPE   HN318575   4.944   6.761   2.211  1.1615  0.9947 -0.8812
  166SAPE   C1218576   4.954   6.579   2.097 -0.4529 -0.6201  0.5756
  166SAPE  H12A18577   5.010   6.484   2.117  0.1554  0.0882  2.4533
  166SAPE  H12B18578   4.975   6.615   1.994  1.9557 -1.4689  0.6923
  166SAPE   C1118579   4.805   6.568   2.135 -0.3861  0.5650 -0.6021
  166SAPE  H11A18580   4.777   6.472   2.086  2.8100 -0.3024 -0.9251
  166SAPE  H11B18581   4.743   6.655   2.107  0.9706  1.8794  0.3556
  166SAPE     P18582   4.659   6.563   2.349 -0.0371 -0.3575  0.3557
  166SAPE   O1318583   4.638   6.707   2.367 -0.1071 -0.9055  0.8622
  166SAPE   O1418584   4.550   6.482   2.281  0.0404 -0.1155 -0.1246
  166SAPE   O1218585   4.799   6.557   2.276  0.0468  0.1911  0.4242
  166SAPE   O1118586   4.695   6.500   2.489  0.2498  0.1088 -0.0299
  166SAPE    C118587   4.803   6.556   2.556 -0.1555 -0.6296 -1.0099
  166SAPE    HA18588   4.900   6.522   2.512  1.5579  0.9627  1.2869
  166SAPE    HB18589   4.798   6.667   2.557  0.6140 -0.4856 -3.8472
  166SAPE    C218590   4.801   6.511   2.706  0.0208 -0.3285  0.2396
  166SAPE    HS18591   4.814   6.401   2.703 -0.3168 -0.3613 -0.2116
  166SAPE   O2118592   4.671   6.553   2.760 -0.8579  0.5717 -0.2322
  166SAPE   C2118593   4.627   6.468   2.854  0.3950 -0.0894  0.2140
  166SAPE   O2218594   4.686   6.370   2.895  0.7464 -0.1585  0.2317
  166SAPE   C2218595   4.484   6.504   2.894  0.5935  0.1657 -0.3732
  166SAPE   H2R18596   4.479   6.614   2.899  3.0298  0.2988  0.5173
  166SAPE   H2S18597   4.415   6.458   2.820  0.6291 -2.4181  1.0666
  166SAPE    C318598   4.917   6.581   2.783 -0.2980 -0.1261  0.7286
  166SAPE    HX18599   4.896   6.690   2.773  0.0890  0.1828  2.8421
  166SAPE    HY18600   5.014   6.549   2.739 -1.0000 -1.1177 -0.1534
  166SAPE   O3118601   4.909   6.557   2.921  0.6648  0.7480  0.3242
  166SAPE   C3118602   4.964   6.449   2.969 -0.0031 -0.7530 -0.7763
  166SAPE   O3218603   5.018   6.364   2.898  0.5304  0.1580  0.2398
  166SAPE   C3218604   4.968   6.449   3.124 -0.2692 -0.5575 -0.3475
  166SAPE   H2X18605   4.982   6.556   3.150  1.4425 -1.0752  0.9974
  166SAPE   H2Y18606   5.058   6.402   3.169 -0.1989  2.4322  3.0770
  166SAPE   C2318607   4.448   6.455   3.038  0.2684 -0.4754 -0.4261
  166SAPE   H3R18608   4.480   6.541   3.100  0.6245 -0.7677 -0.1933
  166SAPE   H3S18609   4.514   6.372   3.073  0.4013 -1.1008 -2.0512
  166SAPE   C2418610   4.302   6.409   3.037 -0.1707  0.4194  0.4771
  166SAPE   H4R18611   4.275   6.358   3.132  0.3849 -1.1003 -0.1423
  166SAPE   H4S18612   4.298   6.319   2.972 -1.4352  1.3699 -0.7996
  166SAPE   C2518613   4.211   6.519   3.006 -0.2968 -0.0492 -0.1468
  166SAPE   H5R18614   4.214   6.553   2.902 -1.2052 -0.9589 -0.4930
  166SAPE   C2618615   4.116   6.575   3.093  0.2172 -0.5307  0.6616
  166SAPE   H6R18616   4.062   6.665   3.059  1.4145 -0.3702 -0.9725
  166SAPE   C2718617   4.095   6.535   3.237  0.8073  0.2242  0.4298
  166SAPE   H7R18618   4.122   6.625   3.297  2.5242 -0.0800  0.1765
  166SAPE   H7S18619   4.170   6.465   3.280  0.8592  1.0270  1.7086
  166SAPE   C2818620   3.966   6.467   3.292  0.0186 -1.0791 -0.0761
  166SAPE   H8R18621   3.914   6.416   3.209 -2.3434 -0.7740  1.1068
  166SAPE   C2918622   3.906   6.469   3.414  0.2722  0.4932  0.2359
  166SAPE   H9R18623   3.812   6.413   3.427  1.2580 -0.7913  2.5743
  166SAPE  C21018624   3.949   6.532   3.544  0.3582 -0.1927  0.5820
  166SAPE  H10R18625   3.854   6.530   3.602 -0.0134 -0.9267 -0.0392
  166SAPE  H10S18626   3.982   6.634   3.515  1.1641 -0.8241 -0.8648
  166SAPE  C21118627   4.064   6.470   3.611 -0.0204  0.2003  0.1325
  166SAPE  H11R18628   4.135   6.420   3.543  0.0456 -0.5983  0.7691
  166SAPE  C21218629   4.084   6.454   3.744  0.1007  0.6124  0.2637
  166SAPE  H12R18630   4.177   6.403   3.773  0.6916  0.5022 -1.6617
  166SAPE  C21318631   3.989   6.508   3.853  0.4962 -0.3469 -0.5859
  166SAPE  H13R18632   3.926   6.418   3.873 -0.9123  0.5977 -0.5550
  166SAPE  H13S18633   3.924   6.588   3.813 -0.7621 -0.8729  0.3190
  166SAPE  C21418634   4.051   6.557   3.979 -0.2515  0.4732  0.2278
  166SAPE  H14R18635   4.112   6.646   3.961 -0.8316  0.7317 -0.4895
  166SAPE  C21518636   4.086   6.488   4.085  0.1708  0.8527  0.5819
  166SAPE  H15R18637   4.127   6.545   4.170 -0.9504  1.3875  0.7728
  166SAPE  C21618638   4.037   6.344   4.124 -0.4898 -0.5861 -0.5428
  166SAPE  H16R18639   4.121   6.273   4.109 -1.4012 -1.8166 -0.0566
  166SAPE  H16S18640   3.957   6.308   4.055 -1.4449  0.1373  0.1719
  166SAPE  C21718641   3.974   6.345   4.270 -0.0211  0.1226  0.9033
  166SAPE  H17R18642   3.931   6.243   4.275  0.8898 -0.6810 -3.4999
  166SAPE  H17S18643   3.889   6.415   4.257 -0.2149 -0.5161 -2.0698
  166SAPE  C21818644   4.069   6.366   4.389  0.4569  0.4166  0.3229
  166SAPE  H18R18645   4.012   6.350   4.484  1.8978  0.8894  1.3030
  166SAPE  H18S18646   4.118   6.466   4.396  0.8004  0.1849  1.5498
  166SAPE  C21918647   4.182   6.259   4.393 -0.3333 -0.2015 -0.5334
  166SAPE  H19R18648   4.239   6.277   4.487 -2.7607 -0.3971  1.0723
  166SAPE  H19S18649   4.255   6.277   4.311 -0.9732  0.4617 -0.9689
  166SAPE  C22018650   4.142   6.116   4.390  0.4299  0.1818  0.2284
  166SAPE  H20R18651   4.098   6.088   4.292  0.8922 -2.4165  0.7031
  166SAPE  H20S18652   4.060   6.092   4.462  0.6192 -2.5525 -0.3751
  166SAPE  H20T18653   4.227   6.048   4.409  1.2570  1.3170  0.7103
  166SAPE   C3318654   4.824   6.404   3.172  0.1489  0.0400 -0.2331
  166SAPE   H3X18655   4.806   6.297   3.148 -1.9622 -0.1091  1.6615
  166SAPE   H3Y18656   4.739   6.452   3.120  0.8021  0.3671 -1.0248
  166SAPE   C3418657   4.793   6.438   3.319  0.6137  0.0158 -0.4308
  166SAPE   H4X18658   4.685   6.429   3.342  0.7600  3.4358  2.4872
  166SAPE   H4Y18659   4.809   6.547   3.337  0.3882  0.2309 -1.4812
  166SAPE   C3518660   4.874   6.357   3.416 -0.5255  0.3675 -0.4651
  166SAPE   H5X18661   4.983   6.377   3.402 -0.4277  1.7178  1.6935
  166SAPE   H5Y18662   4.860   6.249   3.395  0.6393  0.0033  0.4915
  166SAPE   C3618663   4.847   6.402   3.566 -0.1948  0.9092  0.5910
  166SAPE   H6X18664   4.740   6.382   3.588 -0.3066 -2.2110 -2.0077
  166SAPE   H6Y18665   4.855   6.513   3.563 -4.5154  1.5026 -4.2143
  166SAPE   C3718666   4.940   6.343   3.674 -0.1131 -1.0696  0.3467
  166SAPE   H7X18667   5.047   6.349   3.645  0.5167 -1.3556  2.4190
  166SAPE   H7Y18668   4.917   6.234   3.680 -0.7710 -1.0544 -1.4394
  166SAPE   C3818669   4.923   6.420   3.806  0.0981 -0.1295  0.1163
  166SAPE   H8X18670   4.817   6.414   3.840 -0.6121 -0.8247 -2.0596
  166SAPE   H8Y18671   4.957   6.526   3.805 -0.3690  0.0244  0.0490
  166SAPE   C3918672   5.007   6.356   3.919  0.1122 -0.2370  0.1168
  166SAPE   H9X18673   5.116   6.362   3.896  0.4861 -0.5339  1.6689
  166SAPE   H9Y18674   4.986   6.247   3.912 -0.6656 -0.0827  0.0079
  166SAPE  C31018675   4.998   6.429   4.059  0.2951  0.2184 -0.2317
  166SAPE  H10X18676   4.920   6.507   4.038 -1.8570 -2.1730 -1.7769
  166SAPE  H10Y18677   5.090   6.470   4.104  0.3495 -0.8975  0.7155
  166SAPE  C31118678   4.943   6.338   4.168 -0.2827 -0.1022  0.8654
  166SAPE  H11X18679   4.968   6.230   4.154 -0.4495 -0.2481  1.6351
  166SAPE  H11Y18680   4.834   6.348   4.152  0.1279  0.7567 -1.9743
  166SAPE  C31218681   4.975   6.388   4.311  1.1452 -0.5940  0.5616
  166SAPE  H12X18682   5.083   6.374   4.334  1.2715  2.6451  2.6076
  166SAPE  H12Y18683   4.913   6.321   4.374 -0.7215  0.4638 -0.0420
  166SAPE  C31318684   4.926   6.531   4.329 -0.1881 -0.6123  0.0835
  166SAPE  H13X18685   4.819   6.533   4.299 -0.0216  1.5833 -0.5745
  166SAPE  H13Y18686   4.981   6.596   4.257 -1.7153 -1.1846 -1.6671
  166SAPE  C31418687   4.945   6.584   4.479 -0.1926  0.3088  0.2425
  166SAPE  H14X18688   4.917   6.691   4.485  1.2815  0.8964 -2.0213
  166SAPE  H14Y18689   5.055   6.582   4.494 -0.0994 -1.6702 -0.3731
  166SAPE  C31518690   4.863   6.520   4.589  0.3196 -0.8732  0.5232
  166SAPE  H15X18691   4.800   6.443   4.540  0.5552 -1.1607  0.6693
  166SAPE  H15Y18692   4.809   6.596   4.650  2.7210  1.7897 -0.4202
  166SAPE  C31618693   4.943   6.439   4.695 -0.3809 -0.4469 -0.3555
  166SAPE  H16X18694   4.989   6.509   4.767 -0.3251 -1.0660  0.2152
  166SAPE  H16Y18695   5.018   6.382   4.635  1.1541  0.9760  0.1596
  166SAPE  C31718696   4.847   6.350   4.780  0.1659 -0.1030 -0.4086
  166SAPE  H17X18697   4.784   6.283   4.718 -0.6771 -0.4557  0.7896
  166SAPE  H17Y18698   4.777   6.414   4.837 -2.0916 -2.3180 -0.4896
  166SAPE  C31818699   4.924   6.272   4.885 -1.0136  0.6933  0.0690
  166SAPE  H18X18700   4.975   6.346   4.949 -1.5215 -0.8259  2.3536
  166SAPE  H18Y18701   4.999   6.197   4.852 -1.6282 -0.2955  0.8446
  166SAPE  H18Z18702   4.869   6.207   4.956  1.9259 -3.2868 -0.9211
  167SAPE     N18703   3.219   2.707   1.916 -0.2623 -0.7886 -0.4292
  167SAPE   HN118704   3.321   2.687   1.929  0.1608  1.1210 -0.5500
  167SAPE   HN218705   3.185   2.634   1.851  1.2355 -1.5047 -0.4589
  167SAPE   HN318706   3.213   2.794   1.860  3.0129 -1.0460 -1.3981
  167SAPE   C1218707   3.146   2.710   2.049  0.1368  0.7876  0.0892
  167SAPE  H12A18708   3.122   2.602   2.065  1.0588  0.8632  2.3261
  167SAPE  H12B18709   3.054   2.771   2.035  1.0684  2.9339  2.4976
  167SAPE   C1118710   3.224   2.784   2.156 -0.3736  0.4691  0.6893
  167SAPE  H11A18711   3.156   2.785   2.243 -1.1251 -2.2012  0.2255
  167SAPE  H11B18712   3.234   2.886   2.114  0.7305  0.7280  1.5417
  167SAPE     P18713   3.376   2.649   2.310  0.1504 -0.0043  0.1559
  167SAPE   O1318714   3.284   2.534   2.313  0.3452 -0.7234 -0.0550
  167SAPE   O1418715   3.521   2.622   2.322 -0.2239  0.1498  0.4256
  167SAPE   O1218716   3.350   2.734   2.176 -0.1879 -0.2811 -0.0366
  167SAPE   O1118717   3.328   2.743   2.427 -0.6656  0.2186  0.0918
  167SAPE    C118718   3.400   2.861   2.467 -0.0049  0.1857  0.3849
  167SAPE    HA18719   3.467   2.895   2.385 -0.1757  2.8070  1.2351
  167SAPE    HB18720   3.321   2.939   2.479 -0.4911 -0.1381 -0.5478
  167SAPE    C218721   3.471   2.850   2.602 -0.4989 -0.3581  0.3959
  167SAPE    HS18722   3.564   2.793   2.583  2.3692  2.9019  3.3838
  167SAPE   O2118723   3.376   2.777   2.686 -0.1368 -0.6787  0.1977
  167SAPE   C2118724   3.421   2.708   2.782 -0.4204 -0.0796  0.0935
  167SAPE   O2218725   3.541   2.683   2.791  0.1668 -0.3946 -0.1405
  167SAPE   C2218726   3.315   2.654   2.875  0.6166 -0.1690  0.5842
  167SAPE   H2R18727   3.269   2.740   2.929  1.2400  1.5767 -1.5099
  167SAPE   H2S18728   3.233   2.610   2.816  0.9908 -1.7029  1.1724
  167SAPE    C318729   3.519   2.989   2.648  0.1529 -0.0462 -0.1107
  167SAPE    HX18730   3.423   3.044   2.645 -0.3020 -0.8394 -0.1795
  167SAPE    HY18731   3.586   3.038   2.574  0.5062  1.5148  1.1951
  167SAPE   O3118732   3.567   2.992   2.783  0.4091 -0.4977 -0.1307
  167SAPE   C3118733   3.704   3.002   2.794  0.2873 -0.2015  0.2082
  167SAPE   O3218734   3.786   2.976   2.705  0.2921 -0.0621 -0.9900
  167SAPE   C3218735   3.739   3.037   2.943  0.2079 -0.5007 -0.4411
  167SAPE   H2X18736   3.744   2.947   3.009  1.0344  0.1713  0.4389
  167SAPE   H2Y18737   3.661   3.111   2.969  0.1914 -0.1931 -1.3413
  167SAPE   C2318738   3.375   2.555   2.980  0.3290  0.4024 -0.4244
  167SAPE   H3R18739   3.427   2.607   3.063  0.2889 -1.4088  0.8153
  167SAPE   H3S18740   3.444   2.481   2.934 -1.8797 -0.2512 -2.9255
  167SAPE   C2418741   3.262   2.483   3.063  0.3545  0.2558  0.0555
  167SAPE   H4R18742   3.209   2.411   2.997  1.0880 -0.7237  0.5071
  167SAPE   H4S18743   3.189   2.560   3.094  1.2263  1.6868 -1.2620
  167SAPE   C2518744   3.322   2.404   3.182 -0.0923  0.3625 -0.2316
  167SAPE   H5R18745   3.431   2.418   3.185 -0.1703  0.9008  0.2565
  167SAPE   C2618746   3.250   2.318   3.257 -1.2554  0.2238 -0.3091
  167SAPE   H6R18747   3.298   2.267   3.342 -0.2636 -0.1367 -1.0676
  167SAPE   C2718748   3.105   2.284   3.250 -0.3497 -0.1591 -0.6121
  167SAPE   H7R18749   3.104   2.178   3.217 -1.5941 -0.5630  0.6401
  167SAPE   H7S18750   3.054   2.339   3.168  0.8446  0.9115 -0.6733
  167SAPE   C2818751   3.005   2.290   3.370  0.2299  0.5782  0.5910
  167SAPE   H8R18752   2.937   2.376   3.376 -0.9273 -0.2054 -0.6947
  167SAPE   C2918753   2.993   2.188   3.455  0.1288 -0.0035  0.1860
  167SAPE   H9R18754   2.914   2.206   3.530 -1.9054  1.5740 -2.1509
  167SAPE  C21018755   3.072   2.056   3.451 -0.0184  0.3655  0.1285
  167SAPE  H10R18756   3.169   2.072   3.399 -2.0348  3.7056 -3.1735
  167SAPE  H10S18757   3.022   1.982   3.385 -0.6652 -1.5814  2.6799
  167SAPE  C21118758   3.088   1.999   3.587  0.9377 -0.8834 -0.2183
  167SAPE  H11R18759   3.180   2.036   3.635  1.2389 -0.4935 -1.0751
  167SAPE  C21218760   3.007   1.899   3.633 -0.5895 -0.4717  0.5928
  167SAPE  H12R18761   3.039   1.858   3.730  1.2401 -0.1311  0.1759
  167SAPE  C21318762   2.890   1.833   3.565 -0.1395  0.9218 -0.1245
  167SAPE  H13R18763   2.928   1.775   3.478 -0.9833  1.5842 -0.9611
  167SAPE  H13S18764   2.823   1.907   3.516 -0.5842  0.2190 -0.6084
  167SAPE  C21418765   2.819   1.741   3.671  0.4377 -0.1418  0.5345
  167SAPE  H14R18766   2.871   1.700   3.759 -0.8756  1.9885  2.4123
  167SAPE  C21518767   2.692   1.694   3.660  0.8095 -0.1849 -0.2538
  167SAPE  H15R18768   2.659   1.635   3.747  0.9082  1.7870  1.1824
  167SAPE  C21618769   2.593   1.724   3.547 -0.5917 -0.3585 -0.4610
  167SAPE  H16R18770   2.610   1.831   3.521  1.2356 -1.0287 -2.3646
  167SAPE  H16S18771   2.488   1.710   3.579 -1.0503  1.4247 -1.0818
  167SAPE  C21718772   2.595   1.621   3.430  0.2882  0.3914  0.0822
  167SAPE  H17R18773   2.492   1.639   3.392  0.2386  0.3294  0.1885
  167SAPE  H17S18774   2.607   1.519   3.472 -0.8547  0.2865  0.1920
  167SAPE  C21818775   2.697   1.649   3.315 -0.8557  0.2529  0.3365
  167SAPE  H18R18776   2.802   1.660   3.348 -0.7889 -0.5959  0.4148
  167SAPE  H18S18777   2.678   1.735   3.246  1.5375  0.4475 -0.1898
  167SAPE  C21918778   2.691   1.531   3.214 -0.1166 -0.1818  0.2883
  167SAPE  H19R18779   2.593   1.532   3.161 -0.8889  3.7794  1.4877
  167SAPE  H19S18780   2.698   1.437   3.273  2.9161 -1.2696 -1.5621
  167SAPE  C22018781   2.807   1.534   3.114 -0.3057 -0.2958 -0.0076
  167SAPE  H20R18782   2.905   1.568   3.152 -0.7121 -0.2828  1.0746
  167SAPE  H20S18783   2.776   1.608   3.037 -2.3134 -1.3001 -0.2445
  167SAPE  H20T18784   2.815   1.432   3.071  1.7990 -0.3226  0.3495
  167SAPE   C3318785   3.871   3.125   2.950 -0.7540 -0.0053 -0.3871
  167SAPE   H3X18786   3.849   3.225   2.905  0.0317  1.0667  1.4865
  167SAPE   H3Y18787   3.957   3.072   2.903  1.9293  2.9529  0.8089
  167SAPE   C3418788   3.899   3.147   3.103  0.0838  0.8607 -0.4097
  167SAPE   H4X18789   4.004   3.181   3.114  1.9598 -4.4225  0.9471
  167SAPE   H4Y18790   3.897   3.040   3.131  1.4213  0.3969 -1.9109
  167SAPE   C3518791   3.810   3.257   3.168 -0.0966  0.1327 -0.1377
  167SAPE   H5X18792   3.706   3.237   3.136 -0.1822  1.7962 -1.0557
  167SAPE   H5Y18793   3.827   3.357   3.121  1.8031  0.1743  0.5559
  167SAPE   C3618794   3.828   3.274   3.322  0.1261  0.0736  0.4737
  167SAPE   H6X18795   3.781   3.365   3.364  0.0879 -0.4300  1.5501
  167SAPE   H6Y18796   3.937   3.287   3.333  0.1394  1.2585 -0.8345
  167SAPE   C3718797   3.798   3.149   3.405  0.8279 -0.4663 -0.1888
  167SAPE   H7X18798   3.841   3.058   3.358  2.8047  0.9984 -1.3729
  167SAPE   H7Y18799   3.689   3.129   3.399  0.9992 -1.1106 -1.4733
  167SAPE   C3818800   3.840   3.173   3.545 -0.4961  0.1653  0.2221
  167SAPE   H8X18801   3.812   3.279   3.559  0.2784  0.9214 -3.0374
  167SAPE   H8Y18802   3.950   3.176   3.537 -0.4760 -0.9140 -0.1347
  167SAPE   C3918803   3.787   3.069   3.643  0.3650  0.0944 -0.3825
  167SAPE   H9X18804   3.827   2.970   3.612  0.9919  0.6138 -1.2523
  167SAPE   H9Y18805   3.676   3.064   3.644  0.3700 -0.5669  1.2193
  167SAPE  C31018806   3.844   3.095   3.782 -0.2134 -0.5760 -0.3046
  167SAPE  H10X18807   3.802   3.196   3.802  0.9664  0.0965 -1.1153
  167SAPE  H10Y18808   3.953   3.112   3.768 -0.5088  1.7683 -0.0422
  167SAPE  C31118809   3.820   2.984   3.878  0.1774  0.8959  0.5130
  167SAPE  H11X18810   3.876   2.891   3.854 -2.7429 -0.9108  0.1362
  167SAPE  H11Y18811   3.713   2.951   3.878  0.3909 -0.2660  4.0911
  167SAPE  C31218812   3.856   3.029   4.021  0.2160  0.0016  0.5841
  167SAPE  H12X18813   3.802   3.121   4.052  0.3418  0.6073 -0.9436
  167SAPE  H12Y18814   3.961   3.061   4.004 -0.2002  0.6812 -0.7917
  167SAPE  C31318815   3.824   2.918   4.123  0.3673  0.3419  0.3245
  167SAPE  H13X18816   3.772   2.830   4.081  0.3842  0.1371  0.7291
  167SAPE  H13Y18817   3.761   2.959   4.205 -1.7295  0.6385 -1.3590
  167SAPE  C31418818   3.956   2.846   4.167  0.3245 -0.5781 -0.1045
  167SAPE  H14X18819   3.995   2.808   4.070  0.9431 -0.8584  0.2492
  167SAPE  H14Y18820   3.931   2.758   4.231 -0.5260 -0.1480  0.1722
  167SAPE  C31518821   4.049   2.935   4.253  1.1323 -0.3071 -0.1736
  167SAPE  H15X18822   4.093   3.015   4.189  1.5228 -0.6160 -0.2914
  167SAPE  H15Y18823   4.123   2.863   4.293  2.6162  1.9482  1.3942
  167SAPE  C31618824   3.973   2.995   4.378 -0.1406  0.1906  0.4159
  167SAPE  H16X18825   3.912   2.914   4.424  0.4927  0.3829  1.6402
  167SAPE  H16Y18826   3.904   3.073   4.340  1.3094  1.2739 -0.0672
  167SAPE  C31718827   4.070   3.050   4.478 -0.4313 -0.8864  0.2029
  167SAPE  H17X18828   4.142   3.118   4.429 -0.8734 -0.2234  0.4571
  167SAPE  H17Y18829   4.132   2.979   4.537  0.5059  0.7350  1.2481
  167SAPE  C31818830   3.998   3.139   4.583 -0.1659  0.1206  0.6303
  167SAPE  H18X18831   3.903   3.176   4.539 -0.5246 -2.0095 -0.5516
  167SAPE  H18Y18832   4.065   3.214   4.631 -1.1321  1.3815  0.0621
  167SAPE  H18Z18833   3.952   3.070   4.657 -2.9982 -0.0933 -1.1902
  168SAPE     N18834   1.935   1.019   2.053 -0.4695  0.3616 -0.4140
  168SAPE   HN118835   1.938   1.089   2.130 -3.6461  1.4617 -1.1036
  168SAPE   HN218836   2.010   0.950   2.070  0.7388  1.2580 -1.8663
  168SAPE   HN318837   1.960   1.075   1.969  2.6023 -2.4513 -1.5762
  168SAPE   C1218838   1.793   0.957   2.034 -0.0256 -0.0642  0.0915
  168SAPE  H12A18839   1.781   0.931   1.926  4.1806  1.2193 -0.8696
  168SAPE  H12B18840   1.726   1.037   2.073  0.7766  0.4534  0.4292
  168SAPE   C1118841   1.792   0.826   2.120  1.0472 -0.3493  0.0957
  168SAPE  H11A18842   1.685   0.797   2.119  0.6194  1.0882  0.9865
  168SAPE  H11B18843   1.805   0.852   2.227  0.1945 -2.3433  0.7266
  168SAPE     P18844   2.008   0.677   2.147  0.3448  0.1055 -0.9129
  168SAPE   O1318845   2.052   0.545   2.092  0.5766 -0.1918  0.1442
  168SAPE   O1418846   2.085   0.800   2.129  0.6498  0.6800  0.0972
  168SAPE   O1218847   1.874   0.718   2.074 -0.2808  0.7258 -0.3639
  168SAPE   O1118848   1.964   0.666   2.296  0.1678 -0.3320 -0.9237
  168SAPE    C118849   1.865   0.566   2.328 -0.2609  0.2078 -0.4298
  168SAPE    HA18850   1.766   0.591   2.283 -0.9742  2.2310  2.0714
  168SAPE    HB18851   1.903   0.463   2.306 -2.4214 -1.1592  1.6978
  168SAPE    C218852   1.843   0.569   2.485 -0.0918 -0.5902  0.8637
  168SAPE    HS18853   1.768   0.498   2.526  1.9429 -1.8375  2.5973
  168SAPE   O2118854   1.811   0.698   2.528  0.7901  0.4493 -0.1840
  168SAPE   C2118855   1.684   0.721   2.513 -0.0560  0.2532 -0.8593
  168SAPE   O2218856   1.599   0.643   2.467  0.0689 -0.1358 -0.5992
  168SAPE   C2218857   1.651   0.861   2.561  0.1068  0.1852  0.6499
  168SAPE   H2R18858   1.706   0.925   2.488  2.3910 -0.8785  1.3595
  168SAPE   H2S18859   1.544   0.890   2.557  0.1472  1.0395  3.6511
  168SAPE    C318860   1.972   0.547   2.573  0.1422 -0.0969  0.5206
  168SAPE    HX18861   2.038   0.635   2.561 -1.6327  1.1267 -0.7540
  168SAPE    HY18862   2.023   0.456   2.535 -0.6111  0.6880 -2.7048
  168SAPE   O3118863   1.941   0.519   2.712 -0.8922 -0.1993  0.3061
  168SAPE   C3118864   2.051   0.532   2.790  0.1492 -1.4189  0.9641
  168SAPE   O3218865   2.159   0.573   2.756 -0.3781  0.9207  0.3220
  168SAPE   C3218866   2.009   0.504   2.941  0.5656  0.2976  0.9024
  168SAPE   H2X18867   1.955   0.408   2.953 -1.4794  1.4317  1.1403
  168SAPE   H2Y18868   1.932   0.579   2.968  0.3640  0.3790  0.1374
  168SAPE   C2318869   1.706   0.898   2.700  0.7839  0.0811 -0.1507
  168SAPE   H3R18870   1.706   1.009   2.704  0.6251  0.0537  0.9205
  168SAPE   H3S18871   1.813   0.872   2.709  0.5445 -1.3082 -1.0740
  168SAPE   C2418872   1.624   0.839   2.819  0.5658  0.1948  0.2789
  168SAPE   H4R18873   1.683   0.870   2.908  0.8182  1.1831 -0.2092
  168SAPE   H4S18874   1.634   0.729   2.832 -0.8810  0.4092  4.3323
  168SAPE   C2518875   1.479   0.872   2.825  0.1886  0.1078 -0.0347
  168SAPE   H5R18876   1.424   0.823   2.743  0.9043 -0.4755 -0.1784
  168SAPE   C2618877   1.406   0.921   2.930  0.3118  0.0079 -0.3640
  168SAPE   H6R18878   1.300   0.941   2.911  0.0308 -1.4291 -0.3961
  168SAPE   C2718879   1.468   0.961   3.064  0.2593  0.6018 -0.4789
  168SAPE   H7R18880   1.526   1.056   3.054 -0.2455  0.7826 -1.8872
  168SAPE   H7S18881   1.533   0.877   3.096 -1.1404 -0.5952 -0.6706
  168SAPE   C2818882   1.367   0.986   3.172  0.7361 -0.1057 -0.1988
  168SAPE   H8R18883   1.278   1.032   3.127  0.5073  1.5721  1.7941
  168SAPE   C2918884   1.368   0.977   3.310 -0.4888  0.0708 -0.2577
  168SAPE   H9R18885   1.281   1.004   3.371 -1.3212 -3.3195  0.3043
  168SAPE  C21018886   1.494   0.926   3.387  0.1158 -0.0163  0.0722
  168SAPE  H10R18887   1.531   0.996   3.464  1.8203  0.4583 -1.1374
  168SAPE  H10S18888   1.577   0.913   3.315 -0.6492  0.8109 -1.0005
  168SAPE  C21118889   1.454   0.794   3.452  0.8787 -1.4371  0.2022
  168SAPE  H11R18890   1.441   0.714   3.377  0.7070 -0.8282 -0.4291
  168SAPE  C21218891   1.469   0.759   3.584 -0.0522  1.0281 -0.1160
  168SAPE  H12R18892   1.434   0.660   3.618 -1.7456  1.9516  1.0079
  168SAPE  C21318893   1.494   0.851   3.704  0.2011 -0.5124  0.3361
  168SAPE  H13R18894   1.393   0.875   3.744 -0.1661 -0.3585 -0.6621
  168SAPE  H13S18895   1.529   0.954   3.679  1.5744 -1.3853 -1.6278
  168SAPE  C21418896   1.599   0.795   3.798  0.2349  0.4418  0.6059
  168SAPE  H14R18897   1.678   0.744   3.741  0.7344  1.3438  0.4748
  168SAPE  C21518898   1.598   0.793   3.928 -0.9415 -0.4917 -0.5546
  168SAPE  H15R18899   1.685   0.748   3.979 -1.7865 -1.8845 -0.2947
  168SAPE  C21618900   1.491   0.849   4.018 -0.4695 -0.1659 -0.4711
  168SAPE  H16R18901   1.420   0.764   4.024  0.2160 -0.6522  2.4565
  168SAPE  H16S18902   1.442   0.940   3.976  0.7469  0.6836 -0.1198
  168SAPE  C21718903   1.530   0.889   4.162  0.0777  0.1050 -0.1309
  168SAPE  H17R18904   1.551   0.998   4.169 -1.0141  0.2334  1.4949
  168SAPE  H17S18905   1.622   0.833   4.189 -0.0556 -0.9561 -1.7550
  168SAPE  C21818906   1.424   0.862   4.268  0.6637 -0.4690  0.4815
  168SAPE  H18R18907   1.405   0.753   4.264  0.0626 -0.3229 -1.1789
  168SAPE  H18S18908   1.336   0.925   4.244  0.6687 -1.2654 -1.9277
  168SAPE  C21918909   1.461   0.914   4.406 -0.0657 -0.7530 -1.4726
  168SAPE  H19R18910   1.371   0.917   4.472  0.3617 -1.4257 -0.8409
  168SAPE  H19S18911   1.490   1.021   4.405 -0.7305 -0.5428 -0.2219
  168SAPE  C22018912   1.554   0.823   4.481  0.2476 -0.7997 -0.6494
  168SAPE  H20R18913   1.609   0.859   4.571  2.3556 -3.9456 -0.5064
  168SAPE  H20S18914   1.633   0.783   4.413  0.5741 -2.4665  0.6336
  168SAPE  H20T18915   1.498   0.736   4.522  1.0532 -0.8918  0.3000
  168SAPE   C3318916   2.127   0.518   3.036 -0.5099  0.0601 -0.8004
  168SAPE   H3X18917   2.173   0.617   3.012 -0.6697  0.7079  1.3210
  168SAPE   H3Y18918   2.186   0.425   3.022  1.5325  1.4779 -2.2658
  168SAPE   C3418919   2.089   0.526   3.183  0.2350 -0.3486  0.0127
  168SAPE   H4X18920   2.046   0.428   3.212  1.5645 -1.1989 -0.7666
  168SAPE   H4Y18921   2.010   0.604   3.177  1.0847  0.4250 -2.9315
  168SAPE   C3518922   2.191   0.566   3.280  0.4335 -0.2560  0.3851
  168SAPE   H5X18923   2.142   0.584   3.378 -3.5384 -0.6451 -1.3376
  168SAPE   H5Y18924   2.241   0.661   3.251  1.3888 -1.6521 -3.1014
  168SAPE   C3618925   2.305   0.470   3.279 -0.2138  0.4519 -0.1369
  168SAPE   H6X18926   2.382   0.519   3.342 -1.5772  0.9531  1.2039
  168SAPE   H6Y18927   2.353   0.459   3.180  2.3973  0.2021  1.0884
  168SAPE   C3718928   2.271   0.330   3.330 -0.3202 -0.0233  0.5131
  168SAPE   H7X18929   2.363   0.268   3.335  1.3064  2.0059 -1.8015
  168SAPE   H7Y18930   2.207   0.280   3.253 -0.8692 -0.0776  1.0001
  168SAPE   C3818931   2.206   0.327   3.467 -0.0689  0.3504 -0.6778
  168SAPE   H8X18932   2.164   0.224   3.476  2.3340 -0.6163  0.4313
  168SAPE   H8Y18933   2.118   0.394   3.475 -1.4935 -1.5224  0.2209
  168SAPE   C3918934   2.296   0.347   3.589 -0.4222  0.4194 -1.2033
  168SAPE   H9X18935   2.346   0.447   3.581 -1.6251  1.4549  2.3746
  168SAPE   H9Y18936   2.382   0.277   3.581  1.7342  3.0419 -2.8720
  168SAPE  C31018937   2.228   0.313   3.718  0.2978  0.1617 -0.1375
  168SAPE  H10X18938   2.187   0.211   3.707  1.7215 -0.3965 -0.4838
  168SAPE  H10Y18939   2.149   0.387   3.741  0.1363 -0.5220  1.7279
  168SAPE  C31118940   2.330   0.298   3.832 -0.1791 -0.1931  0.0372
  168SAPE  H11X18941   2.397   0.387   3.828  0.2504 -0.5609 -1.8824
  168SAPE  H11Y18942   2.391   0.207   3.812  0.1623  0.0095  0.1393
  168SAPE  C31218943   2.261   0.283   3.965  0.5603 -0.4850  0.5672
  168SAPE  H12X18944   2.210   0.185   3.959  3.1119 -2.0778  2.5319
  168SAPE  H12Y18945   2.186   0.362   3.986  0.1571 -0.7709  0.2038
  168SAPE  C31318946   2.361   0.281   4.077  0.1404 -0.2198  0.6323
  168SAPE  H13X18947   2.419   0.375   4.081 -0.1560 -0.0522  1.1111
  168SAPE  H13Y18948   2.437   0.208   4.043  2.4729  2.2401  0.2439
  168SAPE  C31418949   2.308   0.242   4.215 -0.4959  0.1787 -0.1093
  168SAPE  H14X18950   2.397   0.251   4.282  0.3099  0.0218 -1.1374
  168SAPE  H14Y18951   2.267   0.139   4.209 -0.6162  0.2207 -0.0111
  168SAPE  C31518952   2.213   0.341   4.283 -0.1114 -0.2755  0.6139
  168SAPE  H15X18953   2.129   0.324   4.212  0.2604  0.8757 -0.1305
  168SAPE  H15Y18954   2.234   0.450   4.275  1.1901 -0.3566  2.3510
  168SAPE  C31618955   2.171   0.291   4.427  0.5511  0.2010  0.7393
  168SAPE  H16X18956   2.263   0.283   4.489 -0.3734  1.2988  2.3520
  168SAPE  H16Y18957   2.125   0.192   4.405  0.5750  0.3606 -0.0442
  168SAPE  C31718958   2.078   0.381   4.507  0.4087 -0.2496  0.3576
  168SAPE  H17X18959   1.976   0.369   4.465  1.3713 -1.2715 -1.8989
  168SAPE  H17Y18960   2.107   0.482   4.470 -0.4635  0.7030  2.1705
  168SAPE  C31818961   2.083   0.361   4.655  0.2683 -0.1750 -0.3209
  168SAPE  H18X18962   2.064   0.252   4.665 -2.4680  0.1103 -1.4943
  168SAPE  H18Y18963   1.990   0.406   4.696 -1.2779 -0.1373 -3.5084
  168SAPE  H18Z18964   2.174   0.394   4.710  0.0910  0.8637 -0.6327
  169SAPE     N18965   4.764   4.517   2.397  0.1105  0.5792  0.0805
  169SAPE   HN118966   4.866   4.536   2.383 -0.1306  0.9742 -1.2696
  169SAPE   HN218967   4.749   4.539   2.498 -2.5006 -0.0344 -0.1211
  169SAPE   HN318968   4.744   4.415   2.396 -1.2010  0.7242  2.7450
  169SAPE   C1218969   4.663   4.582   2.303 -0.1692  0.2520  0.0887
  169SAPE  H12A18970   4.690   4.555   2.199 -0.3736 -0.6532  0.2628
  169SAPE  H12B18971   4.672   4.692   2.315  1.7883  0.2011 -0.5186
  169SAPE   C1118972   4.521   4.533   2.325 -0.5211  0.8964  0.6481
  169SAPE  H11A18973   4.463   4.603   2.261  1.1137  2.2234  0.5478
  169SAPE  H11B18974   4.477   4.534   2.428 -0.2790 -0.1030  0.7744
  169SAPE     P18975   4.555   4.258   2.329  0.0156  0.2726  0.1772
  169SAPE   O1318976   4.566   4.168   2.211 -0.2927  0.1276 -0.6881
  169SAPE   O1418977   4.673   4.273   2.415 -0.3054 -0.4313  0.0043
  169SAPE   O1218978   4.506   4.399   2.270  0.1384  0.0439 -0.2396
  169SAPE   O1118979   4.445   4.209   2.422  0.2128  0.4937 -0.1141
  169SAPE    C118980   4.312   4.258   2.420  0.2967 -0.2164  0.7233
  169SAPE    HA18981   4.304   4.365   2.389  1.2622 -0.3242  0.0663
  169SAPE    HB18982   4.260   4.198   2.343  0.2116  0.7171  0.0325
  169SAPE    C218983   4.244   4.240   2.554 -0.0446 -0.3020 -0.1111
  169SAPE    HS18984   4.138   4.271   2.537  0.0416 -1.2853 -3.0359
  169SAPE   O2118985   4.303   4.314   2.660 -0.0354 -0.0290 -0.0293
  169SAPE   C2118986   4.256   4.442   2.669 -0.6869 -0.0895 -0.2703
  169SAPE   O2218987   4.182   4.496   2.595  0.4383 -0.1940 -0.1281
  169SAPE   C2218988   4.311   4.508   2.794 -0.4518  0.1281 -0.3310
  169SAPE   H2R18989   4.245   4.596   2.805  0.4238  0.9534 -1.3909
  169SAPE   H2S18990   4.301   4.444   2.884 -1.0081  1.9594  0.9617
  169SAPE    C318991   4.242   4.090   2.586  0.0077 -0.3128 -0.5792
  169SAPE    HX18992   4.344   4.048   2.600  0.8472  1.9465  0.6906
  169SAPE    HY18993   4.191   4.048   2.497  0.4778 -0.8749 -0.5846
  169SAPE   O3118994   4.163   4.064   2.701  0.2229 -0.2602  0.2421
  169SAPE   C3118995   4.035   4.051   2.689  0.3934  0.4660 -0.4532
  169SAPE   O3218996   3.968   4.045   2.587  0.1897  0.8203 -0.5743
  169SAPE   C3218997   3.969   4.047   2.826 -0.1950 -0.4892  0.2123
  169SAPE   H2X18998   3.903   4.136   2.833 -2.7086 -2.2731  0.7356
  169SAPE   H2Y18999   4.046   4.057   2.905 -1.0411  1.3620  0.8663
  169SAPE   C2319000   4.459   4.557   2.784  0.8380  0.1299  0.0708
  169SAPE   H3R19001   4.462   4.614   2.689 -1.6297 -0.5509 -0.5034
  169SAPE   H3S19002   4.517   4.463   2.769  0.5818  0.1101 -0.8067
  169SAPE   C2419003   4.515   4.626   2.904  0.1746 -0.4309 -0.5296
  169SAPE   H4R19004   4.453   4.718   2.909 -0.8943 -1.1973  1.9466
  169SAPE   H4S19005   4.621   4.660   2.892  0.0374 -0.0498 -0.6846
  169SAPE   C2519006   4.500   4.541   3.027 -0.4168  0.6023  0.7242
  169SAPE   H5R19007   4.401   4.533   3.073 -0.5252 -0.9342  0.2917
  169SAPE   C2619008   4.593   4.461   3.078  0.7734  0.3382  0.0782
  169SAPE   H6R19009   4.583   4.404   3.171  0.9971 -3.1495 -1.8796
  169SAPE   C2719010   4.738   4.451   3.022  0.4333 -0.0631  0.0948
  169SAPE   H7R19011   4.813   4.477   3.100 -0.7536  2.2158  0.5584
  169SAPE   H7S19012   4.764   4.528   2.947 -2.1345  0.3531 -0.4415
  169SAPE   C2819013   4.764   4.314   2.955  0.1406  0.8022  0.1866
  169SAPE   H8R19014   4.726   4.326   2.852 -1.4554 -2.6773  0.2221
  169SAPE   C2919015   4.854   4.216   2.979 -0.4562 -0.0260  0.3404
  169SAPE   H9R19016   4.843   4.126   2.918  0.6579  0.8513 -1.2407
  169SAPE  C21019017   4.933   4.202   3.106 -0.8228 -1.1682 -0.0673
  169SAPE  H10R19018   4.898   4.280   3.177 -0.3441 -1.8724  0.9731
  169SAPE  H10S19019   5.034   4.243   3.082 -1.2250 -0.0813  0.0559
  169SAPE  C21119020   4.941   4.070   3.174 -0.1774 -0.1227 -0.2996
  169SAPE  H11R19021   4.918   3.982   3.113  1.5958 -1.1884  0.5020
  169SAPE  C21219022   4.988   4.045   3.299  0.1946 -0.1337  0.0653
  169SAPE  H12R19023   4.966   3.945   3.339 -1.5940  0.4319  0.5685
  169SAPE  C21319024   5.040   4.150   3.397  0.2707  0.6013 -0.4824
  169SAPE  H13R19025   4.971   4.162   3.483 -0.3229  0.8847 -0.9956
  169SAPE  H13S19026   5.050   4.245   3.340 -0.5659  0.6960 -0.4839
  169SAPE  C21419027   5.166   4.084   3.461 -0.1814 -0.4625  0.8030
  169SAPE  H14R19028   5.258   4.100   3.403  1.3633 -3.4288  2.1798
  169SAPE  C21519029   5.173   4.011   3.575  0.1861 -0.0903 -0.6392
  169SAPE  H15R19030   5.267   3.965   3.608 -0.0764  1.3745  2.4770
  169SAPE  C21619031   5.059   3.995   3.673  0.4428  0.1232  0.2250
  169SAPE  H16R19032   5.077   3.899   3.725 -0.1078  1.3837  2.9121
  169SAPE  H16S19033   4.963   3.985   3.618 -0.6636 -0.8372  2.2160
  169SAPE  C21719034   5.061   4.102   3.780  0.0005  0.1151 -1.0127
  169SAPE  H17R19035   4.968   4.082   3.837  1.1733 -0.1848  0.9028
  169SAPE  H17S19036   5.052   4.203   3.735 -0.5516 -0.2734 -1.7983
  169SAPE  C21819037   5.186   4.097   3.876 -0.4033 -0.1285 -0.0124
  169SAPE  H18R19038   5.284   4.108   3.825  0.5524  2.2808  2.1330
  169SAPE  H18S19039   5.186   4.004   3.936 -0.2112  1.2924  2.3145
  169SAPE  C21919040   5.183   4.203   3.986 -0.5072  0.4356 -0.1889
  169SAPE  H19R19041   5.164   4.297   3.930  0.9566  0.4208 -0.7470
  169SAPE  H19S19042   5.278   4.216   4.043  0.6607 -2.4857 -1.2851
  169SAPE  C22019043   5.072   4.169   4.082  0.5438 -0.4592 -0.3024
  169SAPE  H20R19044   5.098   4.068   4.121  0.3761 -0.6695 -0.7348
  169SAPE  H20S19045   4.976   4.164   4.026  0.5623 -0.2349 -0.3549
  169SAPE  H20T19046   5.058   4.241   4.166 -0.2528 -0.4869 -0.4018
  169SAPE   C3319047   3.886   3.924   2.852 -0.0604  0.0841 -0.0952
  169SAPE   H3X19048   3.856   3.884   2.752  0.4291  0.0895 -0.2468
  169SAPE   H3Y19049   3.798   3.938   2.919  1.0654 -0.8164  1.6408
  169SAPE   C3419050   3.966   3.804   2.911  0.3096 -0.3736  0.4491
  169SAPE   H4X19051   4.074   3.807   2.884  0.3527  1.4491  0.6758
  169SAPE   H4Y19052   3.925   3.704   2.885  1.1248 -1.3673  2.6905
  169SAPE   C3519053   3.946   3.799   3.062 -0.8128  0.5584  0.0352
  169SAPE   H5X19054   3.839   3.798   3.094 -0.4693 -0.5286  1.2263
  169SAPE   H5Y19055   4.007   3.878   3.110 -0.3872  0.7483 -0.8103
  169SAPE   C3619056   4.006   3.662   3.118  1.1348  0.0389 -0.2866
  169SAPE   H6X19057   4.115   3.661   3.096  1.7350 -0.9422  2.3738
  169SAPE   H6Y19058   3.951   3.587   3.056 -0.2961  0.5411  0.3416
  169SAPE   C3719059   3.981   3.643   3.267 -0.6972  0.4441  0.4879
  169SAPE   H7X19060   3.876   3.618   3.294  0.0250 -1.1756  2.0174
  169SAPE   H7Y19061   4.005   3.743   3.310  0.5652  0.2153  0.3325
  169SAPE   C3819062   4.088   3.553   3.335 -0.6740 -0.4799 -0.2490
  169SAPE   H8X19063   4.059   3.446   3.326  0.1391 -0.8418  1.1922
  169SAPE   H8Y19064   4.088   3.578   3.443 -2.5863 -0.6908 -0.1585
  169SAPE   C3919065   4.239   3.563   3.283  0.1810  0.0814 -0.1218
  169SAPE   H9X19066   4.283   3.664   3.300  0.4083 -0.1490  0.7155
  169SAPE   H9Y19067   4.232   3.537   3.175  3.4373 -0.7212 -0.2585
  169SAPE  C31019068   4.326   3.459   3.358 -0.3931 -0.4435 -1.0095
  169SAPE  H10X19069   4.425   3.475   3.311 -0.8585  0.9244 -1.5687
  169SAPE  H10Y19070   4.293   3.355   3.334  1.5535 -1.4698  0.4434
  169SAPE  C31119071   4.328   3.481   3.510  0.0665 -0.3323  0.3863
  169SAPE  H11X19072   4.234   3.449   3.559 -0.0681 -0.1915  0.2213
  169SAPE  H11Y19073   4.349   3.589   3.515  0.5887 -0.3337 -1.1608
  169SAPE  C31219074   4.452   3.420   3.574 -0.5075  0.3367 -0.5361
  169SAPE  H12X19075   4.539   3.463   3.520  0.1322 -0.2170  0.0145
  169SAPE  H12Y19076   4.451   3.310   3.556 -0.2436  0.2420  0.0113
  169SAPE  C31319077   4.469   3.449   3.716 -0.7032 -0.4953 -0.2390
  169SAPE  H13X19078   4.374   3.425   3.768  0.0845  0.2308  1.6321
  169SAPE  H13Y19079   4.482   3.559   3.723 -0.0498 -0.4922 -1.3275
  169SAPE  C31419080   4.588   3.374   3.787  0.2199  0.2748 -0.2893
  169SAPE  H14X19081   4.678   3.406   3.732  1.4359 -0.5062  1.1815
  169SAPE  H14Y19082   4.561   3.266   3.778 -0.5062  0.6075 -2.9432
  169SAPE  C31519083   4.595   3.400   3.937  0.0068 -0.3250 -0.3981
  169SAPE  H15X19084   4.506   3.377   4.000 -1.0842 -0.4416 -1.9173
  169SAPE  H15Y19085   4.597   3.511   3.942 -0.2446 -0.3515  0.5748
  169SAPE  C31619086   4.726   3.346   4.006  0.9739 -0.0869  0.1228
  169SAPE  H16X19087   4.809   3.378   3.940 -0.2148 -2.0598 -2.5339
  169SAPE  H16Y19088   4.721   3.235   3.992 -1.6754  0.0663 -0.6690
  169SAPE  C31719089   4.728   3.374   4.157 -0.0238 -0.5477 -0.2380
  169SAPE  H17X19090   4.635   3.339   4.207 -1.2548  0.8001 -1.4708
  169SAPE  H17Y19091   4.736   3.485   4.164  1.0791 -0.7048  1.5598
  169SAPE  C31819092   4.849   3.325   4.230  0.6244 -0.4558  0.3074
  169SAPE  H18X19093   4.948   3.355   4.190  0.0664 -1.0900 -1.6583
  169SAPE  H18Y19094   4.856   3.215   4.241 -0.9628 -0.4428  1.9658
  169SAPE  H18Z19095   4.850   3.365   4.334  0.5227  1.2195 -0.3102
  170SAPE     N19096   5.497   6.302   2.308 -0.0449  0.0682  0.3906
  170SAPE   HN119097   5.484   6.405   2.321  1.6848  0.2912  0.6592
  170SAPE   HN219098   5.533   6.270   2.215  0.3780 -1.7872  1.1645
  170SAPE   HN319099   5.412   6.244   2.322  0.0759 -0.2306 -0.0890
  170SAPE   C1219100   5.599   6.258   2.408  0.3738 -0.1810  0.2937
  170SAPE  H12A19101   5.698   6.264   2.358  0.4974 -1.7150  0.3219
  170SAPE  H12B19102   5.583   6.153   2.438 -0.2265 -0.5834 -1.3221
  170SAPE   C1119103   5.598   6.356   2.530  0.2259  0.0934  0.0755
  170SAPE  H11A19104   5.663   6.309   2.607  1.5049  0.1868 -0.9137
  170SAPE  H11B19105   5.496   6.379   2.568  1.0735 -0.1825  2.8009
  170SAPE     P19106   5.584   6.601   2.453  0.0675 -0.2309  0.2293
  170SAPE   O1319107   5.673   6.714   2.409 -0.7264 -0.0067  0.1381
  170SAPE   O1419108   5.474   6.571   2.364  0.0843 -0.1001  0.4061
  170SAPE   O1219109   5.668   6.466   2.477  0.3226 -0.2691  0.1145
  170SAPE   O1119110   5.524   6.623   2.601  0.4219 -0.0212  0.8034
  170SAPE    C119111   5.608   6.631   2.717  0.1604 -0.4295  0.0310
  170SAPE    HA19112   5.688   6.555   2.728  0.9128  0.5446  1.7974
  170SAPE    HB19113   5.660   6.729   2.719  0.2358 -0.4790  0.9813
  170SAPE    C219114   5.525   6.631   2.850 -0.1281 -0.4550  0.4325
  170SAPE    HS19115   5.476   6.531   2.857  1.4348 -1.3550 -0.8954
  170SAPE   O2119116   5.436   6.741   2.846 -0.1735 -0.5788  0.4107
  170SAPE   C2119117   5.309   6.724   2.878 -0.3012  0.2706 -0.8919
  170SAPE   O2219118   5.263   6.613   2.907 -0.0444 -0.0444  1.0945
  170SAPE   C2219119   5.234   6.862   2.858  0.3150  0.0521 -0.2444
  170SAPE   H2R19120   5.297   6.915   2.783  0.8754 -0.5963 -0.2461
  170SAPE   H2S19121   5.143   6.835   2.802  0.9822 -0.4504 -1.1095
  170SAPE    C319122   5.614   6.643   2.970  0.1399  0.2871  0.4452
  170SAPE    HX19123   5.547   6.639   3.059 -0.4077  0.0036  0.0265
  170SAPE    HY19124   5.659   6.744   2.961  1.4478 -0.4140 -1.8582
  170SAPE   O3119125   5.724   6.543   2.982  0.0396  0.6185  0.0988
  170SAPE   C3119126   5.706   6.432   3.055  0.0188  0.7362 -0.1727
  170SAPE   O3219127   5.613   6.405   3.123 -0.3615  0.2969 -0.0237
  170SAPE   C3219128   5.823   6.330   3.039  0.9308 -0.6632  0.0817
  170SAPE   H2X19129   5.908   6.387   2.996 -1.2133  1.5247 -1.5275
  170SAPE   H2Y19130   5.794   6.250   2.968 -0.0816  0.8052 -1.2377
  170SAPE   C2319131   5.204   6.932   2.991  0.8072 -0.4691  0.1954
  170SAPE   H3R19132   5.158   6.858   3.059 -0.3626 -1.5128 -1.6400
  170SAPE   H3S19133   5.130   7.013   2.973  0.3422 -0.8231  0.5139
  170SAPE   C2419134   5.322   6.999   3.063  0.0193 -0.5645 -0.4277
  170SAPE   H4R19135   5.334   7.095   3.008  0.8270 -0.3250  0.1586
  170SAPE   H4S19136   5.412   6.935   3.058 -0.3784 -1.2681  0.9490
  170SAPE   C2519137   5.288   7.044   3.204  0.0227 -0.3722  0.5672
  170SAPE   H5R19138   5.208   7.121   3.208  0.5392  0.1143  3.6625
  170SAPE   C2619139   5.365   7.020   3.314  0.0132  0.6004  0.5155
  170SAPE   H6R19140   5.318   7.052   3.409 -1.6235 -0.3039  0.0555
  170SAPE   C2719141   5.488   6.944   3.333  0.0213 -0.2652 -0.0817
  170SAPE   H7R19142   5.464   6.836   3.340  1.5749 -0.5328  2.1872
  170SAPE   H7S19143   5.514   6.965   3.439 -0.7910 -1.2935  0.3356
  170SAPE   C2819144   5.602   6.967   3.235 -0.7619 -0.0173 -0.2301
  170SAPE   H8R19145   5.588   6.927   3.134  2.8149 -2.2650 -0.0381
  170SAPE   C2919146   5.713   7.048   3.244  0.4156  0.0759 -0.0770
  170SAPE   H9R19147   5.770   7.067   3.151 -2.8185  1.9204 -1.8640
  170SAPE  C21019148   5.751   7.131   3.370  0.7931  0.1747  0.6107
  170SAPE  H10R19149   5.735   7.071   3.462 -0.5966 -2.6382 -1.2722
  170SAPE  H10S19150   5.685   7.220   3.378  1.6336  1.0752 -1.6413
  170SAPE  C21119151   5.894   7.177   3.356  0.1869 -0.1629 -0.2452
  170SAPE  H11R19152   5.968   7.097   3.340 -3.0014 -3.5152  0.5405
  170SAPE  C21219153   5.940   7.310   3.359  0.8546  0.4189  0.7147
  170SAPE  H12R19154   6.046   7.332   3.338  0.6080  0.7601 -0.2198
  170SAPE  C21319155   5.852   7.435   3.359 -0.2816 -0.0050 -0.4580
  170SAPE  H13R19156   5.772   7.420   3.434 -0.2033 -0.5325 -0.4749
  170SAPE  H13S19157   5.788   7.447   3.269 -2.2100  0.9955  0.9866
  170SAPE  C21419158   5.926   7.560   3.383 -0.0382 -0.4108 -0.3027
  170SAPE  H14R19159   6.013   7.574   3.317  0.5055 -0.7269  0.3254
  170SAPE  C21519160   5.900   7.642   3.482  0.3839 -0.2216  0.1018
  170SAPE  H15R19161   5.970   7.726   3.491  0.6817 -0.5049  0.4973
  170SAPE  C21619162   5.801   7.636   3.599  0.5247  0.0063 -0.4704
  170SAPE  H16R19163   5.707   7.582   3.572 -0.6182  1.0562  1.1993
  170SAPE  H16S19164   5.762   7.735   3.630  0.5770 -0.2742  0.5251
  170SAPE  C21719165   5.869   7.573   3.719 -0.6531 -0.1230  0.3695
  170SAPE  H17R19166   5.969   7.613   3.747 -1.0840  0.0010  1.8307
  170SAPE  H17S19167   5.906   7.474   3.686 -0.0653 -0.5102  2.1243
  170SAPE  C21819168   5.799   7.578   3.856  0.1888 -0.0316 -0.0949
  170SAPE  H18R19169   5.711   7.510   3.851  0.7344 -0.6929 -0.9485
  170SAPE  H18S19170   5.762   7.680   3.880  0.3462 -0.0268  0.1291
  170SAPE  C21919171   5.888   7.528   3.972 -0.6916  0.2050 -0.2275
  170SAPE  H19R19172   5.972   7.601   3.972 -1.0855  0.6637  0.2355
  170SAPE  H19S19173   5.921   7.423   3.958  0.4848  0.5296 -0.0876
  170SAPE  C22019174   5.820   7.529   4.116 -0.0047 -0.4926  0.8004
  170SAPE  H20R19175   5.795   7.633   4.146 -3.2497 -0.4616 -1.4557
  170SAPE  H20S19176   5.877   7.489   4.203 -3.7355  0.2021  3.8661
  170SAPE  H20T19177   5.729   7.466   4.109  0.3680 -0.8588 -2.4497
  170SAPE   C3319178   5.844   6.260   3.177  0.0232 -0.1513  0.4159
  170SAPE   H3X19179   5.927   6.190   3.155  0.2858 -0.6207  2.6697
  170SAPE   H3Y19180   5.749   6.205   3.197 -1.9086  1.6311 -2.9327
  170SAPE   C3419181   5.899   6.352   3.279 -0.8357  0.8047 -0.3575
  170SAPE   H4X19182   5.835   6.435   3.316  1.1400  2.3821 -0.3306
  170SAPE   H4Y19183   5.993   6.393   3.237 -0.8976  0.5672 -0.7363
  170SAPE   C3519184   5.939   6.269   3.402  0.6288 -0.2938  0.3274
  170SAPE   H5X19185   6.018   6.205   3.358 -0.1505  0.3194 -2.1562
  170SAPE   H5Y19186   5.846   6.219   3.438 -1.3013  3.6033  1.3091
  170SAPE   C3619187   5.997   6.361   3.515 -0.5535 -0.2481  0.1896
  170SAPE   H6X19188   6.090   6.416   3.489  0.2353 -1.6190  0.0291
  170SAPE   H6Y19189   6.024   6.291   3.597 -0.3694 -0.2163  0.1555
  170SAPE   C3719190   5.903   6.472   3.580 -0.7857  0.0738  0.2275
  170SAPE   H7X19191   5.817   6.420   3.628 -0.7017  1.3674  1.8865
  170SAPE   H7Y19192   5.866   6.537   3.499 -0.5095 -0.2129 -0.1321
  170SAPE   C3819193   5.975   6.542   3.700 -0.4109 -0.1877 -0.5873
  170SAPE   H8X19194   6.077   6.564   3.662 -0.9747  0.6895 -1.6428
  170SAPE   H8Y19195   5.984   6.469   3.783  2.1710  1.1350  0.4081
  170SAPE   C3919196   5.896   6.663   3.741  0.2614 -0.2744 -0.0963
  170SAPE   H9X19197   5.942   6.701   3.834  0.0916  0.4977 -0.3210
  170SAPE   H9Y19198   5.787   6.655   3.761 -0.2227  2.1652 -1.3824
  170SAPE  C31019199   5.911   6.778   3.641  0.2255  0.0294 -0.5944
  170SAPE  H10X19200   5.841   6.766   3.555  1.9951 -1.0266 -1.9649
  170SAPE  H10Y19201   6.008   6.766   3.588 -0.8920 -1.6127 -2.4320
  170SAPE  C31119202   5.894   6.920   3.696 -0.2317  0.5619 -0.3008
  170SAPE  H11X19203   5.889   6.995   3.614 -0.4940  1.0765  0.1781
  170SAPE  H11Y19204   5.968   6.933   3.778  0.6523 -1.9336 -0.6264
  170SAPE  C31219205   5.754   6.930   3.758 -0.2132 -0.3111  0.1021
  170SAPE  H12X19206   5.740   6.864   3.847  1.8400  1.1805  1.6537
  170SAPE  H12Y19207   5.679   6.896   3.683 -0.6855 -0.1198  0.4756
  170SAPE  C31319208   5.724   7.077   3.794  1.3307  0.1777 -0.4136
  170SAPE  H13X19209   5.615   7.095   3.788  1.1185 -0.4276  1.3354
  170SAPE  H13Y19210   5.777   7.152   3.731  0.6992  1.7179  0.8213
  170SAPE  C31419211   5.752   7.118   3.940 -0.8027 -0.1368 -0.2538
  170SAPE  H14X19212   5.783   7.224   3.945  0.0499 -0.2992 -1.5984
  170SAPE  H14Y19213   5.844   7.061   3.966 -1.8086 -0.9944  1.6569
  170SAPE  C31519214   5.645   7.084   4.040 -0.0178 -0.5588  1.0217
  170SAPE  H15X19215   5.650   6.979   4.076 -1.5152 -0.3869  1.8270
  170SAPE  H15Y19216   5.548   7.083   3.986 -0.2912 -0.7895  1.5079
  170SAPE  C31619217   5.644   7.187   4.151  0.2639 -0.2675  0.6814
  170SAPE  H16X19218   5.632   7.283   4.097  2.7293 -0.4470 -0.3094
  170SAPE  H16Y19219   5.744   7.178   4.198  0.0007 -1.1313  1.1135
  170SAPE  C31719220   5.538   7.179   4.260  0.5349 -0.0005 -0.0884
  170SAPE  H17X19221   5.566   7.091   4.322  0.8332 -0.2604 -0.5853
  170SAPE  H17Y19222   5.431   7.164   4.237 -0.9097  1.8202  4.4122
  170SAPE  C31819223   5.545   7.299   4.353  0.2257 -0.2299  0.1874
  170SAPE  H18X19224   5.645   7.317   4.397  0.0838 -0.8005  0.7508
  170SAPE  H18Y19225   5.480   7.273   4.439  0.0030  0.6343  0.2892
  170SAPE  H18Z19226   5.511   7.394   4.305  0.3930 -0.7124 -0.9218
  171SAPE     N19227   6.359   5.088   2.586  0.3196 -0.1147 -0.3189
  171SAPE   HN119228   6.283   5.130   2.529  1.1203  0.1353 -1.2340
  171SAPE   HN219229   6.327   5.073   2.684 -0.3400  0.5894 -0.4177
  171SAPE   HN319230   6.431   5.162   2.593 -1.3376  1.5100  0.3863
  171SAPE   C1219231   6.421   4.964   2.525  0.4224 -0.9147  0.0043
  171SAPE  H12A19232   6.489   4.987   2.440 -0.1499 -1.0369 -0.4901
  171SAPE  H12B19233   6.335   4.900   2.497 -0.7910  0.4882  0.4091
  171SAPE   C1119234   6.507   4.877   2.619 -0.2622 -0.4559  0.3390
  171SAPE  H11A19235   6.434   4.852   2.699 -0.8028 -1.7391 -0.5155
  171SAPE  H11B19236   6.596   4.928   2.664  0.6956 -1.4496 -0.3773
  171SAPE     P19237   6.683   4.690   2.538  0.3993 -0.1518  0.1975
  171SAPE   O1319238   6.696   4.602   2.659  0.0643 -0.0012  0.4862
  171SAPE   O1419239   6.706   4.630   2.408 -0.1173  0.1444  0.0984
  171SAPE   O1219240   6.544   4.764   2.543 -0.3307  0.5002  0.0831
  171SAPE   O1119241   6.772   4.818   2.563  0.4759 -0.3151  0.0208
  171SAPE    C119242   6.900   4.827   2.619 -0.0340  0.3603 -0.9712
  171SAPE    HA19243   6.939   4.733   2.665  0.3809  0.9936 -0.0015
  171SAPE    HB19244   6.970   4.862   2.540  3.6244 -1.2329  1.3250
  171SAPE    C219245   6.893   4.933   2.730  0.1352  0.5902  0.4186
  171SAPE    HS19246   6.993   4.932   2.777  0.5958  0.9530 -0.5320
  171SAPE   O2119247   6.788   4.899   2.829 -0.1666  0.2856  0.4350
  171SAPE   C2119248   6.789   4.790   2.899  0.4170  0.0867  0.8117
  171SAPE   O2219249   6.881   4.713   2.906  0.8868 -0.0319 -0.5981
  171SAPE   C2219250   6.660   4.797   2.982 -0.1556 -0.5392 -0.0139
  171SAPE   H2R19251   6.635   4.904   3.000 -0.4401 -0.4032 -1.1625
  171SAPE   H2S19252   6.573   4.763   2.922  0.9835 -2.0886 -0.8639
  171SAPE    C319253   6.865   5.072   2.672  0.4624 -0.6545 -0.3256
  171SAPE    HX19254   6.762   5.062   2.633 -0.1809 -1.3006  1.4249
  171SAPE    HY19255   6.940   5.087   2.591  0.9691  1.5275  0.4946
  171SAPE   O3119256   6.870   5.173   2.772 -0.4089 -0.2528 -0.1754
  171SAPE   C3119257   6.976   5.249   2.784  0.2831 -0.5152 -0.4398
  171SAPE   O3219258   7.079   5.236   2.721  0.2951  0.3113 -0.2444
  171SAPE   C3219259   6.957   5.346   2.908  0.5343  0.0148  0.3982
  171SAPE   H2X19260   6.848   5.369   2.917 -0.0051 -0.5449 -3.1651
  171SAPE   H2Y19261   7.003   5.438   2.867 -2.4697  0.6828 -1.9039
  171SAPE   C2319262   6.674   4.738   3.126 -0.6961 -0.3845 -0.3612
  171SAPE   H3R19263   6.630   4.815   3.193 -0.0878 -0.2651 -0.0930
  171SAPE   H3S19264   6.779   4.734   3.162  0.0087  1.9760 -1.8906
  171SAPE   C2419265   6.601   4.605   3.121  0.1147  0.0583 -0.2897
  171SAPE   H4R19266   6.516   4.627   3.052  0.8521  0.0482 -1.2095
  171SAPE   H4S19267   6.559   4.595   3.224 -0.3838  4.0054  0.0573
  171SAPE   C2519268   6.670   4.488   3.053 -0.6598 -0.2744  0.5533
  171SAPE   H5R19269   6.677   4.492   2.943  0.3599  0.6412  0.6323
  171SAPE   C2619270   6.711   4.375   3.117 -0.5002 -0.1785  0.2914
  171SAPE   H6R19271   6.763   4.305   3.049 -1.1556  1.4085 -1.9596
  171SAPE   C2719272   6.711   4.346   3.268  0.2351  0.1278 -0.0976
  171SAPE   H7R19273   6.697   4.446   3.315 -2.0891 -0.0112 -0.3527
  171SAPE   H7S19274   6.808   4.303   3.300 -1.2720 -2.5653  1.1823
  171SAPE   C2819275   6.597   4.274   3.331 -0.4506 -0.1533 -0.0060
  171SAPE   H8R19276   6.505   4.260   3.272 -0.1866 -1.6025 -0.0881
  171SAPE   C2919277   6.602   4.237   3.463  1.0468  0.0449 -0.1258
  171SAPE   H9R19278   6.514   4.182   3.497  0.6606  0.6619 -0.1106
  171SAPE  C21019279   6.713   4.266   3.568  0.3384  0.1984  0.6413
  171SAPE  H10R19280   6.678   4.347   3.636 -2.1750 -0.0790 -0.2048
  171SAPE  H10S19281   6.806   4.282   3.510 -2.4314 -1.2694 -4.8924
  171SAPE  C21119282   6.737   4.148   3.657 -0.5098  0.5698  0.0904
  171SAPE  H11R19283   6.823   4.089   3.621 -1.6182  0.0795 -1.9233
  171SAPE  C21219284   6.685   4.110   3.773 -0.3636 -0.3249  0.4881
  171SAPE  H12R19285   6.727   4.020   3.820  2.4238  0.5924 -0.0534
  171SAPE  C21319286   6.572   4.177   3.844  0.3314  0.9590  0.3021
  171SAPE  H13R19287   6.555   4.275   3.793 -0.7571  1.4283  1.5245
  171SAPE  H13S19288   6.606   4.203   3.946  0.5527  1.7025  0.0507
  171SAPE  C21419289   6.448   4.092   3.848  0.8008  0.0456  0.4546
  171SAPE  H14R19290   6.430   4.027   3.761 -1.8404 -1.6798  2.1180
  171SAPE  C21519291   6.350   4.095   3.946  0.6919  0.3069 -0.6344
  171SAPE  H15R19292   6.268   4.024   3.924  1.4438 -0.4612 -1.0442
  171SAPE  C21619293   6.345   4.186   4.064 -0.1194 -0.1674  0.5241
  171SAPE  H16R19294   6.451   4.213   4.083  1.6676 -4.7943 -1.3127
  171SAPE  H16S19295   6.322   4.118   4.150 -1.0676 -1.4449 -0.6965
  171SAPE  C21719296   6.256   4.316   4.043 -0.6121  0.7768  0.2983
  171SAPE  H17R19297   6.174   4.298   3.971  2.2325  0.0030 -3.0563
  171SAPE  H17S19298   6.309   4.398   3.989 -2.1814  0.5454 -1.7233
  171SAPE  C21819299   6.204   4.371   4.176  0.2818 -0.0339 -0.3235
  171SAPE  H18R19300   6.154   4.469   4.159  1.9515  1.3344  2.0816
  171SAPE  H18S19301   6.287   4.410   4.239 -1.1241 -0.1332  1.6956
  171SAPE  C21919302   6.116   4.276   4.247 -0.2967 -0.1849 -0.4594
  171SAPE  H19R19303   6.182   4.221   4.318 -0.5994 -0.0482 -0.0642
  171SAPE  H19S19304   6.070   4.210   4.170 -1.6590  0.9515 -0.6697
  171SAPE  C22019305   5.999   4.334   4.334 -0.0692 -0.8555 -0.4935
  171SAPE  H20R19306   6.045   4.400   4.410  1.4688 -0.9991 -1.2658
  171SAPE  H20S19307   5.946   4.252   4.388  1.0344 -1.0958  0.2540
  171SAPE  H20T19308   5.924   4.394   4.277  2.0038  1.7955 -0.6417
  171SAPE   C3319309   7.010   5.301   3.041 -0.4727  0.6980  0.8502
  171SAPE   H3X19310   7.116   5.268   3.031 -0.1349  1.7145  0.9602
  171SAPE   H3Y19311   6.952   5.215   3.081  0.3471 -0.3221 -0.0626
  171SAPE   C3419312   7.006   5.415   3.148  0.1819 -0.5375  0.9637
  171SAPE   H4X19313   6.906   5.463   3.139  0.1111 -0.5838  1.4788
  171SAPE   H4Y19314   7.076   5.492   3.107  0.1195  0.1390  2.0900
  171SAPE   C3519315   7.053   5.379   3.289  0.2933 -0.7511 -0.9326
  171SAPE   H5X19316   7.082   5.469   3.347  0.2225 -0.6672 -1.0272
  171SAPE   H5Y19317   7.146   5.318   3.285  0.9332  0.1905 -0.6505
  171SAPE   C3619318   6.950   5.304   3.380  0.7590 -0.3099 -0.8384
  171SAPE   H6X19319   6.908   5.219   3.323  2.5534 -1.8234  0.0210
  171SAPE   H6Y19320   6.864   5.374   3.387  2.2891  1.7251 -1.4053
  171SAPE   C3719321   7.007   5.260   3.508 -0.3763  0.1080 -0.5284
  171SAPE   H7X19322   7.112   5.224   3.499 -0.1691 -0.2515  2.4410
  171SAPE   H7Y19323   6.955   5.170   3.546 -1.2951  1.4258  1.5117
  171SAPE   C3819324   7.016   5.358   3.626  0.7133  0.8132  0.1003
  171SAPE   H8X19325   6.909   5.364   3.653  0.3758  0.8558 -1.2143
  171SAPE   H8Y19326   7.054   5.460   3.603  0.5702  1.3020  1.8775
  171SAPE   C3919327   7.084   5.304   3.743 -0.0190  0.0891  0.0162
  171SAPE   H9X19328   7.195   5.312   3.738  0.1289  0.1011  2.2325
  171SAPE   H9Y19329   7.063   5.196   3.759  0.1847  0.0567  0.0733
  171SAPE  C31019330   7.032   5.376   3.868  0.2038  0.7378 -0.1757
  171SAPE  H10X19331   6.922   5.360   3.872  0.4973 -1.4914 -0.0838
  171SAPE  H10Y19332   7.054   5.485   3.857  2.0654  0.4450  0.3695
  171SAPE  C31119333   7.106   5.326   3.995  0.1176 -0.1957 -0.0037
  171SAPE  H11X19334   7.216   5.343   3.996  0.2206 -0.3668  3.7805
  171SAPE  H11Y19335   7.090   5.216   3.993  1.4792 -0.5061  2.5816
  171SAPE  C31219336   7.051   5.374   4.130 -0.1351 -0.3380  0.3208
  171SAPE  H12X19337   6.941   5.363   4.123 -0.2312  0.7431 -0.1057
  171SAPE  H12Y19338   7.067   5.484   4.138 -1.8722 -0.1373  1.3191
  171SAPE  C31319339   7.124   5.317   4.251  0.5197  0.2999 -0.2648
  171SAPE  H13X19340   7.105   5.209   4.265 -0.3546  0.5081  0.3030
  171SAPE  H13Y19341   7.095   5.370   4.344  1.1749  4.2276 -2.0714
  171SAPE  C31419342   7.277   5.343   4.257 -0.0622  0.0194  0.5881
  171SAPE  H14X19343   7.300   5.449   4.231  1.3275 -0.3065  0.4261
  171SAPE  H14Y19344   7.316   5.281   4.173 -3.3766 -0.5462 -0.6802
  171SAPE  C31519345   7.333   5.291   4.392  0.0244 -0.6096 -0.5493
  171SAPE  H15X19346   7.443   5.284   4.376  0.2800  2.4731 -0.7677
  171SAPE  H15Y19347   7.282   5.201   4.433  1.4303 -0.4520  1.7229
  171SAPE  C31619348   7.319   5.400   4.505  0.0274 -0.4494 -0.3625
  171SAPE  H16X19349   7.214   5.391   4.539  0.2938 -2.5306  0.0683
  171SAPE  H16Y19350   7.340   5.499   4.459  3.1737 -1.1975 -0.7911
  171SAPE  C31719351   7.396   5.376   4.629  0.7381 -0.0410  0.1013
  171SAPE  H17X19352   7.395   5.470   4.688 -0.4659 -0.1297  0.2580
  171SAPE  H17Y19353   7.503   5.363   4.603  0.9585  0.9186  0.4920
  171SAPE  C31819354   7.329   5.268   4.713  0.1564  0.7160  0.0980
  171SAPE  H18X19355   7.224   5.295   4.739 -0.4296 -2.8508  2.1894
  171SAPE  H18Y19356   7.383   5.250   4.808  2.1948 -1.0049 -1.2932
  171SAPE  H18Z19357   7.329   5.169   4.662  1.6209  1.5694 -1.6468
  172SAPE     N19358   1.313   4.946   2.105 -0.5171  0.7367 -0.3982
  172SAPE   HN119359   1.236   4.961   2.172  0.3720  1.3257  0.5119
  172SAPE   HN219360   1.401   4.968   2.157 -1.0258  1.0236  0.3502
  172SAPE   HN319361   1.303   5.005   2.020 -4.4870  0.1798 -0.4741
  172SAPE   C1219362   1.300   4.806   2.055  0.7724 -0.5950  0.8265
  172SAPE  H12A19363   1.341   4.742   2.136 -0.1830 -0.4797  1.4251
  172SAPE  H12B19364   1.366   4.795   1.966  1.8263  0.6097  1.4303
  172SAPE   C1119365   1.151   4.780   2.025  0.2064 -0.4398 -0.6216
  172SAPE  H11A19366   1.139   4.683   1.973 -0.2422  0.4277 -2.2071
  172SAPE  H11B19367   1.104   4.843   1.947 -2.6051 -3.8053 -1.9174
  172SAPE     P19368   1.045   4.674   2.245 -0.2092 -0.0141  0.2988
  172SAPE   O1319369   1.012   4.550   2.173  0.6632 -0.0087  0.0384
  172SAPE   O1419370   1.159   4.667   2.335  0.4102  0.3515 -0.5430
  172SAPE   O1219371   1.074   4.792   2.142 -0.4157 -0.0942 -0.3829
  172SAPE   O1119372   0.915   4.713   2.335  0.0075  0.6343  0.7027
  172SAPE    C119373   0.889   4.850   2.371  0.5958  0.2089 -0.8490
  172SAPE    HA19374   0.972   4.920   2.351  1.2388  0.4575  2.2060
  172SAPE    HB19375   0.794   4.879   2.322 -0.1533 -0.1861  0.3271
  172SAPE    C219376   0.853   4.862   2.520  0.0635  0.2883  0.4392
  172SAPE    HS19377   0.826   4.968   2.538 -0.0751  0.4929 -0.8815
  172SAPE   O2119378   0.960   4.830   2.611  0.6017 -0.0991 -0.4778
  172SAPE   C2119379   1.081   4.889   2.604 -0.4890  0.5784 -0.5397
  172SAPE   O2219380   1.101   4.984   2.533 -0.0088  0.4141  0.3812
  172SAPE   C2219381   1.177   4.827   2.706  0.4889 -0.2879  0.0347
  172SAPE   H2R19382   1.124   4.739   2.747 -1.8388  1.1551  0.3107
  172SAPE   H2S19383   1.259   4.795   2.638  0.4458 -1.9141  0.7066
  172SAPE    C319384   0.724   4.777   2.548  0.9193  0.6030  0.1286
  172SAPE    HX19385   0.736   4.670   2.520  1.2869 -0.3965  3.6803
  172SAPE    HY19386   0.650   4.825   2.481 -1.4723 -1.0864  1.4413
  172SAPE   O3119387   0.670   4.773   2.680 -0.0182 -0.4499 -0.4097
  172SAPE   C3119388   0.732   4.699   2.772  0.7546  0.3377  0.3876
  172SAPE   O3219389   0.802   4.606   2.748 -0.0956  0.5937 -0.5578
  172SAPE   C3219390   0.684   4.750   2.907 -0.1365  0.1185 -0.2232
  172SAPE   H2X19391   0.590   4.694   2.928 -0.6393  0.2067 -2.0818
  172SAPE   H2Y19392   0.666   4.859   2.899  1.5061  0.4906  0.7065
  172SAPE   C2319393   1.233   4.921   2.815  0.1413 -0.1007 -0.2271
  172SAPE   H3R19394   1.290   5.003   2.765  0.1043  0.7592  1.0958
  172SAPE   H3S19395   1.297   4.846   2.865 -0.2105 -0.9001 -0.9496
  172SAPE   C2419396   1.134   4.971   2.924  0.1262  0.0188 -0.0948
  172SAPE   H4R19397   1.081   4.881   2.961  2.6892 -1.8710 -0.7374
  172SAPE   H4S19398   1.062   5.046   2.884  1.2044  2.0041  1.4568
  172SAPE   C2519399   1.205   5.049   3.030 -0.2447  0.0978 -0.7844
  172SAPE   H5R19400   1.310   5.083   3.024 -0.0370 -0.1042  1.0359
  172SAPE   C2619401   1.171   5.076   3.156  0.1005  0.5746 -0.9015
  172SAPE   H6R19402   1.243   5.119   3.227 -0.7642 -0.1485  0.4731
  172SAPE   C2719403   1.035   5.035   3.205 -0.1918  0.0038  0.1273
  172SAPE   H7R19404   1.047   4.953   3.279  1.0482  0.5279  0.5282
  172SAPE   H7S19405   0.961   5.000   3.130  1.2270 -1.4135 -0.6737
  172SAPE   C2819406   0.983   5.159   3.272  0.4555 -0.4610  0.1738
  172SAPE   H8R19407   0.990   5.244   3.202  0.8822 -2.8336 -2.8819
  172SAPE   C2919408   0.953   5.189   3.395  0.3316 -0.2095 -0.1863
  172SAPE   H9R19409   0.910   5.290   3.404  1.3843  0.3144 -0.7191
  172SAPE  C21019410   0.960   5.086   3.509  0.0443  0.2760 -0.1686
  172SAPE  H10R19411   0.981   5.144   3.601 -1.6476  0.8338 -0.0968
  172SAPE  H10S19412   1.058   5.034   3.501 -0.5266 -0.5564 -2.3948
  172SAPE  C21119413   0.856   4.977   3.529  0.5444 -0.0856 -0.6307
  172SAPE  H11R19414   0.801   4.938   3.442 -0.9191 -0.9438  0.6337
  172SAPE  C21219415   0.817   4.917   3.646 -0.2887 -0.1404 -0.0190
  172SAPE  H12R19416   0.742   4.837   3.654  0.2452 -0.4672  2.4772
  172SAPE  C21319417   0.884   4.943   3.779  0.6151 -1.0884  0.3125
  172SAPE  H13R19418   0.941   5.038   3.783  0.4365 -0.9657 -0.0002
  172SAPE  H13S19419   0.955   4.865   3.814 -0.7509 -1.8975  1.3551
  172SAPE  C21419420   0.766   4.953   3.876  0.4806 -0.2584  0.6285
  172SAPE  H14R19421   0.722   5.053   3.879 -0.9453 -0.8762  1.3096
  172SAPE  C21519422   0.722   4.865   3.966 -0.5865 -0.2454 -0.6534
  172SAPE  H15R19423   0.638   4.892   4.032  0.4768  1.7905 -0.0548
  172SAPE  C21619424   0.759   4.722   3.968 -0.6517  0.1406 -0.4145
  172SAPE  H16R19425   0.838   4.702   3.892  3.0940 -0.6526  3.3234
  172SAPE  H16S19426   0.678   4.649   3.945 -0.8990 -0.5308  2.2892
  172SAPE  C21719427   0.820   4.673   4.107 -0.1415 -0.3613 -0.7118
  172SAPE  H17R19428   0.827   4.563   4.094  2.0052 -0.3379 -0.0251
  172SAPE  H17S19429   0.753   4.691   4.194  0.0666  1.4082 -0.8738
  172SAPE  C21819430   0.951   4.732   4.143  0.0762 -0.5312  0.1643
  172SAPE  H18R19431   0.942   4.839   4.170 -1.0621 -0.7765  0.8534
  172SAPE  H18S19432   1.000   4.729   4.044 -0.2786 -0.6614 -0.0113
  172SAPE  C21919433   1.037   4.665   4.250  1.2694  0.2701 -0.0086
  172SAPE  H19R19434   1.138   4.712   4.250  0.8961  1.0727 -0.2345
  172SAPE  H19S19435   1.045   4.561   4.211 -1.3537 -0.2187  0.5964
  172SAPE  C22019436   0.973   4.643   4.390 -0.4043 -0.0166  0.3038
  172SAPE  H20R19437   0.941   4.740   4.435 -0.3897 -0.0650  0.4190
  172SAPE  H20S19438   1.052   4.594   4.451  1.5992  0.6622 -1.5950
  172SAPE  H20T19439   0.890   4.572   4.372 -0.1111 -0.1272 -0.6855
  172SAPE   C3319440   0.795   4.734   3.018  0.5701 -0.0481  0.3957
  172SAPE   H3X19441   0.890   4.785   2.993  0.1187  0.7915  0.3701
  172SAPE   H3Y19442   0.823   4.626   3.015  0.3030 -0.1077  0.0868
  172SAPE   C3419443   0.762   4.772   3.167  0.4870 -1.3307 -0.7912
  172SAPE   H4X19444   0.743   4.880   3.186 -2.2892 -1.2179 -3.4477
  172SAPE   H4Y19445   0.846   4.742   3.234 -0.6912  1.0763  1.9847
  172SAPE   C3519446   0.637   4.699   3.220  0.2758  0.0572  0.5128
  172SAPE   H5X19447   0.654   4.591   3.203 -2.6362 -0.2294 -1.1568
  172SAPE   H5Y19448   0.547   4.730   3.163  0.2655 -0.2036  0.3847
  172SAPE   C3619449   0.602   4.729   3.364  0.2501 -0.5675 -0.3433
  172SAPE   H6X19450   0.546   4.824   3.376  2.0834  0.4182  0.8306
  172SAPE   H6Y19451   0.688   4.734   3.434 -1.3955  1.4943  1.6702
  172SAPE   C3719452   0.509   4.632   3.434  0.4569  0.3802 -0.0790
  172SAPE   H7X19453   0.566   4.536   3.433 -0.5116 -0.2041 -0.8551
  172SAPE   H7Y19454   0.414   4.626   3.377 -0.5351 -0.1731  1.5513
  172SAPE   C3819455   0.490   4.679   3.577 -0.6026 -0.2759 -0.3061
  172SAPE   H8X19456   0.427   4.771   3.577 -0.1810  0.0550 -2.2249
  172SAPE   H8Y19457   0.589   4.702   3.622 -0.3302  1.6822 -1.7706
  172SAPE   C3919458   0.428   4.566   3.660  1.2661  0.5087  0.4964
  172SAPE   H9X19459   0.510   4.498   3.694 -0.3456 -2.1160 -0.4989
  172SAPE   H9Y19460   0.372   4.495   3.595  3.6168 -0.2930 -0.7872
  172SAPE  C31019461   0.344   4.605   3.785  0.7303  0.1594  0.5777
  172SAPE  H10X19462   0.262   4.668   3.745 -0.2190 -0.6333  1.2193
  172SAPE  H10Y19463   0.398   4.682   3.844 -1.5904  2.0109  0.4144
  172SAPE  C31119464   0.286   4.486   3.865  0.4034  0.2248 -0.3748
  172SAPE  H11X19465   0.365   4.421   3.908 -1.3643 -2.5403 -1.0563
  172SAPE  H11Y19466   0.239   4.423   3.786  2.1229  1.3918 -2.4501
  172SAPE  C31219467   0.176   4.528   3.968  0.1820  0.1132  0.1436
  172SAPE  H12X19468   0.193   4.618   4.031 -1.2513  0.5982 -0.1152
  172SAPE  H12Y19469   0.169   4.445   4.041  1.4308  0.9434  1.2512
  172SAPE  C31319470   0.040   4.530   3.894  0.3802 -0.0733 -0.2175
  172SAPE  H13X19471   0.002   4.428   3.870  1.5604 -0.9880  1.5443
  172SAPE  H13Y19472   0.053   4.571   3.791 -0.9509  0.3127 -0.2553
  172SAPE  C31419473  -0.075   4.601   3.968  0.7651 -0.0755 -0.1966
  172SAPE  H14X19474  -0.124   4.673   3.898 -0.4935 -0.6373  0.0689
  172SAPE  H14Y19475  -0.043   4.657   4.058  1.0555 -1.2058  0.4216
  172SAPE  C31519476  -0.187   4.508   4.021 -0.3463  0.4402 -0.1620
  172SAPE  H15X19477  -0.134   4.439   4.090 -0.7654 -0.5733 -0.8171
  172SAPE  H15Y19478  -0.222   4.441   3.940  0.9208 -1.1852  0.5735
  172SAPE  C31619479  -0.294   4.583   4.095  0.0333 -1.1167  0.2712
  172SAPE  H16X19480  -0.328   4.656   4.018  4.3054 -1.0694 -1.8192
  172SAPE  H16Y19481  -0.258   4.649   4.177  0.5545 -0.0784 -0.7780
  172SAPE  C31719482  -0.415   4.504   4.150 -0.6265 -0.5313  0.4036
  172SAPE  H17X19483  -0.436   4.436   4.065 -1.9093 -1.8728  1.7512
  172SAPE  H17Y19484  -0.496   4.572   4.186 -0.0099  0.9892 -0.9539
  172SAPE  C31819485  -0.373   4.421   4.270 -0.0411 -1.0747 -0.0311
  172SAPE  H18X19486  -0.363   4.486   4.360  0.3777 -1.1080 -0.0550
  172SAPE  H18Y19487  -0.276   4.376   4.240  0.4730  1.7592 -3.2019
  172SAPE  H18Z19488  -0.439   4.333   4.285 -1.0769  0.0710  2.7299
  173SLPC     N19489   6.837   6.481   6.519 -1.1080  0.6340 -0.1299
  173SLPC   C1319490   6.929   6.406   6.611 -0.5540  0.0207  0.5330
  173SLPC  H13A19491   7.025   6.455   6.604 -1.0363  1.0639  1.0544
  173SLPC  H13B19492   6.892   6.411   6.713  0.3153  0.9222  0.8262
  173SLPC  H13C19493   6.937   6.303   6.579 -0.4030  0.7211 -1.8078
  173SLPC   C1419494   6.697   6.473   6.578  0.2102 -0.2464 -0.1207
  173SLPC  H14A19495   6.690   6.506   6.681 -1.6971  2.4950 -1.0106
  173SLPC  H14B19496   6.623   6.529   6.524 -0.9100 -0.2050  1.3969
  173SLPC  H14C19497   6.667   6.370   6.564  1.0259 -0.6029  0.5743
  173SLPC   C1519498   6.832   6.417   6.387 -0.5720  0.1614 -0.0656
  173SLPC  H15A19499   6.918   6.448   6.330 -2.1409  3.0362 -1.0766
  173SLPC  H15B19500   6.828   6.309   6.401  2.2928  0.1740  1.5688
  173SLPC  H15C19501   6.760   6.457   6.317 -1.5836  1.7197  1.7805
  173SLPC   C1219502   6.873   6.625   6.507  0.3053  0.1031  0.3662
  173SLPC  H12A19503   6.897   6.667   6.604  0.3899 -2.1164  1.3754
  173SLPC  H12B19504   6.781   6.671   6.473 -0.6686 -0.9503  1.4753
  173SLPC   C1119505   6.998   6.667   6.422  0.2853  0.0263  0.5012
  173SLPC  H11A19506   7.009   6.777   6.433 -0.6831  0.3729 -1.4350
  173SLPC  H11B19507   6.986   6.659   6.312  2.9266  0.7727  0.0796
  173SLPC     P19508   7.209   6.529   6.365  0.2079 -0.3768 -0.0840
  173SLPC   O1319509   7.323   6.470   6.440  0.5066 -0.0100  0.6557
  173SLPC   O1419510   7.127   6.447   6.277  0.2909  0.1064  0.1807
  173SLPC   O1219511   7.115   6.597   6.472 -0.3576  0.1611  0.0766
  173SLPC   O1119512   7.266   6.652   6.290 -0.4710  0.1016 -0.4940
  173SLPC    C119513   7.336   6.759   6.357 -0.4059 -0.3763  0.9111
  173SLPC    HA19514   7.255   6.827   6.391  0.4162  0.1050  1.9764
  173SLPC    HB19515   7.392   6.725   6.447  0.2661 -1.0316  0.2540
  173SLPC    C219516   7.446   6.839   6.282  0.8405  0.0172  0.0692
  173SLPC    HS19517   7.472   6.932   6.338 -0.7006  1.2050 -1.1101
  173SLPC   O2119518   7.402   6.862   6.145 -0.1745 -0.7070  0.2792
  173SLPC   C2119519   7.317   6.964   6.126  0.5785  0.7224 -0.1044
  173SLPC   O2219520   7.262   7.017   6.219 -0.2442 -0.6065 -0.4044
  173SLPC   C2219521   7.295   6.982   5.977 -0.0198 -0.0074  0.2650
  173SLPC   H2R19522   7.383   6.960   5.914 -1.7965  0.5202 -2.5923
  173SLPC   H2S19523   7.212   6.915   5.947 -0.3962  0.0647  1.1022
  173SLPC    C319524   7.578   6.751   6.260 -0.1287  0.4567  0.7963
  173SLPC    HX19525   7.557   6.653   6.213  0.3865 -0.9286  3.2899
  173SLPC    HY19526   7.606   6.726   6.364  0.7049 -0.4233  0.3698
  173SLPC   O3119527   7.674   6.831   6.189 -0.1362 -0.4532 -0.2425
  173SLPC   C3119528   7.799   6.776   6.194 -0.3505 -0.3050  0.1903
  173SLPC   O3219529   7.835   6.682   6.264  0.1831 -0.6403 -0.5331
  173SLPC   C3219530   7.890   6.855   6.099 -0.5917  0.2585  0.3579
  173SLPC   H2X19531   7.930   6.940   6.158 -0.6638  0.6738 -0.1847
  173SLPC   H2Y19532   7.833   6.891   6.011  0.0910 -0.3344 -0.3496
  173SLPC   C2319533   7.272   7.131   5.936  0.6694 -0.8759  0.2361
  173SLPC   H3R19534   7.362   7.191   5.961 -0.4300  0.5015  1.1234
  173SLPC   H3S19535   7.174   7.158   5.983  1.1406 -0.0405  0.7699
  173SLPC   C2419536   7.241   7.134   5.781  0.6064  0.6571  0.5393
  173SLPC   H4R19537   7.150   7.075   5.760  0.5244  0.9245  0.1267
  173SLPC   H4S19538   7.331   7.094   5.729  0.7848  1.5180  0.1616
  173SLPC   C2519539   7.220   7.287   5.738  0.1712  0.0450  0.4354
  173SLPC   H5R19540   7.308   7.354   5.752 -0.0998 -0.0248  3.1558
  173SLPC   H5S19541   7.135   7.310   5.806  1.0300 -2.0554  2.3545
  173SLPC   C2619542   7.172   7.296   5.595  0.1321 -0.1054 -0.3655
  173SLPC   H6R19543   7.081   7.232   5.601  0.6423 -0.6992  3.1624
  173SLPC   H6S19544   7.246   7.274   5.516  0.0844  1.0706 -0.7673
  173SLPC   C2719545   7.133   7.445   5.556 -0.6717  0.2618 -0.7336
  173SLPC   H7R19546   7.222   7.508   5.577 -0.9114 -0.2633  2.3023
  173SLPC   H7S19547   7.061   7.473   5.636 -0.2079  2.9249 -1.1533
  173SLPC   C2819548   7.076   7.473   5.409  0.5812 -0.1984 -0.1801
  173SLPC   H8R19549   6.995   7.398   5.392  0.6839 -0.1443 -0.9544
  173SLPC   H8S19550   7.151   7.452   5.330  0.7756  0.7118 -0.2404
  173SLPC   C2919551   7.045   7.623   5.400  0.0038 -0.8049  0.3081
  173SLPC   H9R19552   7.132   7.684   5.429  1.0710 -1.3005 -1.6855
  173SLPC  C21019553   6.927   7.677   5.363  0.2431 -0.8120  0.9707
  173SLPC  H10R19554   6.919   7.785   5.383  0.9050 -0.3815 -0.8795
  173SLPC  C21119555   6.796   7.617   5.337  0.2326  0.0160  0.1114
  173SLPC  H11R19556   6.717   7.648   5.409 -0.6698 -0.7289 -0.5361
  173SLPC  H11S19557   6.808   7.507   5.346 -1.4118 -0.0440  2.6890
  173SLPC  C21219558   6.753   7.652   5.197 -0.4498  0.4425  0.0328
  173SLPC  H12R19559   6.784   7.571   5.130 -0.6957 -0.0238  0.4745
  173SLPC  C21319560   6.687   7.757   5.153 -0.1053 -1.0304 -0.2277
  173SLPC  H13R19561   6.671   7.756   5.044  2.1219  1.3428 -0.6860
  173SLPC  C21419562   6.639   7.880   5.228 -0.4577 -0.0250  0.1084
  173SLPC  H14R19563   6.658   7.970   5.166  0.5099 -0.1512  0.2065
  173SLPC  H14S19564   6.706   7.891   5.316 -1.6540  1.9251  0.8530
  173SLPC  C21519565   6.489   7.872   5.261  0.0073  0.5758 -0.2228
  173SLPC  H15R19566   6.465   7.773   5.304 -4.3761  1.3302 -0.4955
  173SLPC  H15S19567   6.414   7.875   5.179 -0.8246  2.6895  0.5267
  173SLPC  C21619568   6.441   7.975   5.367  1.4328 -0.1669 -0.1832
  173SLPC  H16R19569   6.418   8.080   5.342 -1.2278  0.5482  4.0961
  173SLPC  H16S19570   6.519   7.976   5.446  1.5792  0.3398 -0.3319
  173SLPC  C21719571   6.302   7.929   5.430  0.0867  0.1682  0.8962
  173SLPC  H17R19572   6.312   7.832   5.483  2.0407 -0.3179 -0.2583
  173SLPC  H17S19573   6.233   7.902   5.348 -1.1649  1.2342  1.5648
  173SLPC  C21819574   6.235   8.034   5.520 -0.6232 -0.1007  0.8042
  173SLPC  H18R19575   6.313   8.078   5.586 -1.1864  1.2754  0.5770
  173SLPC  H18S19576   6.169   7.979   5.590 -2.1129  0.1734 -0.3359
  173SLPC  H18T19577   6.179   8.114   5.468  1.2438  1.7519  1.4863
  173SLPC   C3319578   8.002   6.774   6.029 -0.3884 -0.3962  0.7907
  173SLPC   H3X19579   8.053   6.725   6.115 -2.7284 -0.0329  2.4737
  173SLPC   H3Y19580   8.070   6.844   5.977 -0.4091 -0.0592  1.2157
  173SLPC   C3419581   7.947   6.688   5.916  0.5720  0.3035 -0.1436
  173SLPC   H4X19582   7.839   6.676   5.939  0.8556 -1.9053  0.3177
  173SLPC   H4Y19583   8.003   6.592   5.909  1.3355  0.5224  2.1687
  173SLPC   C3519584   7.978   6.755   5.779 -0.7139  0.1602 -0.2508
  173SLPC   H5X19585   8.087   6.763   5.762 -0.7607 -1.0454 -1.3999
  173SLPC   H5Y19586   7.944   6.861   5.779  0.3164  0.4961  0.0728
  173SLPC   C3619587   7.914   6.663   5.679 -0.1185 -0.1176 -0.3667
  173SLPC   H6X19588   7.805   6.678   5.661  0.1422  0.8715 -1.2571
  173SLPC   H6Y19589   7.944   6.560   5.708  0.7557  0.1964 -0.1193
  173SLPC   C3719590   7.972   6.671   5.537  0.7083  0.5030  0.1280
  173SLPC   H7X19591   7.921   6.590   5.480 -1.4863  0.9339  1.3831
  173SLPC   H7Y19592   8.079   6.641   5.538  0.4368 -0.6133  2.3959
  173SLPC   C3819593   7.945   6.794   5.456  0.2877  0.3317 -0.4480
  173SLPC   H8X19594   7.957   6.885   5.519 -3.4240 -1.1270  2.8464
  173SLPC   H8Y19595   7.838   6.785   5.426 -0.3027 -0.9814  1.8156
  173SLPC   C3919596   8.010   6.802   5.318 -0.2417  0.0848 -0.4267
  173SLPC   H9X19597   8.120   6.818   5.320 -0.2111  0.0128 -1.3125
  173SLPC   H9Y19598   7.971   6.896   5.273  0.8850 -0.2644 -2.2233
  173SLPC  C31019599   7.968   6.686   5.218  0.0508 -0.2050  0.0046
  173SLPC  H10X19600   7.858   6.675   5.224  0.3291 -4.4067  0.5771
  173SLPC  H10Y19601   8.012   6.591   5.256 -0.5185 -0.8128 -0.8283
  173SLPC  C31119602   8.027   6.690   5.075 -0.7211 -0.0014  0.1478
  173SLPC  H11X19603   8.137   6.703   5.076 -0.5132 -1.5892  0.9005
  173SLPC  H11Y19604   7.987   6.782   5.028  3.9019  2.8302  1.0644
  173SLPC  C31219605   8.009   6.564   4.983  1.0701  0.1324 -0.6553
  173SLPC  H12X19606   7.902   6.537   4.992  0.9614  0.3599 -1.1993
  173SLPC  H12Y19607   8.059   6.479   5.033  2.4248  0.7580 -0.8902
  173SLPC  C31319608   8.045   6.573   4.836  0.0055  0.4047  0.4623
  173SLPC  H13X19609   8.146   6.617   4.822  1.8616 -3.0329  1.7679
  173SLPC  H13Y19610   7.965   6.619   4.774  2.3242 -0.0721 -3.1663
  173SLPC  C31419611   8.062   6.430   4.768 -0.4527  0.2087 -0.5078
  173SLPC  H14X19612   8.153   6.378   4.805  0.0935  3.0173  2.6309
  173SLPC  H14Y19613   8.070   6.443   4.658 -0.1779 -1.6999 -0.7512
  173SLPC  C31519614   7.951   6.340   4.810  0.5331 -0.0912  0.1085
  173SLPC  H15X19615   7.955   6.317   4.918  0.1555 -0.4899  0.0403
  173SLPC  H15Y19616   7.966   6.243   4.758 -0.4200  0.9036 -2.1863
  173SLPC  C31619617   7.807   6.390   4.776 -0.3505  0.2843  0.3124
  173SLPC  H16X19618   7.780   6.493   4.809 -1.3318  0.5486 -1.2178
  173SLPC  H16Y19619   7.735   6.324   4.830 -1.4740 -0.5570 -2.0728
  173SLPC  C31719620   7.777   6.379   4.629  0.1168 -0.0098 -0.2907
  173SLPC  H17X19621   7.800   6.274   4.598  0.2854 -0.1918  0.4455
  173SLPC  H17Y19622   7.849   6.441   4.572  0.0254  0.6928  0.3424
  173SLPC  C31819623   7.634   6.410   4.592 -0.3062 -0.8180  0.4162
  173SLPC  H18X19624   7.573   6.402   4.684  0.3965 -0.2086  0.9454
  173SLPC  H18Y19625   7.593   6.332   4.524 -0.3922 -1.2991  1.0171
  173SLPC  H18Z19626   7.621   6.514   4.553 -0.1944 -1.5402 -1.6667
  174SLPC     N19627   1.976   6.940   6.919 -0.3759  0.3820 -0.3996
  174SLPC   C1319628   1.938   6.797   6.930  0.6295  0.1800 -0.5751
  174SLPC  H13A19629   1.899   6.779   7.029  1.8929 -0.0132 -0.1040
  174SLPC  H13B19630   1.851   6.787   6.867 -1.2547 -0.3533  1.9605
  174SLPC  H13C19631   2.018   6.728   6.908  1.7195  0.3776  2.3496
  174SLPC   C1419632   2.087   6.965   7.023  0.1858 -1.0977 -0.5687
  174SLPC  H14A19633   2.112   7.070   7.026  1.6377 -1.4207 -0.2063
  174SLPC  H14B19634   2.066   6.941   7.126  0.0424 -0.2104 -0.3834
  174SLPC  H14C19635   2.172   6.902   6.998  0.3707 -1.0539 -0.0757
  174SLPC   C1519636   1.852   7.022   6.948 -0.1365  0.0781 -0.2876
  174SLPC  H15A19637   1.887   7.124   6.956  1.8815 -0.4460 -1.6600
  174SLPC  H15B19638   1.789   7.021   6.860 -0.7716 -1.4494  0.1565
  174SLPC  H15C19639   1.800   6.989   7.037  0.2251 -0.0956 -0.1402
  174SLPC   C1219640   2.012   6.986   6.777  0.2235  0.3472  0.1639
  174SLPC  H12A19641   2.118   6.977   6.759  0.0011 -0.9675 -0.6127
  174SLPC  H12B19642   2.007   7.093   6.765 -4.5949  0.1241 -2.9901
  174SLPC   C1119643   1.953   6.917   6.655  0.2821 -0.0663 -0.2317
  174SLPC  H11A19644   1.960   6.806   6.647  1.5471 -0.0797  0.7411
  174SLPC  H11B19645   2.006   6.962   6.569 -0.7098  1.7120  0.0213
  174SLPC     P19646   1.699   6.865   6.593 -0.1059 -0.0210 -0.5705
  174SLPC   O1319647   1.713   6.738   6.670 -0.1212  0.1217  0.2320
  174SLPC   O1419648   1.574   6.940   6.603  0.1395  0.2491 -0.2523
  174SLPC   O1219649   1.816   6.955   6.655 -0.3064 -0.2705  0.1652
  174SLPC   O1119650   1.746   6.862   6.446  0.2974  0.3403 -0.2616
  174SLPC    C119651   1.775   6.735   6.383  0.0021  0.1247  0.3385
  174SLPC    HA19652   1.884   6.717   6.387 -0.1674 -0.7636  1.6240
  174SLPC    HB19653   1.730   6.646   6.432  2.8021 -1.8212 -0.4261
  174SLPC    C219654   1.731   6.737   6.236  0.0190  0.5164  0.6214
  174SLPC    HS19655   1.748   6.635   6.194  0.9477  0.8256  0.2180
  174SLPC   O2119656   1.796   6.835   6.162  0.2847 -0.5670  0.4107
  174SLPC   C2119657   1.919   6.798   6.120 -0.5219 -0.2431  0.1131
  174SLPC   O2219658   1.969   6.692   6.141 -0.1292 -0.2674 -0.1333
  174SLPC   C2219659   1.983   6.910   6.028  0.6606 -0.0504 -0.1987
  174SLPC   H2R19660   1.922   6.998   6.057  1.0244 -0.4818  2.1106
  174SLPC   H2S19661   2.091   6.925   6.052  0.4424 -0.1142  0.8895
  174SLPC    C319662   1.581   6.767   6.231 -0.1406  0.2465 -0.2695
  174SLPC    HX19663   1.561   6.857   6.292 -0.7058  0.1901 -0.3706
  174SLPC    HY19664   1.532   6.680   6.280 -1.2425  1.3771  0.7077
  174SLPC   O3119665   1.527   6.791   6.097  0.3291 -0.1392  0.0523
  174SLPC   C3119666   1.469   6.691   6.042 -0.0744  0.5900  0.0562
  174SLPC   O3219667   1.455   6.575   6.090  0.1616 -0.4003  0.1955
  174SLPC   C3219668   1.408   6.739   5.912 -0.6194  0.7750  0.1381
  174SLPC   H2X19669   1.473   6.821   5.873 -0.7379  0.4906 -0.6869
  174SLPC   H2Y19670   1.315   6.795   5.936  0.3935  1.5281  2.6394
  174SLPC   C2319671   1.962   6.879   5.876 -0.2311  0.2823 -0.0066
  174SLPC   H3R19672   1.855   6.866   5.851 -0.1507  0.5569 -0.4993
  174SLPC   H3S19673   2.023   6.789   5.851 -0.4318  0.8726 -2.9145
  174SLPC   C2419674   2.019   6.997   5.790 -0.3047 -0.4051 -0.2507
  174SLPC   H4R19675   2.111   7.023   5.847  0.8012  0.6378 -2.3917
  174SLPC   H4S19676   1.945   7.080   5.794 -0.9830 -0.9797 -0.6091
  174SLPC   C2519677   2.063   6.961   5.650  0.1410 -0.2369  0.1514
  174SLPC   H5R19678   2.133   6.877   5.665  3.7191  2.4052 -0.4807
  174SLPC   H5S19679   2.135   7.041   5.622  0.1813 -0.7091 -1.1807
  174SLPC   C2619680   1.951   6.941   5.553 -0.2127 -0.1807 -0.6086
  174SLPC   H6R19681   1.869   7.014   5.571 -1.3031 -2.0514  2.9553
  174SLPC   H6S19682   1.905   6.840   5.560 -0.7998  0.0577 -0.9733
  174SLPC   C2719683   2.002   6.951   5.411  0.5901 -0.1508  0.0436
  174SLPC   H7R19684   2.082   6.880   5.379 -0.4182 -1.6201  0.6574
  174SLPC   H7S19685   2.027   7.057   5.391  0.3630  0.3978  2.4510
  174SLPC   C2819686   1.890   6.925   5.311  0.3016  0.0559 -0.2937
  174SLPC   H8R19687   1.843   6.827   5.331  0.5681 -0.1674 -0.7288
  174SLPC   H8S19688   1.945   6.918   5.214  0.1447  0.8842 -0.4465
  174SLPC   C2919689   1.782   7.028   5.316 -0.0952  0.1392  0.3080
  174SLPC   H9R19690   1.722   7.016   5.407  0.1416  0.8991  0.5705
  174SLPC  C21019691   1.762   7.115   5.215  0.1136 -0.1847  0.8109
  174SLPC  H10R19692   1.669   7.173   5.209 -0.8684 -1.7939 -2.7544
  174SLPC  C21119693   1.841   7.114   5.087 -0.4437 -0.4310  0.2333
  174SLPC  H11R19694   1.784   7.053   5.013  1.1366 -0.7568 -0.7561
  174SLPC  H11S19695   1.938   7.061   5.086  0.4676  1.1563 -1.4372
  174SLPC  C21219696   1.873   7.249   5.027  0.6229 -0.3490  0.0741
  174SLPC  H12R19697   1.942   7.309   5.087  0.1588  0.8843 -0.5737
  174SLPC  C21319698   1.812   7.301   4.916 -0.0933 -0.5573  0.7477
  174SLPC  H13R19699   1.852   7.393   4.871  1.5433 -1.2657  0.7112
  174SLPC  C21419700   1.703   7.252   4.832 -0.1079  1.1065 -0.3797
  174SLPC  H14R19701   1.612   7.309   4.858 -0.5759 -0.4451  1.6562
  174SLPC  H14S19702   1.677   7.150   4.868 -0.6769  1.0153 -1.0343
  174SLPC  C21519703   1.719   7.235   4.676  0.3383  0.5631 -0.3704
  174SLPC  H15R19704   1.820   7.193   4.662 -0.3444 -2.2007  2.0469
  174SLPC  H15S19705   1.717   7.340   4.640  0.8820  0.0175 -2.0767
  174SLPC  C21619706   1.605   7.147   4.614  0.1449 -0.4029  0.2611
  174SLPC  H16R19707   1.515   7.211   4.614  0.1542 -0.3003 -2.1768
  174SLPC  H16S19708   1.585   7.065   4.685 -0.1930  0.3971  1.1055
  174SLPC  C21719709   1.631   7.095   4.469  0.4776 -0.9790 -0.1321
  174SLPC  H17R19710   1.732   7.048   4.462  0.7112 -0.2847 -1.8272
  174SLPC  H17S19711   1.627   7.182   4.400  1.7637  0.5111  1.5476
  174SLPC  C21819712   1.524   6.998   4.428  0.2543  0.5740  0.3543
  174SLPC  H18R19713   1.565   6.955   4.334  2.1049 -0.6693  1.6786
  174SLPC  H18S19714   1.427   7.053   4.423  0.0420  0.2592  0.8582
  174SLPC  H18T19715   1.503   6.908   4.491 -0.0701 -1.6900 -2.7381
  174SLPC   C3319716   1.375   6.630   5.811  0.5057  0.2617  0.0399
  174SLPC   H3X19717   1.286   6.575   5.849 -0.4512  0.2021 -2.1400
  174SLPC   H3Y19718   1.454   6.553   5.797 -0.2367 -0.6254  0.5893
  174SLPC   C3419719   1.334   6.679   5.677 -0.5647  0.1413  0.5542
  174SLPC   H4X19720   1.288   6.779   5.692  0.0885  0.3591  1.1475
  174SLPC   H4Y19721   1.259   6.608   5.634  0.7212 -1.2382  0.5251
  174SLPC   C3519722   1.455   6.682   5.577  0.3532 -0.0985 -0.8361
  174SLPC   H5X19723   1.504   6.582   5.582  1.0192  0.3010  1.5995
  174SLPC   H5Y19724   1.528   6.761   5.605 -0.3251 -0.2942  1.6387
  174SLPC   C3619725   1.425   6.705   5.426 -0.0196 -0.0648 -0.1618
  174SLPC   H6X19726   1.374   6.803   5.414 -0.7833  0.1362  3.4441
  174SLPC   H6Y19727   1.346   6.630   5.403 -1.0729  0.6599  0.9898
  174SLPC   C3719728   1.547   6.681   5.329 -0.3393 -0.0703 -0.4471
  174SLPC   H7X19729   1.598   6.584   5.345 -1.1935 -0.5343 -0.5315
  174SLPC   H7Y19730   1.616   6.763   5.361 -0.3921 -0.2936  0.2301
  174SLPC   C3819731   1.502   6.708   5.185 -0.8641  0.4391  0.5653
  174SLPC   H8X19732   1.466   6.813   5.173  2.4608  1.6972  0.7569
  174SLPC   H8Y19733   1.426   6.639   5.141 -0.6662  1.6692 -1.9097
  174SLPC   C3919734   1.619   6.691   5.084  0.2249  0.2895 -0.6259
  174SLPC   H9X19735   1.659   6.587   5.088 -0.6701 -0.2077 -3.0205
  174SLPC   H9Y19736   1.704   6.759   5.102  1.4001  0.0338 -4.3102
  174SLPC  C31019737   1.580   6.699   4.935 -0.3653 -0.3396 -0.0846
  174SLPC  H10X19738   1.553   6.806   4.921 -0.5673 -0.3960 -0.1353
  174SLPC  H10Y19739   1.489   6.636   4.924 -0.7298 -0.2037  1.7764
  174SLPC  C31119740   1.681   6.641   4.832 -0.7879  0.5871  0.2261
  174SLPC  H11X19741   1.702   6.540   4.871 -0.4344  0.7653  0.5035
  174SLPC  H11Y19742   1.776   6.696   4.848  0.6520 -0.1528 -4.3500
  174SLPC  C31219743   1.638   6.645   4.692  0.7797  0.2035  1.2042
  174SLPC  H12X19744   1.713   6.621   4.614 -2.6576  2.3553 -3.2459
  174SLPC  H12Y19745   1.608   6.745   4.656  0.5266  0.0562  1.0038
  174SLPC  C31319746   1.525   6.536   4.675  0.2647 -0.8458 -0.5078
  174SLPC  H13X19747   1.433   6.579   4.720  1.2498  1.6482 -0.6917
  174SLPC  H13Y19748   1.562   6.446   4.727 -0.2728 -1.2010 -0.7298
  174SLPC  C31419749   1.504   6.506   4.522  0.5911  0.3919 -0.1228
  174SLPC  H14X19750   1.601   6.475   4.476  0.0604  0.4851 -1.3505
  174SLPC  H14Y19751   1.467   6.594   4.466  0.0472 -1.3582 -2.7293
  174SLPC  C31519752   1.401   6.390   4.499  0.6440 -0.0621 -1.0853
  174SLPC  H15X19753   1.328   6.408   4.580  0.1459 -0.0156 -1.5337
  174SLPC  H15Y19754   1.447   6.288   4.501 -0.8043 -0.7184 -0.0963
  174SLPC  C31619755   1.336   6.416   4.367 -0.3841 -0.7377  0.2307
  174SLPC  H16X19756   1.419   6.421   4.294 -0.8718  1.1977 -0.2465
  174SLPC  H16Y19757   1.292   6.518   4.359  0.3956 -0.5173 -1.4737
  174SLPC  C31719758   1.220   6.329   4.320  0.6201  0.2616  0.1004
  174SLPC  H17X19759   1.139   6.335   4.395  2.2202  0.5352  1.9022
  174SLPC  H17Y19760   1.251   6.223   4.335 -0.5866 -0.2682 -0.9193
  174SLPC  C31819761   1.184   6.346   4.175  0.0495  0.0377 -0.5964
  174SLPC  H18X19762   1.268   6.388   4.117  0.4992 -1.2038 -0.8739
  174SLPC  H18Y19763   1.102   6.422   4.173  0.7830  0.8725  0.1627
  174SLPC  H18Z19764   1.140   6.258   4.123 -2.0707  1.3374 -1.1337
  175SLPC     N19765   3.285   1.537   6.628  0.1428  0.4780 -0.0582
  175SLPC   C1319766   3.353   1.537   6.768  1.0796  0.6618  0.1890
  175SLPC  H13A19767   3.365   1.436   6.803 -1.3599 -0.3564 -1.6184
  175SLPC  H13B19768   3.451   1.580   6.758  0.2703  2.2958 -1.4232
  175SLPC  H13C19769   3.288   1.590   6.836  0.6872 -0.7993  1.0019
  175SLPC   C1419770   3.257   1.673   6.580  0.1157 -0.0189  0.5299
  175SLPC  H14A19771   3.342   1.738   6.597 -0.0054  0.3503 -0.2614
  175SLPC  H14B19772   3.235   1.672   6.475 -1.3386  1.7788  0.7671
  175SLPC  H14C19773   3.174   1.723   6.627  1.6519  3.4397 -0.1278
  175SLPC   C1519774   3.149   1.472   6.649  0.1987 -0.4250  0.0929
  175SLPC  H15A19775   3.092   1.523   6.725  0.3524 -0.2379  0.0840
  175SLPC  H15B19776   3.094   1.484   6.557 -1.7068 -1.9400  0.9747
  175SLPC  H15C19777   3.157   1.368   6.679 -0.3451  0.3762  3.4648
  175SLPC   C1219778   3.372   1.457   6.534  0.2876 -0.1294 -0.6345
  175SLPC  H12A19779   3.362   1.351   6.550  0.0743  0.3847  3.9850
  175SLPC  H12B19780   3.476   1.479   6.555  0.4470 -1.1185 -0.3163
  175SLPC   C1119781   3.357   1.472   6.378  0.2268  0.9477 -0.3188
  175SLPC  H11A19782   3.438   1.414   6.329 -0.2795  1.0511 -1.3157
  175SLPC  H11B19783   3.366   1.581   6.359 -3.6517  1.9889  2.5416
  175SLPC     P19784   3.193   1.283   6.287  0.2411  0.2009 -0.0157
  175SLPC   O1319785   3.234   1.197   6.399  0.4274 -0.3278 -0.4874
  175SLPC   O1419786   3.056   1.277   6.226 -0.4827  0.0850  0.3543
  175SLPC   O1219787   3.225   1.429   6.330 -0.2897 -0.1669 -0.2874
  175SLPC   O1119788   3.286   1.247   6.168  0.0169 -0.3041 -0.9217
  175SLPC    C119789   3.336   1.348   6.077 -0.0099 -0.6556  0.4926
  175SLPC    HA19790   3.275   1.440   6.069 -0.2680 -0.9041 -0.4515
  175SLPC    HB19791   3.433   1.387   6.114  1.4695 -2.1203 -1.6220
  175SLPC    C219792   3.351   1.291   5.935 -0.2569 -0.0466  0.3423
  175SLPC    HS19793   3.252   1.253   5.899  0.6489 -1.6890 -0.5570
  175SLPC   O2119794   3.441   1.174   5.933 -0.4690  0.1414 -0.2906
  175SLPC   C2119795   3.387   1.051   5.950 -0.0968  0.4429  0.0262
  175SLPC   O2219796   3.269   1.027   5.953 -0.4390 -0.4686  0.0731
  175SLPC   C2219797   3.493   0.944   5.974 -0.6959 -0.7852  0.5680
  175SLPC   H2R19798   3.584   0.976   5.919 -1.0727 -0.0788  0.3453
  175SLPC   H2S19799   3.517   0.962   6.081 -2.9001  2.0790  0.6920
  175SLPC    C319800   3.403   1.401   5.836 -0.4465  0.5786  0.9887
  175SLPC    HX19801   3.501   1.442   5.867  2.0224 -1.3449 -3.3027
  175SLPC    HY19802   3.326   1.480   5.844 -1.7708 -0.8497  4.2329
  175SLPC   O3119803   3.438   1.344   5.705  0.4954  0.6570  0.5412
  175SLPC   C3119804   3.328   1.311   5.635 -0.2862 -0.6317 -0.3613
  175SLPC   O3219805   3.210   1.340   5.666 -0.5230  0.5950 -0.0349
  175SLPC   C3219806   3.372   1.249   5.502 -0.2120 -0.1332  0.4556
  175SLPC   H2X19807   3.440   1.167   5.533  1.4925  1.7182  1.9072
  175SLPC   H2Y19808   3.435   1.322   5.449  2.1730 -2.4270 -0.0730
  175SLPC   C2319809   3.461   0.795   5.936  0.7418  0.6767 -0.5834
  175SLPC   H3R19810   3.364   0.764   5.980  1.3666 -0.5399 -0.0171
  175SLPC   H3S19811   3.532   0.728   5.988 -0.5141 -0.4911 -0.3239
  175SLPC   C2419812   3.451   0.771   5.781  0.2795  0.0626 -0.4791
  175SLPC   H4R19813   3.367   0.833   5.744  0.5733  0.8362  0.1114
  175SLPC   H4S19814   3.436   0.663   5.762  2.8197 -0.9643  2.4256
  175SLPC   C2519815   3.579   0.809   5.694  0.6137  0.5130  0.0707
  175SLPC   H5R19816   3.667   0.747   5.720  0.9198 -0.6058 -3.1107
  175SLPC   H5S19817   3.603   0.912   5.727 -1.1215  1.2174 -0.7635
  175SLPC   C2619818   3.554   0.795   5.539 -0.3588  0.5470 -1.1998
  175SLPC   H6R19819   3.461   0.846   5.507 -0.8016 -0.4015 -1.4778
  175SLPC   H6S19820   3.540   0.687   5.518 -3.3208  0.8049 -0.9503
  175SLPC   C2719821   3.677   0.844   5.451  0.4696 -0.0390  0.2578
  175SLPC   H7R19822   3.764   0.776   5.465  1.4020  0.9221 -0.7081
  175SLPC   H7S19823   3.693   0.952   5.475 -0.6812  0.4852 -1.2008
  175SLPC   C2819824   3.643   0.848   5.302  0.0494 -0.0142  0.5301
  175SLPC   H8R19825   3.714   0.915   5.250 -0.0286  0.6677  1.2756
  175SLPC   H8S19826   3.552   0.909   5.280 -0.1240  0.7958  3.1924
  175SLPC   C2919827   3.625   0.706   5.250 -0.3518  0.1687  0.6711
  175SLPC   H9R19828   3.720   0.656   5.225  0.4293  1.4620  0.9572
  175SLPC  C21019829   3.515   0.630   5.222 -0.0285 -0.4121 -0.4276
  175SLPC  H10R19830   3.532   0.526   5.189  0.4389 -0.5951  0.3553
  175SLPC  C21119831   3.374   0.676   5.249 -0.6622 -0.1050 -0.2501
  175SLPC  H11R19832   3.386   0.770   5.307  1.1753 -0.4394 -0.0402
  175SLPC  H11S19833   3.322   0.609   5.320  0.5408 -0.6798  0.1137
  175SLPC  C21219834   3.285   0.706   5.132  0.0190  0.6374 -0.6833
  175SLPC  H12R19835   3.251   0.810   5.133 -1.0121  0.3480  2.1588
  175SLPC  C21319836   3.248   0.618   5.037 -0.5162  0.6773 -0.6081
  175SLPC  H13R19837   3.186   0.657   4.955 -0.8586  0.2456 -0.5593
  175SLPC  C21419838   3.287   0.468   5.027 -0.0959 -0.4549 -1.0345
  175SLPC  H14R19839   3.189   0.417   5.020 -1.0239  1.3008 -1.3400
  175SLPC  H14S19840   3.319   0.435   5.128  1.2832 -1.2245 -1.6986
  175SLPC  C21519841   3.387   0.432   4.917 -0.6735 -0.2990  0.1260
  175SLPC  H15R19842   3.469   0.506   4.910 -1.7705  0.9073 -0.3148
  175SLPC  H15S19843   3.349   0.437   4.813 -0.3034  1.1288  0.0525
  175SLPC  C21619844   3.452   0.297   4.936 -0.0605  0.1156 -0.7152
  175SLPC  H16R19845   3.375   0.221   4.962 -1.6751  2.1812  0.9467
  175SLPC  H16S19846   3.523   0.293   5.021 -0.1359  2.3275 -0.4912
  175SLPC  C21719847   3.522   0.262   4.807  0.1417 -0.2694 -0.5410
  175SLPC  H17R19848   3.583   0.354   4.793 -1.0808  0.8008  0.8820
  175SLPC  H17S19849   3.457   0.262   4.717  0.7519  0.0260 -0.9893
  175SLPC  C21819850   3.605   0.136   4.821  0.2610  0.0444  0.0641
  175SLPC  H18R19851   3.700   0.154   4.765  2.2292  1.0829  3.4686
  175SLPC  H18S19852   3.550   0.051   4.776 -4.5179  1.2422  2.9422
  175SLPC  H18T19853   3.630   0.127   4.929 -1.4097  0.2994  0.4870
  175SLPC   C3319854   3.258   1.190   5.423 -0.0064  0.2274 -0.6265
  175SLPC   H3X19855   3.189   1.133   5.489  1.8385  0.7788  1.9572
  175SLPC   H3Y19856   3.301   1.114   5.355 -0.1013 -1.1265  0.7600
  175SLPC   C3419857   3.176   1.286   5.339 -0.4464 -0.2239  0.9148
  175SLPC   H4X19858   3.149   1.372   5.404  0.2436 -0.1984  1.1787
  175SLPC   H4Y19859   3.083   1.232   5.311 -1.4009  1.6562  0.3067
  175SLPC   C3519860   3.259   1.334   5.217 -0.1054  0.3015 -0.0214
  175SLPC   H5X19861   3.283   1.239   5.164  1.1818  0.5123  0.1580
  175SLPC   H5Y19862   3.354   1.385   5.240  1.0510 -1.3112 -0.9825
  175SLPC   C3619863   3.178   1.429   5.125 -0.3994  0.0629  0.1628
  175SLPC   H6X19864   3.166   1.529   5.172  1.1723  1.4090 -2.1012
  175SLPC   H6Y19865   3.075   1.391   5.108  0.0226 -0.0262 -2.6285
  175SLPC   C3719866   3.237   1.440   4.983 -0.2341  0.3876  0.2863
  175SLPC   H7X19867   3.190   1.361   4.921 -0.8886  0.1433  1.0690
  175SLPC   H7Y19868   3.345   1.415   4.992 -0.0901  0.7114 -0.4823
  175SLPC   C3819869   3.218   1.578   4.920 -0.3859 -0.8457  0.6067
  175SLPC   H8X19870   3.241   1.663   4.987 -1.3721 -0.8622  0.9806
  175SLPC   H8Y19871   3.108   1.589   4.904 -0.0288  1.0006 -0.9775
  175SLPC   C3919872   3.296   1.589   4.781  0.1223  0.0110  0.3476
  175SLPC   H9X19873   3.386   1.524   4.771  0.1815  0.0605  0.5443
  175SLPC   H9Y19874   3.344   1.688   4.766  1.6718 -0.9845 -1.7510
  175SLPC  C31019875   3.206   1.552   4.666 -0.0672 -0.4318 -0.4160
  175SLPC  H10X19876   3.112   1.612   4.661  0.5873  0.6074 -0.6552
  175SLPC  H10Y19877   3.175   1.447   4.685 -2.0783  0.4474  1.7324
  175SLPC  C31119878   3.276   1.544   4.529  0.2877  0.1693 -0.2879
  175SLPC  H11X19879   3.232   1.459   4.472  0.4159  0.6788 -1.1610
  175SLPC  H11Y19880   3.385   1.527   4.538  0.1608 -0.0959  0.8986
  175SLPC  C31219881   3.260   1.661   4.434  0.5651 -0.9714  0.4852
  175SLPC  H12X19882   3.324   1.651   4.343  0.5101  2.5783 -0.1079
  175SLPC  H12Y19883   3.295   1.748   4.494 -1.4369  0.0383  0.2571
  175SLPC  C31319884   3.114   1.689   4.387 -0.4655 -0.0568 -0.3579
  175SLPC  H13X19885   3.125   1.794   4.352  0.8307 -0.9051 -2.7000
  175SLPC  H13Y19886   3.043   1.700   4.472  0.2963 -0.7301  0.3783
  175SLPC  C31419887   3.067   1.592   4.283  0.6572  0.2437  0.0121
  175SLPC  H14X19888   3.017   1.508   4.335 -0.7452  0.0810 -1.5393
  175SLPC  H14Y19889   3.155   1.549   4.231  1.6609  2.7769 -0.5339
  175SLPC  C31519890   2.960   1.653   4.186 -0.7734  0.1956 -0.1736
  175SLPC  H15X19891   2.934   1.569   4.119  1.1813 -1.5490  1.1235
  175SLPC  H15Y19892   3.013   1.732   4.129 -1.7424 -0.1450 -1.5814
  175SLPC  C31619893   2.833   1.696   4.259 -0.1468  0.1664 -0.1616
  175SLPC  H16X19894   2.858   1.777   4.331 -2.0461  0.4673  0.2014
  175SLPC  H16Y19895   2.792   1.608   4.313 -0.8689  0.7657  0.2837
  175SLPC  C31719896   2.728   1.755   4.167  0.2247 -0.2090 -0.6692
  175SLPC  H17X19897   2.778   1.834   4.108 -1.0075  0.7238 -0.5100
  175SLPC  H17Y19898   2.644   1.800   4.224  0.3555 -0.3985 -0.3294
  175SLPC  C31819899   2.677   1.656   4.065  0.2735 -0.1300  0.1929
  175SLPC  H18X19900   2.751   1.643   3.983 -0.8540  2.8229 -1.4410
  175SLPC  H18Y19901   2.591   1.690   4.004 -0.9067 -1.5632  1.0156
  175SLPC  H18Z19902   2.643   1.564   4.116  0.4781  0.5989  1.7116
  176SLPC     N19903   5.130   6.573   6.830  0.3770  0.1495 -0.5464
  176SLPC   C1319904   5.086   6.694   6.914  0.5765  0.4635  0.0086
  176SLPC  H13A19905   5.132   6.686   7.011  0.9891 -1.7503 -0.2964
  176SLPC  H13B19906   5.127   6.787   6.877  0.6976 -0.0977 -1.3342
  176SLPC  H13C19907   4.980   6.708   6.930  0.7679 -0.9764  3.3306
  176SLPC   C1419908   5.029   6.460   6.863 -0.3266  0.3923  0.0344
  176SLPC  H14A19909   5.013   6.448   6.969 -0.2596 -0.8160 -0.0748
  176SLPC  H14B19910   4.939   6.463   6.802  0.5550  2.4530 -1.2897
  176SLPC  H14C19911   5.072   6.367   6.831 -0.4449 -0.0115  1.0209
  176SLPC   C1519912   5.265   6.535   6.880 -0.1009 -0.3304  0.8550
  176SLPC  H15A19913   5.330   6.619   6.860  0.6300 -0.9349  0.6285
  176SLPC  H15B19914   5.282   6.525   6.986 -1.3275  0.9024  1.2012
  176SLPC  H15C19915   5.306   6.452   6.824  0.7769 -0.1658  1.2287
  176SLPC   C1219916   5.127   6.600   6.685 -0.8741 -0.0022  0.0124
  176SLPC  H12A19917   5.025   6.619   6.656 -1.8049 -1.7327  1.9104
  176SLPC  H12B19918   5.166   6.511   6.637  2.3889  0.9675  0.5934
  176SLPC   C1119919   5.214   6.712   6.627  0.3769  0.1818  0.6840
  176SLPC  H11A19920   5.202   6.696   6.518 -0.7617 -1.4207  0.9987
  176SLPC  H11B19921   5.318   6.683   6.654  0.7207  0.1663 -0.6134
  176SLPC     P19922   5.053   6.916   6.600  0.0431  0.0953  0.0147
  176SLPC   O1319923   4.937   6.826   6.586  0.3407 -0.5985 -0.2916
  176SLPC   O1419924   5.024   7.048   6.659  0.1271 -0.0202  0.2989
  176SLPC   O1219925   5.172   6.841   6.677 -0.3953  0.1591 -0.3926
  176SLPC   O1119926   5.120   6.940   6.456 -0.5790  0.1293  0.1026
  176SLPC    C119927   5.257   6.979   6.442 -0.6086  0.2170  0.4381
  176SLPC    HA19928   5.328   6.930   6.512 -0.6511 -0.5124 -0.0190
  176SLPC    HB19929   5.295   6.961   6.339 -0.0543 -1.5212  0.9089
  176SLPC    C219930   5.280   7.137   6.458  0.0679  0.3989  0.2156
  176SLPC    HS19931   5.225   7.168   6.550 -1.3807 -0.4238 -0.3406
  176SLPC   O2119932   5.220   7.201   6.342  0.4001  0.1923 -0.2336
  176SLPC   C2119933   5.211   7.335   6.353 -0.0693  0.6325  0.4082
  176SLPC   O2219934   5.214   7.397   6.462 -0.1094 -0.4756  0.1532
  176SLPC   C2219935   5.190   7.389   6.214 -0.6635  0.1724  0.1846
  176SLPC   H2R19936   5.095   7.342   6.180 -0.7702 -0.3799  1.2050
  176SLPC   H2S19937   5.173   7.498   6.226 -2.1117  0.0446 -0.4423
  176SLPC    C319938   5.425   7.181   6.476  0.0642  0.2865  0.1521
  176SLPC    HX19939   5.469   7.155   6.574  0.3177 -1.4223 -0.3802
  176SLPC    HY19940   5.432   7.292   6.466 -2.0441  0.4853  0.2828
  176SLPC   O3119941   5.500   7.104   6.379 -0.2572 -0.7977 -0.0013
  176SLPC   C3119942   5.576   7.174   6.291 -0.5517 -0.5635  0.2830
  176SLPC   O3219943   5.582   7.297   6.295  0.4539 -0.3488 -0.5001
  176SLPC   C3219944   5.638   7.088   6.191  0.1205 -0.1015  0.3413
  176SLPC   H2X19945   5.559   7.046   6.126  1.4884  0.3636 -1.7210
  176SLPC   H2Y19946   5.687   6.996   6.230  0.0700 -0.6640 -0.8571
  176SLPC   C2319947   5.309   7.357   6.124 -0.1183 -1.2520  0.5910
  176SLPC   H3R19948   5.339   7.250   6.122 -0.8080 -1.4361  0.0833
  176SLPC   H3S19949   5.397   7.418   6.156  0.5219 -0.6061 -2.1818
  176SLPC   C2419950   5.291   7.373   5.972 -0.2014 -0.4790  0.0469
  176SLPC   H4R19951   5.246   7.473   5.954 -1.4713 -0.5405  2.4378
  176SLPC   H4S19952   5.223   7.293   5.937 -0.8124 -0.2580  0.6928
  176SLPC   C2519953   5.424   7.379   5.894 -0.0429  0.1189  0.2094
  176SLPC   H5R19954   5.500   7.313   5.942 -0.2201 -0.8817 -0.8235
  176SLPC   H5S19955   5.486   7.470   5.911  2.0928 -1.6235  2.5078
  176SLPC   C2619956   5.407   7.340   5.748  0.7530  0.0216 -0.0015
  176SLPC   H6R19957   5.339   7.414   5.700 -1.1534 -0.6780  1.4711
  176SLPC   H6S19958   5.342   7.250   5.748  0.7593  0.0171  0.0835
  176SLPC   C2719959   5.523   7.317   5.656 -0.1838 -0.4235  0.7408
  176SLPC   H7R19960   5.589   7.238   5.700 -2.3108 -2.8443 -0.1689
  176SLPC   H7S19961   5.583   7.410   5.661 -0.2477 -0.4335  2.8641
  176SLPC   C2819962   5.477   7.284   5.520  0.1039  0.7892  0.3754
  176SLPC   H8R19963   5.444   7.383   5.480  0.2108  0.4014 -0.6870
  176SLPC   H8S19964   5.393   7.211   5.524  0.5896  0.2028 -0.0283
  176SLPC   C2919965   5.581   7.232   5.429  0.0133 -0.4019 -0.2301
  176SLPC   H9R19966   5.644   7.155   5.475  0.6166  0.8134  1.0340
  176SLPC  C21019967   5.603   7.270   5.299 -0.0840 -0.1112  0.0678
  176SLPC  H10R19968   5.674   7.207   5.243  0.2567  1.2808 -1.1496
  176SLPC  C21119969   5.526   7.375   5.220  0.3190  0.3437  0.0439
  176SLPC  H11R19970   5.502   7.465   5.282  0.2666 -0.3809  1.0988
  176SLPC  H11S19971   5.421   7.340   5.205 -0.1181  1.9259 -0.7920
  176SLPC  C21219972   5.591   7.407   5.091  0.4175  0.3962  0.5003
  176SLPC  H12R19973   5.644   7.502   5.077 -1.1319  0.9758 -2.0625
  176SLPC  C21319974   5.585   7.314   4.987 -0.6963  0.4314 -0.0885
  176SLPC  H13R19975   5.631   7.324   4.888 -0.3597 -3.2885 -0.4342
  176SLPC  C21419976   5.518   7.178   4.984 -0.0482 -0.0283 -0.0705
  176SLPC  H14R19977   5.436   7.179   5.060  0.1291  1.6312  0.1410
  176SLPC  H14S19978   5.594   7.099   5.002  1.6768  0.8523 -2.9154
  176SLPC  C21519979   5.444   7.149   4.850  0.8028  0.0127 -0.0982
  176SLPC  H15R19980   5.389   7.052   4.852  0.3942  0.2510  2.1707
  176SLPC  H15S19981   5.516   7.150   4.765  2.4873  0.1803  1.2790
  176SLPC  C21619982   5.337   7.253   4.808 -0.1180 -0.1097 -0.4250
  176SLPC  H16R19983   5.389   7.337   4.756  0.4865 -0.0267  0.2943
  176SLPC  H16S19984   5.284   7.292   4.897  0.2404 -0.2699 -0.1397
  176SLPC  C21719985   5.229   7.198   4.714 -0.3960 -0.9280  0.4020
  176SLPC  H17R19986   5.158   7.128   4.761 -0.4771 -1.3365 -0.3189
  176SLPC  H17S19987   5.286   7.132   4.645  0.0391 -1.4468  1.2396
  176SLPC  C21819988   5.165   7.313   4.629  0.3453 -0.2254 -0.6584
  176SLPC  H18R19989   5.124   7.271   4.534  0.1146 -1.4070 -0.0584
  176SLPC  H18S19990   5.240   7.389   4.597 -0.3943  0.6121 -0.4490
  176SLPC  H18T19991   5.079   7.368   4.674  1.9922 -0.2542  2.8103
  176SLPC   C3319992   5.738   7.176   6.109  1.1600  0.0412 -0.5414
  176SLPC   H3X19993   5.814   7.219   6.177  0.3630  1.2918 -0.4147
  176SLPC   H3Y19994   5.680   7.258   6.060 -1.6613 -1.1602  0.5690
  176SLPC   C3419995   5.813   7.083   6.008  0.0256  0.7846  0.3327
  176SLPC   H4X19996   5.747   7.054   5.923  0.2441 -2.0402  1.0227
  176SLPC   H4Y19997   5.849   7.004   6.077 -1.2551  1.9536  2.4503
  176SLPC   C3519998   5.933   7.150   5.948  0.1400  0.0843 -0.2279
  176SLPC   H5X19999   6.006   7.162   6.031  0.0416 -0.6046 -0.0339
  176SLPC   H5Y20000   5.910   7.247   5.901  1.0634  0.4801  0.0965
  176SLPC   C3620001   6.018   7.057   5.852 -0.7509 -0.2196 -0.3048
  176SLPC   H6X20002   6.028   6.970   5.921  1.7123  0.1029 -0.1803
  176SLPC   H6Y20003   6.123   7.090   5.835 -0.7705 -0.3028 -0.5965
  176SLPC   C3720004   5.960   7.001   5.726  0.7822  0.7254 -0.0968
  176SLPC   H7X20005   5.881   6.927   5.749  1.5778  0.1534  0.9086
  176SLPC   H7Y20006   6.040   6.940   5.678 -0.0285  0.1408 -0.7427
  176SLPC   C3820007   5.911   7.109   5.626 -0.3906  0.4049 -1.5487
  176SLPC   H8X20008   5.883   7.204   5.678 -1.1275 -1.5189  1.9336
  176SLPC   H8Y20009   5.814   7.071   5.589 -0.3004 -2.5573  0.8848
  176SLPC   C3920010   6.005   7.138   5.512  0.2187 -0.6449 -0.2053
  176SLPC   H9X20011   6.053   7.051   5.462  0.7352 -1.7453  2.0432
  176SLPC   H9Y20012   6.085   7.193   5.566 -1.3040  1.5924 -0.0939
  176SLPC  C31020013   5.940   7.241   5.410 -0.2814  0.4619  0.2780
  176SLPC  H10X20014   5.907   7.341   5.446 -0.8838  0.1382  0.6336
  176SLPC  H10Y20015   5.841   7.203   5.378  0.8109  0.1916 -3.2589
  176SLPC  C31120016   6.019   7.249   5.280  0.5174 -0.7110  0.2670
  176SLPC  H11X20017   6.115   7.194   5.292  0.5189 -0.7165  0.2289
  176SLPC  H11Y20018   6.035   7.358   5.269 -2.0663 -0.3181 -0.2281
  176SLPC  C31220019   5.943   7.226   5.145  0.4087  0.7423 -0.4115
  176SLPC  H12X20020   5.856   7.295   5.140 -1.0324 -0.8756  0.8527
  176SLPC  H12Y20021   5.890   7.129   5.159 -0.4775  1.4479  1.3869
  176SLPC  C31320022   6.023   7.232   5.014  0.1433 -0.2296  0.0001
  176SLPC  H13X20023   6.115   7.176   5.039 -1.6166 -2.2656  2.5053
  176SLPC  H13Y20024   6.042   7.339   4.993  0.9721 -0.4179 -0.2081
  176SLPC  C31420025   5.957   7.177   4.888  0.4298  0.4140  0.0579
  176SLPC  H14X20026   5.853   7.211   4.869  0.3300  0.2870  0.3777
  176SLPC  H14Y20027   5.957   7.066   4.901  1.9882  0.4743  0.7954
  176SLPC  C31520028   6.061   7.200   4.780 -0.3647 -0.1327  0.3179
  176SLPC  H15X20029   6.156   7.150   4.810 -0.8759 -0.0395  2.2405
  176SLPC  H15Y20030   6.081   7.309   4.778 -1.8426  0.1803  1.0146
  176SLPC  C31620031   6.020   7.144   4.648 -0.0867  0.5399 -0.6360
  176SLPC  H16X20032   6.058   7.039   4.651  1.0504  0.9250 -0.9138
  176SLPC  H16Y20033   6.067   7.190   4.559 -0.1642 -3.0006 -2.7184
  176SLPC  C31720034   5.864   7.129   4.617 -0.0706  0.4659 -0.5023
  176SLPC  H17X20035   5.815   7.228   4.628  0.4861  0.7850 -0.8326
  176SLPC  H17Y20036   5.818   7.059   4.689  2.1317 -0.0415  0.4943
  176SLPC  C31820037   5.834   7.078   4.473  0.0650  0.2239 -0.0707
  176SLPC  H18X20038   5.894   6.987   4.451  3.0963  1.8367  1.0590
  176SLPC  H18Y20039   5.873   7.155   4.403  2.3102 -2.2702 -1.7644
  176SLPC  H18Z20040   5.727   7.052   4.454  0.0225  0.8178 -0.6579
  177SLPC     N20041   6.458   1.630   6.357  0.0744  0.5385 -0.1043
  177SLPC   C1320042   6.565   1.711   6.288 -0.0171  0.3980 -0.8855
  177SLPC  H13A20043   6.634   1.638   6.249 -1.5188 -1.9720  0.5932
  177SLPC  H13B20044   6.534   1.785   6.216  2.4213  1.6067 -0.7873
  177SLPC  H13C20045   6.615   1.765   6.367  1.0437 -0.4453 -0.9637
  177SLPC   C1420046   6.524   1.533   6.454  0.0254 -0.0806  0.5374
  177SLPC  H14A20047   6.596   1.589   6.513  1.6140 -0.2967 -1.1006
  177SLPC  H14B20048   6.449   1.484   6.514 -0.5545 -2.9092 -2.2730
  177SLPC  H14C20049   6.580   1.461   6.398  0.0967  1.5350 -1.6101
  177SLPC   C1520050   6.402   1.545   6.245  0.3550 -0.8553 -0.0155
  177SLPC  H15A20051   6.477   1.488   6.193 -0.6865 -0.0230 -2.5737
  177SLPC  H15B20052   6.320   1.483   6.278 -1.5484 -0.2577 -3.1892
  177SLPC  H15C20053   6.352   1.612   6.176  0.5263 -0.2017  0.4769
  177SLPC   C1220054   6.352   1.721   6.421  0.0848  0.1251  0.5387
  177SLPC  H12A20055   6.400   1.798   6.479  1.2463  0.9969 -1.4907
  177SLPC  H12B20056   6.292   1.665   6.492  0.0724  0.4018  0.7511
  177SLPC   C1120057   6.248   1.792   6.334 -0.9726  0.4392  0.0164
  177SLPC  H11A20058   6.218   1.712   6.262  1.3414  0.3082 -0.8694
  177SLPC  H11B20059   6.296   1.876   6.279 -1.9715 -0.2778 -2.0953
  177SLPC     P20060   6.011   1.920   6.351 -0.0333  0.1515 -0.1647
  177SLPC   O1320061   5.904   1.901   6.444  0.0746 -0.2070 -0.7032
  177SLPC   O1420062   6.044   2.066   6.314 -0.0602 -0.3423  0.3863
  177SLPC   O1220063   6.138   1.840   6.413  0.0621 -0.3737  0.2475
  177SLPC   O1120064   5.973   1.838   6.214  0.3481  0.3139  0.1984
  177SLPC    C120065   5.932   1.900   6.095  0.2038 -0.1764 -1.7354
  177SLPC    HA20066   5.837   1.855   6.059 -0.6659  0.6659 -0.5724
  177SLPC    HB20067   5.888   1.998   6.125  1.6730 -0.3524  1.4684
  177SLPC    C220068   6.035   1.883   5.995 -0.0826 -0.5679  0.0267
  177SLPC    HS20069   6.130   1.935   6.020  0.0775 -0.8263 -0.0400
  177SLPC   O2120070   5.982   1.949   5.878  0.3891  0.3397  0.4120
  177SLPC   C2120071   6.068   1.989   5.784  0.1352 -0.0345  0.2560
  177SLPC   O2220072   6.188   1.976   5.787  0.0408  0.0378 -0.2214
  177SLPC   C2220073   5.992   2.063   5.683  1.1442  0.1909 -0.1697
  177SLPC   H2R20074   5.897   2.008   5.663  1.2875 -0.2095  0.2398
  177SLPC   H2S20075   5.986   2.167   5.722 -0.7396 -0.2453  0.8383
  177SLPC    C320076   6.051   1.728   5.958 -0.5653 -0.1583  0.2498
  177SLPC    HX20077   5.948   1.695   5.933  0.0453 -2.3686  0.4233
  177SLPC    HY20078   6.082   1.666   6.045  2.9093  2.0408  0.7678
  177SLPC   O3120079   6.135   1.710   5.844 -0.5456 -0.0415 -0.1667
  177SLPC   C3120080   6.270   1.705   5.867 -0.4501 -0.5625 -0.4304
  177SLPC   O3220081   6.317   1.707   5.977 -0.0933 -0.3812  0.1107
  177SLPC   C3220082   6.342   1.697   5.740  0.2142  0.1960  0.3419
  177SLPC   H2X20083   6.333   1.801   5.704  0.2985  0.3486  0.7660
  177SLPC   H2Y20084   6.291   1.619   5.678 -0.3449  0.0687  0.9447
  177SLPC   C2320085   6.072   2.058   5.547 -0.4147  0.0301  0.1381
  177SLPC   H3R20086   6.167   2.112   5.566  0.3769 -0.6189 -1.7337
  177SLPC   H3S20087   6.025   2.127   5.473  1.3178 -0.1056 -1.1432
  177SLPC   C2420088   6.088   1.922   5.486  0.3371  1.2841  0.0523
  177SLPC   H4R20089   5.998   1.862   5.508  0.1531  0.7237 -1.9830
  177SLPC   H4S20090   6.175   1.874   5.536 -0.2476 -0.4746 -0.5472
  177SLPC   C2520091   6.117   1.933   5.339  0.1050  0.8662 -0.0723
  177SLPC   H5R20092   6.189   2.015   5.319  0.1775  0.9100  0.3630
  177SLPC   H5S20093   6.026   1.981   5.296  1.6643  2.5318 -1.6855
  177SLPC   C2620094   6.150   1.803   5.256 -0.1102 -0.0400 -1.3432
  177SLPC   H6R20095   6.056   1.748   5.236 -0.2080 -0.9580  1.2029
  177SLPC   H6S20096   6.227   1.742   5.308 -1.2758  0.0982  0.6539
  177SLPC   C2720097   6.202   1.835   5.114 -0.0843 -0.1002  0.6394
  177SLPC   H7R20098   6.260   1.930   5.116  0.6540 -0.5264  0.0222
  177SLPC   H7S20099   6.119   1.845   5.041  1.7895  1.2942 -1.4187
  177SLPC   C2820100   6.290   1.735   5.047 -0.2973  0.2384 -0.1008
  177SLPC   H8R20101   6.368   1.699   5.117  0.1309 -0.7917 -1.0734
  177SLPC   H8S20102   6.350   1.776   4.963 -0.9466  0.3615 -0.5170
  177SLPC   C2920103   6.219   1.611   4.989 -0.5714  0.2006  1.0809
  177SLPC   H9R20104   6.173   1.549   5.068 -0.1112  0.5481  1.6310
  177SLPC  C21020105   6.198   1.583   4.855  0.6712  0.5682  0.5135
  177SLPC  H10R20106   6.149   1.490   4.823 -1.2182  1.9195 -0.6963
  177SLPC  C21120107   6.246   1.669   4.736  0.1742 -0.2943  0.5764
  177SLPC  H11R20108   6.348   1.707   4.759 -0.2566  0.5500  1.1117
  177SLPC  H11S20109   6.192   1.766   4.739  0.2850 -0.2572  1.4427
  177SLPC  C21220110   6.224   1.610   4.592 -0.5701 -0.4163 -0.0579
  177SLPC  H12R20111   6.192   1.505   4.588 -1.8346 -0.0842  0.9619
  177SLPC  C21320112   6.251   1.663   4.472 -0.2237  0.0337 -0.2803
  177SLPC  H13R20113   6.238   1.597   4.386 -0.0093 -1.9454  1.1225
  177SLPC  C21420114   6.294   1.800   4.433 -0.0374 -0.1216  1.1010
  177SLPC  H14R20115   6.400   1.807   4.400  0.3090 -1.6718  1.7970
  177SLPC  H14S20116   6.288   1.862   4.525  3.0639  2.6217 -0.3272
  177SLPC  C21520117   6.205   1.870   4.323  0.0404 -0.5584 -0.2388
  177SLPC  H15R20118   6.097   1.858   4.345 -0.1679  2.5162  0.8538
  177SLPC  H15S20119   6.223   1.816   4.228 -0.4349 -0.9268 -0.1249
  177SLPC  C21620120   6.231   2.020   4.320 -0.2704 -0.7935 -0.3837
  177SLPC  H16R20121   6.179   2.060   4.230 -2.4103 -2.6400 -0.0609
  177SLPC  H16S20122   6.340   2.041   4.320 -0.0862 -1.6843  0.8215
  177SLPC  C21720123   6.167   2.081   4.440  0.2450  0.0848  0.6596
  177SLPC  H17R20124   6.209   2.040   4.535  0.8319  0.6375  0.6510
  177SLPC  H17S20125   6.060   2.052   4.442  0.4168 -0.5582  1.1854
  177SLPC  C21820126   6.190   2.229   4.451 -0.5779 -0.2419  0.2787
  177SLPC  H18R20127   6.140   2.287   4.370  1.5546  0.3498 -0.7034
  177SLPC  H18S20128   6.299   2.241   4.430 -0.9529 -0.8785 -2.4231
  177SLPC  H18T20129   6.159   2.277   4.546 -0.0067 -1.3436  1.0336
  177SLPC   C3320130   6.487   1.641   5.751 -0.2789 -0.9563 -0.0952
  177SLPC   H3X20131   6.532   1.702   5.832 -1.7109 -1.0196  0.7803
  177SLPC   H3Y20132   6.544   1.683   5.665  0.5002  1.9354  1.6973
  177SLPC   C3420133   6.509   1.493   5.793 -0.2192 -0.1306 -0.2012
  177SLPC   H4X20134   6.465   1.480   5.894 -2.5918  0.2621 -1.1223
  177SLPC   H4Y20135   6.620   1.487   5.803 -0.2177  2.5056  3.3001
  177SLPC   C3520136   6.458   1.392   5.689 -0.3751  0.1284  0.1214
  177SLPC   H5X20137   6.347   1.391   5.699 -0.4708 -0.1969 -0.9167
  177SLPC   H5Y20138   6.508   1.302   5.730 -1.0203 -0.0739  0.4845
  177SLPC   C3620139   6.514   1.409   5.548 -0.3772  0.4563 -0.2021
  177SLPC   H6X20140   6.623   1.391   5.532 -0.2022  2.2224 -1.3458
  177SLPC   H6Y20141   6.500   1.514   5.515 -1.5723  0.2243 -0.4638
  177SLPC   C3720142   6.445   1.318   5.442 -0.6064 -0.0679 -0.3656
  177SLPC   H7X20143   6.339   1.317   5.475 -0.2035  2.5318  1.2461
  177SLPC   H7Y20144   6.498   1.221   5.435  0.2505  0.4467 -1.4577
  177SLPC   C3820145   6.446   1.378   5.296 -0.5394 -1.4962  0.7808
  177SLPC   H8X20146   6.398   1.479   5.297 -2.7158 -2.4458 -0.1160
  177SLPC   H8Y20147   6.393   1.315   5.222  1.9590 -0.8515 -1.7278
  177SLPC   C3920148   6.591   1.392   5.241  0.8480 -0.8565 -1.0244
  177SLPC   H9X20149   6.648   1.298   5.241  0.4689 -1.1843  2.0287
  177SLPC   H9Y20150   6.640   1.464   5.311  2.2190 -1.9949 -0.7827
  177SLPC  C31020151   6.598   1.448   5.097 -0.2751  0.2781 -0.2685
  177SLPC  H10X20152   6.706   1.466   5.081  0.2990 -1.6921  0.9981
  177SLPC  H10Y20153   6.544   1.544   5.090  1.4171  1.1765 -1.8620
  177SLPC  C31120154   6.548   1.345   4.989  0.5987  0.1017 -0.2061
  177SLPC  H11X20155   6.438   1.339   4.988  0.3417  2.9558  1.0791
  177SLPC  H11Y20156   6.585   1.244   5.018  0.5472  0.7298  2.2684
  177SLPC  C31220157   6.597   1.382   4.841 -0.1809  0.0627 -0.0326
  177SLPC  H12X20158   6.708   1.368   4.837  0.0907  2.1445 -1.2014
  177SLPC  H12Y20159   6.575   1.482   4.799  1.6600 -0.2654 -1.9774
  177SLPC  C31320160   6.534   1.285   4.743 -0.3858  0.7331  0.1853
  177SLPC  H13X20161   6.423   1.297   4.741 -0.3114  1.8743  1.6452
  177SLPC  H13Y20162   6.548   1.182   4.783 -1.4046  0.3512 -0.3767
  177SLPC  C31420163   6.587   1.299   4.601  0.5089 -0.2429  0.1336
  177SLPC  H14X20164   6.697   1.291   4.590  0.4715  0.7363 -1.3412
  177SLPC  H14Y20165   6.566   1.405   4.574  1.5758 -0.4300 -1.5327
  177SLPC  C31520166   6.498   1.209   4.506  0.4054 -0.5266  0.4771
  177SLPC  H15X20167   6.389   1.216   4.522  0.0481 -0.0147 -1.8523
  177SLPC  H15Y20168   6.520   1.100   4.515  1.3158 -0.3423  0.5978
  177SLPC  C31620169   6.504   1.243   4.355  0.0309  0.0761 -0.1549
  177SLPC  H16X20170   6.452   1.159   4.305  1.3526  0.1990 -1.7952
  177SLPC  H16Y20171   6.607   1.223   4.318 -0.0048  0.3627 -0.4100
  177SLPC  C31720172   6.450   1.379   4.317 -0.0166 -0.6643 -0.0134
  177SLPC  H17X20173   6.510   1.455   4.370 -3.5972  1.4215  1.3827
  177SLPC  H17Y20174   6.345   1.376   4.352  0.6068  0.7774  2.1906
  177SLPC  C31820175   6.441   1.402   4.167 -0.0340  0.1963  0.2136
  177SLPC  H18X20176   6.379   1.492   4.144 -0.8281 -0.6626 -1.1653
  177SLPC  H18Y20177   6.399   1.306   4.128  1.6621 -0.9172  1.0228
  177SLPC  H18Z20178   6.544   1.413   4.127 -0.0907  0.6393  0.1856
  178SLPC     N20179   2.024   6.066   6.889  0.6206  0.5908  0.2023
  178SLPC   C1320180   1.970   6.200   6.863  0.1502 -0.4118 -0.1661
  178SLPC  H13A20181   1.886   6.227   6.926 -2.3535  0.3567 -3.5508
  178SLPC  H13B20182   2.047   6.274   6.874 -0.6708  0.6453 -1.3223
  178SLPC  H13C20183   1.928   6.208   6.764 -2.1386  0.3074  0.7798
  178SLPC   C1420184   1.918   5.960   6.878 -0.5393  0.1879  0.1001
  178SLPC  H14A20185   1.960   5.861   6.883 -2.4592 -0.6453  1.0787
  178SLPC  H14B20186   1.850   5.971   6.962 -0.7841  1.2763 -0.2240
  178SLPC  H14C20187   1.858   5.979   6.790  1.6929 -2.2871 -2.1375
  178SLPC   C1520188   2.085   6.055   7.020 -0.0232  0.1775 -0.1277
  178SLPC  H15A20189   2.168   6.123   7.027  0.3190 -0.2083 -0.3879
  178SLPC  H15B20190   2.020   6.100   7.093  0.1846  2.1885 -1.1281
  178SLPC  H15C20191   2.107   5.952   7.045  1.6195  0.1603 -1.4491
  178SLPC   C1220192   2.133   6.028   6.791 -0.4934  0.3914 -0.0659
  178SLPC  H12A20193   2.101   6.073   6.698 -0.1874  1.2858  0.2535
  178SLPC  H12B20194   2.131   5.923   6.766 -0.5112  0.5697 -0.8522
  178SLPC   C1120195   2.276   6.086   6.825 -0.6160 -0.0273  1.1523
  178SLPC  H11A20196   2.347   6.059   6.745 -1.7889  1.5213 -0.4880
  178SLPC  H11B20197   2.329   6.041   6.912  1.8905  0.6257  0.0414
  178SLPC     P20198   2.390   6.322   6.764  0.0471  0.0779 -0.0387
  178SLPC   O1320199   2.340   6.453   6.728 -0.0867 -0.1570  0.2729
  178SLPC   O1420200   2.511   6.317   6.848 -0.5779  0.5062  0.0151
  178SLPC   O1220201   2.273   6.233   6.833  0.3799  0.0600 -0.1441
  178SLPC   O1120202   2.429   6.259   6.625 -0.0001 -0.1453 -0.3393
  178SLPC    C120203   2.565   6.253   6.577 -0.1420 -0.0288  0.2188
  178SLPC    HA20204   2.598   6.349   6.533 -0.9421 -0.4920 -1.5030
  178SLPC    HB20205   2.622   6.220   6.667 -0.7865  0.6274  0.8861
  178SLPC    C220206   2.580   6.156   6.451 -0.0636  0.2526 -0.3092
  178SLPC    HS20207   2.686   6.135   6.428  0.0172 -0.8357  0.9654
  178SLPC   O2120208   2.527   6.199   6.321 -0.0737 -0.1820  0.5145
  178SLPC   C2120209   2.588   6.288   6.256  0.0599 -0.5952  0.1728
  178SLPC   O2220210   2.683   6.353   6.290 -0.0718 -0.3544  0.5163
  178SLPC   C2220211   2.524   6.318   6.124 -0.3110  0.0198  0.2936
  178SLPC   H2R20212   2.415   6.333   6.139 -0.4121 -0.7572  0.3426
  178SLPC   H2S20213   2.574   6.406   6.077 -0.8467 -0.2759 -0.8654
  178SLPC    C320214   2.513   6.019   6.493 -0.0609 -0.6886 -0.2666
  178SLPC    HX20215   2.419   6.046   6.546 -1.4264 -1.7850 -2.0148
  178SLPC    HY20216   2.587   5.982   6.567 -1.8167 -1.9620  0.9417
  178SLPC   O3120217   2.490   5.924   6.393  0.5270 -0.1078  0.2751
  178SLPC   C3120218   2.390   5.950   6.316 -0.0567 -0.0924 -0.1392
  178SLPC   O3220219   2.309   6.038   6.337 -0.3432 -0.3339 -0.0095
  178SLPC   C3220220   2.396   5.855   6.191  0.1447 -0.8358  0.1877
  178SLPC   H2X20221   2.375   5.757   6.240  0.6282 -0.9984  0.0656
  178SLPC   H2Y20222   2.500   5.857   6.152  1.2692 -2.2115  2.8547
  178SLPC   C2320223   2.537   6.200   6.025  0.0061 -0.1078 -0.0957
  178SLPC   H3R20224   2.475   6.115   6.061  1.8284 -1.1398  0.7247
  178SLPC   H3S20225   2.638   6.159   6.003 -0.1769 -1.1344  0.8750
  178SLPC   C2420226   2.469   6.235   5.890  0.5956 -0.2232  0.5897
  178SLPC   H4R20227   2.499   6.335   5.852 -1.6522 -0.2148 -1.3175
  178SLPC   H4S20228   2.359   6.232   5.906  0.0552  2.8598 -1.6792
  178SLPC   C2520229   2.496   6.138   5.778  0.3187  0.5555  0.1215
  178SLPC   H5R20230   2.440   6.042   5.783  0.4186  0.3775 -1.6361
  178SLPC   H5S20231   2.605   6.116   5.783  0.4951  1.2888 -0.2269
  178SLPC   C2620232   2.484   6.206   5.634 -0.3486  0.0724  0.3850
  178SLPC   H6R20233   2.565   6.282   5.642  0.2497 -0.6406  1.2648
  178SLPC   H6S20234   2.385   6.253   5.612  0.5060  1.1196 -1.5534
  178SLPC   C2720235   2.511   6.110   5.511  0.3016 -0.1236  0.4442
  178SLPC   H7R20236   2.575   6.028   5.551  0.2717 -0.5596 -0.3955
  178SLPC   H7S20237   2.565   6.163   5.430 -1.2176  1.6152  0.5121
  178SLPC   C2820238   2.382   6.049   5.467  0.1124  0.3796  0.5126
  178SLPC   H8R20239   2.325   6.121   5.406 -0.9861 -0.4906  0.4801
  178SLPC   H8S20240   2.320   6.032   5.558 -1.1614 -0.8345 -0.5351
  178SLPC   C2920241   2.412   5.924   5.386 -0.6013  0.4731  0.4551
  178SLPC   H9R20242   2.454   5.840   5.445 -1.2949  0.3166  0.7440
  178SLPC  C21020243   2.373   5.895   5.258 -0.0681 -0.4265 -0.7537
  178SLPC  H10R20244   2.406   5.799   5.217 -1.1923 -1.0407 -0.2760
  178SLPC  C21120245   2.300   5.984   5.164 -0.4201 -0.0923  0.4636
  178SLPC  H11R20246   2.259   6.081   5.198  1.8519  0.6864  1.1679
  178SLPC  H11S20247   2.215   5.924   5.124 -0.2557 -0.6339  0.9037
  178SLPC  C21220248   2.396   6.021   5.062 -0.3997  0.6501  0.8762
  178SLPC  H12R20249   2.491   6.062   5.099 -0.0820  1.2874 -0.5725
  178SLPC  C21320250   2.379   5.999   4.921 -0.1440  0.3619  0.4022
  178SLPC  H13R20251   2.461   6.016   4.850  0.8703 -2.7098  0.7168
  178SLPC  C21420252   2.268   5.934   4.854  0.6191 -0.0620  0.1625
  178SLPC  H14R20253   2.184   5.918   4.925 -1.6913  2.2518 -1.8456
  178SLPC  H14S20254   2.297   5.834   4.816 -1.2002  0.1863 -2.0740
  178SLPC  C21520255   2.218   6.013   4.731 -0.1122 -0.3208  0.2324
  178SLPC  H15R20256   2.179   6.111   4.766  2.2494  0.8225 -0.1916
  178SLPC  H15S20257   2.129   5.953   4.700 -0.3415 -0.6705  1.5096
  178SLPC  C21620258   2.317   6.036   4.612 -0.0919  0.4249  0.7374
  178SLPC  H16R20259   2.263   6.017   4.516  1.7107  2.1921 -0.7039
  178SLPC  H16S20260   2.401   5.964   4.620 -0.7416 -0.2871  1.3459
  178SLPC  C21720261   2.369   6.178   4.602 -0.1633  0.5129 -0.5442
  178SLPC  H17R20262   2.427   6.190   4.696  1.2815 -2.5237 -0.9229
  178SLPC  H17S20263   2.288   6.253   4.594 -0.4271  0.1499 -1.3698
  178SLPC  C21820264   2.456   6.206   4.488 -0.1963 -0.5049  0.1294
  178SLPC  H18R20265   2.533   6.126   4.478  1.1478  0.4182  2.3567
  178SLPC  H18S20266   2.495   6.309   4.469 -0.2560 -0.7643 -1.5433
  178SLPC  H18T20267   2.403   6.179   4.394  2.8035 -0.1901 -1.7889
  178SLPC   C3320268   2.285   5.890   6.087 -0.4777  0.8692 -0.2638
  178SLPC   H3X20269   2.284   5.997   6.055 -1.9395  0.6369 -1.1188
  178SLPC   H3Y20270   2.188   5.875   6.140 -0.2272  1.3334  0.3386
  178SLPC   C3420271   2.291   5.800   5.964 -0.4697 -0.0543  0.1889
  178SLPC   H4X20272   2.281   5.695   6.001 -2.1494  1.0708  3.3470
  178SLPC   H4Y20273   2.384   5.810   5.905 -0.9740  0.8997 -0.4715
  178SLPC   C3520274   2.178   5.845   5.862 -0.7678 -0.0662 -0.1693
  178SLPC   H5X20275   2.183   5.954   5.842 -2.9038 -0.0324 -0.8335
  178SLPC   H5Y20276   2.075   5.829   5.901 -0.6164  2.0900  1.3192
  178SLPC   C3620277   2.171   5.764   5.734 -0.0435  0.6320  0.9471
  178SLPC   H6X20278   2.175   5.654   5.750 -0.6448  0.8162  2.5885
  178SLPC   H6Y20279   2.267   5.786   5.682  0.2574 -2.6275 -0.1005
  178SLPC   C3720280   2.044   5.785   5.659  1.0419 -0.2045  0.5446
  178SLPC   H7X20281   1.966   5.805   5.736  1.0483  1.0240  0.2645
  178SLPC   H7Y20282   2.020   5.688   5.610  2.2983 -0.5761  0.6483
  178SLPC   C3820283   2.051   5.907   5.562 -0.6111  0.1701  0.2190
  178SLPC   H8X20284   2.125   5.892   5.481 -3.1933 -1.0887 -2.0396
  178SLPC   H8Y20285   2.088   5.990   5.627 -0.9951 -0.1640  0.8740
  178SLPC   C3920286   1.921   5.933   5.483 -0.8695 -0.2940 -0.0807
  178SLPC   H9X20287   1.899   6.040   5.462  1.8377  0.5081  0.7555
  178SLPC   H9Y20288   1.834   5.902   5.544 -1.5593 -2.7006 -2.1191
  178SLPC  C31020289   1.908   5.853   5.356 -0.0498  0.5383 -0.4510
  178SLPC  H10X20290   1.899   5.745   5.381 -0.8716  0.8605  0.6788
  178SLPC  H10Y20291   1.988   5.877   5.282  0.4477 -1.2661 -0.5416
  178SLPC  C31120292   1.781   5.873   5.275  0.0360 -0.2065  0.1331
  178SLPC  H11X20293   1.745   5.977   5.293  1.7605  0.3513  0.6094
  178SLPC  H11Y20294   1.708   5.810   5.329  1.7379 -2.5599 -0.1375
  178SLPC  C31220295   1.791   5.833   5.127 -0.6104 -0.6764  0.2890
  178SLPC  H12X20296   1.836   5.914   5.066  1.9195 -1.0586  1.5344
  178SLPC  H12Y20297   1.686   5.825   5.091 -1.1399 -1.8497  1.9776
  178SLPC  C31320298   1.847   5.694   5.092 -0.1288 -0.2280  0.2583
  178SLPC  H13X20299   1.777   5.618   5.052  1.2347 -2.0878  1.2435
  178SLPC  H13Y20300   1.896   5.652   5.182  0.5434 -2.0287 -0.9013
  178SLPC  C31420301   1.961   5.705   4.992 -0.3418 -0.3290 -0.5505
  178SLPC  H14X20302   1.992   5.599   4.980 -0.2755 -0.2410 -1.1595
  178SLPC  H14Y20303   2.048   5.758   5.036 -2.2661  1.5864  1.1628
  178SLPC  C31520304   1.927   5.744   4.852  0.5313 -0.0276  0.0053
  178SLPC  H15X20305   2.020   5.745   4.791 -0.5673  1.8532 -1.7799
  178SLPC  H15Y20306   1.892   5.850   4.853 -0.9504 -0.4896  0.8780
  178SLPC  C31620307   1.822   5.651   4.789  0.3944 -0.0472 -0.1341
  178SLPC  H16X20308   1.731   5.645   4.853  0.0002  0.6306 -0.6170
  178SLPC  H16Y20309   1.877   5.554   4.789 -0.2188 -0.4067  0.3683
  178SLPC  C31720310   1.769   5.683   4.646 -0.4720 -0.3798 -0.2244
  178SLPC  H17X20311   1.854   5.704   4.579 -0.7059  0.6888 -0.1920
  178SLPC  H17Y20312   1.728   5.786   4.640 -1.8769 -0.9995 -2.2655
  178SLPC  C31820313   1.681   5.577   4.585  0.0078 -0.0374 -0.1575
  178SLPC  H18X20314   1.742   5.485   4.573 -0.7746 -0.7978  1.4611
  178SLPC  H18Y20315   1.641   5.598   4.483  1.5908 -1.0750 -1.0426
  178SLPC  H18Z20316   1.597   5.552   4.653  1.1813 -2.9287  0.3845
  179SLPC     N20317   1.670   1.441   1.981 -1.0665 -0.3158 -0.1033
  179SLPC   C1320318   1.601   1.313   2.018 -0.0936  0.1435  0.7848
  179SLPC  H13A20319   1.660   1.274   2.100  1.8375  1.8918  0.3095
  179SLPC  H13B20320   1.499   1.324   2.054 -0.5271 -1.5290  0.1435
  179SLPC  H13C20321   1.607   1.245   1.934 -0.4647  2.6278 -1.3716
  179SLPC   C1420322   1.635   1.483   1.839 -0.4342  0.0122 -0.6271
  179SLPC  H14A20323   1.693   1.420   1.774  0.3115  1.6203 -1.5959
  179SLPC  H14B20324   1.528   1.481   1.828 -0.8280  1.0270  2.1747
  179SLPC  H14C20325   1.669   1.583   1.816  0.5519 -0.4924 -1.4218
  179SLPC   C1520326   1.823   1.427   1.986 -0.5528  0.2260 -0.2567
  179SLPC  H15A20327   1.861   1.360   1.909 -1.6500 -0.3782 -0.2866
  179SLPC  H15B20328   1.874   1.522   1.984  0.7673 -0.3668  1.6381
  179SLPC  H15C20329   1.847   1.387   2.084  0.5268 -0.0091 -0.5926
  179SLPC   C1220330   1.630   1.537   2.086  0.4853 -0.0906  0.2271
  179SLPC  H12A20331   1.523   1.550   2.075 -0.0165 -0.3654  3.5126
  179SLPC  H12B20332   1.668   1.636   2.064 -0.5630  0.0585 -1.0794
  179SLPC   C1120333   1.646   1.499   2.233  0.2496 -0.4595  0.2618
  179SLPC  H11A20334   1.632   1.589   2.296 -0.6065 -0.9803  0.8241
  179SLPC  H11B20335   1.749   1.470   2.264 -0.3378 -0.9436  1.8355
  179SLPC     P20336   1.408   1.418   2.285  0.0402  0.1841  0.1131
  179SLPC   O1320337   1.357   1.487   2.163 -0.1463  0.4313 -0.1647
  179SLPC   O1420338   1.348   1.293   2.326  0.1475 -0.2900  0.0994
  179SLPC   O1220339   1.562   1.395   2.273  0.4055  0.6450  0.1007
  179SLPC   O1120340   1.411   1.518   2.401  0.4330 -0.3310 -0.2594
  179SLPC    C120341   1.487   1.482   2.516  0.2763 -0.2982 -0.8763
  179SLPC    HA20342   1.485   1.372   2.532  0.6087 -0.1584  0.2004
  179SLPC    HB20343   1.587   1.529   2.505 -0.3595  2.2907  2.7896
  179SLPC    C220344   1.424   1.538   2.650 -0.2319 -0.2237  0.5346
  179SLPC    HS20345   1.458   1.480   2.738 -1.1526  1.7335  2.2575
  179SLPC   O2120346   1.280   1.551   2.641  0.0112  0.0552 -0.1931
  179SLPC   C2120347   1.214   1.436   2.643 -0.7698 -0.6939  0.1903
  179SLPC   O2220348   1.258   1.324   2.680  0.3659 -0.3221  0.5263
  179SLPC   C2220349   1.071   1.457   2.598 -0.0926  0.8389  0.2206
  179SLPC   H2R20350   1.089   1.484   2.491  3.1042 -0.6593  0.2584
  179SLPC   H2S20351   1.010   1.364   2.604  0.4428  0.4648 -0.0138
  179SLPC    C320352   1.487   1.677   2.673  0.2945 -0.1380 -0.5446
  179SLPC    HX20353   1.471   1.734   2.579  1.1453  0.6839 -0.2034
  179SLPC    HY20354   1.598   1.670   2.679  0.3047 -2.7351 -2.3393
  179SLPC   O3120355   1.428   1.750   2.780  0.3231 -0.0101  0.2007
  179SLPC   C3120356   1.455   1.682   2.897 -0.2342 -0.4217  1.3113
  179SLPC   O3220357   1.546   1.606   2.910 -0.6579 -0.2214  0.1307
  179SLPC   C3220358   1.350   1.728   2.996  0.2216  1.1162 -0.4308
  179SLPC   H2X20359   1.251   1.678   2.981 -0.7217  1.4614  3.6104
  179SLPC   H2Y20360   1.342   1.838   2.996  1.3371  1.2100 -1.1148
  179SLPC   C2320361   1.003   1.581   2.670 -0.6474 -0.8274  0.3955
  179SLPC   H3R20362   0.916   1.616   2.610 -0.2189 -2.3201 -1.1532
  179SLPC   H3S20363   1.078   1.662   2.680  0.8880 -1.6748 -2.8139
  179SLPC   C2420364   0.943   1.539   2.806 -0.3333 -0.2221 -0.2154
  179SLPC   H4R20365   0.855   1.471   2.801 -0.9659  0.6432 -3.1869
  179SLPC   H4S20366   0.901   1.632   2.850  0.6963 -0.6581  1.7916
  179SLPC   C2520367   1.033   1.463   2.905 -0.0625  0.1721 -0.1595
  179SLPC   H5R20368   1.126   1.522   2.902 -0.8199  1.4335  0.4812
  179SLPC   H5S20369   1.047   1.357   2.873 -1.5501  0.0454 -0.4648
  179SLPC   C2620370   1.000   1.465   3.054 -0.4020  0.5944 -0.6367
  179SLPC   H6R20371   0.914   1.395   3.062 -0.3030  0.2979 -2.0214
  179SLPC   H6S20372   0.969   1.564   3.094 -2.1935 -0.8755  1.9487
  179SLPC   C2720373   1.114   1.398   3.131  0.8647  0.2841  0.1923
  179SLPC   H7R20374   1.206   1.458   3.115 -0.5073  1.9026 -2.3273
  179SLPC   H7S20375   1.119   1.291   3.101  0.4674  0.9866 -2.6778
  179SLPC   C2820376   1.093   1.394   3.285 -0.4303  0.6843  0.5579
  179SLPC   H8R20377   0.990   1.356   3.300 -0.2756  0.0889  0.1465
  179SLPC   H8S20378   1.080   1.498   3.322 -0.7415 -0.0777  2.7804
  179SLPC   C2920379   1.200   1.331   3.372  1.1915  0.1386  0.2433
  179SLPC   H9R20380   1.302   1.362   3.344  1.6724  0.1298  1.8993
  179SLPC  C21020381   1.182   1.236   3.467 -0.7501 -0.1827 -0.2191
  179SLPC  H10R20382   1.273   1.206   3.522 -1.0278 -2.2577 -0.7843
  179SLPC  C21120383   1.055   1.173   3.509 -0.8496  0.0233 -0.0861
  179SLPC  H11R20384   1.011   1.123   3.420 -0.6933  0.2482 -0.2891
  179SLPC  H11S20385   0.985   1.249   3.549 -2.6492 -2.3102  1.4830
  179SLPC  C21220386   1.096   1.057   3.607  0.3053  0.0004  0.7030
  179SLPC  H12R20387   1.104   0.957   3.562  2.2691  0.3313  0.1986
  179SLPC  C21320388   1.132   1.068   3.737  0.1481 -0.5039  1.1035
  179SLPC  H13R20389   1.184   0.984   3.784 -1.1334 -2.3347 -0.5456
  179SLPC  C21420390   1.137   1.198   3.812 -0.3215 -0.2621 -0.4246
  179SLPC  H14R20391   1.123   1.283   3.741  2.2148 -0.7284 -1.5891
  179SLPC  H14S20392   1.239   1.218   3.850 -0.3956  1.6172 -1.0761
  179SLPC  C21520393   1.038   1.206   3.928  0.3177  0.3323 -0.3761
  179SLPC  H15R20394   0.931   1.184   3.904  0.3582  2.0182 -2.4126
  179SLPC  H15S20395   1.037   1.309   3.970  0.2770  0.7569 -1.3906
  179SLPC  C21620396   1.072   1.119   4.053 -0.1068 -0.6613  0.4602
  179SLPC  H16R20397   1.171   1.147   4.096  0.0862  0.3062 -0.5740
  179SLPC  H16S20398   1.083   1.019   4.005  0.8456  1.1145 -3.3656
  179SLPC  C21720399   0.968   1.111   4.162  0.6304 -0.1415 -0.3553
  179SLPC  H17R20400   0.878   1.057   4.125  0.0978 -1.6369  2.7836
  179SLPC  H17S20401   0.929   1.210   4.191  3.1375  1.1812 -1.2178
  179SLPC  C21820402   1.005   1.032   4.286  0.3322  0.5499  0.3970
  179SLPC  H18R20403   1.093   1.078   4.336  0.1879 -0.2001  1.3785
  179SLPC  H18S20404   1.043   0.933   4.253 -1.9456  0.3557 -1.9046
  179SLPC  H18T20405   0.927   1.011   4.362 -2.6917  2.3752 -1.9755
  179SLPC   C3320406   1.386   1.678   3.136 -0.1614  0.2045 -1.1265
  179SLPC   H3X20407   1.486   1.720   3.159  0.1015  0.5003 -2.7203
  179SLPC   H3Y20408   1.381   1.567   3.145  1.3822  0.2484  1.1391
  179SLPC   C3420409   1.293   1.741   3.251 -0.8084  0.2002  0.2059
  179SLPC   H4X20410   1.187   1.716   3.228 -0.5686  0.3413 -1.1283
  179SLPC   H4Y20411   1.312   1.850   3.245  1.0872 -0.1196 -0.1761
  179SLPC   C3520412   1.332   1.690   3.388  0.1898 -0.1412  0.1046
  179SLPC   H5X20413   1.359   1.583   3.379  3.0749  0.6980 -3.2326
  179SLPC   H5Y20414   1.427   1.737   3.421  1.9398 -1.6532 -2.4145
  179SLPC   C3620415   1.224   1.715   3.493  0.2419 -0.1336 -0.0690
  179SLPC   H6X20416   1.149   1.639   3.467 -0.7108  0.7279  0.1015
  179SLPC   H6Y20417   1.175   1.814   3.480 -0.9745 -0.7270 -0.0856
  179SLPC   C3720418   1.272   1.693   3.636  0.4170 -0.4738 -0.1706
  179SLPC   H7X20419   1.270   1.791   3.688 -2.3346 -1.0520  0.9935
  179SLPC   H7Y20420   1.376   1.654   3.641  0.2961 -0.7010  1.0584
  179SLPC   C3820421   1.191   1.583   3.715  0.7554 -0.3223  0.0848
  179SLPC   H8X20422   1.239   1.548   3.809 -1.2007 -2.4698  0.3698
  179SLPC   H8Y20423   1.176   1.494   3.651  0.5836 -0.6663  0.5986
  179SLPC   C3920424   1.057   1.634   3.765  0.1322  0.5628  0.1671
  179SLPC   H9X20425   1.007   1.562   3.833 -1.3216  0.9113 -0.4853
  179SLPC   H9Y20426   0.985   1.655   3.683 -0.4857 -0.9132  0.2975
  179SLPC  C31020427   1.089   1.760   3.851  0.0607  0.1133 -0.1008
  179SLPC  H10X20428   1.109   1.851   3.790 -1.9087  1.8153  1.6434
  179SLPC  H10Y20429   1.180   1.738   3.911  0.2577  1.8658  0.3023
  179SLPC  C31120430   0.977   1.793   3.943 -0.3419 -0.4372 -0.0862
  179SLPC  H11X20431   0.889   1.822   3.882  0.1991 -0.5289 -0.9298
  179SLPC  H11Y20432   1.009   1.879   4.005  1.6663 -1.5771  0.5290
  179SLPC  C31220433   0.923   1.690   4.045 -0.3836  0.2197 -0.4720
  179SLPC  H12X20434   0.889   1.598   3.993 -0.3277 -1.1385  1.7218
  179SLPC  H12Y20435   0.835   1.729   4.100  0.0011  1.2734 -0.5782
  179SLPC  C31320436   1.030   1.647   4.153  0.2102 -0.5184  0.5007
  179SLPC  H13X20437   1.059   1.730   4.221  0.1167 -0.3044  0.2815
  179SLPC  H13Y20438   1.128   1.627   4.106  1.1104  1.1200  1.5766
  179SLPC  C31420439   0.975   1.528   4.234 -0.2053 -0.0823  0.6379
  179SLPC  H14X20440   0.969   1.438   4.168  0.3106 -0.0795  0.5831
  179SLPC  H14Y20441   0.873   1.548   4.272 -0.6132 -0.6064 -0.1572
  179SLPC  C31520442   1.071   1.497   4.350 -0.5974 -0.6498 -0.0711
  179SLPC  H15X20443   1.079   1.579   4.425 -1.5466 -2.2354  1.8680
  179SLPC  H15Y20444   1.172   1.485   4.305  0.5165  0.1771  2.0552
  179SLPC  C31620445   1.043   1.376   4.429  0.4233  0.8092  0.1462
  179SLPC  H16X20446   1.018   1.286   4.370  1.8250 -0.0163  0.7680
  179SLPC  H16Y20447   0.950   1.391   4.488  0.4226  0.5371  0.2140
  179SLPC  C31720448   1.159   1.345   4.524  0.3933  0.5980  0.1937
  179SLPC  H17X20449   1.205   1.434   4.573  0.8011  1.1028 -1.0580
  179SLPC  H17Y20450   1.241   1.301   4.464  0.0916  0.2789  0.0164
  179SLPC  C31820451   1.117   1.245   4.632 -0.3991  0.0559  0.2613
  179SLPC  H18X20452   1.034   1.288   4.691 -2.0453  0.0792 -1.9158
  179SLPC  H18Y20453   1.205   1.214   4.691 -0.0949  0.5089  0.0525
  179SLPC  H18Z20454   1.086   1.150   4.584  0.5388 -0.5538  0.8429
  180SLPC     N20455   6.340   5.586   2.246 -0.1112  0.5427  0.1398
  180SLPC   C1320456   6.299   5.564   2.107  0.1540 -0.2777 -0.0563
  180SLPC  H13A20457   6.291   5.457   2.095  1.7917 -0.7635  2.4215
  180SLPC  H13B20458   6.195   5.592   2.093  0.2258  0.3797  0.6652
  180SLPC  H13C20459   6.358   5.616   2.033  0.3524 -0.4444 -0.0150
  180SLPC   C1420460   6.470   5.506   2.272 -0.1101 -0.2537  0.1047
  180SLPC  H14A20461   6.496   5.506   2.377  1.0929 -1.6303 -0.1550
  180SLPC  H14B20462   6.457   5.402   2.246 -2.7473  0.2709 -0.9537
  180SLPC  H14C20463   6.550   5.541   2.208 -0.8163  0.0353 -0.6351
  180SLPC   C1520464   6.234   5.527   2.324  0.5503  0.4945  0.1125
  180SLPC  H15A20465   6.228   5.419   2.322  1.4683  0.4405  0.0686
  180SLPC  H15B20466   6.239   5.561   2.426 -0.0595 -2.0166  1.0627
  180SLPC  H15C20467   6.133   5.560   2.304  0.1497 -0.2175  0.8791
  180SLPC   C1220468   6.355   5.734   2.279 -0.6303  0.5852 -0.3195
  180SLPC  H12A20469   6.437   5.765   2.216  0.1129 -2.4400 -0.9961
  180SLPC  H12B20470   6.381   5.744   2.384 -0.6406  0.7652 -0.3338
  180SLPC   C1120471   6.242   5.837   2.270 -0.4331 -0.1452  0.3295
  180SLPC  H11A20472   6.207   5.830   2.165  1.2973 -1.3968 -0.2049
  180SLPC  H11B20473   6.283   5.938   2.290  1.0856 -0.8842  1.0575
  180SLPC     P20474   6.145   5.825   2.515 -0.3625  0.5392  0.1534
  180SLPC   O1320475   6.018   5.809   2.580  0.2561  0.3753  0.2023
  180SLPC   O1420476   6.254   5.732   2.554  1.1585 -0.4447  0.1828
  180SLPC   O1220477   6.126   5.810   2.359  0.6748  0.5028  0.7910
  180SLPC   O1120478   6.192   5.974   2.530 -0.1791  0.0993  0.4862
  180SLPC    C120479   6.123   6.073   2.445  0.6061 -0.2357 -0.3983
  180SLPC    HA20480   6.166   6.092   2.344  2.7959  1.1540  0.7029
  180SLPC    HB20481   6.013   6.059   2.441  0.1266  2.9954 -2.1941
  180SLPC    C220482   6.128   6.218   2.501  0.0728  0.3179 -0.0455
  180SLPC    HS20483   6.208   6.275   2.450 -2.1640  1.7428 -2.2464
  180SLPC   O2120484   6.142   6.206   2.645 -0.2904  0.1809 -0.7435
  180SLPC   C2120485   6.238   6.277   2.705 -0.5713  0.9690 -0.9694
  180SLPC   O2220486   6.320   6.351   2.648  0.2378  0.0411  0.3543
  180SLPC   C2220487   6.222   6.262   2.857 -0.1270 -0.3508 -0.1212
  180SLPC   H2R20488   6.112   6.259   2.871 -0.4558  0.9343 -2.0995
  180SLPC   H2S20489   6.253   6.157   2.877 -2.3455 -0.7094  1.8674
  180SLPC    C320490   6.003   6.301   2.451  0.2429  0.1239  0.8990
  180SLPC    HX20491   5.905   6.258   2.481  0.1937 -0.6764 -0.3434
  180SLPC    HY20492   5.995   6.273   2.344 -0.9700 -2.3078  1.5536
  180SLPC   O3120493   6.010   6.441   2.475  0.1805  0.6899 -0.1951
  180SLPC   C3120494   5.975   6.463   2.602 -0.4030 -0.2471 -0.6428
  180SLPC   O3220495   5.926   6.382   2.681  0.4141  0.0650 -0.1131
  180SLPC   C3220496   6.034   6.598   2.635 -0.5262 -0.0393 -0.4314
  180SLPC   H2X20497   5.974   6.673   2.579 -0.5739  0.3360  0.1141
  180SLPC   H2Y20498   6.133   6.615   2.587 -0.7513  1.9138 -0.2519
  180SLPC   C2320499   6.285   6.361   2.952 -0.3006  0.1420 -0.1249
  180SLPC   H3R20500   6.309   6.458   2.905 -0.3413 -0.0924 -0.6412
  180SLPC   H3S20501   6.381   6.318   2.987  1.3174  2.6846 -1.1925
  180SLPC   C2420502   6.207   6.389   3.077  0.3858  0.3887  0.2984
  180SLPC   H4R20503   6.207   6.293   3.134  2.6650  1.1474  1.7254
  180SLPC   H4S20504   6.103   6.421   3.054  0.8960  0.7742 -1.5622
  180SLPC   C2520505   6.267   6.501   3.171  0.3452  0.3811 -0.5640
  180SLPC   H5R20506   6.184   6.568   3.203 -0.3863 -1.0197  0.5865
  180SLPC   H5S20507   6.339   6.568   3.119  1.2738  0.5949  0.9405
  180SLPC   C2620508   6.339   6.437   3.290  0.5141  0.8059  0.8279
  180SLPC   H6R20509   6.417   6.367   3.254 -0.2755  1.1585 -1.8087
  180SLPC   H6S20510   6.267   6.383   3.354 -0.7339 -0.9768 -1.9042
  180SLPC   C2720511   6.403   6.547   3.373  0.1394  0.1064  0.0273
  180SLPC   H7R20512   6.321   6.618   3.397 -0.0036 -0.0719  0.0695
  180SLPC   H7S20513   6.475   6.600   3.308  2.9177 -1.4129  1.7066
  180SLPC   C2820514   6.474   6.496   3.499 -0.0490  0.1549  0.2557
  180SLPC   H8R20515   6.536   6.577   3.544 -0.9556 -0.0229  1.8593
  180SLPC   H8S20516   6.551   6.425   3.460  1.1120  2.2254 -1.4766
  180SLPC   C2920517   6.386   6.428   3.601 -0.7432 -0.2632  0.0571
  180SLPC   H9R20518   6.325   6.344   3.565 -2.3863  0.1876  1.6225
  180SLPC  C21020519   6.387   6.446   3.735  0.1975 -0.7489 -0.4257
  180SLPC  H10R20520   6.321   6.383   3.796 -1.1881 -0.2677 -1.3890
  180SLPC  C21120521   6.471   6.550   3.816 -0.4418 -0.0501 -0.2362
  180SLPC  H11R20522   6.496   6.632   3.746  0.1006 -1.3867 -1.6544
  180SLPC  H11S20523   6.570   6.511   3.849 -0.4515  0.8994  1.0037
  180SLPC  C21220524   6.400   6.609   3.928  0.0270 -0.1655  0.0408
  180SLPC  H12R20525   6.296   6.577   3.940  0.0879 -0.1392  0.7152
  180SLPC  C21320526   6.461   6.682   4.024 -0.2361 -0.7003  0.8697
  180SLPC  H13R20527   6.396   6.716   4.106 -2.5001  0.5593 -1.3009
  180SLPC  C21420528   6.608   6.727   4.029 -0.3293 -0.0872  0.1617
  180SLPC  H14R20529   6.604   6.832   3.994 -0.5383 -0.3787 -0.7094
  180SLPC  H14S20530   6.679   6.669   3.967  0.3701 -0.4936  1.3057
  180SLPC  C21520531   6.666   6.728   4.169  0.3870 -0.0952  0.4550
  180SLPC  H15R20532   6.610   6.788   4.244 -1.6944 -1.1658 -0.1778
  180SLPC  H15S20533   6.763   6.782   4.162  0.0224  0.4272 -0.9053
  180SLPC  C21620534   6.689   6.589   4.232  0.0479  0.4481  0.3902
  180SLPC  H16R20535   6.735   6.523   4.155 -0.0133 -0.6440  1.2587
  180SLPC  H16S20536   6.595   6.530   4.228 -0.3366  0.9962  1.2131
  180SLPC  C21720537   6.728   6.587   4.374  0.0152  0.4217  0.3343
  180SLPC  H17R20538   6.630   6.597   4.425  0.2688 -0.9394  1.1152
  180SLPC  H17S20539   6.790   6.672   4.411 -2.4682  1.9329  1.3214
  180SLPC  C21820540   6.771   6.456   4.424 -1.1212  0.3487 -0.1943
  180SLPC  H18R20541   6.689   6.386   4.397 -0.9801  0.2795 -0.4429
  180SLPC  H18S20542   6.781   6.446   4.534 -3.4026 -3.1799 -0.1598
  180SLPC  H18T20543   6.863   6.412   4.382 -0.2600  0.9614  1.0056
  180SLPC   C3320544   6.033   6.626   2.782 -0.4658 -0.0104 -0.4056
  180SLPC   H3X20545   6.117   6.566   2.824  0.4596  1.5192 -0.0029
  180SLPC   H3Y20546   5.937   6.611   2.834  0.0181 -2.2366 -0.0245
  180SLPC   C3420547   6.062   6.775   2.820 -0.7224  0.4848 -0.0520
  180SLPC   H4X20548   5.979   6.841   2.787 -0.0239  1.0101 -0.7842
  180SLPC   H4Y20549   6.152   6.822   2.776 -1.2787  1.8582  0.2238
  180SLPC   C3520550   6.071   6.781   2.970 -0.4165 -0.3324 -0.3731
  180SLPC   H5X20551   6.134   6.697   3.008  1.8168  0.7650 -1.4424
  180SLPC   H5Y20552   5.978   6.755   3.025 -1.6863 -0.1288 -2.3437
  180SLPC   C3620553   6.130   6.912   3.015 -0.2101  0.0393 -0.1160
  180SLPC   H6X20554   6.067   7.001   2.995  2.1265  1.4422 -1.6312
  180SLPC   H6Y20555   6.222   6.931   2.956  0.7786 -1.0926  0.9933
  180SLPC   C3720556   6.178   6.896   3.165 -0.2070  0.0623 -0.2410
  180SLPC   H7X20557   6.246   6.810   3.181 -3.6156 -3.0121 -0.8531
  180SLPC   H7Y20558   6.092   6.881   3.234  0.4354  1.0195  0.8019
  180SLPC   C3820559   6.245   7.008   3.237 -0.9757 -0.3728 -0.0973
  180SLPC   H8X20560   6.216   7.112   3.209 -1.5582 -0.4874  0.0803
  180SLPC   H8Y20561   6.349   7.008   3.197  0.0986 -0.3526  2.4655
  180SLPC   C3920562   6.253   6.984   3.390 -0.3385  0.0828 -0.0899
  180SLPC   H9X20563   6.298   6.883   3.398 -3.4332 -1.4076 -0.3512
  180SLPC   H9Y20564   6.151   6.975   3.432  0.0585  1.1403  1.1900
  180SLPC  C31020565   6.326   7.088   3.471  0.2125  0.2583 -0.2421
  180SLPC  H10X20566   6.284   7.180   3.425 -1.6147 -0.8481 -0.8998
  180SLPC  H10Y20567   6.435   7.081   3.449  0.1720 -2.8082  0.0734
  180SLPC  C31120568   6.299   7.098   3.626 -0.1851 -0.0059  0.1125
  180SLPC  H11X20569   6.190   7.098   3.647 -0.4973  2.3100 -1.1398
  180SLPC  H11Y20570   6.338   7.198   3.653 -1.4944  0.9405 -1.3492
  180SLPC  C31220571   6.357   6.981   3.710  0.0213  0.1471  0.9469
  180SLPC  H12X20572   6.466   6.972   3.693 -0.0055 -0.6556  1.1840
  180SLPC  H12Y20573   6.305   6.891   3.671  0.1393  1.6437 -3.1350
  180SLPC  C31320574   6.337   6.999   3.860 -0.8577  0.0948 -0.5661
  180SLPC  H13X20575   6.359   7.107   3.879 -2.9783  1.7744 -5.6605
  180SLPC  H13Y20576   6.416   6.940   3.911 -0.9765 -0.2064 -0.7308
  180SLPC  C31420577   6.200   6.971   3.917 -0.0328 -0.0672  0.5521
  180SLPC  H14X20578   6.164   6.866   3.915  2.1132 -0.8774 -1.8508
  180SLPC  H14Y20579   6.127   7.025   3.853  0.4669  1.7196  1.4391
  180SLPC  C31520580   6.175   7.038   4.057  0.2937 -0.0687 -0.2316
  180SLPC  H15X20581   6.070   7.073   4.061  0.3499  0.0277  1.1059
  180SLPC  H15Y20582   6.248   7.122   4.065 -1.8473  1.7442  2.3416
  180SLPC  C31620583   6.196   6.945   4.179  0.3826 -0.6084 -0.1054
  180SLPC  H16X20584   6.213   6.997   4.275  3.1775 -1.2106 -0.1862
  180SLPC  H16Y20585   6.296   6.897   4.163  1.8093  2.0014  0.4284
  180SLPC  C31720586   6.088   6.844   4.192  0.1759  0.0918 -0.7926
  180SLPC  H17X20587   6.062   6.814   4.088  0.5265 -3.3622  0.0033
  180SLPC  H17Y20588   5.998   6.879   4.247  0.0640 -3.1278  1.3317
  180SLPC  C31820589   6.128   6.717   4.265  0.2973 -0.4851 -0.7552
  180SLPC  H18X20590   6.048   6.640   4.270 -1.2427  1.0651 -0.4931
  180SLPC  H18Y20591   6.162   6.738   4.368 -0.4096 -2.8659  0.0385
  180SLPC  H18Z20592   6.217   6.669   4.220  1.2625  2.2633 -1.9587
  181SLPC     N20593   6.383   1.474   1.909 -0.6551  0.0896 -0.2299
  181SLPC   C1320594   6.426   1.420   1.776  0.8824 -0.0836  0.6771
  181SLPC  H13A20595   6.425   1.501   1.704 -1.4874 -2.9568 -2.9036
  181SLPC  H13B20596   6.523   1.373   1.768  1.0404  0.4697 -1.1434
  181SLPC  H13C20597   6.358   1.347   1.734  2.5784 -1.0063 -0.5946
  181SLPC   C1420598   6.229   1.501   1.908 -0.9412  0.7005 -0.3735
  181SLPC  H14A20599   6.179   1.406   1.892 -1.7651  1.0428  0.1061
  181SLPC  H14B20600   6.205   1.527   2.010  0.9564  2.2237 -0.2666
  181SLPC  H14C20601   6.197   1.577   1.838 -2.6726  1.1995  0.9066
  181SLPC   C1520602   6.437   1.611   1.928  0.0354 -0.8667 -0.2388
  181SLPC  H15A20603   6.400   1.653   2.020 -0.2888 -0.1365 -0.6981
  181SLPC  H15B20604   6.544   1.625   1.939 -0.0524  2.2969 -2.3539
  181SLPC  H15C20605   6.398   1.678   1.853  0.4967  1.6563  1.6669
  181SLPC   C1220606   6.420   1.369   2.022 -0.0845 -0.3396 -0.9536
  181SLPC  H12A20607   6.522   1.339   2.003  0.3088 -1.8596  2.7720
  181SLPC  H12B20608   6.358   1.281   2.011  0.5739 -0.6151 -2.7482
  181SLPC   C1120609   6.412   1.430   2.168 -0.3764  0.3462 -0.4793
  181SLPC  H11A20610   6.494   1.503   2.186  0.1370 -0.9510  3.5053
  181SLPC  H11B20611   6.448   1.356   2.242  1.8989  1.1865 -0.6584
  181SLPC     P20612   6.162   1.360   2.230 -0.0233 -0.5004  0.0450
  181SLPC   O1320613   6.040   1.443   2.255  0.5732 -0.1668 -0.4541
  181SLPC   O1420614   6.150   1.257   2.119 -0.4728 -0.3573 -0.0953
  181SLPC   O1220615   6.282   1.473   2.205  0.1924  0.1509  0.3642
  181SLPC   O1120616   6.215   1.297   2.362  0.1845  0.1089  0.5724
  181SLPC    C120617   6.179   1.350   2.492  0.1452  0.3541 -0.3067
  181SLPC    HA20618   6.071   1.376   2.496  0.7243  2.9178  1.3291
  181SLPC    HB20619   6.197   1.273   2.569  0.9971 -2.2019 -2.9204
  181SLPC    C220620   6.250   1.485   2.523  0.3385 -0.4129  0.6335
  181SLPC    HS20621   6.231   1.550   2.434 -1.3569  0.4625  1.5867
  181SLPC   O2120622   6.393   1.472   2.532  0.0145  0.3153  0.0259
  181SLPC   C2120623   6.467   1.573   2.515 -0.6678 -0.1284  0.5421
  181SLPC   O2220624   6.433   1.686   2.482  0.3263  0.4487 -0.0723
  181SLPC   C2220625   6.611   1.539   2.547  0.2205  0.3170 -0.2515
  181SLPC   H2R20626   6.652   1.456   2.485  0.0860  0.3395 -0.3728
  181SLPC   H2S20627   6.681   1.624   2.540  2.0785 -1.2454 -2.3950
  181SLPC    C320628   6.200   1.562   2.655  0.2971  0.6928  0.0022
  181SLPC    HX20629   6.095   1.551   2.622  0.5808 -1.7440 -0.3030
  181SLPC    HY20630   6.223   1.670   2.665  0.2460  0.5809  1.5301
  181SLPC   O3120631   6.220   1.482   2.774 -0.1640 -0.6151 -0.3592
  181SLPC   C3120632   6.159   1.532   2.882 -0.0861 -0.2598  0.6078
  181SLPC   O3220633   6.085   1.630   2.882  0.0845  0.3057 -0.0066
  181SLPC   C3220634   6.189   1.442   3.002  0.9156 -0.2170  0.1225
  181SLPC   H2X20635   6.283   1.485   3.043  1.0163 -1.8679  1.7444
  181SLPC   H2Y20636   6.196   1.334   2.977  2.9999  0.2872 -1.8495
  181SLPC   C2320637   6.628   1.505   2.705  0.3917  0.8242  0.0301
  181SLPC   H3R20638   6.720   1.443   2.714 -0.0401  0.1295 -0.2923
  181SLPC   H3S20639   6.549   1.436   2.741  1.3468  0.4591  1.5114
  181SLPC   C2420640   6.631   1.632   2.796 -0.1450  0.4426  0.4101
  181SLPC   H4R20641   6.526   1.667   2.791 -0.5589 -0.8880 -1.1354
  181SLPC   H4S20642   6.698   1.707   2.749 -0.2486 -0.0517 -0.5516
  181SLPC   C2520643   6.679   1.609   2.945  0.2296  0.8721  0.2064
  181SLPC   H5R20644   6.772   1.548   2.952 -1.2355 -1.4840  0.2836
  181SLPC   H5S20645   6.596   1.554   2.995 -0.6414  2.7539  0.9164
  181SLPC   C2620646   6.691   1.733   3.031  0.5366 -0.6081  0.6695
  181SLPC   H6R20647   6.596   1.791   3.020  0.1350 -1.0721  1.5898
  181SLPC   H6S20648   6.771   1.801   2.995  0.2333 -0.2895  0.5870
  181SLPC   C2720649   6.702   1.705   3.187 -0.0822 -0.5532  0.1061
  181SLPC   H7R20650   6.767   1.618   3.211 -1.0079 -0.8250  1.7357
  181SLPC   H7S20651   6.601   1.682   3.228  0.5446 -1.0466  1.4446
  181SLPC   C2820652   6.756   1.828   3.267  0.0487 -0.3595  0.2347
  181SLPC   H8R20653   6.722   1.822   3.372  2.4643 -0.9604  1.0418
  181SLPC   H8S20654   6.705   1.915   3.220  1.6872 -1.2514 -3.6398
  181SLPC   C2920655   6.907   1.841   3.258  0.1057  0.3171 -0.3008
  181SLPC   H9R20656   6.939   1.887   3.163 -0.6585  1.0152 -0.2271
  181SLPC  C21020657   7.004   1.801   3.344  0.0399  0.4558 -0.8713
  181SLPC  H10R20658   7.110   1.826   3.330 -0.0536  1.6197  0.2915
  181SLPC  C21120659   6.978   1.737   3.479  0.4164  0.1257  0.1842
  181SLPC  H11R20660   6.873   1.700   3.482 -0.1509  1.6872  2.7035
  181SLPC  H11S20661   6.987   1.808   3.563 -1.6403  2.0724 -1.1359
  181SLPC  C21220662   7.059   1.614   3.511 -0.1470  0.2142  0.3302
  181SLPC  H12R20663   7.008   1.517   3.514 -0.2414  0.0603 -3.1847
  181SLPC  C21320664   7.182   1.615   3.563  0.0722  0.5737 -0.4817
  181SLPC  H13R20665   7.228   1.516   3.575  0.7767  1.1117  1.7018
  181SLPC  C21420666   7.271   1.732   3.590 -0.0545 -0.0897 -0.2555
  181SLPC  H14R20667   7.244   1.827   3.540 -0.7117  1.1190  2.2103
  181SLPC  H14S20668   7.366   1.695   3.547 -1.2811 -1.7931 -1.6364
  181SLPC  C21520669   7.286   1.765   3.739  0.8666 -0.1967  0.0673
  181SLPC  H15R20670   7.328   1.681   3.798  0.9825 -1.5713 -1.8687
  181SLPC  H15S20671   7.184   1.802   3.761 -0.1785 -3.1199  0.4732
  181SLPC  C21620672   7.378   1.884   3.773  0.7931 -0.4809  0.5467
  181SLPC  H16R20673   7.375   1.880   3.884 -1.0625 -0.9104  0.5273
  181SLPC  H16S20674   7.336   1.981   3.738 -0.1953  0.3239  3.5680
  181SLPC  C21720675   7.515   1.868   3.725  0.1127 -0.1746  0.2285
  181SLPC  H17R20676   7.532   1.851   3.617  2.9395 -1.8252  0.8115
  181SLPC  H17S20677   7.540   1.768   3.769  2.1455 -0.0994 -0.6179
  181SLPC  C21820678   7.620   1.969   3.768 -0.8866 -0.4430 -0.5950
  181SLPC  H18R20679   7.594   2.007   3.869  1.5331 -2.7961  1.0500
  181SLPC  H18S20680   7.626   2.047   3.689 -1.0143 -2.2443 -2.4737
  181SLPC  H18T20681   7.724   1.931   3.774  0.0159  2.0290  0.6677
  181SLPC   C3320682   6.082   1.453   3.117 -0.1484 -0.2164  0.1948
  181SLPC   H3X20683   5.988   1.408   3.079  1.7013 -1.9529 -2.7285
  181SLPC   H3Y20684   6.070   1.563   3.127 -0.6418 -0.2359 -0.1642
  181SLPC   C3420685   6.125   1.379   3.237  0.6898 -0.3236 -0.1187
  181SLPC   H4X20686   6.205   1.440   3.283 -0.1060  0.3966  0.3345
  181SLPC   H4Y20687   6.169   1.281   3.208  0.2532 -0.3648 -0.6516
  181SLPC   C3520688   6.015   1.344   3.341  0.9561 -0.1676  0.6392
  181SLPC   H5X20689   6.061   1.282   3.421  1.0474  0.1347  0.8256
  181SLPC   H5Y20690   5.926   1.293   3.297  1.1922  0.6866 -0.8777
  181SLPC   C3620691   5.961   1.474   3.411  0.2828  0.3390 -0.2230
  181SLPC   H6X20692   5.914   1.551   3.346  1.2405  1.6450  0.5891
  181SLPC   H6Y20693   6.044   1.531   3.456  0.4807 -0.2981  0.2384
  181SLPC   C3720694   5.862   1.434   3.520  1.0071 -0.0005 -0.9916
  181SLPC   H7X20695   5.917   1.384   3.603 -1.1102 -2.1686 -0.7823
  181SLPC   H7Y20696   5.790   1.355   3.489  0.0766  0.2492  0.4544
  181SLPC   C3820697   5.775   1.546   3.573  0.1328  0.2725 -0.5099
  181SLPC   H8X20698   5.705   1.572   3.491 -0.1393  1.7734  0.1732
  181SLPC   H8Y20699   5.838   1.634   3.597 -2.1097  1.9141 -0.4197
  181SLPC   C3920700   5.709   1.501   3.704  0.0318  0.2855  0.3059
  181SLPC   H9X20701   5.788   1.448   3.762  0.2337 -1.3180 -1.3648
  181SLPC   H9Y20702   5.638   1.417   3.685  0.6474  0.0299 -0.9847
  181SLPC  C31020703   5.645   1.614   3.797 -0.4608 -0.3369  0.6435
  181SLPC  H10X20704   5.596   1.688   3.730  0.6429 -0.4089 -0.2646
  181SLPC  H10Y20705   5.730   1.669   3.842  1.7789 -1.5161 -1.8822
  181SLPC  C31120706   5.551   1.564   3.907  0.6541  0.6327 -0.2107
  181SLPC  H11X20707   5.619   1.502   3.970 -0.7784  1.0818  1.8672
  181SLPC  H11Y20708   5.471   1.500   3.864 -0.2540  0.3061  1.8513
  181SLPC  C31220709   5.497   1.661   4.008 -0.9459 -0.1194 -0.4854
  181SLPC  H12X20710   5.570   1.716   4.071 -1.9618  2.1551 -1.1889
  181SLPC  H12Y20711   5.429   1.605   4.076 -3.2384  1.4383 -1.3934
  181SLPC  C31320712   5.402   1.765   3.947  0.0267  0.7532  0.0375
  181SLPC  H13X20713   5.310   1.715   3.912 -0.1993  1.2566 -0.0904
  181SLPC  H13Y20714   5.442   1.815   3.856 -1.2406  0.6637 -0.5780
  181SLPC  C31420715   5.354   1.874   4.042  0.3721 -0.2284 -0.5909
  181SLPC  H14X20716   5.439   1.944   4.055 -1.1711  1.3812  1.5406
  181SLPC  H14Y20717   5.329   1.830   4.141 -1.1942 -0.5619 -1.1143
  181SLPC  C31520718   5.248   1.957   3.978  0.1529  0.1620  0.2979
  181SLPC  H15X20719   5.152   1.904   3.998 -0.4808  1.1714 -0.0353
  181SLPC  H15Y20720   5.258   1.973   3.869 -2.2290 -3.1269 -0.5603
  181SLPC  C31620721   5.242   2.100   4.044 -0.2644  0.9313 -0.4575
  181SLPC  H16X20722   5.158   2.149   3.991 -1.4508 -2.8702 -2.4836
  181SLPC  H16Y20723   5.328   2.164   4.019  0.2444  0.8426  0.9463
  181SLPC  C31720724   5.201   2.099   4.188 -0.2909 -0.1300  0.0431
  181SLPC  H17X20725   5.267   2.030   4.244  1.2706 -0.8583 -2.5074
  181SLPC  H17Y20726   5.096   2.068   4.209 -0.1300  0.7349  2.3381
  181SLPC  C31820727   5.227   2.243   4.247  0.3184  0.3317 -0.2568
  181SLPC  H18X20728   5.197   2.242   4.354 -0.5605 -1.0423 -0.4891
  181SLPC  H18Y20729   5.183   2.331   4.196 -0.0006  0.4589  0.2328
  181SLPC  H18Z20730   5.337   2.250   4.243  0.1805  3.1148 -0.9010
  182SLPC     N20731   3.104   6.889   2.445  0.1903  0.1568 -0.0751
  182SLPC   C1320732   3.202   6.816   2.364  0.3403 -0.0794  0.5834
  182SLPC  H13A20733   3.297   6.811   2.414  0.7211  1.5306  0.0670
  182SLPC  H13B20734   3.174   6.713   2.346  0.0031  0.2651 -1.0864
  182SLPC  H13C20735   3.204   6.866   2.268  0.5008  2.9490  2.0789
  182SLPC   C1420736   2.975   6.888   2.378 -0.2712  0.9194  0.0110
  182SLPC  H14A20737   2.891   6.946   2.415 -0.2118  0.9592  0.0818
  182SLPC  H14B20738   2.987   6.906   2.272  1.7645  1.0868  0.2452
  182SLPC  H14C20739   2.930   6.789   2.372 -1.2930  1.4257 -1.2996
  182SLPC   C1520740   3.151   7.028   2.459  0.4612 -0.0663 -0.4623
  182SLPC  H15A20741   3.091   7.085   2.529  2.4165  0.1393  1.1302
  182SLPC  H15B20742   3.256   7.029   2.484  0.1808  1.4136  0.8363
  182SLPC  H15C20743   3.141   7.077   2.363  0.0622 -0.3928 -0.5861
  182SLPC   C1220744   3.091   6.818   2.587  0.3976 -0.3562  0.0816
  182SLPC  H12A20745   3.093   6.711   2.569  0.6160 -0.6363  1.6414
  182SLPC  H12B20746   2.994   6.843   2.628  0.1252 -0.3475 -0.5507
  182SLPC   C1120747   3.206   6.838   2.693  0.3537  0.2217 -0.0250
  182SLPC  H11A20748   3.175   6.805   2.794  2.1762 -2.0253 -0.1126
  182SLPC  H11B20749   3.227   6.947   2.703  2.9387 -0.1862 -0.1684
  182SLPC     P20750   3.351   6.621   2.686 -0.7455  0.2643 -0.0302
  182SLPC   O1320751   3.240   6.533   2.649 -0.4916 -0.9777  0.3357
  182SLPC   O1420752   3.486   6.580   2.651 -0.0772 -0.3105  1.1919
  182SLPC   O1220753   3.322   6.772   2.645 -0.3624  0.0834  0.5832
  182SLPC   O1120754   3.354   6.635   2.846  0.0479 -0.8723 -0.1863
  182SLPC    C120755   3.444   6.707   2.929 -0.3505  0.1860 -0.2897
  182SLPC    HA20756   3.515   6.765   2.866  0.3498  0.1283  0.4312
  182SLPC    HB20757   3.392   6.773   3.002 -1.6488  1.0939 -1.9527
  182SLPC    C220758   3.545   6.610   2.987  0.5136 -0.3030 -1.1128
  182SLPC    HS20759   3.573   6.540   2.906  1.5689 -0.8675 -0.2713
  182SLPC   O2120760   3.473   6.551   3.099 -0.2405 -0.4209 -0.0898
  182SLPC   C2120761   3.515   6.428   3.140  0.2859  0.2536  0.6524
  182SLPC   O2220762   3.610   6.367   3.091 -0.5477 -0.6790 -0.0433
  182SLPC   C2220763   3.424   6.368   3.246 -0.1684 -0.4555  0.0195
  182SLPC   H2R20764   3.340   6.438   3.264 -0.7031 -1.1065  0.0868
  182SLPC   H2S20765   3.384   6.270   3.214 -0.2412 -0.5195  0.3047
  182SLPC    C320766   3.676   6.678   3.032 -0.4218 -0.0202 -0.9314
  182SLPC    HX20767   3.728   6.718   2.942  0.1577 -2.0799 -1.5727
  182SLPC    HY20768   3.738   6.602   3.084 -0.9183 -0.5404 -1.0994
  182SLPC   O3120769   3.644   6.790   3.121 -0.0051 -0.1216  0.3767
  182SLPC   C3120770   3.740   6.862   3.170 -0.5841 -0.5678 -0.2293
  182SLPC   O3220771   3.864   6.848   3.161 -1.0994 -0.6796  0.6728
  182SLPC   C3220772   3.665   6.992   3.201  0.1273  0.4301  0.0862
  182SLPC   H2X20773   3.607   7.023   3.112  1.1245  2.3112  0.0396
  182SLPC   H2Y20774   3.740   7.073   3.214  0.3711  0.2076  0.0729
  182SLPC   C2320775   3.500   6.343   3.373 -0.0727 -0.0599 -0.4184
  182SLPC   H3R20776   3.592   6.282   3.359  0.7782  1.2986 -0.9008
  182SLPC   H3S20777   3.428   6.275   3.424 -0.8121 -1.0122 -2.6169
  182SLPC   C2420778   3.526   6.462   3.465 -0.2293 -0.1052  0.5139
  182SLPC   H4R20779   3.433   6.522   3.457 -0.5909 -0.5322  1.3407
  182SLPC   H4S20780   3.613   6.525   3.436 -0.9049  2.6327  3.7050
  182SLPC   C2520781   3.546   6.419   3.608  0.0142 -0.6931 -1.0566
  182SLPC   H5R20782   3.638   6.357   3.613  0.1429 -0.4483 -0.2522
  182SLPC   H5S20783   3.464   6.359   3.651 -0.4362  1.0569  0.6785
  182SLPC   C2620784   3.578   6.541   3.691  0.7121  0.1658 -0.7002
  182SLPC   H6R20785   3.488   6.605   3.708 -0.0218 -0.9752 -0.2126
  182SLPC   H6S20786   3.656   6.601   3.640  2.4432  0.4417  2.0368
  182SLPC   C2720787   3.645   6.495   3.817 -1.0122  0.3477 -1.1258
  182SLPC   H7R20788   3.716   6.573   3.853 -0.6999 -0.6583  0.5450
  182SLPC   H7S20789   3.707   6.404   3.807 -1.3098  0.2335 -1.9438
  182SLPC   C2820790   3.541   6.456   3.928  0.4749  0.4558 -0.5260
  182SLPC   H8R20791   3.482   6.372   3.887 -3.0669  2.3206  0.3516
  182SLPC   H8S20792   3.469   6.540   3.929 -1.5148 -1.1688  0.6051
  182SLPC   C2920793   3.612   6.424   4.060  0.4562 -0.3916  0.2440
  182SLPC   H9R20794   3.677   6.505   4.095 -1.1586  0.7724  0.6265
  182SLPC  C21020795   3.589   6.310   4.130  0.4929  0.7695  0.4548
  182SLPC  H10R20796   3.650   6.295   4.220  0.1857 -0.6795  0.4531
  182SLPC  C21120797   3.492   6.202   4.084 -0.9814 -0.1233  0.2349
  182SLPC  H11R20798   3.508   6.125   4.163  0.7918 -0.3614 -0.3005
  182SLPC  H11S20799   3.519   6.140   3.996 -1.9629  0.3770 -0.4352
  182SLPC  C21220800   3.349   6.240   4.101  0.2843 -0.1157  0.4513
  182SLPC  H12R20801   3.337   6.277   4.204 -0.2063  0.7202  0.1013
  182SLPC  C21320802   3.242   6.226   4.026  0.5141 -0.2959  0.2989
  182SLPC  H13R20803   3.142   6.260   4.057  0.0020 -1.0024 -0.5057
  182SLPC  C21420804   3.242   6.165   3.887  0.5404 -0.0143  0.5711
  182SLPC  H14R20805   3.192   6.066   3.885  1.1490 -0.3256 -0.7120
  182SLPC  H14S20806   3.343   6.134   3.854  0.7655  0.2589  0.9987
  182SLPC  C21520807   3.194   6.256   3.780  0.4542 -0.5404  0.0241
  182SLPC  H15R20808   3.262   6.344   3.779  1.2942 -1.1140  2.0179
  182SLPC  H15S20809   3.090   6.294   3.793  0.3486 -0.4690 -0.9716
  182SLPC  C21620810   3.197   6.201   3.638 -0.1934  0.9776 -0.5573
  182SLPC  H16R20811   3.156   6.098   3.634 -1.4333  1.3379  1.6568
  182SLPC  H16S20812   3.306   6.203   3.614  0.0239 -1.1897  0.0577
  182SLPC  C21720813   3.118   6.290   3.536 -0.1082 -0.3619  0.4474
  182SLPC  H17R20814   3.168   6.390   3.536  3.4935 -1.9881  1.7453
  182SLPC  H17S20815   3.016   6.290   3.580 -0.1678  0.8580  0.3572
  182SLPC  C21820816   3.120   6.242   3.396  0.3421 -0.0840 -0.5996
  182SLPC  H18R20817   3.062   6.320   3.342  0.5581  0.0040 -0.7059
  182SLPC  H18S20818   3.048   6.157   3.391  0.3116 -0.1314  0.4787
  182SLPC  H18T20819   3.222   6.229   3.354  0.6822 -0.8036  0.4063
  182SLPC   C3320820   3.575   6.993   3.326 -0.2698 -0.5509 -0.2026
  182SLPC   H3X20821   3.507   6.907   3.309 -0.8963 -0.4627  1.6887
  182SLPC   H3Y20822   3.512   7.084   3.322 -0.3455 -0.5905  0.1129
  182SLPC   C3420823   3.654   6.982   3.452  0.4990 -0.1766  0.3318
  182SLPC   H4X20824   3.714   7.073   3.468 -0.7263  0.4528  1.6086
  182SLPC   H4Y20825   3.728   6.900   3.442  0.0424 -0.3797 -1.9215
  182SLPC   C3520826   3.559   6.975   3.572 -0.2494 -0.3042  0.0049
  182SLPC   H5X20827   3.482   6.896   3.555  2.1512 -2.7365 -0.2326
  182SLPC   H5Y20828   3.509   7.074   3.577  0.2536 -0.0506  0.0790
  182SLPC   C3620829   3.619   6.944   3.712  0.7569 -0.2903  0.5413
  182SLPC   H6X20830   3.645   7.042   3.759 -0.6712 -0.0807  0.9555
  182SLPC   H6Y20831   3.709   6.880   3.706  0.7768 -0.0989 -3.2608
  182SLPC   C3720832   3.509   6.895   3.807  0.5620  0.3371  0.1269
  182SLPC   H7X20833   3.494   6.785   3.808 -2.0081  0.6265  0.9484
  182SLPC   H7Y20834   3.418   6.945   3.767  0.5083  0.4046  0.3275
  182SLPC   C3820835   3.524   6.948   3.954  0.3629 -0.2678  0.1491
  182SLPC   H8X20836   3.426   6.928   4.002 -0.0856 -0.5950 -0.8803
  182SLPC   H8Y20837   3.539   7.057   3.969 -0.4707 -0.0590 -0.4696
  182SLPC   C3920838   3.634   6.879   4.033  0.0382 -0.6010 -0.4907
  182SLPC   H9X20839   3.717   6.953   4.037 -1.1496  0.8416 -1.7613
  182SLPC   H9Y20840   3.669   6.793   3.972  2.2237  0.8208 -1.3842
  182SLPC  C31020841   3.574   6.839   4.171  0.3447  1.1199  0.0998
  182SLPC  H10X20842   3.495   6.766   4.145  0.0797  0.5534  2.3039
  182SLPC  H10Y20843   3.523   6.924   4.223 -3.2765  0.8075 -2.5146
  182SLPC  C31120844   3.672   6.761   4.268  0.0414 -0.4493 -0.6102
  182SLPC  H11X20845   3.686   6.656   4.234 -2.8199 -1.2018  0.1916
  182SLPC  H11Y20846   3.634   6.753   4.372  2.9864 -1.2251  0.4830
  182SLPC  C31220847   3.814   6.824   4.285 -0.0285  0.4303 -0.2673
  182SLPC  H12X20848   3.798   6.932   4.305 -2.5666  0.2663 -1.0615
  182SLPC  H12Y20849   3.860   6.815   4.184 -0.4289 -1.7194 -0.3132
  182SLPC  C31320850   3.896   6.745   4.383  0.2098  0.1452  0.1479
  182SLPC  H13X20851   3.928   6.648   4.340  0.0985  0.5915 -0.9580
  182SLPC  H13Y20852   3.860   6.713   4.484  1.2957 -1.9956 -0.0956
  182SLPC  C31420853   4.036   6.813   4.414 -0.1645 -1.3019 -0.1523
  182SLPC  H14X20854   4.106   6.815   4.328  0.5678 -1.8007  0.4162
  182SLPC  H14Y20855   4.084   6.745   4.488 -1.0537  0.3737  2.0578
  182SLPC  C31520856   4.018   6.949   4.484 -0.1290 -0.2550  0.0909
  182SLPC  H15X20857   3.944   6.931   4.564  0.8504  1.7259  1.5334
  182SLPC  H15Y20858   3.973   7.027   4.419  0.7494  0.4979  0.3683
  182SLPC  C31620859   4.141   7.012   4.560 -0.2836  0.0124  0.6455
  182SLPC  H16X20860   4.225   7.035   4.491 -0.0846 -1.9531  0.1581
  182SLPC  H16Y20861   4.179   6.939   4.635 -0.2665  0.1220  0.7439
  182SLPC  C31720862   4.098   7.131   4.637  0.1464 -0.0025  0.1558
  182SLPC  H17X20863   4.000   7.124   4.689  0.5778 -0.7066  0.9042
  182SLPC  H17Y20864   4.104   7.227   4.581 -1.6414 -0.2566 -0.5145
  182SLPC  C31820865   4.203   7.179   4.744  0.0783 -0.7030 -0.1162
  182SLPC  H18X20866   4.208   7.106   4.828 -3.0171 -1.0368 -0.0883
  182SLPC  H18Y20867   4.180   7.276   4.793 -0.3234 -1.2926  0.9134
  182SLPC  H18Z20868   4.304   7.191   4.700  0.5171 -1.1762  0.7429
  183SLPC     N20869   5.503   2.646   2.266  0.6354 -0.1567 -0.1268
  183SLPC   C1320870   5.385   2.719   2.206  0.3545 -0.6101 -0.2540
  183SLPC  H13A20871   5.310   2.651   2.169 -0.6851  0.7835 -0.7829
  183SLPC  H13B20872   5.337   2.770   2.288 -2.0807 -1.4023 -1.0752
  183SLPC  H13C20873   5.413   2.786   2.127  0.4940 -1.1821 -0.7012
  183SLPC   C1420874   5.596   2.757   2.297  0.1016  0.3692 -0.9567
  183SLPC  H14A20875   5.675   2.730   2.366  0.1987  1.9236 -0.4234
  183SLPC  H14B20876   5.637   2.803   2.208  1.9828  0.5058 -0.0684
  183SLPC  H14C20877   5.554   2.838   2.354  1.0899 -1.3377  2.5282
  183SLPC   C1520878   5.543   2.552   2.158  0.2019 -0.0662  0.2484
  183SLPC  H15A20879   5.618   2.480   2.188 -0.7965 -1.5394 -0.6438
  183SLPC  H15B20880   5.455   2.492   2.142  0.4123 -0.7991  1.7134
  183SLPC  H15C20881   5.566   2.598   2.063 -1.2660 -0.9737 -0.5967
  183SLPC   C1220882   5.455   2.566   2.388  0.7169 -0.4649 -0.6975
  183SLPC  H12A20883   5.374   2.509   2.346 -0.7532  1.1628 -0.1959
  183SLPC  H12B20884   5.400   2.643   2.440  0.8129  0.2400 -1.6233
  183SLPC   C1120885   5.541   2.472   2.469  0.0813  0.1121 -0.3151
  183SLPC  H11A20886   5.476   2.426   2.547 -1.3967  0.7577 -1.1375
  183SLPC  H11B20887   5.616   2.538   2.519  0.1850  1.1030 -1.7450
  183SLPC     P20888   5.529   2.237   2.361  0.1473  0.1920 -0.3430
  183SLPC   O1320889   5.424   2.265   2.266  0.1766 -0.1116  0.2547
  183SLPC   O1420890   5.630   2.131   2.321  0.3247 -0.2512  0.2150
  183SLPC   O1220891   5.616   2.377   2.389  0.1816 -0.1401  0.0170
  183SLPC   O1120892   5.470   2.188   2.498  0.0495 -0.1601 -0.4180
  183SLPC    C120893   5.529   2.094   2.587  0.4022 -0.4665 -0.0029
  183SLPC    HA20894   5.456   2.034   2.646 -1.2422  1.7465  0.3663
  183SLPC    HB20895   5.581   2.009   2.539  1.2732 -0.0060  0.1027
  183SLPC    C220896   5.608   2.167   2.699 -0.1681 -0.1182 -0.0926
  183SLPC    HS20897   5.622   2.085   2.773  1.4383 -1.9587 -2.2731
  183SLPC   O2120898   5.532   2.278   2.749  0.3590 -0.9727  0.8622
  183SLPC   C2120899   5.447   2.240   2.846  0.0529  0.3319 -0.3323
  183SLPC   O2220900   5.432   2.128   2.886 -0.6054  0.1535 -0.1705
  183SLPC   C2220901   5.374   2.368   2.887  0.6066  0.5733 -0.4231
  183SLPC   H2R20902   5.449   2.430   2.940 -1.3053  0.4879  2.6269
  183SLPC   H2S20903   5.343   2.411   2.790 -1.0231 -0.0383 -0.2118
  183SLPC    C320904   5.748   2.215   2.655 -0.0005  0.0102 -0.0157
  183SLPC    HX20905   5.724   2.311   2.605 -0.2124  0.1006  0.2555
  183SLPC    HY20906   5.793   2.144   2.582 -2.0992 -1.4949  0.0633
  183SLPC   O3120907   5.834   2.245   2.764 -0.0566 -0.7474 -0.1118
  183SLPC   C3120908   5.869   2.154   2.850 -0.1401 -0.2094  0.1182
  183SLPC   O3220909   5.862   2.033   2.833  0.3251 -0.3846 -0.5546
  183SLPC   C3220910   5.921   2.220   2.969  0.2238  0.4530 -0.6612
  183SLPC   H2X20911   6.012   2.274   2.934 -0.1675  0.4614 -1.7104
  183SLPC   H2Y20912   5.939   2.148   3.051 -1.1287 -1.7096 -2.1579
  183SLPC   C2320913   5.245   2.345   2.967 -0.0304  0.0368  0.7247
  183SLPC   H3R20914   5.261   2.290   3.062 -0.9408  0.7489  1.3081
  183SLPC   H3S20915   5.179   2.278   2.907  1.3840 -0.7491 -0.0039
  183SLPC   C2420916   5.169   2.480   2.998 -0.2705  0.0882 -0.3374
  183SLPC   H4R20917   5.070   2.461   3.046  0.4536 -1.7469  0.5384
  183SLPC   H4S20918   5.153   2.528   2.899 -0.0607  0.1920 -0.3221
  183SLPC   C2520919   5.254   2.556   3.105 -0.4396  0.6037  0.1036
  183SLPC   H5R20920   5.355   2.577   3.063 -1.2700  1.1672 -1.7105
  183SLPC   H5S20921   5.256   2.498   3.200 -0.5209 -0.6612 -0.6542
  183SLPC   C2620922   5.178   2.688   3.143  0.0294  0.2191 -0.5348
  183SLPC   H6R20923   5.078   2.649   3.174 -0.2861  1.4180  0.0269
  183SLPC   H6S20924   5.182   2.748   3.050 -0.0296 -1.0755 -1.3867
  183SLPC   C2720925   5.233   2.774   3.266  0.0140  0.3467 -0.2577
  183SLPC   H7R20926   5.317   2.835   3.226 -0.3967  1.1273  0.0684
  183SLPC   H7S20927   5.259   2.719   3.359  0.8378  0.4496 -0.4146
  183SLPC   C2820928   5.129   2.880   3.302 -0.5060  0.1908 -0.2688
  183SLPC   H8R20929   5.034   2.838   3.340 -0.0720 -0.3194  0.2664
  183SLPC   H8S20930   5.092   2.931   3.210 -1.2178  0.0858 -0.0432
  183SLPC   C2920931   5.172   2.996   3.383 -0.2549  0.3076 -0.8168
  183SLPC   H9R20932   5.168   2.979   3.492  0.2960 -0.3709 -0.8915
  183SLPC  C21020933   5.205   3.120   3.339 -0.6046 -0.1180  0.3796
  183SLPC  H10R20934   5.240   3.192   3.415 -2.8862  0.0641  1.3380
  183SLPC  C21120935   5.220   3.162   3.192  0.3110 -0.7928  0.0764
  183SLPC  H11R20936   5.287   3.084   3.148  0.3474 -0.6113 -0.1873
  183SLPC  H11S20937   5.284   3.253   3.191 -2.7779  1.5471  1.4324
  183SLPC  C21220938   5.096   3.196   3.113 -0.3851 -0.6988 -0.1596
  183SLPC  H12R20939   5.021   3.262   3.160  0.2308 -1.1786  1.6067
  183SLPC  C21320940   5.067   3.151   2.984  0.8091 -0.3454  0.0244
  183SLPC  H13R20941   4.976   3.187   2.933 -1.6093 -1.7128  2.9975
  183SLPC  C21420942   5.149   3.064   2.891 -0.2509 -0.1285  0.3314
  183SLPC  H14R20943   5.097   3.049   2.794 -0.6612 -2.5396  0.8685
  183SLPC  H14S20944   5.164   2.963   2.935  0.8775 -0.0213  0.2230
  183SLPC  C21520945   5.290   3.119   2.858  0.0506 -0.5594  0.4158
  183SLPC  H15R20946   5.379   3.059   2.885  0.2566 -0.7313 -0.6164
  183SLPC  H15S20947   5.303   3.218   2.907  1.0012 -1.1549  1.3949
  183SLPC  C21620948   5.308   3.159   2.711 -0.8409  0.2026  0.5540
  183SLPC  H16R20949   5.221   3.225   2.692  0.6396  2.9716  2.6261
  183SLPC  H16S20950   5.315   3.073   2.641  1.5880 -1.2294  2.3919
  183SLPC  C21720951   5.433   3.255   2.693 -0.0428 -0.3813 -0.4633
  183SLPC  H17R20952   5.420   3.346   2.755  2.0162  0.4522 -1.1736
  183SLPC  H17S20953   5.437   3.278   2.585 -0.0829  1.9900 -0.0108
  183SLPC  C21820954   5.574   3.192   2.739 -0.1171 -0.3879  0.1451
  183SLPC  H18R20955   5.585   3.099   2.680  0.6135  1.8808 -3.6474
  183SLPC  H18S20956   5.572   3.169   2.848 -3.0281  0.8912  0.4474
  183SLPC  H18T20957   5.660   3.261   2.723 -0.0126 -0.2779  1.0982
  183SLPC   C3320958   5.816   2.323   3.035  0.1750 -0.0156 -0.2386
  183SLPC   H3X20959   5.759   2.382   2.960  0.0613  0.8633  0.5223
  183SLPC   H3Y20960   5.877   2.400   3.087  2.3531 -2.3401  0.8867
  183SLPC   C3420961   5.722   2.251   3.137  0.0850 -0.1921 -0.8727
  183SLPC   H4X20962   5.793   2.201   3.208 -0.5553  0.7565  0.4695
  183SLPC   H4Y20963   5.661   2.180   3.078 -2.6650  1.5260 -0.2317
  183SLPC   C3520964   5.640   2.353   3.221  0.0455 -0.0662  0.0712
  183SLPC   H5X20965   5.569   2.404   3.153 -1.4926 -2.5640 -0.2994
  183SLPC   H5Y20966   5.703   2.435   3.262  1.5679 -1.4387  0.6068
  183SLPC   C3620967   5.556   2.287   3.332  0.7541 -0.4228  0.5537
  183SLPC   H6X20968   5.625   2.258   3.415  0.1347 -1.5027  0.7091
  183SLPC   H6Y20969   5.515   2.191   3.295 -0.7529 -0.4594  2.2113
  183SLPC   C3720970   5.454   2.391   3.398  0.0825  0.2278  0.0002
  183SLPC   H7X20971   5.362   2.393   3.337 -0.1665  2.6186  0.3500
  183SLPC   H7Y20972   5.502   2.492   3.402 -1.1775  0.8230  0.9130
  183SLPC   C3820973   5.418   2.351   3.545 -0.5773 -0.1211  0.3443
  183SLPC   H8X20974   5.516   2.324   3.591  0.8512 -1.6781 -3.2269
  183SLPC   H8Y20975   5.349   2.265   3.540 -1.1551  0.3663 -0.1769
  183SLPC   C3920976   5.357   2.468   3.624 -0.4712 -0.0161 -0.3288
  183SLPC   H9X20977   5.261   2.504   3.583 -1.8930 -2.2993  0.7958
  183SLPC   H9Y20978   5.427   2.555   3.619 -0.8942  0.2926 -0.9447
  183SLPC  C31020979   5.351   2.456   3.781  0.1184  0.1422  0.8447
  183SLPC  H10X20980   5.452   2.475   3.823 -0.1754 -0.3311  1.8156
  183SLPC  H10Y20981   5.327   2.351   3.809 -1.6950  0.1580 -0.4732
  183SLPC  C31120982   5.246   2.555   3.830  0.2326 -0.2225 -0.5667
  183SLPC  H11X20983   5.159   2.545   3.763 -0.6747  0.8332  0.4109
  183SLPC  H11Y20984   5.287   2.658   3.822  2.1708 -0.7306  1.6317
  183SLPC  C31220985   5.221   2.527   3.982  0.1892  0.5471 -0.1992
  183SLPC  H12X20986   5.205   2.420   4.004 -0.9983  0.8834  0.6922
  183SLPC  H12Y20987   5.132   2.585   4.015 -0.6351 -0.7263 -0.1056
  183SLPC  C31320988   5.345   2.556   4.071 -0.9034 -0.5608 -0.3591
  183SLPC  H13X20989   5.409   2.628   4.016  2.4212 -2.7721  0.3379
  183SLPC  H13Y20990   5.399   2.461   4.089  0.5754  0.6719  2.2753
  183SLPC  C31420991   5.309   2.621   4.208  0.6809 -0.1290  0.1341
  183SLPC  H14X20992   5.242   2.556   4.268 -2.5813  3.2702  0.5451
  183SLPC  H14Y20993   5.244   2.707   4.183 -1.1841 -1.3665  0.5390
  183SLPC  C31520994   5.431   2.656   4.296  0.4235  0.6326  0.5443
  183SLPC  H15X20995   5.403   2.705   4.391 -1.2306  0.0132  0.3942
  183SLPC  H15Y20996   5.498   2.729   4.245  0.2045  1.3177  1.2211
  183SLPC  C31620997   5.520   2.545   4.340  0.1841 -0.0394  0.0811
  183SLPC  H16X20998   5.549   2.475   4.259  0.0364 -2.2525  1.8369
  183SLPC  H16Y20999   5.462   2.473   4.402  0.8641  0.2951  1.1365
  183SLPC  C31721000   5.640   2.583   4.431 -0.2679  0.3148 -0.3096
  183SLPC  H17X21001   5.601   2.635   4.521  0.7315  0.5436  0.0006
  183SLPC  H17Y21002   5.702   2.662   4.383  0.5301  0.6410  1.1604
  183SLPC  C31821003   5.720   2.464   4.480 -0.2833 -0.7014 -0.1037
  183SLPC  H18X21004   5.753   2.400   4.395 -0.6201 -1.7068  0.5080
  183SLPC  H18Y21005   5.649   2.408   4.544 -0.4363  0.2996  0.6215
  183SLPC  H18Z21006   5.808   2.490   4.542  0.3503 -2.1151 -0.3786
  184SLPC     N21007   3.755   4.085   1.768  0.7930 -0.1791 -0.5269
  184SLPC   C1321008   3.663   4.052   1.658  0.6804 -0.4407  0.3765
  184SLPC  H13A21009   3.567   4.027   1.702  0.9935  0.4080  1.6231
  184SLPC  H13B21010   3.649   4.131   1.585 -2.9596  0.7499  2.1111
  184SLPC  H13C21011   3.708   3.972   1.602  2.0586 -0.3717  1.3350
  184SLPC   C1421012   3.722   4.219   1.833 -0.4747  0.7827 -0.8663
  184SLPC  H14A21013   3.713   4.302   1.765 -0.7913 -1.2694 -3.4981
  184SLPC  H14B21014   3.631   4.219   1.891 -0.7195  0.3673 -1.2479
  184SLPC  H14C21015   3.799   4.231   1.908  0.2441 -3.7393 -0.5905
  184SLPC   C1521016   3.885   4.093   1.687 -0.1781 -0.1365 -0.6395
  184SLPC  H15A21017   3.904   3.997   1.642  0.0147 -0.6485  0.4971
  184SLPC  H15B21018   3.874   4.167   1.610  1.3356  0.8242  0.0330
  184SLPC  H15C21019   3.971   4.123   1.744  0.3156  0.0524 -1.4711
  184SLPC   C1221020   3.747   3.969   1.870  0.6171 -0.0154  0.0380
  184SLPC  H12A21021   3.741   3.868   1.831  1.3314  0.2197 -0.7066
  184SLPC  H12B21022   3.647   3.981   1.907 -0.1671 -0.0426 -1.9683
  184SLPC   C1121023   3.867   3.974   1.977  0.0869  0.0544  0.1309
  184SLPC  H11A21024   3.834   3.933   2.074  1.4194 -2.9311 -0.5658
  184SLPC  H11B21025   3.892   4.079   2.003  0.2532 -0.1032  0.6179
  184SLPC     P21026   3.995   3.753   1.937  0.5185  0.0400 -0.0916
  184SLPC   O1321027   3.914   3.692   1.831 -0.6046 -0.4085 -0.4515
  184SLPC   O1421028   4.136   3.712   1.938  0.2570  0.3694 -0.4122
  184SLPC   O1221029   3.984   3.910   1.924 -0.3567  0.2896  0.7869
  184SLPC   O1121030   3.926   3.725   2.080  0.2005 -0.0924  0.6616
  184SLPC    C121031   3.998   3.766   2.200 -0.2095 -0.0161  0.2421
  184SLPC    HA21032   4.107   3.782   2.183 -0.3461  0.2355 -0.4256
  184SLPC    HB21033   3.957   3.859   2.245  0.0936  0.8103 -1.1033
  184SLPC    C221034   4.004   3.655   2.311 -0.4871  0.5504 -0.4972
  184SLPC    HS21035   4.040   3.561   2.265 -0.6192  1.2551 -2.1241
  184SLPC   O2121036   3.872   3.640   2.367  0.2749 -0.0656  0.6539
  184SLPC   C2121037   3.821   3.517   2.406 -0.4142 -0.3375  0.3735
  184SLPC   O2221038   3.873   3.411   2.372  0.0749 -0.0119 -0.0435
  184SLPC   C2221039   3.688   3.530   2.481 -0.5975 -0.3889  0.0721
  184SLPC   H2R21040   3.687   3.633   2.525  1.6983  0.2877 -1.3132
  184SLPC   H2S21041   3.610   3.532   2.402  0.6785  1.4222 -1.2078
  184SLPC    C321042   4.098   3.708   2.424  0.1937  0.3590 -0.9099
  184SLPC    HX21043   4.055   3.807   2.451  1.5296  1.1379 -1.5274
  184SLPC    HY21044   4.195   3.728   2.374  0.4981  1.0092 -0.0837
  184SLPC   O3121045   4.097   3.621   2.535  0.6482 -0.4573 -0.3050
  184SLPC   C3121046   4.175   3.509   2.521  0.4492  0.5454 -0.1069
  184SLPC   O3221047   4.259   3.497   2.437 -0.5477 -0.0156  0.3532
  184SLPC   C3221048   4.138   3.406   2.630 -0.0454  0.1795 -0.0776
  184SLPC   H2X21049   4.205   3.317   2.633 -0.0308  0.2136  1.2734
  184SLPC   H2Y21050   4.038   3.372   2.596 -1.9837  3.2085  2.0791
  184SLPC   C2321051   3.658   3.420   2.582  0.6079  0.1740 -0.2821
  184SLPC   H3R21052   3.678   3.319   2.539  0.7423  0.5803 -1.2065
  184SLPC   H3S21053   3.552   3.417   2.614  0.7839 -1.0116  0.2477
  184SLPC   C2421054   3.728   3.439   2.711 -0.1966  0.5312 -0.9686
  184SLPC   H4R21055   3.834   3.464   2.690  0.4402 -2.8822 -2.3935
  184SLPC   H4S21056   3.719   3.345   2.769 -2.7523  0.9091 -0.6266
  184SLPC   C2521057   3.658   3.543   2.804  0.2802 -0.5726 -0.7730
  184SLPC   H5R21058   3.645   3.635   2.743  1.5296  0.3191  0.2360
  184SLPC   H5S21059   3.734   3.589   2.871 -0.3033  0.8079 -1.0284
  184SLPC   C2621060   3.534   3.507   2.890  0.4307 -0.9184  0.3247
  184SLPC   H6R21061   3.563   3.420   2.954  0.3616 -0.5015  0.9263
  184SLPC   H6S21062   3.444   3.477   2.833 -0.4199 -0.4298  1.3588
  184SLPC   C2721063   3.488   3.622   2.978  0.7820 -0.7499  0.5027
  184SLPC   H7R21064   3.459   3.708   2.914 -0.9881 -1.6067  0.1079
  184SLPC   H7S21065   3.574   3.653   3.041  0.1735  0.4501  0.7800
  184SLPC   C2821066   3.378   3.572   3.083  0.0721  0.0338 -0.2824
  184SLPC   H8R21067   3.426   3.496   3.148  0.6900  0.1855 -0.5553
  184SLPC   H8S21068   3.292   3.523   3.032  1.1606 -0.3233 -1.8690
  184SLPC   C2921069   3.326   3.693   3.163 -0.1073  0.2357 -0.3574
  184SLPC   H9R21070   3.245   3.731   3.099 -0.2805 -0.8627 -0.8193
  184SLPC  C21021071   3.359   3.751   3.273  0.3617 -0.2011  0.5079
  184SLPC  H10R21072   3.304   3.838   3.311  1.5529 -0.1236  2.1600
  184SLPC  C21121073   3.466   3.700   3.362 -0.5067  0.0628 -0.4798
  184SLPC  H11R21074   3.537   3.780   3.391 -1.3663 -0.2522  2.8229
  184SLPC  H11S21075   3.534   3.624   3.316 -0.6053  0.3103 -1.0448
  184SLPC  C21221076   3.420   3.636   3.479 -0.2600  0.0963 -0.2262
  184SLPC  H12R21077   3.332   3.571   3.473  0.7972 -1.3882 -0.1278
  184SLPC  C21321078   3.482   3.634   3.597  0.1765  0.6645 -1.1217
  184SLPC  H13R21079   3.439   3.567   3.673  0.2545  2.4988  0.6177
  184SLPC  C21421080   3.610   3.700   3.647  0.6478 -0.3143  0.3335
  184SLPC  H14R21081   3.601   3.745   3.748  0.9006  0.7679 -0.1100
  184SLPC  H14S21082   3.647   3.784   3.584  2.0291 -1.6239 -0.6626
  184SLPC  C21521083   3.726   3.601   3.652  0.3768 -0.2666 -0.0860
  184SLPC  H15R21084   3.738   3.547   3.555 -0.7203 -1.2554  0.3134
  184SLPC  H15S21085   3.705   3.521   3.726  1.3862 -0.3455  0.1273
  184SLPC  C21621086   3.863   3.659   3.689  0.7432 -0.4517  0.0103
  184SLPC  H16R21087   3.837   3.708   3.786 -1.8609 -3.0509  0.7640
  184SLPC  H16S21088   3.890   3.741   3.620 -0.6642 -0.0671 -0.1137
  184SLPC  C21721089   3.972   3.551   3.697 -0.2556 -0.2675  0.2646
  184SLPC  H17R21090   4.072   3.598   3.684  0.0319 -1.1176 -0.6967
  184SLPC  H17S21091   3.949   3.481   3.614  0.0480 -0.4286  0.3140
  184SLPC  C21821092   3.983   3.475   3.834  0.7695  0.3983  0.2294
  184SLPC  H18R21093   3.887   3.428   3.865  0.9658 -1.2328 -1.4807
  184SLPC  H18S21094   4.011   3.544   3.917 -0.5963  1.3803 -0.0991
  184SLPC  H18T21095   4.066   3.401   3.827  1.5192  1.1699  0.7781
  184SLPC   C3321096   4.113   3.458   2.774  0.3089  0.5476  0.6210
  184SLPC   H3X21097   4.071   3.375   2.836 -1.4929  0.4815 -0.6108
  184SLPC   H3Y21098   4.040   3.539   2.789 -0.0205  0.3254  0.2396
  184SLPC   C3421099   4.245   3.500   2.825  0.1665 -0.3290 -1.1321
  184SLPC   H4X21100   4.221   3.564   2.914 -0.5162 -0.9309 -0.8704
  184SLPC   H4Y21101   4.301   3.558   2.749 -2.3348  1.7482 -1.5541
  184SLPC   C3521102   4.334   3.388   2.873  0.4341  0.3528 -0.5067
  184SLPC   H5X21103   4.366   3.309   2.801 -0.7713 -0.4071 -0.2419
  184SLPC   H5Y21104   4.273   3.336   2.951  1.2156  2.3983  1.5723
  184SLPC   C3621105   4.453   3.437   2.956 -0.3425  0.0458  0.2237
  184SLPC   H6X21106   4.408   3.503   3.033  0.4940  1.0768 -0.1525
  184SLPC   H6Y21107   4.521   3.508   2.905 -1.4508  2.3810  1.7976
  184SLPC   C3721108   4.536   3.324   3.012 -0.1863 -0.0231  0.0233
  184SLPC   H7X21109   4.549   3.258   2.923 -0.6789  0.2252 -0.2347
  184SLPC   H7Y21110   4.482   3.274   3.095 -2.4884 -0.1100 -1.4575
  184SLPC   C3821111   4.685   3.357   3.043 -0.3809  0.0217 -0.1774
  184SLPC   H8X21112   4.719   3.396   2.945 -0.4519  0.3324 -0.0812
  184SLPC   H8Y21113   4.728   3.259   3.073 -1.0348  0.1246  1.1675
  184SLPC   C3921114   4.722   3.460   3.153  0.1070 -0.1962  0.1378
  184SLPC   H9X21115   4.828   3.439   3.181  0.5353  1.5811 -0.0609
  184SLPC   H9Y21116   4.665   3.437   3.245  1.8638  1.2088  1.6573
  184SLPC  C31021117   4.711   3.605   3.105 -0.2841  0.1364  0.6747
  184SLPC  H10X21118   4.605   3.627   3.080 -0.3248 -0.5664  0.2156
  184SLPC  H10Y21119   4.761   3.621   3.007 -0.7411  0.0693  0.4297
  184SLPC  C31121120   4.750   3.709   3.217 -0.7807 -0.2038  0.3138
  184SLPC  H11X21121   4.730   3.811   3.177 -0.8722 -1.6810 -3.9581
  184SLPC  H11Y21122   4.859   3.698   3.232 -0.8796 -0.6154  0.7536
  184SLPC  C31221123   4.681   3.698   3.350 -0.2645 -0.2831 -0.6313
  184SLPC  H12X21124   4.690   3.592   3.383  2.5979  0.1454  0.2066
  184SLPC  H12Y21125   4.570   3.698   3.343 -0.4189 -0.7792  1.1424
  184SLPC  C31321126   4.743   3.783   3.456  0.4058 -0.3332 -0.1308
  184SLPC  H13X21127   4.695   3.883   3.448 -2.0752 -1.5235 -1.1173
  184SLPC  H13Y21128   4.853   3.796   3.447  0.2628  0.8502 -0.3257
  184SLPC  C31421129   4.700   3.741   3.596  0.3869  0.1696  0.2895
  184SLPC  H14X21130   4.714   3.631   3.605  0.2080  0.0859 -0.3883
  184SLPC  H14Y21131   4.593   3.767   3.612  0.3120 -0.7189  1.3468
  184SLPC  C31521132   4.774   3.819   3.705 -0.1864  0.8221  0.0914
  184SLPC  H15X21133   4.761   3.928   3.694 -0.7501  0.8720  1.1099
  184SLPC  H15Y21134   4.880   3.784   3.710 -0.1523  0.9583  0.3906
  184SLPC  C31621135   4.713   3.763   3.837  0.5581 -0.1046 -0.1892
  184SLPC  H16X21136   4.725   3.653   3.829 -0.3683 -0.1505 -1.2780
  184SLPC  H16Y21137   4.604   3.785   3.831  0.6422  0.9626  1.5619
  184SLPC  C31721138   4.766   3.829   3.959 -0.3466  0.3305 -0.2323
  184SLPC  H17X21139   4.723   3.930   3.977  2.8747  1.7225  0.4493
  184SLPC  H17Y21140   4.876   3.838   3.951 -0.4008  2.8605  0.7696
  184SLPC  C31821141   4.741   3.723   4.064  0.1244  0.0022 -0.2994
  184SLPC  H18X21142   4.639   3.679   4.059  0.3582 -0.5169 -0.6938
  184SLPC  H18Y21143   4.761   3.753   4.169 -2.2999 -1.3188  0.6183
  184SLPC  H18Z21144   4.807   3.634   4.053 -1.6788 -1.6511  1.3920
  185POPC     N21145   5.513   4.540   7.023  0.8976 -0.1557  0.2684
  185POPC   C1221146   5.570   4.621   6.900  0.4720  0.4690 -0.0642
  185POPC  H12A21147   5.550   4.577   6.803  0.4461  3.5118 -1.5806
  185POPC  H12B21148   5.678   4.616   6.902  0.4505  0.2760  0.8048
  185POPC   C1321149   5.581   4.601   7.146  0.0180 -0.0954 -0.1056
  185POPC  H13A21150   5.688   4.593   7.130 -0.2607  1.6250 -3.6286
  185POPC  H13B21151   5.557   4.706   7.147 -0.1542 -0.1317 -0.4828
  185POPC  H13C21152   5.541   4.545   7.230  0.0433 -3.0139 -1.8854
  185POPC   C1421153   5.367   4.543   7.038  0.2367 -0.5605  0.4448
  185POPC  H14A21154   5.319   4.494   7.121 -2.4119 -0.4606 -0.9197
  185POPC  H14B21155   5.327   4.643   7.037 -1.0838 -1.0531 -1.4542
  185POPC  H14C21156   5.324   4.496   6.950 -0.0919  1.1689 -0.3547
  185POPC   C1521157   5.564   4.395   7.016 -0.1077  0.3548 -0.0519
  185POPC  H15A21158   5.672   4.399   7.027 -0.0938 -0.6116  0.2386
  185POPC  H15B21159   5.560   4.358   6.915  3.6814  0.2474 -0.3213
  185POPC  H15C21160   5.532   4.327   7.093  1.7514  1.6535  2.0090
  185POPC   C1121161   5.529   4.770   6.878  1.0443 -0.2325 -0.2914
  185POPC  H11A21162   5.420   4.789   6.870  1.3558  1.4433 -1.0035
  185POPC  H11B21163   5.571   4.801   6.780  2.2157 -2.0395 -0.3946
  185POPC     P21164   5.706   4.917   7.007 -0.5841  0.2702 -0.1426
  185POPC   O1321165   5.791   4.828   7.091  0.1318  0.0718  0.2684
  185POPC   O1421166   5.695   5.058   7.046 -0.7426 -0.1394  0.3646
  185POPC   O1221167   5.565   4.858   6.980 -0.5803 -0.2101  0.4183
  185POPC   O1121168   5.765   4.907   6.867 -0.0168  0.7645 -0.1842
  185POPC    C121169   5.800   5.015   6.784 -0.2610  0.1122  0.3382
  185POPC    HA21170   5.908   5.037   6.789 -0.1536  0.0019 -1.1964
  185POPC    HB21171   5.747   5.111   6.803  0.7956  0.8493 -0.3401
  185POPC    C221172   5.782   4.989   6.631 -0.0355 -0.0382 -0.0190
  185POPC    HS21173   5.822   5.079   6.579  1.2252 -0.5676  0.0059
  185POPC   O2121174   5.642   4.969   6.600 -0.2099  0.9403  0.2481
  185POPC   C2121175   5.568   5.074   6.592 -0.1750  0.5700  0.4911
  185POPC   O2221176   5.597   5.189   6.623 -0.0422 -0.1438 -0.1791
  185POPC   C2221177   5.431   5.038   6.547 -0.0867  0.1589 -0.3110
  185POPC   H2R21178   5.384   5.129   6.502  1.1382  0.5281 -0.8962
  185POPC   H2S21179   5.377   5.014   6.641  2.8075  1.0504  1.7562
  185POPC    C321180   5.858   4.868   6.591 -0.4229  0.1079 -0.6254
  185POPC    HX21181   5.808   4.774   6.622 -1.3843  1.5788  2.6593
  185POPC    HY21182   5.955   4.867   6.645 -1.2086  1.8546  0.9112
  185POPC   O3121183   5.888   4.879   6.450  0.3175 -0.1836 -0.3003
  185POPC   C3121184   5.795   4.816   6.378  0.0749 -0.2262  0.0003
  185POPC   O3221185   5.714   4.733   6.426 -0.1678  0.2393  0.4945
  185POPC   C3221186   5.786   4.882   6.242  0.9243  0.0486 -0.3510
  185POPC   H2X21187   5.883   4.920   6.203  0.3859 -0.2603 -2.0461
  185POPC   H2Y21188   5.732   4.977   6.260  0.1251 -0.6841  1.4682
  185POPC   C2321189   5.422   4.916   6.449 -0.4846 -0.8009 -0.3891
  185POPC   H3R21190   5.477   4.828   6.489 -1.5083 -0.7141  1.2922
  185POPC   H3S21191   5.484   4.938   6.359  1.0434  2.7463  1.3108
  185POPC   C2421192   5.281   4.873   6.417 -0.2853 -0.0831  0.2092
  185POPC   H4R21193   5.226   4.867   6.513  1.6698 -0.4898  1.3554
  185POPC   H4S21194   5.279   4.772   6.371 -0.4753 -0.7964  1.7381
  185POPC   C2521195   5.215   4.966   6.306  0.6703  0.4228 -0.0693
  185POPC   H5R21196   5.207   5.075   6.328  1.0528  0.5172 -0.3946
  185POPC   H5S21197   5.111   4.931   6.292  0.5312  0.3055  1.1266
  185POPC   C2621198   5.282   4.946   6.169  0.1273  0.3001 -0.2459
  185POPC   H6R21199   5.343   4.854   6.161  0.1421  0.3531 -0.8104
  185POPC   H6S21200   5.345   5.036   6.153  0.7463  0.4499  2.5358
  185POPC   C2721201   5.177   4.945   6.055 -0.1005  0.7507 -0.6761
  185POPC   H7R21202   5.117   5.039   6.056 -0.2209  0.7237 -2.2986
  185POPC   H7S21203   5.104   4.869   6.089 -0.2517  1.0963 -0.2194
  185POPC   C2821204   5.245   4.922   5.921  0.3672 -0.3457 -0.2725
  185POPC   H8R21205   5.331   4.851   5.925  0.8702  0.2717 -0.0879
  185POPC   H8S21206   5.296   5.019   5.903 -0.2627 -0.0544 -0.5203
  185POPC   C2921207   5.149   4.894   5.807 -0.1406 -0.3983  0.8102
  185POPC   H9121208   5.053   4.843   5.829 -0.8243  0.3114 -0.4172
  185POPC  C21021209   5.168   4.946   5.685  0.7980 -0.0027 -0.3566
  185POPC  H10121210   5.093   4.931   5.606 -1.5176 -0.9877  1.8769
  185POPC  C21121211   5.287   5.022   5.637  0.0485 -0.1698 -0.5752
  185POPC  H11R21212   5.347   4.977   5.555  1.2809  1.5621 -0.6696
  185POPC  H11S21213   5.367   5.041   5.712 -0.5784  3.3939 -0.6654
  185POPC  C21221214   5.243   5.166   5.603  0.6602  0.3799 -0.3423
  185POPC  H12R21215   5.226   5.220   5.699  0.6838  1.9443 -1.1895
  185POPC  H12S21216   5.149   5.167   5.544 -0.1792  1.6314  0.9389
  185POPC  C21321217   5.348   5.249   5.540  0.4027  0.8232 -0.2457
  185POPC  H13R21218   5.430   5.258   5.614  0.2251 -0.3175  0.1106
  185POPC  H13S21219   5.304   5.350   5.533 -0.3510  0.4488 -1.1520
  185POPC  C21421220   5.400   5.211   5.396 -0.2783 -0.4227 -0.0429
  185POPC  H14R21221   5.461   5.118   5.398  0.7884  0.2451 -0.4210
  185POPC  H14S21222   5.476   5.287   5.364  1.8675 -1.9288  1.2398
  185POPC  C21521223   5.296   5.173   5.286 -0.1180  0.5604 -0.0532
  185POPC  H15R21224   5.276   5.260   5.220  0.7498 -0.5795 -1.8643
  185POPC  H15S21225   5.203   5.133   5.332  0.6427 -1.9989 -0.5958
  185POPC  C21621226   5.361   5.073   5.178  0.5954  0.2599 -0.1276
  185POPC  H16R21227   5.342   4.969   5.212  2.9324 -0.4922 -0.9200
  185POPC  H16S21228   5.469   5.101   5.174  0.3893  2.2283  3.6908
  185POPC  C21721229   5.296   5.079   5.035 -0.1008 -1.0450 -0.5797
  185POPC  H17R21230   5.294   5.184   5.001  0.4611 -0.9154 -0.2202
  185POPC  H17S21231   5.191   5.042   5.046 -1.0517  1.6193 -0.0761
  185POPC  C21821232   5.371   4.987   4.939 -0.2357  0.7225 -0.0769
  185POPC  H18R21233   5.473   5.028   4.926  0.4412 -0.6128  0.9022
  185POPC  H18S21234   5.323   4.996   4.839 -1.0728  4.6351  0.5061
  185POPC  H18T21235   5.382   4.883   4.975  1.8042  0.8030 -0.3730
  185POPC   C3321236   5.719   4.788   6.143  0.2989  0.2979 -0.0524
  185POPC   H3X21237   5.609   4.781   6.161  0.5022 -0.4858  0.9355
  185POPC   H3Y21238   5.756   4.684   6.152 -1.0327 -0.3984 -1.9149
  185POPC   C3421239   5.714   4.841   5.992  0.5660  0.0245  0.6380
  185POPC   H4X21240   5.677   4.766   5.919  1.4338  0.6945 -0.5249
  185POPC   H4Y21241   5.822   4.858   5.970  0.4995 -0.9070 -0.5302
  185POPC   C3521242   5.627   4.965   5.969  0.0205  1.0360 -1.2330
  185POPC   H5X21243   5.666   5.043   6.038 -1.1497  0.2400  0.4186
  185POPC   H5Y21244   5.529   4.932   6.009  1.5876 -0.2551  1.9572
  185POPC   C3621245   5.603   5.012   5.828 -0.9337 -0.5851 -0.3610
  185POPC   H6X21246   5.528   5.094   5.827  1.5547  1.8727  0.8652
  185POPC   H6Y21247   5.570   4.931   5.760 -1.6088  1.7766 -3.0820
  185POPC   C3721248   5.737   5.058   5.777 -0.4165  0.1436  0.6184
  185POPC   H7X21249   5.798   4.966   5.768  2.6419  2.0205  0.6492
  185POPC   H7Y21250   5.782   5.128   5.851 -0.0549 -1.9701  2.5254
  185POPC   C3821251   5.742   5.121   5.634  0.5746  0.3011 -0.4935
  185POPC   H8X21252   5.847   5.155   5.622  1.2557 -1.3211  0.4695
  185POPC   H8Y21253   5.671   5.206   5.629  0.6216  0.3654 -0.0668
  185POPC   C3921254   5.719   5.022   5.520  0.8236 -0.3094 -0.0872
  185POPC   H9X21255   5.612   4.994   5.521  1.0091 -1.0267  0.1968
  185POPC   H9Y21256   5.777   4.928   5.536  0.0457 -0.9352 -0.8478
  185POPC  C31021257   5.766   5.072   5.379  1.0194  0.4691 -0.2039
  185POPC  H10X21258   5.877   5.068   5.374  0.9660 -0.4383 -1.0172
  185POPC  H10Y21259   5.728   5.175   5.362 -2.1870 -0.4101  0.9272
  185POPC  C31121260   5.724   4.987   5.258  0.0684  0.5101  0.4307
  185POPC  H11X21261   5.614   4.974   5.248  0.1625  0.5029 -0.7566
  185POPC  H11Y21262   5.764   4.887   5.286 -0.4577  0.6957  1.9589
  185POPC  C31221263   5.789   5.028   5.131  0.0050 -0.2952  0.3795
  185POPC  H12X21264   5.895   5.053   5.151 -0.5539  3.7556 -0.8240
  185POPC  H12Y21265   5.749   5.128   5.103 -0.5136 -0.4532  0.5387
  185POPC  C31321266   5.772   4.937   5.013 -0.0019  0.8707  0.3379
  185POPC  H13X21267   5.664   4.914   5.005  0.4539 -1.9715  1.2442
  185POPC  H13Y21268   5.816   4.836   5.026 -1.3619  0.2732  0.4642
  185POPC  C31421269   5.835   4.999   4.884 -0.3361  0.0863 -0.1239
  185POPC  H14X21270   5.802   5.105   4.885 -0.6987 -0.0142  1.7447
  185POPC  H14Y21271   5.796   4.953   4.791  1.9885  0.7000 -1.4911
  185POPC  C31521272   5.987   4.988   4.876 -1.0337  0.3984 -0.0780
  185POPC  H15X21273   6.008   4.879   4.867  0.5041  0.8081 -1.9446
  185POPC  H15Y21274   6.029   5.028   4.971 -1.3115  0.9883 -0.2003
  185POPC  C31621275   6.041   5.057   4.755  0.5316  0.3481  0.0449
  185POPC  H16X21276   6.148   5.035   4.736  0.5900 -0.0359  0.7913
  185POPC  H16Y21277   6.023   5.166   4.764 -1.3601  0.2424 -1.6310
  185POPC  H16Z21278   5.980   5.028   4.667 -3.1694 -0.9550  2.7875
  186POPC     N21279   0.196   3.519   6.308 -0.3020 -0.5011 -0.3182
  186POPC   C1221280   0.339   3.488   6.294  0.0915 -0.5602  0.2420
  186POPC  H12A21281   0.348   3.380   6.297 -1.2033 -0.6956 -0.2182
  186POPC  H12B21282   0.381   3.533   6.382  0.1873  1.0087 -0.5821
  186POPC   C1321283   0.122   3.473   6.186 -0.1461 -0.5335  0.1610
  186POPC  H13A21284   0.017   3.474   6.212  0.2647 -2.1878  2.1654
  186POPC  H13B21285   0.140   3.542   6.104 -3.7660  1.5914  0.9293
  186POPC  H13C21286   0.148   3.370   6.168  1.8613 -0.3374  1.5944
  186POPC   C1421287   0.137   3.468   6.435  0.2150 -0.1812  0.3543
  186POPC  H14A21288   0.190   3.515   6.517  0.2802 -1.1465  0.8832
  186POPC  H14B21289   0.034   3.502   6.438 -0.4470 -2.1012  2.3316
  186POPC  H14C21290   0.136   3.362   6.453 -0.9494 -0.0431  1.2629
  186POPC   C1521291   0.183   3.669   6.325  0.1754  0.3012 -0.1798
  186POPC  H15A21292   0.086   3.707   6.355  1.9314  3.7627  1.7276
  186POPC  H15B21293   0.208   3.717   6.232  1.4716  0.9572  0.4702
  186POPC  H15C21294   0.259   3.701   6.395  0.8710  0.2125 -0.8769
  186POPC   C1121295   0.425   3.540   6.177 -0.0998  0.3567 -0.0847
  186POPC  H11A21296   0.395   3.487   6.084  0.8067 -3.2142  1.4846
  186POPC  H11B21297   0.525   3.501   6.204 -0.7321 -0.8587  0.5705
  186POPC     P21298   0.519   3.766   6.271  0.2209  0.3206 -0.1977
  186POPC   O1321299   0.498   3.712   6.409  0.2358 -0.2661 -0.0599
  186POPC   O1421300   0.484   3.909   6.256 -0.1061  0.4786  0.3959
  186POPC   O1221301   0.432   3.683   6.165 -0.1023  0.1146 -0.0124
  186POPC   O1121302   0.665   3.735   6.224 -0.2364 -0.2507 -0.1689
  186POPC    C121303   0.716   3.681   6.100 -0.0962  0.1610  0.1234
  186POPC    HA21304   0.631   3.667   6.029  1.1461  0.9366 -1.5929
  186POPC    HB21305   0.754   3.577   6.111 -1.2450 -0.8385 -3.5994
  186POPC    C221306   0.795   3.783   6.022  0.1915 -0.6827 -1.0951
  186POPC    HS21307   0.873   3.815   6.095 -2.5873 -1.3155  2.3920
  186POPC   O2121308   0.711   3.892   5.973  0.0117  0.0035 -0.3509
  186POPC   C2121309   0.763   4.013   5.991 -0.4056  0.4912  0.4167
  186POPC   O2221310   0.870   4.044   6.043 -0.4130  0.2103  0.2951
  186POPC   C2221311   0.672   4.117   5.921 -0.5861 -0.6714 -0.0521
  186POPC   H2R21312   0.631   4.195   5.988 -0.2398  0.1286 -0.7494
  186POPC   H2S21313   0.594   4.055   5.872 -0.1355 -1.3253  0.0398
  186POPC    C321314   0.851   3.720   5.897  0.0476 -0.5192 -0.1952
  186POPC    HX21315   0.771   3.710   5.820 -1.0811  1.0260  0.7230
  186POPC    HY21316   0.879   3.615   5.921 -1.1187 -0.6592  0.6459
  186POPC   O3121317   0.949   3.808   5.846 -0.4429 -0.3655  0.1130
  186POPC   C3121318   1.079   3.770   5.838  0.0445 -0.1838 -0.9869
  186POPC   O3221319   1.123   3.666   5.883  0.3810 -0.0560  0.0102
  186POPC   C3221320   1.166   3.871   5.763  0.2588  0.2183 -0.2878
  186POPC   H2X21321   1.247   3.891   5.837  1.5948  1.8930 -2.0952
  186POPC   H2Y21322   1.099   3.958   5.745  1.1101  0.7274 -1.0864
  186POPC   C2321323   0.749   4.200   5.816  0.6383  0.7462 -0.2524
  186POPC   H3R21324   0.844   4.243   5.853 -1.3197  3.9470  1.5698
  186POPC   H3S21325   0.683   4.288   5.801 -2.0869 -1.0214  0.5949
  186POPC   C2421326   0.774   4.128   5.688 -0.2896  0.0557 -0.1767
  186POPC   H4R21327   0.678   4.118   5.634 -0.6990 -1.5002  0.7698
  186POPC   H4S21328   0.826   4.037   5.725 -0.0604  0.1107 -0.3607
  186POPC   C2521329   0.879   4.201   5.600  0.0609 -0.1328  0.2070
  186POPC   H5R21330   0.924   4.123   5.536  0.3964  1.3906 -1.4917
  186POPC   H5S21331   0.955   4.250   5.665  0.4677 -0.0191 -0.3518
  186POPC   C2621332   0.812   4.317   5.524  0.1080 -0.1546 -0.5360
  186POPC   H6R21333   0.757   4.383   5.594 -0.1022  0.2530 -1.0767
  186POPC   H6S21334   0.736   4.283   5.449 -1.0315  1.2356 -0.0661
  186POPC   C2721335   0.913   4.394   5.439 -0.1468  0.8145 -0.1144
  186POPC   H7R21336   0.953   4.325   5.361  0.8835  1.5089 -0.2249
  186POPC   H7S21337   1.001   4.411   5.505  0.0838 -0.7755  0.0215
  186POPC   C2821338   0.876   4.523   5.368  0.0152 -0.6826  0.3601
  186POPC   H8R21339   0.962   4.550   5.302 -0.6801  1.4867  0.2687
  186POPC   H8S21340   0.862   4.598   5.448 -0.6561 -1.7499  1.2781
  186POPC   C2921341   0.751   4.515   5.290  0.0446 -0.0558 -0.4250
  186POPC   H9121342   0.677   4.451   5.340  0.1621  0.4829  0.4747
  186POPC  C21021343   0.717   4.585   5.178  0.4376  0.4274  0.2924
  186POPC  H10121344   0.617   4.572   5.136  0.6498  1.4576 -0.5899
  186POPC  C21121345   0.808   4.677   5.101 -0.1119 -0.0851 -0.2643
  186POPC  H11R21346   0.910   4.686   5.145  0.0253 -1.4168 -0.2860
  186POPC  H11S21347   0.762   4.778   5.088  1.6153  0.5926 -1.6407
  186POPC  C21221348   0.833   4.627   4.953  0.5530  0.9078 -0.5268
  186POPC  H12R21349   0.860   4.519   4.955  2.8930  1.4560  0.4985
  186POPC  H12S21350   0.920   4.675   4.904  0.4358  0.1521 -1.5091
  186POPC  C21321351   0.718   4.653   4.856  0.7683  0.0476  0.3303
  186POPC  H13R21352   0.626   4.598   4.884 -0.7450 -0.1916 -4.2270
  186POPC  H13S21353   0.752   4.601   4.764 -0.5327  0.9397 -0.6967
  186POPC  C21421354   0.677   4.801   4.829  0.2128  0.7051  0.2068
  186POPC  H14R21355   0.763   4.869   4.809  0.9132  0.2043  1.3778
  186POPC  H14S21356   0.629   4.848   4.918  1.3345 -1.0203  1.8015
  186POPC  C21521357   0.577   4.799   4.713 -0.0228  0.2168 -0.6245
  186POPC  H15R21358   0.495   4.724   4.712  0.3901 -0.2314 -1.2067
  186POPC  H15S21359   0.642   4.786   4.624  1.3042 -0.3293  0.3812
  186POPC  C21621360   0.509   4.936   4.690  0.5961  1.0290 -0.8785
  186POPC  H16R21361   0.481   4.978   4.789  0.4094 -0.2755 -0.3599
  186POPC  H16S21362   0.413   4.919   4.637 -0.3806 -1.9927  1.5612
  186POPC  C21721363   0.579   5.046   4.616 -0.2154  0.1038  0.5119
  186POPC  H17R21364   0.679   5.063   4.662 -0.2689  3.7925 -0.4097
  186POPC  H17S21365   0.522   5.137   4.644  0.8926  0.6255  1.1406
  186POPC  C21821366   0.588   5.043   4.460  0.4061  0.0960  0.4468
  186POPC  H18R21367   0.651   5.127   4.423 -0.9562  1.6405  1.4628
  186POPC  H18S21368   0.488   5.056   4.415  0.2066  0.5954  1.0222
  186POPC  H18T21369   0.628   4.944   4.428  0.3581 -0.2938  1.5270
  186POPC   C3321370   1.227   3.807   5.638 -0.4347  0.0111  0.4677
  186POPC   H3X21371   1.144   3.775   5.571 -0.6675  1.0318  0.2497
  186POPC   H3Y21372   1.289   3.721   5.671  0.4611  1.1969  2.0652
  186POPC   C3421373   1.306   3.915   5.558 -0.1035 -0.0770 -0.0069
  186POPC   H4X21374   1.370   3.974   5.628  0.8748 -2.0758  0.8851
  186POPC   H4Y21375   1.233   3.987   5.517 -0.3069 -1.4977 -2.2856
  186POPC   C3521376   1.388   3.863   5.443  0.1911  0.1743 -0.3666
  186POPC   H5X21377   1.315   3.813   5.377  1.6081  3.1371 -4.6374
  186POPC   H5Y21378   1.457   3.778   5.460 -4.3561 -4.6112 -2.7900
  186POPC   C3621379   1.434   3.977   5.348  0.0346  0.0519 -0.1027
  186POPC   H6X21380   1.516   4.032   5.399 -1.1110  2.7682 -1.0045
  186POPC   H6Y21381   1.349   4.048   5.337  0.8060  1.4344  2.0964
  186POPC   C3721382   1.477   3.928   5.206  0.1222  0.0167 -1.0731
  186POPC   H7X21383   1.388   3.899   5.146 -0.1803  1.6453 -1.4423
  186POPC   H7Y21384   1.537   3.835   5.220 -1.2542 -0.6251  1.2887
  186POPC   C3821385   1.553   4.047   5.146  0.3912 -0.2735  0.5572
  186POPC   H8X21386   1.642   4.081   5.202  0.3170  2.7613 -0.9664
  186POPC   H8Y21387   1.484   4.132   5.127  0.3040 -0.7950 -1.8134
  186POPC   C3921388   1.618   4.012   5.012  0.5998 -0.0726  0.4294
  186POPC   H9X21389   1.534   3.967   4.955  1.1965 -0.5965 -0.0447
  186POPC   H9Y21390   1.698   3.935   5.017  1.8675  1.0787 -1.2651
  186POPC  C31021391   1.678   4.135   4.945 -0.4880  0.6355  0.7685
  186POPC  H10X21392   1.761   4.176   5.007 -1.0653 -0.9770  2.6995
  186POPC  H10Y21393   1.599   4.213   4.957 -1.8901 -0.5918 -0.1855
  186POPC  C31121394   1.728   4.112   4.798  1.0658 -0.0813 -0.6615
  186POPC  H11X21395   1.641   4.093   4.732  0.1721  1.9654 -0.1568
  186POPC  H11Y21396   1.790   4.019   4.802  0.7654 -0.2488  1.0109
  186POPC  C31221397   1.810   4.221   4.742  0.2691 -0.2480  0.4926
  186POPC  H12X21398   1.893   4.250   4.810  1.8619 -0.0011 -1.4578
  186POPC  H12Y21399   1.756   4.317   4.728  0.4320 -0.3719 -1.1736
  186POPC  C31321400   1.868   4.178   4.612 -0.3618  0.3538  0.7313
  186POPC  H13X21401   1.794   4.151   4.533  0.6455  2.6196 -1.1421
  186POPC  H13Y21402   1.929   4.087   4.629 -1.6947 -0.4790  1.2045
  186POPC  C31421403   1.970   4.281   4.562  0.7845  0.0643  0.4870
  186POPC  H14X21404   2.044   4.306   4.640  1.7534 -0.5889 -0.2068
  186POPC  H14Y21405   1.921   4.378   4.535  0.3101 -0.8517 -2.2236
  186POPC  C31521406   2.034   4.227   4.438  0.5718  0.0549  0.3797
  186POPC  H15X21407   1.967   4.259   4.355  2.9462  3.5608 -0.4320
  186POPC  H15Y21408   2.044   4.117   4.445 -0.7035 -0.0629  0.5457
  186POPC  C31621409   2.177   4.285   4.405  0.3272  0.1712 -0.6103
  186POPC  H16X21410   2.213   4.228   4.316 -0.6212 -1.0709 -0.2342
  186POPC  H16Y21411   2.245   4.252   4.487  0.6383  1.6755 -0.2417
  186POPC  H16Z21412   2.176   4.395   4.394  0.7304  0.6003  2.6641
  187POPC     N21413   5.575   5.277   2.170  0.2846  0.4022  0.2303
  187POPC   C1221414   5.611   5.380   2.281 -0.1873 -0.4471 -0.4749
  187POPC  H12A21415   5.711   5.413   2.257 -0.5946  0.9483 -0.3276
  187POPC  H12B21416   5.613   5.317   2.369 -0.0300 -0.2571 -0.3410
  187POPC   C1321417   5.546   5.340   2.045  0.0898  0.1658 -0.3269
  187POPC  H13A21418   5.630   5.402   2.015  0.3070  0.1159  0.1655
  187POPC  H13B21419   5.528   5.261   1.974 -1.9870 -0.7602  1.1386
  187POPC  H13C21420   5.456   5.398   2.055 -0.0298 -0.3371  2.2302
  187POPC   C1421421   5.678   5.170   2.163  0.2055  0.5611  0.2594
  187POPC  H14A21422   5.680   5.096   2.084  0.8690  0.4090  0.4134
  187POPC  H14B21423   5.775   5.219   2.164 -1.2836  3.7363  1.6707
  187POPC  H14C21424   5.686   5.113   2.254  0.1508  0.0517 -0.0469
  187POPC   C1521425   5.452   5.200   2.223  0.0003  0.0614 -1.0309
  187POPC  H15A21426   5.474   5.151   2.317  2.5191  0.2868 -1.4313
  187POPC  H15B21427   5.423   5.129   2.146  0.5952 -0.8841 -0.4057
  187POPC  H15C21428   5.365   5.260   2.244 -0.9500 -1.6389  0.1746
  187POPC   C1121429   5.524   5.505   2.305  0.9170  0.1325 -0.0220
  187POPC  H11A21430   5.511   5.554   2.207 -0.7564  0.1113  0.1661
  187POPC  H11B21431   5.575   5.566   2.383  1.5187  0.3254 -0.5557
  187POPC     P21432   5.354   5.428   2.480  0.0702  0.2008  0.3419
  187POPC   O1321433   5.286   5.294   2.464 -0.2883 -0.1735 -0.6682
  187POPC   O1421434   5.276   5.540   2.540 -0.5162 -0.0093  0.0156
  187POPC   O1221435   5.397   5.471   2.338 -0.1610  0.5205  0.1154
  187POPC   O1121436   5.491   5.417   2.555  0.2993 -0.9225 -0.3464
  187POPC    C121437   5.500   5.318   2.656 -0.3973 -0.1724  1.0001
  187POPC    HA21438   5.596   5.307   2.710  0.2138  0.1583  0.0031
  187POPC    HB21439   5.487   5.221   2.603  0.6458  0.0095  0.3958
  187POPC    C221440   5.395   5.353   2.779 -0.4576 -0.2449 -0.6603
  187POPC    HS21441   5.296   5.379   2.736 -0.4921  1.1516  0.1817
  187POPC   O2121442   5.452   5.464   2.846 -0.2995  0.0608 -0.0573
  187POPC   C2121443   5.357   5.537   2.896 -0.0743 -0.6237  0.2589
  187POPC   O2221444   5.240   5.511   2.898 -0.0688  0.4720  0.2981
  187POPC   C2221445   5.423   5.664   2.950  0.5617 -0.2422  0.1680
  187POPC   H2R21446   5.397   5.745   2.879  0.7713 -0.4712 -0.1738
  187POPC   H2S21447   5.533   5.654   2.965  0.9768 -0.6350 -2.5497
  187POPC    C321448   5.385   5.225   2.871 -0.5667 -0.6230  0.0415
  187POPC    HX21449   5.488   5.189   2.896 -0.6623 -1.3879 -0.6241
  187POPC    HY21450   5.345   5.139   2.814 -0.0344  0.9833 -2.9276
  187POPC   O3121451   5.310   5.250   2.990  0.4715 -0.1301 -0.6697
  187POPC   C3121452   5.175   5.240   2.982 -0.2048  0.8109 -0.0643
  187POPC   O3221453   5.113   5.221   2.878  0.4829  0.1060  0.5831
  187POPC   C3221454   5.107   5.252   3.125 -0.3865 -0.1401  0.3272
  187POPC   H2X21455   5.184   5.264   3.204  0.3418 -1.1654 -0.1999
  187POPC   H2Y21456   5.045   5.161   3.140  0.5452 -0.8328  0.1494
  187POPC   C2321457   5.363   5.702   3.089  0.6079 -0.3515  0.0018
  187POPC   H3R21458   5.255   5.714   3.067  0.5901  0.4402  0.4654
  187POPC   H3S21459   5.399   5.807   3.101  1.6234 -0.5657 -0.9684
  187POPC   C2421460   5.395   5.608   3.203 -0.1937 -0.2787  0.6610
  187POPC   H4R21461   5.504   5.620   3.221 -0.3553  0.0309  1.4534
  187POPC   H4S21462   5.376   5.503   3.172  1.2096  0.2534 -2.2817
  187POPC   C2521463   5.328   5.642   3.341  0.3085  0.0847 -0.2492
  187POPC   H5R21464   5.217   5.650   3.335  0.3923  0.6498 -1.3150
  187POPC   H5S21465   5.362   5.741   3.379  0.6118  0.1633 -0.7078
  187POPC   C2621466   5.354   5.547   3.466  0.3197 -0.2171  0.2484
  187POPC   H6R21467   5.291   5.456   3.456  0.0899  0.0090 -0.3806
  187POPC   H6S21468   5.322   5.613   3.549 -0.5094 -1.7100  1.1496
  187POPC   C2721469   5.505   5.525   3.488 -0.3952 -0.0245 -0.7178
  187POPC   H7R21470   5.558   5.622   3.473 -1.3087  0.7501  0.7357
  187POPC   H7S21471   5.528   5.451   3.409 -1.2463 -0.2226 -0.7968
  187POPC   C2821472   5.547   5.470   3.628 -0.2979 -0.1389  0.8142
  187POPC   H8R21473   5.647   5.423   3.623 -1.2821 -2.5172  2.3275
  187POPC   H8S21474   5.482   5.389   3.666  1.0407 -2.3477 -1.3529
  187POPC   C2921475   5.549   5.574   3.731  0.0292  0.3319 -0.2030
  187POPC   H9121476   5.628   5.651   3.732 -1.1723  1.6064  1.4134
  187POPC  C21021477   5.464   5.581   3.840 -0.4765 -0.9717  0.2880
  187POPC  H10121478   5.477   5.665   3.910 -1.2361  0.8671 -1.6408
  187POPC  C21121479   5.355   5.484   3.872 -0.6289 -0.0359  0.3942
  187POPC  H11R21480   5.392   5.421   3.956  4.1789 -1.7325 -2.6226
  187POPC  H11S21481   5.318   5.417   3.792  0.4680  0.1270 -0.2653
  187POPC  C21221482   5.225   5.550   3.921  0.6698  0.1112 -0.2419
  187POPC  H12R21483   5.190   5.619   3.842 -0.7227 -1.0694 -0.6984
  187POPC  H12S21484   5.247   5.599   4.018  0.3113 -1.8789  0.8935
  187POPC  C21321485   5.111   5.454   3.951 -0.3320 -0.5116  0.4932
  187POPC  H13R21486   5.037   5.526   3.995  1.0537  1.5634 -0.3994
  187POPC  H13S21487   5.150   5.386   4.029 -2.2226 -1.4625  0.6682
  187POPC  C21421488   5.051   5.389   3.828  0.0419  0.1034  0.2978
  187POPC  H14R21489   5.110   5.301   3.794 -2.4894 -1.7514  0.3914
  187POPC  H14S21490   5.047   5.458   3.741  0.5328  0.7912  0.8115
  187POPC  C21521491   4.906   5.347   3.845  0.6834 -0.1643  0.2534
  187POPC  H15R21492   4.844   5.439   3.852 -2.1269 -1.9192  0.0399
  187POPC  H15S21493   4.888   5.282   3.934 -1.5254  0.4586  0.3245
  187POPC  C21621494   4.839   5.288   3.721  1.0236  0.1424 -0.1995
  187POPC  H16R21495   4.831   5.364   3.640  2.3611 -0.8028 -1.2634
  187POPC  H16S21496   4.731   5.275   3.744  0.9075 -1.4086 -1.4233
  187POPC  C21721497   4.895   5.159   3.654  0.0348 -0.5898 -0.0077
  187POPC  H17R21498   4.895   5.076   3.728  1.2277  0.4727  1.2406
  187POPC  H17S21499   5.001   5.170   3.623  0.6499 -2.1943  1.3347
  187POPC  C21821500   4.805   5.100   3.541  0.0359  0.4737 -0.0402
  187POPC  H18R21501   4.702   5.138   3.558  0.8746  1.8562  2.3496
  187POPC  H18S21502   4.801   4.989   3.547 -1.9756  0.4758 -0.7071
  187POPC  H18T21503   4.836   5.142   3.443  1.1620 -0.2394 -0.0153
  187POPC   C3321504   5.015   5.374   3.139  0.2377  0.1753 -0.6798
  187POPC   H3X21505   4.952   5.365   3.048 -2.6431  0.8327  1.1249
  187POPC   H3Y21506   5.071   5.470   3.133 -0.6923  1.1526  3.4410
  187POPC   C3421507   4.931   5.372   3.272  0.4767 -0.5696 -0.8465
  187POPC   H4X21508   4.992   5.379   3.364  1.8417 -0.0376 -1.7438
  187POPC   H4Y21509   4.875   5.276   3.265  2.6189 -1.8862 -1.2448
  187POPC   C3521510   4.816   5.475   3.275 -0.3054  0.5432 -0.5481
  187POPC   H5X21511   4.754   5.467   3.367 -1.0495  1.0077 -0.9963
  187POPC   H5Y21512   4.751   5.455   3.187 -1.2553  1.6147 -0.1116
  187POPC   C3621513   4.874   5.616   3.257  0.1166 -0.6622 -0.1728
  187POPC   H6X21514   4.890   5.629   3.148  1.5172 -0.8059 -0.0137
  187POPC   H6Y21515   4.976   5.625   3.302  0.1153 -0.0497 -0.2805
  187POPC   C3721516   4.786   5.738   3.304 -0.1102 -0.3680  0.3975
  187POPC   H7X21517   4.686   5.737   3.257 -0.2091  2.7969  0.3511
  187POPC   H7Y21518   4.830   5.833   3.269  0.5425 -1.5325 -2.1377
  187POPC   C3821519   4.754   5.731   3.458  0.2642 -0.1916  0.8360
  187POPC   H8X21520   4.837   5.678   3.510  2.0118 -2.0648 -3.4445
  187POPC   H8Y21521   4.656   5.680   3.470 -0.6520  1.4388  0.5442
  187POPC   C3921522   4.750   5.873   3.526 -0.6828  0.6026  0.2590
  187POPC   H9X21523   4.697   5.952   3.468 -1.7445 -1.1664 -1.2749
  187POPC   H9Y21524   4.855   5.909   3.529 -0.1654 -0.7003 -1.1291
  187POPC  C31021525   4.682   5.880   3.666 -0.0025 -0.5853  0.5262
  187POPC  H10X21526   4.576   5.846   3.656 -0.0363 -0.3799  0.1212
  187POPC  H10Y21527   4.686   5.984   3.706 -1.2476 -0.0475 -0.6272
  187POPC  C31121528   4.755   5.787   3.760  0.1783  0.1168  0.0873
  187POPC  H11X21529   4.866   5.792   3.763  0.3050 -1.7757 -0.2019
  187POPC  H11Y21530   4.718   5.683   3.749  2.4494 -1.4073  4.5219
  187POPC  C31221531   4.708   5.817   3.906  0.0828  0.5154 -0.5073
  187POPC  H12X21532   4.597   5.822   3.903  0.1402  1.7212 -1.3596
  187POPC  H12Y21533   4.738   5.921   3.929  0.5402  0.4682 -0.8705
  187POPC  C31321534   4.767   5.718   4.010 -0.0714  0.3317  0.2390
  187POPC  H13X21535   4.878   5.714   3.998  0.3769  1.3160  3.2149
  187POPC  H13Y21536   4.726   5.619   3.983  0.3868 -0.3477  1.9078
  187POPC  C31421537   4.744   5.749   4.150 -0.3595  0.2781 -0.4207
  187POPC  H14X21538   4.641   5.772   4.187  0.0080  0.2830  0.6578
  187POPC  H14Y21539   4.802   5.843   4.161  0.9693 -0.1717 -3.0196
  187POPC  C31521540   4.802   5.637   4.243  0.3187 -0.1216 -0.0145
  187POPC  H15X21541   4.911   5.626   4.226  0.3103  0.1098 -0.2367
  187POPC  H15Y21542   4.756   5.541   4.210 -1.8177  1.0115 -0.5355
  187POPC  C31621543   4.767   5.670   4.388  0.4261 -0.0355 -0.4748
  187POPC  H16X21544   4.658   5.690   4.389  0.2381 -0.9719 -0.4818
  187POPC  H16Y21545   4.823   5.762   4.413  1.0451  0.0302 -2.0557
  187POPC  H16Z21546   4.806   5.600   4.465 -0.7098 -0.8696 -0.6160
  188POPC     N21547   6.550   3.893   1.984 -0.4159  0.0444  0.2291
  188POPC   C1221548   6.590   3.841   2.120  0.1592  0.3292  0.2255
  188POPC  H12A21549   6.698   3.851   2.125  0.1572  0.7424 -0.4539
  188POPC  H12B21550   6.563   3.737   2.128  0.3532  0.2997  0.5109
  188POPC   C1321551   6.596   3.802   1.871 -0.2564  0.0954 -0.6002
  188POPC  H13A21552   6.703   3.811   1.860 -0.2381  0.3140 -0.2404
  188POPC  H13B21553   6.551   3.704   1.881 -1.1015  0.5595  0.2269
  188POPC  H13C21554   6.562   3.828   1.771  0.8713  0.3318 -0.9420
  188POPC   C1421555   6.404   3.906   1.961 -0.1928 -0.2504  0.1930
  188POPC  H14A21556   6.358   3.954   2.046 -0.0890  2.0157 -0.9538
  188POPC  H14B21557   6.375   3.973   1.881 -1.6061 -0.2278  0.6928
  188POPC  H14C21558   6.355   3.814   1.935 -0.8381 -0.1273  0.9443
  188POPC   C1521559   6.615   4.031   1.970 -0.3588  0.7022  0.6005
  188POPC  H15A21560   6.580   4.091   2.052 -0.7154 -1.3687  2.0320
  188POPC  H15B21561   6.585   4.075   1.876 -3.2804 -1.6395  0.3099
  188POPC  H15C21562   6.719   4.020   1.999 -0.6445  0.6976  1.6635
  188POPC   C1121563   6.527   3.915   2.243 -0.5012  0.4203 -0.5599
  188POPC  H11A21564   6.545   3.858   2.337  0.0441  0.6300 -0.5334
  188POPC  H11B21565   6.417   3.915   2.228 -0.2601 -0.2482 -2.6635
  188POPC     P21566   6.712   4.080   2.341 -0.3028  0.3011  0.6084
  188POPC   O1321567   6.774   4.215   2.302  0.4361 -0.5945  0.2997
  188POPC   O1421568   6.800   3.968   2.314  0.1275 -0.0467  0.3047
  188POPC   O1221569   6.577   4.045   2.255  0.3706  0.6399 -0.3577
  188POPC   O1121570   6.652   4.082   2.498 -0.3846  0.4212  0.6826
  188POPC    C121571   6.591   4.201   2.552  0.3715 -0.5773 -0.0968
  188POPC    HA21572   6.582   4.288   2.484 -1.2671 -0.4771  0.2235
  188POPC    HB21573   6.658   4.237   2.634  2.1917 -0.4591 -1.5870
  188POPC    C221574   6.446   4.186   2.596  0.6974  0.6090 -0.8191
  188POPC    HS21575   6.407   4.289   2.609  0.9040  0.9693 -2.7108
  188POPC   O2121576   6.443   4.094   2.711  0.2679 -0.4843 -0.6657
  188POPC   C2121577   6.480   4.158   2.825 -0.1549  0.0597 -0.2727
  188POPC   O2221578   6.487   4.278   2.835 -0.7676  0.3501 -0.0061
  188POPC   C2221579   6.536   4.063   2.928  0.3308  0.7277  0.2450
  188POPC   H2R21580   6.631   4.110   2.963  0.2677  1.2114 -0.2241
  188POPC   H2S21581   6.570   3.975   2.869 -0.6473  0.9129 -0.6178
  188POPC    C321582   6.355   4.124   2.483 -0.5686 -0.4817  0.0809
  188POPC    HX21583   6.400   4.035   2.435 -1.7342 -0.9826 -0.1203
  188POPC    HY21584   6.343   4.203   2.406  1.0095  0.5624  0.8610
  188POPC   O3121585   6.223   4.094   2.535  0.2217 -0.2769 -0.3194
  188POPC   C3121586   6.215   3.967   2.572  0.0887  0.4737  0.2305
  188POPC   O3221587   6.304   3.885   2.573  0.4700 -0.2904 -0.4487
  188POPC   C3221588   6.074   3.931   2.599  0.0103  0.6534 -0.1345
  188POPC   H2X21589   6.048   3.857   2.521 -1.7755 -1.7579  2.5667
  188POPC   H2Y21590   6.003   4.014   2.580 -1.8498 -1.0724 -1.0470
  188POPC   C2321591   6.437   4.008   3.029  0.1976  0.5763  0.0834
  188POPC   H3R21592   6.355   3.955   2.976  0.0887  1.2944 -0.4816
  188POPC   H3S21593   6.392   4.095   3.080  2.5136  0.2276  3.0626
  188POPC   C2421594   6.497   3.917   3.138  1.2268 -0.0868 -0.3506
  188POPC   H4R21595   6.575   3.965   3.200  2.1759 -0.5260 -1.1621
  188POPC   H4S21596   6.540   3.829   3.085  0.1089 -0.0745 -1.3122
  188POPC   C2521597   6.389   3.876   3.246 -0.2365 -0.1013 -0.0947
  188POPC   H5R21598   6.315   3.811   3.195 -0.2523 -0.0279 -0.1652
  188POPC   H5S21599   6.335   3.970   3.271 -0.1804  0.8236 -3.0423
  188POPC   C2621600   6.455   3.817   3.368 -0.4197  0.3842 -0.5095
  188POPC   H6R21601   6.528   3.876   3.428 -0.7245 -0.0368  0.2969
  188POPC   H6S21602   6.508   3.722   3.345 -1.1976 -0.2894  0.3584
  188POPC   C2721603   6.361   3.780   3.479  0.1342  0.0990  0.4683
  188POPC   H7R21604   6.291   3.700   3.447 -1.8588  1.1787  1.9236
  188POPC   H7S21605   6.304   3.875   3.494  0.0388 -0.0797  1.2545
  188POPC   C2821606   6.431   3.745   3.608 -0.1376  0.0181 -0.2471
  188POPC   H8R21607   6.353   3.729   3.686  0.6636 -1.4382  0.2881
  188POPC   H8S21608   6.485   3.836   3.640  3.2921 -1.4569 -1.3809
  188POPC   C2921609   6.522   3.624   3.601 -0.4874 -0.3766 -0.0104
  188POPC   H9121610   6.507   3.561   3.513 -0.0383 -0.5330  0.0230
  188POPC  C21021611   6.625   3.603   3.684 -0.4191 -0.5603 -0.0975
  188POPC  H10121612   6.676   3.506   3.676 -1.8927 -1.4254  0.6113
  188POPC  C21121613   6.656   3.696   3.799 -0.2486 -0.6743  0.0786
  188POPC  H11R21614   6.592   3.786   3.812 -1.0535 -0.9767 -1.4899
  188POPC  H11S21615   6.762   3.729   3.803 -1.5767  4.2513  1.7815
  188POPC  C21221616   6.642   3.618   3.929 -0.0892 -0.7491 -0.1177
  188POPC  H12R21617   6.702   3.526   3.916 -1.2560 -1.4583 -0.6436
  188POPC  H12S21618   6.539   3.582   3.948  0.6064 -3.0192 -0.3782
  188POPC  C21321619   6.697   3.704   4.043  0.2103  0.8493 -0.6696
  188POPC  H13R21620   6.635   3.796   4.048 -0.3481  0.5210 -1.4366
  188POPC  H13S21621   6.803   3.731   4.024  0.3828  3.1719  2.7452
  188POPC  C21421622   6.680   3.636   4.179  0.1433  0.3847  0.2765
  188POPC  H14R21623   6.763   3.563   4.185 -2.9156 -3.4391  0.0912
  188POPC  H14S21624   6.587   3.574   4.178  0.6133 -0.3395  0.5465
  188POPC  C21521625   6.698   3.734   4.296 -0.3540 -0.2378  0.3155
  188POPC  H15R21626   6.608   3.799   4.300  0.3450  0.7947 -0.3352
  188POPC  H15S21627   6.787   3.796   4.273 -0.0996 -1.3456 -2.0118
  188POPC  C21621628   6.718   3.664   4.422  0.1056 -0.1948  0.6729
  188POPC  H16R21629   6.821   3.624   4.430  0.9132  1.5999 -0.1626
  188POPC  H16S21630   6.644   3.582   4.430  0.1516 -0.5839 -2.1219
  188POPC  C21721631   6.707   3.761   4.538 -0.3243  0.6502  0.0030
  188POPC  H17R21632   6.777   3.847   4.524 -0.6249  0.4913 -3.2591
  188POPC  H17S21633   6.737   3.695   4.623  0.0326  1.3985  0.4748
  188POPC  C21821634   6.563   3.812   4.562 -0.7470  0.3278  0.3272
  188POPC  H18R21635   6.541   3.880   4.476  0.9851  0.1811 -0.2585
  188POPC  H18S21636   6.557   3.870   4.656  0.0238 -4.8648  4.0372
  188POPC  H18T21637   6.492   3.726   4.568  0.8344 -1.0258  0.1738
  188POPC   C3321638   6.056   3.864   2.737 -0.3196 -0.2610 -0.7583
  188POPC   H3X21639   6.143   3.796   2.749 -0.5131 -0.4453 -0.3829
  188POPC   H3Y21640   5.958   3.816   2.760  0.4018 -1.4219  0.0378
  188POPC   C3421641   6.087   3.958   2.853  0.0736  0.1541  1.4193
  188POPC   H4X21642   6.010   4.038   2.863 -1.2767 -0.5985 -1.6069
  188POPC   H4Y21643   6.185   4.007   2.835 -0.9349  1.0149 -2.9345
  188POPC   C3521644   6.095   3.890   2.991  0.1834  0.2072  0.1763
  188POPC   H5X21645   6.122   3.960   3.072 -1.2074  1.1074 -0.0926
  188POPC   H5Y21646   6.170   3.808   2.990 -1.2941 -1.1897 -0.0363
  188POPC   C3621647   5.954   3.827   3.032  0.2318 -0.1374  0.2272
  188POPC   H6X21648   5.936   3.760   2.945  1.5950 -0.2783  0.0276
  188POPC   H6Y21649   5.886   3.914   3.041  4.0075  3.0681  0.5622
  188POPC   C3721650   5.949   3.759   3.172  0.3790 -0.7811  0.3147
  188POPC   H7X21651   6.017   3.671   3.168  0.8692 -0.4271  0.7667
  188POPC   H7Y21652   5.841   3.733   3.186 -0.2573  0.6199 -1.5167
  188POPC   C3821653   5.989   3.833   3.298 -0.3621 -0.2513  0.0520
  188POPC   H8X21654   5.926   3.923   3.309  0.6247  0.5672 -0.7549
  188POPC   H8Y21655   6.094   3.869   3.290 -0.6665  0.8319  0.8030
  188POPC   C3921656   5.962   3.769   3.431 -0.3615 -0.0564 -0.2832
  188POPC   H9X21657   6.034   3.686   3.445  1.2664  0.9887 -1.9969
  188POPC   H9Y21658   5.858   3.730   3.423 -1.0844  1.3413  1.4764
  188POPC  C31021659   5.967   3.879   3.548 -0.1799  0.4346 -0.0734
  188POPC  H10X21660   5.872   3.931   3.523 -0.5928  1.0308  2.4480
  188POPC  H10Y21661   6.051   3.951   3.541 -0.6803  0.9635 -0.7429
  188POPC  C31121662   5.946   3.831   3.692 -0.1304 -0.3908 -0.1814
  188POPC  H11X21663   5.855   3.767   3.705 -0.4669  0.3245  1.1262
  188POPC  H11Y21664   5.939   3.915   3.764 -1.1308 -0.3672 -0.2813
  188POPC  C31221665   6.055   3.748   3.751  0.0360 -0.3272  0.0342
  188POPC  H12X21666   6.144   3.814   3.751  0.0873 -0.3709 -1.4762
  188POPC  H12Y21667   6.072   3.667   3.678 -1.3490  1.2726 -2.2117
  188POPC  C31321668   6.031   3.704   3.902 -0.2923  0.4100  0.1580
  188POPC  H13X21669   5.974   3.609   3.907 -0.5813  0.6578  2.1802
  188POPC  H13Y21670   5.971   3.785   3.949 -0.4310  0.0499  0.6057
  188POPC  C31421671   6.149   3.675   3.991 -0.3952 -0.3633  0.4899
  188POPC  H14X21672   6.236   3.734   3.956 -0.8650 -0.4497 -0.8843
  188POPC  H14Y21673   6.185   3.569   3.985  2.5615  0.4299  2.1377
  188POPC  C31521674   6.126   3.708   4.137  0.5031 -0.1775 -0.4040
  188POPC  H15X21675   6.083   3.619   4.188 -0.6546 -0.3987 -1.7273
  188POPC  H15Y21676   6.062   3.799   4.137  1.0219  0.2072 -1.7253
  188POPC  C31621677   6.261   3.745   4.208  0.4752 -0.4043 -0.4502
  188POPC  H16X21678   6.240   3.773   4.313  2.7134 -0.6875  0.1178
  188POPC  H16Y21679   6.321   3.817   4.148  1.5692 -2.0542 -1.4114
  188POPC  H16Z21680   6.321   3.653   4.217 -0.4439 -0.9405  0.3798
  189SAPI   C1221681   5.517   5.763   6.524 -0.3708 -0.1272  0.9324
  189SAPI    H221682   5.503   5.832   6.438 -0.8889 -1.0811  0.2336
  189SAPI    O221683   5.386   5.727   6.571 -0.1030  0.2728 -0.3930
  189SAPI   HO221684   5.322   5.747   6.502  2.2794 -0.1307 -2.8874
  189SAPI   C1321685   5.580   5.636   6.456 -0.4746  0.6596 -0.3777
  189SAPI    H321686   5.682   5.663   6.424 -0.1338  0.7158  0.7160
  189SAPI    O321687   5.504   5.581   6.351  0.2949  0.2411 -0.1456
  189SAPI   HO321688   5.475   5.651   6.293 -2.3797  0.8216  1.6727
  189SAPI   C1421689   5.605   5.531   6.576 -0.1014 -0.7176  0.2099
  189SAPI    H421690   5.502   5.499   6.601 -0.4741  0.9191  0.9200
  189SAPI    O421691   5.684   5.421   6.525 -0.4740  0.1534  0.6696
  189SAPI   HO421692   5.645   5.335   6.544 -0.7081 -0.1151 -0.8940
  189SAPI   C1521693   5.681   5.604   6.685  0.6095  0.5285 -0.1239
  189SAPI    H521694   5.780   5.628   6.641 -1.0028  0.3845 -4.2631
  189SAPI    O521695   5.698   5.518   6.796 -0.8282  0.3677  0.2319
  189SAPI   HO521696   5.769   5.457   6.773 -0.9761  1.0250 -2.3313
  189SAPI   C1621697   5.634   5.739   6.736  0.4970 -0.1078 -0.1784
  189SAPI    H621698   5.537   5.715   6.785  1.4672 -1.0485  1.3872
  189SAPI    O621699   5.717   5.798   6.838  0.1147 -0.2066  0.5456
  189SAPI   HO621700   5.740   5.889   6.821 -1.8797  0.0881 -0.8488
  189SAPI   C1121701   5.603   5.831   6.624  0.2999  0.0629 -0.0078
  189SAPI    H121702   5.701   5.847   6.573  0.7769  1.5049  1.2963
  189SAPI     P21703   5.618   6.093   6.655  0.1593 -0.3678 -0.2183
  189SAPI   O1321704   5.740   6.071   6.732  0.2503 -0.3408 -0.4444
  189SAPI   O1421705   5.536   6.210   6.690 -0.0618  0.3409  0.0990
  189SAPI   O1221706   5.537   5.950   6.663 -0.4472 -0.9369  0.0120
  189SAPI   O1121707   5.656   6.100   6.497  0.3317  0.2079 -0.8825
  189SAPI    C121708   5.556   6.145   6.413  0.1669  0.2188  1.2143
  189SAPI    HA21709   5.464   6.084   6.428 -0.2497  0.9410  1.6831
  189SAPI    HB21710   5.533   6.253   6.419 -1.8552 -0.0007 -0.9332
  189SAPI    C221711   5.600   6.100   6.266 -0.1800 -0.1557 -0.0511
  189SAPI    HS21712   5.629   5.993   6.268 -0.2727 -0.1710  0.6183
  189SAPI   O2121713   5.711   6.175   6.223  0.2613 -0.9222  0.3879
  189SAPI   C2121714   5.794   6.131   6.129  0.8302 -0.8773 -0.4830
  189SAPI   O2221715   5.777   6.024   6.071  0.1314  0.0235 -0.0190
  189SAPI   C2221716   5.906   6.229   6.106 -0.0207  0.3604  0.7794
  189SAPI   H2R21717   5.867   6.331   6.127 -2.7347  0.0871 -2.1505
  189SAPI   H2S21718   5.984   6.195   6.177 -0.1976  1.0042  1.2897
  189SAPI    C321719   5.479   6.133   6.169 -0.2743 -0.8740 -0.2666
  189SAPI    HX21720   5.443   6.233   6.202  1.6623  1.0847 -3.6013
  189SAPI    HY21721   5.393   6.064   6.176 -2.7970  1.8088 -2.4441
  189SAPI   O3121722   5.509   6.152   6.026  0.2222  0.3411 -0.0798
  189SAPI   C3121723   5.505   6.044   5.954  0.8261 -0.2005  0.3914
  189SAPI   O3221724   5.447   5.940   5.978  0.0005  0.4698 -0.6355
  189SAPI   C3221725   5.586   6.045   5.826  0.7394 -0.0872 -0.1062
  189SAPI   H2X21726   5.646   5.952   5.826 -1.3735 -1.5370  0.7171
  189SAPI   H2Y21727   5.654   6.133   5.830  0.4591  0.1607 -0.7304
  189SAPI   C2321728   5.953   6.228   5.954 -0.0748 -0.3362  0.2362
  189SAPI   H3R21729   5.861   6.265   5.904  0.4147  0.1194 -0.3380
  189SAPI   H3S21730   5.977   6.123   5.928 -0.5462 -1.0377  2.3905
  189SAPI   C2421731   6.075   6.323   5.930 -0.9324  0.5722 -0.2061
  189SAPI   H4R21732   6.085   6.308   5.821 -0.1417 -1.7778  0.1309
  189SAPI   H4S21733   6.162   6.279   5.984 -0.4045  0.8208 -0.8334
  189SAPI   C2521734   6.053   6.473   5.958 -0.5350  0.0822 -0.6095
  189SAPI   H5R21735   6.062   6.490   6.067 -0.8830 -1.4053 -0.3251
  189SAPI   C2621736   6.021   6.573   5.879  0.2831  0.7906  0.0365
  189SAPI   H6R21737   6.021   6.674   5.923  2.8803  1.0689 -0.4539
  189SAPI   C2721738   5.995   6.566   5.734  0.8865 -1.0433  0.9260
  189SAPI   H7R21739   6.080   6.525   5.676  2.5089  1.9756  0.9965
  189SAPI   H7S21740   5.973   6.670   5.703 -1.1560 -2.0922 -1.5713
  189SAPI   C2821741   5.863   6.494   5.701 -0.2378  0.2414  0.3261
  189SAPI   H8R21742   5.782   6.515   5.772 -1.9757  0.7045 -1.7250
  189SAPI   C2921743   5.837   6.405   5.602  0.1104  0.7286  0.0839
  189SAPI   H9R21744   5.734   6.366   5.604  1.0397 -1.8728  0.6544
  189SAPI  C21021745   5.922   6.360   5.486  0.6170 -0.4574 -0.1385
  189SAPI  H10R21746   5.868   6.273   5.443 -0.3220 -0.0139  0.1291
  189SAPI  H10S21747   6.013   6.310   5.526  1.4932  1.4183  0.3532
  189SAPI  C21121748   5.965   6.461   5.381 -0.0948  0.3322 -0.0328
  189SAPI  H11R21749   6.008   6.553   5.423  0.2398  0.2373 -0.1596
  189SAPI  C21221750   5.965   6.457   5.244  0.3883 -0.0760 -0.1461
  189SAPI  H12R21751   6.005   6.537   5.180 -0.4798  1.0266  0.6426
  189SAPI  C21321752   5.912   6.338   5.163 -0.7695  0.7853 -0.0266
  189SAPI  H13R21753   5.854   6.279   5.237 -0.1442  1.8212  1.3315
  189SAPI  H13S21754   5.994   6.274   5.122 -2.3508 -0.9396 -0.6146
  189SAPI  C21421755   5.825   6.372   5.045  0.0092  0.1819  0.4537
  189SAPI  H14R21756   5.719   6.352   5.067 -0.1291  0.0393 -0.3302
  189SAPI  C21521757   5.859   6.430   4.921 -0.3787  0.0116 -0.7717
  189SAPI  H15R21758   5.778   6.460   4.852 -0.5130 -0.4945 -0.8397
  189SAPI  C21621759   5.996   6.469   4.872 -0.2112 -0.3065  0.4803
  189SAPI  H16R21760   6.017   6.414   4.778  2.9863 -0.0914  0.9801
  189SAPI  H16S21761   6.075   6.435   4.942  1.1101  3.7714  1.2380
  189SAPI  C21721762   6.018   6.622   4.850 -0.8111 -0.0912 -0.3724
  189SAPI  H17R21763   6.126   6.642   4.832 -0.1633 -2.3421  0.7104
  189SAPI  H17S21764   6.008   6.672   4.948  0.4155 -0.4569 -0.0418
  189SAPI  C21821765   5.926   6.686   4.748  0.1252 -0.2901  0.0792
  189SAPI  H18R21766   5.953   6.792   4.732  1.2141 -0.6701 -0.8183
  189SAPI  H18S21767   5.831   6.684   4.804 -1.7793 -0.5456 -2.9310
  189SAPI  C21921768   5.915   6.618   4.617  0.0159 -0.6691 -0.1167
  189SAPI  H19R21769   5.875   6.517   4.643  0.7335 -0.4256  2.2744
  189SAPI  H19S21770   6.014   6.620   4.567  0.7683  1.1478  1.3467
  189SAPI  C22021771   5.805   6.673   4.519  0.5833 -0.0844 -0.9665
  189SAPI  H20R21772   5.830   6.776   4.485  0.6024  0.7786  1.4876
  189SAPI  H20S21773   5.708   6.673   4.574 -0.0620  2.0595 -2.0212
  189SAPI  H20T21774   5.791   6.607   4.431  0.3706 -2.0270  0.4497
  189SAPI   C3321775   5.511   6.044   5.693  0.1458 -0.1102 -0.2085
  189SAPI   H3X21776   5.453   6.137   5.677  0.6865  0.3529  0.4907
  189SAPI   H3Y21777   5.441   5.957   5.695 -0.5947  0.4388 -1.4108
  189SAPI   C3421778   5.604   6.037   5.575  0.3562 -0.1403  0.2287
  189SAPI   H4X21779   5.665   5.950   5.608  1.1270  0.5425  0.6120
  189SAPI   H4Y21780   5.671   6.124   5.569 -1.4884  1.4463  1.3371
  189SAPI   C3521781   5.522   6.009   5.447 -0.4609 -0.7484 -0.9643
  189SAPI   H5X21782   5.446   6.090   5.438 -0.7813 -0.7152  1.4021
  189SAPI   H5Y21783   5.471   5.910   5.451 -0.8303 -0.5545 -0.8590
  189SAPI   C3621784   5.606   6.001   5.324 -0.4868 -0.0783  0.2743
  189SAPI   H6X21785   5.671   5.912   5.331 -1.1400 -0.8565 -2.3872
  189SAPI   H6Y21786   5.665   6.095   5.328 -0.3235 -0.2151  3.0073
  189SAPI   C3721787   5.523   5.974   5.200 -0.3772  0.9326 -0.0836
  189SAPI   H7X21788   5.460   6.062   5.177 -0.9757  0.7628  0.8307
  189SAPI   H7Y21789   5.461   5.883   5.211  0.3113  0.3560 -0.8588
  189SAPI   C3821790   5.619   5.944   5.080  0.0930  0.0733 -0.4554
  189SAPI   H8X21791   5.687   5.862   5.111 -1.4183 -2.7201 -3.8925
  189SAPI   H8Y21792   5.678   6.038   5.070 -0.3022  0.3091 -0.5979
  189SAPI   C3921793   5.555   5.891   4.953  0.4333 -0.6285 -0.5905
  189SAPI   H9X21794   5.487   5.970   4.914  1.3379  1.4275  1.7100
  189SAPI   H9Y21795   5.503   5.799   4.986  0.0728  0.0028  0.6696
  189SAPI  C31021796   5.657   5.861   4.844  0.0702  0.6055  0.6315
  189SAPI  H10X21797   5.738   5.796   4.882  1.1570  1.4026 -0.2505
  189SAPI  H10Y21798   5.705   5.957   4.813  1.8720 -0.5155 -0.2291
  189SAPI  C31121799   5.588   5.806   4.716  0.1692 -0.0115 -0.1275
  189SAPI  H11X21800   5.502   5.863   4.674 -0.2923 -0.5819  0.0204
  189SAPI  H11Y21801   5.541   5.710   4.746 -0.8153  1.2437  2.7829
  189SAPI  C31221802   5.692   5.784   4.607  0.4014  0.2175  0.0706
  189SAPI  H12X21803   5.776   5.725   4.650 -0.6078 -2.4485 -1.4020
  189SAPI  H12Y21804   5.730   5.883   4.573 -1.6199  0.9019 -0.3097
  189SAPI  C31321805   5.643   5.690   4.496 -0.3868  0.3048  0.5978
  189SAPI  H13X21806   5.652   5.583   4.526 -3.2182 -0.0926  0.3490
  189SAPI  H13Y21807   5.703   5.710   4.405 -1.3755  2.0503  0.2924
  189SAPI  C31421808   5.499   5.703   4.457  0.2989 -0.0829 -0.8446
  189SAPI  H14X21809   5.488   5.809   4.427 -0.1837  0.2912  0.5663
  189SAPI  H14Y21810   5.426   5.697   4.540 -2.2777 -0.5094 -3.0317
  189SAPI  C31521811   5.453   5.607   4.357  0.0181  0.0009 -0.3182
  189SAPI  H15X21812   5.448   5.504   4.397 -1.9613  0.0037 -0.4438
  189SAPI  H15Y21813   5.533   5.595   4.282  0.5377  0.4379  0.1502
  189SAPI  C31621814   5.332   5.643   4.270 -0.0756 -0.0858 -0.0337
  189SAPI  H16X21815   5.304   5.558   4.204  1.1937 -0.8279  0.3586
  189SAPI  H16Y21816   5.372   5.727   4.209  1.8426 -0.4576  0.6481
  189SAPI  C31721817   5.203   5.678   4.339 -0.8214  0.0568  1.0540
  189SAPI  H17X21818   5.118   5.704   4.271  1.9389  3.8604 -1.3283
  189SAPI  H17Y21819   5.223   5.764   4.407  1.8953 -0.6459  1.2548
  189SAPI  C31821820   5.154   5.564   4.425 -0.3682 -0.2269  0.7828
  189SAPI  H18X21821   5.085   5.503   4.363  0.2848  0.3305 -0.5513
  189SAPI  H18Y21822   5.104   5.600   4.517 -0.1854 -0.4871  0.9866
  189SAPI  H18Z21823   5.243   5.506   4.459 -0.1509 -0.1432  0.3691
  190SAPI   C1221824   0.990   1.441   6.571 -0.0591  0.1989  0.4561
  190SAPI    H221825   0.940   1.400   6.481  1.6901  0.3088 -0.6092
  190SAPI    O221826   1.084   1.344   6.620  0.2948  0.1555 -1.0583
  190SAPI   HO221827   1.078   1.265   6.565 -0.5742 -0.0026 -0.7450
  190SAPI   C1321828   1.056   1.575   6.535 -0.3593 -0.2740  0.0469
  190SAPI    H321829   0.972   1.640   6.501  1.6753  1.7223 -1.3838
  190SAPI    O321830   1.150   1.566   6.428  0.5099 -0.2031 -0.3648
  190SAPI   HO321831   1.217   1.499   6.441 -1.1430 -1.7696  0.5243
  190SAPI   C1421832   1.114   1.641   6.660 -0.6532 -0.4481 -0.3108
  190SAPI    H421833   1.201   1.584   6.699  0.8730  2.5851  1.1159
  190SAPI    O421834   1.173   1.769   6.633  0.1774 -0.7237  0.1696
  190SAPI   HO421835   1.269   1.765   6.630  0.2415  0.7876 -1.2277
  190SAPI   C1521836   1.020   1.648   6.782  0.2470  0.3066  1.4540
  190SAPI    H521837   0.952   1.730   6.753  2.3731  1.9043  0.6839
  190SAPI    O521838   1.086   1.683   6.902 -0.2579 -0.6998  0.2057
  190SAPI   HO521839   1.172   1.641   6.913  0.4267  0.9252  1.5513
  190SAPI   C1621840   0.937   1.523   6.810 -0.1824  0.5471  0.2357
  190SAPI    H621841   0.994   1.435   6.849 -1.2723 -0.2501  0.0774
  190SAPI    O621842   0.827   1.538   6.898  0.4504  0.1372  0.0609
  190SAPI   HO621843   0.788   1.452   6.911  1.2275 -0.3097 -0.4808
  190SAPI   C1121844   0.877   1.472   6.673 -0.1267 -0.4511 -0.6744
  190SAPI    H121845   0.817   1.555   6.630  0.8600  0.6638  0.0473
  190SAPI     P21846   0.649   1.334   6.624 -0.1254 -0.4287  0.0754
  190SAPI   O1321847   0.575   1.451   6.671 -0.1187 -1.0449 -0.3942
  190SAPI   O1421848   0.591   1.198   6.667  0.5457 -0.1215 -0.0163
  190SAPI   O1221849   0.795   1.351   6.687  0.2115  0.0430  0.3419
  190SAPI   O1121850   0.672   1.348   6.468  0.3303  0.1181 -0.3584
  190SAPI    C121851   0.567   1.368   6.378  0.1492  0.7851  0.8854
  190SAPI    HA21852   0.466   1.374   6.425  0.3439 -0.1397  1.4669
  190SAPI    HB21853   0.574   1.461   6.318 -1.3919  1.4757  1.7112
  190SAPI    C221854   0.569   1.257   6.256  0.4880  0.0181 -0.2988
  190SAPI    HS21855   0.466   1.262   6.213  0.5055  0.5979 -0.2800
  190SAPI   O2121856   0.593   1.118   6.294 -0.3903  0.2950 -0.0598
  190SAPI   C2121857   0.503   1.072   6.377  0.2924  0.2306  0.1043
  190SAPI   O2221858   0.400   1.135   6.404  0.3246 -0.3057 -0.0076
  190SAPI   C2221859   0.532   0.929   6.416  0.5718 -0.2476 -0.3079
  190SAPI   H2R21860   0.566   0.922   6.522  0.7277 -0.6071 -0.3794
  190SAPI   H2S21861   0.433   0.882   6.401  0.2207  0.2949  0.2828
  190SAPI    C321862   0.674   1.298   6.142  0.2891 -0.3701  0.4220
  190SAPI    HX21863   0.775   1.296   6.187  0.6003 -1.9482 -0.2679
  190SAPI    HY21864   0.644   1.401   6.112 -0.0419 -0.4961  0.3129
  190SAPI   O3121865   0.659   1.210   6.027  0.6337  0.0666  0.0645
  190SAPI   C3121866   0.736   1.101   6.022  0.2186  0.3555  0.0215
  190SAPI   O3221867   0.828   1.078   6.104  0.4102  0.2369 -0.1084
  190SAPI   C3221868   0.703   1.015   5.898 -0.4556  0.8367  0.7344
  190SAPI   H2X21869   0.595   1.009   5.869 -0.0378 -0.7311 -0.7196
  190SAPI   H2Y21870   0.751   0.916   5.912 -1.6305 -0.5077 -3.1898
  190SAPI   C2321871   0.623   0.849   6.314  0.1033 -0.5050 -0.5710
  190SAPI   H3R21872   0.731   0.875   6.326 -0.3540  1.1362  0.3411
  190SAPI   H3S21873   0.597   0.871   6.209  1.8138 -0.3107 -0.9886
  190SAPI   C2421874   0.602   0.699   6.326  0.4078 -0.2332 -0.5526
  190SAPI   H4R21875   0.612   0.677   6.434  1.0882 -0.9433 -0.7558
  190SAPI   H4S21876   0.682   0.650   6.268  1.8703  1.3837  0.0292
  190SAPI   C2521877   0.466   0.653   6.279  0.3680  0.1704 -0.1811
  190SAPI   H5R21878   0.380   0.685   6.338  0.1533 -2.3201  0.9660
  190SAPI   C2621879   0.441   0.584   6.164 -0.4636  0.6236 -0.2870
  190SAPI   H6R21880   0.335   0.567   6.137 -0.0374 -1.1068 -0.9674
  190SAPI   C2721881   0.550   0.557   6.062  0.9186 -0.2298 -0.2180
  190SAPI   H7R21882   0.612   0.482   6.116 -1.3981 -1.0955  1.3936
  190SAPI   H7S21883   0.616   0.644   6.040  2.9033 -1.3221  1.0479
  190SAPI   C2821884   0.498   0.482   5.944  0.2887  0.0901  0.3012
  190SAPI   H8R21885   0.459   0.383   5.971 -1.9398  1.1580  1.2245
  190SAPI   C2921886   0.486   0.542   5.821 -1.1860  0.4187  0.1918
  190SAPI   H9R21887   0.442   0.491   5.734  0.6544  0.6618 -0.9386
  190SAPI  C21021888   0.536   0.678   5.774 -0.2145  0.2400 -0.5728
  190SAPI  H10R21889   0.636   0.663   5.730  0.1597 -1.0142  0.6503
  190SAPI  H10S21890   0.559   0.751   5.855 -0.1931 -1.0298  0.5923
  190SAPI  C21121891   0.444   0.752   5.678  0.6050  0.1062  0.3911
  190SAPI  H11R21892   0.380   0.825   5.730  1.0350  0.8294 -0.0743
  190SAPI  C21221893   0.458   0.762   5.546  0.3197 -0.7598 -0.3351
  190SAPI  H12R21894   0.386   0.834   5.504 -0.5861  0.5210  3.0916
  190SAPI  C21321895   0.558   0.696   5.455  0.3780  0.6629  0.1521
  190SAPI  H13R21896   0.658   0.701   5.504  1.0718 -1.0535 -0.9692
  190SAPI  H13S21897   0.561   0.758   5.362 -0.7861  0.2802 -0.1553
  190SAPI  C21421898   0.516   0.551   5.436  0.2788  0.0788 -0.1390
  190SAPI  H14R21899   0.553   0.481   5.512 -0.9396  1.5311  1.9038
  190SAPI  C21521900   0.439   0.501   5.340 -0.1609 -0.4029  1.3217
  190SAPI  H15R21901   0.415   0.394   5.342 -1.6137 -0.0922  1.7600
  190SAPI  C21621902   0.374   0.592   5.234 -0.0535  0.8300 -0.5404
  190SAPI  H16R21903   0.429   0.687   5.218 -1.2710  1.4763 -1.0291
  190SAPI  H16S21904   0.267   0.610   5.259  0.6077  0.3292  3.0879
  190SAPI  C21721905   0.379   0.524   5.098 -0.5271  1.2603 -0.0609
  190SAPI  H17R21906   0.472   0.465   5.092 -1.2410  0.1254 -0.3212
  190SAPI  H17S21907   0.389   0.608   5.025  3.5697  1.0787  0.0625
  190SAPI  C21821908   0.267   0.431   5.061 -0.0302  1.1639 -0.0784
  190SAPI  H18R21909   0.260   0.360   5.146  0.8401  0.6083 -0.4518
  190SAPI  H18S21910   0.286   0.381   4.963 -0.5385  1.1084 -0.1499
  190SAPI  C21921911   0.132   0.506   5.038 -0.2780  0.9756  0.0930
  190SAPI  H19R21912   0.133   0.562   4.943  2.0792  1.9973  0.6612
  190SAPI  H19S21913   0.121   0.568   5.129  2.8185  0.4061  0.9677
  190SAPI  C22021914   0.013   0.409   5.030 -0.3155 -0.8509  0.6078
  190SAPI  H20R21915  -0.071   0.475   5.001  0.3660 -0.3675 -0.3350
  190SAPI  H20S21916  -0.009   0.347   5.120 -1.0310 -0.4298  0.7281
  190SAPI  H20T21917   0.031   0.345   4.940  2.8419  0.7472 -0.0709
  190SAPI   C3321918   0.781   1.069   5.776  0.6664 -0.1727  0.3298
  190SAPI   H3X21919   0.885   1.083   5.810  0.4919 -0.9371  1.2220
  190SAPI   H3Y21920   0.728   1.165   5.755 -0.4320 -0.8688 -0.1585
  190SAPI   C3421921   0.768   0.975   5.646 -0.0061 -0.7389 -0.2219
  190SAPI   H4X21922   0.659   0.964   5.626 -0.2644  1.2515 -0.0784
  190SAPI   H4Y21923   0.811   0.877   5.675 -1.2239 -1.0056  0.7513
  190SAPI   C3521924   0.827   1.038   5.524  0.5065  0.1194 -0.6682
  190SAPI   H5X21925   0.922   1.089   5.554  0.3713 -1.0081  1.9337
  190SAPI   H5Y21926   0.757   1.118   5.491 -0.4456 -0.5937 -0.3980
  190SAPI   C3621927   0.852   0.945   5.407 -0.5557  0.7867  0.0601
  190SAPI   H6X21928   0.788   0.855   5.401  0.7592 -0.1799  0.2504
  190SAPI   H6Y21929   0.953   0.899   5.408 -0.2094  1.4873 -1.0280
  190SAPI   C3721930   0.836   1.021   5.278  0.1844  0.0272 -0.1616
  190SAPI   H7X21931   0.907   1.107   5.276  0.8961 -0.5312  0.8025
  190SAPI   H7Y21932   0.737   1.070   5.266  0.0674 -0.5756 -2.1390
  190SAPI   C3821933   0.882   0.945   5.156  0.5184 -0.1126  0.8486
  190SAPI   H8X21934   0.815   0.856   5.151 -1.4218  1.2356  1.6307
  190SAPI   H8Y21935   0.985   0.905   5.163  0.1241 -1.3282  0.0568
  190SAPI   C3921936   0.849   1.021   5.024  0.5671 -0.4100  0.5032
  190SAPI   H9X21937   0.900   1.119   5.011  1.4153 -0.5455  2.5009
  190SAPI   H9Y21938   0.744   1.056   5.017  1.1578  1.1553 -2.0587
  190SAPI  C31021939   0.878   0.938   4.900 -0.1095  0.1272  0.1055
  190SAPI  H10X21940   0.800   0.860   4.887 -0.9459  1.2029 -1.9266
  190SAPI  H10Y21941   0.981   0.897   4.900  1.2881  3.2937 -0.8945
  190SAPI  C31121942   0.864   1.016   4.765  0.2983 -0.2015 -0.1351
  190SAPI  H11X21943   0.877   0.948   4.678  0.5324 -1.2060  0.6572
  190SAPI  H11Y21944   0.935   1.101   4.756 -1.2407  1.1967  0.3779
  190SAPI  C31221945   0.726   1.073   4.740  0.7492  0.4919  0.2335
  190SAPI  H12X21946   0.699   1.146   4.819  3.4143 -0.5291  2.2426
  190SAPI  H12Y21947   0.651   0.991   4.742  1.3897 -0.1903 -1.5406
  190SAPI  C31321948   0.707   1.141   4.600  0.1172  0.4567  0.1845
  190SAPI  H13X21949   0.631   1.082   4.544 -0.0724 -1.0704  1.9719
  190SAPI  H13Y21950   0.803   1.117   4.548  0.1542 -1.2032  0.9456
  190SAPI  C31421951   0.662   1.284   4.590  0.3017  0.1867  0.5108
  190SAPI  H14X21952   0.719   1.352   4.657 -0.9396 -0.5938  2.4419
  190SAPI  H14Y21953   0.554   1.271   4.614 -0.0010  0.6317 -0.5642
  190SAPI  C31521954   0.660   1.345   4.443 -0.7912 -0.5911 -0.2660
  190SAPI  H15X21955   0.747   1.323   4.377  0.2887 -0.3884  1.0365
  190SAPI  H15Y21956   0.657   1.455   4.461  0.4298 -0.7090  0.7773
  190SAPI  C31621957   0.534   1.310   4.370  0.3814 -0.0490  0.1264
  190SAPI  H16X21958   0.512   1.201   4.374  1.4468 -0.2452  1.9762
  190SAPI  H16Y21959   0.558   1.341   4.266  3.6541  1.3989  1.1754
  190SAPI  C31721960   0.406   1.391   4.416 -0.5257  0.0524 -1.3459
  190SAPI  H17X21961   0.444   1.493   4.439  0.4257 -0.0534 -2.3515
  190SAPI  H17Y21962   0.369   1.349   4.512  3.5716  0.1014  0.4577
  190SAPI  C31821963   0.287   1.398   4.326 -0.4028  0.1822  0.7615
  190SAPI  H18X21964   0.306   1.473   4.245  0.7391  0.7349  1.5208
  190SAPI  H18Y21965   0.195   1.425   4.382  0.2913 -0.8338  2.4583
  190SAPI  H18Z21966   0.265   1.296   4.289  0.7256  0.3548 -0.4808
  191SAPI   C1221967   2.998   4.097   2.239  0.6325 -0.2615 -0.0346
  191SAPI    H221968   3.050   4.088   2.141  0.8500  0.1952  0.0372
  191SAPI    O221969   3.096   4.126   2.332  0.2610 -0.2386  0.2957
  191SAPI   HO221970   3.166   4.060   2.334  0.1279 -0.5283 -2.0195
  191SAPI   C1321971   2.904   4.218   2.228 -0.1392 -0.4031  0.5082
  191SAPI    H321972   2.819   4.203   2.158  1.2190  0.8647 -1.5178
  191SAPI    O321973   2.970   4.330   2.177  0.2184 -0.5418  0.3444
  191SAPI   HO321974   3.031   4.363   2.243  1.4406  0.5337 -1.2448
  191SAPI   C1421975   2.845   4.250   2.363 -0.2783  0.3986  0.2441
  191SAPI    H421976   2.928   4.269   2.433  1.1969 -0.6248 -1.1468
  191SAPI    O421977   2.769   4.371   2.360  0.1402  0.4617 -0.1896
  191SAPI   HO421978   2.797   4.428   2.431  0.5879  0.8897 -0.7070
  191SAPI   C1521979   2.770   4.131   2.418 -0.5183 -0.0021 -0.5354
  191SAPI    H521980   2.669   4.144   2.374 -1.4719  0.1844  1.6127
  191SAPI    O521981   2.748   4.140   2.559  0.0508  0.1176  0.0000
  191SAPI   HO521982   2.661   4.107   2.585 -1.7108  4.7613  0.9739
  191SAPI   C1621983   2.815   3.987   2.372  0.2029 -0.2081 -0.3469
  191SAPI    H621984   2.872   3.964   2.465 -0.5839  0.1157  0.2253
  191SAPI    O621985   2.715   3.884   2.371  0.1901 -0.0793  0.2780
  191SAPI   HO621986   2.673   3.873   2.285 -2.4483 -3.8481  1.7471
  191SAPI   C1121987   2.923   3.970   2.268 -0.4908 -0.0196 -0.0556
  191SAPI    H121988   2.868   3.951   2.173 -0.0976 -5.2508  0.4332
  191SAPI     P21989   3.101   3.788   2.179  0.2329 -0.2450 -0.0759
  191SAPI   O1321990   3.060   3.832   2.047 -0.2870 -0.7489  0.0955
  191SAPI   O1421991   3.103   3.641   2.202  0.1928  0.0600  0.3792
  191SAPI   O1221992   3.001   3.854   2.288  0.0641 -0.0952 -0.2521
  191SAPI   O1121993   3.242   3.843   2.229 -0.2526  0.2663 -0.2540
  191SAPI    C121994   3.312   3.785   2.338  0.3623 -0.0811  0.1911
  191SAPI    HA21995   3.345   3.683   2.309 -0.3090  0.7139 -4.1434
  191SAPI    HB21996   3.400   3.850   2.356  1.0322  0.5063 -4.1904
  191SAPI    C221997   3.232   3.769   2.480 -0.0286 -0.0399  0.4125
  191SAPI    HS21998   3.142   3.708   2.457 -0.6493  1.6142 -1.9266
  191SAPI   O2121999   3.193   3.898   2.523  0.5151  0.4872 -0.4181
  191SAPI   C2122000   3.083   3.904   2.599 -0.6859  0.2054  0.2315
  191SAPI   O2222001   3.009   3.811   2.624 -0.1443  0.6204  0.0827
  191SAPI   C2222002   3.076   4.039   2.665  0.7738 -0.5273  0.2519
  191SAPI   H2R22003   3.114   4.119   2.598 -0.0441 -0.5410 -0.2444
  191SAPI   H2S22004   2.970   4.071   2.678  0.7199  0.9447 -2.8968
  191SAPI    C322005   3.314   3.704   2.591  0.3998  0.2714  0.3140
  191SAPI    HX22006   3.397   3.771   2.620 -0.6513  2.4015 -1.3178
  191SAPI    HY22007   3.358   3.611   2.550 -0.3949  0.6278 -1.4174
  191SAPI   O3122008   3.241   3.683   2.711  0.5410  0.4249 -0.5698
  191SAPI   C3122009   3.173   3.566   2.730 -0.0157 -0.0908 -0.2911
  191SAPI   O3222010   3.197   3.466   2.664  0.4597 -0.2339  0.2463
  191SAPI   C3222011   3.075   3.578   2.839  0.2581 -0.3195 -0.6168
  191SAPI   H2X22012   2.985   3.613   2.784  0.4018 -1.2966 -1.5017
  191SAPI   H2Y22013   3.113   3.654   2.911  0.3588 -0.8275 -0.1232
  191SAPI   C2322014   3.161   4.039   2.797  0.9937 -0.5808  0.0880
  191SAPI   H3R22015   3.196   4.142   2.821  1.4468 -0.9575  1.1388
  191SAPI   H3S22016   3.250   3.973   2.790  0.8319 -1.0034  1.5023
  191SAPI   C2422017   3.067   4.001   2.924  0.3609 -0.6861  0.4240
  191SAPI   H4R22018   3.144   3.965   2.996  0.5102  0.3756  0.8116
  191SAPI   H4S22019   3.018   3.911   2.881 -2.6135  1.1558 -0.2989
  191SAPI   C2522020   2.985   4.118   2.973 -0.4192  0.2861 -1.1146
  191SAPI   H5R22021   2.939   4.175   2.890  0.1938  1.6089 -0.5859
  191SAPI   C2622022   2.974   4.152   3.101 -0.9923 -0.5141 -0.6105
  191SAPI   H6R22023   2.916   4.238   3.137 -0.4873 -1.1668  1.9219
  191SAPI   C2722024   3.034   4.082   3.219 -0.6686  0.5367  0.2740
  191SAPI   H7R22025   3.063   3.978   3.194  1.1406  0.8945  0.7471
  191SAPI   H7S22026   2.955   4.057   3.293 -0.9396 -0.1869 -0.2499
  191SAPI   C2822027   3.144   4.166   3.280 -0.5674 -0.7902  0.0821
  191SAPI   H8R22028   3.182   4.251   3.222  1.9478 -0.8421  1.4894
  191SAPI   C2922029   3.185   4.167   3.406  0.8101 -0.5391  0.4152
  191SAPI   H9R22030   3.270   4.225   3.447  0.1997 -0.5392  1.7406
  191SAPI  C21022031   3.143   4.062   3.510 -0.2089 -0.3502 -0.3841
  191SAPI  H10R22032   3.061   3.998   3.471 -2.7908  2.6888 -0.3273
  191SAPI  H10S22033   3.094   4.122   3.590  0.2631  0.7022 -0.8753
  191SAPI  C21122034   3.252   3.970   3.565 -0.1016 -0.5262  0.3427
  191SAPI  H11R22035   3.256   3.865   3.532 -0.6253 -0.9143  1.4482
  191SAPI  C21222036   3.354   4.005   3.643  0.2753  0.3944  0.5093
  191SAPI  H12R22037   3.412   3.927   3.694  1.4070  0.3520 -0.7778
  191SAPI  C21322038   3.375   4.136   3.711  0.1295  0.0978 -0.1966
  191SAPI  H13R22039   3.375   4.123   3.821  1.6453 -1.9790 -0.3778
  191SAPI  H13S22040   3.291   4.201   3.678 -1.3292 -1.9579 -0.7396
  191SAPI  C21422041   3.514   4.199   3.683 -0.1739  0.1501 -0.3107
  191SAPI  H14R22042   3.519   4.235   3.579 -1.2441 -0.4750 -0.5976
  191SAPI  C21522043   3.622   4.195   3.771  0.0861  0.7050  0.5296
  191SAPI  H15R22044   3.718   4.242   3.745  0.4866  0.5202  1.6394
  191SAPI  C21622045   3.628   4.135   3.914 -0.7425  0.4989  0.2296
  191SAPI  H16R22046   3.695   4.047   3.911 -0.5293  0.5968  1.6381
  191SAPI  H16S22047   3.533   4.083   3.940 -0.7510  1.0833  1.4704
  191SAPI  C21722048   3.675   4.232   4.016  0.4834  0.6386 -0.7333
  191SAPI  H17R22049   3.617   4.327   4.015 -0.6520 -0.0092  0.1960
  191SAPI  H17S22050   3.783   4.256   4.008  0.0582  3.7840  1.0981
  191SAPI  C21822051   3.651   4.187   4.164 -0.6352  0.3819  0.0027
  191SAPI  H18R22052   3.663   4.076   4.167  1.3226  0.5827  1.1355
  191SAPI  H18S22053   3.545   4.203   4.193 -0.7675 -1.9233  1.0570
  191SAPI  C21922054   3.749   4.261   4.249  0.1544  0.3974 -1.0591
  191SAPI  H19R22055   3.728   4.370   4.248 -0.9174  0.2541  0.8688
  191SAPI  H19S22056   3.854   4.245   4.219  1.0941  3.0064  0.5245
  191SAPI  C22022057   3.731   4.212   4.394  0.0052 -0.6308  0.3671
  191SAPI  H20R22058   3.822   4.161   4.432  0.3150  0.8463  1.7218
  191SAPI  H20S22059   3.636   4.155   4.401  1.2539 -2.9955 -0.7391
  191SAPI  H20T22060   3.729   4.297   4.466  3.3512 -1.4203  1.5969
  191SAPI   C3322061   3.052   3.445   2.918  0.2591 -0.0143  0.6711
  191SAPI   H3X22062   3.144   3.416   2.973  1.5560 -0.8656 -1.8001
  191SAPI   H3Y22063   3.015   3.366   2.850 -0.4695 -0.3463  1.4300
  191SAPI   C3422064   2.950   3.468   3.025 -0.8134  0.1499  0.4475
  191SAPI   H4X22065   2.928   3.369   3.070  1.8123 -0.6761  0.1063
  191SAPI   H4Y22066   2.857   3.513   2.985 -0.7762  0.0597  0.2569
  191SAPI   C3522067   3.008   3.548   3.140 -0.0489 -0.4454  0.1885
  191SAPI   H5X22068   3.049   3.647   3.111  1.0836 -0.5916  1.2218
  191SAPI   H5Y22069   3.085   3.489   3.194  2.8953  0.3749 -2.8391
  191SAPI   C3622070   2.902   3.567   3.260 -0.5158  0.4080 -0.2476
  191SAPI   H6X22071   2.856   3.482   3.314  0.4010 -0.2216 -0.4394
  191SAPI   H6Y22072   2.817   3.623   3.214 -0.3271  2.7688  2.0149
  191SAPI   C3722073   2.954   3.659   3.377  0.1360 -0.4539 -0.0963
  191SAPI   H7X22074   3.025   3.734   3.336  2.5439 -2.6458 -0.1660
  191SAPI   H7Y22075   3.016   3.595   3.443 -0.6662  0.8726  2.0754
  191SAPI   C3822076   2.832   3.707   3.458  0.1892  0.6037 -0.2616
  191SAPI   H8X22077   2.777   3.615   3.488  1.4675 -0.0205  0.2704
  191SAPI   H8Y22078   2.762   3.767   3.396 -0.6915  0.4893  0.5922
  191SAPI   C3922079   2.867   3.781   3.588  0.7545 -0.1953  0.1156
  191SAPI   H9X22080   2.938   3.862   3.561 -0.7548  1.1865  0.1004
  191SAPI   H9Y22081   2.917   3.709   3.656  0.4495  0.7929  1.4256
  191SAPI  C31022082   2.743   3.832   3.653 -0.1647 -0.1468  0.0936
  191SAPI  H10X22083   2.684   3.740   3.675 -2.2684  1.1143 -0.0217
  191SAPI  H10Y22084   2.684   3.889   3.577 -0.4964  0.0213  0.4743
  191SAPI  C31122085   2.766   3.924   3.774 -0.5763 -0.5088 -0.4800
  191SAPI  H11X22086   2.834   3.892   3.856  0.5144 -0.3495 -1.3069
  191SAPI  H11Y22087   2.665   3.946   3.816 -0.9242 -0.2976 -1.4016
  191SAPI  C31222088   2.825   4.063   3.723 -0.9297 -0.4966  0.1377
  191SAPI  H12X22089   2.748   4.099   3.651  0.9886  2.6463 -0.5299
  191SAPI  H12Y22090   2.904   4.040   3.649  0.0240 -0.9166  1.2678
  191SAPI  C31322091   2.861   4.176   3.819 -0.3046  0.0099  0.6742
  191SAPI  H13X22092   2.773   4.178   3.887 -0.0613 -2.9199  1.2332
  191SAPI  H13Y22093   2.873   4.271   3.764 -2.7261 -0.1691 -0.2642
  191SAPI  C31422094   2.989   4.155   3.901  0.2826  0.2993  0.9790
  191SAPI  H14X22095   3.080   4.186   3.844  2.2368 -2.6947  2.2228
  191SAPI  H14Y22096   2.992   4.046   3.918  0.6801 -0.5529 -3.3576
  191SAPI  C31522097   2.999   4.228   4.032 -1.0083  0.4190 -1.1312
  191SAPI  H15X22098   2.904   4.207   4.087  0.6831 -0.5401  1.6232
  191SAPI  H15Y22099   3.020   4.337   4.024 -1.5305  0.7701  1.4650
  191SAPI  C31622100   3.115   4.172   4.123  0.2412 -0.2754 -0.7948
  191SAPI  H16X22101   3.213   4.174   4.070  0.7634 -1.8594  0.0377
  191SAPI  H16Y22102   3.094   4.064   4.138  2.1414 -0.6665 -0.6420
  191SAPI  C31722103   3.124   4.243   4.254 -0.1130  0.1550 -0.9526
  191SAPI  H17X22104   3.027   4.231   4.306 -0.9033  2.5851 -1.7340
  191SAPI  H17Y22105   3.122   4.354   4.250  1.1006  0.2960  1.0144
  191SAPI  C31822106   3.240   4.194   4.357  0.1397 -0.6404 -0.5568
  191SAPI  H18X22107   3.248   4.270   4.437 -2.5275 -1.5270  0.6902
  191SAPI  H18Y22108   3.333   4.199   4.297 -0.2223 -1.4401 -1.2118
  191SAPI  H18Z22109   3.233   4.089   4.393 -1.8486 -0.9239 -1.6247
  192SAPI   C1222110   4.865   0.014   2.336 -0.2035 -0.2576  0.2487
  192SAPI    H222111   4.798   0.080   2.277  0.7626  1.2397  0.7546
  192SAPI    O222112   4.839  -0.125   2.300  0.2775  0.2811 -0.1662
  192SAPI   HO222113   4.773  -0.138   2.368  0.6022 -0.7854 -0.0347
  192SAPI   C1322114   5.004   0.053   2.283 -0.3659  0.0698  0.1764
  192SAPI    H322115   5.016   0.162   2.294 -1.2951  0.2337 -0.3160
  192SAPI    O322116   5.015   0.030   2.139  0.2898 -0.4393 -0.3392
  192SAPI   HO322117   4.994   0.112   2.093 -0.7956 -0.0038  0.8575
  192SAPI   C1422118   5.119  -0.009   2.354 -0.0662  0.1992 -0.5843
  192SAPI    H422119   5.122  -0.113   2.315 -2.0582 -1.0814  2.2931
  192SAPI    O422120   5.243   0.055   2.330  0.5118  0.3808  0.1095
  192SAPI   HO422121   5.312  -0.004   2.359  0.5219  0.1182 -0.4408
  192SAPI   C1522122   5.098  -0.043   2.509  0.1772 -0.1894  0.1870
  192SAPI    H522123   5.142   0.044   2.561 -0.8790  0.6492 -0.2716
  192SAPI    O522124   5.172  -0.160   2.547 -0.3239 -0.9978 -0.0432
  192SAPI   HO522125   5.263  -0.129   2.557 -0.7982  1.0545 -1.4637
  192SAPI   C1622126   4.951  -0.036   2.563 -0.1217  0.4949 -0.7042
  192SAPI    H622127   4.918  -0.141   2.542 -0.4176  0.3096  0.6240
  192SAPI    O622128   4.936  -0.010   2.702 -0.1733 -0.1840 -0.5276
  192SAPI   HO622129   4.850  -0.050   2.720  0.6415 -1.4765  0.6939
  192SAPI   C1122130   4.849   0.045   2.481 -0.3020 -0.1989 -0.0491
  192SAPI    H122131   4.871   0.153   2.493  0.1562 -0.3696  0.6795
  192SAPI     P22132   4.594   0.130   2.527  0.0142 -0.1179  0.2853
  192SAPI   O1322133   4.461   0.068   2.542  0.1084 -0.1564  0.2081
  192SAPI   O1422134   4.609   0.214   2.405 -0.6104 -0.6524  0.3159
  192SAPI   O1222135   4.720   0.022   2.526  0.3071  0.1500 -0.0353
  192SAPI   O1122136   4.637   0.211   2.650 -0.4638  0.3121 -0.0674
  192SAPI    C122137   4.587   0.190   2.777 -0.2003  1.4423  0.0036
  192SAPI    HA22138   4.510   0.110   2.777 -1.3579  2.5019 -1.3590
  192SAPI    HB22139   4.670   0.150   2.840 -1.1042 -0.1551  0.2432
  192SAPI    C222140   4.526   0.316   2.850 -0.0272 -0.2780 -0.1502
  192SAPI    HS22141   4.436   0.347   2.792 -0.7956 -0.0482  1.1242
  192SAPI   O2122142   4.615   0.422   2.853  0.0638 -0.0276 -0.0551
  192SAPI   C2122143   4.563   0.547   2.831  0.4115 -0.3549 -0.1202
  192SAPI   O2222144   4.447   0.578   2.813  0.4813  0.2887 -0.1144
  192SAPI   C2222145   4.678   0.655   2.863 -0.4517 -0.3223 -0.3349
  192SAPI   H2R22146   4.744   0.656   2.773 -0.3667  3.5541 -0.3792
  192SAPI   H2S22147   4.623   0.751   2.859  0.9509  0.4813 -0.8985
  192SAPI    C322148   4.488   0.291   2.997  1.1413 -0.1275 -0.2044
  192SAPI    HX22149   4.427   0.373   3.040  1.4785 -0.0054  0.0394
  192SAPI    HY22150   4.586   0.282   3.049  0.5281 -2.4916  0.6910
  192SAPI   O3122151   4.405   0.173   2.998  0.4237 -0.0819  0.2498
  192SAPI   C3122152   4.276   0.205   2.977  0.1148 -0.5420 -0.6931
  192SAPI   O3222153   4.226   0.316   2.960 -0.1274  1.0818 -0.0631
  192SAPI   C3222154   4.205   0.076   2.959  0.8222  0.2542  0.4456
  192SAPI   H2X22155   4.264   0.025   2.880 -0.4373  1.5282 -1.4009
  192SAPI   H2Y22156   4.101   0.100   2.926  1.2309  0.1096 -1.0315
  192SAPI   C2322157   4.752   0.629   2.998 -0.3263 -0.2318 -0.4073
  192SAPI   H3R22158   4.787   0.523   3.005 -0.5277 -0.4053 -1.7741
  192SAPI   H3S22159   4.682   0.654   3.081  1.1075 -4.1027  2.2666
  192SAPI   C2422160   4.873   0.732   3.005  0.1728 -0.5017 -0.6999
  192SAPI   H4R22161   4.945   0.701   2.927  0.9059 -2.2070  0.5983
  192SAPI   H4S22162   4.940   0.719   3.092  2.7549  3.5470 -1.7881
  192SAPI   C2522163   4.844   0.881   3.001 -1.1381 -0.0994  0.1265
  192SAPI   H5R22164   4.836   0.918   2.898  0.6589  4.4845  1.3822
  192SAPI   C2622165   4.864   0.966   3.104 -0.4766 -0.0653  0.1778
  192SAPI   H6R22166   4.859   1.074   3.079 -2.0105  0.3103  1.8969
  192SAPI   C2722167   4.898   0.939   3.249  0.0637 -0.0575  0.4721
  192SAPI   H7R22168   4.882   1.030   3.310 -0.3374 -1.0745  1.9433
  192SAPI   H7S22169   5.009   0.928   3.250  0.1150  0.2406 -0.8028
  192SAPI   C2822170   4.830   0.815   3.316  0.0569 -1.2119  0.1581
  192SAPI   H8R22171   4.740   0.785   3.260  0.3122  1.1953 -1.7473
  192SAPI   C2922172   4.864   0.759   3.432 -0.0238  0.1406  0.2862
  192SAPI   H9R22173   4.802   0.685   3.485  1.8560 -0.6679  1.4406
  192SAPI  C21022174   4.980   0.799   3.518  0.4277  0.4028  0.7127
  192SAPI  H10R22175   5.049   0.869   3.467 -1.1263 -0.0395 -2.1958
  192SAPI  H10S22176   5.027   0.699   3.533 -2.6919 -1.2836  0.0023
  192SAPI  C21122177   4.940   0.849   3.652 -1.0597  0.0709  0.3899
  192SAPI  H11R22178   4.945   0.959   3.658  0.5653  0.2788 -2.7433
  192SAPI  C21222179   4.877   0.782   3.758  0.2431  0.8910  0.4295
  192SAPI  H12R22180   4.855   0.834   3.852 -2.1356 -2.3660  1.8455
  192SAPI  C21322181   4.839   0.636   3.755  0.4388  0.2785  0.1590
  192SAPI  H13R22182   4.912   0.585   3.689  0.0063 -0.4224  0.2142
  192SAPI  H13S22183   4.740   0.610   3.712  0.7627 -1.6969  0.5148
  192SAPI  C21422184   4.860   0.591   3.898  0.1786 -0.1479  0.1457
  192SAPI  H14R22185   4.955   0.538   3.919 -0.4267 -0.5052  2.2138
  192SAPI  C21522186   4.764   0.591   3.990 -0.9909  0.5807 -0.2000
  192SAPI  H15R22187   4.805   0.561   4.088 -1.4413  0.5754 -0.0117
  192SAPI  C21622188   4.623   0.647   3.976 -0.1959  0.2553  0.7799
  192SAPI  H16R22189   4.556   0.557   3.974  0.8605 -0.5445  0.6022
  192SAPI  H16S22190   4.625   0.696   3.877 -0.3840 -0.2820  0.5031
  192SAPI  C21722191   4.600   0.749   4.086  0.5507  0.0665 -0.3332
  192SAPI  H17R22192   4.678   0.828   4.079  4.2904 -3.3813 -1.2368
  192SAPI  H17S22193   4.598   0.705   4.188  1.3862  0.1113 -0.2921
  192SAPI  C21822194   4.459   0.808   4.056  0.3733 -0.6597  0.0851
  192SAPI  H18R22195   4.375   0.748   4.098 -0.3107  0.8974  1.0209
  192SAPI  H18S22196   4.443   0.817   3.946  2.2594 -0.1872 -0.1882
  192SAPI  C21922197   4.446   0.955   4.109  0.6753  0.2899  0.2455
  192SAPI  H19R22198   4.523   1.017   4.058 -0.1240 -0.4585 -1.9952
  192SAPI  H19S22199   4.469   0.967   4.217  0.8727 -1.3795  0.4191
  192SAPI  C22022200   4.305   1.006   4.076  0.0431 -0.5047  0.5185
  192SAPI  H20R22201   4.219   0.947   4.116 -0.9499 -0.1793 -1.0291
  192SAPI  H20S22202   4.300   1.018   3.966 -2.5418 -1.1893  0.4767
  192SAPI  H20T22203   4.283   1.105   4.121 -2.2179 -0.5532 -0.3403
  192SAPI   C3322204   4.191   0.000   3.093 -0.1518 -0.0438 -0.8536
  192SAPI   H3X22205   4.297  -0.005   3.125  0.1739 -2.9168 -2.0555
  192SAPI   H3Y22206   4.152  -0.103   3.083 -0.4659  0.0677 -0.8028
  192SAPI   C3422207   4.111   0.083   3.189  0.6977  0.7687  0.2964
  192SAPI   H4X22208   4.005   0.064   3.163  1.8194 -2.7923 -2.4797
  192SAPI   H4Y22209   4.134   0.191   3.185 -1.4639  1.2392 -1.0339
  192SAPI   C3522210   4.143   0.013   3.322 -0.2673  0.0295 -0.0534
  192SAPI   H5X22211   4.253   0.005   3.338 -0.2662 -2.6736 -0.9392
  192SAPI   H5Y22212   4.109  -0.093   3.326 -0.2082 -0.2363 -3.6219
  192SAPI   C3622213   4.081   0.095   3.440 -0.0164 -0.5492  0.6910
  192SAPI   H6X22214   3.991   0.154   3.412 -0.3846 -2.0065 -1.4900
  192SAPI   H6Y22215   4.155   0.173   3.467 -2.5593  1.9528  0.8617
  192SAPI   C3722216   4.057   0.001   3.564 -0.4429 -0.4787 -0.8094
  192SAPI   H7X22217   4.146  -0.033   3.621 -0.8787 -0.7442 -0.2819
  192SAPI   H7Y22218   4.008  -0.093   3.534 -0.1906 -1.2019  0.9611
  192SAPI   C3822219   3.960   0.061   3.671 -0.6467 -0.0371  0.0147
  192SAPI   H8X22220   3.856   0.045   3.634 -0.5085  2.2882 -1.5404
  192SAPI   H8Y22221   3.973   0.170   3.688  0.1607  0.3488 -2.7169
  192SAPI   C3922222   3.982  -0.019   3.812 -1.0715 -0.7289 -0.3865
  192SAPI   H9X22223   3.980  -0.129   3.797 -1.6383 -1.1117  2.0178
  192SAPI   H9Y22224   3.895   0.009   3.875 -0.9290 -1.6499  0.2398
  192SAPI  C31022225   4.115   0.021   3.888  0.1342  0.4864 -0.0938
  192SAPI  H10X22226   4.115   0.132   3.881 -0.7546  0.4330 -1.2411
  192SAPI  H10Y22227   4.202  -0.014   3.827  0.8209  0.1600  1.0403
  192SAPI  C31122228   4.129  -0.032   4.031  0.3846 -0.0345  0.7392
  192SAPI  H11X22229   4.126  -0.143   4.029  0.0882 -0.0157 -0.1797
  192SAPI  H11Y22230   4.048   0.014   4.092  0.2225  0.3491  0.2361
  192SAPI  C31222231   4.269  -0.005   4.095 -0.4444 -0.0896 -0.8771
  192SAPI  H12X22232   4.339  -0.061   4.030 -2.2089 -3.1502 -0.3417
  192SAPI  H12Y22233   4.274  -0.049   4.197  1.6732 -0.0783 -0.9368
  192SAPI  C31322234   4.301   0.141   4.109  0.1281 -0.2908 -0.1693
  192SAPI  H13X22235   4.291   0.193   4.011 -0.8418  3.4225  1.6909
  192SAPI  H13Y22236   4.409   0.145   4.134  0.2443 -0.3945 -0.6619
  192SAPI  C31422237   4.212   0.214   4.217  0.0322 -0.3268  0.3338
  192SAPI  H14X22238   4.230   0.179   4.320 -1.9328  2.8644  1.9388
  192SAPI  H14Y22239   4.107   0.199   4.183  1.2020 -0.8401 -3.6596
  192SAPI  C31522240   4.230   0.369   4.209 -0.2059  0.7179  1.1205
  192SAPI  H15X22241   4.213   0.408   4.107 -1.1415  1.6419  1.6137
  192SAPI  H15Y22242   4.334   0.395   4.240  0.2512  0.0364  0.2000
  192SAPI  C31622243   4.144   0.438   4.314 -0.0473 -0.0075  0.0865
  192SAPI  H16X22244   4.186   0.405   4.412  1.8258  1.2018 -0.2748
  192SAPI  H16Y22245   4.044   0.389   4.304  1.0809 -2.8832  1.5699
  192SAPI  C31722246   4.144   0.586   4.293  0.5124  0.0021 -0.1974
  192SAPI  H17X22247   4.040   0.624   4.305  1.3258  1.4199  3.7206
  192SAPI  H17Y22248   4.186   0.620   4.196  0.1726  0.2500 -0.2579
  192SAPI  C31822249   4.220   0.658   4.412  0.2710  0.4133 -0.0735
  192SAPI  H18X22250   4.153   0.649   4.499  1.1464  0.8271  0.6607
  192SAPI  H18Y22251   4.249   0.765   4.400 -0.9722  0.7725  0.0621
  192SAPI  H18Z22252   4.309   0.596   4.438 -1.3843 -0.6875  3.6881
  193SOD    SOD22253   4.676   4.181   2.017  0.4909  0.0213  0.1885
  194SOD    SOD22254   0.436   5.203   6.590 -0.1291  0.0761  0.1815
  195SOD    SOD22255   6.897   3.417   1.947 -0.5321 -0.2007  0.3493
  196SOD    SOD22256   2.855   6.055   2.244 -0.0205 -0.1569  0.3046
  197SOD    SOD22257   5.796   1.713   2.557 -0.1502  0.0070 -0.0476
  198SOD    SOD22258   5.111   0.667   1.404 -0.1863  0.3878  0.5300
  199SOD    SOD22259   2.212   2.693   7.610  0.4300  0.6310  0.5829
  200SOD    SOD22260   3.529   2.505   6.621  0.3699 -0.5732  0.1766
  201SOD    SOD22261   6.689   2.608   7.681  0.1960 -0.5274 -0.1425
  202SOD    SOD22262   4.074   6.950   2.315 -0.0983 -0.0427 -0.5184
  203SOD    SOD22263   3.806   2.067   1.812  0.1303 -0.1672  0.0233
  204SOD    SOD22264   2.115   1.309   8.303 -0.7282  0.3776  0.3121
  205SOD    SOD22265   0.465   4.068   7.610  0.2155  0.3403 -0.4058
  206SOD    SOD22266   3.905   3.982   6.690  0.1648 -0.3551 -0.2899
  207SOD    SOD22267   1.300   5.880   8.271  0.0609  0.4502  0.3499
  208SOD    SOD22268   5.080   0.525   8.005  0.4163  0.6255 -0.5254
  209SOD    SOD22269   4.993   3.606   2.335  0.2047 -0.0420  0.2194
  210SOD    SOD22270   1.828   4.425   2.385 -0.0415 -0.1339  0.4152
  211SOD    SOD22271   4.368   1.540   0.965  0.5231  0.3835 -0.0783
  212SOD    SOD22272   0.422   5.854   1.496 -0.0037 -0.1999  0.0755
  213SOD    SOD22273   2.071   2.195   0.224  0.2336  0.4424  0.2362
  214SOD    SOD22274   2.707   4.071   6.896  0.1359  0.0902  0.0490
  215SOD    SOD22275   4.048   4.636   7.615 -0.5687 -0.8042 -0.0822
  216SOD    SOD22276   3.942   6.373   6.782 -0.0332  0.4662 -0.4324
  217SOD    SOD22277   1.308   3.050   2.202 -0.8319  0.0972 -0.1766
  218SOD    SOD22278   1.105   5.029   7.393  0.2542 -0.6593  0.4993
  219SOD    SOD22279   2.710   1.678   6.559  0.1380  0.5557  0.2263
  220SOD    SOD22280   6.543   2.153   7.518 -0.1918  0.5933 -0.2217
  221SOD    SOD22281   3.190   2.506   6.078 -0.3700  0.3785 -0.3094
  222SOD    SOD22282   1.995   3.639   0.076 -0.4132  0.0477 -0.0570
  223SOD    SOD22283   4.161   5.351   7.037  0.0479  0.0238 -0.3348
  224SOD    SOD22284   2.278   3.703   1.430 -0.0847  0.2147 -0.2540
  225SOD    SOD22285   4.920   5.691   2.707 -0.3443 -0.3973  0.2089
  226SOD    SOD22286   0.111   0.981   0.955 -0.0597  0.3386 -0.3371
  227SOD    SOD22287   1.984   4.503   6.323  0.2324  0.3275 -0.1756
  228SOD    SOD22288   0.785   1.975   0.933  0.0385 -0.3576  0.2916
  229SOD    SOD22289   6.254   6.037   7.031 -0.5427 -0.0170 -0.2368
  230SOD    SOD22290   4.123   6.566   0.029  0.0818  0.1260  0.3772
  231SOD    SOD22291   6.113   6.568   2.047  0.1950  0.3646  0.5546
  232SOD    SOD22292   4.014   7.011   1.718  0.6298 -0.2070  0.2373
  233SOD    SOD22293   1.194   6.548   6.744 -0.3851  0.3399  0.5217
  234CLA    CLA22294   2.959   5.986   0.692 -0.2000 -0.0461  0.1083
  235CLA    CLA22295   4.307   2.676   1.470  0.0020 -0.4670  0.0261
  236CLA    CLA22296   0.310   5.716   1.691  0.1766  0.3668 -0.1138
  237CLA    CLA22297   5.071   3.689   1.754  0.4387  0.0829  0.1385
  238CLA    CLA22298   5.704   0.535   0.011 -0.0883  0.3657  0.7333
  239CLA    CLA22299   2.304   4.592   1.468 -0.0460  0.0656 -0.1472
  240CLA    CLA22300   2.133   2.594   0.084 -0.4388  0.0812  0.2911
  241CLA    CLA22301   0.281   6.223   6.921  0.1157 -0.0314  0.1163
  242CLA    CLA22302   1.177   6.302   7.919  0.0700  0.1297 -0.4275
  243CLA    CLA22303   6.535   0.152   8.124  0.7183  0.0853  0.4986
  244CLA    CLA22304   4.653   4.186   0.085  0.0329 -0.2498 -0.0531
  245CLA    CLA22305   4.625   6.554   7.637  0.0513 -0.0100  0.3096
  246CLA    CLA22306   5.674   4.233   8.120  0.0305 -0.2620  0.0377
  247CLA    CLA22307   5.255   3.594   0.674  0.2334 -0.2218 -0.2315
  248CLA    CLA22308   2.506   3.810   0.970 -0.0573  0.2028 -0.1992
  249CLA    CLA22309   1.699   1.091   7.932  0.1121 -0.5718 -0.1027
  250CLA    CLA22310   6.101   4.296   1.873  0.3555  0.1710  0.0764
  251TIP3   OH222311   2.502   0.675   7.537  0.3736  0.3079 -0.1394
  251TIP3    H122312   2.594   0.696   7.554  0.6322 -1.1615  0.3899
  251TIP3    H222313   2.454   0.716   7.610  0.6832  0.4003  0.0140
  252TIP3   OH222314   1.458   2.023   0.239  0.5719 -0.3963 -0.2304
  252TIP3    H122315   1.486   1.966   0.311 -1.5340 -1.0299  0.1362
  252TIP3    H222316   1.389   1.974   0.194  0.4109  0.8569 -1.4285
  253TIP3   OH222317   2.524   5.219   0.628  0.2437  0.6107 -0.8026
  253TIP3    H122318   2.611   5.215   0.668 -0.4894  0.3569  0.8499
  253TIP3    H222319   2.514   5.135   0.584 -0.0287 -0.3662  1.0001
  254TIP3   OH222320   1.671   1.979   6.873  0.3846 -0.0287  0.2442
  254TIP3    H122321   1.618   2.048   6.913  0.9913  0.0107  0.9953
  254TIP3    H222322   1.643   1.899   6.917 -0.1431 -0.2368 -0.4531
  255TIP3   OH222323   4.895   4.159   7.626 -0.2039 -0.4605  0.5285
  255TIP3    H122324   4.946   4.215   7.568  0.7972 -0.4101  1.4236
  255TIP3    H222325   4.946   4.078   7.632  0.7879  0.2288  2.8315
  256TIP3   OH222326   5.891   2.634   1.596 -0.1089  0.2074  0.4570
  256TIP3    H122327   5.880   2.662   1.505  0.3768 -0.8588  0.0428
  256TIP3    H222328   5.843   2.698   1.648 -1.9833 -0.1857 -0.6898
  257TIP3   OH222329   6.989   4.773   0.776 -0.3730 -0.2777  0.5453
  257TIP3    H122330   7.050   4.702   0.796 -0.7408  0.3165  4.5771
  257TIP3    H222331   6.903   4.732   0.776 -0.3618 -0.3248 -0.4116
  258TIP3   OH222332   5.952   1.098   1.359 -0.0871  0.0489  0.1881
  258TIP3    H122333   5.889   1.054   1.417 -0.6953  2.0906  1.1991
  258TIP3    H222334   5.899   1.131   1.286  0.1653 -0.0049 -0.0197
  259TIP3   OH222335   4.435   4.537   7.329 -0.3514  0.2436 -0.7029
  259TIP3    H122336   4.475   4.603   7.385 -0.8031 -0.3604  0.3553
  259TIP3    H222337   4.508   4.482   7.300 -0.4464 -1.8536  2.5190
  260TIP3   OH222338   3.081   2.904   1.167 -0.4543 -0.2726  0.2891
  260TIP3    H122339   3.133   2.890   1.245 -0.5676  0.1070  0.4343
  260TIP3    H222340   3.112   2.987   1.131  0.0183 -0.7445 -0.4078
  261TIP3   OH222341   0.375   5.486   1.088 -0.4434  0.0713 -0.1970
  261TIP3    H122342   0.289   5.520   1.113 -1.0071  0.4147 -2.3523
  261TIP3    H222343   0.357   5.432   1.011  1.2984  0.2764 -0.7791
  262TIP3   OH222344   4.020   3.233   2.224  0.1204 -0.0910  0.2581
  262TIP3    H122345   3.989   3.258   2.137 -1.0319 -0.4245  0.5556
  262TIP3    H222346   3.959   3.275   2.284 -0.1280 -1.2795  0.8551
  263TIP3   OH222347   0.469   0.038   1.301  0.4653 -0.2980  0.1610
  263TIP3    H122348   0.546   0.007   1.253  0.9302  2.3227 -0.9786
  263TIP3    H222349   0.396   0.027   1.241  0.6557  0.8126 -0.3042
  264TIP3   OH222350   3.847   5.049   2.588 -0.2285 -0.1424  0.1007
  264TIP3    H122351   3.916   5.109   2.615  0.1892  0.8641 -2.8192
  264TIP3    H222352   3.882   4.962   2.606  0.0522  0.3772  2.3862
  265TIP3   OH222353   0.156   0.044   6.970  0.0375  0.1269 -0.8005
  265TIP3    H122354   0.181   0.009   7.055 -1.3700  2.0374  0.4735
  265TIP3    H222355   0.202  -0.012   6.907  1.8213 -0.8016  1.1908
  266TIP3   OH222356   0.346   5.265   7.662  0.5922 -0.7095  0.4131
  266TIP3    H122357   0.429   5.219   7.654 -1.2215 -4.4866  0.8947
  266TIP3    H222358   0.324   5.259   7.755 -1.0355 -1.5015  0.0160
  267TIP3   OH222359   6.257   0.159   1.785 -0.1660 -0.2932  0.4285
  267TIP3    H122360   6.348   0.184   1.773 -0.2211  0.4769  1.4729
  267TIP3    H222361   6.210   0.207   1.717  0.1183 -0.1585  0.3246
  268TIP3   OH222362   3.400   3.438   1.383 -0.0028 -0.0664  0.7049
  268TIP3    H122363   3.323   3.461   1.332  0.5998  0.7073  0.1107
  268TIP3    H222364   3.381   3.467   1.472  0.5525  2.4897  0.0841
  269TIP3   OH222365   6.918   2.683   7.349  0.5874  0.0405 -0.0048
  269TIP3    H122366   6.855   2.610   7.356  0.0280  0.5821  0.7442
  269TIP3    H222367   6.865   2.761   7.363  1.3571  0.5359  0.1868
  270TIP3   OH222368   0.745   5.448   1.817 -0.0008  0.2088  0.1003
  270TIP3    H122369   0.667   5.411   1.776 -1.0379  2.9286 -0.5520
  270TIP3    H222370   0.773   5.381   1.879 -3.9225 -0.2016  1.7009
  271TIP3   OH222371   5.788   1.420   0.630  0.4931  0.1673 -0.4976
  271TIP3    H122372   5.859   1.357   0.643  1.0299  0.7683 -0.4736
  271TIP3    H222373   5.800   1.451   0.540 -1.1632 -1.4607 -1.3419
  272TIP3   OH222374   1.191   0.585   7.555  0.0079 -0.2003 -0.2127
  272TIP3    H122375   1.142   0.647   7.610  0.2676 -0.6689  0.5573
  272TIP3    H222376   1.141   0.504   7.560 -1.0005  0.2443 -2.1993
  273TIP3   OH222377   5.589   4.560   1.551  0.2475  0.6425  0.0746
  273TIP3    H122378   5.636   4.620   1.608  0.2105  1.3768 -0.6519
  273TIP3    H222379   5.517   4.612   1.516  0.9109  0.5604 -1.4995
  274TIP3   OH222380   6.033   1.825   6.854  0.4706  0.0928 -0.2323
  274TIP3    H122381   6.039   1.764   6.927 -0.0785 -0.2900 -0.4995
  274TIP3    H222382   6.111   1.807   6.801  0.4274 -0.2215 -0.1911
  275TIP3   OH222383   0.735   4.215   1.154 -0.2247  0.3932 -0.1591
  275TIP3    H122384   0.777   4.134   1.125 -1.1575 -0.0926 -0.1831
  275TIP3    H222385   0.795   4.251   1.219  1.8310  1.4200 -2.4766
  276TIP3   OH222386   6.413   6.241   2.063 -0.6067 -0.2521  0.1509
  276TIP3    H122387   6.483   6.261   2.126  0.3366  0.3668 -1.0643
  276TIP3    H222388   6.420   6.147   2.048  0.0112 -0.1826 -0.0100
  277TIP3   OH222389   3.889   3.928   8.149  0.1240 -0.0354  0.2693
  277TIP3    H122390   3.945   4.005   8.161 -0.7533  1.0360 -1.9107
  277TIP3    H222391   3.951   3.854   8.146  1.0914  0.7032  1.1791
  278TIP3   OH222392   5.984   3.873   0.972 -0.0218  0.0183 -0.6182
  278TIP3    H122393   5.922   3.801   0.973 -0.0287  0.0246 -0.4282
  278TIP3    H222394   6.010   3.882   0.881 -0.8915  0.5272 -0.8259
  279TIP3   OH222395   4.187   5.950   0.466 -0.2319 -0.4927  0.0430
  279TIP3    H122396   4.254   5.911   0.521  0.6884  1.1883  0.1922
  279TIP3    H222397   4.235   5.978   0.387 -1.3100 -1.8296 -1.1391
  280TIP3   OH222398   5.878   6.804   2.304 -0.4106  0.1062 -0.5807
  280TIP3    H122399   5.787   6.789   2.330 -0.1824  0.1942  0.2816
  280TIP3    H222400   5.896   6.894   2.331 -0.4173  0.5065 -1.8117
  281TIP3   OH222401   1.963   0.867   7.175  0.1675 -0.5074  0.0828
  281TIP3    H122402   1.920   0.923   7.239  2.6568 -1.0370  2.4099
  281TIP3    H222403   1.923   0.890   7.091 -1.7993  1.7028  1.5187
  282TIP3   OH222404   0.440   1.947   0.730 -0.3623  0.1082 -0.0858
  282TIP3    H122405   0.482   2.026   0.765  0.0903  0.4882 -1.4071
  282TIP3    H222406   0.346   1.964   0.737 -0.2771  0.3398  0.5555
  283TIP3   OH222407   0.438   0.306   7.324  0.0764  0.4494  0.3076
  283TIP3    H122408   0.347   0.322   7.348  0.2449 -0.2388  1.5020
  283TIP3    H222409   0.484   0.385   7.355 -0.0550  0.6301  0.0465
  284TIP3   OH222410   4.005   6.731   7.032 -0.0397  0.0353 -0.5394
  284TIP3    H122411   4.062   6.729   6.955  0.4540 -0.5099 -0.1704
  284TIP3    H222412   4.061   6.703   7.104 -0.7386 -0.3592 -0.1365
  285TIP3   OH222413   5.202   2.523   6.939 -0.3396  0.2532 -0.1693
  285TIP3    H122414   5.242   2.609   6.949  2.4456 -0.8607 -0.7868
  285TIP3    H222415   5.173   2.520   6.848  1.2512 -0.0449 -0.7050
  286TIP3   OH222416   6.437   3.477   0.146 -0.4795  0.6124 -0.8301
  286TIP3    H122417   6.376   3.411   0.115 -0.1962 -0.5745  0.9932
  286TIP3    H222418   6.380   3.544   0.186 -0.6585  0.3448 -0.6340
  287TIP3   OH222419   0.567   0.366   1.679  0.1655 -0.7900  0.1070
  287TIP3    H122420   0.528   0.329   1.600 -1.2796 -0.8697  0.8182
  287TIP3    H222421   0.499   0.424   1.714  1.6114  0.9847  0.1060
  288TIP3   OH222422   0.453   6.045   0.432 -0.7542 -0.6226 -0.1735
  288TIP3    H122423   0.522   6.028   0.497 -0.3112  2.6240  0.4216
  288TIP3    H222424   0.386   5.980   0.451  0.7005 -1.7544  1.4962
  289TIP3   OH222425   6.396   3.644   7.443  0.0336 -0.6666  0.0818
  289TIP3    H122426   6.412   3.739   7.446  2.1567 -0.9445 -0.8326
  289TIP3    H222427   6.434   3.616   7.360 -0.5354 -2.3420  0.3566
  290TIP3   OH222428   1.561   1.547   7.139 -0.5514  0.0530 -0.1045
  290TIP3    H122429   1.625   1.566   7.208 -1.0855 -1.7894  0.9811
  290TIP3    H222430   1.563   1.623   7.082  0.9178  1.0413  1.1977
  291TIP3   OH222431   3.642   0.910   1.606 -0.2220  0.0823 -0.1306
  291TIP3    H122432   3.614   0.926   1.516 -2.1003  0.4474  0.4642
  291TIP3    H222433   3.683   0.823   1.603 -1.3540 -0.4624 -1.1394
  292TIP3   OH222434   1.729   4.655   1.156 -0.4520  0.3684  0.1375
  292TIP3    H122435   1.711   4.743   1.190 -1.1357  0.4735 -0.4888
  292TIP3    H222436   1.811   4.665   1.107 -0.2179  0.5268  0.5541
  293TIP3   OH222437   1.267   5.131   6.228  0.0357 -0.2894  0.8789
  293TIP3    H122438   1.362   5.129   6.243  0.1028  2.4001  1.2585
  293TIP3    H222439   1.246   5.042   6.200  2.8299 -0.7245 -0.2206
  294TIP3   OH222440   1.288   5.777   7.870 -0.3531 -0.2368  0.1873
  294TIP3    H122441   1.229   5.843   7.833 -0.5689 -0.6946 -0.2951
  294TIP3    H222442   1.374   5.820   7.871 -0.3477 -0.1844 -0.8131
  295TIP3   OH222443   5.474   0.891   7.191  0.2122  0.1662 -0.3395
  295TIP3    H122444   5.400   0.949   7.169 -0.8340 -0.8857  0.3372
  295TIP3    H222445   5.544   0.951   7.217 -0.0464  1.2400 -1.9279
  296TIP3   OH222446   5.874   2.693   7.192  0.7143 -0.0674  0.6521
  296TIP3    H122447   5.933   2.678   7.118  0.2081  0.2166  0.1849
  296TIP3    H222448   5.810   2.756   7.159  2.1773  2.3906  2.1841
  297TIP3   OH222449   2.645   3.890   0.088  0.0502  0.1871  0.1256
  297TIP3    H122450   2.727   3.851   0.059  0.0071  0.1048  0.1132
  297TIP3    H222451   2.670   3.951   0.157  0.0576 -0.3142  0.5722
  298TIP3   OH222452   3.177   2.513   5.319  0.3149  0.1698 -0.0608
  298TIP3    H122453   3.169   2.539   5.411  1.4128  0.1449  0.0535
  298TIP3    H222454   3.158   2.419   5.319 -1.5602  0.5231 -0.1569
  299TIP3   OH222455   2.414   1.062   6.629 -0.0843  0.2542  0.2185
  299TIP3    H122456   2.322   1.041   6.611  0.1243 -0.1946 -0.3824
  299TIP3    H222457   2.428   1.147   6.587 -0.7901  1.4231  2.1970
  300TIP3   OH222458   0.701   4.086   6.574 -0.3946 -0.0277 -0.0118
  300TIP3    H122459   0.616   4.076   6.531 -0.4318  0.9506 -0.1809
  300TIP3    H222460   0.763   4.100   6.503 -0.5388  2.1339  0.2267
  301TIP3   OH222461   3.930   6.162   6.655 -0.4258  0.1624  0.5577
  301TIP3    H122462   3.993   6.124   6.594 -0.2168  0.7243  0.4149
  301TIP3    H222463   3.846   6.156   6.609 -0.5421 -0.8453  0.8627
  302TIP3   OH222464   6.072   5.552   7.747 -0.0978  0.1488  0.3567
  302TIP3    H122465   6.125   5.618   7.791  0.4147  0.1874 -0.2975
  302TIP3    H222466   6.105   5.469   7.780  0.7814  0.1521 -0.4778
  303TIP3   OH222467   5.085   5.797   8.072 -0.4332 -0.9227  0.1014
  303TIP3    H122468   5.155   5.760   8.019 -0.8608  1.5512 -2.3983
  303TIP3    H222469   5.118   5.881   8.101 -1.7099 -0.4950  0.3757
  304TIP3   OH222470   1.759   0.421   6.750 -0.5506  0.1164  0.7074
  304TIP3    H122471   1.678   0.430   6.800 -0.3231  0.4485  1.0218
  304TIP3    H222472   1.743   0.347   6.691 -0.9127 -0.1138  1.0898
  305TIP3   OH222473   6.418   0.264   0.540 -0.1534 -0.0043 -0.4409
  305TIP3    H122474   6.425   0.174   0.508 -1.5688 -0.7113  1.0961
  305TIP3    H222475   6.429   0.257   0.635 -2.9050  1.0333  0.0564
  306TIP3   OH222476   1.548   1.600   7.509 -0.0405 -0.2781  0.0318
  306TIP3    H122477   1.629   1.644   7.486  0.4211  0.4930  2.7741
  306TIP3    H222478   1.569   1.507   7.509  1.2971 -0.0305  2.0037
  307TIP3   OH222479   3.344   4.755   2.618  0.0304  0.0220 -0.3756
  307TIP3    H122480   3.408   4.782   2.552  0.0261 -0.5300 -0.6111
  307TIP3    H222481   3.317   4.667   2.591 -1.9434  0.7945 -1.1199
  308TIP3   OH222482   3.566   3.224   1.961 -0.1120  0.0693  0.1329
  308TIP3    H122483   3.528   3.217   1.874  0.7863 -0.2795 -0.2433
  308TIP3    H222484   3.534   3.148   2.009  0.4603 -0.4644 -0.3220
  309TIP3   OH222485   3.129   4.675   1.771  0.3048  0.4251 -0.3264
  309TIP3    H122486   3.079   4.599   1.802 -0.7557  1.0054 -0.5424
  309TIP3    H222487   3.112   4.742   1.837 -0.2370  1.0180 -1.0523
  310TIP3   OH222488   5.800   5.556   1.934 -0.1673 -0.5236 -0.0888
  310TIP3    H122489   5.727   5.618   1.935 -0.3961 -0.7852  1.3851
  310TIP3    H222490   5.823   5.544   2.026  3.0302  1.0563 -0.5444
  311TIP3   OH222491   2.936   5.473   0.766 -0.3711 -0.1487  0.0711
  311TIP3    H122492   2.964   5.384   0.791  0.0154  0.0262  0.2714
  311TIP3    H222493   3.006   5.504   0.708  0.9961  1.1004  2.2616
  312TIP3   OH222494   4.469   3.592   7.283 -0.2995  0.4129  0.4939
  312TIP3    H122495   4.438   3.595   7.374 -0.8049  1.1871  0.2974
  312TIP3    H222496   4.472   3.498   7.263  2.4407  0.0127  2.1823
  313TIP3   OH222497   2.305   6.230   0.061 -0.4434  0.2269 -0.1338
  313TIP3    H122498   2.300   6.172   0.137  0.3520  0.8344  0.3973
  313TIP3    H222499   2.367   6.298   0.087 -1.9688  1.7977 -0.4312
  314TIP3   OH222500   3.167   0.654   7.609 -0.0602 -0.2892  0.3417
  314TIP3    H122501   3.150   0.637   7.517  0.7088  0.4059  0.0617
  314TIP3    H222502   3.249   0.606   7.627  0.1183  0.0766  0.5060
  315TIP3   OH222503   6.230   2.080   6.615  0.3577  0.6257 -0.1237
  315TIP3    H122504   6.244   1.987   6.633 -2.0914  0.5377  1.8386
  315TIP3    H222505   6.278   2.096   6.534  2.5630 -1.8254  0.5606
  316TIP3   OH222506   3.500   2.318   6.804 -0.3827 -0.4268 -0.1039
  316TIP3    H122507   3.416   2.361   6.819 -0.8549 -1.6249  0.8343
  316TIP3    H222508   3.550   2.333   6.885  0.3414  0.3075 -0.6650
  317TIP3   OH222509   4.814   5.585   0.786 -0.3076  0.2158 -0.0017
  317TIP3    H122510   4.827   5.556   0.876  1.2482  0.8566  0.0268
  317TIP3    H222511   4.840   5.510   0.732  3.6839  1.2716  0.0677
  318TIP3   OH222512   3.997   2.535   0.312 -0.3491 -0.2470 -0.4765
  318TIP3    H122513   3.919   2.569   0.268 -0.1708  0.1708 -0.4738
  318TIP3    H222514   3.980   2.442   0.322 -0.7179 -0.2116 -0.7520
  319TIP3   OH222515   0.462   0.421   7.645 -1.1238  0.2354 -0.1843
  319TIP3    H122516   0.394   0.370   7.688 -0.8270 -0.1861 -0.1984
  319TIP3    H222517   0.458   0.507   7.685 -1.2825  0.0398  0.2210
  320TIP3   OH222518   0.633   6.668   1.630 -0.4934  0.5529 -0.4608
  320TIP3    H122519   0.693   6.724   1.679  0.1350 -0.4341 -0.0669
  320TIP3    H222520   0.577   6.729   1.583  1.5885  1.5352 -1.8168
  321TIP3   OH222521   6.327   3.119   6.666  0.2812  0.1453 -0.1209
  321TIP3    H122522   6.343   3.202   6.621 -1.5381  0.6184  0.0313
  321TIP3    H222523   6.248   3.084   6.625  0.8813 -1.4267 -0.0225
  322TIP3   OH222524   5.199   4.254   1.632 -0.2941  0.1625  0.6338
  322TIP3    H122525   5.230   4.324   1.690  0.8860  1.1728 -1.1143
  322TIP3    H222526   5.250   4.177   1.658  0.0367  0.5330  1.1107
  323TIP3   OH222527   2.975   5.543   1.200 -0.0464 -0.2786 -0.0886
  323TIP3    H122528   2.924   5.623   1.188 -0.8973 -1.0808 -2.2156
  323TIP3    H222529   2.915   5.483   1.245 -0.6833 -0.8548 -1.6279
  324TIP3   OH222530   5.301   3.073   1.489 -0.6344 -0.5560  0.2082
  324TIP3    H122531   5.351   3.153   1.476  1.5710 -1.9343 -0.4603
  324TIP3    H222532   5.223   3.084   1.434  0.9323  0.0781 -2.0551
  325TIP3   OH222533   4.723   2.853   7.421 -0.1823  0.1447 -0.0939
  325TIP3    H122534   4.810   2.891   7.410 -0.6235  1.3610  0.4313
  325TIP3    H222535   4.663   2.917   7.383 -0.8431 -0.7921 -0.6761
  326TIP3   OH222536   3.363   6.272   0.188 -0.4232 -0.5494 -0.6114
  326TIP3    H122537   3.339   6.332   0.259 -1.2332 -0.6310 -0.8091
  326TIP3    H222538   3.452   6.244   0.210 -0.3093  0.1603 -0.1338
  327TIP3   OH222539   2.801   4.824   1.709 -0.3125 -0.3324  0.1493
  327TIP3    H122540   2.777   4.745   1.661 -3.0858  0.0558  0.7703
  327TIP3    H222541   2.805   4.797   1.800  1.3478 -0.2658  0.1358
  328TIP3   OH222542   2.601   6.712   0.442  0.8114 -0.8176  0.3654
  328TIP3    H122543   2.622   6.659   0.365  0.1603 -0.5640  0.0100
  328TIP3    H222544   2.508   6.696   0.458  1.0967 -1.4712  1.5699
  329TIP3   OH222545   2.546   0.511   2.615  0.3605 -0.0284 -0.1895
  329TIP3    H122546   2.520   0.419   2.616 -0.0565  0.0747 -0.8977
  329TIP3    H222547   2.492   0.553   2.681  0.6890 -0.3197  0.2746
  330TIP3   OH222548   1.299   5.461   7.489 -0.1474  0.0656  0.2045
  330TIP3    H122549   1.284   5.516   7.566  0.3582  0.0194  0.3441
  330TIP3    H222550   1.250   5.503   7.419 -2.0513 -0.8153  0.9125
  331TIP3   OH222551   5.092   0.990   8.138 -0.0391  0.5515 -0.3374
  331TIP3    H122552   5.085   1.078   8.102  0.9928  1.0924  0.7387
  331TIP3    H222553   5.009   0.975   8.182 -0.6721  0.5166 -1.4930
  332TIP3   OH222554   6.635   0.776   7.859 -0.4175  0.1368  0.0869
  332TIP3    H122555   6.576   0.717   7.907  0.0070 -0.6934 -0.3881
  332TIP3    H222556   6.577   0.828   7.803 -0.6506 -1.5770 -1.3561
  333TIP3   OH222557   2.767   4.217   7.385  0.1583 -0.6503 -0.5227
  333TIP3    H122558   2.751   4.312   7.386  2.9931 -0.0791  1.1865
  333TIP3    H222559   2.686   4.179   7.420  0.7100  1.6277  3.9623
  334TIP3   OH222560   5.301   1.025   2.730 -0.0979  0.3986  0.0375
  334TIP3    H122561   5.238   0.956   2.707  0.3188  0.0539 -0.0711
  334TIP3    H222562   5.267   1.103   2.686  0.2455 -0.0709 -1.1105
  335TIP3   OH222563   5.306   3.308   7.698 -0.1648  0.8174 -0.1083
  335TIP3    H122564   5.383   3.351   7.660 -1.1826  2.3387 -0.5504
  335TIP3    H222565   5.334   3.283   7.786  1.2250  0.1357 -0.6979
  336TIP3   OH222566   0.511   5.007   0.114  0.0991 -0.2381  0.2467
  336TIP3    H122567   0.550   5.018   0.201 -0.1094  0.2252  0.2884
  336TIP3    H222568   0.538   5.086   0.067  0.0504 -0.3972 -0.0477
  337TIP3   OH222569   2.554   1.541   1.659  0.0618 -0.0956  0.0013
  337TIP3    H122570   2.544   1.558   1.566 -0.4607  0.9567  0.2342
  337TIP3    H222571   2.517   1.618   1.702 -0.9926 -1.1707  1.1110
  338TIP3   OH222572   6.199   6.500   8.168 -0.6988  0.3154  0.3399
  338TIP3    H122573   6.230   6.456   8.089 -2.7909 -0.0195 -0.3683
  338TIP3    H222574   6.204   6.434   8.236  0.1348  0.2817  0.2474
  339TIP3   OH222575   0.393   3.417   1.548  0.0138  0.7250  0.5723
  339TIP3    H122576   0.459   3.411   1.617  0.8516 -1.6212 -0.3351
  339TIP3    H222577   0.318   3.369   1.581 -0.7498  2.1599  1.0121
  340TIP3   OH222578   4.995   5.159   7.524  0.4718 -0.1024  0.1344
  340TIP3    H122579   4.984   5.068   7.554  1.4298  0.3431  1.9287
  340TIP3    H222580   5.088   5.178   7.536  0.6704  0.5756 -1.9624
  341TIP3   OH222581   2.248   4.120   1.654  0.3725  0.3734 -0.2333
  341TIP3    H122582   2.296   4.187   1.606  1.8601 -1.4503 -1.4773
  341TIP3    H222583   2.163   4.115   1.611  0.9590  0.1675 -1.4129
  342TIP3   OH222584   2.407   3.511   1.023 -0.0432 -0.3475 -0.5767
  342TIP3    H122585   2.413   3.605   1.008 -1.1618 -0.5506 -2.6409
  342TIP3    H222586   2.488   3.476   0.987 -0.0434 -0.2610 -0.6624
  343TIP3   OH222587   4.729   5.933   0.076 -0.1995 -0.3937 -0.2750
  343TIP3    H122588   4.809   5.882   0.083 -1.0033 -1.5051  1.2080
  343TIP3    H222589   4.734   5.997   0.147 -1.5138 -1.8117  1.1659
  344TIP3   OH222590   6.949   1.319   1.633 -0.2110 -0.2763 -0.5918
  344TIP3    H122591   6.880   1.253   1.626 -0.5608  0.2585 -3.2322
  344TIP3    H222592   6.903   1.402   1.641 -0.0420  0.2076 -3.4945
  345TIP3   OH222593   6.329   2.108   6.337  0.3391 -0.2424 -0.6506
  345TIP3    H122594   6.348   2.150   6.253 -1.7793 -1.9519 -2.0867
  345TIP3    H222595   6.234   2.091   6.334 -0.3210  1.6802  3.0899
  346TIP3   OH222596   5.410   6.737   7.089 -0.9756  0.8880 -0.7544
  346TIP3    H122597   5.482   6.782   7.132  0.4931 -0.6921 -1.4376
  346TIP3    H222598   5.357   6.807   7.050  0.2466  2.0809 -0.3330
  347TIP3   OH222599   4.747   7.000   1.362  0.1556  0.5369 -0.3256
  347TIP3    H122600   4.798   6.962   1.290  0.1026  0.6093 -0.4000
  347TIP3    H222601   4.799   6.979   1.440 -0.3817 -0.5959 -0.2505
  348TIP3   OH222602   2.709   3.981   1.476  0.1729  0.2322  0.7478
  348TIP3    H122603   2.688   4.059   1.528 -0.1609  2.1271 -1.9506
  348TIP3    H222604   2.755   4.016   1.399  1.3352 -2.4428  0.1031
  349TIP3   OH222605   4.634   3.376   7.163  0.2839 -0.3815 -0.2430
  349TIP3    H122606   4.656   3.288   7.133 -2.0596 -1.3716  0.6804
  349TIP3    H222607   4.717   3.413   7.193  1.5222 -1.8158 -1.6871
  350TIP3   OH222608   3.409   0.501   1.262 -0.1214 -0.1942 -0.0119
  350TIP3    H122609   3.321   0.478   1.231 -0.0756 -2.0533  1.0681
  350TIP3    H222610   3.428   0.585   1.220 -1.7293 -0.5485 -1.5836
  351TIP3   OH222611   2.866   1.237   1.521  0.5250 -0.0027  0.4127
  351TIP3    H122612   2.856   1.325   1.558 -0.7942  0.0650 -0.0310
  351TIP3    H222613   2.945   1.242   1.468  1.1213  0.5707  1.3282
  352TIP3   OH222614   2.625   4.182   1.624 -0.4468 -0.6044 -0.2912
  352TIP3    H122615   2.670   4.249   1.675  0.1948 -2.4918  1.8119
  352TIP3    H222616   2.552   4.227   1.583 -0.6984  1.1929  1.9323
  353TIP3   OH222617   2.336   5.142   1.967 -0.5965  0.8921  0.2088
  353TIP3    H122618   2.262   5.195   1.996 -0.2949  1.8053 -0.5901
  353TIP3    H222619   2.396   5.206   1.927 -0.6227 -0.1473 -1.6209
  354TIP3   OH222620   4.316   1.889   1.460  1.0151 -0.2720  0.7580
  354TIP3    H122621   4.249   1.875   1.393  1.0059  0.9614  0.4813
  354TIP3    H222622   4.334   1.983   1.456  2.4443 -0.5046  1.1353
  355TIP3   OH222623   1.864   4.046   7.227 -0.0880 -0.4141  0.1855
  355TIP3    H122624   1.785   4.025   7.277  0.5429 -0.8353  1.0400
  355TIP3    H222625   1.878   4.139   7.241 -0.2062 -0.4246  0.3741
  356TIP3   OH222626   4.071   0.911   0.464 -0.7595 -0.1245 -0.4389
  356TIP3    H122627   4.102   0.929   0.375  0.1612 -0.2613 -0.1525
  356TIP3    H222628   4.118   0.832   0.491  1.6620  1.7793  1.4333
  357TIP3   OH222629   0.130   1.095   7.157  0.3488  0.0034  0.3922
  357TIP3    H122630   0.103   1.092   7.248 -2.4869 -0.6949 -0.3579
  357TIP3    H222631   0.061   1.047   7.110  0.6735  1.9276 -2.3113
  358TIP3   OH222632   5.653   6.761   1.152  0.2771 -0.8627 -0.4136
  358TIP3    H122633   5.701   6.829   1.200 -0.3321 -1.4773  1.1548
  358TIP3    H222634   5.574   6.747   1.204  0.1018 -2.3323 -1.0257
  359TIP3   OH222635   1.817   6.491   6.739  0.3272 -0.2499  0.6790
  359TIP3    H122636   1.788   6.580   6.719  0.7992 -0.1175  0.5812
  359TIP3    H222637   1.903   6.483   6.697  0.0533 -0.9318  0.2280
  360TIP3   OH222638   4.721   3.558   0.435  0.2621  0.3040  0.0429
  360TIP3    H122639   4.710   3.465   0.456  1.9022 -0.0523 -0.4813
  360TIP3    H222640   4.724   3.601   0.521  2.6010 -0.5801  0.5032
  361TIP3   OH222641   6.187   4.057   0.499  0.3233  0.5361 -0.1366
  361TIP3    H122642   6.278   4.078   0.478  0.3561  0.5687  0.0355
  361TIP3    H222643   6.143   4.053   0.414  0.3045  1.3525 -0.1750
  362TIP3   OH222644   4.825   1.633   7.150 -0.4716  0.0482  0.3206
  362TIP3    H122645   4.859   1.672   7.231  0.1397  1.7503 -0.6881
  362TIP3    H222646   4.749   1.583   7.177 -1.2680  1.9271  1.7545
  363TIP3   OH222647   1.009   2.753   7.000 -0.3997 -0.4436 -0.7072
  363TIP3    H122648   1.030   2.731   6.909  0.5692 -0.2369 -0.5446
  363TIP3    H222649   1.007   2.849   7.001  2.0938 -0.3463 -0.0027
  364TIP3   OH222650   3.095   1.107   0.828  0.2984 -0.1917  0.5240
  364TIP3    H122651   3.149   1.092   0.751 -0.3781  0.0871 -0.0152
  364TIP3    H222652   3.018   1.052   0.815  0.8119 -1.2438  1.6885
  365TIP3   OH222653   3.775   1.699   1.631  0.3129 -0.1118  0.1871
  365TIP3    H122654   3.860   1.656   1.635  0.9524  1.0295 -0.4453
  365TIP3    H222655   3.712   1.628   1.619  1.3306 -0.8664 -0.8900
  366TIP3   OH222656   2.201   0.140   8.257 -0.1858  0.6318 -0.4257
  366TIP3    H122657   2.166   0.083   8.325 -0.7948  2.2987  0.7399
  366TIP3    H222658   2.158   0.113   8.176 -1.2896  0.1734  0.3049
  367TIP3   OH222659   1.285   3.401   1.051 -0.0090 -0.3722 -0.6998
  367TIP3    H122660   1.281   3.305   1.045 -0.5507 -0.3688 -0.4408
  367TIP3    H222661   1.356   3.418   1.112  0.7439 -0.5800 -1.4928
  368TIP3   OH222662   6.820   4.253   8.119  0.2878  0.2278 -0.4505
  368TIP3    H122663   6.806   4.169   8.077 -2.1791 -0.0369  0.7443
  368TIP3    H222664   6.741   4.303   8.101  0.2163  0.9976  1.7290
  369TIP3   OH222665   6.164   4.829   7.989 -0.6768 -0.0965 -0.1376
  369TIP3    H122666   6.169   4.755   8.050 -3.0634 -0.1804  0.0370
  369TIP3    H222667   6.153   4.788   7.903  0.2377  0.0593 -0.3414
  370TIP3   OH222668   0.970   0.820   2.239 -0.0599  0.6644 -0.1485
  370TIP3    H122669   0.876   0.818   2.257 -0.2762 -1.3518 -1.1977
  370TIP3    H222670   0.995   0.728   2.235  1.3994  1.0799 -2.6009
  371TIP3   OH222671   4.620   0.705   0.938  0.7023  0.1003 -0.3974
  371TIP3    H122672   4.534   0.746   0.943  0.5064  0.1224 -2.8308
  371TIP3    H222673   4.602   0.613   0.917  1.2612 -0.1069  0.0002
  372TIP3   OH222674   6.880   4.407   2.658  0.1172 -0.8124  0.2468
  372TIP3    H122675   6.810   4.473   2.659  1.0859  0.4347 -2.8139
  372TIP3    H222676   6.908   4.400   2.749 -1.9034  0.9417  1.0798
  373TIP3   OH222677   4.608   0.935   1.901 -0.1493 -0.2119  0.0440
  373TIP3    H122678   4.689   0.971   1.864 -0.3889 -0.5315 -0.8262
  373TIP3    H222679   4.556   1.012   1.925  0.0817  0.0069 -0.1478
  374TIP3   OH222680   4.194   4.924   2.775 -0.4772  0.5966 -0.6610
  374TIP3    H122681   4.278   4.922   2.730 -0.5014  0.7686 -0.7164
  374TIP3    H222682   4.195   5.007   2.823 -0.3436  0.2974 -0.1362
  375TIP3   OH222683   6.259   5.380   7.895  0.0456  0.1482  0.6764
  375TIP3    H122684   6.345   5.386   7.854 -1.1023 -0.3681 -2.0244
  375TIP3    H222685   6.241   5.286   7.900 -0.5080  0.2633  0.9459
  376TIP3   OH222686   2.427   1.479   0.907  0.1294 -0.2007  0.1617
  376TIP3    H122687   2.456   1.397   0.948 -0.5527 -0.0167  1.0401
  376TIP3    H222688   2.477   1.483   0.825 -0.1098 -1.6925 -0.0973
  377TIP3   OH222689   4.322   5.393   1.453 -0.0184  0.4218  0.3869
  377TIP3    H122690   4.388   5.388   1.522  0.2958 -0.7796  0.0176
  377TIP3    H222691   4.250   5.338   1.484  1.3581 -2.7036 -1.5006
  378TIP3   OH222692   0.571   5.117   7.599  0.0457 -0.1098 -0.1746
  378TIP3    H122693   0.549   5.029   7.567 -0.5481 -0.0998  0.2052
  378TIP3    H222694   0.648   5.103   7.656  0.0665 -0.3566 -0.2634
  379TIP3   OH222695   3.281   5.274   0.195  0.2547  0.7101 -0.0502
  379TIP3    H122696   3.231   5.288   0.114 -2.3115  1.3314  1.5208
  379TIP3    H222697   3.236   5.201   0.238  1.7744  0.1692  0.6992
  380TIP3   OH222698   4.753   2.322   7.900 -0.3339 -0.2178  0.2470
  380TIP3    H122699   4.790   2.260   7.837 -2.6666 -1.6573  0.1549
  380TIP3    H222700   4.729   2.398   7.847 -0.8019 -0.7565 -0.3280
  381TIP3   OH222701   0.876   4.908   0.139  0.1497  0.0315  0.0844
  381TIP3    H122702   0.788   4.872   0.127 -0.2472  1.3511 -1.2174
  381TIP3    H222703   0.915   4.907   0.052  0.6981  1.2008  0.2935
  382TIP3   OH222704   4.169   3.503   7.377  0.1555  0.3140 -0.0716
  382TIP3    H122705   4.147   3.417   7.414 -0.1673  0.4865  0.1502
  382TIP3    H222706   4.233   3.540   7.438  1.0190 -0.1540 -0.6728
  383TIP3   OH222707   6.286   4.550   2.032  0.3602 -0.1418 -0.2683
  383TIP3    H122708   6.359   4.535   2.093  0.0366 -0.9335 -0.0560
  383TIP3    H222709   6.256   4.462   2.010  0.2597  0.1416 -1.3239
  384TIP3   OH222710   6.916   2.657   7.655 -0.4842 -0.1689 -0.0092
  384TIP3    H122711   6.995   2.603   7.658 -0.5939 -0.3054  1.0232
  384TIP3    H222712   6.947   2.747   7.646 -0.2005 -0.2190  0.4382
  385TIP3   OH222713   0.012   4.248   7.894  0.7160 -0.0989 -0.1047
  385TIP3    H122714   0.056   4.170   7.860 -0.2819 -0.5136 -0.4927
  385TIP3    H222715  -0.070   4.252   7.844 -0.5196 -0.3662  1.8164
  386TIP3   OH222716   0.722   1.724   1.495 -0.2385  0.3270 -0.2005
  386TIP3    H122717   0.780   1.717   1.570 -0.2751 -1.3188 -0.2708
  386TIP3    H222718   0.639   1.688   1.526 -0.2255 -0.4609 -1.0260
  387TIP3   OH222719   4.237   5.748   0.809  0.2766  0.8087  0.2586
  387TIP3    H122720   4.264   5.681   0.747 -0.6427 -0.0465  0.7574
  387TIP3    H222721   4.316   5.770   0.858  0.5293 -0.0611  0.2423
  388TIP3   OH222722   0.934   6.588   0.290 -0.2247 -0.3273 -0.0292
  388TIP3    H122723   0.934   6.598   0.195  0.6521 -0.3506 -0.0444
  388TIP3    H222724   0.936   6.494   0.305  1.2269 -0.3261 -0.0289
  389TIP3   OH222725   4.621   2.166   2.090 -0.0745  0.2051  0.4938
  389TIP3    H122726   4.709   2.128   2.099 -0.3279 -0.5204  0.0040
  389TIP3    H222727   4.569   2.121   2.156 -0.0314  0.8050  0.9449
  390TIP3   OH222728   4.015   6.047   8.125  0.3796 -0.0239  0.1127
  390TIP3    H122729   4.086   6.112   8.123 -0.5869  1.0823 -2.2875
  390TIP3    H222730   3.935   6.099   8.123 -0.4886 -1.2754  1.0247
  391TIP3   OH222731   3.006   0.317   0.278  0.2188  0.7036  1.0737
  391TIP3    H122732   3.004   0.308   0.182  0.8001 -1.3892  1.2164
  391TIP3    H222733   2.927   0.273   0.307  0.0301  1.3650  1.5667
  392TIP3   OH222734   6.685   6.677   5.806 -0.0223  0.3049 -0.1312
  392TIP3    H122735   6.768   6.660   5.851 -0.7786 -0.6177  0.9827
  392TIP3    H222736   6.689   6.623   5.727  0.9266  1.2135 -0.7313
  393TIP3   OH222737   5.614   3.322   0.962  0.0519  0.2005 -0.1585
  393TIP3    H122738   5.653   3.236   0.950 -2.4723 -0.9865 -0.6958
  393TIP3    H222739   5.583   3.323   1.053  1.9709  1.4660  0.5413
  394TIP3   OH222740   0.044   3.343   1.086 -0.1633 -0.6188  0.0125
  394TIP3    H122741   0.061   3.437   1.076 -1.3314 -0.3692  0.2666
  394TIP3    H222742  -0.042   3.330   1.045  0.4682 -1.7807 -1.0073
  395TIP3   OH222743   6.856   6.224   1.773 -0.5987  0.6177 -0.5090
  395TIP3    H122744   6.931   6.276   1.747 -0.2231  0.5172  0.3519
  395TIP3    H222745   6.785   6.255   1.717 -0.6449  2.7588  0.6229
  396TIP3   OH222746   5.137   2.096   2.215  0.1731 -0.3230  0.0779
  396TIP3    H122747   5.097   2.052   2.290 -1.1947  0.9344  0.1175
  396TIP3    H222748   5.203   2.154   2.254  2.7534 -2.9236 -0.0280
  397TIP3   OH222749   4.282   2.837   7.735 -0.7683 -0.8588  0.0097
  397TIP3    H122750   4.343   2.764   7.741  1.3357  0.7713 -0.2987
  397TIP3    H222751   4.258   2.856   7.825  0.0368 -0.8596  0.2310
  398TIP3   OH222752   0.550   3.956   1.263 -0.9463 -0.4191 -0.3550
  398TIP3    H122753   0.491   3.992   1.329 -1.9976 -1.4083 -0.7278
  398TIP3    H222754   0.499   3.957   1.182 -0.3624 -1.0314 -0.7411
  399TIP3   OH222755   2.135   2.257   6.938  0.0512 -0.4014 -0.1948
  399TIP3    H122756   2.202   2.208   6.985  0.9273  1.2024  0.2945
  399TIP3    H222757   2.164   2.256   6.847  1.1741  0.8813  0.1129
  400TIP3   OH222758   0.846   4.745   0.703 -0.0348  0.3855  0.6782
  400TIP3    H122759   0.917   4.810   0.703 -0.3198  0.8194 -2.0241
  400TIP3    H222760   0.779   4.783   0.646 -0.8162 -1.6611  0.1370
  401TIP3   OH222761   5.999   2.469   0.537 -0.1430  0.4349  0.1034
  401TIP3    H122762   5.906   2.466   0.561 -0.1244  0.2419  0.1525
  401TIP3    H222763   6.044   2.493   0.617 -0.1792  0.8504  0.0024
  402TIP3   OH222764   2.204   4.175   6.539  0.7215  0.3078  0.2713
  402TIP3    H122765   2.298   4.167   6.523  1.0248 -0.5674  2.1544
  402TIP3    H222766   2.179   4.091   6.579 -0.5522  1.0652  1.1529
  403TIP3   OH222767   0.311   6.473   0.225 -0.1135  0.2884 -0.2981
  403TIP3    H122768   0.306   6.404   0.291 -2.7872  0.5957 -0.0624
  403TIP3    H222769   0.334   6.427   0.144  0.2318 -0.5387  0.2572
  404TIP3   OH222770   5.435   4.000   2.058  0.3360  0.7139  0.3204
  404TIP3    H122771   5.440   4.091   2.085 -3.4692  0.4376  2.7203
  404TIP3    H222772   5.394   4.003   1.971  1.3491  1.2388 -0.1660
  405TIP3   OH222773   1.277   1.730   2.133  0.1658 -0.7106 -0.4874
  405TIP3    H122774   1.301   1.640   2.155  0.5318 -0.8519 -1.3804
  405TIP3    H222775   1.337   1.785   2.183  2.0970 -1.0491 -2.2710
  406TIP3   OH222776   0.548   1.345   7.756 -0.2390 -0.3059 -0.1677
  406TIP3    H122777   0.641   1.324   7.763 -0.4096 -1.1613 -0.3049
  406TIP3    H222778   0.503   1.269   7.794 -0.9157 -0.4977 -1.3153
  407TIP3   OH222779   1.505   4.700   7.499 -0.6631 -0.3542  0.2063
  407TIP3    H122780   1.572   4.698   7.567 -0.6251  3.1559  0.4939
  407TIP3    H222781   1.435   4.643   7.531  0.6410 -1.1891  1.6719
  408TIP3   OH222782   3.660   4.501   6.922  0.0634 -0.0042 -0.2269
  408TIP3    H122783   3.750   4.471   6.935 -0.0490 -0.2754 -0.0845
  408TIP3    H222784   3.641   4.482   6.830 -0.0000 -0.3470 -0.1428
  409TIP3   OH222785   2.156   3.066   1.508  0.0478  0.1993 -0.7443
  409TIP3    H122786   2.178   3.062   1.601  1.6004 -0.1776 -1.0917
  409TIP3    H222787   2.113   3.151   1.497  0.7700  0.7010  0.1431
  410TIP3   OH222788   1.004   3.514   6.662 -0.2106 -0.0356 -0.1732
  410TIP3    H122789   0.991   3.491   6.570  1.4519 -1.1565 -0.1718
  410TIP3    H222790   0.945   3.455   6.709  1.1095 -1.6160 -0.4006
  411TIP3   OH222791   2.041   4.456   1.502 -0.5339 -0.4023 -0.0050
  411TIP3    H122792   2.120   4.510   1.498 -0.0916 -1.0101  0.4318
  411TIP3    H222793   2.068   4.371   1.468 -0.4284 -1.2832  2.1795
  412TIP3   OH222794   1.480   2.892   0.551  0.3468 -0.2696 -0.1060
  412TIP3    H122795   1.420   2.855   0.616  1.4537  0.2338  1.2376
  412TIP3    H222796   1.519   2.816   0.508  0.3353 -0.6228  0.5028
  413TIP3   OH222797   3.321   6.897   7.131 -0.0357  0.0757 -0.3627
  413TIP3    H122798   3.262   6.831   7.166  1.9780 -0.5858  2.0938
  413TIP3    H222799   3.264   6.963   7.092 -2.2290 -1.6019 -0.1653
  414TIP3   OH222800   5.413   0.633   0.133 -0.2696 -0.8522  0.3070
  414TIP3    H122801   5.499   0.616   0.095 -0.2924 -0.1840 -0.0509
  414TIP3    H222802   5.380   0.708   0.084 -1.3262 -1.4923 -0.0046
  415TIP3   OH222803   0.182   6.630   8.295  0.4142  0.6517  0.4611
  415TIP3    H122804   0.264   6.636   8.344 -1.0907  1.5230  3.0503
  415TIP3    H222805   0.126   6.574   8.349 -0.1002 -1.8130 -2.3147
  416TIP3   OH222806   0.444   3.374   7.831  0.2079 -0.3506 -0.0620
  416TIP3    H122807   0.504   3.315   7.785  0.7826 -1.4571  2.0001
  416TIP3    H222808   0.366   3.377   7.775  1.2235 -0.8495 -1.5686
  417TIP3   OH222809   6.211   3.588   0.956  0.2843  0.4585  0.0440
  417TIP3    H122810   6.172   3.555   1.036 -0.1496 -0.4012 -0.5033
  417TIP3    H222811   6.270   3.518   0.928 -0.0358  0.4819 -0.7134
  418TIP3   OH222812   5.128   0.551   0.641 -0.4841 -1.0201  0.4448
  418TIP3    H122813   5.058   0.529   0.702 -0.0204  0.6091  1.6384
  418TIP3    H222814   5.120   0.646   0.628  2.1460 -0.5618  1.5209
  419TIP3   OH222815   1.474   6.667   7.788 -0.2655 -0.1295 -0.2542
  419TIP3    H122816   1.532   6.716   7.847 -0.2759 -1.6161  1.0626
  419TIP3    H222817   1.387   6.680   7.825 -0.2789 -1.0241  0.0667
  420TIP3   OH222818   3.139   0.185   1.050  0.5551  0.3831  0.4360
  420TIP3    H122819   3.229   0.212   1.032  0.3416  1.3472  0.7498
  420TIP3    H222820   3.121   0.219   1.138 -1.1090  2.8687 -0.7549
  421TIP3   OH222821   1.974   4.462   7.365  0.2542 -0.3909  0.4193
  421TIP3    H122822   1.911   4.418   7.422  0.8237  0.4095  1.7070
  421TIP3    H222823   1.977   4.552   7.396  1.5183 -0.2407 -0.0498
  422TIP3   OH222824   4.297   6.546   2.359  0.2471 -0.0506 -0.6137
  422TIP3    H122825   4.383   6.527   2.321  0.7411 -1.5370  1.0731
  422TIP3    H222826   4.262   6.460   2.381 -0.8058  0.6453  0.5340
  423TIP3   OH222827   6.297   5.697   7.835 -0.6010 -0.1509 -0.1214
  423TIP3    H122828   6.336   5.625   7.885 -1.6214 -1.2885 -0.8907
  423TIP3    H222829   6.359   5.712   7.763  0.6693  1.2205  1.1799
  424TIP3   OH222830   2.014   6.202   7.520 -0.3229 -0.1938 -0.1603
  424TIP3    H122831   1.990   6.126   7.573  1.3075 -0.5839  0.0515
  424TIP3    H222832   1.930   6.234   7.485 -0.9071 -3.4284 -2.1426
  425TIP3   OH222833   2.303   5.750   7.888  0.1112 -0.8100  0.2367
  425TIP3    H122834   2.236   5.746   7.820 -0.4369  1.6049  0.5348
  425TIP3    H222835   2.384   5.724   7.844 -0.6401 -1.6433 -0.6864
  426TIP3   OH222836   5.703   5.543   2.653  0.1764 -0.1291  0.1846
  426TIP3    H122837   5.613   5.530   2.624  0.5280 -0.7922 -0.6669
  426TIP3    H222838   5.714   5.484   2.728  0.3129 -1.1247 -0.6049
  427TIP3   OH222839   0.532   1.300   8.289  0.1317 -0.2774  0.0238
  427TIP3    H122840   0.518   1.220   8.238 -1.4302  0.2084 -0.3619
  427TIP3    H222841   0.617   1.332   8.259  1.0698 -2.0554  0.5949
  428TIP3   OH222842   5.509   2.876   0.370  0.5723 -0.2947  0.0085
  428TIP3    H122843   5.542   2.861   0.458  1.2765 -2.5129 -0.5606
  428TIP3    H222844   5.575   2.932   0.329  3.4258 -3.8680 -0.7995
  429TIP3   OH222845   4.696   5.600   6.681  0.7667  0.0136 -0.0104
  429TIP3    H122846   4.749   5.582   6.758  0.1684 -3.0787 -0.2058
  429TIP3    H222847   4.739   5.554   6.610 -0.4795  0.0157 -0.8030
  430TIP3   OH222848   4.794   6.986   7.052  0.4045 -0.4363  0.4615
  430TIP3    H122849   4.741   7.034   7.115 -0.6069 -2.1930  1.0025
  430TIP3    H222850   4.759   7.012   6.967  0.2957  0.2371  0.7002
  431TIP3   OH222851   1.163   4.303   0.508  0.0736  0.3475  0.2855
  431TIP3    H122852   1.167   4.371   0.576 -0.8891  0.2686  0.4382
  431TIP3    H222853   1.069   4.285   0.498  0.2976 -0.6596 -0.0608
  432TIP3   OH222854   2.616   6.253   2.572  0.4139  0.6964 -0.3736
  432TIP3    H122855   2.665   6.174   2.595  2.2165  1.8910  0.0829
  432TIP3    H222856   2.553   6.223   2.506  1.8088 -0.9254 -1.0746
  433TIP3   OH222857   2.000   6.238   1.200  0.3999  0.6198 -0.1659
  433TIP3    H122858   1.930   6.175   1.217 -0.7163  1.8732  0.1049
  433TIP3    H222859   1.954   6.321   1.189  1.8856  1.5414  0.3344
  434TIP3   OH222860   6.328   1.507   6.870  0.1339 -0.2291 -0.7556
  434TIP3    H122861   6.344   1.423   6.827 -0.5700 -0.2674 -0.9547
  434TIP3    H222862   6.414   1.534   6.903  0.4570 -0.7860 -1.1249
  435TIP3   OH222863   6.137   3.587   0.062  0.0972 -0.1135  0.5189
  435TIP3    H122864   6.101   3.667   0.024  2.5418  0.2608 -1.2485
  435TIP3    H222865   6.063   3.525   0.063 -1.1895  1.3286 -0.5612
  436TIP3   OH222866   0.319   5.294   0.880  0.8886 -0.5605 -0.1483
  436TIP3    H122867   0.401   5.308   0.833  1.1861 -2.8785 -0.4172
  436TIP3    H222868   0.255   5.273   0.812  0.2121  0.4763  0.1306
  437TIP3   OH222869   2.695   0.387   2.329 -0.2119 -0.1571 -0.4791
  437TIP3    H122870   2.761   0.384   2.398 -0.7926 -1.3822  0.0612
  437TIP3    H222871   2.618   0.425   2.371 -0.1181  0.4659 -0.8662
  438TIP3   OH222872   2.790   1.276   0.611 -0.4031  0.0566 -0.7827
  438TIP3    H122873   2.731   1.314   0.676  1.5747  2.9673 -0.4986
  438TIP3    H222874   2.838   1.208   0.659 -0.5765  0.6042  0.2011
  439TIP3   OH222875   2.365   2.431   2.379 -0.1256 -0.6861  0.5283
  439TIP3    H122876   2.458   2.423   2.396  0.4449  0.3930 -1.7051
  439TIP3    H222877   2.338   2.343   2.353  0.6497 -0.6582 -0.4118
  440TIP3   OH222878   6.545   4.586   1.800 -0.1356  0.0542  0.7799
  440TIP3    H122879   6.484   4.514   1.787  1.0128 -0.4767 -2.6232
  440TIP3    H222880   6.496   4.664   1.776  0.5910 -0.4763 -3.1101
  441TIP3   OH222881   1.247   5.971   1.805 -0.5710 -0.1765 -0.0256
  441TIP3    H122882   1.325   5.920   1.829  0.1829  0.3343 -1.2395
  441TIP3    H222883   1.244   5.966   1.709 -1.7489  0.2424 -0.0304
  442TIP3   OH222884   5.013   4.638   2.284 -0.1479  0.2760  0.1515
  442TIP3    H122885   5.091   4.632   2.340  1.1994  1.4827 -1.4967
  442TIP3    H222886   4.990   4.731   2.285 -0.0135  0.3479 -1.3463
  443TIP3   OH222887   1.061   3.025   0.646  0.1146  0.6834 -0.3207
  443TIP3    H122888   1.055   2.957   0.714 -1.8046  0.5430 -0.5832
  443TIP3    H222889   1.128   3.085   0.679 -0.1356  0.1504  1.2677
  444TIP3   OH222890   1.288   6.164   8.185  0.0253  0.4202 -0.0291
  444TIP3    H122891   1.381   6.188   8.182  0.5403 -1.4202 -0.3775
  444TIP3    H222892   1.252   6.199   8.103  0.2747  1.6057  0.3523
  445TIP3   OH222893   5.989   6.750   0.216 -0.1980  0.4237  0.0397
  445TIP3    H122894   5.978   6.656   0.226  2.5660 -0.0838 -0.8428
  445TIP3    H222895   5.935   6.774   0.141  0.5968 -0.8679 -0.9814
  446TIP3   OH222896   0.920   0.661   0.564  0.1566 -0.3815  0.0829
  446TIP3    H122897   0.987   0.665   0.632 -0.4557 -1.6393  0.8105
  446TIP3    H222898   0.962   0.698   0.486  1.2814 -0.0410  0.8242
  447TIP3   OH222899   1.416   0.829   0.792 -0.3457  0.5080 -0.3624
  447TIP3    H122900   1.395   0.804   0.882  1.0189  1.1299  0.1546
  447TIP3    H222901   1.509   0.809   0.782 -0.2086  1.4923 -1.2702
  448TIP3   OH222902   3.018   2.940   1.833  0.0249 -0.5124 -1.0207
  448TIP3    H122903   2.997   3.023   1.875  1.4080  0.6996 -2.5993
  448TIP3    H222904   2.934   2.907   1.802 -0.7447 -0.4807  0.9282
  449TIP3   OH222905   5.406   0.091   8.151 -0.1863 -0.5385  0.3125
  449TIP3    H122906   5.314   0.115   8.143  0.0845  0.5723  0.3276
  449TIP3    H222907   5.432   0.068   8.062 -0.4470 -0.7459  0.2885
  450TIP3   OH222908   0.828   0.173   0.756 -0.2504 -0.0252  0.3562
  450TIP3    H122909   0.812   0.079   0.752  1.1954 -0.4362  2.4299
  450TIP3    H222910   0.744   0.213   0.736 -0.6274 -1.6988 -1.7275
  451TIP3   OH222911   3.522   1.256   1.916 -0.4942  0.0486  0.0283
  451TIP3    H122912   3.575   1.325   1.956 -0.4606 -0.5247  1.0274
  451TIP3    H222913   3.434   1.291   1.913 -0.1973  0.7363 -0.9702
  452TIP3   OH222914   5.363   5.914   7.047  0.0685  0.1357  0.3188
  452TIP3    H122915   5.430   5.865   7.095  0.0122  0.8991  1.2131
  452TIP3    H222916   5.299   5.939   7.114 -0.0307  1.2024 -0.1457
  453TIP3   OH222917   4.165   5.780   1.463 -0.0455  0.0624 -0.4528
  453TIP3    H122918   4.142   5.734   1.382  2.5198  0.7874 -1.7013
  453TIP3    H222919   4.239   5.835   1.438  0.4597  0.7427  2.2984
  454TIP3   OH222920   4.908   4.917   7.005 -0.2570 -0.0013 -0.1842
  454TIP3    H122921   4.899   4.946   7.096  1.8414 -0.1272  0.1119
  454TIP3    H222922   4.880   4.992   6.953 -0.7616  0.3449  0.5650
  455TIP3   OH222923   3.037   6.555   2.093  0.2574 -0.1522 -0.2489
  455TIP3    H122924   2.946   6.580   2.108  0.4310  0.0944  0.4339
  455TIP3    H222925   3.038   6.520   2.003 -0.2929  0.8741 -0.6770
  456TIP3   OH222926   2.778   0.427   0.819 -0.3170  0.0057 -0.1569
  456TIP3    H122927   2.688   0.395   0.809 -1.0063  2.0593 -1.3721
  456TIP3    H222928   2.828   0.379   0.753 -1.1889  0.8404 -1.5002
  457TIP3   OH222929   3.127   1.795   6.837  0.4082  0.1188 -0.2646
  457TIP3    H122930   3.072   1.865   6.802 -0.0491  0.2088  0.6061
  457TIP3    H222931   3.099   1.786   6.928  0.8332 -0.8313 -0.2169
  458TIP3   OH222932   5.538   6.597   1.643  0.0741  0.1180  0.2882
  458TIP3    H122933   5.591   6.633   1.714 -0.1323  0.4030  0.2967
  458TIP3    H222934   5.466   6.553   1.687 -0.9469  1.6705  0.2253
  459TIP3   OH222935   5.704   3.618   2.370 -0.6035  0.1683 -0.1240
  459TIP3    H122936   5.663   3.665   2.297  0.2414 -0.9687 -1.3856
  459TIP3    H222937   5.648   3.541   2.384 -1.5794  1.1062  1.4525
  460TIP3   OH222938   3.872   2.747   1.891  0.0041  0.4517  0.3048
  460TIP3    H122939   3.932   2.767   1.819 -0.3232  0.3459  0.0025
  460TIP3    H222940   3.897   2.809   1.960  2.0404 -1.1049  1.0828
  461TIP3   OH222941   6.370   2.193   5.721  0.0147  0.2172 -0.3368
  461TIP3    H122942   6.382   2.256   5.792 -1.7433  1.2058 -0.8527
  461TIP3    H222943   6.317   2.123   5.759  0.6334 -0.1756 -0.1895
  462TIP3   OH222944   0.974   4.500   2.545  0.1147  0.2315 -0.1016
  462TIP3    H122945   1.005   4.571   2.490 -0.7850  0.7006 -0.0135
  462TIP3    H222946   0.940   4.543   2.624  1.2225 -0.4112  0.7678
  463TIP3   OH222947   6.390   2.062   7.366 -0.4053  0.1431  0.2569
  463TIP3    H122948   6.389   2.090   7.274 -0.2609  0.1339  0.2523
  463TIP3    H222949   6.321   1.996   7.372 -0.2467 -0.0388  0.0974
  464TIP3   OH222950   2.879   6.754   6.506 -0.2932 -0.0809  0.4282
  464TIP3    H122951   2.817   6.694   6.463 -0.2357  0.0547  0.1512
  464TIP3    H222952   2.826   6.829   6.531 -0.1869  0.1829 -0.1070
  465TIP3   OH222953   1.987   2.702   7.049  0.2167 -0.3392  0.5431
  465TIP3    H122954   2.062   2.643   7.053 -0.3323 -1.0146  1.3678
  465TIP3    H222955   1.927   2.668   7.116 -0.3182  0.8808  0.6976
  466TIP3   OH222956   0.029   2.741   6.025  0.2976 -0.4361 -0.3339
  466TIP3    H122957  -0.028   2.687   6.079 -1.2539  0.3971 -1.0494
  466TIP3    H222958   0.003   2.831   6.046  2.4156  0.0519  0.4108
  467TIP3   OH222959   2.099   4.840   8.191 -0.3560 -1.0946 -0.2923
  467TIP3    H122960   2.168   4.817   8.253 -1.3253 -0.2821  1.1667
  467TIP3    H222961   2.137   4.825   8.105  0.9458 -2.5826  0.4846
  468TIP3   OH222962   2.314   1.468   2.490 -0.3058  0.3133 -0.0332
  468TIP3    H122963   2.225   1.442   2.466 -0.1126  0.2902 -0.7463
  468TIP3    H222964   2.340   1.405   2.557 -1.1071  0.7878  0.7446
  469TIP3   OH222965   0.035   1.793   7.850 -0.0285  0.0157 -0.3294
  469TIP3    H122966   0.003   1.703   7.841  1.8086 -0.5869 -1.5258
  469TIP3    H222967  -0.038   1.847   7.820 -0.6297 -1.1728 -1.1191
  470TIP3   OH222968   2.091   3.740   8.194  0.4083 -0.1568  0.1368
  470TIP3    H122969   2.156   3.807   8.174  0.3812 -0.0557  0.3812
  470TIP3    H222970   2.028   3.745   8.122  0.1983  0.3405  0.3479
  471TIP3   OH222971   5.311   5.495   0.567  0.0220  0.2035  0.0042
  471TIP3    H122972   5.308   5.442   0.647 -3.9176  0.4011  0.1929
  471TIP3    H222973   5.321   5.585   0.599 -2.4376  0.3849  0.5039
  472TIP3   OH222974   6.336   2.271   1.338 -0.2154 -0.1636  0.4375
  472TIP3    H122975   6.295   2.357   1.354  0.7943  0.2176  1.1213
  472TIP3    H222976   6.423   2.280   1.377 -0.4745 -1.8596  1.4973
  473TIP3   OH222977   3.721   1.460   7.845  0.3795 -0.2014 -0.6845
  473TIP3    H122978   3.651   1.489   7.903  0.6464 -0.5970 -0.1582
  473TIP3    H222979   3.733   1.368   7.865  1.0828 -0.1271 -0.7302
  474TIP3   OH222980   5.652   3.001   1.296  0.2946  0.6444 -0.6427
  474TIP3    H122981   5.619   2.933   1.237  2.2714  0.8184 -2.0296
  474TIP3    H222982   5.713   3.051   1.243  2.2392  0.7635  1.5573
  475TIP3   OH222983   2.200   4.375   7.200  0.2429  0.7262  0.6633
  475TIP3    H122984   2.125   4.419   7.239 -1.3210  1.2662 -2.5905
  475TIP3    H222985   2.174   4.283   7.195  1.0620  0.3857  2.1218
  476TIP3   OH222986   6.719   1.587   0.004  0.4472 -0.0455  0.3365
  476TIP3    H122987   6.672   1.513  -0.033 -0.1276  0.4051  0.1455
  476TIP3    H222988   6.790   1.604  -0.057 -0.6187  0.8313 -0.7100
  477TIP3   OH222989   0.452   6.679   0.489 -0.6035  0.4343 -0.0420
  477TIP3    H122990   0.407   6.652   0.409 -0.5941  3.6351 -1.2709
  477TIP3    H222991   0.526   6.618   0.497 -0.6554 -0.0401 -2.4389
  478TIP3   OH222992   6.898   1.659   8.141 -0.5356  0.3305  0.8035
  478TIP3    H122993   6.895   1.627   8.051 -0.6191  0.6158  0.7038
  478TIP3    H222994   6.858   1.746   8.137  0.5614  0.8644  0.8902
  479TIP3   OH222995   0.947   3.091   6.697  0.3695  0.2846  0.2518
  479TIP3    H122996   0.887   3.040   6.642  2.4844  0.9502 -2.9249
  479TIP3    H222997   0.917   3.181   6.688  0.1710  0.2977  1.0042
  480TIP3   OH222998   6.657   4.732   7.086  0.1532  0.1585  0.4354
  480TIP3    H122999   6.626   4.822   7.099 -1.4142 -0.2632 -0.1953
  480TIP3    H223000   6.713   4.716   7.162  1.7650  2.1819 -0.2277
  481TIP3   OH223001   4.730   1.410   0.663  0.4698  0.1472 -0.3851
  481TIP3    H123002   4.649   1.387   0.618  1.1140  0.0988 -1.5461
  481TIP3    H223003   4.720   1.504   0.682 -0.8727 -0.3374  1.6881
  482TIP3   OH223004   4.192   2.257   8.294 -0.1279  0.2037 -0.0862
  482TIP3    H123005   4.202   2.217   8.208  0.4899 -0.7573  0.4140
  482TIP3    H223006   4.206   2.185   8.356 -1.1404  0.7592  0.8111
  483TIP3   OH223007   2.115   3.792   6.889  0.2810 -0.4312  0.0051
  483TIP3    H123008   2.152   3.833   6.968  0.2784  1.1171 -0.7511
  483TIP3    H223009   2.074   3.865   6.842 -0.3704 -1.4619 -1.0591
  484TIP3   OH223010   1.902   6.802   7.623 -0.0069  0.4997  0.1382
  484TIP3    H123011   1.958   6.726   7.639  1.1064  0.5055 -3.0361
  484TIP3    H223012   1.950   6.875   7.663 -0.0184 -0.1387  1.3494
  485TIP3   OH223013   5.905   1.951   0.278  0.5328 -0.0186  0.2202
  485TIP3    H123014   5.999   1.952   0.264  0.7581 -2.2006  1.1049
  485TIP3    H223015   5.894   1.970   0.371  0.1561 -0.3867  0.2561
  486TIP3   OH223016   5.058   0.392   0.098  0.0125  0.4520 -0.1684
  486TIP3    H123017   4.993   0.432   0.040 -1.0344  0.4090  0.9350
  486TIP3    H223018   5.091   0.465   0.151  0.8537  0.4666 -0.6927
  487TIP3   OH223019   6.871   6.779   0.244 -0.4941  0.1660 -0.2077
  487TIP3    H123020   6.889   6.686   0.255  1.6838  0.4872 -0.6260
  487TIP3    H223021   6.859   6.812   0.333 -1.1436 -0.4779 -0.0500
  488TIP3   OH223022   0.401   5.675   7.781  0.1256 -0.2416 -0.6739
  488TIP3    H123023   0.352   5.716   7.711 -2.0003 -0.0713  0.8154
  488TIP3    H223024   0.450   5.747   7.821 -0.3468  0.0793 -0.6613
  489TIP3   OH223025   3.372   1.940   7.517  0.1375 -0.1103  0.3949
  489TIP3    H123026   3.314   1.918   7.589 -0.0380  1.5311  0.7796
  489TIP3    H223027   3.321   1.921   7.438 -1.3977  2.3610  0.7211
  490TIP3   OH223028   6.836   2.512   6.685  0.0330  0.5098  0.2116
  490TIP3    H123029   6.793   2.512   6.600  0.2344 -0.0276  0.1040
  490TIP3    H223030   6.882   2.596   6.689 -2.0496  1.6967  0.8707
  491TIP3   OH223031   1.151   6.526   1.205  0.3103  0.3088  0.1776
  491TIP3    H123032   1.128   6.434   1.222  1.8339  0.0157  0.8058
  491TIP3    H223033   1.245   6.525   1.189  0.1821  1.6458 -0.8167
  492TIP3   OH223034   6.766   4.467   7.490 -0.3664 -0.1341  0.1925
  492TIP3    H123035   6.746   4.557   7.464 -2.5880 -0.3386  0.9510
  492TIP3    H223036   6.731   4.414   7.418  1.7492 -0.4202 -0.6966
  493TIP3   OH223037   5.692   5.665   0.652 -0.5411  0.1433 -0.0891
  493TIP3    H123038   5.704   5.611   0.574  0.9841 -1.1099  0.9705
  493TIP3    H223039   5.744   5.622   0.720 -1.8578  1.1652  1.6556
  494TIP3   OH223040   3.958   4.591   1.102 -0.2513  0.0578  0.5382
  494TIP3    H123041   3.937   4.682   1.121  1.4005  0.5202  0.3017
  494TIP3    H223042   4.025   4.596   1.034 -0.9313 -1.3742 -0.2884
  495TIP3   OH223043   0.660   1.852   1.085  0.3126  0.1783  0.4437
  495TIP3    H123044   0.567   1.868   1.099  0.2128 -0.4381  0.4778
  495TIP3    H223045   0.676   1.766   1.123  0.6283 -0.2824 -0.6829
  496TIP3   OH223046   2.443   4.993   0.511  0.1445 -0.1927 -0.0090
  496TIP3    H123047   2.362   4.963   0.470  0.8824 -0.9244 -1.0029
  496TIP3    H223048   2.504   4.920   0.501  0.4933 -0.2709  2.1226
  497TIP3   OH223049   3.557   3.955   0.087 -0.1259  0.3665 -0.0549
  497TIP3    H123050   3.494   3.934   0.018 -0.9108 -0.2824  0.8314
  497TIP3    H223051   3.507   3.944   0.168  0.8960  0.7103  0.6266
  498TIP3   OH223052   0.045   1.747   0.582  0.3224  0.0899  0.4236
  498TIP3    H123053   0.093   1.713   0.506  0.1791 -0.6284  0.6504
  498TIP3    H223054   0.007   1.829   0.551  0.0782 -0.3060 -0.3583
  499TIP3   OH223055   6.953   2.710   8.255  0.7590  0.0707 -0.0623
  499TIP3    H123056   6.988   2.621   8.247  1.9207  0.5816 -0.8256
  499TIP3    H223057   7.023   2.759   8.298 -0.1977  0.4600  1.1244
  500TIP3   OH223058   3.159   1.897   7.840 -0.0818  0.7564 -0.1413
  500TIP3    H123059   3.183   1.840   7.766 -1.3368  1.3803 -1.0472
  500TIP3    H223060   3.080   1.857   7.877 -0.7505  1.6835 -0.5435
  501TIP3   OH223061   4.249   4.608   1.073  0.1275  0.3706  0.2672
  501TIP3    H123062   4.290   4.561   1.000 -0.5413  0.6018 -0.2790
  501TIP3    H223063   4.295   4.578   1.151  2.7434  2.1472 -0.4658
  502TIP3   OH223064   5.862   1.544   1.627 -0.0802  0.6941 -0.4228
  502TIP3    H123065   5.829   1.504   1.546  0.7600 -0.6250 -0.1459
  502TIP3    H223066   5.835   1.636   1.621 -0.6847  0.4528 -1.8454
  503TIP3   OH223067   5.203   2.534   2.030  0.2038 -0.0030 -0.4236
  503TIP3    H123068   5.216   2.440   2.042  0.4394 -0.0173 -0.7616
  503TIP3    H223069   5.113   2.549   2.058 -0.3777 -0.6072 -1.8415
  504TIP3   OH223070   4.556   2.827   0.765 -0.1375 -0.0656  0.2710
  504TIP3    H123071   4.591   2.789   0.684 -2.9039  0.3808 -1.2792
  504TIP3    H223072   4.525   2.752   0.816  2.9026 -0.4806  1.7377
  505TIP3   OH223073   1.341   1.302   6.762  0.1781 -0.4669 -0.2505
  505TIP3    H123074   1.352   1.263   6.675 -0.2408  0.5831 -0.7933
  505TIP3    H223075   1.254   1.342   6.759 -0.8831 -2.4413  1.4732
  506TIP3   OH223076   6.297   0.070   6.843 -0.2678 -0.8275  0.2520
  506TIP3    H123077   6.351   0.003   6.887 -0.2623 -1.7038 -1.0366
  506TIP3    H223078   6.219   0.078   6.898  0.0559 -1.3909  0.8032
  507TIP3   OH223079   5.093   5.937   1.703  0.5690  0.5944 -0.2619
  507TIP3    H123080   5.010   5.920   1.658  0.9202 -0.7872 -0.4247
  507TIP3    H223081   5.086   5.891   1.786  0.8695  1.1455  0.0812
  508TIP3   OH223082   3.186   1.541   0.227  0.0190 -0.0231 -0.1940
  508TIP3    H123083   3.120   1.514   0.163 -0.4383  0.9303 -0.1361
  508TIP3    H223084   3.270   1.514   0.189 -0.3703 -0.9159 -0.4348
  509TIP3   OH223085   2.354   4.300   1.840  0.0880 -0.3794  0.1452
  509TIP3    H123086   2.318   4.255   1.917  0.3952 -0.5726  0.1760
  509TIP3    H223087   2.324   4.249   1.766 -0.8425  0.2326  0.0841
  510TIP3   OH223088   6.331   6.532   0.313 -0.3950  0.1720 -0.4575
  510TIP3    H123089   6.334   6.441   0.285 -1.0614  0.2121 -0.6627
  510TIP3    H223090   6.239   6.557   0.307 -0.8418 -0.1973  2.9908
  511TIP3   OH223091   2.411   6.459   0.761 -0.0380  0.1589 -0.1683
  511TIP3    H123092   2.450   6.523   0.820 -0.9874 -0.4506  1.1953
  511TIP3    H223093   2.371   6.394   0.820 -2.6989  0.5265 -1.4143
  512TIP3   OH223094   3.389   4.859   0.764  0.5256  0.2318  0.3216
  512TIP3    H123095   3.323   4.887   0.828 -0.1497 -2.5882  1.0177
  512TIP3    H223096   3.413   4.771   0.792  0.1011 -1.2340 -3.3612
  513TIP3   OH223097   5.756   0.288   1.540 -0.3530  0.2248  0.2288
  513TIP3    H123098   5.708   0.240   1.473  0.2536 -0.1130  0.0276
  513TIP3    H223099   5.825   0.228   1.568 -0.5167  0.4049  1.0722
  514TIP3   OH223100   2.644   4.998   6.445  0.4586  0.5460 -0.0216
  514TIP3    H123101   2.711   5.009   6.378  0.9742  2.0489  0.6838
  514TIP3    H223102   2.642   5.082   6.491 -3.4133  1.4440 -1.3658
  515TIP3   OH223103   5.733   6.499   7.492 -0.4034  0.3950 -0.5391
  515TIP3    H123104   5.759   6.464   7.406 -0.2427 -0.2172 -0.2476
  515TIP3    H223105   5.678   6.575   7.471 -0.0515  0.4833 -1.1795
  516TIP3   OH223106   3.080   6.492   1.679  0.1470  0.5366 -0.0700
  516TIP3    H123107   3.044   6.454   1.599  1.2991  1.2145 -0.9321
  516TIP3    H223108   3.053   6.584   1.676  0.1996  0.5669  0.3338
  517TIP3   OH223109   4.426   1.206   0.757 -0.0208 -0.5298 -0.2901
  517TIP3    H123110   4.444   1.121   0.716 -0.0885 -1.0685  0.7697
  517TIP3    H223111   4.363   1.247   0.698  0.1684 -1.1172 -0.9284
  518TIP3   OH223112   0.156   0.334   7.435  0.4129  0.0912 -0.9274
  518TIP3    H123113   0.146   0.316   7.529  0.4616  1.8113 -0.5657
  518TIP3    H223114   0.070   0.317   7.398 -0.8138  3.3244  0.1645
  519TIP3   OH223115   6.205   0.093   2.743 -0.5745 -0.3805  0.2351
  519TIP3    H123116   6.242   0.159   2.684  0.1875 -0.9578  0.0651
  519TIP3    H223117   6.197   0.138   2.827 -0.2595 -0.0078  0.0677
  520TIP3   OH223118   6.237   6.689   1.575 -0.1642  0.0195 -0.0535
  520TIP3    H123119   6.190   6.726   1.650  0.0368 -1.5769  0.9041
  520TIP3    H223120   6.324   6.727   1.581 -0.6576  1.3278 -0.5949
  521TIP3   OH223121   2.378   6.317   1.218 -0.8647  0.2829  0.3900
  521TIP3    H123122   2.466   6.332   1.181 -0.4683 -1.1302  0.7151
  521TIP3    H223123   2.322   6.379   1.171  0.3412  1.3920  0.3572
  522TIP3   OH223124   0.281   6.467   1.127  0.1022  0.5777 -0.0422
  522TIP3    H123125   0.186   6.470   1.118  0.1573  3.0005 -0.5221
  522TIP3    H223126   0.297   6.490   1.219  0.2273 -0.7277  0.2808
  523TIP3   OH223127   5.658   5.244   1.707  0.0027 -0.6096 -0.7283
  523TIP3    H123128   5.669   5.320   1.650  0.1055  0.8825  1.1440
  523TIP3    H223129   5.727   5.254   1.772 -0.2348 -2.1140 -0.2127
  524TIP3   OH223130   5.278   2.796   7.604  0.2345 -0.0378  0.0522
  524TIP3    H123131   5.292   2.739   7.529  0.8335 -0.1211  0.2235
  524TIP3    H223132   5.293   2.885   7.571  2.3793 -0.1957  0.4916
  525TIP3   OH223133   1.354   2.465   7.262  0.3877  0.0303 -0.3093
  525TIP3    H123134   1.310   2.494   7.182 -0.9745 -1.0513 -0.0038
  525TIP3    H223135   1.349   2.540   7.321  1.6631  0.9375 -1.3128
  526TIP3   OH223136   6.744   5.008   1.998  0.1520  0.0873 -0.0925
  526TIP3    H123137   6.720   4.960   2.077  3.8842 -0.5284  0.8481
  526TIP3    H223138   6.756   4.940   1.931  0.6787  0.1917 -0.1116
  527TIP3   OH223139   6.389   3.931   7.520  0.2857 -0.7693 -0.3681
  527TIP3    H123140   6.455   3.993   7.489  0.6628 -1.3731 -0.7963
  527TIP3    H223141   6.386   3.944   7.614  2.5213 -2.1342 -0.0367
  528TIP3   OH223142   6.952   1.500   7.901  0.3435  0.5262  0.1611
  528TIP3    H123143   7.016   1.472   7.967  0.7136  1.1878  0.0853
  528TIP3    H223144   6.992   1.475   7.817  1.2579  2.3440  0.0057
  529TIP3   OH223145   4.970   5.078   1.048 -0.4189  0.1397 -0.2111
  529TIP3    H123146   5.001   4.997   1.007 -2.5484  0.2771 -2.3657
  529TIP3    H223147   4.894   5.051   1.100 -0.0146  0.5130  0.5817
  530TIP3   OH223148   4.560   3.382   1.267  0.0270  0.2158  0.0347
  530TIP3    H123149   4.557   3.458   1.325  1.5983 -1.3336  2.3201
  530TIP3    H223150   4.651   3.377   1.238  0.0194 -0.9489  0.1526
  531TIP3   OH223151   5.456   6.320   8.050 -0.0723  0.1622 -0.1036
  531TIP3    H123152   5.490   6.410   8.050  2.8796 -0.8103 -1.1115
  531TIP3    H223153   5.387   6.320   7.985 -0.2227  1.7247  0.0106
  532TIP3   OH223154   3.230   1.282   7.380 -0.1955  0.7508  0.0242
  532TIP3    H123155   3.242   1.316   7.468  1.9745  2.5496 -0.8641
  532TIP3    H223156   3.298   1.215   7.371 -2.0922 -1.3933  0.5022
  533TIP3   OH223157   3.254   6.496   2.246 -0.4908  0.9047 -0.0780
  533TIP3    H123158   3.309   6.498   2.168  1.3518 -0.5508  1.0716
  533TIP3    H223159   3.165   6.505   2.214  0.1327 -0.5344 -2.4338
  534TIP3   OH223160   2.273   1.372   6.300  0.2744  0.2187  0.2025
  534TIP3    H123161   2.278   1.468   6.301  0.5069  0.2597 -1.6879
  534TIP3    H223162   2.199   1.352   6.357  0.2892  1.5236  0.7168
  535TIP3   OH223163   5.117   5.127   0.815 -0.1373 -0.0046  0.0234
  535TIP3    H123164   5.088   5.118   0.906  0.3727 -0.0009  0.1923
  535TIP3    H223165   5.078   5.051   0.771  0.3268 -0.4994  0.4395
  536TIP3   OH223166   0.985   3.013   8.190 -0.5263 -0.2944  0.1604
  536TIP3    H123167   1.064   3.029   8.138 -0.0821  0.0253  0.9123
  536TIP3    H223168   1.001   2.928   8.231 -1.2736 -0.9791 -0.9233
  537TIP3   OH223169   3.345   1.174   7.785  0.0623 -0.1226  0.1115
  537TIP3    H123170   3.408   1.103   7.797  3.1857  2.4391  0.0555
  537TIP3    H223171   3.334   1.213   7.871 -0.8607 -0.0170 -0.0371
  538TIP3   OH223172   4.312   3.844   7.715 -0.7173  0.0414  0.3240
  538TIP3    H123173   4.351   3.820   7.799 -0.8837  0.0679  0.4090
  538TIP3    H223174   4.235   3.895   7.738  0.1808  1.5411  0.1405
  539TIP3   OH223175   1.780   2.798   2.326 -0.4900  0.2370  0.0453
  539TIP3    H123176   1.822   2.719   2.292  1.1742  0.2626  1.8718
  539TIP3    H223177   1.850   2.864   2.325 -0.8549  0.6934  1.8171
  540TIP3   OH223178   1.776   6.026   7.854 -0.4577  0.2729  0.0766
  540TIP3    H123179   1.849   6.040   7.793 -1.2720  3.4283 -0.3692
  540TIP3    H223180   1.733   5.947   7.822  0.9290  0.1108 -1.5400
  541TIP3   OH223181   0.786   0.503   1.128 -0.5669  0.2172 -0.8386
  541TIP3    H123182   0.696   0.472   1.134 -0.9013  1.4603  1.4205
  541TIP3    H223183   0.828   0.474   1.209  0.7521  0.6913 -1.3111
  542TIP3   OH223184   6.197   4.546   8.050  0.2483 -0.2154 -0.0914
  542TIP3    H123185   6.124   4.505   8.097 -0.3547  1.1017  0.1779
  542TIP3    H223186   6.251   4.473   8.021 -1.7999 -1.3387 -1.3587
  543TIP3   OH223187   4.183   2.869   7.995 -0.2805  0.0010 -0.1925
  543TIP3    H123188   4.216   2.923   8.067 -0.7940  1.1813 -0.8034
  543TIP3    H223189   4.105   2.826   8.031 -0.9327  1.1169 -0.2110
  544TIP3   OH223190   2.529   1.908   7.818 -0.3006 -0.1292 -0.6897
  544TIP3    H123191   2.601   1.926   7.878 -0.2585 -0.5270 -0.6184
  544TIP3    H223192   2.451   1.939   7.864 -0.2681 -0.4272 -0.4237
  545TIP3   OH223193   2.349   1.928   2.459 -0.1328  0.4750 -0.2033
  545TIP3    H123194   2.254   1.938   2.458 -0.1531  0.3332  0.1011
  545TIP3    H223195   2.378   1.988   2.528  0.0429  0.8772 -0.6217
  546TIP3   OH223196   3.768   6.154   7.287 -1.2078 -0.0665 -0.0621
  546TIP3    H123197   3.717   6.165   7.368  0.0163 -0.1053  0.7450
  546TIP3    H223198   3.784   6.060   7.282  0.8877  0.1567  1.0899
  547TIP3   OH223199   2.696   3.136   1.651 -0.0490  0.5051 -0.5941
  547TIP3    H123200   2.614   3.108   1.691  0.2891 -0.9312 -0.8467
  547TIP3    H223201   2.715   3.069   1.585  1.4706  0.6358 -0.3329
  548TIP3   OH223202   1.922   5.097   7.456  0.2625  0.0279  0.0922
  548TIP3    H123203   1.902   5.137   7.372  0.7734  0.9092  0.3695
  548TIP3    H223204   2.006   5.136   7.481  0.3993 -0.6543  0.7433
  549TIP3   OH223205   5.909   1.116   7.851  0.2834 -0.3725  0.0558
  549TIP3    H123206   5.970   1.061   7.901  0.1261  0.0325  0.6984
  549TIP3    H223207   5.941   1.110   7.761  1.5609  0.1892  0.4443
  550TIP3   OH223208   6.453   5.009   1.921 -0.7586  0.7509 -0.2555
  550TIP3    H123209   6.545   5.035   1.909 -0.3675 -0.2283  0.5182
  550TIP3    H223210   6.447   4.923   1.881 -1.0951  0.3953  0.5403
  551TIP3   OH223211   5.520   6.351   6.916  0.3733 -0.2151 -0.4660
  551TIP3    H123212   5.506   6.303   6.835 -0.1390  0.4908 -0.8089
  551TIP3    H223213   5.444   6.329   6.970  0.8781 -0.9449 -0.0380
  552TIP3   OH223214   4.699   6.356   1.521 -0.1037  0.2074  0.0200
  552TIP3    H123215   4.698   6.272   1.566 -0.0725  0.3699  0.3299
  552TIP3    H223216   4.767   6.406   1.565 -1.0473  0.8832  0.7694
  553TIP3   OH223217   0.072   3.993   7.796  0.3321  0.3054  0.4832
  553TIP3    H123218   0.142   3.945   7.840  0.1238 -2.1094 -1.6091
  553TIP3    H223219   0.009   3.926   7.769 -0.7375  1.9119 -1.3177
  554TIP3   OH223220   5.028   3.989   2.103  0.2368 -0.3800 -0.3254
  554TIP3    H123221   4.940   3.996   2.067 -0.1613  0.0782  0.6903
  554TIP3    H223222   5.086   4.013   2.030 -0.5273  0.3163 -0.7228
  555TIP3   OH223223   4.961   1.302   0.812  0.0521 -0.0456  0.3123
  555TIP3    H123224   4.884   1.308   0.869 -0.7542  0.6461 -0.8088
  555TIP3    H223225   4.935   1.347   0.732  1.6797  0.3215 -0.0516
  556TIP3   OH223226   2.640   2.748   0.443  0.0994  0.2370  0.2814
  556TIP3    H123227   2.619   2.720   0.532  2.4759  0.0161  0.8405
  556TIP3    H223228   2.589   2.828   0.431 -2.5996 -1.2984  0.6617
  557TIP3   OH223229   1.128   5.231   0.774 -0.1451 -0.4939  0.0106
  557TIP3    H123230   1.097   5.298   0.712 -0.8031 -1.7446 -1.0757
  557TIP3    H223231   1.050   5.206   0.823 -0.2468 -1.5416 -0.6648
  558TIP3   OH223232   3.936   4.994   0.094 -0.3897  0.5103 -0.3777
  558TIP3    H123233   3.913   4.912   0.137 -1.1623  1.7080  1.6564
  558TIP3    H223234   4.030   5.006   0.111  0.2640 -0.9199 -2.5449
  559TIP3   OH223235   5.248   3.242   6.266  0.0092 -0.1672 -0.3870
  559TIP3    H123236   5.200   3.313   6.223  0.7654  0.4981 -0.1823
  559TIP3    H223237   5.183   3.175   6.283 -0.4505 -0.1346 -1.8950
  560TIP3   OH223238   6.615   3.467   1.058  0.6296 -0.1123  0.3005
  560TIP3    H123239   6.531   3.424   1.042  1.1748 -1.0234 -0.1704
  560TIP3    H223240   6.591   3.549   1.101 -0.4270 -1.0749  1.6656
  561TIP3   OH223241   0.636   1.305   0.860  0.1472  0.6309  0.6142
  561TIP3    H123242   0.625   1.246   0.935  1.2381 -0.6280 -0.1714
  561TIP3    H223243   0.664   1.388   0.899  0.3107  0.1109  1.6383
  562TIP3   OH223244   2.590   2.377   1.486 -0.6312  0.0536 -0.4429
  562TIP3    H123245   2.633   2.321   1.551  0.6706  0.0857 -1.2394
  562TIP3    H223246   2.639   2.459   1.489 -1.4928  0.5794 -0.4512
  563TIP3   OH223247   5.509   2.152   8.193  0.1326 -0.1726 -0.1867
  563TIP3    H123248   5.510   2.236   8.146  0.7938  0.4924  0.9645
  563TIP3    H223249   5.552   2.171   8.276 -1.4006 -1.1968  0.8928
  564TIP3   OH223250   1.302   3.250   2.087 -0.3912  0.4240  0.3333
  564TIP3    H123251   1.318   3.344   2.076  1.8053 -0.0668 -1.1433
  564TIP3    H223252   1.266   3.222   2.003 -0.1785 -0.2381  0.4634
  565TIP3   OH223253   2.188   6.889   8.064 -0.5405 -0.3332 -0.4004
  565TIP3    H123254   2.163   6.810   8.016  0.4985 -1.0057  0.1514
  565TIP3    H223255   2.119   6.953   8.041 -0.4356 -0.8191 -2.2612
  566TIP3   OH223256   6.642   5.663   7.138 -0.0006 -0.2933  0.0217
  566TIP3    H123257   6.690   5.702   7.211  0.2375  0.6354 -0.6172
  566TIP3    H223258   6.555   5.645   7.173  0.0684  0.2763  0.4927
  567TIP3   OH223259   5.239   6.733   1.105 -0.1705  0.2824  0.0076
  567TIP3    H123260   5.297   6.727   1.180 -0.2709  0.8381  0.1373
  567TIP3    H223261   5.287   6.690   1.034 -0.9020 -2.0162  0.8463
  568TIP3   OH223262   1.707   4.220   2.444  0.0110 -0.1152 -0.0768
  568TIP3    H123263   1.614   4.195   2.449  0.2783 -0.8905  1.9600
  568TIP3    H223264   1.741   4.168   2.371 -1.2910  0.8494 -1.4645
  569TIP3   OH223265   5.080   1.341   0.213  0.3172 -0.2574  0.0348
  569TIP3    H123266   5.058   1.359   0.121  0.9807 -0.7911 -0.2460
  569TIP3    H223267   5.092   1.427   0.252 -3.9913  0.2528  0.7346
  570TIP3   OH223268   1.879   2.400   7.492  0.3604  0.6069 -0.2574
  570TIP3    H123269   1.807   2.455   7.523 -0.7124  0.1742 -1.8513
  570TIP3    H223270   1.912   2.357   7.570 -1.5783  0.3057  0.4537
  571TIP3   OH223271   0.588   4.799   0.589 -0.1460  0.5165  0.0380
  571TIP3    H123272   0.602   4.860   0.517 -1.3007  1.7802  0.8224
  571TIP3    H223273   0.539   4.850   0.654 -0.3678 -0.9976  1.1118
  572TIP3   OH223274   5.313   1.151   1.743  0.4151 -0.8918  0.0284
  572TIP3    H123275   5.273   1.234   1.767 -1.3030 -1.5459 -0.4708
  572TIP3    H223276   5.243   1.100   1.703  1.5495 -2.4051 -0.1459
  573TIP3   OH223277   0.449   2.876   0.706  0.3311  0.2675  0.3086
  573TIP3    H123278   0.424   2.783   0.709  0.4199  0.2618  0.9497
  573TIP3    H223279   0.399   2.911   0.632  1.0143 -0.4946 -0.5328
  574TIP3   OH223280   2.584   2.990   6.884 -0.0824 -0.2140 -0.1507
  574TIP3    H123281   2.620   3.026   6.803  0.0083  1.7684  0.7255
  574TIP3    H223282   2.493   3.020   6.885  0.1773  0.5852  0.9140
  575TIP3   OH223283   6.203   0.571   1.524  0.3223  0.3792 -0.0408
  575TIP3    H123284   6.177   0.655   1.484  1.8906  0.1354 -1.7061
  575TIP3    H223285   6.143   0.507   1.486 -0.0630  0.5435  0.2725
  576TIP3   OH223286   2.696   1.584   6.344  0.0835  0.0928  0.3618
  576TIP3    H123287   2.683   1.490   6.335  3.1376 -0.2570 -2.0391
  576TIP3    H223288   2.626   1.624   6.292 -0.4249 -0.8861  0.2857
  577TIP3   OH223289   5.785   0.566   0.314  0.2994 -0.2538  0.4888
  577TIP3    H123290   5.737   0.497   0.360 -0.3273 -1.0828 -1.3120
  577TIP3    H223291   5.767   0.550   0.221  0.3046  2.2196 -0.0082
  578TIP3   OH223292   5.625   6.770   0.411  0.4006  0.2264 -0.3182
  578TIP3    H123293   5.585   6.772   0.324 -0.2755  0.3963 -0.0090
  578TIP3    H223294   5.560   6.727   0.466 -0.0577  1.9296  0.5251
  579TIP3   OH223295   4.848   5.823   0.985  0.1809  0.4069 -0.1655
  579TIP3    H123296   4.835   5.819   0.890  1.9449  0.7921 -0.4589
  579TIP3    H223297   4.794   5.752   1.020  0.9315 -0.9291 -1.6362
  580TIP3   OH223298   0.200   3.565   8.234  0.1820 -0.5381  0.4878
  580TIP3    H123299   0.182   3.493   8.295 -2.1640 -1.0071 -0.6464
  580TIP3    H223300   0.278   3.537   8.186  0.1054 -1.7004  1.0066
  581TIP3   OH223301   2.745   0.371   7.515  0.0040  0.0051 -0.0915
  581TIP3    H123302   2.667   0.322   7.491  0.3998 -0.4866 -0.3944
  581TIP3    H223303   2.777   0.408   7.433 -1.9309  3.3428  0.4345
  582TIP3   OH223304   3.384   5.758   7.619  0.1904 -0.3495 -0.1418
  582TIP3    H123305   3.414   5.793   7.703 -0.3707  1.4782 -0.6483
  582TIP3    H223306   3.297   5.796   7.607 -1.4627 -3.6684  0.2151
  583TIP3   OH223307   0.191   2.701   6.759 -0.6018 -0.8232 -0.1299
  583TIP3    H123308   0.281   2.683   6.784 -1.4563 -0.5890  3.5943
  583TIP3    H223309   0.169   2.629   6.699  2.1468 -0.5254 -1.6895
  584TIP3   OH223310   4.694   0.255   8.243  0.5063 -0.0574 -0.3673
  584TIP3    H123311   4.699   0.179   8.185  0.8943  0.4577 -1.0144
  584TIP3    H223312   4.764   0.241   8.307  0.7104 -0.1435 -0.6085
  585TIP3   OH223313   4.860   1.106   1.047  0.3703  0.3657 -0.5257
  585TIP3    H123314   4.942   1.072   1.011 -0.4893  1.8375 -4.4232
  585TIP3    H223315   4.814   1.028   1.077  1.8904 -0.8945 -1.2971
  586TIP3   OH223316   3.616   5.507   0.577 -0.2664 -0.7041 -0.2087
  586TIP3    H123317   3.564   5.521   0.497 -1.5296 -0.9287  0.5398
  586TIP3    H223318   3.570   5.557   0.644  1.4314  0.4103  0.1645
  587TIP3   OH223319   4.906   0.855   2.067 -0.1115  0.9443  0.7953
  587TIP3    H123320   4.879   0.885   1.980  1.0555 -1.5866 -0.5870
  587TIP3    H223321   4.859   0.911   2.128  0.1963  3.8934 -1.4275
  588TIP3   OH223322   4.602   0.212   1.063 -0.2554 -0.0007  0.5577
  588TIP3    H123323   4.641   0.254   0.987 -1.2034 -1.3843 -0.7504
  588TIP3    H223324   4.601   0.280   1.131  0.1216  1.4243 -0.8164
  589TIP3   OH223325   4.930   1.058   7.249  0.3522  0.3095  0.4217
  589TIP3    H123326   4.968   1.086   7.165 -0.1568 -0.0670  0.0599
  589TIP3    H223327   4.930   1.138   7.303  2.8496  0.0699  0.9158
  590TIP3   OH223328   3.753   4.564   2.063  0.0378 -0.5535  0.0884
  590TIP3    H123329   3.703   4.599   2.137 -1.6269 -0.6145 -0.9614
  590TIP3    H223330   3.689   4.513   2.013  1.2077 -0.7823 -1.2266
  591TIP3   OH223331   6.585   3.985   8.126 -0.3258  0.2634  0.2954
  591TIP3    H123332   6.506   4.032   8.100  0.8709  2.0836 -0.2395
  591TIP3    H223333   6.639   3.983   8.046  0.6735  0.1156  0.9602
  592TIP3   OH223334   0.839   0.914   7.638  0.2014  0.2264 -0.5293
  592TIP3    H123335   0.914   0.963   7.605  0.6410 -1.4358 -2.1813
  592TIP3    H223336   0.785   0.898   7.560 -1.7220  1.0775  0.5607
  593TIP3   OH223337   4.978   4.908   7.575  0.3177  0.1292  0.0105
  593TIP3    H123338   5.009   4.861   7.497 -0.3011 -1.4034  0.6430
  593TIP3    H223339   5.036   4.878   7.645  1.0842  1.7473  0.1188
  594TIP3   OH223340   4.419   3.063   8.114 -0.0853  0.0287  0.1177
  594TIP3    H123341   4.511   3.088   8.127 -0.5027  1.7276  0.1030
  594TIP3    H223342   4.383   3.056   8.202 -0.2019  0.4961  0.1123
  595TIP3   OH223343   5.390   0.353   7.080 -0.2792 -0.0405 -0.1984
  595TIP3    H123344   5.484   0.353   7.095 -0.4030  0.5169  0.6757
  595TIP3    H223345   5.353   0.334   7.167 -0.9506 -1.2881 -0.7241
  596TIP3   OH223346   5.242   1.129   2.079  0.4599 -0.2816 -0.0327
  596TIP3    H123347   5.285   1.215   2.085  0.5842 -0.3430 -0.0373
  596TIP3    H223348   5.210   1.112   2.168 -1.0845  0.5488 -0.3982
  597TIP3   OH223349   2.768   0.562   1.823  0.2709 -0.0558 -0.7651
  597TIP3    H123350   2.757   0.511   1.903 -0.8797  2.7921  1.0563
  597TIP3    H223351   2.729   0.508   1.755 -0.7762 -1.6470  0.9878
  598TIP3   OH223352   6.239   4.084   1.716 -0.8380 -0.1541 -0.1145
  598TIP3    H123353   6.281   4.119   1.637  0.4784 -0.2195  0.5387
  598TIP3    H223354   6.182   4.155   1.746 -0.1683  0.4569 -0.2676
  599TIP3   OH223355   3.706   2.519   0.484 -0.0619  0.2179 -0.2108
  599TIP3    H123356   3.701   2.606   0.523  2.3062  0.2092  0.2743
  599TIP3    H223357   3.663   2.528   0.399 -0.7080  1.5815  0.2357
  600TIP3   OH223358   0.845   5.176   0.212 -0.1392 -0.1296  0.2948
  600TIP3    H123359   0.855   5.101   0.153 -0.3214  0.3699 -0.3849
  600TIP3    H223360   0.876   5.251   0.161  0.9351  0.1418  1.2926
  601TIP3   OH223361   4.138   5.688   7.258  0.0857 -0.1078  0.2461
  601TIP3    H123362   4.217   5.699   7.312 -0.9755  1.9567  1.5285
  601TIP3    H223363   4.131   5.771   7.210 -0.8351 -0.6052 -0.5034
  602TIP3   OH223364   2.830   1.730   0.030  0.2363 -0.2516 -0.0257
  602TIP3    H123365   2.762   1.662   0.032  0.7201 -0.7593 -0.5528
  602TIP3    H223366   2.912   1.682   0.030  0.6191  0.3781  1.2382
  603TIP3   OH223367   1.235   3.015   6.660 -0.2309  0.6103 -0.0429
  603TIP3    H123368   1.146   3.050   6.650 -0.1750  0.8859  0.3740
  603TIP3    H223369   1.282   3.083   6.709 -0.0021  0.1329  0.4103
  604TIP3   OH223370   2.508   0.623   1.324  0.6910  0.4407 -0.5076
  604TIP3    H123371   2.549   0.541   1.294 -0.1116  0.8195 -2.8115
  604TIP3    H223372   2.423   0.596   1.359  0.5705  0.2520 -0.9430
  605TIP3   OH223373   2.862   4.239   6.958 -0.7980 -0.0472  0.3906
  605TIP3    H123374   2.956   4.252   6.954 -1.0808  2.1725 -0.8881
  605TIP3    H223375   2.828   4.320   6.996 -2.3086  0.0569 -1.0588
  606TIP3   OH223376   4.053   0.442   1.813  0.0672 -0.1977 -0.1798
  606TIP3    H123377   4.056   0.537   1.807 -0.9442 -0.2568 -2.9727
  606TIP3    H223378   3.962   0.419   1.794  0.6849 -1.7602 -1.5901
  607TIP3   OH223379   2.585   1.253   8.173 -0.5143 -0.2072  0.7682
  607TIP3    H123380   2.556   1.163   8.190 -0.9968 -0.7876 -2.3730
  607TIP3    H223381   2.526   1.283   8.103  1.1299  1.6793  0.1141
  608TIP3   OH223382   6.405   5.527   1.169  0.1624 -0.8149 -0.0687
  608TIP3    H123383   6.484   5.482   1.138  0.3662 -1.3748  1.1820
  608TIP3    H223384   6.386   5.591   1.101  2.3906  0.1668  0.1215
  609TIP3   OH223385   4.470   3.627   1.350 -0.2060  0.1886 -0.2836
  609TIP3    H123386   4.462   3.677   1.431 -0.3995  1.2990 -0.9569
  609TIP3    H223387   4.490   3.693   1.283 -1.4937 -0.4891 -1.3920
  610TIP3   OH223388   6.803   5.453   7.120 -1.0913 -0.0841 -0.1179
  610TIP3    H123389   6.761   5.538   7.130  1.8483  1.2220  3.5573
  610TIP3    H223390   6.872   5.467   7.055 -0.8449  0.2848  0.2187
  611TIP3   OH223391   6.836   3.904   7.698 -0.2523 -0.1521 -0.2469
  611TIP3    H123392   6.832   3.963   7.623  1.4990 -0.7088 -0.8204
  611TIP3    H223393   6.885   3.829   7.667  1.3114 -0.0191  1.6844
  612TIP3   OH223394   0.620   6.618   0.055  0.7791  0.2871  0.2786
  612TIP3    H123395   0.590   6.586  -0.030  2.8776 -0.4918 -0.2204
  612TIP3    H223396   0.649   6.539   0.101  0.1789  0.7706  1.5386
  613TIP3   OH223397   4.735   3.667   7.491  0.8956 -0.2878  0.2279
  613TIP3    H123398   4.656   3.715   7.469 -0.0642 -1.5087  0.8685
  613TIP3    H223399   4.706   3.601   7.554  2.0011 -2.1142 -1.0809
  614TIP3   OH223400   0.266   5.813   7.550  0.3898 -0.5279  0.1956
  614TIP3    H123401   0.261   5.902   7.585 -0.7001 -1.0407  1.3959
  614TIP3    H223402   0.337   5.818   7.485  1.2658  0.8830  1.1857
  615TIP3   OH223403   4.169   6.586   7.250  0.2502  0.5681 -0.2632
  615TIP3    H123404   4.200   6.495   7.241 -2.2069 -0.3456 -0.0753
  615TIP3    H223405   4.248   6.639   7.239  1.7779 -1.5854 -0.2846
  616TIP3   OH223406   5.440   0.483   1.723 -0.3190 -0.5995  0.4473
  616TIP3    H123407   5.473   0.495   1.634 -2.5632  0.5653 -0.2951
  616TIP3    H223408   5.391   0.401   1.719 -3.0979  0.9797 -0.3467
  617TIP3   OH223409   1.996   1.745   8.041 -0.1853 -0.3979 -0.0660
  617TIP3    H123410   2.058   1.797   8.092  0.4521 -1.1263 -0.0860
  617TIP3    H223411   1.934   1.710   8.105 -0.6317  0.3900 -0.0547
  618TIP3   OH223412   0.220   0.322   1.708  0.0501 -0.0844  0.3573
  618TIP3    H123413   0.247   0.369   1.787 -0.2207  1.2816 -0.3339
  618TIP3    H223414   0.264   0.369   1.636  1.8740 -2.4720 -0.2040
  619TIP3   OH223415   1.948   6.271   1.919 -0.4232 -0.2253 -0.0880
  619TIP3    H123416   1.980   6.183   1.937 -0.2874 -0.4894 -1.5203
  619TIP3    H223417   2.011   6.328   1.964 -0.6240 -0.8424  1.0133
  620TIP3   OH223418   0.218   6.147   0.891  0.0155 -0.6479  0.0068
  620TIP3    H123419   0.186   6.160   0.802  1.2052 -0.5431 -0.4240
  620TIP3    H223420   0.160   6.200   0.946 -0.4965 -0.4272 -0.7354
  621TIP3   OH223421   6.005   6.776   2.067 -0.2864  0.6022  0.0403
  621TIP3    H123422   5.998   6.863   2.028  0.7494  0.1486 -1.1878
  621TIP3    H223423   5.944   6.779   2.142  1.3025  3.0817  1.3693
  622TIP3   OH223424   4.711   4.941   1.073  0.3162  0.3610 -0.4620
  622TIP3    H123425   4.674   5.002   1.137  1.5659 -0.0892  0.7319
  622TIP3    H223426   4.698   4.855   1.112  2.0448  0.1506 -0.2594
  623TIP3   OH223427   4.139   2.394   7.877 -0.1337 -0.2767 -0.0434
  623TIP3    H123428   4.225   2.435   7.869 -0.3411 -0.0760 -1.7212
  623TIP3    H223429   4.079   2.467   7.888 -0.0952 -0.4322  1.4130
  624TIP3   OH223430   2.996   2.835   8.247 -0.5637 -0.0204 -0.1261
  624TIP3    H123431   2.968   2.753   8.287  1.7020 -0.4839  0.6632
  624TIP3    H223432   2.989   2.900   8.316 -0.7969  0.1023 -0.2643
  625TIP3   OH223433   1.817   4.687   8.078 -0.2040 -0.0061 -0.2685
  625TIP3    H123434   1.855   4.641   8.152  0.1349  0.3768 -0.2035
  625TIP3    H223435   1.833   4.629   8.003  1.3214  0.5536 -0.3989
  626TIP3   OH223436   5.101   0.278   7.282 -0.0311 -0.3784 -0.3259
  626TIP3    H123437   5.107   0.248   7.191 -0.7988  1.5118 -1.0461
  626TIP3    H223438   5.008   0.288   7.298  0.0823 -0.9709  0.8002
  627TIP3   OH223439   4.929   0.252   1.931 -0.3638  0.0903 -0.7641
  627TIP3    H123440   4.853   0.286   1.885 -0.0329  0.1817 -1.2400
  627TIP3    H223441   4.958   0.177   1.879  0.1404  0.3244 -0.8229
  628TIP3   OH223442   6.235   1.159   1.887  0.3247  0.0857 -0.1125
  628TIP3    H123443   6.154   1.169   1.838 -0.5354  0.5588  1.3502
  628TIP3    H223444   6.213   1.184   1.976  1.4790 -2.0724  0.8629
  629TIP3   OH223445   1.721   6.858   0.382 -0.5973 -0.4490 -0.9880
  629TIP3    H123446   1.718   6.882   0.290  1.0213  0.4966 -0.8253
  629TIP3    H223447   1.670   6.777   0.387 -2.0009  0.2759 -2.4205
  630TIP3   OH223448   3.960   4.787   2.663 -0.2234 -0.3583 -0.2636
  630TIP3    H123449   3.934   4.720   2.727 -1.5689  0.7005  0.3594
  630TIP3    H223450   4.037   4.829   2.702  0.0731 -0.9388 -0.2251
  631TIP3   OH223451   3.695   6.927   8.120  0.1712 -0.8624  0.1788
  631TIP3    H123452   3.743   6.937   8.202 -1.3656 -2.0627  1.2655
  631TIP3    H223453   3.723   6.842   8.086 -0.2711 -1.0118  0.1879
  632TIP3   OH223454   0.458   6.906   1.557 -0.5761 -0.1600  0.3194
  632TIP3    H123455   0.427   6.951   1.478  1.1382  2.2395  0.8920
  632TIP3    H223456   0.422   6.957   1.629 -0.5425 -1.1756  1.0774
  633TIP3   OH223457   3.559   5.686   2.471  0.4346 -0.8287 -0.1393
  633TIP3    H123458   3.476   5.638   2.472 -1.2137  1.7985  1.4089
  633TIP3    H223459   3.602   5.661   2.553 -0.6421  0.6004  0.8979
  634TIP3   OH223460   3.476   4.078   2.070 -0.1055 -0.3892 -0.1330
  634TIP3    H123461   3.392   4.040   2.097 -0.2201  1.0564  1.8132
  634TIP3    H223462   3.451   4.159   2.025  0.2111 -0.4217 -0.3623
  635TIP3   OH223463   0.994   2.000   6.646  0.4139  0.4119 -0.0711
  635TIP3    H123464   0.929   2.001   6.576  0.5888  2.6681 -0.2521
  635TIP3    H223465   1.047   1.922   6.628 -0.7535 -0.1427 -1.2855
  636TIP3   OH223466   5.527   2.655   7.631  0.0786  0.1394  0.2716
  636TIP3    H123467   5.477   2.580   7.666 -0.6093  0.1552 -0.6573
  636TIP3    H223468   5.471   2.731   7.649 -0.6261  0.0679 -1.4732
  637TIP3   OH223469   5.250   2.049   8.299 -0.5901 -0.3077 -0.1227
  637TIP3    H123470   5.332   2.084   8.264 -0.7026 -1.3913 -1.5732
  637TIP3    H223471   5.271   2.025   8.389 -0.1843  2.2416  0.5241
  638TIP3   OH223472   4.910   3.321   1.739 -0.3255  0.2174 -0.3018
  638TIP3    H123473   4.908   3.286   1.828  0.4756 -0.4431 -0.5323
  638TIP3    H223474   4.844   3.391   1.739 -1.8847 -1.1905  0.1998
  639TIP3   OH223475   2.185   3.495   0.094 -0.3131  0.4743  0.7069
  639TIP3    H123476   2.242   3.443   0.038 -1.0689 -0.8501  1.1322
  639TIP3    H223477   2.135   3.431   0.145 -0.5206  1.6133  2.0196
  640TIP3   OH223478   1.975   5.414   7.237 -0.2455  0.1472  0.4905
  640TIP3    H123479   1.923   5.449   7.310 -0.9193  1.0689 -0.4087
  640TIP3    H223480   1.990   5.488   7.179 -0.6724 -0.7756 -0.8624
  641TIP3   OH223481   4.138   3.834   7.256 -0.3222 -0.1888  0.2664
  641TIP3    H123482   4.210   3.871   7.204 -1.1587 -1.9725 -2.4101
  641TIP3    H223483   4.170   3.750   7.286 -0.4409  0.1074  1.2451
  642TIP3   OH223484   1.215   1.829   7.256  0.0775  0.5657  0.3401
  642TIP3    H123485   1.144   1.881   7.219 -0.9777 -0.2766  1.1439
  642TIP3    H223486   1.287   1.839   7.193 -1.1113  0.5389 -1.0718
  643TIP3   OH223487   3.081   3.593   7.761 -0.5554 -0.5223  0.4985
  643TIP3    H123488   3.099   3.503   7.789 -3.2267 -0.7606  1.7238
  643TIP3    H223489   3.000   3.586   7.711 -0.0790  1.0643 -0.5622
  644TIP3   OH223490   6.030   2.786   1.856  0.1231 -0.2105 -0.0825
  644TIP3    H123491   6.002   2.814   1.943 -1.1613 -1.6928  0.0226
  644TIP3    H223492   5.975   2.836   1.796  0.5410  0.3181 -0.0319
  645TIP3   OH223493   4.991   4.058   8.096 -0.1269 -0.0004  0.2298
  645TIP3    H123494   5.077   4.095   8.076  0.6960 -0.8716  1.9365
  645TIP3    H223495   5.010   3.968   8.122 -1.5506 -0.1491  0.7834
  646TIP3   OH223496   6.709   2.974   6.392 -0.1965  0.1502  0.3455
  646TIP3    H123497   6.642   2.912   6.361 -0.4516 -0.1701  1.4951
  646TIP3    H223498   6.660   3.042   6.436  0.1291  0.9017 -0.4225
  647TIP3   OH223499   4.379   1.696   0.436 -0.0836  0.1943  0.2699
  647TIP3    H123500   4.425   1.613   0.429  0.0713  0.3703 -0.9326
  647TIP3    H223501   4.394   1.724   0.527  1.4699 -0.1601  0.1425
  648TIP3   OH223502   5.709   4.371   0.106 -0.0016  0.2803 -0.1675
  648TIP3    H123503   5.684   4.350   0.016 -0.1983 -0.6670  0.0988
  648TIP3    H223504   5.633   4.345   0.158  1.0578 -1.5482  0.5385
  649TIP3   OH223505   2.718   0.064   0.706  0.3916 -0.3356 -0.2190
  649TIP3    H123506   2.675  -0.020   0.694 -0.1335 -0.0507 -0.3824
  649TIP3    H223507   2.781   0.050   0.777  0.0278 -0.7589  0.0167
  650TIP3   OH223508   3.436   5.823   7.883  0.4465 -0.0016  0.1321
  650TIP3    H123509   3.414   5.731   7.898  0.6151 -0.8008 -3.5326
  650TIP3    H223510   3.522   5.834   7.923 -0.9361 -0.4026  3.5194
  651TIP3   OH223511   2.640   5.098   7.478 -0.2636 -0.2120  0.1804
  651TIP3    H123512   2.684   5.065   7.557  0.7429 -1.7480 -0.9413
  651TIP3    H223513   2.668   5.189   7.471 -1.0549  0.2201  2.0199
  652TIP3   OH223514   0.372   6.391   1.972 -0.0925 -0.4687  0.1774
  652TIP3    H123515   0.339   6.341   1.898  0.5104  1.4108 -1.4330
  652TIP3    H223516   0.361   6.483   1.946 -0.6631  0.2865  2.7868
  653TIP3   OH223517   5.515   1.200   7.496  0.1595 -0.2135  0.0019
  653TIP3    H123518   5.484   1.143   7.567  1.2929 -0.7855  0.0563
  653TIP3    H223519   5.504   1.288   7.531 -2.2004 -0.3325 -0.3185
  654TIP3   OH223520   4.790   1.203   0.144 -0.0542 -0.1588 -0.2741
  654TIP3    H123521   4.706   1.242   0.168 -0.8598 -1.1650 -1.3629
  654TIP3    H223522   4.831   1.182   0.228 -1.1416 -0.1613  0.2772
  655TIP3   OH223523   1.554   4.247   8.250  0.3596 -0.5114 -0.0717
  655TIP3    H123524   1.598   4.307   8.190  1.0789 -1.6242 -0.6921
  655TIP3    H223525   1.462   4.273   8.247  0.4462 -0.3075 -1.3652
  656TIP3   OH223526   5.028   3.764   0.542  0.0958 -0.6963 -0.1960
  656TIP3    H123527   5.078   3.834   0.500 -1.7045  1.2968  0.7908
  656TIP3    H223528   5.094   3.705   0.578  1.7047  0.8826 -0.4430
  657TIP3   OH223529   6.903   6.092   6.510  0.0563 -0.0449 -0.1568
  657TIP3    H123530   6.904   6.009   6.462 -1.8249 -0.3919  0.3253
  657TIP3    H223531   6.944   6.071   6.594 -1.0505 -0.7077  0.2444
  658TIP3   OH223532   6.185   3.500   0.494 -0.2107 -0.2738 -0.1824
  658TIP3    H123533   6.095   3.503   0.461 -1.0482  2.4501  1.9600
  658TIP3    H223534   6.176   3.477   0.586  1.2276  0.4480  0.1707
  659TIP3   OH223535   3.855   4.565   7.962 -0.5156 -0.5071 -0.0254
  659TIP3    H123536   3.767   4.596   7.982 -0.5000 -0.1813 -0.4406
  659TIP3    H223537   3.898   4.556   8.047 -0.4448  0.8597  0.1039
  660TIP3   OH223538   3.079   3.434   0.977 -0.0265  0.1720  0.3207
  660TIP3    H123539   3.066   3.475   0.892 -0.4625  1.0186  0.7834
  660TIP3    H223540   3.099   3.507   1.036  0.7665 -0.4541  0.8523
  661TIP3   OH223541   6.659   0.364   0.585 -0.5329 -0.0978 -0.2713
  661TIP3    H123542   6.688   0.303   0.653  1.2257 -0.2323 -1.0814
  661TIP3    H223543   6.580   0.325   0.549  0.7566 -2.1312 -1.0241
  662TIP3   OH223544   6.603   2.225   1.960 -0.2019 -0.1651  0.2707
  662TIP3    H123545   6.629   2.140   1.996  1.0722  0.8569  1.8972
  662TIP3    H223546   6.527   2.250   2.013  1.4059  1.1388  2.0958
  663TIP3   OH223547   3.413   4.820   1.877  0.1946  0.0377  0.0102
  663TIP3    H123548   3.488   4.849   1.825  0.3620 -1.2242 -0.5016
  663TIP3    H223549   3.361   4.899   1.891  0.5561  0.5684 -1.4345
  664TIP3   OH223550   0.928   1.714   8.087  0.7325  0.4709  0.5060
  664TIP3    H123551   0.958   1.687   8.000  0.7542 -1.7887  1.1587
  664TIP3    H223552   0.836   1.690   8.090  1.3308 -1.9906  1.9606
  665TIP3   OH223553   4.954   3.819   0.157 -0.3342  0.0257  0.3811
  665TIP3    H123554   4.884   3.763   0.191 -0.4796  0.7217  1.2689
  665TIP3    H223555   4.973   3.783   0.070 -0.6362 -1.1915  0.7949
  666TIP3   OH223556   5.872   0.735   7.905 -0.2793 -0.1342  0.0235
  666TIP3    H123557   5.833   0.648   7.915  1.0927 -0.5420  2.4604
  666TIP3    H223558   5.819   0.792   7.961  1.0877 -0.2329  1.5013
  667TIP3   OH223559   6.643   5.811   1.239  0.3400  0.1714  0.0759
  667TIP3    H123560   6.679   5.886   1.286  1.3854 -0.5963  0.5538
  667TIP3    H223561   6.714   5.747   1.239 -1.0017 -1.4115  1.0102
  668TIP3   OH223562   1.458   6.962   6.868  0.1403 -0.4032  0.0535
  668TIP3    H123563   1.369   6.987   6.843  0.1520 -1.1459 -0.7945
  668TIP3    H223564   1.507   6.964   6.785  1.1873  1.0487  0.6634
  669TIP3   OH223565   5.986   2.357   0.258  0.7548  0.0742 -0.0654
  669TIP3    H123566   5.980   2.352   0.353 -0.7205  4.4195  0.2879
  669TIP3    H223567   5.896   2.372   0.229  1.1495 -1.3138 -2.2632
  670TIP3   OH223568   5.551   0.818   0.432  0.0191 -0.6590  0.1658
  670TIP3    H123569   5.462   0.853   0.434 -0.1202 -0.7837 -1.7557
  670TIP3    H223570   5.592   0.862   0.358  1.8108 -0.0893  1.4480
  671TIP3   OH223571   4.981   6.498   8.167  0.3792 -0.8097  0.1580
  671TIP3    H123572   4.988   6.568   8.232 -1.4639 -0.2403 -0.1708
  671TIP3    H223573   4.969   6.418   8.218  2.6352 -0.9542  0.5401
  672TIP3   OH223574   4.236   4.234   1.188  0.6815  0.6767  0.0829
  672TIP3    H123575   4.193   4.263   1.107  2.2730  1.0305 -0.6792
  672TIP3    H223576   4.224   4.307   1.249 -1.7065 -0.1318  0.6828
  673TIP3   OH223577   4.547   1.861   7.676  0.4105  0.2004  0.3051
  673TIP3    H123578   4.521   1.769   7.683  2.0422 -0.1951  1.8406
  673TIP3    H223579   4.490   1.897   7.608 -1.2127 -1.5944  0.6347
  674TIP3   OH223580   2.905   5.999   1.373  0.7142  0.1683  0.2041
  674TIP3    H123581   2.924   6.087   1.340  0.3363  0.4432  0.6948
  674TIP3    H223582   2.877   5.950   1.296 -0.8864  1.0064  0.2079
  675TIP3   OH223583   5.981   0.187   0.867 -0.3930 -0.1433  0.4456
  675TIP3    H123584   5.913   0.120   0.859  0.2587 -0.8545  0.6923
  675TIP3    H223585   6.041   0.168   0.794 -1.1296  1.3061 -0.5969
  676TIP3   OH223586   3.648   5.991   0.960  0.1131 -0.0656 -0.5290
  676TIP3    H123587   3.567   6.030   0.992  0.7788  1.9513 -1.1760
  676TIP3    H223588   3.620   5.931   0.890 -0.8465  0.1701 -0.3590
  677TIP3   OH223589   5.158   1.337   6.742 -0.3228 -0.0941  0.3934
  677TIP3    H123590   5.127   1.255   6.703  0.6606  0.5139 -1.8598
  677TIP3    H223591   5.217   1.310   6.812 -1.9300 -1.2649  1.3483
  678TIP3   OH223592   0.639   5.684   2.708 -0.2298  0.2780  0.2327
  678TIP3    H123593   0.545   5.677   2.689 -0.9089 -0.2996  3.1759
  678TIP3    H223594   0.672   5.595   2.697  0.7227  0.9549 -3.5665
  679TIP3   OH223595   3.587   5.118   1.021  0.1033 -0.6371 -0.1394
  679TIP3    H123596   3.618   5.204   0.992 -1.9230 -0.0656 -0.8162
  679TIP3    H223597   3.495   5.115   0.994 -0.7640 -1.7933  2.4954
  680TIP3   OH223598   2.983   1.484   1.020  0.0404 -0.0522  0.1352
  680TIP3    H123599   3.004   1.576   1.035 -0.1944  0.3412 -1.7298
  680TIP3    H223600   3.009   1.440   1.101 -1.0629  1.8131  1.6043
  681TIP3   OH223601   3.938   1.644   1.351 -0.2049  0.1077 -0.0274
  681TIP3    H123602   3.984   1.639   1.435  1.2807  1.0082 -0.7469
  681TIP3    H223603   3.881   1.720   1.360 -1.1826 -0.6736  0.6624
  682TIP3   OH223604   3.588   2.004   2.509  0.3005 -0.4940 -0.6518
  682TIP3    H123605   3.520   2.066   2.485  0.0788 -0.9188 -1.1320
  682TIP3    H223606   3.583   1.936   2.442  1.1969 -0.5262 -0.6971
  683TIP3   OH223607   1.025   1.323   8.146  0.9418 -0.7399 -0.0880
  683TIP3    H123608   1.095   1.320   8.081  0.4637  1.0623 -0.7561
  683TIP3    H223609   1.054   1.387   8.211  0.4044 -0.8152  0.2364
  684TIP3   OH223610   5.670   3.027   8.287 -0.3291  0.0877 -0.1037
  684TIP3    H123611   5.635   3.098   8.233 -0.3107 -0.4622 -0.8461
  684TIP3    H223612   5.608   2.955   8.275  1.2051 -1.0316 -1.7293
  685TIP3   OH223613   1.064   3.497   6.076 -0.6843  0.6905  0.1168
  685TIP3    H123614   1.101   3.413   6.050 -1.3682  0.3316  0.2951
  685TIP3    H223615   1.094   3.558   6.008 -1.9107 -0.1043 -1.1945
  686TIP3   OH223616   6.478   6.738   1.761 -0.0514 -1.0984 -0.0727
  686TIP3    H123617   6.433   6.654   1.760 -2.8456  0.2694  1.2550
  686TIP3    H223618   6.463   6.773   1.849  2.1356  0.2673 -0.1613
  687TIP3   OH223619   2.304   5.033   6.856 -0.2665  0.1097  0.1692
  687TIP3    H123620   2.275   5.124   6.852 -1.7735 -0.3620 -2.0631
  687TIP3    H223621   2.340   5.022   6.944 -0.5365  2.6896  0.6731
  688TIP3   OH223622   6.904   3.692   6.398 -0.3103  0.2480  0.0802
  688TIP3    H123623   6.820   3.703   6.443 -0.1611  0.8533  0.2118
  688TIP3    H223624   6.882   3.637   6.322 -1.1441  1.6267 -0.7410
  689TIP3   OH223625   1.291   0.481   7.334  0.3630  0.1752  0.7129
  689TIP3    H123626   1.267   0.534   7.410 -0.4193 -1.3748  1.5907
  689TIP3    H223627   1.209   0.473   7.284  0.8228  1.0012 -0.2194
  690TIP3   OH223628   3.379   5.889   6.812 -0.0733  0.0851  0.3445
  690TIP3    H123629   3.304   5.829   6.818  0.9981 -1.5561 -1.3187
  690TIP3    H223630   3.341   5.972   6.785 -1.3975 -0.4320  0.5440
  691TIP3   OH223631   3.299   5.588   2.453 -0.1230 -0.4554  0.4600
  691TIP3    H123632   3.244   5.606   2.377  0.0466  0.9220  0.6509
  691TIP3    H223633   3.303   5.671   2.500  0.3143 -1.1202  1.6281
  692TIP3   OH223634   6.510   1.015   1.279 -0.8565  0.4067  0.1281
  692TIP3    H123635   6.432   1.028   1.334 -0.6644  0.4370  0.3939
  692TIP3    H223636   6.574   0.974   1.337 -0.6764  0.3712 -0.0945
  693TIP3   OH223637   3.713   0.746   1.908  0.2249 -0.0391 -0.0729
  693TIP3    H123638   3.766   0.797   1.970 -0.8599  1.5876 -0.4349
  693TIP3    H223639   3.738   0.779   1.822 -1.3822  0.8161 -0.2517
  694TIP3   OH223640   1.471   5.731   7.113  0.2259 -0.1976 -0.1662
  694TIP3    H123641   1.431   5.818   7.122 -0.2760 -0.5352  1.3075
  694TIP3    H223642   1.546   5.733   7.172  0.4341 -0.6362 -0.4144
  695TIP3   OH223643   4.006   5.308   0.675 -0.2062 -0.7286  0.2214
  695TIP3    H123644   4.039   5.375   0.734  0.8778 -0.8586 -0.2174
  695TIP3    H223645   4.046   5.328   0.590  1.0813 -2.5602  0.3152
  696TIP3   OH223646   2.814   0.874   2.819 -0.5014 -0.2136  0.3637
  696TIP3    H123647   2.828   0.886   2.913 -1.5100  1.7288  0.2998
  696TIP3    H223648   2.874   0.935   2.777 -0.3016 -0.8271 -0.2765
  697TIP3   OH223649   3.951   1.900   7.727 -0.1815 -0.6379  0.5627
  697TIP3    H123650   3.882   1.939   7.674 -0.9784  0.3258  2.2287
  697TIP3    H223651   3.949   1.807   7.705 -1.4791 -0.4981  0.0046
  698TIP3   OH223652   0.722   4.818   0.949 -0.0713  0.9550  0.4954
  698TIP3    H123653   0.751   4.770   0.871 -0.5378  0.6718  0.4965
  698TIP3    H223654   0.639   4.777   0.973 -1.0241  2.4647 -0.1324
  699TIP3   OH223655   4.537   6.229   1.208 -0.1886  0.1082 -0.0537
  699TIP3    H123656   4.470   6.161   1.195 -0.2675 -0.1071  1.2491
  699TIP3    H223657   4.491   6.299   1.255  0.4401  0.0270  0.7148
  700TIP3   OH223658   2.470   7.007   1.556  0.0720  0.8234  0.9404
  700TIP3    H123659   2.552   6.978   1.516 -0.4037  0.6042  0.0795
  700TIP3    H223660   2.453   6.943   1.625 -1.5467 -1.8663 -1.6523
  701TIP3   OH223661   6.179   6.550   7.822 -0.1672  0.2353 -0.1627
  701TIP3    H123662   6.236   6.625   7.809  1.5624 -0.3659  3.0830
  701TIP3    H223663   6.096   6.587   7.849  0.2055  1.0029 -0.0457
  702TIP3   OH223664   1.913   5.692   0.013 -1.0316  0.2527 -0.7308
  702TIP3    H123665   1.870   5.743   0.082  1.3204  0.2998  0.8170
  702TIP3    H223666   1.930   5.755  -0.057 -0.6481  0.9467 -0.0174
  703TIP3   OH223667   1.009   3.280   7.865 -0.1996 -0.5797  0.0766
  703TIP3    H123668   1.034   3.323   7.946  2.6166 -3.9724  1.2635
  703TIP3    H223669   1.079   3.300   7.803  0.8521 -2.6942  0.4704
  704TIP3   OH223670   0.474   4.267   0.069  0.0623 -0.3573 -0.7630
  704TIP3    H123671   0.470   4.355   0.031  0.7877  0.1077  0.2088
  704TIP3    H223672   0.564   4.238   0.055  0.6082  0.1876  1.3528
  705TIP3   OH223673   4.876   0.248   1.386 -0.0709 -0.4747 -0.6073
  705TIP3    H123674   4.889   0.172   1.329 -0.3810 -0.0694 -1.2212
  705TIP3    H223675   4.882   0.212   1.475  1.5858 -0.9154 -0.8601
  706TIP3   OH223676   2.116   5.937   1.708 -0.6113  0.3565 -0.1963
  706TIP3    H123677   2.180   5.870   1.732 -0.5322  0.7679  0.8204
  706TIP3    H223678   2.141   5.965   1.620  0.9925  0.9362  0.4079
  707TIP3   OH223679   4.927   1.176   2.267  0.8020  0.0355  0.0608
  707TIP3    H123680   4.996   1.226   2.311  0.2102 -1.3894  2.8670
  707TIP3    H223681   4.868   1.243   2.231  3.2532  1.2787 -1.9814
  708TIP3   OH223682   2.849   2.641   2.500 -0.1267  0.2438  0.6965
  708TIP3    H123683   2.914   2.711   2.494  0.9940 -0.7690  0.4558
  708TIP3    H223684   2.771   2.683   2.535  0.8950  1.3560  1.7534
  709TIP3   OH223685   2.619   4.775   0.455 -0.1194 -0.7282  0.3557
  709TIP3    H123686   2.696   4.722   0.477 -0.4152 -0.1327  3.0498
  709TIP3    H223687   2.546   4.714   0.462 -0.1028 -0.8263 -0.2664
  710TIP3   OH223688   3.297   6.490   0.360 -0.0313 -0.4417 -0.8541
  710TIP3    H123689   3.298   6.560   0.295  0.3357 -0.0020 -0.3854
  710TIP3    H223690   3.362   6.516   0.425  1.7502 -2.2661 -1.7594
  711TIP3   OH223691   0.729   2.542   2.194  0.0527 -0.4212 -0.0087
  711TIP3    H123692   0.788   2.616   2.178 -0.1220 -0.3008 -0.1020
  711TIP3    H223693   0.770   2.494   2.265  0.2300 -0.3003 -0.0271
  712TIP3   OH223694   4.072   2.320   1.093  0.1026  0.1697 -0.7404
  712TIP3    H123695   4.012   2.349   1.024  0.1049  1.2693 -0.3062
  712TIP3    H223696   4.136   2.391   1.100  0.4929 -0.2435 -0.0714
  713TIP3   OH223697   3.595   6.136   0.159 -0.2087 -0.4403  0.0327
  713TIP3    H123698   3.678   6.091   0.150  1.0336  1.7680 -0.1664
  713TIP3    H223699   3.535   6.087   0.102  1.4958 -0.7906 -1.5653
  714TIP3   OH223700   2.648   0.199   0.124  0.2186 -0.0912  0.2279
  714TIP3    H123701   2.564   0.153   0.128  0.2181 -0.1017  0.0695
  714TIP3    H223702   2.695   0.158   0.052 -0.5986  1.5156 -1.2974
  715TIP3   OH223703   1.709   3.059   7.052 -0.1852  0.3152 -0.0847
  715TIP3    H123704   1.732   3.080   6.962 -0.5383  0.7155 -0.0867
  715TIP3    H223705   1.692   3.144   7.093 -2.0899  0.0413 -0.2123
  716TIP3   OH223706   5.715   2.218   7.868  0.0968 -0.4535  0.3747
  716TIP3    H123707   5.766   2.203   7.948  2.1545  0.2080 -0.7171
  716TIP3    H223708   5.754   2.297   7.830 -1.4713 -0.1998 -0.7929
  717TIP3   OH223709   3.155   6.722   7.281  0.0899  0.2683 -0.2255
  717TIP3    H123710   3.145   6.794   7.343  0.6340  0.3717 -0.2476
  717TIP3    H223711   3.079   6.666   7.296 -0.4502  0.9601 -0.3639
  718TIP3   OH223712   4.732   3.093   2.005  0.0866  0.1300 -0.1064
  718TIP3    H123713   4.672   3.104   2.079 -1.0672  0.0281 -1.0016
  718TIP3    H223714   4.792   3.168   2.012 -0.7136  0.7526  0.2785
  719TIP3   OH223715   4.716   3.754   6.555  0.0314 -0.5035  0.3608
  719TIP3    H123716   4.707   3.844   6.585  1.3264 -0.1592 -0.2078
  719TIP3    H223717   4.688   3.756   6.463 -0.1794 -0.7392  0.4175
  720TIP3   OH223718   6.975   1.909   0.996  0.1090  0.3747 -0.2545
  720TIP3    H123719   6.896   1.930   1.046 -0.3626 -0.5350 -0.5904
  720TIP3    H223720   7.023   1.991   0.991  0.0231  0.5591  1.4196
  721TIP3   OH223721   1.228   5.627   7.274  0.5844 -0.2646 -0.1447
  721TIP3    H123722   1.290   5.639   7.202  0.1644 -1.4984 -0.7290
  721TIP3    H223723   1.146   5.664   7.241  0.1206 -1.7411 -0.7308
  722TIP3   OH223724   1.881   6.635   1.724  0.2477  0.2146 -0.1020
  722TIP3    H123725   1.816   6.601   1.663  1.6675 -0.7838 -1.1297
  722TIP3    H223726   1.923   6.557   1.760  2.0590  0.8175 -0.8069
  723TIP3   OH223727   5.777   6.497   1.089  0.4183 -0.0307 -0.3546
  723TIP3    H123728   5.749   6.558   1.021  0.1972 -1.3865 -1.5175
  723TIP3    H223729   5.804   6.419   1.042  1.6132 -0.5090  1.0453
  724TIP3   OH223730   2.571   3.910   7.669  0.4583  0.1598 -0.4470
  724TIP3    H123731   2.625   3.856   7.612  1.2033 -0.1639  0.5384
  724TIP3    H223732   2.621   3.917   7.750 -0.0842  1.4934 -0.1993
  725TIP3   OH223733   3.377   4.751   7.142 -0.0665  0.0752  0.3039
  725TIP3    H123734   3.424   4.793   7.214 -1.8716  1.6086  0.6704
  725TIP3    H223735   3.300   4.713   7.183  0.5898 -2.0991 -0.3312
  726TIP3   OH223736   6.715   1.712   7.381 -1.0104  0.4519 -0.0020
  726TIP3    H123737   6.774   1.691   7.454 -1.1289 -1.4220 -0.3997
  726TIP3    H223738   6.628   1.694   7.416 -1.0112 -1.4233 -0.8666
  727TIP3   OH223739   3.210   0.383   7.013  0.8499 -0.1626  0.3735
  727TIP3    H123740   3.243   0.449   7.074 -0.2145  0.4736  0.2869
  727TIP3    H223741   3.252   0.404   6.930 -0.2488  1.0637  0.0996
  728TIP3   OH223742   1.187   5.436   0.139 -0.3400  0.2124 -0.1795
  728TIP3    H123743   1.219   5.453   0.051 -1.8312  1.4119 -0.5228
  728TIP3    H223744   1.167   5.343   0.140  2.0671 -0.3663 -0.2699
  729TIP3   OH223745   5.305   2.326   7.073 -0.3011 -0.4655  0.5500
  729TIP3    H123746   5.235   2.370   7.024  0.2915 -0.1171  0.0023
  729TIP3    H223747   5.297   2.234   7.048  0.3210 -0.2153 -0.6354
  730TIP3   OH223748   1.065   0.191   7.846 -0.3846  0.1107 -0.1202
  730TIP3    H123749   1.095   0.166   7.933  0.3732 -0.0841 -0.4285
  730TIP3    H223750   1.119   0.266   7.823 -1.4594  0.9718  0.0894
  731TIP3   OH223751   5.256   0.291   2.207 -0.1172 -0.0301  0.0161
  731TIP3    H123752   5.215   0.359   2.260 -2.5659 -0.5025 -1.1046
  731TIP3    H223753   5.262   0.215   2.265  0.0621  0.3370  0.4827
  732TIP3   OH223754   3.976   2.869   2.159  0.2500  0.6544  0.1421
  732TIP3    H123755   3.920   2.942   2.184  1.1233  0.8046  1.7874
  732TIP3    H223756   3.935   2.792   2.196 -0.4559  0.3242 -1.2530
  733TIP3   OH223757   3.722   3.940   2.492 -0.2045 -0.3540  0.3134
  733TIP3    H123758   3.688   3.984   2.570 -0.4584  2.2726 -1.1801
  733TIP3    H223759   3.817   3.940   2.503 -0.2812 -1.0900  1.1214
  734TIP3   OH223760   0.596   1.189   0.454 -0.0383 -0.2183 -0.9419
  734TIP3    H123761   0.568   1.098   0.464  0.6641 -0.4851 -1.2933
  734TIP3    H223762   0.533   1.228   0.394  0.9571 -1.1256 -2.6495
  735TIP3   OH223763   3.884   2.859   6.479 -0.0403  0.6645  0.4614
  735TIP3    H123764   3.921   2.932   6.529  0.3399  1.1289 -0.4800
  735TIP3    H223765   3.847   2.899   6.401 -0.7110 -0.0455  0.4000
  736TIP3   OH223766   0.860   1.902   7.495 -0.1025  0.1722 -0.5782
  736TIP3    H123767   0.949   1.885   7.525 -0.3434  0.8898  0.6161
  736TIP3    H223768   0.857   1.866   7.407  1.4121  0.2764 -0.6973
  737TIP3   OH223769   1.093   2.068   7.183  0.2963  0.0240  0.3439
  737TIP3    H123770   1.031   2.108   7.245  1.8984  1.3794  1.1521
  737TIP3    H223771   1.062   2.096   7.097  0.2726  1.4595  0.7854
  738TIP3   OH223772   4.062   6.991   1.082 -0.6823 -0.2780  0.5089
  738TIP3    H123773   4.143   6.954   1.047 -0.2992  1.6140 -0.7216
  738TIP3    H223774   4.071   6.982   1.177  2.2996  2.3380  0.6216
  739TIP3   OH223775   5.733   3.532   7.431  0.2227  0.1584 -0.8814
  739TIP3    H123776   5.662   3.503   7.374  1.2858 -1.0863 -1.6170
  739TIP3    H223777   5.712   3.624   7.450 -1.2875 -0.0229 -1.4926
  740TIP3   OH223778   2.570   1.335   2.173 -0.0966 -0.4683 -0.0956
  740TIP3    H123779   2.477   1.341   2.195 -0.2021  0.2052 -0.6891
  740TIP3    H223780   2.573   1.277   2.096 -0.1569  0.4493 -0.8034
  741TIP3   OH223781   4.161   6.277   6.750  0.2097 -0.1582 -0.0406
  741TIP3    H123782   4.228   6.327   6.704 -0.3645 -0.1179 -0.8437
  741TIP3    H223783   4.197   6.189   6.757  0.6254  0.0238  0.1315
  742TIP3   OH223784   2.181   1.481   0.330 -0.1052 -0.3882  0.2906
  742TIP3    H123785   2.189   1.421   0.255  0.3318  2.9022 -2.5340
  742TIP3    H223786   2.272   1.502   0.353 -0.2207 -1.5659  2.0846
  743TIP3   OH223787   1.400   1.246   0.404 -0.0691 -0.2065  0.3980
  743TIP3    H123788   1.427   1.215   0.491 -0.6053  0.9497  1.0015
  743TIP3    H223789   1.398   1.167   0.350 -0.3538 -1.0528  1.5962
  744TIP3   OH223790   1.511   3.436   0.284  0.4889 -0.1470  0.3990
  744TIP3    H123791   1.529   3.522   0.245 -0.4079  0.2208  0.7656
  744TIP3    H223792   1.588   3.417   0.338  1.2192 -0.1224 -0.5927
  745TIP3   OH223793   5.716   6.955   2.523  0.3810  0.4502  0.1832
  745TIP3    H123794   5.705   6.864   2.494 -0.0880  0.4012  0.5009
  745TIP3    H223795   5.811   6.967   2.529  0.5183  0.6323 -1.8742
  746TIP3   OH223796   1.122   5.902   0.133  0.4623  0.0286  0.2438
  746TIP3    H123797   1.062   5.832   0.162  0.4102  0.5651  1.4887
  746TIP3    H223798   1.137   5.954   0.211  1.9695  0.3556 -0.2448
  747TIP3   OH223799   3.137   4.034   7.044  0.5559 -0.2324 -0.6202
  747TIP3    H123800   3.217   4.070   7.006  1.3003 -1.7957 -0.6443
  747TIP3    H223801   3.089   3.999   6.969  1.0333 -1.4614 -0.3789
  748TIP3   OH223802   3.458   1.154   7.340 -0.2273 -0.1590  0.8836
  748TIP3    H123803   3.551   1.148   7.321 -0.3673 -0.7407  0.3466
  748TIP3    H223804   3.426   1.064   7.332 -1.2426  0.3116 -1.0904
  749TIP3   OH223805   0.555   5.358   6.741  0.0718 -0.0436  0.4641
  749TIP3    H123806   0.626   5.411   6.703 -0.7851  1.6678  1.1420
  749TIP3    H223807   0.564   5.372   6.836 -0.4600 -0.7623  0.6211
  750TIP3   OH223808   2.301   2.702   7.165 -0.9570  0.2259 -0.4312
  750TIP3    H123809   2.260   2.618   7.187 -0.9552  0.5707  0.9732
  750TIP3    H223810   2.305   2.702   7.069 -1.1036 -1.3052 -0.4711
  751TIP3   OH223811   6.899   3.265   7.299 -0.1474 -0.3220 -0.0457
  751TIP3    H123812   6.900   3.222   7.384  0.6036 -2.3261 -1.0051
  751TIP3    H223813   6.819   3.233   7.256 -1.6288  2.2578  0.5971
  752TIP3   OH223814   2.060   3.426   0.657 -0.1042  0.0494  0.6706
  752TIP3    H123815   2.068   3.495   0.591  0.0841 -1.0591 -0.5046
  752TIP3    H223816   2.056   3.473   0.741 -3.9259  1.7415 -0.2463
  753TIP3   OH223817   6.023   0.736   7.669  0.0271 -0.4965 -0.1759
  753TIP3    H123818   5.949   0.736   7.730 -0.7578 -0.7180 -1.0989
  753TIP3    H223819   6.077   0.663   7.697 -0.4405 -0.7356  0.1209
  754TIP3   OH223820   2.291   6.077   7.811  0.4405 -0.4050 -0.0439
  754TIP3    H123821   2.282   6.086   7.716  0.2858  1.6720  0.1050
  754TIP3    H223822   2.381   6.047   7.824  0.2800 -1.2634 -0.8626
  755TIP3   OH223823   6.068   1.549   0.437 -0.3144  0.2767 -0.4026
  755TIP3    H123824   5.979   1.534   0.403 -0.4391 -1.3608  0.5834
  755TIP3    H223825   6.055   1.613   0.508 -0.6748  0.2337 -0.4249
  756TIP3   OH223826   6.214   5.862   1.831  0.2512  0.0755  0.4840
  756TIP3    H123827   6.129   5.821   1.811 -0.5316  2.0145 -0.4603
  756TIP3    H223828   6.279   5.795   1.810 -0.9871 -1.0038 -0.0412
  757TIP3   OH223829   1.210   6.950   1.486  0.2507  0.7087  0.2981
  757TIP3    H123830   1.196   6.955   1.392  2.2445  0.6343 -0.0420
  757TIP3    H223831   1.138   6.896   1.519  0.0440 -0.0300 -1.3111
  758TIP3   OH223832   0.851   2.179   6.434  0.2793  0.4042  0.6551
  758TIP3    H123833   0.810   2.097   6.462  1.1981 -0.0995  0.5693
  758TIP3    H223834   0.938   2.153   6.403 -0.7210  0.8258 -3.0171
  759TIP3   OH223835   0.696   2.107   7.015 -0.0635 -0.3631  0.0739
  759TIP3    H123836   0.778   2.128   6.969 -0.3888 -0.7432 -0.6913
  759TIP3    H223837   0.651   2.191   7.023 -0.2555 -0.3714 -0.8166
  760TIP3   OH223838   0.347   2.520   1.485 -0.1334  0.2824  0.2379
  760TIP3    H123839   0.252   2.522   1.488 -0.1725  0.5255 -0.9264
  760TIP3    H223840   0.373   2.508   1.577 -1.3115 -1.5643  0.3731
  761TIP3   OH223841   5.102   1.355   8.239  0.0128  0.8661 -0.0355
  761TIP3    H123842   5.157   1.431   8.225  1.3640 -0.2802 -1.2145
  761TIP3    H223843   5.120   1.297   8.165  1.7471 -2.1680  2.5095
  762TIP3   OH223844   4.082   6.939   7.897 -0.0771 -0.0653 -0.1371
  762TIP3    H123845   4.060   6.989   7.976 -0.5915 -0.1959 -0.1904
  762TIP3    H223846   4.100   7.005   7.831 -0.5408  0.0531 -0.1493
  763TIP3   OH223847   4.207   4.529   0.149  0.1138 -0.3189 -0.5814
  763TIP3    H123848   4.262   4.562   0.221 -0.0765 -0.1815 -0.4973
  763TIP3    H223849   4.186   4.439   0.174 -0.6108 -0.0190 -0.0687
  764TIP3   OH223850   0.914   4.235   7.538  0.2732  0.4113 -0.0297
  764TIP3    H123851   0.925   4.330   7.533 -1.1343  0.5720 -0.2735
  764TIP3    H223852   0.943   4.212   7.627  1.1584  0.9713 -0.1592
  765TIP3   OH223853   1.413   0.132   2.103  0.3608  0.2836  0.5526
  765TIP3    H123854   1.508   0.122   2.108  0.4902 -0.2708 -1.8445
  765TIP3    H223855   1.378   0.064   2.160  1.4237 -1.3527 -0.6603
  766TIP3   OH223856   2.226   3.958   8.076  0.3885  0.0515  0.5836
  766TIP3    H123857   2.316   3.976   8.100  1.3072 -1.9726 -1.0410
  766TIP3    H223858   2.202   4.030   8.017  1.6678 -0.4491 -0.5948
  767TIP3   OH223859   6.525   2.114   6.819 -0.2717 -0.5742  0.2064
  767TIP3    H123860   6.533   2.062   6.739  1.9993  0.7059 -0.4658
  767TIP3    H223861   6.431   2.110   6.840 -0.4595 -3.5540 -0.6952
  768TIP3   OH223862   6.145   3.517   7.811  0.4108 -0.1167 -0.3090
  768TIP3    H123863   6.076   3.488   7.752 -0.3100  0.5476  0.1799
  768TIP3    H223864   6.225   3.509   7.760 -0.2160  0.6779 -1.4638
  769TIP3   OH223865   0.796   5.549   1.337  0.1119  0.1248  0.4686
  769TIP3    H123866   0.856   5.549   1.262  0.6807  0.1733  0.9144
  769TIP3    H223867   0.736   5.477   1.319  0.5363 -0.1694  0.1854
  770TIP3   OH223868   5.159   5.542   1.033 -0.2782  0.0387  0.0942
  770TIP3    H123869   5.139   5.492   0.953  0.8436  0.1336 -0.2523
  770TIP3    H223870   5.223   5.488   1.080 -0.3440  0.3566  0.5508
  771TIP3   OH223871   1.467   6.274   0.641 -0.1118  0.6503 -0.3044
  771TIP3    H123872   1.446   6.202   0.700 -0.0300 -0.5964 -1.7216
  771TIP3    H223873   1.558   6.296   0.661  0.6151 -1.1823 -1.3146
  772TIP3   OH223874   0.539   3.676   0.481  0.1841  0.2777 -0.0782
  772TIP3    H123875   0.565   3.615   0.550  1.8292  1.2256  0.1961
  772TIP3    H223876   0.591   3.755   0.498  0.2022  0.7412 -2.0518
  773TIP3   OH223877   3.050   2.847   7.194 -0.2462  0.6268 -0.4125
  773TIP3    H123878   2.969   2.818   7.153 -0.3716 -1.5974  1.1765
  773TIP3    H223879   3.115   2.843   7.125 -1.2244  1.1762 -1.3962
  774TIP3   OH223880   1.715   2.593   7.615 -0.5799  0.0681  0.2170
  774TIP3    H123881   1.775   2.624   7.683  1.1110 -1.9236 -0.2648
  774TIP3    H223882   1.677   2.673   7.579  2.6537  1.5838 -0.2441
  775TIP3   OH223883   5.815   5.641   7.644 -0.2306 -0.7718 -0.0101
  775TIP3    H123884   5.904   5.615   7.667  0.0852  0.2293 -0.0964
  775TIP3    H223885   5.760   5.581   7.695  0.4040 -3.6973 -2.4143
  776TIP3   OH223886   5.237   1.225   2.536 -0.9853 -0.7697 -0.2115
  776TIP3    H123887   5.144   1.247   2.540 -1.0351 -0.8465 -0.9462
  776TIP3    H223888   5.282   1.309   2.533 -1.1593 -0.6999 -2.6471
  777TIP3   OH223889   6.376   1.127   7.843  0.0164  0.4809  0.1622
  777TIP3    H123890   6.317   1.190   7.886 -0.5513 -0.6460  1.0892
  777TIP3    H223891   6.454   1.125   7.899 -1.1529 -1.7910  1.8657
  778TIP3   OH223892   3.662   3.385   2.152 -0.1502 -0.4640 -0.3156
  778TIP3    H123893   3.725   3.434   2.100 -1.0188 -0.4333 -1.3745
  778TIP3    H223894   3.609   3.338   2.088 -2.1593  0.6670  0.4164
  779TIP3   OH223895   3.497   0.317   2.395 -0.0532  1.0241  0.4551
  779TIP3    H123896   3.504   0.412   2.397  0.6550  0.9942 -0.2503
  779TIP3    H223897   3.432   0.299   2.326 -0.1245  0.9939  0.5302
  780TIP3   OH223898   6.862   5.237   0.595 -0.0147  0.2036 -0.4009
  780TIP3    H123899   6.844   5.143   0.588 -1.9085  0.3979  1.0472
  780TIP3    H223900   6.807   5.278   0.529 -0.2141  0.3819 -0.1277
  781TIP3   OH223901   4.740   3.971   2.062  0.4243  0.6753  0.0388
  781TIP3    H123902   4.734   3.890   2.011  0.6789  0.8801 -0.3271
  781TIP3    H223903   4.719   3.945   2.151 -1.4660  0.5626 -0.4004
  782TIP3   OH223904   6.428   5.157   0.488 -1.0914 -0.1316 -0.7132
  782TIP3    H123905   6.485   5.113   0.425 -0.9617 -0.9744 -0.0324
  782TIP3    H223906   6.355   5.096   0.500 -0.6611 -0.4173  0.6194
  783TIP3   OH223907   5.294   0.012   2.052 -0.2356 -0.6960 -0.1275
  783TIP3    H123908   5.349   0.088   2.035  0.0343 -0.7388  0.5468
  783TIP3    H223909   5.248   0.032   2.133 -1.1594 -0.6984 -0.6408
  784TIP3   OH223910   3.413   2.208   2.435  0.1494  0.0884 -0.1429
  784TIP3    H123911   3.479   2.269   2.467  0.1660 -0.0027 -0.0006
  784TIP3    H223912   3.335   2.228   2.486  0.0038  0.3410 -0.4629
  785TIP3   OH223913   1.243   3.217   0.705  0.3623  0.1246  0.6785
  785TIP3    H123914   1.186   3.294   0.698  0.0699  0.1869  3.0600
  785TIP3    H223915   1.330   3.249   0.679 -0.2036  0.5873 -0.7751
  786TIP3   OH223916   2.625   5.970   7.839 -0.4556  0.0630  0.0534
  786TIP3    H123917   2.671   5.976   7.756  0.3675  1.3935  0.5652
  786TIP3    H223918   2.679   5.911   7.892 -0.3629  0.1203  0.0222
  787TIP3   OH223919   4.785   6.097   0.763 -0.1416  0.1278 -0.7033
  787TIP3    H123920   4.866   6.149   0.761  0.1706 -0.1767  1.5120
  787TIP3    H223921   4.814   6.008   0.743 -0.1129  0.2147 -1.0480
  788TIP3   OH223922   3.336   3.505   1.650 -0.1297 -0.0289  0.4764
  788TIP3    H123923   3.246   3.486   1.677  0.0038 -1.1037  0.1843
  788TIP3    H223924   3.364   3.576   1.709 -1.6186  1.2830 -0.3271
  789TIP3   OH223925   2.825   2.209   6.036  0.1491 -0.5396  0.2966
  789TIP3    H123926   2.911   2.186   6.071  0.6401 -1.7258 -1.5561
  789TIP3    H223927   2.829   2.305   6.026 -0.0552 -0.1070  3.3651
  790TIP3   OH223928   0.108   2.109   1.803 -0.4330  0.4028 -0.1146
  790TIP3    H123929   0.159   2.191   1.803 -0.5888  0.5113 -1.1211
  790TIP3    H223930   0.021   2.135   1.773 -0.6937 -0.0203  0.2649
  791TIP3   OH223931   3.389   2.813   0.096  0.1341 -0.1558 -0.0884
  791TIP3    H123932   3.341   2.859   0.027  2.6637  2.6562 -0.1343
  791TIP3    H223933   3.321   2.765   0.143 -1.9334 -0.8180 -3.3952
  792TIP3   OH223934   3.812   0.912   8.295  0.4921  0.0664  0.4937
  792TIP3    H123935   3.834   0.855   8.368  1.3623 -1.7438 -1.1077
  792TIP3    H223936   3.886   0.973   8.289  1.1479 -0.7423  0.2097
  793TIP3   OH223937   1.156   6.896   0.755  0.3536 -0.2295  0.0322
  793TIP3    H123938   1.103   6.840   0.698  1.9956 -1.6983 -0.1270
  793TIP3    H223939   1.155   6.852   0.840  1.8970 -0.6952 -0.1688
  794TIP3   OH223940   4.204   6.484   1.985 -0.8009  0.0332  0.5314
  794TIP3    H123941   4.270   6.554   1.984  0.2807 -0.9185 -1.5094
  794TIP3    H223942   4.134   6.518   2.041  0.6854  1.7756  1.4581
  795TIP3   OH223943   0.892   3.325   0.583 -0.2983  0.0091 -0.6790
  795TIP3    H123944   0.965   3.387   0.582  0.7859 -1.2257 -1.6127
  795TIP3    H223945   0.910   3.268   0.657  0.7071 -1.4202 -1.9758
  796TIP3   OH223946   1.827   4.215   0.844  0.9085 -0.2676 -0.0764
  796TIP3    H123947   1.883   4.199   0.768  0.7764 -1.8410  0.1198
  796TIP3    H223948   1.889   4.226   0.916  1.0125  0.2775 -0.2465
  797TIP3   OH223949   0.821   6.407   1.132 -0.1329  0.2897  0.6022
  797TIP3    H123950   0.743   6.453   1.160 -0.6695  0.6879 -1.3626
  797TIP3    H223951   0.818   6.323   1.177 -2.8729 -0.5994 -0.9969
  798TIP3   OH223952   6.982   5.499   6.925 -0.4621  1.0660 -0.1342
  798TIP3    H123953   6.999   5.591   6.904  1.2911  0.8663  0.2349
  798TIP3    H223954   7.064   5.454   6.904 -1.0632 -0.3012  0.3273
  799TIP3   OH223955   0.033   6.890   7.913  0.1103  0.4684  0.5887
  799TIP3    H123956  -0.010   6.950   7.974 -1.0433  0.9406 -0.6463
  799TIP3    H223957   0.030   6.805   7.957  0.7771  1.0967  1.8837
  800TIP3   OH223958   3.531   5.741   1.072  0.3736  0.0779  0.2451
  800TIP3    H123959   3.446   5.780   1.091 -0.0699 -1.5372  1.8889
  800TIP3    H223960   3.578   5.744   1.155  1.6312  0.2406 -0.4520
  801TIP3   OH223961   4.541   1.933   6.760  0.0659  0.5298 -1.0607
  801TIP3    H123962   4.459   1.925   6.711 -0.8133 -0.9768  0.5649
  801TIP3    H223963   4.557   1.846   6.796  0.1968  1.7063  2.0109
  802TIP3   OH223964   3.559   2.867   7.403  0.4015  0.2209 -0.1204
  802TIP3    H123965   3.618   2.856   7.329  0.3924 -1.8873  0.1406
  802TIP3    H223966   3.478   2.824   7.377 -0.1284  0.7870  0.5371
  803TIP3   OH223967   0.995   2.551   6.371 -0.4875 -0.4606 -0.3730
  803TIP3    H123968   0.963   2.554   6.281 -0.5636  2.4551 -0.3681
  803TIP3    H223969   0.923   2.588   6.423  1.2462  2.5635  0.1383
  804TIP3   OH223970   1.382   2.717   0.105  0.1648 -0.4950 -0.0189
  804TIP3    H123971   1.416   2.752   0.023  1.4055  1.5777  1.3088
  804TIP3    H223972   1.320   2.783   0.136 -1.2774 -1.8550  0.1273
  805TIP3   OH223973   2.782   4.126   1.261  0.1022 -0.2886 -0.1542
  805TIP3    H123974   2.837   4.204   1.265 -0.2492 -0.0471  0.0447
  805TIP3    H223975   2.710   4.151   1.203  1.2109 -1.2517 -2.0298
  806TIP3   OH223976   1.561   4.411   7.361  0.5235  0.4041  0.1953
  806TIP3    H123977   1.564   4.315   7.359 -0.9254  0.0861  4.3486
  806TIP3    H223978   1.601   4.435   7.445  0.1350  3.3973 -0.3588
  807TIP3   OH223979   5.659   0.262   1.125 -0.0573 -0.2873 -0.5466
  807TIP3    H123980   5.626   0.185   1.079 -1.2915  0.7017 -1.3759
  807TIP3    H223981   5.750   0.270   1.095 -0.5835 -0.1490 -2.1800
  808TIP3   OH223982   6.396   4.785   7.617 -0.0759 -0.4681 -0.1407
  808TIP3    H123983   6.424   4.867   7.658  1.4651 -0.6698 -0.7524
  808TIP3    H223984   6.418   4.795   7.525  1.0326 -1.9298 -0.0689
  809TIP3   OH223985   1.463   2.893   1.028  0.1785  0.1819 -0.0336
  809TIP3    H123986   1.468   2.875   1.122  0.1991 -0.2187 -0.1104
  809TIP3    H223987   1.389   2.840   0.998 -0.2357  0.8031 -0.1303
  810TIP3   OH223988   4.260   0.004   7.181  0.1875  0.7549 -0.3063
  810TIP3    H123989   4.312  -0.075   7.198 -0.2409  0.3850 -0.6903
  810TIP3    H223990   4.275   0.023   7.088  0.4265  1.2250 -0.1719
  811TIP3   OH223991   4.175   3.278   8.300  0.2701 -0.6266  0.2215
  811TIP3    H123992   4.192   3.299   8.392  0.2767  0.7662 -0.0881
  811TIP3    H223993   4.084   3.302   8.286  0.7336  0.7353 -0.5565
  812TIP3   OH223994   3.232   6.891   0.304 -0.1959  0.6297 -0.3595
  812TIP3    H123995   3.144   6.900   0.340  0.9793  2.0187  2.5335
  812TIP3    H223996   3.245   6.797   0.295 -1.0529  0.2423  1.8388
  813TIP3   OH223997   3.336   4.850   7.608 -0.2533 -0.4749 -0.5306
  813TIP3    H123998   3.402   4.836   7.541  0.0656 -1.0969 -0.1019
  813TIP3    H223999   3.261   4.887   7.561 -0.6225 -2.3517 -1.5477
  814TIP3   OH224000   5.441   3.046   0.765 -1.0927  0.1117  0.2051
  814TIP3    H124001   5.512   3.047   0.701 -0.7594 -1.8142  0.4847
  814TIP3    H224002   5.450   3.129   0.812 -0.5865  0.9992 -1.3979
  815TIP3   OH224003   2.287   2.822   1.675 -0.0749  0.0525 -0.6959
  815TIP3    H124004   2.236   2.817   1.756  0.5744  0.2085 -0.2692
  815TIP3    H224005   2.375   2.846   1.704  0.4418 -0.9924 -1.3369
  816TIP3   OH224006   5.166   2.971   2.118  0.5157  0.2643  0.2138
  816TIP3    H124007   5.119   3.026   2.055  0.0891  1.0083  1.1510
  816TIP3    H224008   5.160   2.883   2.082 -1.3858  0.3759  0.1572
  817TIP3   OH224009   1.953   4.988   1.396  0.1952 -0.5738  0.1567
  817TIP3    H124010   1.864   4.998   1.363  0.1324 -1.0291  0.1910
  817TIP3    H224011   2.008   4.983   1.317  0.2331  0.0373  0.1353
  818TIP3   OH224012   0.577   5.188   6.413  0.2803 -0.4948 -0.2818
  818TIP3    H124013   0.633   5.257   6.378 -0.7627  0.4572 -0.1046
  818TIP3    H224014   0.577   5.121   6.344  0.2530  0.2597 -1.0260
  819TIP3   OH224015   4.555   2.126   2.822 -0.8123 -0.7438 -0.1810
  819TIP3    H124016   4.470   2.158   2.852 -2.2762 -2.2449 -2.4038
  819TIP3    H224017   4.565   2.041   2.865  0.2161 -0.0574  1.0230
  820TIP3   OH224018   4.414   3.456   2.201 -0.3338 -0.3274  0.0739
  820TIP3    H124019   4.400   3.536   2.150 -0.7080  1.1677  2.3795
  820TIP3    H224020   4.362   3.469   2.281 -0.9336 -3.1900  0.2449
  821TIP3   OH224021   3.990   3.127   6.604 -0.3425  0.4761 -0.1628
  821TIP3    H124022   4.031   3.108   6.520 -0.8507  2.0956 -0.8221
  821TIP3    H224023   4.031   3.209   6.633 -2.7917  2.0083 -0.7098
  822TIP3   OH224024   1.286   6.621   1.690 -0.2353 -0.0447 -0.1412
  822TIP3    H124025   1.227   6.587   1.624 -0.6213 -0.0377  0.1956
  822TIP3    H224026   1.368   6.638   1.643 -0.1827 -0.9802 -0.4083
  823TIP3   OH224027   0.463   5.447   2.228  0.4159 -0.0425  0.0790
  823TIP3    H124028   0.493   5.425   2.139 -0.2594  0.2532 -0.2262
  823TIP3    H224029   0.412   5.527   2.217  0.6443  0.2133  0.7989
  824TIP3   OH224030   0.111   3.409   2.025  0.1798  0.2730  0.2335
  824TIP3    H124031   0.170   3.412   1.949  0.2782 -0.8794  0.2447
  824TIP3    H224032   0.129   3.490   2.072  1.3149  0.2448 -0.1047
  825TIP3   OH224033   0.705   4.360   1.702  0.0268  0.3387  0.5248
  825TIP3    H124034   0.745   4.423   1.642  0.2230  0.6519  0.9812
  825TIP3    H224035   0.765   4.285   1.702 -0.9649 -0.5132 -1.1936
  826TIP3   OH224036   6.061   2.039   8.254 -0.3141  0.6425  0.3592
  826TIP3    H124037   6.062   2.035   8.159 -2.4429  1.4705  0.2590
  826TIP3    H224038   6.142   1.995   8.281 -0.4726 -1.0935 -1.7536
  827TIP3   OH224039   4.790   4.635   2.651 -0.1927  0.4860  0.3520
  827TIP3    H124040   4.873   4.661   2.691  0.0903  0.1726 -0.0260
  827TIP3    H224041   4.726   4.696   2.688  0.1155  0.4002  1.0455
  828TIP3   OH224042   2.156   1.910   8.217 -0.2046  0.3855  0.2257
  828TIP3    H124043   2.193   1.965   8.287  0.1240  1.7768 -0.9814
  828TIP3    H224044   2.221   1.842   8.203  0.9780  1.6003 -0.4497
  829TIP3   OH224045   2.498   6.842   1.817 -0.8795 -0.1525 -0.4572
  829TIP3    H124046   2.562   6.882   1.877 -0.5796 -0.5393 -0.5142
  829TIP3    H224047   2.541   6.763   1.786 -0.9992  0.0971 -1.2652
  830TIP3   OH224048   3.269   1.152   8.212  0.6140  0.2841 -0.2812
  830TIP3    H124049   3.239   1.219   8.273  2.2924 -0.0767  1.0013
  830TIP3    H224050   3.286   1.201   8.131  0.0118  1.0710  0.0487
  831TIP3   OH224051   5.083   0.054   1.803 -0.2503 -0.1208  0.1996
  831TIP3    H124052   5.163   0.105   1.792  0.2472 -0.9216 -0.0122
  831TIP3    H224053   5.097   0.005   1.884 -0.5037 -0.3039  0.1324
  832TIP3   OH224054   2.160   4.993   0.174  0.0653 -0.1544 -0.0848
  832TIP3    H124055   2.233   5.052   0.156  1.3103 -0.7440  2.5204
  832TIP3    H224056   2.196   4.905   0.160 -0.6838 -0.4194 -0.4306
  833TIP3   OH224057   6.101   1.287   7.379  0.1335 -0.4172  0.3055
  833TIP3    H124058   6.085   1.329   7.464 -0.2182  1.4203 -0.6198
  833TIP3    H224059   6.031   1.223   7.370 -0.1424 -0.2494  1.1714
  834TIP3   OH224060   2.647   4.379   2.108 -0.2234  0.5692  0.4612
  834TIP3    H124061   2.577   4.315   2.119  0.7809 -0.3865  1.7551
  834TIP3    H224062   2.707   4.360   2.181  0.8455  2.0228 -0.0057
  835TIP3   OH224063   6.606   1.984   7.090 -0.4465  0.0946 -0.3032
  835TIP3    H124064   6.681   1.986   7.031  0.1866 -0.9149  0.4435
  835TIP3    H224065   6.602   1.894   7.122 -1.8142  0.1950 -0.1065
  836TIP3   OH224066   1.115   6.015   7.830 -0.4152 -0.0031 -0.4677
  836TIP3    H124067   1.125   6.102   7.869 -0.9705  0.6468 -1.7104
  836TIP3    H224068   1.029   6.017   7.788 -0.9820 -1.6006  0.5359
  837TIP3   OH224069   3.965   4.127   2.305  0.4242  0.5826 -0.2904
  837TIP3    H124070   3.873   4.147   2.287  0.0903 -0.2460  0.3912
  837TIP3    H224071   3.967   4.109   2.399  1.2600  0.4626 -0.3239
  838TIP3   OH224072   2.946   5.853   2.208 -0.2000  0.4790 -0.2751
  838TIP3    H124073   2.918   5.774   2.162 -0.2192 -0.0275  0.5843
  838TIP3    H224074   3.039   5.839   2.224 -0.1678  0.7092 -0.2535
  839TIP3   OH224075   2.823   6.102   1.617  0.6464 -0.3664  0.6146
  839TIP3    H124076   2.851   6.066   1.532 -0.4843 -2.2095  0.9609
  839TIP3    H224077   2.862   6.044   1.682 -0.9528 -0.8203  1.2233
  840TIP3   OH224078   0.045   0.733   7.714 -0.1366 -0.1116  0.3575
  840TIP3    H124079   0.131   0.749   7.676  1.4897 -0.1199  3.6726
  840TIP3    H224080   0.009   0.662   7.662  0.3427  1.9830 -3.1643
  841TIP3   OH224081   6.079   2.979   0.330 -0.7855 -0.0738  0.1609
  841TIP3    H124082   6.026   2.899   0.321  0.0037 -0.6216  0.3241
  841TIP3    H224083   6.138   2.977   0.255  0.1501 -0.3470  0.8936
  842TIP3   OH224084   4.607   0.700   7.380  0.8861 -0.3390 -0.2415
  842TIP3    H124085   4.566   0.634   7.324  2.2359  1.0225 -3.0607
  842TIP3    H224086   4.700   0.678   7.379  0.8031 -1.2639  3.0366
  843TIP3   OH224087   4.957   1.609   0.575 -0.0714  0.1145  0.0665
  843TIP3    H124088   4.877   1.650   0.608 -0.2006 -0.8142  0.9808
  843TIP3    H224089   4.935   1.582   0.486 -0.2069  1.3736 -0.2987
  844TIP3   OH224090   3.966   5.141   1.060 -0.2718  0.3043 -0.5979
  844TIP3    H124091   3.924   5.087   0.993 -1.6752  0.1893  0.3423
  844TIP3    H224092   3.923   5.226   1.053  1.5336  1.1873 -1.6929
  845TIP3   OH224093   0.341   3.018   7.711 -0.0483 -0.3477 -0.0170
  845TIP3    H124094   0.341   2.929   7.746 -1.3896 -0.6718 -0.7505
  845TIP3    H224095   0.294   3.070   7.776 -1.1375 -0.6321 -0.5407
  846TIP3   OH224096   4.821   2.792   2.064  0.6749  0.3363  0.2867
  846TIP3    H124097   4.842   2.828   1.978 -1.0893 -0.6835 -0.6423
  846TIP3    H224098   4.776   2.864   2.109 -0.0100  0.3211 -0.3481
  847TIP3   OH224099   0.496   1.509   7.970  0.0692  0.2110  0.2541
  847TIP3    H124100   0.451   1.499   7.886 -1.3898  0.4576  0.9816
  847TIP3    H224101   0.586   1.483   7.952 -0.2337  0.1966 -1.3704
  848TIP3   OH224102   5.528   5.226   0.829 -0.0817 -0.8032 -0.2740
  848TIP3    H124103   5.561   5.176   0.755 -0.9404 -0.2771 -1.0407
  848TIP3    H224104   5.503   5.160   0.893  1.4393 -1.2394 -0.0942
  849TIP3   OH224105   6.201   2.596   0.781 -0.5054 -0.6781  0.1709
  849TIP3    H124106   6.246   2.514   0.763  1.6710  0.4411  0.2511
  849TIP3    H224107   6.238   2.659   0.720 -3.2450 -0.0281 -0.9726
  850TIP3   OH224108   4.072   2.230   7.373  0.2880 -0.0185  0.1373
  850TIP3    H124109   4.140   2.237   7.439  0.1467 -2.6566  0.6493
  850TIP3    H224110   4.023   2.151   7.396 -2.1036  1.0073 -1.0097
  851TIP3   OH224111   4.437   4.215   1.366  0.2509  0.1214 -0.3182
  851TIP3    H124112   4.369   4.222   1.299  1.4644  0.2144 -1.5965
  851TIP3    H224113   4.393   4.236   1.448 -1.5910 -1.3007 -0.8934
  852TIP3   OH224114   2.571   0.364   6.661 -0.2252  0.0157  0.0317
  852TIP3    H124115   2.587   0.303   6.588 -1.1943  0.9983 -1.0483
  852TIP3    H224116   2.489   0.408   6.637 -0.8613 -0.0114  1.9974
  853TIP3   OH224117   2.912   1.775   0.377 -0.5655 -0.0655  0.1804
  853TIP3    H124118   2.866   1.721   0.314 -1.7727 -0.1924  1.1304
  853TIP3    H224119   2.912   1.723   0.458  0.8791  0.1195  0.3209
  854TIP3   OH224120   2.096   1.919   1.666  0.1761  0.8232  0.2821
  854TIP3    H124121   2.004   1.942   1.660 -0.1533  0.3526  2.6716
  854TIP3    H224122   2.129   1.968   1.741  0.7061 -2.3142  2.3166
  855TIP3   OH224123   3.563   3.645   7.798  0.6091  0.3370  0.1507
  855TIP3    H124124   3.543   3.732   7.832  0.4592  0.3500  0.0299
  855TIP3    H224125   3.633   3.659   7.735 -0.4377  0.5842 -1.0033
  856TIP3   OH224126   5.043   0.182   0.524  0.1500  0.8369 -0.1064
  856TIP3    H124127   5.128   0.213   0.494  0.5197  1.2683  1.3112
  856TIP3    H224128   4.980   0.244   0.486  0.4695  0.6384 -0.9868
  857TIP3   OH224129   2.345   6.106   7.251  0.2458 -0.1677  0.0759
  857TIP3    H124130   2.358   6.200   7.238 -0.3809  0.2817  2.3146
  857TIP3    H224131   2.421   6.065   7.209  0.1434  1.2490 -1.5995
  858TIP3   OH224132   6.425   6.089   1.261  0.1656  0.4786  0.5970
  858TIP3    H124133   6.431   6.101   1.166  1.0649  0.6043  0.6606
  858TIP3    H224134   6.470   6.006   1.277 -0.2934  0.2805  0.8782
  859TIP3   OH224135   4.741   4.169   8.096 -0.2888  0.5787 -0.3832
  859TIP3    H124136   4.816   4.112   8.079  1.2751  2.6790 -0.9742
  859TIP3    H224137   4.724   4.160   8.189  1.6912  1.1156  0.0857
  860TIP3   OH224138   5.463   3.143   2.361  0.1319  0.2415  0.2365
  860TIP3    H124139   5.395   3.077   2.372 -1.0027  1.0660 -1.3592
  860TIP3    H224140   5.540   3.106   2.404 -1.5146 -0.3215  2.9289
  861TIP3   OH224141   1.292   2.185   1.644  0.7351  0.2950 -0.2754
  861TIP3    H124142   1.314   2.207   1.735  1.5106 -0.6410 -0.2159
  861TIP3    H224143   1.267   2.268   1.605  0.4188  0.7214  0.7897
  862TIP3   OH224144   0.180   5.225   1.500 -0.0227  0.2585  0.0056
  862TIP3    H124145   0.137   5.202   1.418 -1.0449 -0.8945  0.8253
  862TIP3    H224146   0.213   5.314   1.486 -1.3552  0.6020 -1.2005
  863TIP3   OH224147   4.977   3.869   2.566  0.0522 -0.4585  0.9839
  863TIP3    H124148   4.970   3.961   2.590 -4.1510 -0.4332  0.4288
  863TIP3    H224149   4.893   3.831   2.591  0.0082 -3.2072 -2.5347
  864TIP3   OH224150   5.888   1.292   1.998 -0.2071 -0.3043  0.3578
  864TIP3    H124151   5.881   1.375   1.950  0.2810 -0.3071  0.2829
  864TIP3    H224152   5.945   1.312   2.072 -2.4186  0.1933  2.0267
  865TIP3   OH224153   6.786   4.976   0.663  0.1718 -0.1792 -0.1217
  865TIP3    H124154   6.846   4.910   0.695 -0.7201 -0.8465  0.2116
  865TIP3    H224155   6.773   5.035   0.737 -0.1460 -0.4519  0.0439
  866TIP3   OH224156   2.147   6.096   2.306 -0.6696 -0.7070  0.1995
  866TIP3    H124157   2.135   6.035   2.379 -0.3014 -1.1731 -0.1210
  866TIP3    H224158   2.067   6.088   2.255 -0.3981 -1.3398 -0.1394
  867TIP3   OH224159   2.178   0.210   7.532 -0.1074  0.3515 -0.1059
  867TIP3    H124160   2.205   0.282   7.590 -0.9839  0.6942 -0.1030
  867TIP3    H224161   2.167   0.251   7.446  0.1923  0.0477 -0.2919
  868TIP3   OH224162   1.806   4.016   2.267 -0.4183  0.3171 -0.6767
  868TIP3    H124163   1.747   3.948   2.235 -0.7518  1.1374 -1.8837
  868TIP3    H224164   1.886   3.970   2.291 -1.0858 -0.6488 -0.2871
  869TIP3   OH224165   4.336   5.100   2.408 -0.6029  0.0981  0.3888
  869TIP3    H124166   4.316   5.147   2.328  1.4206  0.6551  0.1606
  869TIP3    H224167   4.392   5.027   2.380 -0.4057 -0.0811  1.2131
  870TIP3   OH224168   0.784   1.962   7.996  0.4997  0.0022 -0.1326
  870TIP3    H124169   0.753   1.965   7.905 -1.2702 -1.7852  0.3339
  870TIP3    H224170   0.823   1.874   8.004 -2.0688 -1.0952  1.5532
  871TIP3   OH224171   1.483   0.789   1.966 -0.3141  0.2124  0.1455
  871TIP3    H124172   1.476   0.860   2.031 -1.5518  0.2313  0.0067
  871TIP3    H224173   1.487   0.709   2.019 -2.5547  0.1260  0.2840
  872TIP3   OH224174   4.977   3.403   2.243  0.1282  0.5438  0.7240
  872TIP3    H124175   5.030   3.418   2.165 -1.3058 -0.0646 -0.4313
  872TIP3    H224176   4.960   3.308   2.243 -1.5178  0.8024  0.6287
  873TIP3   OH224177   6.657   4.702   1.455 -0.1727 -0.2359  0.4821
  873TIP3    H124178   6.605   4.633   1.497  0.2268  0.3459  1.9733
  873TIP3    H224179   6.727   4.721   1.517  0.1675  0.9973 -0.2407
  874TIP3   OH224180   0.238   1.870   7.215 -0.1601 -0.0002  0.0051
  874TIP3    H124181   0.311   1.932   7.204 -0.6557  0.8574  1.2682
  874TIP3    H224182   0.171   1.901   7.155 -0.2763  0.5217  0.3875
  875TIP3   OH224183   4.169   4.840   7.289  0.3083 -0.6608 -0.9428
  875TIP3    H124184   4.184   4.749   7.265  1.0905 -0.4448 -1.2770
  875TIP3    H224185   4.079   4.857   7.262 -0.0873 -1.5260 -0.2618
  876TIP3   OH224186   2.318   2.743   6.864 -0.0401 -0.4136  0.3435
  876TIP3    H124187   2.316   2.839   6.866  0.0596 -0.3943 -0.2488
  876TIP3    H224188   2.342   2.721   6.774 -1.3849 -1.0069  0.0921
  877TIP3   OH224189   1.157   6.698   0.940  0.6666 -0.1323  0.0609
  877TIP3    H124190   1.107   6.617   0.924  1.2968 -0.5438  0.1430
  877TIP3    H224191   1.137   6.720   1.031  1.5537 -0.9584  0.4699
  878TIP3   OH224192   0.926   5.192   0.935  0.1816  0.1727  0.0983
  878TIP3    H124193   0.918   5.164   1.027  0.1338  1.2490  0.4312
  878TIP3    H224194   0.857   5.257   0.924  1.6727  1.7954 -0.0171
  879TIP3   OH224195   6.381   2.175   8.214  0.4625 -0.2102  0.0845
  879TIP3    H124196   6.307   2.228   8.244  0.9651 -0.4668  1.9313
  879TIP3    H224197   6.346   2.086   8.209 -0.0739  0.0681 -1.8820
  880TIP3   OH224198   4.519   3.793   0.589 -0.0559  0.0280 -0.3190
  880TIP3    H124199   4.492   3.761   0.676  0.9617 -2.3280 -0.8072
  880TIP3    H224200   4.611   3.770   0.582  0.0031  0.6184 -1.8725
  881TIP3   OH224201   5.526   2.524   7.897  0.4040 -0.1019  0.6449
  881TIP3    H124202   5.528   2.620   7.897  0.2773 -0.0429 -2.1287
  881TIP3    H224203   5.614   2.498   7.870 -0.7134 -0.5831 -2.9525
  882TIP3   OH224204   1.633   4.830   8.243  0.6795  0.1021  0.1676
  882TIP3    H124205   1.709   4.783   8.276  0.3561 -0.7070 -0.2073
  882TIP3    H224206   1.604   4.779   8.167 -0.6296  0.0134  0.6952
  883TIP3   OH224207   4.545   3.897   8.053  0.2396  0.1466  0.0300
  883TIP3    H124208   4.583   3.971   8.005 -1.6016  1.6717  0.7962
  883TIP3    H224209   4.471   3.935   8.101 -0.5312 -2.1383  0.7709
  884TIP3   OH224210   5.378   2.087   1.280 -0.2938 -0.7113 -0.2756
  884TIP3    H124211   5.441   2.143   1.325 -1.7375 -0.0115  0.9425
  884TIP3    H224212   5.415   1.999   1.288  0.3838 -0.3594  0.6631
  885TIP3   OH224213   1.336   1.711   1.083 -0.2491 -0.2278 -0.1101
  885TIP3    H124214   1.352   1.697   0.989 -1.5361 -0.1316 -0.3737
  885TIP3    H224215   1.253   1.665   1.099 -0.3963  0.3520  0.8193
  886TIP3   OH224216   1.924   3.697   7.333  0.3511  0.6170  0.4103
  886TIP3    H124217   1.920   3.642   7.254  0.5381 -0.5123  1.1536
  886TIP3    H224218   1.985   3.767   7.311  0.6299  0.1514 -0.3526
  887TIP3   OH224219   3.960   2.504   0.607 -0.2728  0.1931 -0.0997
  887TIP3    H124220   3.976   2.579   0.551  1.1730  0.1572  0.2156
  887TIP3    H224221   3.867   2.483   0.595 -0.4446  1.3848 -0.9590
  888TIP3   OH224222   0.869   6.139   6.378 -0.3382  0.7374  0.5645
  888TIP3    H124223   0.845   6.186   6.298  1.1821  0.3175 -0.1767
  888TIP3    H224224   0.785   6.115   6.418 -1.2635 -1.6661 -2.4449
  889TIP3   OH224225   1.323   2.881   2.351  0.4000 -0.6374 -0.1996
  889TIP3    H124226   1.266   2.810   2.319 -0.6326 -0.5339  1.3406
  889TIP3    H224227   1.392   2.836   2.400 -0.7909 -0.5963  1.6107
  890TIP3   OH224228   4.024   0.122   6.890  0.1621 -0.2582  0.1776
  890TIP3    H124229   4.118   0.106   6.880  0.4926  0.8742  1.2976
  890TIP3    H224230   3.983   0.043   6.854  1.5079 -0.5173 -0.8887
  891TIP3   OH224231   2.553   3.215   2.303 -0.2712  0.3783 -0.5396
  891TIP3    H124232   2.516   3.302   2.318 -1.0648 -0.0655  0.1249
  891TIP3    H224233   2.648   3.229   2.303 -0.4030  1.4810 -1.9673
  892TIP3   OH224234   0.771   1.928   6.507  0.2220 -0.3190 -0.1892
  892TIP3    H124235   0.735   1.907   6.421 -1.3595 -1.4743  0.6934
  892TIP3    H224236   0.739   1.858   6.564 -0.9502  1.7652  1.8921
  893TIP3   OH224237   3.721   6.234   1.198 -0.5995  0.8532  0.0352
  893TIP3    H124238   3.655   6.174   1.234  1.1096 -0.9374  0.3751
  893TIP3    H224239   3.696   6.246   1.106 -0.7824 -0.7468 -0.1519
  894TIP3   OH224240   5.049   6.830   0.710  0.6194  0.0246 -0.6120
  894TIP3    H124241   5.142   6.810   0.702  0.7281  0.7102 -1.1939
  894TIP3    H224242   5.017   6.831   0.619  0.5115  1.8685 -0.5938
  895TIP3   OH224243   4.223   2.912   0.892 -0.1732 -0.0284 -0.1953
  895TIP3    H124244   4.163   2.841   0.867  0.9278 -0.7013 -1.0106
  895TIP3    H224245   4.178   2.958   0.963 -1.9141 -0.1678 -1.1543
  896TIP3   OH224246   5.198   1.631   6.112  0.2448  0.4424 -0.5568
  896TIP3    H124247   5.201   1.725   6.126  0.3842  0.1740  1.6105
  896TIP3    H224248   5.287   1.601   6.129  0.2457 -0.0730 -1.4006
  897TIP3   OH224249   6.365   4.501   7.043 -0.8016  0.1983 -0.4503
  897TIP3    H124250   6.296   4.454   7.089  0.2958  0.4321  1.5482
  897TIP3    H224251   6.340   4.496   6.951 -1.3338 -3.2527 -0.2420
  898TIP3   OH224252   5.247   3.269   0.746  0.5978 -0.2709 -0.2716
  898TIP3    H124253   5.270   3.362   0.741 -1.1763  0.1826 -0.5531
  898TIP3    H224254   5.202   3.260   0.830  0.0716 -0.7136 -0.5989
  899TIP3   OH224255   6.539   4.810   0.509  0.0069  0.0368  0.6085
  899TIP3    H124256   6.515   4.889   0.461  3.7285  0.4466 -0.8945
  899TIP3    H224257   6.614   4.836   0.562  1.2928 -2.4062  0.1313
  900TIP3   OH224258   3.483   5.853   1.477 -0.2828  0.1245  0.3296
  900TIP3    H124259   3.541   5.793   1.430  0.4387  0.1253  1.1980
  900TIP3    H224260   3.494   5.830   1.569 -0.5835  1.0780  0.6139
  901TIP3   OH224261   0.061   6.307   2.450  0.7005 -0.3755 -0.0842
  901TIP3    H124262   0.075   6.219   2.484  2.9759 -1.1989 -2.7082
  901TIP3    H224263   0.095   6.365   2.517  3.0646 -1.7751  0.0306
  902TIP3   OH224264   2.853   4.245   7.862 -0.0347 -0.1325  0.6713
  902TIP3    H124265   2.819   4.308   7.799  0.2199 -0.1571  0.5076
  902TIP3    H224266   2.896   4.299   7.928 -0.9533 -0.0634  1.2276
  903TIP3   OH224267   2.969   5.110   6.516  0.3339 -0.3790  0.0331
  903TIP3    H124268   3.010   5.194   6.533  0.9396 -0.2977 -1.6345
  903TIP3    H224269   2.882   5.132   6.483  0.2060 -0.4377  0.3274
  904TIP3   OH224270   5.489   1.725   1.622  0.4887  0.3205 -0.5239
  904TIP3    H124271   5.436   1.799   1.593  1.3056  0.9339 -0.5056
  904TIP3    H224272   5.558   1.765   1.676  2.0262 -0.2348 -2.0093
  905TIP3   OH224273   5.658   0.170   2.340 -0.8875 -0.1517 -0.4015
  905TIP3    H124274   5.564   0.171   2.356 -0.6170  1.0462  1.3352
  905TIP3    H224275   5.694   0.113   2.408 -0.3091 -0.3439 -0.8520
  906TIP3   OH224276   3.580   2.298   1.441  0.1662  0.0453 -0.1015
  906TIP3    H124277   3.593   2.222   1.385 -0.3016  1.1366 -1.7840
  906TIP3    H224278   3.649   2.359   1.416 -0.5129  0.8610 -0.0426
  907TIP3   OH224279   6.419   2.889   7.488 -0.2030 -0.2715 -0.0990
  907TIP3    H124280   6.426   2.906   7.582 -0.6678  0.2634 -0.1568
  907TIP3    H224281   6.327   2.870   7.473  0.1649 -2.3600 -0.1380
  908TIP3   OH224282   0.506   0.162   7.113 -0.3740  0.3395 -0.2703
  908TIP3    H124283   0.471   0.210   7.187 -1.9778  1.2244 -1.5517
  908TIP3    H224284   0.465   0.076   7.119 -1.2464  0.7180 -0.6394
  909TIP3   OH224285   4.381   1.302   2.219 -0.0544  0.2382 -0.9112
  909TIP3    H124286   4.441   1.237   2.256  1.2881  1.3803 -0.9810
  909TIP3    H224287   4.295   1.261   2.224  0.8624 -2.0246 -2.0347
  910TIP3   OH224288   1.780   0.168   1.629 -0.2485 -0.1548 -0.1568
  910TIP3    H124289   1.790   0.230   1.557  2.6418 -2.4910 -1.9973
  910TIP3    H224290   1.865   0.169   1.673 -0.9779 -1.0075  1.3411
  911TIP3   OH224291   6.822   6.446   7.695 -0.0188 -0.2103 -0.7313
  911TIP3    H124292   6.847   6.359   7.664 -0.8395  0.0098 -2.0834
  911TIP3    H224293   6.773   6.430   7.776  1.1371 -0.8819 -0.1386
  912TIP3   OH224294   5.847   2.513   7.586 -0.3195  0.2475 -0.2511
  912TIP3    H124295   5.781   2.452   7.554 -0.0074 -1.0323  1.3907
  912TIP3    H224296   5.841   2.508   7.682  1.3754  0.9426 -0.0612
  913TIP3   OH224297   5.334   2.648   0.411  0.9414  0.2945  0.5175
  913TIP3    H124298   5.357   2.741   0.418  0.7504  0.7186 -2.8079
  913TIP3    H224299   5.240   2.645   0.424  0.8200  0.7160 -0.2431
  914TIP3   OH224300   1.473   3.566   6.391  0.1399 -0.5810 -0.1040
  914TIP3    H124301   1.383   3.578   6.361 -0.0266 -0.8319  0.2842
  914TIP3    H224302   1.521   3.640   6.354 -0.5638  0.5123  1.0678
  915TIP3   OH224303   6.257   3.385   1.277 -0.5079 -0.1025 -0.3463
  915TIP3    H124304   6.184   3.328   1.300 -2.2129  1.9567 -0.4002
  915TIP3    H224305   6.266   3.376   1.182  0.2435 -1.3781 -0.1747
  916TIP3   OH224306   3.165   3.805   0.256 -0.0407  0.1412 -0.2600
  916TIP3    H124307   3.150   3.723   0.303 -1.4657  0.9297  0.7346
  916TIP3    H224308   3.244   3.841   0.296 -0.5223  0.1891  0.6867
  917TIP3   OH224309   6.729   1.374   1.845  1.2529  0.2482 -0.0220
  917TIP3    H124310   6.734   1.298   1.903 -0.1273  0.1368 -0.0086
  917TIP3    H224311   6.724   1.449   1.904  1.7908  0.2915 -0.0271
  918TIP3   OH224312   0.174   3.278   0.639 -0.4628 -0.4000  0.0869
  918TIP3    H124313   0.235   3.326   0.583  0.5450 -2.7547 -0.9799
  918TIP3    H224314   0.221   3.268   0.722 -1.1554  1.3676  0.7437
  919TIP3   OH224315   0.223   6.859   1.744 -0.3682  0.0055 -0.0680
  919TIP3    H124316   0.308   6.850   1.786 -0.9762 -1.6518  0.9420
  919TIP3    H224317   0.241   6.856   1.650  0.6576 -0.8750  0.1396
  920TIP3   OH224318   3.629   6.041   7.533  0.0273 -0.3628 -0.0844
  920TIP3    H124319   3.637   5.946   7.533 -0.7801 -0.5071  2.5371
  920TIP3    H224320   3.661   6.068   7.618 -0.4620  1.6561 -0.4789
  921TIP3   OH224321   2.693   3.634   6.727 -0.2029  0.0188 -0.0355
  921TIP3    H124322   2.778   3.612   6.688 -1.1025 -1.9222 -1.0391
  921TIP3    H224323   2.713   3.652   6.819  1.3676  0.1779 -0.3745
  922TIP3   OH224324   2.749   0.931   0.958  0.5170 -0.2345 -0.4387
  922TIP3    H124325   2.704   0.918   1.041  1.5002 -3.5832 -0.2874
  922TIP3    H224326   2.842   0.936   0.982  0.7054  0.2013 -1.2332
  923TIP3   OH224327   5.519   6.970   7.913 -0.6453  0.7862 -0.3778
  923TIP3    H124328   5.609   6.935   7.911 -0.6546  0.6209  1.0665
  923TIP3    H224329   5.467   6.901   7.872 -0.4453 -0.3078  1.0900
  924TIP3   OH224330   1.461   0.602   7.580  0.3035 -0.1114 -0.1450
  924TIP3    H124331   1.370   0.581   7.560  0.6730 -1.1643 -0.7762
  924TIP3    H224332   1.489   0.534   7.640  0.9644 -0.3774 -0.7382
  925TIP3   OH224333   4.628   4.069   7.682 -0.1576 -0.6351 -0.4151
  925TIP3    H124334   4.590   4.156   7.694 -0.3191 -0.7597 -0.0222
  925TIP3    H224335   4.720   4.086   7.663 -0.3010 -0.3543 -0.8890
  926TIP3   OH224336   4.872   5.384   1.016  0.1924 -0.3577 -0.2018
  926TIP3    H124337   4.877   5.295   0.980 -0.0870 -0.3423 -0.2812
  926TIP3    H224338   4.956   5.396   1.060  0.4292 -0.4863 -0.6023
  927TIP3   OH224339   5.756   1.394   8.193  0.0506  0.7678  0.7166
  927TIP3    H124340   5.675   1.409   8.242 -0.8163 -1.2644  0.0326
  927TIP3    H224341   5.730   1.336   8.121  1.7745  1.6083 -0.6531
  928TIP3   OH224342   3.984   0.243   7.474  0.0289  0.1802  0.0801
  928TIP3    H124343   4.028   0.232   7.558 -0.2387 -0.1321  0.1794
  928TIP3    H224344   4.013   0.169   7.421 -1.1293 -0.5800  0.4742
  929TIP3   OH224345   1.295   1.455   1.665  0.3057  0.6012  0.4937
  929TIP3    H124346   1.220   1.421   1.616  0.6622  1.8201 -0.9684
  929TIP3    H224347   1.257   1.490   1.746 -0.7688  1.4855 -0.3611
  930TIP3   OH224348   5.297   5.782   7.338 -0.0451 -1.0248 -0.2635
  930TIP3    H124349   5.237   5.769   7.412 -0.9630  0.9411 -0.6032
  930TIP3    H224350   5.261   5.857   7.291  1.6158 -1.0197 -1.6132
  931TIP3   OH224351   4.965   1.685   0.103 -0.2501 -0.2745 -0.0509
  931TIP3    H124352   5.033   1.717   0.044  0.3616  0.6153  1.1021
  931TIP3    H224353   5.009   1.624   0.161 -0.5959 -0.2619  0.2323
  932TIP3   OH224354   4.068   5.516   0.871  0.2824  0.5932  0.5480
  932TIP3    H124355   3.981   5.555   0.883 -0.6277 -0.1196 -2.6469
  932TIP3    H224356   4.129   5.585   0.896 -1.2378  2.6903 -1.1443
  933TIP3   OH224357   1.253   5.708   1.168 -0.0729 -0.4252 -0.2022
  933TIP3    H124358   1.315   5.635   1.172  0.5468  0.0580 -0.9568
  933TIP3    H224359   1.281   5.767   1.238  2.5462  1.5037 -2.6385
  934TIP3   OH224360   3.997   1.717   0.753 -0.3325  0.5225 -0.9362
  934TIP3    H124361   3.969   1.722   0.844  1.2232  1.5224 -0.4719
  934TIP3    H224362   3.958   1.636   0.720 -2.0554  0.8443  0.2030
  935TIP3   OH224363   0.062   6.353   1.690  0.4301 -0.0650 -0.3789
  935TIP3    H124364   0.101   6.431   1.731 -0.8063  1.6763 -2.3224
  935TIP3    H224365   0.127   6.284   1.705  1.3412  1.1616  1.8715
  936TIP3   OH224366   3.801   0.434   0.698 -0.2042  0.4054 -0.1520
  936TIP3    H124367   3.816   0.378   0.774  0.4388 -0.8345 -1.1400
  936TIP3    H224368   3.740   0.384   0.644 -1.4464  1.7159 -0.0146
  937TIP3   OH224369   0.933   3.769   0.671 -0.0450  0.4133 -0.2327
  937TIP3    H124370   0.852   3.798   0.628  0.2364  1.1668 -0.2850
  937TIP3    H224371   0.931   3.674   0.665 -2.1149  0.2322  1.9114
  938TIP3   OH224372   4.156   0.350   0.563 -0.2724  0.0411  0.2230
  938TIP3    H124373   4.097   0.348   0.488  1.0898  0.7216 -0.9157
  938TIP3    H224374   4.188   0.440   0.566  0.6500 -0.2948  0.8552
  939TIP3   OH224375   2.468   3.288   6.332  0.3755 -0.6021  0.0058
  939TIP3    H124376   2.389   3.291   6.385 -0.9169  1.3650 -1.8861
  939TIP3    H224377   2.528   3.348   6.376  0.1489 -0.6693  0.4166
  940TIP3   OH224378   6.399   3.509   7.677  0.0480 -0.3270 -0.4895
  940TIP3    H124379   6.379   3.553   7.595  0.4237  0.3616 -0.2182
  940TIP3    H224380   6.487   3.538   7.699  0.9158 -2.3840 -1.0608
  941TIP3   OH224381   3.197   5.817   0.568  0.2061 -0.7587 -0.4953
  941TIP3    H124382   3.188   5.813   0.473  0.5997  0.0936 -0.5780
  941TIP3    H224383   3.119   5.865   0.597  0.9893  0.6043 -0.5735
  942TIP3   OH224384   2.091   6.606   8.150  0.0519  0.4956 -0.4335
  942TIP3    H124385   2.179   6.602   8.112  0.1058  0.3005 -0.2908
  942TIP3    H224386   2.080   6.521   8.193  0.3640  1.0405  0.7964
  943TIP3   OH224387   0.318   3.209   0.841 -0.1543 -0.2807  0.4266
  943TIP3    H124388   0.348   3.268   0.910  1.0005 -0.3040 -0.0280
  943TIP3    H224389   0.292   3.129   0.886 -0.5523  0.1311  0.9345
  944TIP3   OH224390   2.431   5.806   1.475  0.6968  0.8439 -0.0811
  944TIP3    H124391   2.406   5.745   1.405  0.5970  0.1203  0.5683
  944TIP3    H224392   2.364   5.792   1.543  0.8874  1.4153  0.2266
  945TIP3   OH224393   2.534   4.965   0.848  0.1076 -0.0281 -0.0551
  945TIP3    H124394   2.561   4.987   0.759 -2.2032  0.7525 -0.6467
  945TIP3    H224395   2.602   4.906   0.880  1.7254  0.7775 -1.8119
  946TIP3   OH224396   0.483   4.971   7.201 -0.1281 -0.0948  0.3198
  946TIP3    H124397   0.489   4.982   7.296 -1.5398 -0.2287  0.4505
  946TIP3    H224398   0.441   4.886   7.189 -0.9704  0.4031 -0.3945
  947TIP3   OH224399   0.204   0.412   8.065 -0.3295 -0.1311 -0.2387
  947TIP3    H124400   0.123   0.363   8.079 -0.8040  0.7701  0.2733
  947TIP3    H224401   0.216   0.462   8.145  0.1547  0.5663 -0.7324
  948TIP3   OH224402   6.450   3.079   6.897  0.1895  0.4598 -0.1457
  948TIP3    H124403   6.424   3.162   6.937 -1.9470 -0.5282  0.6915
  948TIP3    H224404   6.396   3.072   6.818  0.2111 -0.1825 -0.1109
  949TIP3   OH224405   4.013   2.980   7.690 -0.5061 -0.6947 -0.0990
  949TIP3    H124406   4.002   3.061   7.738  1.2798 -0.6416  0.2889
  949TIP3    H224407   4.102   2.952   7.710  0.4430 -0.5741 -3.4602
  950TIP3   OH224408   3.566   4.376   0.342 -0.5577 -0.1758  0.0935
  950TIP3    H124409   3.551   4.470   0.351 -1.0436 -0.0975 -1.2230
  950TIP3    H224410   3.661   4.366   0.349 -0.4341  0.5149 -0.4351
  951TIP3   OH224411   0.398   6.095   7.324 -0.0810 -0.5123 -0.3724
  951TIP3    H124412   0.483   6.051   7.330 -0.2329 -0.7253  0.2269
  951TIP3    H224413   0.417   6.177   7.280  0.2356 -1.1052 -1.3855
  952TIP3   OH224414   2.944   2.226   0.009 -0.5246 -0.8215 -0.5750
  952TIP3    H124415   2.848   2.223   0.001 -0.6914 -0.1001  0.7629
  952TIP3    H224416   2.962   2.178   0.089 -0.0638  1.4672  0.7847
  953TIP3   OH224417   2.806   2.999   5.628  0.6357  0.0827  0.1605
  953TIP3    H124418   2.841   2.912   5.646 -1.1304 -0.6010  0.5421
  953TIP3    H224419   2.714   2.994   5.656  0.9877  2.6719  2.0787
  954TIP3   OH224420   2.363   2.140   6.694 -0.1972 -0.1362 -0.5030
  954TIP3    H124421   2.285   2.195   6.694 -0.4873 -0.5298  0.2030
  954TIP3    H224422   2.348   2.078   6.622 -0.9359 -0.7492  0.1613
  955TIP3   OH224423   2.334   3.359   6.929  0.0386  0.0478 -0.1289
  955TIP3    H124424   2.358   3.375   6.838  2.2305 -1.5468  0.0969
  955TIP3    H224425   2.403   3.401   6.981 -0.6049  0.0320  0.7771
  956TIP3   OH224426   0.136   6.206   2.152  0.5922  0.1529  0.2755
  956TIP3    H124427   0.082   6.252   2.217 -1.6531 -2.2404  0.2680
  956TIP3    H224428   0.206   6.165   2.203  0.6521  0.7889  0.7174
  957TIP3   OH224429   4.029   1.088   8.265 -0.0592  0.4406  0.1478
  957TIP3    H124430   4.058   1.094   8.174 -1.9076  0.1569 -0.5166
  957TIP3    H224431   4.028   1.178   8.296  1.1437  0.4834  0.0881
  958TIP3   OH224432   3.052   5.196   0.716 -0.0739  0.4044  0.3694
  958TIP3    H124433   3.125   5.225   0.770  1.0114  0.1437 -0.9096
  958TIP3    H224434   3.059   5.100   0.714  0.1574  0.4349 -0.5758
  959TIP3   OH224435   5.237   4.248   6.921  0.0943 -0.0048 -0.0173
  959TIP3    H124436   5.319   4.239   6.873 -0.2947  0.9947 -0.9039
  959TIP3    H224437   5.168   4.234   6.856 -0.4362  0.4294  0.4349
  960TIP3   OH224438   2.921   5.595   2.019 -0.3635  0.7395 -0.0643
  960TIP3    H124439   2.835   5.627   2.048 -0.2145 -1.0764  2.6565
  960TIP3    H224440   2.946   5.530   2.084  1.4917 -1.4280 -2.7065
  961TIP3   OH224441   5.199   1.491   1.187 -0.6300 -0.0082  0.2768
  961TIP3    H124442   5.144   1.423   1.148 -1.3006 -1.3411  3.2784
  961TIP3    H224443   5.137   1.557   1.217 -0.3868 -0.1696  1.1706
  962TIP3   OH224444   6.507   0.021   7.049  0.1745  0.4056 -0.2345
  962TIP3    H124445   6.597  -0.006   7.027 -0.0214 -0.5373  0.1028
  962TIP3    H224446   6.509   0.116   7.041  1.3043  0.4269  0.1143
  963TIP3   OH224447   6.851   6.439   2.337  0.3586 -0.3650  0.0332
  963TIP3    H124448   6.915   6.374   2.366  1.5079  1.0294  0.7307
  963TIP3    H224449   6.891   6.524   2.356 -0.4483  0.6140 -2.1805
  964TIP3   OH224450   5.465   4.269   6.746  0.6787  0.3375 -0.3684
  964TIP3    H124451   5.560   4.281   6.745  0.6058  1.0974  0.2614
  964TIP3    H224452   5.436   4.294   6.659  0.8866  1.7978 -0.0456
  965TIP3   OH224453   5.652   1.873   0.510  0.6338  0.0519 -0.1096
  965TIP3    H124454   5.652   1.809   0.580  1.1311  2.9639  2.7709
  965TIP3    H224455   5.741   1.907   0.508  0.2490  1.0934 -1.1411
  966TIP3   OH224456   5.640   5.538   1.643  0.4432  0.1286  0.0084
  966TIP3    H124457   5.626   5.547   1.738 -1.1063  0.2451 -0.1997
  966TIP3    H224458   5.625   5.626   1.609 -0.7799 -0.2638 -0.5211
  967TIP3   OH224459   6.328   0.476   7.179  0.1773  0.0600  0.8516
  967TIP3    H124460   6.353   0.501   7.090 -0.9137 -0.2611  0.4376
  967TIP3    H224461   6.365   0.389   7.190  0.1225  0.0080  0.6305
  968TIP3   OH224462   3.140   1.119   1.810  0.7247 -0.2385  0.2575
  968TIP3    H124463   3.176   1.208   1.806 -0.6727  0.3300 -0.7186
  968TIP3    H224464   3.133   1.092   1.718 -0.4361 -0.6605  0.4466
  969TIP3   OH224465   5.757   4.502   8.001  0.2994  0.7030  0.2304
  969TIP3    H124466   5.722   4.478   7.916 -1.2320  1.0892  0.7158
  969TIP3    H224467   5.746   4.423   8.055  1.8680  0.2394 -0.0635
  970TIP3   OH224468   5.076   0.150   8.240 -0.0908  0.1418 -0.4698
  970TIP3    H124469   5.020   0.142   8.162  1.6161  1.2448 -1.8872
  970TIP3    H224470   5.067   0.241   8.266 -0.4326 -0.1572  0.4967
  971TIP3   OH224471   4.204   1.825   8.235 -0.2835  0.2960 -0.5016
  971TIP3    H124472   4.150   1.891   8.192 -0.6379 -0.1483 -0.7497
  971TIP3    H224473   4.187   1.837   8.328 -0.6477  0.2992 -0.5664
  972TIP3   OH224474   5.719   3.066   0.955 -0.5104  0.1220 -0.1564
  972TIP3    H124475   5.771   3.032   0.883 -0.6586  1.3635 -0.8927
  972TIP3    H224476   5.657   2.996   0.976 -0.0442 -0.4993 -0.8114
  973TIP3   OH224477   6.574   2.367   2.221 -0.1741  0.6944 -0.2155
  973TIP3    H124478   6.563   2.440   2.282  1.1498  1.0018 -0.3252
  973TIP3    H224479   6.631   2.306   2.268  0.1709  0.5467 -0.8298
  974TIP3   OH224480   5.088   6.240   1.255 -0.3330 -0.4638  0.1494
  974TIP3    H124481   5.061   6.183   1.183  2.0389  2.2427 -3.1655
  974TIP3    H224482   5.011   6.293   1.274 -1.0356 -1.2988 -0.2803
  975TIP3   OH224483   2.802   6.981   1.642 -0.0091 -0.0703  0.2605
  975TIP3    H124484   2.809   7.042   1.716 -0.3863 -0.4475  0.6166
  975TIP3    H224485   2.726   7.011   1.593  0.3090  0.2488 -0.0440
  976TIP3   OH224486   1.826   3.924   6.723 -0.0722  0.0330 -0.2105
  976TIP3    H124487   1.877   3.935   6.643  2.7949 -0.2375  1.4266
  976TIP3    H224488   1.834   4.008   6.768 -0.3025 -0.3270  0.5089
  977TIP3   OH224489   1.328   6.609   7.156  0.4890  0.1555  0.0586
  977TIP3    H124490   1.258   6.630   7.094  0.4970 -2.4751 -0.9397
  977TIP3    H224491   1.326   6.682   7.218 -2.5902  0.6017 -0.3780
  978TIP3   OH224492   0.466   6.476   6.959  0.6702  0.5829 -0.0944
  978TIP3    H124493   0.490   6.458   6.868  0.6316 -1.0611  0.1837
  978TIP3    H224494   0.422   6.396   6.988  0.2551  1.2685  1.2296
  979TIP3   OH224495   2.367   3.762   7.410 -0.2180 -0.2264  0.3203
  979TIP3    H124496   2.457   3.732   7.412  0.3822  1.4615  1.9977
  979TIP3    H224497   2.315   3.682   7.417  1.0718 -1.2942 -1.4898
  980TIP3   OH224498   6.181   1.622   8.062  0.3140 -0.0935  0.1468
  980TIP3    H124499   6.109   1.622   8.125  1.3936  0.6728  1.4565
  980TIP3    H224500   6.249   1.570   8.104  0.6806 -0.4682 -0.8798
  981TIP3   OH224501   1.760   3.150   6.808 -0.2920  0.1300  0.4598
  981TIP3    H124502   1.682   3.134   6.756  0.2737  0.9525 -0.6809
  981TIP3    H224503   1.765   3.246   6.816  0.3745  0.0715  0.8671
  982TIP3   OH224504   4.819   6.873   1.938  0.2553  0.0200  0.0298
  982TIP3    H124505   4.810   6.919   2.021 -1.9432  0.3084 -0.3183
  982TIP3    H224506   4.777   6.929   1.874  1.9034 -0.1978 -1.3339
  983TIP3   OH224507   3.189   6.055   0.204  0.3442 -0.0594 -0.5526
  983TIP3    H124508   3.205   6.141   0.165 -1.2972  0.0920 -0.9632
  983TIP3    H224509   3.147   6.074   0.288 -0.4925 -0.4607 -0.8719
  984TIP3   OH224510   1.967   2.242   7.771 -0.2050  0.4074 -0.4122
  984TIP3    H124511   2.025   2.167   7.760 -1.1699 -0.3143 -0.7656
  984TIP3    H224512   1.879   2.205   7.762 -0.6707  1.8374 -2.2564
  985TIP3   OH224513   5.250   4.270   7.183 -0.3405  0.7108 -0.1621
  985TIP3    H124514   5.247   4.279   7.087  1.4106  1.6799 -0.1757
  985TIP3    H224515   5.327   4.217   7.199 -1.3679 -0.5686  0.6972
  986TIP3   OH224516   2.527   0.267   0.718  0.3772  0.7210 -0.7140
  986TIP3    H124517   2.576   0.189   0.744  0.9092  1.5830  1.0091
  986TIP3    H224518   2.439   0.234   0.698  0.9041 -0.4667 -1.1975
  987TIP3   OH224519   5.998   5.699   6.909  0.4520  0.2363  0.3034
  987TIP3    H124520   6.083   5.657   6.903  1.1881  1.7292 -0.1513
  987TIP3    H224521   5.935   5.627   6.900  1.6274 -0.5836 -2.2755
  988TIP3   OH224522   1.193   3.857   2.204  0.4011 -0.2736 -0.1151
  988TIP3    H124523   1.190   3.776   2.256  0.5160  0.6780  1.4274
  988TIP3    H224524   1.102   3.886   2.201  0.3832 -0.3756 -0.5265
  989TIP3   OH224525   1.844   6.471   2.423 -0.1990  0.2988 -0.0784
  989TIP3    H124526   1.893   6.485   2.342 -0.8096 -1.4551 -0.8096
  989TIP3    H224527   1.781   6.543   2.426 -1.2245 -0.4316 -2.0118
  990TIP3   OH224528   4.216   6.224   7.011  0.3624 -0.5294 -0.3408
  990TIP3    H124529   4.192   6.260   6.925  1.7875  0.7738 -0.2284
  990TIP3    H224530   4.136   6.234   7.064  0.9409  3.8358  0.0729
  991TIP3   OH224531   1.472   4.492   1.307 -0.7493 -0.1703  0.2267
  991TIP3    H124532   1.512   4.439   1.376  0.9304 -3.3362 -2.8421
  991TIP3    H224533   1.546   4.535   1.264 -1.5633  0.4048 -0.6475
  992TIP3   OH224534   6.242   2.751   1.637 -0.0210 -0.0976 -0.2120
  992TIP3    H124535   6.154   2.772   1.668  0.1620  0.3288  0.0158
  992TIP3    H224536   6.293   2.736   1.716  0.5999  1.5908 -0.2651
  993TIP3   OH224537   1.260   6.157   2.453 -0.2000  0.1378 -0.3391
  993TIP3    H124538   1.278   6.120   2.539 -0.0123 -0.5031 -0.6560
  993TIP3    H224539   1.316   6.235   2.448  0.9679 -0.6948 -0.5038
  994TIP3   OH224540   1.888   3.467   1.655 -0.2316  0.3025  0.2213
  994TIP3    H124541   1.878   3.373   1.640 -1.5708  0.4660 -0.0653
  994TIP3    H224542   1.828   3.485   1.728  2.3415  0.4169  2.4584
  995TIP3   OH224543   4.937   1.699   2.629 -0.3831  0.0046 -0.7767
  995TIP3    H124544   4.921   1.678   2.721  0.2628  1.3798 -0.3288
  995TIP3    H224545   5.002   1.635   2.601 -0.5459 -0.3902 -0.2701
  996TIP3   OH224546   0.299   2.837   0.437 -0.8278  0.5857 -0.2927
  996TIP3    H124547   0.262   2.925   0.442  0.4796  1.1004  3.8800
  996TIP3    H224548   0.236   2.781   0.482  0.2604  0.2177  0.8240
  997TIP3   OH224549   6.925   2.680   7.975 -0.3603  0.0512 -0.3140
  997TIP3    H124550   6.919   2.733   8.054 -0.2837 -1.8094  1.0101
  997TIP3    H224551   6.999   2.621   7.991  0.3109  0.2929 -2.2261
  998TIP3   OH224552   0.606   4.549   7.186 -0.1180 -0.1921 -0.0257
  998TIP3    H124553   0.689   4.505   7.205  0.8677  0.3792 -2.6153
  998TIP3    H224554   0.541   4.479   7.186  0.5461 -0.8330  0.8864
  999TIP3   OH224555   1.052   0.325   7.557 -0.0387 -0.4217  1.0676
  999TIP3    H124556   0.959   0.301   7.546 -1.0694  2.9231  1.3596
  999TIP3    H224557   1.099   0.244   7.539 -3.0052 -2.3412  1.1019
 1000TIP3   OH224558   2.656   3.644   6.115 -0.0760 -0.4628 -0.7321
 1000TIP3    H124559   2.648   3.563   6.064  0.6230 -0.3967 -0.9623
 1000TIP3    H224560   2.725   3.625   6.179 -0.0424 -0.1089 -0.6636
 1001TIP3   OH224561   0.089   1.431   1.427 -0.1846 -0.3206 -0.0989
 1001TIP3    H124562   0.119   1.520   1.448 -0.1456 -0.6513  1.3554
 1001TIP3    H224563   0.039   1.404   1.504  0.5242 -1.8808 -0.1636
 1002TIP3   OH224564   3.667   6.568   2.152  0.4045 -0.0304  0.0623
 1002TIP3    H124565   3.643   6.476   2.145 -0.5774  0.0401  1.9258
 1002TIP3    H224566   3.645   6.592   2.242  1.2595  1.8593 -0.1785
 1003TIP3   OH224567   4.251   1.613   0.780 -0.9861 -0.6643 -0.6984
 1003TIP3    H124568   4.320   1.677   0.760 -2.1091  1.0482  0.6491
 1003TIP3    H224569   4.169   1.660   0.764 -1.8654 -1.1722  1.8813
 1004TIP3   OH224570   1.463   4.128   6.771  0.0723 -0.3767  0.6528
 1004TIP3    H124571   1.488   4.062   6.706 -1.6019 -0.6291  0.2039
 1004TIP3    H224572   1.486   4.088   6.855  3.1296  0.3332  0.2766
 1005TIP3   OH224573   1.889   1.030   1.557 -0.0715  0.7122 -0.1964
 1005TIP3    H124574   1.877   1.082   1.477 -0.3993  0.2226 -0.4669
 1005TIP3    H224575   1.802   0.997   1.578  0.3376 -0.8400 -0.7905
 1006TIP3   OH224576   1.113   2.068   6.396  0.0354 -0.0532  0.6314
 1006TIP3    H124577   1.055   1.992   6.395  0.8876 -0.7178  0.0648
 1006TIP3    H224578   1.190   2.040   6.347  0.3661  1.1847  0.4054
 1007TIP3   OH224579   6.055   0.559   8.218  0.5300 -0.5713 -0.3762
 1007TIP3    H124580   6.050   0.499   8.144 -0.3509 -0.1686 -0.6531
 1007TIP3    H224581   5.965   0.586   8.234  0.8334  0.1748  0.1590
 1008TIP3   OH224582   4.283   2.410   7.045  0.4124 -0.2895 -0.1254
 1008TIP3    H124583   4.214   2.445   7.101  0.2854 -0.5765 -0.1007
 1008TIP3    H224584   4.283   2.316   7.063  0.5915 -0.3373 -0.3654
 1009TIP3   OH224585   1.594   3.012   1.820  0.2726 -0.2742 -0.1172
 1009TIP3    H124586   1.539   3.066   1.764 -1.5896 -0.5281  1.3748
 1009TIP3    H224587   1.641   3.075   1.875 -0.6670 -0.0983  0.5072
 1010TIP3   OH224588   5.562   0.644   7.115 -0.0716 -0.1046  0.1389
 1010TIP3    H124589   5.538   0.736   7.130  0.2117  0.3551 -1.8720
 1010TIP3    H224590   5.502   0.594   7.170 -1.0920  1.2383  0.3136
 1011TIP3   OH224591   4.563   5.512   7.555  0.1045 -0.0731  0.3757
 1011TIP3    H124592   4.654   5.483   7.546  1.6081  4.1896 -1.2346
 1011TIP3    H224593   4.550   5.523   7.649  1.1109 -1.0987  0.6567
 1012TIP3   OH224594   0.105   6.724   6.059 -0.3499 -0.2774  0.3478
 1012TIP3    H124595   0.131   6.732   6.151  0.7740 -0.2484  0.0350
 1012TIP3    H224596   0.165   6.660   6.022 -0.4539  0.1002 -0.5046
 1013TIP3   OH224597   1.087   4.445   1.767  0.2119 -0.5660  0.6738
 1013TIP3    H124598   1.058   4.371   1.821 -0.5637 -0.5133  0.3482
 1013TIP3    H224599   1.077   4.413   1.677  2.6553 -1.1022  0.5166
 1014TIP3   OH224600   0.765   2.617   6.538 -0.4406 -0.4391  1.3352
 1014TIP3    H124601   0.701   2.678   6.501  1.1644 -0.8325 -2.5751
 1014TIP3    H224602   0.728   2.530   6.521  0.4343 -0.6293  0.2115
 1015TIP3   OH224603   3.771   5.145   1.768 -0.2420 -0.4972 -0.2248
 1015TIP3    H124604   3.786   5.206   1.695 -1.7963 -0.7414 -0.7700
 1015TIP3    H224605   3.735   5.200   1.837  2.2485 -0.0516  0.8209
 1016TIP3   OH224606   1.311   5.372   1.407 -0.2578 -0.4733 -0.6270
 1016TIP3    H124607   1.249   5.364   1.335  1.1805 -0.6239 -1.8908
 1016TIP3    H224608   1.342   5.282   1.422  1.6580 -0.0777 -1.8781
 1017TIP3   OH224609   4.547   1.485   7.460 -0.7759 -0.6575 -0.2989
 1017TIP3    H124610   4.575   1.528   7.379 -0.4348 -0.9225 -0.3245
 1017TIP3    H224611   4.531   1.394   7.434 -0.1299 -0.8726  0.0435
 1018TIP3   OH224612   1.749   5.299   7.663 -0.4000 -0.3503 -0.0241
 1018TIP3    H124613   1.818   5.264   7.719  0.8875 -1.5433 -2.1963
 1018TIP3    H224614   1.735   5.231   7.597 -1.3262  1.2375 -1.5530
 1019TIP3   OH224615   4.378   0.827   0.948  0.0442  0.0461 -0.0522
 1019TIP3    H124616   4.311   0.766   0.919  1.8546 -1.3610 -1.5127
 1019TIP3    H224617   4.358   0.842   1.041 -1.6117 -1.1678 -0.1590
 1020TIP3   OH224618   4.461   6.320   2.083  0.3333  0.0058 -0.2805
 1020TIP3    H124619   4.490   6.374   2.157 -1.2236 -1.1102  1.2325
 1020TIP3    H224620   4.393   6.372   2.040  0.7794  0.3856 -0.5314
 1021TIP3   OH224621   6.938   4.074   7.118 -0.1034  0.1019  0.2545
 1021TIP3    H124622   6.882   4.022   7.061  1.1391  0.3400 -1.2712
 1021TIP3    H224623   6.932   4.163   7.083  2.4486 -0.1416 -1.0633
 1022TIP3   OH224624   4.539   5.885   8.037  0.2427  0.7749 -0.3601
 1022TIP3    H124625   4.530   5.951   7.969  0.4916  0.6488 -0.5169
 1022TIP3    H224626   4.633   5.870   8.043  0.1029 -0.7838 -1.4942
 1023TIP3   OH224627   6.009   2.317   7.794  0.2961 -0.0801  0.7017
 1023TIP3    H124628   6.022   2.320   7.889  0.2084  1.0941  0.6969
 1023TIP3    H224629   6.000   2.409   7.768  0.7899 -0.3501 -0.5122
 1024TIP3   OH224630   6.421   6.870   1.990  0.3202 -0.2086 -0.0523
 1024TIP3    H124631   6.378   6.874   2.076  1.9123 -0.9601  0.8175
 1024TIP3    H224632   6.442   6.961   1.970 -1.0154  0.0968 -0.1851
 1025TIP3   OH224633   5.253   1.266   7.763 -0.0192 -0.0326  0.2231
 1025TIP3    H124634   5.232   1.359   7.753 -0.8539 -0.1278  1.0198
 1025TIP3    H224635   5.175   1.221   7.733  0.3164 -0.4835  0.0171
 1026TIP3   OH224636   5.330   4.915   7.135 -0.2169 -0.0887  0.6223
 1026TIP3    H124637   5.257   4.864   7.098  0.3998 -0.1488 -0.5559
 1026TIP3    H224638   5.398   4.910   7.068  0.5085  0.8016  1.2846
 1027TIP3   OH224639   4.566   5.181   7.903 -0.0102  0.3126 -0.1778
 1027TIP3    H124640   4.599   5.128   7.976  1.0840 -0.0374 -0.8923
 1027TIP3    H224641   4.585   5.271   7.928 -0.3329  0.2458  0.3061
 1028TIP3   OH224642   1.974   1.163   1.807  0.3349 -0.0448 -0.6629
 1028TIP3    H124643   1.984   1.231   1.741  1.2129  0.2205 -0.2677
 1028TIP3    H224644   1.941   1.087   1.758  0.1370  0.4075 -1.2453
 1029TIP3   OH224645   3.850   4.196   6.692  0.5385  0.9291 -0.4694
 1029TIP3    H124646   3.872   4.276   6.741 -1.0802  1.3802 -0.4122
 1029TIP3    H224647   3.770   4.219   6.644  1.8026  0.3629 -3.0022
 1030TIP3   OH224648   5.030   6.670   0.076  0.4056 -0.2211  0.4984
 1030TIP3    H124649   5.029   6.730   0.150 -0.0322 -1.8357  1.8623
 1030TIP3    H224650   4.985   6.592   0.108  0.7347 -1.1992 -1.2920
 1031TIP3   OH224651   2.576   1.449   0.680  0.0052  0.8257  0.2767
 1031TIP3    H124652   2.617   1.474   0.597 -0.3853  1.3793  0.2427
 1031TIP3    H224653   2.505   1.391   0.655  1.0385 -0.5156  0.3694
 1032TIP3   OH224654   6.737   6.464   1.259 -0.0186 -0.3682 -0.3033
 1032TIP3    H124655   6.712   6.511   1.338 -0.3949 -1.0056 -0.0289
 1032TIP3    H224656   6.680   6.499   1.191  0.6374  0.5239 -0.4082
 1033TIP3   OH224657   6.257   2.076   6.883  0.1835  0.7175  0.8033
 1033TIP3    H124658   6.243   1.984   6.901  0.2908  0.4014 -0.5728
 1033TIP3    H224659   6.250   2.083   6.787  0.9736  1.9883  0.8093
 1034TIP3   OH224660   2.453   4.788   7.902  0.8454 -0.0072 -0.3351
 1034TIP3    H124661   2.459   4.751   7.814 -0.6642 -1.4855  0.1571
 1034TIP3    H224662   2.534   4.839   7.911  2.5888 -2.4321 -1.3844
 1035TIP3   OH224663   0.116   5.184   6.444  0.1770  0.6215  0.3302
 1035TIP3    H124664   0.134   5.117   6.378  1.1567  1.4640 -0.3123
 1035TIP3    H224665   0.021   5.190   6.447  0.0794 -0.6248  0.2421
 1036TIP3   OH224666   1.098   4.626   0.200  0.4512  0.4608 -0.3172
 1036TIP3    H124667   1.080   4.718   0.215 -1.6402  0.3447 -1.7755
 1036TIP3    H224668   1.143   4.623   0.116 -0.6238  0.0854 -0.8964
 1037TIP3   OH224669   2.729   2.890   6.382  0.2315  0.5768  0.0535
 1037TIP3    H124670   2.683   2.806   6.377  0.0679  0.7473 -1.7680
 1037TIP3    H224671   2.679   2.941   6.445 -0.2769 -0.3165  0.3903
 1038TIP3   OH224672   3.108   1.499   7.839  0.1464  0.0000 -0.2665
 1038TIP3    H124673   3.061   1.448   7.906 -0.6975  1.1530  0.0706
 1038TIP3    H224674   3.078   1.589   7.854 -0.1617  0.2685 -2.2963
 1039TIP3   OH224675   1.281   4.070   0.446 -0.7772 -0.5092  0.2787
 1039TIP3    H124676   1.292   4.016   0.524  0.4446  0.4064  0.7674
 1039TIP3    H224677   1.236   4.148   0.477  1.1692  0.6138  0.4682
 1040TIP3   OH224678   2.498   5.781   7.442  0.4476 -0.1269 -0.2447
 1040TIP3    H124679   2.405   5.794   7.425  0.3881 -1.5832 -1.2317
 1040TIP3    H224680   2.539   5.783   7.356  0.9603 -1.9183 -0.0878
 1041TIP3   OH224681   4.900   2.823   6.296  0.6000  0.0504  0.2356
 1041TIP3    H124682   4.880   2.752   6.356 -0.1467 -0.4394 -0.5798
 1041TIP3    H224683   4.854   2.801   6.215  0.2914  1.4914 -0.0148
 1042TIP3   OH224684   4.511   0.500   1.956 -0.4153  0.4418  0.2038
 1042TIP3    H124685   4.554   0.582   1.979  0.1039  0.3439 -0.4083
 1042TIP3    H224686   4.544   0.437   2.021 -0.7342  0.6848  0.6081
 1043TIP3   OH224687   4.656   4.671   1.920  1.1773  0.1385 -0.5114
 1043TIP3    H124688   4.702   4.667   1.836  1.4179  1.6477 -0.4910
 1043TIP3    H224689   4.620   4.584   1.933  0.0958  0.1870 -2.7742
 1044TIP3   OH224690   3.285   2.162   8.173  0.1389 -0.5418  0.2576
 1044TIP3    H124691   3.332   2.079   8.171 -1.0489 -1.2250 -0.5719
 1044TIP3    H224692   3.270   2.180   8.266  2.0990 -0.2405  0.5510
 1045TIP3   OH224693   3.126   3.210   1.695 -0.1591  0.1148  0.4762
 1045TIP3    H124694   3.034   3.233   1.706 -0.1246  0.4058  0.1730
 1045TIP3    H224695   3.157   3.194   1.784 -1.0802 -2.3297  0.4112
 1046TIP3   OH224696   4.881   2.416   1.609  0.0663  0.2234 -0.4390
 1046TIP3    H124697   4.808   2.423   1.671  0.8759 -1.8637  0.8471
 1046TIP3    H224698   4.893   2.322   1.596  1.9491  0.5371 -1.3333
 1047TIP3   OH224699   0.889   0.633   1.703  0.3463  0.3979  0.3655
 1047TIP3    H124700   0.833   0.685   1.761  0.5698  1.1807 -0.1132
 1047TIP3    H224701   0.901   0.688   1.626  2.0102  0.3696  0.5679
 1048TIP3   OH224702   2.649   2.724   6.944 -0.1964 -0.0838 -0.1214
 1048TIP3    H124703   2.588   2.786   6.903  0.6947 -0.0891 -1.5541
 1048TIP3    H224704   2.641   2.740   7.038 -2.4428 -0.1489 -0.2476
 1049TIP3   OH224705   6.485   5.255   8.002  0.0222 -0.5543  0.0754
 1049TIP3    H124706   6.401   5.223   8.034 -0.9803  1.7152 -0.0419
 1049TIP3    H224707   6.533   5.282   8.081  1.0435 -2.6220  0.2118
 1050TIP3   OH224708   0.866   5.406   0.028 -0.1581  0.9915 -0.3270
 1050TIP3    H124709   0.806   5.332   0.018  0.9303 -0.4066  2.3586
 1050TIP3    H224710   0.946   5.378  -0.018  0.9086 -0.4813  2.1778
 1051TIP3   OH224711   5.813   0.464   6.307  0.2433  1.5274  0.0389
 1051TIP3    H124712   5.876   0.399   6.339  0.4073  1.0475 -1.2095
 1051TIP3    H224713   5.729   0.418   6.307 -0.1075  2.1197  1.5566
 1052TIP3   OH224714   5.262   2.001   0.258 -0.2198 -0.9392 -0.6556
 1052TIP3    H124715   5.256   2.096   0.270  2.6148 -0.5736 -1.4625
 1052TIP3    H224716   5.266   1.966   0.346  1.0728 -0.0514 -0.3276
 1053TIP3   OH224717   1.099   0.558   1.193 -0.6864 -0.1870  0.3645
 1053TIP3    H124718   1.160   0.485   1.182 -1.3914 -0.6085 -0.9616
 1053TIP3    H224719   1.053   0.539   1.276 -1.8626 -2.0484 -0.6424
 1054TIP3   OH224720   6.211   2.621   2.003  0.3718  0.0964 -0.1047
 1054TIP3    H124721   6.275   2.669   1.950 -0.5663  0.2193 -1.1692
 1054TIP3    H224722   6.163   2.689   2.050 -1.2149  0.3204 -1.9035
 1055TIP3   OH224723   0.044   4.410   1.819  0.3217  0.0532  0.0757
 1055TIP3    H124724  -0.044   4.386   1.849  0.6849 -0.5132  0.7247
 1055TIP3    H224725   0.052   4.503   1.840 -0.1350  0.1172 -0.0203
 1056TIP3   OH224726   1.039   0.477   7.209 -0.3218 -0.7329 -0.6431
 1056TIP3    H124727   1.066   0.505   7.122 -0.4133  1.1606 -0.1169
 1056TIP3    H224728   0.943   0.472   7.203 -0.4769  1.0042 -0.2758
 1057TIP3   OH224729   5.253   5.915   0.360  0.0210  0.4091  0.3310
 1057TIP3    H124730   5.334   5.866   0.374 -0.6329 -0.9590 -0.4542
 1057TIP3    H224731   5.247   5.924   0.265  0.1556  2.1360  0.4526
 1058TIP3   OH224732   0.122   6.033   7.342  0.1378  0.3522 -0.2038
 1058TIP3    H124733   0.217   6.025   7.355  0.1392 -1.1682 -0.9053
 1058TIP3    H224734   0.110   6.121   7.307  1.2892  0.5937 -0.0387
 1059TIP3   OH224735   5.855   5.708   7.188  0.3233 -0.1443 -0.1961
 1059TIP3    H124736   5.916   5.695   7.116 -0.8078  0.3502 -1.2851
 1059TIP3    H224737   5.891   5.780   7.239  0.6280  0.1659 -0.8498
 1060TIP3   OH224738   0.273   5.216   6.762 -0.5145  0.1265 -0.3341
 1060TIP3    H124739   0.208   5.159   6.723  0.7768 -0.8006 -1.2155
 1060TIP3    H224740   0.291   5.176   6.848 -1.5588  0.7599  0.1924
 1061TIP3   OH224741   5.968   4.061   2.028 -0.5135 -0.4035  0.0961
 1061TIP3    H124742   6.032   4.114   1.980 -0.9188  0.4508  0.4931
 1061TIP3    H224743   5.887   4.072   1.979 -1.1160  1.0795  1.3772
 1062TIP3   OH224744   4.518   2.957   6.256  0.0570  0.3350  0.1165
 1062TIP3    H124745   4.567   2.875   6.261 -2.5179 -1.4447 -1.3331
 1062TIP3    H224746   4.559   3.006   6.185 -0.0317 -0.9777 -0.8763
 1063TIP3   OH224747   6.917   5.887   0.782 -0.3906  0.1302 -0.6549
 1063TIP3    H124748   6.833   5.881   0.736 -1.1736 -2.3510  0.9284
 1063TIP3    H224749   6.914   5.817   0.847  1.9667  1.4756  1.0463
 1064TIP3   OH224750   5.564   5.690   2.001 -0.0615 -0.2032  0.2647
 1064TIP3    H124751   5.560   5.744   2.080 -1.2049 -1.8883  1.4369
 1064TIP3    H224752   5.608   5.745   1.936 -1.9749  2.4851  1.0730
 1065TIP3   OH224753   4.444   6.396   0.572  0.5299  0.0482  0.8714
 1065TIP3    H124754   4.363   6.428   0.612  0.4667  1.0434 -0.0264
 1065TIP3    H224755   4.510   6.459   0.599  0.2633  1.4658 -1.5475
 1066TIP3   OH224756   6.371   7.013   0.416  0.2596 -0.5613  0.2509
 1066TIP3    H124757   6.297   7.005   0.356  1.8131  1.1816 -2.0846
 1066TIP3    H224758   6.443   6.969   0.371  1.5117  0.9027  0.7498
 1067TIP3   OH224759   5.966   2.273   0.869  0.3478 -0.1796 -0.3327
 1067TIP3    H124760   6.005   2.253   0.784  1.7169  0.6644  0.0604
 1067TIP3    H224761   5.906   2.200   0.886  0.4444 -0.6223 -1.7713
 1068TIP3   OH224762   1.730   3.896   7.962 -0.1185  0.1492 -0.1497
 1068TIP3    H124763   1.758   3.978   8.003 -1.3780 -0.0574  1.1960
 1068TIP3    H224764   1.639   3.884   7.990  0.0413 -1.7312 -0.2713
 1069TIP3   OH224765   4.719   3.019   0.875 -0.0708  0.8155 -0.1698
 1069TIP3    H124766   4.734   3.099   0.825 -1.0058  0.8575 -0.3905
 1069TIP3    H224767   4.676   2.960   0.814  1.7286 -0.3437 -0.3995
 1070TIP3   OH224768   1.138   1.640   0.374 -0.2159  0.3346  0.5677
 1070TIP3    H124769   1.063   1.599   0.418 -2.6452  1.1338 -2.4726
 1070TIP3    H224770   1.168   1.575   0.311  0.0439  0.9015  0.0939
 1071TIP3   OH224771   2.589   1.825   0.269  0.3386 -0.8696  0.0273
 1071TIP3    H124772   2.536   1.754   0.233  0.4063 -0.3676 -1.0960
 1071TIP3    H224773   2.527   1.882   0.315  0.1556 -1.1495  0.1304
 1072TIP3   OH224774   2.922   5.100   8.166 -0.4293  0.0965  0.1597
 1072TIP3    H124775   2.879   5.015   8.159  0.1269 -0.3768  2.0177
 1072TIP3    H224776   2.897   5.133   8.252 -0.0749  1.5140 -0.2463
 1073TIP3   OH224777   6.308   0.611   8.161  0.3342 -0.3682 -0.0120
 1073TIP3    H124778   6.218   0.610   8.194  0.9592  2.0785  2.0792
 1073TIP3    H224779   6.352   0.541   8.209 -0.8785 -3.4061 -2.9383
 1074TIP3   OH224780   6.063   5.215   2.046  0.6543 -0.0725  0.3967
 1074TIP3    H124781   6.037   5.209   2.137  1.2849 -3.0133  0.4698
 1074TIP3    H224782   6.159   5.208   2.048  0.8105  1.3496 -0.4404
 1075TIP3   OH224783   3.634   4.907   1.447  0.3884 -0.1168 -0.3364
 1075TIP3    H124784   3.712   4.854   1.462  0.5557  0.5328  1.2478
 1075TIP3    H224785   3.609   4.939   1.533 -1.2045  0.3107 -0.9096
 1076TIP3   OH224786   6.986   6.853   6.727 -0.5913  0.0121  0.5428
 1076TIP3    H124787   7.018   6.798   6.799 -1.2268  2.8146  3.1688
 1076TIP3    H224788   7.064   6.875   6.677 -0.3543 -3.3918 -0.8522
 1077TIP3   OH224789   0.159   6.575   1.820  0.0174  0.1888  0.4017
 1077TIP3    H124790   0.182   6.667   1.825 -2.8344  1.2579 -2.3857
 1077TIP3    H224791   0.135   6.551   1.910  0.3735  2.2940  1.1104
 1078TIP3   OH224792   6.650   1.984   1.710  0.7501  0.1941  0.0147
 1078TIP3    H124793   6.712   1.959   1.778  0.2992 -1.7745 -0.2494
 1078TIP3    H224794   6.564   1.965   1.748  0.5313 -3.6539 -1.9691
 1079TIP3   OH224795   3.769   0.890   1.164  0.6680  0.3774 -0.3312
 1079TIP3    H124796   3.804   0.806   1.190 -0.2170 -0.1218 -0.7026
 1079TIP3    H224797   3.727   0.874   1.079 -3.4222  0.0884  1.5193
 1080TIP3   OH224798   1.490   1.096   0.643 -0.3457 -0.3061  0.0478
 1080TIP3    H124799   1.490   1.038   0.719  0.5371 -1.6081 -0.9022
 1080TIP3    H224800   1.582   1.100   0.616 -0.4713  1.1015 -0.2580
 1081TIP3   OH224801   0.202   0.582   0.545 -0.4446 -0.6168  0.2628
 1081TIP3    H124802   0.241   0.497   0.562 -0.0958 -0.1517  2.0097
 1081TIP3    H224803   0.115   0.577   0.585 -0.1982  0.0113  0.9133
 1082TIP3   OH224804   6.859   4.592   8.295 -0.3106 -0.2522 -0.0330
 1082TIP3    H124805   6.839   4.685   8.282 -0.4595 -0.5295 -2.2327
 1082TIP3    H224806   6.843   4.552   8.209  4.6504 -1.4419 -0.7259
 1083TIP3   OH224807   1.411   4.854   1.624  0.1135  0.2543 -0.0813
 1083TIP3    H124808   1.491   4.817   1.587 -0.4742 -0.6715 -0.4664
 1083TIP3    H224809   1.440   4.899   1.703  0.8089 -1.5620  0.7537
 1084TIP3   OH224810   5.520   1.361   1.594 -0.2608 -0.1065  0.0423
 1084TIP3    H124811   5.595   1.305   1.613 -1.6088 -2.2541 -0.6113
 1084TIP3    H224812   5.493   1.338   1.506  0.4960  3.3416 -1.2612
 1085TIP3   OH224813   5.764   2.388   1.164  0.1281  0.0205  0.4050
 1085TIP3    H124814   5.806   2.329   1.227 -0.7163  0.7565  1.6831
 1085TIP3    H224815   5.714   2.449   1.217  0.3051  1.3890 -0.9300
 1086TIP3   OH224816   4.299   0.614   0.714 -0.1497 -0.1286 -0.0448
 1086TIP3    H124817   4.299   0.665   0.633  2.0359  0.3547  0.1752
 1086TIP3    H224818   4.212   0.627   0.751  0.0352  2.8089 -0.4126
 1087TIP3   OH224819   3.026   0.654   7.046  0.1998  0.1260 -0.2778
 1087TIP3    H124820   3.054   0.589   6.981 -1.3994 -0.1472 -0.7556
 1087TIP3    H224821   3.106   0.698   7.072  0.8821  0.4410 -2.6425
 1088TIP3   OH224822   4.428   2.531   1.198  0.1915 -0.1620  0.8276
 1088TIP3    H124823   4.510   2.553   1.242  0.1773  1.6224  0.0516
 1088TIP3    H224824   4.361   2.575   1.250 -0.0635 -0.0012  0.3655
 1089TIP3   OH224825   5.454   2.058   0.463 -0.2636  0.1628  0.0389
 1089TIP3    H124826   5.385   1.993   0.466 -1.5681  1.4357 -1.2695
 1089TIP3    H224827   5.534   2.008   0.480 -1.4104 -1.4261  1.0466
 1090TIP3   OH224828   3.079   0.539   8.262 -0.0405 -0.5978  0.6131
 1090TIP3    H124829   3.043   0.451   8.276 -0.6619 -0.7131 -1.3891
 1090TIP3    H224830   3.012   0.584   8.210  1.0832  0.4452  0.0413
 1091TIP3   OH224831   0.671   5.173   8.242  0.0738 -0.4114  0.0233
 1091TIP3    H124832   0.632   5.214   8.165 -0.8787 -0.9410  0.1995
 1091TIP3    H224833   0.737   5.113   8.207 -0.5162 -0.8206 -0.4141
 1092TIP3   OH224834   5.882   6.696   1.683  0.0025 -0.2484 -0.2830
 1092TIP3    H124835   5.855   6.626   1.623 -0.1120 -0.7380  0.3244
 1092TIP3    H224836   5.936   6.754   1.629 -0.3500 -0.5107 -0.9337
 1093TIP3   OH224837   1.088   3.512   1.229  0.3790  0.1425 -0.4960
 1093TIP3    H124838   1.167   3.563   1.247  0.2226  1.2694 -2.7345
 1093TIP3    H224839   1.118   3.437   1.178  0.0495  0.4145 -1.0978
 1094TIP3   OH224840   6.897   6.218   6.879  0.4255 -0.1366 -0.1842
 1094TIP3    H124841   6.962   6.282   6.909  1.1397 -1.5502  1.4390
 1094TIP3    H224842   6.948   6.152   6.831 -0.3388  0.5892 -2.1043
 1095TIP3   OH224843   1.792   1.806   1.966  0.3463  0.0391 -0.3671
 1095TIP3    H124844   1.717   1.856   1.935  0.6707 -0.1779 -1.5219
 1095TIP3    H224845   1.852   1.871   2.002 -1.2895  0.0709  2.6543
 1096TIP3   OH224846   6.582   1.012   8.022  0.6576 -0.3117  0.1257
 1096TIP3    H124847   6.640   0.993   8.096  1.1207 -1.5637 -0.5403
 1096TIP3    H224848   6.495   0.984   8.052  0.9523 -1.4310 -0.0221
 1097TIP3   OH224849   4.656   2.579   7.141  0.0448  0.0321 -0.3451
 1097TIP3    H124850   4.598   2.586   7.217 -0.4068  1.1468 -0.7554
 1097TIP3    H224851   4.729   2.638   7.161 -1.2099  2.1925 -1.6925
 1098TIP3   OH224852   3.396   2.421   0.221 -0.1663  0.0912 -0.3000
 1098TIP3    H124853   3.326   2.438   0.284  1.0887  0.8652  0.9415
 1098TIP3    H224854   3.381   2.331   0.192 -1.4212  0.1021  0.2344
 1099TIP3   OH224855   3.227   5.790   2.277 -0.1763  0.3364 -0.3010
 1099TIP3    H124856   3.272   5.754   2.200  0.9671 -0.4564  0.6974
 1099TIP3    H224857   3.281   5.865   2.303 -0.3126  0.3314 -0.0103
 1100TIP3   OH224858   6.020   4.031   0.274 -0.5274  0.5938 -0.2332
 1100TIP3    H124859   5.984   4.087   0.205  0.7209  1.2186 -0.3948
 1100TIP3    H224860   6.108   4.009   0.244 -0.1902  0.3666  0.8772
 1101TIP3   OH224861   0.107   2.620   0.610  0.8748  0.1441  0.0923
 1101TIP3    H124862   0.071   2.548   0.661  1.0894  0.6448  0.9618
 1101TIP3    H224863   0.110   2.694   0.670 -0.0869  1.1192 -0.9897
 1102TIP3   OH224864   4.004   1.199   0.548 -0.2159  0.0485 -0.4674
 1102TIP3    H124865   4.017   1.129   0.611  0.0973 -0.8941 -1.5554
 1102TIP3    H224866   3.964   1.157   0.472 -0.1879  1.0812 -1.0761
 1103TIP3   OH224867   4.797   3.690   2.266  0.0006 -0.0070 -0.1526
 1103TIP3    H124868   4.764   3.658   2.182 -3.2457 -1.7185  1.5856
 1103TIP3    H224869   4.748   3.771   2.281  1.2125  0.7673 -0.2471
 1104TIP3   OH224870   5.063   3.451   0.885 -0.4213  0.2016  0.0651
 1104TIP3    H124871   5.110   3.510   0.944 -2.1778  1.5056  0.2351
 1104TIP3    H224872   5.073   3.491   0.799 -1.8986  0.9823  0.2298
 1105TIP3   OH224873   1.777   4.483   7.557  0.3888  0.0462 -0.7211
 1105TIP3    H124874   1.717   4.420   7.596 -1.1430  0.1691 -2.6866
 1105TIP3    H224875   1.751   4.568   7.593 -0.1617  0.0164 -1.0517
 1106TIP3   OH224876   6.159   0.994   2.257 -0.2874  0.5061  0.6606
 1106TIP3    H124877   6.091   1.038   2.308  0.4407  1.2757  0.9876
 1106TIP3    H224878   6.185   1.058   2.191  0.6329  0.4937  1.0011
 1107TIP3   OH224879   6.879   1.218   0.085 -0.3450 -0.3027  0.3494
 1107TIP3    H124880   6.938   1.150   0.053  0.5014 -0.0192  1.2409
 1107TIP3    H224881   6.877   1.283   0.015  0.1208 -0.4896  0.1607
 1108TIP3   OH224882   5.794   1.499   0.355  0.6424  0.3264  0.0045
 1108TIP3    H124883   5.753   1.579   0.321  1.1469  0.7737  0.4154
 1108TIP3    H224884   5.762   1.429   0.299 -0.6049  0.6719  0.2737
 1109TIP3   OH224885   1.197   3.542   2.032 -0.2282 -0.1722 -0.0564
 1109TIP3    H124886   1.245   3.613   1.989  0.0548 -0.6396 -0.5298
 1109TIP3    H224887   1.203   3.562   2.125 -0.4270  0.5942 -0.2007
 1110TIP3   OH224888   1.072   1.580   0.785 -0.3430 -0.3049 -0.0503
 1110TIP3    H124889   1.021   1.580   0.867 -2.4034  2.6229 -1.1444
 1110TIP3    H224890   1.055   1.495   0.746 -0.7668 -1.0805  1.7156
 1111TIP3   OH224891   1.288   3.845   6.078  0.2276  0.1813 -0.4151
 1111TIP3    H124892   1.325   3.928   6.046  1.4843 -0.0708  0.3048
 1111TIP3    H224893   1.210   3.871   6.126  0.9939  1.0501  0.4189
 1112TIP3   OH224894   5.392   6.755   7.806  0.2271  0.2184  0.1016
 1112TIP3    H124895   5.393   6.707   7.723  0.7484  1.4870 -0.6487
 1112TIP3    H224896   5.302   6.746   7.838  0.4030 -1.5660  0.1906
 1113TIP3   OH224897   0.382   0.507   1.007  0.0422  0.0876 -0.0934
 1113TIP3    H124898   0.425   0.569   1.067  2.2041  0.4905 -1.9356
 1113TIP3    H224899   0.305   0.478   1.055  0.4932  2.0316  2.0016
 1114TIP3   OH224900   4.740   6.582   0.425 -0.5321  0.0485 -0.5894
 1114TIP3    H124901   4.679   6.616   0.491  0.1177  1.5345 -0.7041
 1114TIP3    H224902   4.726   6.639   0.349 -0.6511 -1.0930 -1.4514
 1115TIP3   OH224903   7.008   5.095   8.294  0.5952  0.8292 -0.0050
 1115TIP3    H124904   7.013   5.145   8.212  1.3359  0.7909  0.0067
 1115TIP3    H224905   6.924   5.050   8.289  1.0110  0.1277 -1.1606
 1116TIP3   OH224906   2.304   1.661   0.088 -0.5347 -0.0644 -0.0595
 1116TIP3    H124907   2.317   1.630  -0.002 -1.8089  1.1131 -0.6727
 1116TIP3    H224908   2.378   1.624   0.137  2.0485  1.9181 -2.2248
 1117TIP3   OH224909   2.089   5.011   1.165  0.2085 -0.1851  0.0053
 1117TIP3    H124910   2.075   5.101   1.134  0.9861  0.5821  1.7461
 1117TIP3    H224911   2.167   4.982   1.117 -0.5171 -0.2484 -1.1670
 1118TIP3   OH224912   6.841   4.244   1.388  0.2865 -0.2648  0.2607
 1118TIP3    H124913   6.780   4.173   1.370 -2.3758  1.1710  2.8133
 1118TIP3    H224914   6.791   4.324   1.371  1.0783  1.0001  3.2163
 1119TIP3   OH224915   4.401   4.987   7.207 -0.1711  0.1157  0.3512
 1119TIP3    H124916   4.358   5.000   7.123 -0.7120 -0.1914  0.5727
 1119TIP3    H224917   4.341   4.929   7.256  0.2315  0.1254  0.8663
 1120TIP3   OH224918   0.279   0.898   7.705  0.1072 -0.0786 -0.0849
 1120TIP3    H124919   0.199   0.944   7.729  0.6958  1.1479 -0.3627
 1120TIP3    H224920   0.313   0.948   7.631  0.5302 -1.2694 -0.7035
 1121TIP3   OH224921   5.825   2.730   1.091 -0.1229 -0.1489  0.1611
 1121TIP3    H124922   5.873   2.789   1.033  2.8078 -1.7530  0.7606
 1121TIP3    H224923   5.823   2.647   1.043  0.2394 -0.8638  1.3634
 1122TIP3   OH224924   3.587   4.143   8.088  0.1699  0.1539  0.0191
 1122TIP3    H124925   3.501   4.141   8.129  0.3078  0.7152  0.3573
 1122TIP3    H224926   3.644   4.180   8.155  0.6548 -0.1203 -0.2372
 1123TIP3   OH224927   5.151   5.831   1.964  0.1012  0.7525 -0.6253
 1123TIP3    H124928   5.098   5.754   1.983  0.8187  0.3824 -0.0991
 1123TIP3    H224929   5.205   5.844   2.042 -0.5488  2.2476 -0.3956
 1124TIP3   OH224930   0.118   5.490   7.775 -0.1988 -0.1195 -0.0494
 1124TIP3    H124931   0.136   5.531   7.691  0.3189 -2.3318 -1.0966
 1124TIP3    H224932   0.204   5.485   7.818 -0.3071  0.1621  0.2001
 1125TIP3   OH224933   0.181   4.058   6.766  0.1393  0.2138  0.0256
 1125TIP3    H124934   0.220   4.034   6.681 -0.9161  1.2083 -0.7773
 1125TIP3    H224935   0.091   4.081   6.744 -0.5552 -0.8162  1.6439
 1126TIP3   OH224936   6.208   6.129   7.462 -0.4546 -0.1733  0.2046
 1126TIP3    H124937   6.276   6.164   7.519 -1.5529  0.7938  0.9783
 1126TIP3    H224938   6.228   6.035   7.455 -0.0903 -0.2556  1.9187
 1127TIP3   OH224939   3.417   2.218   1.888  0.0552  0.0428 -0.3652
 1127TIP3    H124940   3.495   2.229   1.833  0.2532  1.9081  0.2189
 1127TIP3    H224941   3.449   2.228   1.978 -0.7668  0.2742 -0.0892
 1128TIP3   OH224942   6.506   3.582   1.645  0.5391  0.0070  0.7392
 1128TIP3    H124943   6.497   3.548   1.734 -0.4697  0.4820  0.8307
 1128TIP3    H224944   6.421   3.564   1.603  0.1703  1.8672  0.6145
 1129TIP3   OH224945   1.817   4.254   2.075  0.2663  0.0526  0.2118
 1129TIP3    H124946   1.723   4.272   2.076  0.1489 -0.4614 -0.7176
 1129TIP3    H224947   1.825   4.168   2.116  0.1052 -0.7923 -1.4448
 1130TIP3   OH224948   4.110   1.775   2.344  0.4512 -0.3723  0.2597
 1130TIP3    H124949   4.128   1.869   2.350 -2.0587  0.1733  0.3185
 1130TIP3    H224950   4.196   1.734   2.340  1.6032  1.9741 -0.5139
 1131TIP3   OH224951   5.545   2.766   0.598  0.2353 -0.0433 -0.3401
 1131TIP3    H124952   5.604   2.731   0.665  0.7394  3.5845  1.3780
 1131TIP3    H224953   5.466   2.711   0.605  0.7062 -0.5261  2.4859
 1132TIP3   OH224954   3.695   5.754   0.346 -0.0403 -0.0084 -0.4226
 1132TIP3    H124955   3.785   5.733   0.320 -0.3358 -0.8192 -0.8177
 1132TIP3    H224956   3.641   5.688   0.302 -0.6125 -1.1890  1.8956
 1133TIP3   OH224957   3.546   1.666   1.858 -0.4952 -0.5125 -0.0532
 1133TIP3    H124958   3.569   1.750   1.898  0.6088 -1.0026  0.3958
 1133TIP3    H224959   3.547   1.604   1.931  0.2407 -1.1855 -0.6087
 1134TIP3   OH224960   2.342   5.860   8.130  0.3221  0.0669 -0.4329
 1134TIP3    H124961   2.345   5.843   8.036 -1.5663  0.8868 -0.6966
 1134TIP3    H224962   2.361   5.954   8.138  1.2663 -0.1591  0.0955
 1135TIP3   OH224963   1.933   3.147   0.536 -0.3523 -0.2734 -0.1544
 1135TIP3    H124964   1.910   3.218   0.595 -0.8347 -0.8808  0.4025
 1135TIP3    H224965   2.029   3.153   0.529 -0.4015  0.5343 -0.2640
 1136TIP3   OH224966   3.378   5.863   0.231  0.2365  0.2656 -0.1604
 1136TIP3    H124967   3.328   5.938   0.200 -0.2731  0.8345  1.8997
 1136TIP3    H224968   3.312   5.800   0.260  0.6112  0.9636  2.4602
 1137TIP3   OH224969   3.310   5.328   0.594 -0.3150 -0.2429 -0.4989
 1137TIP3    H124970   3.250   5.279   0.538 -2.6183 -0.1886  1.6919
 1137TIP3    H224971   3.277   5.418   0.593 -0.0110 -0.1020  0.3812
 1138TIP3   OH224972   3.125   5.553   0.579  0.4694 -0.3823 -0.2457
 1138TIP3    H124973   3.063   5.544   0.507  1.2516  0.2099 -1.0126
 1138TIP3    H224974   3.143   5.646   0.584  1.2293 -0.5324  0.0160
 1139TIP3   OH224975   0.553   6.732   5.928 -0.0414  0.9131 -0.2249
 1139TIP3    H124976   0.460   6.708   5.927 -0.3960  2.2206 -0.6059
 1139TIP3    H224977   0.562   6.790   6.004  0.7802 -0.3308  0.6497
 1140TIP3   OH224978   5.043   5.395   7.711  0.5410 -0.3165  0.8907
 1140TIP3    H124979   4.950   5.373   7.718  0.9295 -2.1254  0.7302
 1140TIP3    H224980   5.060   5.397   7.617  0.6633  0.0817  0.9179
 1141TIP3   OH224981   4.199   3.939   1.183  0.0718 -0.2037  0.4763
 1141TIP3    H124982   4.246   4.020   1.165 -0.4431  0.0263  0.1314
 1141TIP3    H224983   4.220   3.883   1.108  0.9067 -0.6195  1.0040
 1142TIP3   OH224984   6.539   3.125   7.621 -0.2956  0.2519 -0.2762
 1142TIP3    H124985   6.588   3.200   7.588 -0.7545  0.6830 -0.0024
 1142TIP3    H224986   6.521   3.071   7.544 -0.5817  0.7903 -0.5875
 1143TIP3   OH224987   2.625   6.170   0.962 -0.3867 -0.5404  0.6100
 1143TIP3    H124988   2.554   6.234   0.959 -1.0934 -1.3397 -0.5654
 1143TIP3    H224989   2.607   6.119   1.041 -0.9420 -0.5259  0.4981
 1144TIP3   OH224990   1.810   2.925   1.103  0.6024 -0.4281  0.3931
 1144TIP3    H124991   1.870   2.961   1.169 -2.0361  1.2358  2.0706
 1144TIP3    H224992   1.794   2.835   1.131 -0.6650  0.3268  2.2720
 1145TIP3   OH224993   1.520   5.925   8.145  0.4712 -0.8171  0.1060
 1145TIP3    H124994   1.592   5.873   8.109 -0.1049 -0.3046 -1.8573
 1145TIP3    H224995   1.556   6.013   8.153 -0.2072 -0.3115 -1.9166
 1146TIP3   OH224996   6.916   3.241   6.419  0.3144 -1.0542  0.0288
 1146TIP3    H124997   6.977   3.200   6.358  2.2267  0.7636  0.5612
 1146TIP3    H224998   6.885   3.319   6.374 -3.6616 -3.0872 -1.1767
 1147TIP3   OH224999   3.383   4.163   7.039  0.4079 -0.1056  0.3189
 1147TIP3    H125000   3.437   4.234   7.074  0.3234  0.0557  0.1186
 1147TIP3    H225001   3.438   4.121   6.973 -0.4845  1.4305 -1.4816
 1148TIP3   OH225002   3.620   1.661   7.336  0.1251  0.5442  0.1973
 1148TIP3    H125003   3.563   1.644   7.410  0.8832 -0.5451  0.5441
 1148TIP3    H225004   3.564   1.648   7.259 -0.6693  1.7108  0.5398
 1149TIP3   OH225005   2.262   6.721   1.797  0.0148  0.3068 -0.3709
 1149TIP3    H125006   2.337   6.778   1.813  1.2297 -0.6101 -2.3504
 1149TIP3    H225007   2.191   6.780   1.772  1.0351  1.0435 -1.6824
 1150TIP3   OH225008   4.230   1.267   7.417  0.1188  0.0267  0.1856
 1150TIP3    H125009   4.190   1.349   7.388 -0.4221 -0.5598 -0.7595
 1150TIP3    H225010   4.306   1.257   7.360 -0.5921 -0.8100 -0.6482
 1151TIP3   OH225011   1.167   6.632   7.827  0.1545  0.4789  0.1103
 1151TIP3    H125012   1.162   6.686   7.907 -1.1273  0.4592  0.0639
 1151TIP3    H225013   1.133   6.547   7.854 -0.2285  0.4569 -0.4476
 1152TIP3   OH225014   2.065   6.474   0.623 -0.3783 -0.2532 -0.1794
 1152TIP3    H125015   2.076   6.382   0.601 -2.1104 -0.5369  0.0032
 1152TIP3    H225016   2.130   6.520   0.569 -0.5935 -1.4383 -1.4852
 1153TIP3   OH225017   1.112   0.538   1.843  0.2241  0.4556  0.4615
 1153TIP3    H125018   1.069   0.551   1.928 -0.4814  0.7211  0.0694
 1153TIP3    H225019   1.045   0.560   1.779  1.4719  2.7010 -0.1677
 1154TIP3   OH225020   1.702   3.775   1.126  0.2395 -0.5324  0.0039
 1154TIP3    H125021   1.784   3.764   1.077 -0.8374  0.5981 -2.2213
 1154TIP3    H225022   1.729   3.779   1.218  2.5773 -0.9859 -0.5975
 1155TIP3   OH225023   6.034   2.369   8.066 -0.0925 -0.2885 -0.4812
 1155TIP3    H125024   6.095   2.434   8.101 -0.8677  0.6921 -0.9314
 1155TIP3    H225025   5.989   2.334   8.143  1.0251 -1.0477 -0.1363
 1156TIP3   OH225026   1.228   2.939   8.078  0.3945 -0.8268  0.3503
 1156TIP3    H125027   1.293   3.004   8.105  2.5914 -1.5220 -2.5852
 1156TIP3    H225028   1.275   2.855   8.085 -1.3036 -1.7484  1.1169
 1157TIP3   OH225029   1.246   0.889   2.264 -0.4751  0.5280  0.1258
 1157TIP3    H125030   1.282   0.803   2.287 -0.6844  0.0605 -1.2363
 1157TIP3    H225031   1.152   0.879   2.275 -0.7087 -0.0808 -1.9513
 1158TIP3   OH225032   3.276   1.911   1.924  0.1042 -0.7378 -0.0814
 1158TIP3    H125033   3.240   1.993   1.959 -0.4527 -1.1912  0.4414
 1158TIP3    H225034   3.371   1.922   1.927  0.0506 -0.4793  0.9015
 1159TIP3   OH225035   5.275   5.197   1.835  0.0141  0.0596  0.0670
 1159TIP3    H125036   5.348   5.257   1.852  0.5659 -0.4947 -0.3138
 1159TIP3    H225037   5.303   5.113   1.871 -0.4736 -0.1422 -0.0115
 1160TIP3   OH225038   4.389   5.592   2.082 -0.4601  0.6392  0.2000
 1160TIP3    H125039   4.331   5.525   2.117  1.0313 -0.1289  1.3219
 1160TIP3    H225040   4.433   5.628   2.159  0.6376  1.0939 -0.6162
 1161TIP3   OH225041   2.678   0.521   7.883  0.2979  0.4644 -0.8440
 1161TIP3    H125042   2.710   0.594   7.935 -1.8616 -0.0859  1.4208
 1161TIP3    H225043   2.597   0.553   7.844 -0.0257 -0.3306 -0.8465
 1162TIP3   OH225044   1.438   6.963   0.954  0.1946 -0.2263  0.0213
 1162TIP3    H125045   1.466   6.903   0.885  2.5199 -0.7773  1.3613
 1162TIP3    H225046   1.513   6.969   1.013 -1.0687  1.6445  1.5545
 1163TIP3   OH225047   0.305   6.510   7.773 -0.1492  1.1343  0.2488
 1163TIP3    H125048   0.227   6.525   7.719 -0.2772  0.3517  0.1987
 1163TIP3    H225049   0.270   6.492   7.861 -0.3607 -2.9636 -0.4725
 1164TIP3   OH225050   2.176   1.069   6.525  0.0714  0.5199  0.5464
 1164TIP3    H125051   2.133   1.143   6.568 -1.2386  1.1195 -1.6229
 1164TIP3    H225052   2.110   1.035   6.464  1.9212  0.0467 -1.3210
 1165TIP3   OH225053   1.390   1.989   0.723  0.2437 -0.0789  0.1200
 1165TIP3    H125054   1.463   1.980   0.784  0.5832 -1.4103 -0.4386
 1165TIP3    H225055   1.422   2.048   0.656  0.4875  0.0428  0.3414
 1166TIP3   OH225056   2.971   0.982   6.349 -0.4674  0.5501 -0.3987
 1166TIP3    H125057   3.038   0.983   6.281  1.0055 -0.7581  0.9521
 1166TIP3    H225058   2.977   0.894   6.387 -2.6042  0.5852  0.1434
 1167TIP3   OH225059   6.827   3.591   1.200  0.1910  0.3703 -0.5977
 1167TIP3    H125060   6.911   3.595   1.154  0.8138 -1.9841  0.2204
 1167TIP3    H225061   6.783   3.514   1.165 -0.2434 -0.2451  1.1860
 1168TIP3   OH225062   2.892   5.881   1.806  0.3028 -0.2848 -0.0185
 1168TIP3    H125063   2.837   5.810   1.773  0.2144 -0.3652  0.3050
 1168TIP3    H225064   2.981   5.846   1.805  0.6481  0.4502 -2.3397
 1169TIP3   OH225065   1.380   6.133   6.393 -0.5670  0.1449 -0.6567
 1169TIP3    H125066   1.411   6.097   6.310  2.3785  1.1495 -0.1350
 1169TIP3    H225067   1.287   6.148   6.380  0.0190  1.7326 -4.3799
 1170TIP3   OH225068   5.425   1.749   0.234  0.0215  0.3147 -0.1728
 1170TIP3    H125069   5.413   1.843   0.219  0.8135  0.5540  0.6510
 1170TIP3    H225070   5.519   1.736   0.233 -0.0810 -0.4658 -0.1734
 1171TIP3   OH225071   0.388   4.212   8.122 -0.4197 -0.3551  0.8347
 1171TIP3    H125072   0.295   4.196   8.136 -0.2244 -1.3863  1.0064
 1171TIP3    H225073   0.433   4.157   8.186  0.3105  0.4068  1.0072
 1172TIP3   OH225074   4.620   4.015   1.249  0.4536  0.2316 -0.1564
 1172TIP3    H125075   4.621   4.075   1.175  1.0689  1.2944  0.6894
 1172TIP3    H225076   4.584   4.066   1.321  1.5738 -0.2037  0.7329
 1173TIP3   OH225077   4.018   5.338   6.561  0.2652  0.5482 -0.2126
 1173TIP3    H125078   4.056   5.257   6.596 -0.8649 -0.2691 -0.7979
 1173TIP3    H225079   3.948   5.359   6.623  0.0621  0.6524 -0.4786
 1174TIP3   OH225080   3.347   5.151   2.689  0.0432  0.1633  1.1947
 1174TIP3    H125081   3.405   5.088   2.647 -0.4172 -0.6176  1.7163
 1174TIP3    H225082   3.309   5.201   2.617 -0.4279 -0.8857  0.7076
 1175TIP3   OH225083   6.543   5.325   6.927 -0.1169  0.1437 -0.3544
 1175TIP3    H125084   6.498   5.396   6.973 -0.1772  0.3708 -0.7593
 1175TIP3    H225085   6.478   5.254   6.924 -0.0399  0.0496  0.0939
 1176TIP3   OH225086   1.531   5.392   6.621 -0.1690 -0.0293 -0.2585
 1176TIP3    H125087   1.508   5.350   6.703 -1.0700 -1.6016 -1.2577
 1176TIP3    H225088   1.447   5.414   6.580  0.2152 -0.2344 -1.2031
 1177TIP3   OH225089   5.088   5.450   7.432  0.5797 -0.4056  0.1157
 1177TIP3    H125090   5.120   5.536   7.461 -1.8597  0.6161 -0.0015
 1177TIP3    H225091   5.112   5.445   7.340 -1.3303  1.2735 -0.5340
 1178TIP3   OH225092   5.818   3.736   1.750 -0.3758  0.5174 -0.0187
 1178TIP3    H125093   5.891   3.762   1.694 -1.0807 -0.0442 -1.2460
 1178TIP3    H225094   5.858   3.719   1.835  0.9502  0.0299 -0.7103
 1179TIP3   OH225095   0.505   2.116   0.077 -0.8831  0.6666  0.0896
 1179TIP3    H125096   0.549   2.038   0.042  0.6203  1.1205  0.9143
 1179TIP3    H225097   0.503   2.177   0.003  0.1822  0.7590  0.1251
 1180TIP3   OH225098   4.763   0.730   0.536 -0.2323  0.1639  0.1146
 1180TIP3    H125099   4.795   0.758   0.622 -0.5991 -2.6112  1.2633
 1180TIP3    H225100   4.842   0.716   0.484  0.0711  0.4183  0.4988
 1181TIP3   OH225101   2.746   1.969   0.107  0.1022 -0.1434 -0.6731
 1181TIP3    H125102   2.677   1.935   0.165 -1.4239 -0.9451 -2.8044
 1181TIP3    H225103   2.807   1.896   0.098  1.1988  0.4995  1.0579
 1182TIP3   OH225104   4.628   3.700   2.012  1.0715 -0.2336  0.7943
 1182TIP3    H125105   4.637   3.704   1.917  1.2311  1.0956  0.8447
 1182TIP3    H225106   4.533   3.696   2.027  0.9198  1.4930  0.5860
 1183TIP3   OH225107   3.385   5.461   7.318 -0.1586 -0.4583 -0.5028
 1183TIP3    H125108   3.341   5.545   7.309 -0.3676 -0.4098  0.7841
 1183TIP3    H225109   3.369   5.416   7.235  0.0163  0.7862 -1.2236
 1184TIP3   OH225110   3.058   3.403   1.390 -0.4023  0.3769 -0.1812
 1184TIP3    H125111   2.965   3.384   1.405 -0.6457  0.0523 -1.8287
 1184TIP3    H225112   3.095   3.319   1.363  0.0191  0.8134 -1.0028
 1185TIP3   OH225113   0.911   0.874   1.570  0.2869  0.1619 -0.1006
 1185TIP3    H125114   0.881   0.949   1.518  0.4847  0.9473  0.8846
 1185TIP3    H225115   0.910   0.906   1.661 -2.2874 -1.8717  0.7065
 1186TIP3   OH225116   0.290   3.943   1.734 -0.0540 -0.1806  0.1250
 1186TIP3    H125117   0.251   4.015   1.784  0.4281  1.2362 -1.4360
 1186TIP3    H225118   0.236   3.867   1.754  0.0891  0.2932  2.7314
 1187TIP3   OH225119   2.912   0.694   8.072  0.0932 -0.0545  0.2658
 1187TIP3    H125120   2.976   0.744   8.124  2.0785 -3.0390  0.9287
 1187TIP3    H225121   2.948   0.695   7.983 -0.1513  0.1300  0.1680
 1188TIP3   OH225122   6.017   4.723   8.295 -0.4863  0.0727 -0.2926
 1188TIP3    H125123   6.042   4.754   8.382  1.6167 -2.5488  0.1617
 1188TIP3    H225124   5.929   4.687   8.306 -1.7505  2.9147 -0.1852
 1189TIP3   OH225125   3.671   0.124   1.131  0.2082  0.1055  1.0337
 1189TIP3    H125126   3.577   0.141   1.124  0.5819  2.0086 -0.1663
 1189TIP3    H225127   3.693   0.144   1.222 -0.3248  1.0690  0.9606
 1190TIP3   OH225128   4.151   6.444   0.657  0.1753 -0.5640  0.2502
 1190TIP3    H125129   4.091   6.398   0.715  1.0216 -0.7012  1.0305
 1190TIP3    H225130   4.103   6.453   0.575 -0.4034 -1.8574  0.4333
 1191TIP3   OH225131   4.537   1.836   8.287 -0.0122 -0.3800 -0.2606
 1191TIP3    H125132   4.518   1.923   8.251 -1.8234 -0.1603  1.1066
 1191TIP3    H225133   4.462   1.783   8.262  0.3600 -1.1513  0.2311
 1192TIP3   OH225134   5.790   5.312   7.013 -0.2602 -0.1625  0.8368
 1192TIP3    H125135   5.853   5.332   6.944  1.3286  2.7708  2.9278
 1192TIP3    H225136   5.766   5.220   6.998  3.6412 -1.1052 -0.7657
 1193TIP3   OH225137   6.380   4.881   1.631  0.0321 -0.3723  0.7091
 1193TIP3    H125138   6.349   4.824   1.701 -0.5294 -0.4271  0.4219
 1193TIP3    H225139   6.305   4.889   1.572  0.6003 -0.5717 -0.0429
 1194TIP3   OH225140   3.819   5.588   6.722 -0.7959 -0.1636  0.4260
 1194TIP3    H125141   3.758   5.637   6.666 -1.5058  0.8675  2.0222
 1194TIP3    H225142   3.881   5.654   6.753  0.8804 -1.1019 -0.7537
 1195TIP3   OH225143   6.644   1.855   6.812  0.5042  0.2661 -0.1059
 1195TIP3    H125144   6.580   1.925   6.829 -0.3190 -0.7508  1.2442
 1195TIP3    H225145   6.635   1.837   6.719  0.5011  1.7284 -0.4127
 1196TIP3   OH225146   6.614   2.478   8.133 -0.0183  0.1044  0.2090
 1196TIP3    H125147   6.687   2.427   8.168  1.0720  0.7945 -0.9632
 1196TIP3    H225148   6.591   2.539   8.204 -1.0148 -1.5883  1.4367
 1197TIP3   OH225149   6.480   5.560   7.362  0.0632  0.4308  0.6071
 1197TIP3    H125150   6.534   5.482   7.349  0.1485  0.4082  1.0857
 1197TIP3    H225151   6.401   5.544   7.311  2.0882  2.1552 -3.6207
 1198TIP3   OH225152   4.454   6.073   1.885 -0.1920  0.0725 -0.0449
 1198TIP3    H125153   4.502   6.021   1.821  1.0956  3.7714 -2.4635
 1198TIP3    H225154   4.521   6.123   1.931 -1.3729  0.3199  1.4968
 1199TIP3   OH225155   6.203   5.088   7.915 -0.1559  0.3242  0.0301
 1199TIP3    H125156   6.195   4.996   7.941 -2.3083  0.7716  1.2005
 1199TIP3    H225157   6.114   5.115   7.894  0.4533  2.1201 -0.4447
 1200TIP3   OH225158   6.420   6.282   8.114  0.3089 -0.1544 -0.3234
 1200TIP3    H125159   6.407   6.187   8.112  1.4831 -0.3333 -0.1411
 1200TIP3    H225160   6.451   6.301   8.202 -0.4396  0.4867 -0.1855
 1201TIP3   OH225161   3.455   5.486   6.816 -0.3131  0.1862  0.3193
 1201TIP3    H125162   3.489   5.401   6.789  0.9042  0.8459 -0.2765
 1201TIP3    H225163   3.394   5.466   6.887 -0.6670 -1.2475 -0.3606
 1202TIP3   OH225164   0.597   0.450   2.079  0.1846  1.2064 -0.0400
 1202TIP3    H125165   0.631   0.391   2.146  0.2995  0.5200 -0.6893
 1202TIP3    H225166   0.525   0.496   2.122 -1.9105 -1.5467 -0.3421
 1203TIP3   OH225167   4.064   4.131   7.792 -0.7693  0.4594 -0.3464
 1203TIP3    H125168   4.000   4.146   7.722  0.0433 -1.1776 -1.5228
 1203TIP3    H225169   4.039   4.046   7.829 -0.5430  0.8114  0.6336
 1204TIP3   OH225170   3.205   5.980   2.026 -0.3289  0.1007 -0.1540
 1204TIP3    H125171   3.150   5.914   1.984 -0.5220  1.1377 -1.6270
 1204TIP3    H225172   3.149   6.017   2.095 -0.4739 -0.7547  0.2010
 1205TIP3   OH225173   4.918   3.923   7.879 -0.2873 -0.1051 -0.1829
 1205TIP3    H125174   4.943   4.009   7.911  1.3439 -1.2781  1.9728
 1205TIP3    H225175   4.950   3.921   7.789  0.7078  1.1415  0.1146
 1206TIP3   OH225176   6.755   6.630   1.747  0.2672  0.9080 -0.0771
 1206TIP3    H125177   6.680   6.689   1.757  0.8887  1.7986 -0.4740
 1206TIP3    H225178   6.767   6.592   1.834 -2.5403 -1.6819 -0.6552
 1207TIP3   OH225179   1.325   4.515   7.598 -0.6979 -0.0194  0.3775
 1207TIP3    H125180   1.245   4.508   7.651 -0.6706 -0.2706  0.3869
 1207TIP3    H225181   1.395   4.487   7.657 -0.4543  1.2727  0.7220
 1208TIP3   OH225182   4.174   4.838   6.941  0.2791 -0.4144 -0.3376
 1208TIP3    H125183   4.231   4.915   6.946 -1.1450  0.6001  1.3070
 1208TIP3    H225184   4.116   4.846   7.017 -1.4264 -1.9084 -1.4079
 1209TIP3   OH225185   3.530   1.187   6.647  0.8152 -0.2490  0.1608
 1209TIP3    H125186   3.475   1.154   6.718  1.2645 -1.0683  0.1296
 1209TIP3    H225187   3.492   1.151   6.568  0.2561  0.7431 -0.0452
 1210TIP3   OH225188   6.511   3.412   1.351 -0.2621 -0.3775 -0.3005
 1210TIP3    H125189   6.545   3.495   1.317  1.3227 -1.3038 -1.0782
 1210TIP3    H225190   6.418   3.415   1.330  0.0096  0.6378 -1.5635
 1211TIP3   OH225191   3.647   1.655   1.039 -0.0852 -0.1085  0.5327
 1211TIP3    H125192   3.737   1.687   1.035 -0.3308  0.5324  0.0081
 1211TIP3    H225193   3.593   1.734   1.040 -0.6870 -0.4944 -0.3675
 1212TIP3   OH225194   5.608   6.130   7.615  0.0554 -0.4435 -0.1648
 1212TIP3    H125195   5.649   6.185   7.683  0.0471 -1.9845  1.1539
 1212TIP3    H225196   5.668   6.056   7.605 -1.8699 -2.2864  1.1420
 1213TIP3   OH225197   3.789   1.238   6.570  0.3925 -0.4694  0.4439
 1213TIP3    H125198   3.793   1.142   6.566 -1.3558 -0.5541 -0.1394
 1213TIP3    H225199   3.703   1.256   6.607  1.3276  0.8844  2.0817
 1214TIP3   OH225200   5.795   4.168   2.587 -0.0653  0.2862 -0.2465
 1214TIP3    H125201   5.758   4.092   2.631  1.4907  0.0404  0.7249
 1214TIP3    H225202   5.799   4.143   2.494  0.3108 -0.7842  0.0450
 1215TIP3   OH225203   4.356   3.806   6.537  0.4837 -0.1262 -0.7790
 1215TIP3    H125204   4.310   3.730   6.573  1.0998 -1.3027 -2.3884
 1215TIP3    H225205   4.398   3.774   6.458  2.4868  1.3861 -0.4081
 1216TIP3   OH225206   0.610   2.594   0.509 -0.3770  0.1868  0.0064
 1216TIP3    H125207   0.704   2.610   0.517 -0.4311  0.0967  0.9095
 1216TIP3    H225208   0.581   2.654   0.440  0.3880  0.0195 -0.4660
 1217TIP3   OH225209   2.849   0.853   7.050 -0.3863 -0.5293 -0.0957
 1217TIP3    H125210   2.892   0.911   6.986 -1.8167  0.0415 -0.5691
 1217TIP3    H225211   2.912   0.783   7.065  0.7797  0.3696 -0.6404
 1218TIP3   OH225212   6.406   6.321   0.145 -0.4115 -0.1087  0.1019
 1218TIP3    H125213   6.482   6.264   0.137  0.9162  1.7261 -1.3427
 1218TIP3    H225214   6.336   6.274   0.100  0.0078 -1.5342  0.8602
 1219TIP3   OH225215   0.858   0.189   0.483  0.8413 -0.7011 -0.2807
 1219TIP3    H125216   0.890   0.263   0.536  0.3387  0.0694 -1.0195
 1219TIP3    H225217   0.822   0.128   0.547  0.2805  0.1907  0.2847
 1220TIP3   OH225218   0.281   6.083   7.641  0.2937  0.2699 -0.5352
 1220TIP3    H125219   0.355   6.118   7.591  0.6497  0.3032  0.0039
 1220TIP3    H225220   0.204   6.124   7.602  0.4983 -0.2252 -1.4957
 1221TIP3   OH225221   6.105   6.766   8.221  0.4607  0.1246  0.4541
 1221TIP3    H125222   6.136   6.681   8.191  0.1848  0.7519 -1.8108
 1221TIP3    H225223   6.181   6.806   8.263  1.0744 -0.5759  0.0211
 1222TIP3   OH225224   6.091   0.908   6.387 -0.1120  0.4860  0.0958
 1222TIP3    H125225   6.021   0.846   6.368 -1.3897  1.5944  0.9526
 1222TIP3    H225226   6.071   0.984   6.332  0.8215  0.5603 -0.1623
 1223TIP3   OH225227   1.585   6.369   0.185 -0.1732  0.1189  0.3557
 1223TIP3    H125228   1.670   6.372   0.230  0.2132 -0.3662 -0.3150
 1223TIP3    H225229   1.582   6.449   0.134  0.4604 -0.4390 -0.6019
 1224TIP3   OH225230   0.076   5.478   8.091  0.0856 -0.4723 -0.3665
 1224TIP3    H125231   0.043   5.518   8.010  0.3156  1.6140  0.4931
 1224TIP3    H225232   0.156   5.433   8.066  0.4702  0.6468 -1.2191
 1225TIP3   OH225233   2.844   5.108   0.115 -0.2584  0.2688 -0.3626
 1225TIP3    H125234   2.755   5.117   0.151  0.1147 -1.7572  1.2414
 1225TIP3    H225235   2.883   5.038   0.166  1.4919 -0.5248 -2.6384
 1226TIP3   OH225236   2.366   0.755   6.752 -0.1611 -0.2573 -0.0540
 1226TIP3    H125237   2.273   0.753   6.772 -0.1636 -0.4971 -0.0846
 1226TIP3    H225238   2.407   0.707   6.825  0.2163  2.1158  1.4213
 1227TIP3   OH225239   4.258   3.010   0.028  0.2889 -0.2409  0.0750
 1227TIP3    H125240   4.207   3.091   0.038  0.2193 -0.1819 -0.6690
 1227TIP3    H225241   4.229   2.954   0.100  0.7019  0.5771  0.8932
 1228TIP3   OH225242   3.918   4.370   0.584  0.0648 -0.0495  0.4725
 1228TIP3    H125243   3.859   4.425   0.636  0.7277 -0.1739  1.3795
 1228TIP3    H225244   3.864   4.295   0.559 -0.9399  1.1176 -1.0368
 1229TIP3   OH225245   2.914   0.046   0.959  0.1326  0.0418 -0.4867
 1229TIP3    H125246   2.987   0.094   0.997 -0.5750 -0.8133  2.1780
 1229TIP3    H225247   2.855   0.029   1.033 -2.2284 -0.2893 -2.3031
 1230TIP3   OH225248   3.539   0.669   6.862 -0.2814  0.2523 -0.1266
 1230TIP3    H125249   3.503   0.619   6.789 -1.7234  0.8566  0.1298
 1230TIP3    H225250   3.545   0.759   6.830  0.5633  0.2513  0.0028
 1231TIP3   OH225251   5.777   1.276   1.146 -1.1120  0.2447 -0.1548
 1231TIP3    H125252   5.807   1.245   1.060  0.4800  0.8627  0.1299
 1231TIP3    H225253   5.734   1.360   1.126 -0.2679  0.6549 -0.3162
 1232TIP3   OH225254   5.459   4.627   8.212  0.0372 -0.1493 -0.0840
 1232TIP3    H125255   5.425   4.548   8.170 -0.6914  0.1593 -0.0879
 1232TIP3    H225256   5.411   4.698   8.170  0.1829  0.2434  0.4178
 1233TIP3   OH225257   3.079   5.813   7.839 -0.2145  0.3192  0.1564
 1233TIP3    H125258   3.066   5.803   7.933  0.2758 -0.0810  0.1860
 1233TIP3    H225259   3.098   5.725   7.807 -0.0430  0.5010 -0.2642
 1234TIP3   OH225260   5.776   3.705   0.243 -0.7556 -0.2756  0.4492
 1234TIP3    H125261   5.833   3.773   0.206 -0.7352 -1.2702 -1.4331
 1234TIP3    H225262   5.835   3.633   0.264 -0.8997 -0.0685  1.6348
 1235TIP3   OH225263   6.880   2.299   7.337  0.3741  0.1381 -0.5590
 1235TIP3    H125264   6.889   2.205   7.320 -0.3052  0.2492 -1.5930
 1235TIP3    H225265   6.873   2.339   7.250 -0.8064  0.9901 -0.0922
 1236TIP3   OH225266   2.449   1.535   7.025 -0.2457 -0.2297 -0.2576
 1236TIP3    H125267   2.374   1.487   6.988  0.1693 -0.1244 -1.2579
 1236TIP3    H225268   2.484   1.476   7.092  0.6096 -1.6385 -1.8454
 1237TIP3   OH225269   4.298   6.646   0.145  0.1510 -0.2003  0.1257
 1237TIP3    H125270   4.360   6.588   0.188 -1.0492 -0.3333  1.7496
 1237TIP3    H225271   4.330   6.734   0.166  1.2744 -0.2164 -1.3186
 1238TIP3   OH225272   4.297   0.006   2.042 -0.2626 -0.4424  0.0164
 1238TIP3    H125273   4.361  -0.049   1.995 -1.4981 -1.2597 -0.7620
 1238TIP3    H225274   4.248  -0.055   2.096 -1.9601 -0.2295 -1.2053
 1239TIP3   OH225275   1.525   2.066   2.091 -0.2304  0.0587  0.2977
 1239TIP3    H125276   1.546   2.006   2.162  2.5434  0.0040 -0.4352
 1239TIP3    H225277   1.524   2.153   2.131 -0.5499 -0.1327  0.7070
 1240TIP3   OH225278   4.732   0.979   2.232 -0.4597 -0.1137 -0.4807
 1240TIP3    H125279   4.800   1.038   2.264 -1.3423  1.4292 -1.3334
 1240TIP3    H225280   4.650   1.021   2.257 -1.1386 -0.1839 -2.4145
 1241TIP3   OH225281   2.821   1.977   7.506  0.0532  0.3367  0.5329
 1241TIP3    H125282   2.838   1.975   7.412  1.7487 -1.2507  0.8168
 1241TIP3    H225283   2.885   2.038   7.542 -0.3256  0.6345  0.7153
 1242TIP3   OH225284   6.460   4.496   1.536 -0.0002 -0.0303  0.1961
 1242TIP3    H125285   6.472   4.402   1.525  0.7683  0.1718 -0.8852
 1242TIP3    H225286   6.371   4.506   1.569 -0.0902 -1.1310  0.3109
 1243TIP3   OH225287   6.895   3.629   7.842 -0.6251  0.3801 -0.2464
 1243TIP3    H125288   6.957   3.619   7.914 -1.0919  0.4464  0.1663
 1243TIP3    H225289   6.950   3.655   7.767 -0.1614  0.4612  0.1159
 1244TIP3   OH225290   3.250   2.212   0.145  0.0369 -0.4096 -0.2074
 1244TIP3    H125291   3.190   2.153   0.191  0.2201  0.0094  0.5851
 1244TIP3    H225292   3.204   2.296   0.143  0.7316  0.0180  0.7550
 1245TIP3   OH225293   2.572   2.701   0.180  0.2436  0.0327 -0.5722
 1245TIP3    H125294   2.619   2.784   0.176  1.3346 -0.4824  0.7463
 1245TIP3    H225295   2.565   2.682   0.274 -0.3205 -1.1898 -0.8409
 1246TIP3   OH225296   5.760   0.202   2.027 -0.2216  0.0100  0.1935
 1246TIP3    H125297   5.715   0.275   1.985 -1.6855 -1.2051 -0.4149
 1246TIP3    H225298   5.691   0.155   2.074  0.6278 -1.1960  0.2701
 1247TIP3   OH225299   5.633   0.900   0.200  0.1921 -0.6188 -0.4700
 1247TIP3    H125300   5.698   0.842   0.161 -0.3568 -1.1827 -0.5418
 1247TIP3    H225301   5.592   0.945   0.126 -0.0699 -0.8667 -0.4762
 1248TIP3   OH225302   6.203   3.114   0.588 -0.0680 -0.2724 -0.5529
 1248TIP3    H125303   6.170   3.069   0.509  0.5640 -0.4987 -0.6922
 1248TIP3    H225304   6.293   3.083   0.597 -0.3976 -0.9413  0.7648
 1249TIP3   OH225305   3.233   0.947   6.207  0.1826 -0.0050 -0.5478
 1249TIP3    H125306   3.313   0.895   6.218  1.7487  2.0560 -1.4106
 1249TIP3    H225307   3.222   0.955   6.112 -2.3004 -1.9239 -0.5299
 1250TIP3   OH225308   6.572   6.706   2.144 -0.0570  0.6569 -0.1136
 1250TIP3    H125309   6.523   6.770   2.093  0.2524  0.9892  0.0017
 1250TIP3    H225310   6.576   6.743   2.232  0.3330  0.5957 -0.1047
 1251TIP3   OH225311   5.357   3.929   7.121 -0.1854  0.1070 -0.8425
 1251TIP3    H125312   5.265   3.947   7.142 -0.4014 -1.8819  0.2031
 1251TIP3    H225313   5.371   3.839   7.149  0.9976 -1.1262 -4.7150
 1252TIP3   OH225314   6.395   4.504   1.204 -0.1446  0.0363 -0.4934
 1252TIP3    H125315   6.458   4.574   1.219  0.2472 -0.0599 -1.5770
 1252TIP3    H225316   6.325   4.519   1.268  1.1001 -0.0189  0.9240
 1253TIP3   OH225317   5.829   6.523   7.973 -0.4776 -0.2380  0.0975
 1253TIP3    H125318   5.850   6.550   7.884 -1.1943 -0.5059 -0.1576
 1253TIP3    H225319   5.734   6.515   7.974 -0.4707 -0.3082  0.8674
 1254TIP3   OH225320   5.761   0.553   7.717  0.2913  0.3203 -1.1092
 1254TIP3    H125321   5.750   0.647   7.729  0.2140  0.2043 -0.1670
 1254TIP3    H225322   5.696   0.513   7.775  2.6202 -0.3317  1.2292
 1255TIP3   OH225323   0.087   2.545   1.560 -0.7091  0.4812  0.3167
 1255TIP3    H125324   0.047   2.492   1.629  0.8235  0.1753  1.0062
 1255TIP3    H225325   0.099   2.632   1.599 -0.2407  0.4308  0.2921
 1256TIP3   OH225326   5.840   0.646   2.794  0.3033  0.2433 -0.4940
 1256TIP3    H125327   5.760   0.652   2.848 -1.4344 -2.1615 -2.5835
 1256TIP3    H225328   5.906   0.692   2.846 -1.2113 -1.6842  3.6645
 1257TIP3   OH225329   0.918   2.024   0.066 -0.0874 -0.0079 -0.6870
 1257TIP3    H125330   0.926   2.072   0.148  1.0548  1.3710 -1.5555
 1257TIP3    H225331   0.868   1.945   0.088 -0.1531  0.5378  1.2218
 1258TIP3   OH225332   0.467   1.591   0.699 -0.1730  0.2338  0.0133
 1258TIP3    H125333   0.539   1.652   0.715 -0.7941  0.4916  2.2630
 1258TIP3    H225334   0.389   1.647   0.698 -0.4667 -0.1810 -1.1431
 1259TIP3   OH225335   4.278   3.411   1.424  1.0906  0.2760 -0.3961
 1259TIP3    H125336   4.241   3.383   1.508  0.8358  0.0049 -0.5955
 1259TIP3    H225337   4.335   3.484   1.447  0.8443  0.3567 -0.0143
 1260TIP3   OH225338   4.682   3.934   2.334 -0.1667  0.1607  0.0828
 1260TIP3    H125339   4.631   4.008   2.301 -0.1428 -0.2391 -0.8849
 1260TIP3    H225340   4.746   3.974   2.394  0.3630  1.0247 -1.0192
 1261TIP3   OH225341   1.702   0.867   0.776  0.2398 -0.1683  0.1059
 1261TIP3    H125342   1.722   0.864   0.869  0.4555 -0.2401  0.0585
 1261TIP3    H225343   1.732   0.954   0.748  1.4855 -0.6571 -0.1815
 1262TIP3   OH225344   5.090   6.314   7.787  0.2470 -0.4481  0.1980
 1262TIP3    H125345   5.006   6.327   7.833  1.0967  0.3119  1.6049
 1262TIP3    H225346   5.150   6.375   7.830  0.8977  1.0215 -2.5595
 1263TIP3   OH225347   4.220   0.212   1.382 -0.0273  0.4968 -0.4076
 1263TIP3    H125348   4.247   0.288   1.329  3.7611 -0.6356 -0.4073
 1263TIP3    H225349   4.302   0.180   1.421 -1.4493 -3.5365 -0.3187
 1264TIP3   OH225350   0.517   2.718   8.025 -0.1907  0.4279  0.7308
 1264TIP3    H125351   0.542   2.779   8.094 -0.9571  0.3070  1.1246
 1264TIP3    H225352   0.422   2.730   8.015  0.1810  2.0450 -1.8391
 1265TIP3   OH225353   5.614   4.638   0.557  0.2388 -0.4170  0.4884
 1265TIP3    H125354   5.534   4.609   0.600 -0.2490  2.9345  2.0989
 1265TIP3    H225355   5.676   4.566   0.572 -2.1246 -2.7422 -0.1124
 1266TIP3   OH225356   0.104   1.409   8.072 -0.1692 -0.1825 -0.3067
 1266TIP3    H125357   0.123   1.316   8.083 -2.4832 -0.5469  1.5771
 1266TIP3    H225358   0.172   1.454   8.122  1.4038 -0.7698 -1.8451
 1267TIP3   OH225359   2.047   4.207   1.376  0.5339  0.1160  0.1754
 1267TIP3    H125360   1.966   4.173   1.338 -0.3871  2.9080 -0.6332
 1267TIP3    H225361   2.112   4.195   1.307 -0.1235  1.1995 -0.6783
 1268TIP3   OH225362   6.068   5.339   1.642 -0.4051  0.1058 -0.2644
 1268TIP3    H125363   5.994   5.336   1.702  0.0795  1.7166  0.4765
 1268TIP3    H225364   6.133   5.280   1.681 -0.1789  0.9695  0.6978
 1269TIP3   OH225365   0.178   3.421   7.461  0.5388 -0.0053 -0.4620
 1269TIP3    H125366   0.208   3.478   7.391 -0.0360 -0.1637 -0.8509
 1269TIP3    H225367   0.147   3.342   7.415 -2.9376  1.1440 -0.3932
 1270TIP3   OH225368   1.572   6.800   0.769 -0.1581 -0.0649  0.5574
 1270TIP3    H125369   1.568   6.711   0.804 -2.3719  0.2399  1.2537
 1270TIP3    H225370   1.574   6.788   0.674 -0.6039 -0.8805  0.6359
 1271TIP3   OH225371   1.531   6.002   7.415 -0.3319 -0.4931  0.6891
 1271TIP3    H125372   1.454   6.041   7.457 -0.2999  0.4411 -0.0807
 1271TIP3    H225373   1.505   5.988   7.324  0.3676 -0.2386  0.4368
 1272TIP3   OH225374   3.526   2.916   0.867 -0.2081 -0.8369 -0.2819
 1272TIP3    H125375   3.489   2.968   0.796  2.7565 -0.2133 -1.5437
 1272TIP3    H225376   3.509   2.967   0.946 -0.7001  0.1162 -0.9879
 1273TIP3   OH225377   6.644   2.141   7.777  0.2305  0.3100  0.0700
 1273TIP3    H125378   6.726   2.180   7.809  0.1930  0.0069  0.5488
 1273TIP3    H225379   6.578   2.170   7.840  0.4840 -1.8902  1.4492
 1274TIP3   OH225380   5.991   4.234   8.024  0.2231 -0.0416 -0.7270
 1274TIP3    H125381   5.972   4.146   7.990 -0.6888  0.1411 -0.7219
 1274TIP3    H225382   5.917   4.253   8.082  0.6385  0.5554 -0.3859
 1275TIP3   OH225383   0.423   3.518   8.096  0.5238  0.6299 -0.3335
 1275TIP3    H125384   0.450   3.492   8.008  0.6592 -0.2602 -0.0364
 1275TIP3    H225385   0.490   3.581   8.124 -0.0582  1.6905 -1.2349
 1276TIP3   OH225386   1.005   2.790   0.102  0.9197 -0.3928 -0.2502
 1276TIP3    H125387   0.978   2.698   0.097 -0.6239  0.0041  0.1631
 1276TIP3    H225388   0.922   2.838   0.103  1.7109  1.0639 -1.3626
 1277TIP3   OH225389   1.959   6.508   1.102  0.4019  0.3519 -0.4092
 1277TIP3    H125390   2.039   6.511   1.155 -0.5976  2.2413  1.1459
 1277TIP3    H225391   1.983   6.549   1.019  1.1544  0.5001 -0.1240
 1278TIP3   OH225392   6.663   0.776   1.083 -0.6447  0.3729  0.3248
 1278TIP3    H125393   6.599   0.707   1.067  0.3338 -0.5643  0.4178
 1278TIP3    H225394   6.657   0.833   1.006 -1.2292  0.0148  0.1014
 1279TIP3   OH225395   1.622   1.152   1.757  0.2594  0.0152  0.0574
 1279TIP3    H125396   1.634   1.066   1.718 -2.5476 -0.7118  0.5884
 1279TIP3    H225397   1.650   1.213   1.690 -0.1782 -1.2800 -1.3599
 1280TIP3   OH225398   5.011   1.335   2.658 -0.3079 -0.0905 -0.1882
 1280TIP3    H125399   4.934   1.364   2.609 -0.2273  0.8517  0.2266
 1280TIP3    H225400   5.078   1.399   2.637 -0.4480  0.7056  1.6053
 1281TIP3   OH225401   0.100   3.937   1.547  0.6557  0.2086  0.1893
 1281TIP3    H125402   0.171   3.960   1.606 -0.7088 -1.1884  2.5542
 1281TIP3    H225403   0.138   3.872   1.488  1.7931  0.8311  0.2130
 1282TIP3   OH225404   1.976   0.417   1.857 -0.3019 -0.2837  0.5686
 1282TIP3    H125405   1.882   0.398   1.854 -0.3903  0.2198 -0.2159
 1282TIP3    H225406   1.988   0.463   1.940 -0.8348  0.0403  0.4726
 1283TIP3   OH225407   1.346   5.260   1.697 -0.2009 -0.5056  0.2046
 1283TIP3    H125408   1.423   5.316   1.709 -0.9646  0.5724  0.2285
 1283TIP3    H225409   1.356   5.223   1.609  0.2049 -0.1646  0.1051
 1284TIP3   OH225410   4.656   6.606   8.262 -0.1587  0.8350 -0.4790
 1284TIP3    H125411   4.572   6.606   8.215 -2.3182 -1.6973  2.8869
 1284TIP3    H225412   4.682   6.514   8.263  0.4398  0.9713  2.0671
 1285TIP3   OH225413   4.228   2.578   6.818 -0.2033 -0.5072  0.0101
 1285TIP3    H125414   4.221   2.536   6.733 -2.8611 -0.3401  0.0664
 1285TIP3    H225415   4.273   2.513   6.873  0.3075 -1.1693 -1.1489
 1286TIP3   OH225416   3.709   5.833   2.294  0.1685  0.3911 -0.2871
 1286TIP3    H125417   3.758   5.767   2.244 -1.4123  0.2198 -1.6684
 1286TIP3    H225418   3.652   5.782   2.351 -1.4190  0.4920 -1.7108
 1287TIP3   OH225419   1.295   4.516   7.293 -0.2448  0.0238 -0.1311
 1287TIP3    H125420   1.312   4.593   7.239  1.2104  0.1332  0.4350
 1287TIP3    H225421   1.381   4.477   7.307 -0.7713 -0.8226  0.8929
 1288TIP3   OH225422   3.932   6.340   2.165  0.2237 -0.0955 -0.3972
 1288TIP3    H125423   3.844   6.315   2.138 -0.8455  3.3131 -0.4779
 1288TIP3    H225424   3.925   6.353   2.260  0.9184 -0.7752 -0.2446
 1289TIP3   OH225425   2.952   4.766   1.437  0.4637 -0.3678 -0.2877
 1289TIP3    H125426   2.897   4.721   1.500  2.7660  1.4574  3.3410
 1289TIP3    H225427   2.895   4.833   1.399 -0.5811 -0.4242  1.1121
 1290TIP3   OH225428   3.150   3.745   8.280  0.0519  0.0376  0.2025
 1290TIP3    H125429   3.162   3.746   8.375 -0.7334  2.2778  0.3435
 1290TIP3    H225430   3.239   3.752   8.244  0.2429  1.2401  0.8507
 1291TIP3   OH225431   0.402   2.103   7.477 -0.4338  0.0916 -0.0497
 1291TIP3    H125432   0.324   2.159   7.475 -0.4740  0.0396  0.1197
 1291TIP3    H225433   0.368   2.014   7.487 -0.3197  0.1376  0.7985
 1292TIP3   OH225434   0.355   6.071   1.586 -0.0780  0.2682 -0.4359
 1292TIP3    H125435   0.362   6.117   1.502  2.9140 -2.3627 -1.8562
 1292TIP3    H225436   0.412   6.120   1.645  0.1326  0.5092 -0.8310
 1293TIP3   OH225437   6.342   4.390   0.944  0.2069  0.3444  0.4036
 1293TIP3    H125438   6.354   4.308   0.992  0.4901  0.1039 -0.0759
 1293TIP3    H225439   6.327   4.455   1.012 -1.5460 -0.3511  0.7474
 1294TIP3   OH225440   4.646   1.122   8.100  0.7130  0.5666  0.2537
 1294TIP3    H125441   4.608   1.209   8.116  1.4769  0.5123  2.7435
 1294TIP3    H225442   4.597   1.089   8.024 -1.8848  1.8435  1.2356
 1295TIP3   OH225443   3.170   2.361   2.161 -0.3958 -0.1207 -0.5854
 1295TIP3    H125444   3.081   2.377   2.192 -0.3989 -0.7326 -0.2556
 1295TIP3    H225445   3.224   2.421   2.212 -0.5813  0.0224 -0.5549
 1296TIP3   OH225446   1.322   1.209   7.049 -0.6485  0.6300 -0.2124
 1296TIP3    H125447   1.329   1.230   6.956  0.3902  0.1821 -0.2551
 1296TIP3    H225448   1.397   1.254   7.089 -1.3896  1.2620  0.5032
 1297TIP3   OH225449   2.444   5.322   8.235 -0.1182  0.3261 -0.3794
 1297TIP3    H125450   2.360   5.348   8.199 -0.8156  1.1070  1.6354
 1297TIP3    H225451   2.476   5.401   8.280 -0.0213 -0.9195  1.8807
 1298TIP3   OH225452   3.330   5.073   1.222  0.0096 -0.0750  0.1573
 1298TIP3    H125453   3.267   5.135   1.257  0.6753  1.5613 -1.4049
 1298TIP3    H225454   3.352   5.017   1.297 -1.8845  0.4610  1.1834
 1299TIP3   OH225455   3.135   2.121   2.048 -0.1545 -0.3815  0.1092
 1299TIP3    H125456   3.063   2.172   2.010  0.1126  0.5706  0.8504
 1299TIP3    H225457   3.167   2.174   2.121  3.5326  0.9255 -2.1711
 1300TIP3   OH225458   0.267   4.464   6.969 -0.3111  0.0577 -0.2507
 1300TIP3    H125459   0.213   4.429   6.898 -1.2353  1.8603 -0.4932
 1300TIP3    H225460   0.222   4.544   6.996  1.8558  1.2534  0.0379
 1301TIP3   OH225461   5.432   1.325   1.274  0.1095 -0.4431 -0.3490
 1301TIP3    H125462   5.504   1.344   1.214  0.1812 -1.3049 -0.5525
 1301TIP3    H225463   5.370   1.397   1.262  0.1046 -0.6333 -1.4946
 1302TIP3   OH225464   1.006   1.619   1.419  0.6085 -0.0388  0.1050
 1302TIP3    H125465   1.054   1.701   1.428 -0.0103  0.1703  1.8434
 1302TIP3    H225466   0.914   1.645   1.425  0.2561 -0.5416 -2.2417
 1303TIP3   OH225467   2.524   4.919   1.784 -0.0716  0.0891 -0.5813
 1303TIP3    H125468   2.558   4.995   1.831 -1.2846 -0.9487  2.2581
 1303TIP3    H225469   2.518   4.850   1.851 -3.3278 -1.1165 -1.8814
 1304TIP3   OH225470   3.864   3.559   6.656  0.7766 -0.0532  0.1230
 1304TIP3    H125471   3.951   3.519   6.666  0.7931 -0.0499  0.0032
 1304TIP3    H225472   3.840   3.539   6.565  0.6563 -0.0455  0.1539
 1305TIP3   OH225473   4.810   1.847   2.961 -0.0451 -0.2911  0.3367
 1305TIP3    H125474   4.855   1.763   2.949  0.1231 -0.0959 -0.4617
 1305TIP3    H225475   4.742   1.847   2.894  0.9767  0.8806 -0.7530
 1306TIP3   OH225476   0.235   5.974   7.953 -0.3669 -0.1372  0.0434
 1306TIP3    H125477   0.154   5.985   7.904  0.9982  0.9793 -2.0996
 1306TIP3    H225478   0.237   6.048   8.014 -0.6525  0.1888 -0.3387
 1307TIP3   OH225479   3.201   5.484   2.204 -0.2275  0.5728  0.6060
 1307TIP3    H125480   3.111   5.455   2.219 -0.0017 -0.6312 -0.2714
 1307TIP3    H225481   3.192   5.563   2.151 -0.7507  0.0731 -0.0617
 1308TIP3   OH225482   2.965   2.445   8.152  0.3275 -0.2407  0.0921
 1308TIP3    H125483   2.971   2.368   8.209  0.7807 -0.2102  0.0858
 1308TIP3    H225484   2.927   2.513   8.209 -0.0603 -0.4570  0.1012
 1309TIP3   OH225485   4.497   6.682   1.339  0.1931  0.2975 -0.3830
 1309TIP3    H125486   4.591   6.694   1.333 -0.0002  1.4313 -1.3496
 1309TIP3    H225487   4.463   6.708   1.253 -0.8667 -1.5163 -0.5764
 1310TIP3   OH225488   1.650   4.613   7.162  0.7887 -0.0302 -0.2174
 1310TIP3    H125489   1.616   4.553   7.095 -1.5888  1.7959 -0.7683
 1310TIP3    H225490   1.616   4.577   7.244  2.6576 -1.5573 -0.0367
 1311TIP3   OH225491   3.479   6.570   0.574 -0.0011 -0.2753 -0.1163
 1311TIP3    H125492   3.511   6.584   0.663 -0.5030  0.1355 -0.0006
 1311TIP3    H225493   3.556   6.539   0.526  0.3793 -0.0675  0.3515
 1312TIP3   OH225494   6.820   3.718   0.257  0.4810 -0.1195 -0.1689
 1312TIP3    H125495   6.785   3.716   0.347 -0.7042 -0.6563 -0.6241
 1312TIP3    H225496   6.876   3.795   0.255  2.8149 -1.6047  1.8505
 1313TIP3   OH225497   2.122   1.092   8.185 -0.4731  0.0573  0.0773
 1313TIP3    H125498   2.168   1.049   8.113 -0.8022 -0.6610  0.2879
 1313TIP3    H225499   2.034   1.053   8.184 -1.4328  2.0897 -0.9380
 1314TIP3   OH225500   6.810   2.736   6.983  0.2421  0.1236  0.6110
 1314TIP3    H125501   6.886   2.681   7.002 -0.7006 -1.8089 -0.8264
 1314TIP3    H225502   6.820   2.759   6.891 -1.1224 -0.5645  0.2706
 1315TIP3   OH225503   4.853   1.731   7.393 -0.3401  0.0674  0.3935
 1315TIP3    H125504   4.821   1.819   7.378 -2.5276 -0.8383 -0.7497
 1315TIP3    H225505   4.861   1.724   7.489  0.6222  1.6923  0.4671
 1316TIP3   OH225506   5.287   1.287   6.460  1.1108 -0.5092  0.2069
 1316TIP3    H125507   5.194   1.265   6.471  0.7811  0.1533 -1.0557
 1316TIP3    H225508   5.307   1.342   6.535  0.3788 -0.3784  0.3182
 1317TIP3   OH225509   5.368   3.404   6.577  0.2946 -0.0848 -0.7013
 1317TIP3    H125510   5.369   3.458   6.498  1.7927 -0.4584 -0.9657
 1317TIP3    H225511   5.373   3.314   6.546 -2.3270 -0.4785 -0.2647
 1318TIP3   OH225512   1.421   5.689   8.279  0.1963  0.5644  0.8169
 1318TIP3    H125513   1.505   5.719   8.245 -0.4447  0.9289 -0.4754
 1318TIP3    H225514   1.432   5.594   8.287  1.1224  0.7278  1.8308
 1319TIP3   OH225515   0.596   4.284   0.936  0.1654 -0.0968 -0.1851
 1319TIP3    H125516   0.631   4.283   1.025 -1.8668 -1.1208  0.6854
 1319TIP3    H225517   0.649   4.220   0.888  2.1791  1.4628 -0.1514
 1320TIP3   OH225518   0.177   6.707   0.353 -0.8926  0.0799 -0.1360
 1320TIP3    H125519   0.152   6.799   0.341 -0.0230  0.4749  0.9210
 1320TIP3    H225520   0.245   6.692   0.287 -1.1618  0.1487 -0.4283
 1321TIP3   OH225521   3.738   2.815   7.216 -0.4565 -0.0894 -0.1283
 1321TIP3    H125522   3.712   2.739   7.163 -0.3306 -0.0365 -0.2670
 1321TIP3    H225523   3.831   2.828   7.195  0.0815 -1.1676  1.4546
 1322TIP3   OH225524   3.382   6.186   0.531 -0.5743  0.4676 -0.0939
 1322TIP3    H125525   3.376   6.195   0.626  0.0881  3.0154 -0.2218
 1322TIP3    H225526   3.440   6.110   0.518 -0.2498  0.3937  1.5251
 1323TIP3   OH225527   6.836   4.326   7.070 -0.1074 -0.1981  0.1887
 1323TIP3    H125528   6.770   4.331   7.139  0.0544  1.7483  0.2695
 1323TIP3    H225529   6.795   4.368   6.994 -0.6425 -3.1497 -1.2931
 1324TIP3   OH225530   2.315   2.853   6.223 -0.6871 -0.3980 -0.3579
 1324TIP3    H125531   2.313   2.860   6.127 -0.0147 -1.0978 -0.4287
 1324TIP3    H225532   2.228   2.883   6.251 -0.3316  1.4414 -1.0654
 1325TIP3   OH225533   4.299   0.277   2.028  0.5773  0.3907  0.0622
 1325TIP3    H125534   4.330   0.187   2.041  1.9533  0.8000 -0.3253
 1325TIP3    H225535   4.344   0.328   2.095 -0.2748  0.7971  0.3470
 1326TIP3   OH225536   2.609   5.495   7.790 -0.4808 -0.0717 -0.6549
 1326TIP3    H125537   2.606   5.581   7.748 -0.9603  0.0177 -0.4424
 1326TIP3    H225538   2.598   5.514   7.884  2.8078 -0.0460 -0.1428
 1327TIP3   OH225539   4.841   2.526   7.701  0.4370 -0.0764  0.1329
 1327TIP3    H125540   4.808   2.488   7.620  1.5835 -0.8103 -0.0014
 1327TIP3    H225541   4.817   2.619   7.695 -1.4870 -0.5339  0.0059
 1328TIP3   OH225542   0.336   2.136   1.238 -0.0739 -0.2483 -0.4562
 1328TIP3    H125543   0.310   2.203   1.174 -1.3264 -0.8177 -0.5776
 1328TIP3    H225544   0.317   2.176   1.323  0.0563 -0.1053 -0.4931
 1329TIP3   OH225545   2.978   2.211   7.515 -0.2214 -0.0853  1.4596
 1329TIP3    H125546   3.054   2.158   7.488 -1.2691 -0.4963 -0.8601
 1329TIP3    H225547   3.017   2.283   7.566  1.6275 -0.8248  1.1959
 1330TIP3   OH225548   0.242   4.060   6.245 -0.6267  0.4509 -0.7883
 1330TIP3    H125549   0.306   3.989   6.240 -2.6460 -1.4362 -1.5452
 1330TIP3    H225550   0.283   4.133   6.199  0.4513 -1.1602 -2.5508
 1331TIP3   OH225551   6.967   1.319   1.205  0.4337 -0.0565 -0.0128
 1331TIP3    H125552   6.983   1.406   1.169 -0.2503  0.1337  0.1189
 1331TIP3    H225553   6.996   1.324   1.296 -0.6655  0.4014  0.3374
 1332TIP3   OH225554   1.438   0.762   0.424 -0.8505  0.0431 -0.0506
 1332TIP3    H125555   1.474   0.677   0.448  0.1232  0.8465  1.4590
 1332TIP3    H225556   1.510   0.824   0.437 -1.5070  1.1028 -1.2035
 1333TIP3   OH225557   1.383   6.211   1.015 -0.1273  0.0778 -0.2272
 1333TIP3    H125558   1.452   6.148   1.031 -0.3313  0.0127  0.4486
 1333TIP3    H225559   1.340   6.181   0.935 -0.1378 -0.5668  0.0155
 1334TIP3   OH225560   6.515   4.537   7.279  0.3133 -0.1913  1.0428
 1334TIP3    H125561   6.558   4.452   7.270  0.0914 -0.1286 -1.0900
 1334TIP3    H225562   6.455   4.541   7.205  1.1069  2.2615  0.4469
 1335TIP3   OH225563   0.032   3.036   1.067 -0.4229 -0.4166 -0.1119
 1335TIP3    H125564   0.116   2.992   1.051  0.2708  0.5520  0.7060
 1335TIP3    H225565   0.019   3.093   0.991  0.3666  0.4526  0.3799
 1336TIP3   OH225566   4.253   5.385   2.673  0.0502  0.0894 -0.0548
 1336TIP3    H125567   4.269   5.451   2.606 -2.5084  1.5400  0.6147
 1336TIP3    H225568   4.232   5.435   2.752 -0.3198 -1.5304  0.9324
 1337TIP3   OH225569   0.751   5.976   6.719 -0.0500 -0.2383  0.1491
 1337TIP3    H125570   0.698   5.975   6.639 -0.4014  0.0446  0.3773
 1337TIP3    H225571   0.822   6.037   6.700 -0.8929  0.8973  0.5323
 1338TIP3   OH225572   4.754   1.925   1.730  0.0245  1.1669 -0.1678
 1338TIP3    H125573   4.812   1.998   1.706  0.1720  0.7577 -1.1167
 1338TIP3    H225574   4.666   1.961   1.723  0.0710  1.1153 -1.2049
 1339TIP3   OH225575   6.994   6.427   1.059  0.3927  0.1061 -0.6386
 1339TIP3    H125576   7.045   6.449   0.981  2.0466 -0.2389  0.2931
 1339TIP3    H225577   6.907   6.462   1.042  1.3885  2.2922 -1.5967
 1340TIP3   OH225578   3.927   2.145   0.518 -0.0773 -0.4009 -0.4721
 1340TIP3    H125579   3.956   2.054   0.512  0.3849 -0.4591  1.8253
 1340TIP3    H225580   3.843   2.140   0.563  1.0596  0.4195  1.8591
 1341TIP3   OH225581   3.011   6.727   0.240 -0.2030  0.0662  0.3134
 1341TIP3    H125582   3.012   6.688   0.327  1.3053  0.5149  0.5386
 1341TIP3    H225583   3.068   6.671   0.188 -0.5214  0.2101 -0.1968
 1342TIP3   OH225584   6.494   1.687   8.058  0.5457  0.4407  0.4838
 1342TIP3    H125585   6.545   1.657   7.982  2.7372  0.4350  1.8718
 1342TIP3    H225586   6.426   1.620   8.068 -0.2358  0.7869 -1.8233
 1343TIP3   OH225587   3.998   3.663   8.120  1.0660  0.0763 -0.3350
 1343TIP3    H125588   3.921   3.613   8.148 -1.7682  2.5595 -2.9962
 1343TIP3    H225589   4.010   3.639   8.028  1.1322  2.3775 -0.9855
 1344TIP3   OH225590   1.637   1.714   1.064  0.5885  0.0546 -0.2162
 1344TIP3    H125591   1.556   1.667   1.085  1.1016  0.7830  4.3843
 1344TIP3    H225592   1.608   1.797   1.026 -0.7546 -0.4296 -0.2742
 1345TIP3   OH225593   2.788   5.165   7.013  0.1395 -0.2666  0.1265
 1345TIP3    H125594   2.842   5.175   7.092 -0.9815  2.9926  0.6140
 1345TIP3    H225595   2.698   5.161   7.046 -0.3216  0.7950 -0.9411
 1346TIP3   OH225596   6.756   3.514   6.936 -0.7176 -0.2816 -0.5733
 1346TIP3    H125597   6.765   3.519   6.841 -1.1211 -0.1252 -0.6046
 1346TIP3    H225598   6.846   3.510   6.968 -0.5287  0.8568 -0.9039
 1347TIP3   OH225599   0.001   3.679   0.518  0.3706  0.2207 -0.3050
 1347TIP3    H125600   0.079   3.724   0.484 -0.3550  0.6189 -1.4960
 1347TIP3    H225601  -0.066   3.747   0.521 -0.1533 -0.2971 -0.0322
 1348TIP3   OH225602   0.836   5.663   0.416  0.4123  0.2792 -0.0033
 1348TIP3    H125603   0.793   5.578   0.403  1.1708  0.0291 -1.0556
 1348TIP3    H225604   0.929   5.641   0.426  0.8580  1.0655 -1.9412
 1349TIP3   OH225605   6.180   3.786   2.188  0.6403 -0.3372  0.7728
 1349TIP3    H125606   6.118   3.715   2.205  0.5298 -0.6860 -0.9253
 1349TIP3    H225607   6.249   3.744   2.136  1.2435  0.5172  0.8705
 1350TIP3   OH225608   4.532   6.758   2.662 -0.0062 -0.4698  0.3729
 1350TIP3    H125609   4.584   6.678   2.669 -0.0459 -0.4656  0.7617
 1350TIP3    H225610   4.499   6.757   2.572  0.3792 -0.6479  0.2285
 1351TIP3   OH225611   0.529   5.319   2.001  0.1603 -0.0900 -0.2074
 1351TIP3    H125612   0.500   5.355   1.917  0.5175 -0.4851 -0.5063
 1351TIP3    H225613   0.623   5.302   1.988  0.1745 -0.3308  0.2075
 1352TIP3   OH225614   3.200   3.539   0.323 -0.2329  0.2937 -0.2398
 1352TIP3    H125615   3.265   3.478   0.288 -0.3709  0.3643 -0.6226
 1352TIP3    H225616   3.120   3.519   0.274 -0.4584  0.3193  0.1113
 1353TIP3   OH225617   3.489   2.621   1.930 -0.4911 -0.0949 -0.3746
 1353TIP3    H125618   3.527   2.551   1.982  0.9905  0.8220 -0.1770
 1353TIP3    H225619   3.547   2.629   1.854 -0.6350  0.9084 -0.3930
 1354TIP3   OH225620   0.271   3.604   7.289  0.6129 -0.2790 -0.5755
 1354TIP3    H125621   0.275   3.584   7.195  1.0497  0.7740 -0.7878
 1354TIP3    H225622   0.202   3.670   7.297  1.0179  0.1132 -0.2472
 1355TIP3   OH225623   2.823   2.936   1.500 -0.0158 -0.1409  0.1230
 1355TIP3    H125624   2.783   2.881   1.567  1.7133 -1.6245  0.0398
 1355TIP3    H225625   2.807   2.889   1.418 -0.0076  0.3940 -0.1901
 1356TIP3   OH225626   4.793   3.666   7.873  0.3431  0.1361  1.4124
 1356TIP3    H125627   4.764   3.650   7.963 -0.2189  0.9402  1.3896
 1356TIP3    H225628   4.829   3.755   7.875 -1.4669  0.9378  0.4550
 1357TIP3   OH225629   3.077   1.144   7.209 -0.2090 -0.4421  0.3255
 1357TIP3    H125630   3.127   1.207   7.261  0.4692  0.9244 -1.8286
 1357TIP3    H225631   2.991   1.142   7.251 -0.3866  2.2772  0.2977
 1358TIP3   OH225632   5.626   4.966   8.138 -0.2276  0.2411  0.2492
 1358TIP3    H125633   5.645   5.023   8.063  3.0503  1.1318  1.6234
 1358TIP3    H225634   5.677   4.887   8.121 -1.8449 -0.8328  0.1667
 1359TIP3   OH225635   0.183   6.424   7.470 -0.1420  0.5909  0.1423
 1359TIP3    H125636   0.131   6.345   7.482 -0.8410  1.2224  1.4904
 1359TIP3    H225637   0.124   6.486   7.428  0.2692  0.5491 -0.5085
 1360TIP3   OH225638   2.333   2.170   7.084 -0.4221 -0.0414 -0.4950
 1360TIP3    H125639   2.343   2.121   7.166 -1.7042  1.3672  0.5856
 1360TIP3    H225640   2.421   2.200   7.062 -0.1044 -0.1530  0.5828
 1361TIP3   OH225641   3.664   5.260   0.409  0.6271  0.4220  0.1610
 1361TIP3    H125642   3.606   5.304   0.346 -2.2556 -3.2442 -0.0993
 1361TIP3    H225643   3.619   5.270   0.493 -0.8999 -2.8348 -0.1126
 1362TIP3   OH225644   3.753   5.094   1.272  0.0861 -0.0330  0.1446
 1362TIP3    H125645   3.723   5.024   1.332  0.4434  1.0312  1.6272
 1362TIP3    H225646   3.687   5.095   1.203  0.6698 -2.6006 -0.5779
 1363TIP3   OH225647   5.049   0.873   1.329  0.0140  0.1928 -0.3410
 1363TIP3    H125648   5.049   0.956   1.378 -0.0381  0.0868 -0.1597
 1363TIP3    H225649   4.963   0.869   1.288 -1.7666 -1.7666  3.0839
 1364TIP3   OH225650   1.837   6.882   0.814  0.0154 -0.5142  0.3228
 1364TIP3    H125651   1.834   6.970   0.777  0.4391 -0.8579 -0.5851
 1364TIP3    H225652   1.747   6.851   0.810 -0.5909  0.6927  2.8112
 1365TIP3   OH225653   0.086   6.784   0.746 -0.2390  0.8296 -0.4745
 1365TIP3    H125654   0.059   6.859   0.694 -0.2687  2.1725  1.3651
 1365TIP3    H225655   0.182   6.791   0.751 -0.2692  0.9548 -0.0127
 1366TIP3   OH225656   1.029   5.482   0.349 -0.1209 -0.5167  0.0388
 1366TIP3    H125657   1.091   5.481   0.276 -0.0852 -0.6136  0.0700
 1366TIP3    H225658   1.031   5.393   0.384 -1.4767 -0.9751 -0.9619
 1367TIP3   OH225659   3.837   5.625   0.994  0.4806  0.2820 -0.0846
 1367TIP3    H125660   3.769   5.677   0.952  0.2429  0.1062  0.0798
 1367TIP3    H225661   3.851   5.668   1.079 -0.8298 -0.8056  0.7298
 1368TIP3   OH225662   2.598   6.661   1.631  0.5426  0.4322 -0.1823
 1368TIP3    H125663   2.639   6.625   1.552  0.1693  0.2742 -0.3096
 1368TIP3    H225664   2.509   6.626   1.629  0.6117  0.2139  0.4565
 1369TIP3   OH225665   4.999   1.942   0.748 -0.0276  0.1985  0.0286
 1369TIP3    H125666   5.001   1.900   0.834 -1.0281  1.6410  0.7955
 1369TIP3    H225667   4.906   1.958   0.731  0.2867  1.9729 -0.2538
 1370TIP3   OH225668   0.051   4.992   6.782 -0.1671 -0.3327  0.2853
 1370TIP3    H125669  -0.011   5.022   6.715  2.0050 -0.1436 -1.8026
 1370TIP3    H225670   0.074   4.903   6.755 -0.0271 -0.6436  1.4040
 1371TIP3   OH225671   4.453   3.756   0.926  0.0734  0.4513  0.3389
 1371TIP3    H125672   4.501   3.831   0.890  1.6548 -0.6310  0.1049
 1371TIP3    H225673   4.500   3.734   1.007 -0.5728 -0.0931  0.5759
 1372TIP3   OH225674   6.263   5.177   1.754  0.3498  0.3381  0.5820
 1372TIP3    H125675   6.338   5.145   1.803  0.5906 -0.7486 -0.4564
 1372TIP3    H225676   6.298   5.245   1.697  0.5352 -0.1312  0.1365
 1373TIP3   OH225677   3.484   3.675   6.977 -0.1884  0.2831  0.3134
 1373TIP3    H125678   3.535   3.649   6.901 -0.3181  0.5001  0.1512
 1373TIP3    H225679   3.545   3.725   7.032 -0.1184  0.1981  0.3124
 1374TIP3   OH225680   4.503   6.025   0.763  0.2096  0.3964 -0.3146
 1374TIP3    H125681   4.487   5.949   0.706  1.4106 -0.0052 -0.1298
 1374TIP3    H225682   4.580   6.067   0.726  0.1456  0.9592  0.1804
 1375TIP3   OH225683   6.146   3.666   1.853  0.5255 -0.7133 -0.2914
 1375TIP3    H125684   6.155   3.602   1.782  1.0771 -0.6980 -0.2386
 1375TIP3    H225685   6.217   3.644   1.913  0.6053 -0.1591 -0.1864
 1376TIP3   OH225686   5.166   2.485   2.587 -0.1838 -0.1882 -0.1329
 1376TIP3    H125687   5.141   2.562   2.638 -0.2739  0.8346 -1.6848
 1376TIP3    H225688   5.100   2.478   2.519  0.0652 -1.4023 -0.2760
 1377TIP3   OH225689   1.256   0.309   0.856 -0.8192  0.0178 -0.1232
 1377TIP3    H125690   1.332   0.325   0.913 -1.0142 -0.4140  0.2584
 1377TIP3    H225691   1.181   0.306   0.915 -1.3273  1.7352 -0.6227
 1378TIP3   OH225692   3.500   0.730   7.476 -0.3726 -0.4382  0.0977
 1378TIP3    H125693   3.438   0.727   7.549  0.4775 -0.8744  0.8308
 1378TIP3    H225694   3.586   0.727   7.518  0.2580  2.3879 -0.7563
 1379TIP3   OH225695   3.005   2.008   1.324 -0.5819  0.0487  0.4329
 1379TIP3    H125696   2.990   1.998   1.419 -2.6004  0.0635  0.1564
 1379TIP3    H225697   3.040   2.096   1.314 -3.4784  1.3786  0.9385
 1380TIP3   OH225698   3.611   0.406   0.357 -0.0015  0.1466  0.4583
 1380TIP3    H125699   3.569   0.490   0.373 -1.0805 -0.3080  0.0839
 1380TIP3    H225700   3.586   0.351   0.431  1.3062  0.3448  1.0901
 1381TIP3   OH225701   4.328   0.281   7.214  0.1646 -0.3506  0.6408
 1381TIP3    H125702   4.268   0.212   7.241  0.6777 -0.7986  0.6710
 1381TIP3    H225703   4.402   0.234   7.175  0.1153  0.2260 -0.1597
 1382TIP3   OH225704   6.448   6.774   1.294 -0.6266  0.2952  0.2456
 1382TIP3    H125705   6.490   6.857   1.273  0.4270  0.5483  2.9515
 1382TIP3    H225706   6.355   6.796   1.303 -0.5536  0.8806 -0.3649
 1383TIP3   OH225707   5.021   4.377   8.161 -0.3746  0.4204 -0.6403
 1383TIP3    H125708   5.030   4.310   8.229  1.8310  1.7280  0.4681
 1383TIP3    H225709   4.990   4.329   8.084 -0.4698 -1.5544  0.5672
 1384TIP3   OH225710   4.827   4.329   2.117  0.3284  0.6915  0.1443
 1384TIP3    H125711   4.892   4.334   2.187  0.0145 -0.3653  0.5290
 1384TIP3    H225712   4.878   4.339   2.036  0.6949  1.8802  0.4963
 1385TIP3   OH225713   4.190   0.498   7.585 -0.1526 -0.0451 -0.0738
 1385TIP3    H125714   4.191   0.586   7.548 -1.9924 -0.1208 -0.3739
 1385TIP3    H225715   4.135   0.506   7.663  0.4514 -0.7348  0.4287
 1386TIP3   OH225716   5.697   0.550   7.988  0.6567 -0.1666 -0.1437
 1386TIP3    H125717   5.621   0.494   7.979 -0.1257  1.0702 -1.5975
 1386TIP3    H225718   5.703   0.567   8.082 -1.9173  1.0799 -0.1264
 1387TIP3   OH225719   5.921   5.327   6.746 -0.1775  0.1017  0.1191
 1387TIP3    H125720   6.002   5.277   6.754  1.6764  2.8595 -0.0511
 1387TIP3    H225721   5.921   5.357   6.655 -2.1247 -0.9225 -0.2675
 1388TIP3   OH225722   0.961   4.211   1.616  0.4460 -0.3081 -0.9229
 1388TIP3    H125723   0.947   4.129   1.568 -0.2467  0.0632 -1.3812
 1388TIP3    H225724   0.991   4.184   1.702  1.8183 -1.0024 -1.5758
 1389TIP3   OH225725   0.543   6.473   8.144 -0.2489  0.3796  0.2519
 1389TIP3    H125726   0.578   6.384   8.140 -2.0330 -0.3874  0.8389
 1389TIP3    H225727   0.468   6.472   8.086 -0.4088  1.4554  0.4246
 1390TIP3   OH225728   2.240   6.038   0.258 -0.3421  0.3266  0.0973
 1390TIP3    H125729   2.160   6.052   0.308  1.2067  0.0834  2.8644
 1390TIP3    H225730   2.254   5.943   0.261 -0.5239  0.2200 -1.4279
 1391TIP3   OH225731   6.761   5.318   1.986  0.3748 -0.0152  0.1369
 1391TIP3    H125732   6.785   5.374   2.060 -0.1080  0.3166  0.0412
 1391TIP3    H225733   6.779   5.229   2.018  0.6073  0.1517  0.4881
 1392TIP3   OH225734   1.222   6.762   8.116  0.0585 -0.6722  0.0914
 1392TIP3    H125735   1.193   6.753   8.207  0.3934  0.3083  0.3157
 1392TIP3    H225736   1.290   6.695   8.106 -1.8273 -2.6342 -0.2862
 1393TIP3   OH225737   0.635   6.917   2.002  0.2544 -0.5318  0.2665
 1393TIP3    H125738   0.665   6.936   2.091  0.4553 -3.3252  0.8876
 1393TIP3    H225739   0.539   6.914   2.009  0.2038  0.3768  0.1000
 1394TIP3   OH225740   3.619   3.632   6.751  0.2575 -0.4876  0.1676
 1394TIP3    H125741   3.551   3.615   6.686  0.3590 -1.0834  0.2171
 1394TIP3    H225742   3.692   3.576   6.726  0.1443 -1.0464  1.0360
 1395TIP3   OH225743   0.322   5.509   7.974 -0.0367 -0.0598 -0.0730
 1395TIP3    H125744   0.296   5.569   8.044 -1.7070  0.4080 -1.0419
 1395TIP3    H225745   0.392   5.555   7.928 -0.3237  0.5190  0.0608
 1396TIP3   OH225746   0.838   5.956   7.957 -0.0314 -0.0084  0.0688
 1396TIP3    H125747   0.924   5.991   7.979 -0.7208  1.1608  0.9629
 1396TIP3    H225748   0.789   6.031   7.923 -1.0890 -0.3929  0.7026
 1397TIP3   OH225749   5.514   2.777   8.054 -0.2714 -1.0288  0.1848
 1397TIP3    H125750   5.433   2.792   8.005 -0.0410 -0.5914 -0.0803
 1397TIP3    H225751   5.486   2.735   8.135 -0.9266  0.3572  0.7243
 1398TIP3   OH225752   0.017   4.563   6.811  0.5792  0.0425 -0.0298
 1398TIP3    H125753   0.083   4.539   6.746 -0.0280  1.4446 -1.2237
 1398TIP3    H225754  -0.067   4.542   6.769  0.2043 -0.1785  0.8005
 1399TIP3   OH225755   3.625   6.804   1.215  0.4771 -0.1413 -0.8187
 1399TIP3    H125756   3.554   6.812   1.151 -1.0627 -3.6901  0.2390
 1399TIP3    H225757   3.695   6.758   1.168 -0.1291 -1.5390 -0.4013
 1400TIP3   OH225758   5.707   4.418   7.377 -0.2696  0.5297  0.4648
 1400TIP3    H125759   5.745   4.342   7.421  1.3935 -0.0901 -1.8309
 1400TIP3    H225760   5.691   4.482   7.447  1.1593 -0.7932  2.0733
 1401TIP3   OH225761   2.546   1.621   7.426 -0.8219 -0.1617 -0.1236
 1401TIP3    H125762   2.576   1.664   7.346  0.1283 -1.8735 -0.7237
 1401TIP3    H225763   2.567   1.683   7.496 -1.8693  1.4668 -1.1790
 1402TIP3   OH225764   4.147   5.458   2.936 -0.2910 -0.3558 -0.1955
 1402TIP3    H125765   4.096   5.440   3.015  0.7124  2.7543  1.3044
 1402TIP3    H225766   4.086   5.502   2.877 -0.4008 -0.4890 -0.1839
 1403TIP3   OH225767   0.314   6.294   0.442 -0.2501 -0.1748  0.4564
 1403TIP3    H125768   0.278   6.295   0.531 -0.4990 -1.4759  0.3909
 1403TIP3    H225769   0.346   6.204   0.431  1.1380  0.3775 -0.2384
 1404TIP3   OH225770   2.187   2.041   7.423 -0.6387  0.3530  0.2888
 1404TIP3    H125771   2.272   2.061   7.384 -1.1747 -0.3861 -1.3936
 1404TIP3    H225772   2.203   2.039   7.517  1.3746 -0.5680 -0.0249
 1405TIP3   OH225773   4.902   6.943   0.913 -0.2534 -0.2417  0.3714
 1405TIP3    H125774   4.894   7.033   0.880  1.9969 -0.0757  0.1371
 1405TIP3    H225775   4.923   6.890   0.836  0.5876 -0.5836  0.8181
 1406TIP3   OH225776   3.903   2.593   6.549  0.3766  0.3840 -0.3525
 1406TIP3    H125777   3.910   2.685   6.575  0.3736  0.6016 -1.1054
 1406TIP3    H225778   3.975   2.580   6.488 -0.3519  0.2246 -1.1998
 1407TIP3   OH225779   5.019   5.576   2.271  0.5071  0.0239  0.3488
 1407TIP3    H125780   4.996   5.577   2.177  1.1188  0.3832  0.1970
 1407TIP3    H225781   5.063   5.492   2.284  1.2364  0.3643  0.1084
 1408TIP3   OH225782   2.372   1.555   7.828  0.2030  0.1669 -0.1336
 1408TIP3    H125783   2.348   1.596   7.745 -0.4213  0.0635 -0.0102
 1408TIP3    H225784   2.288   1.533   7.869  0.4967  0.6003  0.7188
 1409TIP3   OH225785   0.566   1.293   1.368 -0.4616 -0.5797  0.4046
 1409TIP3    H125786   0.534   1.244   1.444 -1.1082 -1.1391 -0.2068
 1409TIP3    H225787   0.489   1.342   1.338 -0.0372  0.1561  0.4993
 1410TIP3   OH225788   4.240   2.206   8.036 -0.2235 -0.1802  0.2584
 1410TIP3    H125789   4.331   2.177   8.028 -0.4365 -0.7425 -0.2809
 1410TIP3    H225790   4.226   2.262   7.960 -0.5259 -0.6592 -0.0427
 1411TIP3   OH225791   1.711   0.351   1.926  0.2206  0.4226  1.1113
 1411TIP3    H125792   1.630   0.315   1.889 -0.3110  1.6063  1.0701
 1411TIP3    H225793   1.681   0.416   1.990  1.1362  0.9199  1.0472
 1412TIP3   OH225794   2.289   0.265   6.902  0.2594  0.0865  0.1131
 1412TIP3    H125795   2.246   0.298   6.823  0.0570  0.9375  0.5673
 1412TIP3    H225796   2.341   0.191   6.872  0.8934  0.9511 -0.9822
 1413TIP3   OH225797   1.846   5.589   7.931 -0.3473  0.1175  0.2966
 1413TIP3    H125798   1.793   5.511   7.943 -0.0205  0.2224  3.2027
 1413TIP3    H225799   1.936   5.558   7.933 -0.0569 -0.0350 -4.4277
 1414TIP3   OH225800   2.777   2.392   0.282  0.3311 -0.1866 -0.4596
 1414TIP3    H125801   2.772   2.316   0.341  0.4142 -0.9688 -1.4343
 1414TIP3    H225802   2.704   2.380   0.222 -0.5766  1.3200  0.2847
 1415TIP3   OH225803   4.555   5.657   0.171  0.3915 -0.5017 -0.3651
 1415TIP3    H125804   4.619   5.700   0.228  0.7204 -2.4106  0.7983
 1415TIP3    H225805   4.471   5.671   0.214 -0.0944  2.0303 -1.9082
 1416TIP3   OH225806   4.772   6.639   1.277 -0.2477 -0.2222 -0.1916
 1416TIP3    H125807   4.842   6.592   1.322  0.2597  0.7250  0.0346
 1416TIP3    H225808   4.750   6.585   1.201  1.6537  0.0934 -1.0149
 1417TIP3   OH225809   4.106   0.689   0.952  0.0518  0.3797 -0.1716
 1417TIP3    H125810   4.082   0.777   0.982  0.0357  0.4384 -0.3574
 1417TIP3    H225811   4.085   0.632   1.026  0.4948  0.5908  0.1251
 1418TIP3   OH225812   5.246   4.304   7.860  0.0362 -0.2103 -0.0748
 1418TIP3    H125813   5.266   4.210   7.864  1.6784  0.0658 -0.8621
 1418TIP3    H225814   5.315   4.345   7.912  1.6976  0.7840 -2.8245
 1419TIP3   OH225815   2.462   0.713   7.890  0.4669  0.6373 -0.4123
 1419TIP3    H125816   2.378   0.717   7.846  1.5548 -0.7801 -2.8337
 1419TIP3    H225817   2.455   0.638   7.949 -0.3947  1.4170  0.5145
 1420TIP3   OH225818   0.303   5.482   7.293  0.3296  0.0024  0.3555
 1420TIP3    H125819   0.398   5.481   7.284  0.4352  1.1238  1.1045
 1420TIP3    H225820   0.273   5.402   7.250  1.4308  0.7716 -1.9838
 1421TIP3   OH225821   4.817   2.873   7.952 -0.4362 -0.2821  0.1125
 1421TIP3    H125822   4.767   2.852   7.873  1.9279 -1.1304 -1.2398
 1421TIP3    H225823   4.908   2.858   7.928  0.4641  0.5784  2.6716
 1422TIP3   OH225824   0.773   0.155   6.868 -0.7311  0.4391 -0.0257
 1422TIP3    H125825   0.863   0.123   6.867 -1.0879 -0.6509  0.3449
 1422TIP3    H225826   0.780   0.249   6.856  0.5700  0.6262  1.8066
 1423TIP3   OH225827   0.975   5.428   0.672 -0.5426 -0.6315  0.4525
 1423TIP3    H125828   0.916   5.354   0.657  0.1847 -1.1648  0.1537
 1423TIP3    H225829   0.919   5.497   0.709 -1.4839 -0.8864 -0.4472
 1424TIP3   OH225830   2.631   6.663   7.296  0.0267  0.1636  0.3645
 1424TIP3    H125831   2.559   6.657   7.232  0.2220 -0.3123  0.1869
 1424TIP3    H225832   2.669   6.749   7.280 -0.3465  0.3164  0.2880
 1425TIP3   OH225833   2.692   5.351   7.560 -0.7055 -0.5063  0.1197
 1425TIP3    H125834   2.705   5.439   7.524  1.2791 -0.9774 -0.3996
 1425TIP3    H225835   2.699   5.363   7.655  1.1327 -0.2985 -0.0084
 1426TIP3   OH225836   0.710   1.177   7.437  0.0101 -0.5032 -0.1550
 1426TIP3    H125837   0.712   1.092   7.394  1.6979 -0.5463 -0.0868
 1426TIP3    H225838   0.802   1.195   7.456 -0.5357  0.1415  2.1858
 1427TIP3   OH225839   1.404   1.039   7.391 -1.0928 -0.4128 -0.0686
 1427TIP3    H125840   1.454   0.977   7.444  0.8120  0.0541 -1.2203
 1427TIP3    H225841   1.406   1.121   7.442 -1.6619 -0.6843  0.4002
 1428TIP3   OH225842   1.470   1.362   0.999 -0.0644 -0.3785  0.2614
 1428TIP3    H125843   1.392   1.411   1.027 -0.0945 -0.7060  0.7687
 1428TIP3    H225844   1.456   1.274   1.033  0.9851 -0.1967  1.2470
 1429TIP3   OH225845   1.886   2.907   1.531 -0.0116  0.4871  0.2097
 1429TIP3    H125846   1.980   2.902   1.516  0.0336  0.0478  0.6072
 1429TIP3    H225847   1.875   2.970   1.602  0.0699 -0.2303  0.8725
 1430TIP3   OH225848   2.719   0.539   8.192  0.5218  0.4345 -0.4203
 1430TIP3    H125849   2.683   0.495   8.115  1.2616 -0.3439 -0.3271
 1430TIP3    H225850   2.789   0.594   8.158 -0.9151  2.2419 -0.6511
 1431TIP3   OH225851   6.008   2.694   0.305  0.3618  0.1042  0.0708
 1431TIP3    H125852   6.029   2.636   0.378  2.7671  0.2917 -0.4194
 1431TIP3    H225853   5.920   2.727   0.326  0.5470 -0.6740  2.3166
 1432TIP3   OH225854   1.750   0.769   1.052  0.1100  0.0144 -0.0882
 1432TIP3    H125855   1.767   0.768   1.147  0.2580  2.8898  0.0036
 1432TIP3    H225856   1.693   0.694   1.037 -0.8084  0.0973  2.4768
 1433TIP3   OH225857   0.726   1.692   1.916  0.3330 -0.7408 -0.6495
 1433TIP3    H125858   0.738   1.597   1.918  2.9500 -0.5036  1.8574
 1433TIP3    H225859   0.812   1.727   1.937 -0.8490  2.1616 -0.1709
 1434TIP3   OH225860   1.943   0.717   7.765  0.0961 -0.6211  0.1680
 1434TIP3    H125861   1.900   0.648   7.817  0.6479 -1.1847 -0.1053
 1434TIP3    H225862   1.901   0.712   7.679 -1.2820  0.7568  0.7286
 1435TIP3   OH225863   1.778   1.994   6.252  0.0786 -0.0691  0.2603
 1435TIP3    H125864   1.823   2.011   6.170 -0.1098 -1.5225 -0.1805
 1435TIP3    H225865   1.709   2.060   6.256  2.2231  2.3197  1.0331
 1436TIP3   OH225866   1.488   3.103   0.385 -0.4542 -0.4429 -0.0448
 1436TIP3    H125867   1.434   3.154   0.446 -1.2411 -1.5206  0.2028
 1436TIP3    H225868   1.498   3.018   0.427 -1.6219 -1.4693 -1.6930
 1437TIP3   OH225869   2.749   0.695   7.653  0.2111 -0.0351  0.3681
 1437TIP3    H125870   2.747   0.600   7.668 -1.3277 -0.1866 -0.6561
 1437TIP3    H225871   2.834   0.722   7.689 -0.6237 -1.2676  3.6625
 1438TIP3   OH225872   4.124   0.227   0.974 -0.1003 -0.3291  0.0993
 1438TIP3    H125873   4.126   0.205   0.881 -1.4743 -1.7245  0.3650
 1438TIP3    H225874   4.114   0.143   1.018 -0.4090  0.3973  1.4652
 1439TIP3   OH225875   3.751   6.676   7.123  0.0341 -0.3747  0.0564
 1439TIP3    H125876   3.824   6.737   7.123 -0.3591  0.0973  0.1146
 1439TIP3    H225877   3.765   6.621   7.200  0.2139 -0.1591  0.1767
 1440TIP3   OH225878   2.055   2.710   6.774 -0.0622 -0.1947  0.4785
 1440TIP3    H125879   2.102   2.637   6.815 -0.7362  0.2229  2.0911
 1440TIP3    H225880   2.111   2.737   6.702 -0.0660 -2.6374 -0.5271
 1441TIP3   OH225881   0.626   6.230   7.196  0.5159  0.5593 -0.6451
 1441TIP3    H125882   0.570   6.302   7.225  0.7528  0.1998  0.7586
 1441TIP3    H225883   0.616   6.229   7.100 -2.5222  0.0311 -0.4323
 1442TIP3   OH225884   2.054   0.027   0.156 -0.5536 -0.2397 -0.5912
 1442TIP3    H125885   2.043  -0.014   0.242 -1.3468  1.4617  0.1456
 1442TIP3    H225886   2.071  -0.047   0.097 -0.4128 -1.4787  0.9321
 1443TIP3   OH225887   2.154   2.962   7.880  0.7076 -0.0062  0.9568
 1443TIP3    H125888   2.172   2.870   7.902 -0.0907 -0.4051  0.0244
 1443TIP3    H225889   2.240   3.002   7.871  1.0651 -0.6621  1.3985
 1444TIP3   OH225890   2.867   1.607   0.632 -0.6376  0.0195 -0.5331
 1444TIP3    H125891   2.852   1.642   0.719  0.2197  2.1080 -1.1781
 1444TIP3    H225892   2.944   1.551   0.641 -1.4372 -0.9842  0.3109
 1445TIP3   OH225893   3.627   1.471   1.649 -0.2270  0.2601 -0.1865
 1445TIP3    H125894   3.567   1.396   1.648 -1.1917  0.9728  1.0066
 1445TIP3    H225895   3.618   1.507   1.737  1.2299  0.9902 -0.3182
 1446TIP3   OH225896   1.297   4.478   0.342 -0.0089 -0.2507  0.2435
 1446TIP3    H125897   1.248   4.409   0.388 -1.0087  0.4060  0.1896
 1446TIP3    H225898   1.241   4.503   0.269  1.2594 -0.7848 -0.9617
 1447TIP3   OH225899   1.940   0.630   6.697  0.3973 -0.1662  0.0184
 1447TIP3    H125900   1.883   0.554   6.693  0.2248 -0.1112  1.0307
 1447TIP3    H225901   2.018   0.606   6.647  0.9308 -1.5275  1.4213
 1448TIP3   OH225902   5.344   5.615   1.814  0.5577  0.1117  0.1194
 1448TIP3    H125903   5.390   5.647   1.892  1.0826 -3.1022  1.2946
 1448TIP3    H225904   5.263   5.577   1.848  1.0792 -1.9056 -0.7235
 1449TIP3   OH225905   4.530   4.456   8.290 -0.0251  0.1773 -0.3210
 1449TIP3    H125906   4.581   4.381   8.319  0.9343  0.7132 -0.5855
 1449TIP3    H225907   4.443   4.420   8.271 -0.3557 -0.4012  2.0023
 1450TIP3   OH225908   3.330   1.747   0.047 -0.2753 -0.0214 -0.4735
 1450TIP3    H125909   3.402   1.684   0.042  0.5753  0.7138  1.3754
 1450TIP3    H225910   3.283   1.737  -0.036  0.7921 -1.9055 -0.9066
 1451TIP3   OH225911   1.558   3.019   0.790 -0.3099 -0.2724 -0.3205
 1451TIP3    H125912   1.549   2.957   0.862  2.5607 -1.9563 -1.2135
 1451TIP3    H225913   1.547   2.965   0.711 -2.0346  1.2606 -1.1984
 1452TIP3   OH225914   1.835   4.063   1.254 -0.0768 -0.3658  0.5280
 1452TIP3    H125915   1.741   4.071   1.263 -0.2077 -0.0149 -0.9373
 1452TIP3    H225916   1.853   3.970   1.266 -0.8478 -0.7316 -0.9584
 1453TIP3   OH225917   3.361   2.804   1.289  0.0720 -0.3635  0.2264
 1453TIP3    H125918   3.285   2.806   1.347 -0.7136  0.7367 -0.7788
 1453TIP3    H225919   3.425   2.750   1.334 -0.9163 -0.4309  1.5960
 1454TIP3   OH225920   4.346   0.967   1.529  0.1818  0.1844  0.7048
 1454TIP3    H125921   4.333   0.994   1.619  1.5769 -0.1016  1.0220
 1454TIP3    H225922   4.379   0.877   1.534 -1.7422 -0.6196 -0.2071
 1455TIP3   OH225923   3.466   3.219   6.869 -0.2006  0.2860 -0.0596
 1455TIP3    H125924   3.416   3.300   6.857  1.2302  1.4697  1.4766
 1455TIP3    H225925   3.499   3.224   6.959  2.5296 -0.4727 -0.9241
 1456TIP3   OH225926   5.726   4.073   1.887  0.2152  0.0478  0.3716
 1456TIP3    H125927   5.689   4.082   1.799 -1.2352 -0.5483  0.8830
 1456TIP3    H225928   5.682   3.996   1.924  0.3338  0.6371  1.8266
 1457TIP3   OH225929   2.147   5.750   0.792  0.3342 -0.2763 -0.4346
 1457TIP3    H125930   2.236   5.763   0.759  0.5393 -2.6377 -0.9680
 1457TIP3    H225931   2.126   5.832   0.838  1.8459  1.2549 -2.3250
 1458TIP3   OH225932   0.864   4.536   1.117 -0.3339 -0.0124 -0.3386
 1458TIP3    H125933   0.940   4.593   1.127  0.2918 -0.7709 -0.7433
 1458TIP3    H225934   0.879   4.490   1.035 -0.9867 -0.5391 -0.1690
 1459TIP3   OH225935   0.254   0.696   0.281  0.0556 -0.0134  0.3303
 1459TIP3    H125936   0.246   0.614   0.231  0.8106 -0.0651  0.2856
 1459TIP3    H225937   0.267   0.667   0.371  1.3106  0.0274  0.1782
 1460TIP3   OH225938   0.242   4.162   7.504  0.1161  0.0075  0.5002
 1460TIP3    H125939   0.166   4.107   7.523 -0.7650  0.7120 -0.7721
 1460TIP3    H225940   0.208   4.252   7.512  1.0779  0.3464  0.8818
 1461TIP3   OH225941   3.658   4.125   2.280 -0.9945 -0.1674 -0.0647
 1461TIP3    H125942   3.614   4.120   2.195  1.0214  1.0232 -1.2671
 1461TIP3    H225943   3.656   4.035   2.313 -2.7255 -0.4666 -0.8373
 1462TIP3   OH225944   5.299   2.972   0.200  0.3567 -0.6345 -0.1616
 1462TIP3    H125945   5.378   2.918   0.191  0.3315 -1.1822  2.2271
 1462TIP3    H225946   5.331   3.053   0.242 -0.3142 -0.7903  0.6647
 1463TIP3   OH225947   6.643   4.491   6.957  0.4279 -0.3066 -0.3067
 1463TIP3    H125948   6.683   4.574   6.982  0.6181 -0.1517 -1.0805
 1463TIP3    H225949   6.549   4.507   6.960  0.4437 -0.3147  0.3492
 1464TIP3   OH225950   0.332   1.443   7.281 -0.3815  0.1584 -0.0972
 1464TIP3    H125951   0.418   1.477   7.256  0.1294 -1.1998 -0.2343
 1464TIP3    H225952   0.348   1.391   7.360 -0.7966 -1.3695 -0.9874
 1465TIP3   OH225953   2.186   3.783   0.190  0.3241  0.3249  0.2811
 1465TIP3    H125954   2.245   3.830   0.249  1.1910  0.7844 -0.8952
 1465TIP3    H225955   2.241   3.715   0.151 -0.5969 -0.8778  1.0240
 1466TIP3   OH225956   0.122   4.127   1.852 -0.1331 -0.0380  0.1588
 1466TIP3    H125957   0.141   4.202   1.796  1.4900 -0.3620  0.2097
 1466TIP3    H225958   0.068   4.163   1.923 -0.3515  0.8350 -0.4342
 1467TIP3   OH225959   2.217   4.847   0.444  0.0656  0.3530  0.0591
 1467TIP3    H125960   2.144   4.844   0.382  0.2053 -2.2246 -0.0877
 1467TIP3    H225961   2.260   4.762   0.434  2.7352  1.5442  0.6022
 1468TIP3   OH225962   4.880   6.460   1.739  0.0103 -0.2851  0.2953
 1468TIP3    H125963   4.920   6.546   1.748  0.6023 -0.6119  0.9007
 1468TIP3    H225964   4.945   6.400   1.776 -1.0936 -0.8113  1.4260
 1469TIP3   OH225965   2.872   6.401   1.108  0.5593  0.3811  0.1261
 1469TIP3    H125966   2.931   6.396   1.034  2.0075  0.0626  1.2537
 1469TIP3    H225967   2.914   6.349   1.177  0.3818  2.4193  1.8974
 1470TIP3   OH225968   4.856   6.440   0.178  0.0334  0.3230 -0.0938
 1470TIP3    H125969   4.856   6.414   0.270  1.2703  0.2062 -0.1055
 1470TIP3    H225970   4.875   6.359   0.131  1.1491  0.7041 -0.3191
 1471TIP3   OH225971   1.433   3.013   7.379 -0.3517  0.0170 -0.3179
 1471TIP3    H125972   1.339   3.006   7.398 -0.7398 -1.7016 -2.3799
 1471TIP3    H225973   1.450   3.107   7.377 -1.5159  0.3669  2.0932
 1472TIP3   OH225974   4.544   1.662   7.959  0.8270  0.1844  0.3611
 1472TIP3    H125975   4.477   1.662   8.028  1.1681  1.6308  0.7244
 1472TIP3    H225976   4.494   1.661   7.877  0.2832  2.3143  0.6073
 1473TIP3   OH225977   4.018   5.472   6.894  0.4343 -0.5335  0.3584
 1473TIP3    H125978   3.935   5.455   6.848 -0.4280  1.0009  1.2406
 1473TIP3    H225979   4.016   5.566   6.913  2.6758 -0.3412 -0.1021
 1474TIP3   OH225980   0.862   0.017   7.918  0.1937  0.4720 -0.3987
 1474TIP3    H125981   0.944   0.045   7.877  1.3922  0.2882  1.7125
 1474TIP3    H225982   0.887  -0.005   8.008 -1.3221 -3.6962 -0.7649
 1475TIP3   OH225983   2.792   3.515   7.069  0.1255 -0.1463  0.2998
 1475TIP3    H125984   2.876   3.552   7.043 -0.2440  0.8209  0.4428
 1475TIP3    H225985   2.804   3.490   7.161  0.6567 -1.2560 -0.0513
 1476TIP3   OH225986   1.904   5.588   6.590 -0.0058  0.1090 -0.0777
 1476TIP3    H125987   1.972   5.651   6.614 -0.0819  0.3226 -0.4203
 1476TIP3    H225988   1.829   5.611   6.645 -0.2601  0.7524 -0.6865
 1477TIP3   OH225989   5.036   2.723   6.711 -0.1926 -0.4128 -0.6845
 1477TIP3    H125990   4.962   2.696   6.657 -0.0069 -1.3476 -0.4926
 1477TIP3    H225991   5.102   2.656   6.695  0.4872  0.2295 -0.5927
 1478TIP3   OH225992   6.973   0.527   0.870  0.0160  0.0065  0.1839
 1478TIP3    H125993   6.953   0.535   0.963  0.0554  1.0414  0.1222
 1478TIP3    H225994   6.941   0.441   0.845 -1.1250  0.2191  0.8747
 1479TIP3   OH225995   1.605   4.900   0.333 -0.0073  0.2251  0.4251
 1479TIP3    H125996   1.693   4.937   0.331 -0.6363  1.7728 -0.2122
 1479TIP3    H225997   1.547   4.976   0.338 -1.3728 -0.6644 -0.9707
 1480TIP3   OH225998   2.617   5.615   7.061  0.3251 -0.0852  0.0852
 1480TIP3    H125999   2.577   5.622   6.974 -0.4258 -0.6510  0.3852
 1480TIP3    H226000   2.683   5.685   7.061 -0.0702  0.3134 -0.7194
 1481TIP3   OH226001   1.182   2.504   7.064  0.1657  0.1880  0.4684
 1481TIP3    H126002   1.116   2.563   7.029 -0.9366 -1.2585 -0.0231
 1481TIP3    H226003   1.135   2.452   7.130  0.6896 -1.1016 -0.1370
 1482TIP3   OH226004   5.050   2.716   2.321  0.0055  0.0905 -0.0250
 1482TIP3    H126005   4.962   2.706   2.285 -0.0329 -0.8007  0.3014
 1482TIP3    H226006   5.042   2.786   2.385 -0.3883  0.2504 -0.2468
 1483TIP3   OH226007   1.526   5.107   0.879 -0.5424  0.6126 -0.8008
 1483TIP3    H126008   1.469   5.033   0.897  0.3981 -0.8141 -3.2043
 1483TIP3    H226009   1.475   5.184   0.903 -1.0375 -0.7336  3.1838
 1484TIP3   OH226010   1.381   3.535   6.091 -0.4184  0.6469  0.3951
 1484TIP3    H126011   1.442   3.588   6.040 -0.6413 -0.1909 -0.7850
 1484TIP3    H226012   1.308   3.594   6.109 -0.7798  0.7166 -1.1221
 1485TIP3   OH226013   1.434   4.818   0.134 -0.1335 -0.0966 -0.0854
 1485TIP3    H126014   1.499   4.799   0.067  0.6132 -0.0797  0.6163
 1485TIP3    H226015   1.484   4.857   0.206 -1.1240  1.2684 -0.0891
 1486TIP3   OH226016   4.987   4.306   7.872  0.1844  0.2616 -0.0002
 1486TIP3    H126017   4.970   4.236   7.808  0.3921 -0.4959  0.7608
 1486TIP3    H226018   5.082   4.317   7.870  0.1191  0.8324 -0.4198
 1487TIP3   OH226019   3.611   5.666   7.072 -0.1300  0.0515  0.1822
 1487TIP3    H126020   3.624   5.680   6.979 -0.1414 -1.4617 -0.0690
 1487TIP3    H226021   3.523   5.628   7.079 -0.4524  0.8922  0.8905
 1488TIP3   OH226022   0.809   5.826   0.639  0.4451  0.1501 -0.3172
 1488TIP3    H126023   0.726   5.871   0.625 -0.9504 -2.0544  0.3457
 1488TIP3    H226024   0.827   5.783   0.555 -0.1513 -0.9903  0.1245
 1489TIP3   OH226025   2.370   3.344   8.270 -0.5273 -0.3207 -0.2478
 1489TIP3    H126026   2.426   3.396   8.213 -0.1280 -0.8753 -0.3759
 1489TIP3    H226027   2.331   3.278   8.212 -0.6245 -0.4842 -0.0002
 1490TIP3   OH226028   5.833   1.238   7.482 -0.0904  0.4161 -0.2497
 1490TIP3    H126029   5.831   1.294   7.405 -0.6391  1.3771  0.4372
 1490TIP3    H226030   5.768   1.276   7.542  0.6275 -0.0416  0.8664
 1491TIP3   OH226031   5.277   3.093   1.761  0.2347  0.1693 -0.1054
 1491TIP3    H126032   5.320   3.010   1.741  0.0805 -0.0646  0.4898
 1491TIP3    H226033   5.259   3.132   1.676 -0.1635 -0.6610 -0.4172
 1492TIP3   OH226034   5.375   3.045   7.537 -0.0596 -0.3272  0.2396
 1492TIP3    H126035   5.403   3.074   7.450  2.5336 -0.4425  0.9557
 1492TIP3    H226036   5.346   3.125   7.580  1.7896  0.3464  0.3323
 1493TIP3   OH226037   1.236   3.257   6.306  0.4099 -0.5519 -0.1425
 1493TIP3    H126038   1.255   3.185   6.246 -0.2246 -0.8430 -0.0042
 1493TIP3    H226039   1.288   3.331   6.273  1.3162 -1.1516 -0.1007
 1494TIP3   OH226040   4.104   5.350   1.871  0.4815 -0.1202 -0.5748
 1494TIP3    H126041   4.115   5.303   1.953  2.0759  2.1022  0.5962
 1494TIP3    H226042   4.189   5.346   1.828  0.1912  0.3301 -1.2228
 1495TIP3   OH226043   0.406   6.381   7.316 -0.0769 -0.0471  0.0425
 1495TIP3    H126044   0.468   6.429   7.371 -0.7570  0.2721  0.5550
 1495TIP3    H226045   0.327   6.375   7.369 -1.6634  2.5310 -1.8247
 1496TIP3   OH226046   0.066   4.226   1.488 -0.8269  0.1484 -0.1410
 1496TIP3    H126047  -0.030   4.231   1.489 -0.8660 -0.5432  0.3012
 1496TIP3    H226048   0.085   4.135   1.511 -0.0975 -0.1588 -1.8167
 1497TIP3   OH226049   3.596   6.126   1.469 -0.0215 -0.4807 -0.2203
 1497TIP3    H126050   3.629   6.185   1.537  0.5510  1.1794 -1.8414
 1497TIP3    H226051   3.626   6.039   1.496  2.3310  0.4422  0.4396
 1498TIP3   OH226052   2.151   1.057   0.931 -0.0758 -0.3359 -0.1932
 1498TIP3    H126053   2.179   1.041   1.021  1.4434  1.1125 -0.3516
 1498TIP3    H226054   2.082   1.122   0.938  0.2166 -0.0355 -0.0761
 1499TIP3   OH226055   1.472   3.904   8.073 -0.2727 -0.2501  0.2710
 1499TIP3    H126056   1.423   3.821   8.072 -3.1003  1.2706 -1.9834
 1499TIP3    H226057   1.411   3.967   8.111  1.7842  0.9225  1.8155
 1500TIP3   OH226058   0.842   5.950   7.003 -0.6083  0.1406 -0.4973
 1500TIP3    H126059   0.767   6.000   6.972 -0.5056  0.3494 -0.4126
 1500TIP3    H226060   0.889   6.011   7.061  0.1454  0.3329 -1.2931
 1501TIP3   OH226061   3.059   0.888   8.190 -0.2707 -0.3813 -0.1671
 1501TIP3    H126062   3.114   0.967   8.190 -1.7533  0.6952 -0.7602
 1501TIP3    H226063   3.028   0.881   8.280  1.2877 -1.3488  0.3207
 1502TIP3   OH226064   6.375   2.772   7.982  1.0588  0.6642 -0.3787
 1502TIP3    H126065   6.383   2.736   8.071  1.2763  0.0106 -0.6526
 1502TIP3    H226066   6.282   2.795   7.974  0.9911  0.5189 -0.0580
 1503TIP3   OH226067   2.228   3.306   1.085 -0.6075 -0.2736  0.1675
 1503TIP3    H126068   2.297   3.371   1.073 -1.0587  0.6221  1.9650
 1503TIP3    H226069   2.254   3.232   1.031 -0.3405  1.5847 -2.4096
 1504TIP3   OH226070   1.265   0.332   2.253 -0.8460 -0.1510 -0.1334
 1504TIP3    H126071   1.302   0.310   2.338 -1.6800 -1.3675 -0.0625
 1504TIP3    H226072   1.311   0.276   2.191 -0.1015  0.8715 -0.5302
 1505TIP3   OH226073   0.849   2.415   0.987  0.3804 -0.2284 -0.1474
 1505TIP3    H126074   0.929   2.467   0.977 -1.4042  2.7850 -0.1421
 1505TIP3    H226075   0.810   2.416   0.900 -0.7869  0.4784  0.3574
 1506TIP3   OH226076   4.064   6.929   2.718 -0.3399 -0.1585  0.7144
 1506TIP3    H126077   4.016   6.855   2.755 -0.3618 -1.1301 -1.1238
 1506TIP3    H226078   4.125   6.888   2.656  0.7716  1.2750  0.8150
 1507TIP3   OH226079   4.276   5.757   1.725  0.3058  0.5598  0.1119
 1507TIP3    H126080   4.221   5.791   1.655  0.3329 -0.1706 -0.2717
 1507TIP3    H226081   4.366   5.775   1.697  0.3601 -0.5717 -0.5088
 1508TIP3   OH226082   4.972   3.769   7.401 -0.5863 -0.3802  0.0921
 1508TIP3    H126083   4.905   3.801   7.340 -0.6971 -0.2934  0.2610
 1508TIP3    H226084   4.923   3.722   7.468 -0.5285  0.1679  0.5241
 1509TIP3   OH226085   5.709   3.788   7.558  0.0878 -0.1533 -0.0257
 1509TIP3    H126086   5.728   3.878   7.584 -0.2937 -0.0935  0.0593
 1509TIP3    H226087   5.701   3.741   7.641 -2.9459  0.4009  0.1439
 1510TIP3   OH226088   2.637   4.075   0.297 -0.1179  0.0559  0.2291
 1510TIP3    H126089   2.568   4.122   0.344  0.4582 -0.8169  2.0401
 1510TIP3    H226090   2.718   4.103   0.339  0.6520  0.7718 -1.6150
 1511TIP3   OH226091   1.349   1.733   0.801 -0.2035 -0.6194 -0.0222
 1511TIP3    H126092   1.272   1.680   0.779 -0.8251  0.2760 -0.0762
 1511TIP3    H226093   1.324   1.822   0.777  0.3223 -0.1040  1.2723
 1512TIP3   OH226094   3.143   6.121   2.838 -0.0662 -0.0022  1.0712
 1512TIP3    H126095   3.191   6.039   2.823 -1.2385 -0.8633  1.8776
 1512TIP3    H226096   3.090   6.133   2.759  0.0557 -0.0591  0.9814
 1513TIP3   OH226097   3.568   2.631   0.262 -0.4090  0.7251 -0.1805
 1513TIP3    H126098   3.508   2.705   0.255  0.0625  1.2308  0.8830
 1513TIP3    H226099   3.512   2.553   0.260 -1.0650  1.1752  0.4311
 1514TIP3   OH226100   3.814   6.474   0.665  0.1653  0.9604  0.1731
 1514TIP3    H126101   3.843   6.384   0.682  0.6704  0.8755 -1.0065
 1514TIP3    H226102   3.855   6.526   0.735  2.6190  0.7188 -0.9615
 1515TIP3   OH226103   5.207   2.283   0.240 -0.1307  0.4461 -0.5219
 1515TIP3    H126104   5.193   2.337   0.317  1.4082  0.9971 -0.5965
 1515TIP3    H226105   5.122   2.282   0.196 -0.4983  1.8551  0.0911
 1516TIP3   OH226106   0.476   0.052   6.557 -0.4866  0.5860 -0.3433
 1516TIP3    H126107   0.475   0.072   6.463 -1.7448 -1.0003 -0.6975
 1516TIP3    H226108   0.526   0.124   6.596 -0.3873  1.5529 -2.1588
 1517TIP3   OH226109   6.463   4.215   1.578  0.3174  0.3351 -0.0408
 1517TIP3    H126110   6.433   4.249   1.662  1.0113 -1.0413  0.7862
 1517TIP3    H226111   6.538   4.160   1.599 -0.3851 -1.2215 -1.3952
 1518TIP3   OH226112   4.702   2.424   2.115  0.1262  0.0827 -0.0025
 1518TIP3    H126113   4.691   2.456   2.204 -0.1472  0.3000 -0.1100
 1518TIP3    H226114   4.690   2.329   2.121  2.6644 -0.2804  0.6070
 1519TIP3   OH226115   2.257   0.525   1.433  0.1083  0.7183  0.3225
 1519TIP3    H126116   2.233   0.472   1.509 -0.7497  0.1150 -0.3472
 1519TIP3    H226117   2.176   0.534   1.383  0.5369  1.5539 -0.2631
 1520TIP3   OH226118   2.843   5.879   1.121 -0.3917 -0.3321 -0.2127
 1520TIP3    H126119   2.791   5.817   1.070 -0.2709 -1.7490  1.3029
 1520TIP3    H226120   2.930   5.875   1.083 -1.1262  1.5789 -2.3575
 1521TIP3   OH226121   6.626   2.697   0.837  0.1404  0.4769  0.1210
 1521TIP3    H126122   6.634   2.603   0.853 -1.5059  0.3532  0.3791
 1521TIP3    H226123   6.716   2.729   0.836  0.6669 -0.7988  1.9139
 1522TIP3   OH226124   2.289   0.486   1.973 -0.4236  0.4289  1.2153
 1522TIP3    H126125   2.373   0.456   2.006 -0.7480  1.6921  3.3832
 1522TIP3    H226126   2.246   0.525   2.049 -2.8857  0.0216  0.1223
 1523TIP3   OH226127   2.059   4.013   7.820  0.1302 -0.4583 -0.6455
 1523TIP3    H126128   2.133   4.015   7.759  0.4105 -1.0544 -0.3310
 1523TIP3    H226129   2.061   3.924   7.857  0.4387  0.1446  0.8275
 1524TIP3   OH226130   5.001   4.104   0.111  0.6183 -0.0184  0.3252
 1524TIP3    H126131   4.989   4.014   0.082 -0.1346  0.2719 -0.3097
 1524TIP3    H226132   4.912   4.140   0.116  0.8993  0.6590  0.6679
 1525TIP3   OH226133   3.576   6.256   0.865  0.0567 -0.6960 -0.2343
 1525TIP3    H126134   3.628   6.210   0.799  0.3085  0.0197 -0.5506
 1525TIP3    H226135   3.506   6.195   0.888 -0.5950 -0.6231 -1.8494
 1526TIP3   OH226136   0.174   0.415   1.152 -0.4588 -0.4039  0.4621
 1526TIP3    H126137   0.167   0.337   1.208 -0.4802 -0.2378  0.6948
 1526TIP3    H226138   0.086   0.429   1.119 -0.5537 -0.2099  0.7910
 1527TIP3   OH226139   5.269   3.778   7.775  0.0381  0.4395 -0.3611
 1527TIP3    H126140   5.208   3.704   7.768  1.5717 -0.8175 -1.1743
 1527TIP3    H226141   5.284   3.804   7.684  1.1236  0.3586 -0.2112
 1528TIP3   OH226142   6.278   4.683   2.619 -0.3471  0.5375 -0.3876
 1528TIP3    H126143   6.300   4.614   2.682  1.8115  2.1517  0.7852
 1528TIP3    H226144   6.362   4.708   2.580 -1.0604  2.3979 -0.8451
 1529TIP3   OH226145   1.593   4.124   1.808 -0.3271 -0.4528  0.5940
 1529TIP3    H126146   1.523   4.133   1.873 -4.0827  2.4035 -3.2958
 1529TIP3    H226147   1.633   4.210   1.804  0.0651 -0.6818 -0.6552
 1530TIP3   OH226148   1.618   3.923   6.941 -0.4971 -0.0736  0.3753
 1530TIP3    H126149   1.702   3.965   6.923  0.9720 -2.5712  0.8724
 1530TIP3    H226150   1.598   3.948   7.031  0.3685 -0.4159  0.6787
 1531TIP3   OH226151   4.550   5.434   0.480 -0.2813  0.0726 -0.3734
 1531TIP3    H126152   4.602   5.443   0.400 -0.5467 -4.3046 -1.2789
 1531TIP3    H226153   4.601   5.377   0.537 -2.3295 -1.1744  0.3334
 1532TIP3   OH226154   3.871   4.205   0.873 -0.0229 -0.0553  0.0952
 1532TIP3    H126155   3.855   4.297   0.897  0.4958  0.2087 -0.5344
 1532TIP3    H226156   3.824   4.155   0.940  0.2781  0.6613  0.8712
 1533TIP3   OH226157   5.645   0.905   8.008  0.3113  0.2015 -0.0068
 1533TIP3    H126158   5.695   0.907   8.090  0.2463 -2.8863  0.2284
 1533TIP3    H226159   5.556   0.925   8.034  0.4349  0.0445  0.5721
 1534TIP3   OH226160   5.420   5.056   1.009 -0.6500  0.1243  0.6066
 1534TIP3    H126161   5.438   5.105   1.090 -0.4870 -0.5897  1.0114
 1534TIP3    H226162   5.443   4.966   1.031 -0.0454  0.0133 -0.4252
 1535TIP3   OH226163   4.555   0.111   7.148 -0.2542 -0.0623  0.1002
 1535TIP3    H126164   4.604   0.189   7.121  0.0137 -0.8950 -2.0215
 1535TIP3    H226165   4.491   0.098   7.078  0.3618 -2.2791 -0.1338
 1536TIP3   OH226166   2.222   5.771   0.275  0.5371  0.5421 -0.0134
 1536TIP3    H126167   2.214   5.678   0.251 -0.0576  0.7096 -0.4759
 1536TIP3    H226168   2.161   5.782   0.347 -0.8218  0.9996 -1.2012
 1537TIP3   OH226169   4.702   4.378   7.918 -0.3836  0.8198  0.2926
 1537TIP3    H126170   4.797   4.383   7.908 -0.3505  1.1654  0.7944
 1537TIP3    H226171   4.688   4.316   7.989 -0.6686 -2.9559 -2.6908
 1538TIP3   OH226172   5.267   3.408   0.387 -0.8080  0.7550 -0.3452
 1538TIP3    H126173   5.189   3.436   0.338 -0.0899  4.9069  0.5019
 1538TIP3    H226174   5.251   3.439   0.476  1.5572  1.2337 -0.0384
 1539TIP3   OH226175   6.099   5.333   1.053  0.0950  0.2222  0.8480
 1539TIP3    H126176   6.153   5.257   1.074 -0.5478 -0.2115  0.9551
 1539TIP3    H226177   6.155   5.408   1.074  1.6643 -0.1733 -1.5894
 1540TIP3   OH226178   5.804   6.345   7.720  0.0105  0.3616  0.0659
 1540TIP3    H126179   5.869   6.300   7.666 -0.6313  0.1379 -0.5347
 1540TIP3    H226180   5.771   6.416   7.665  1.1982  1.7583  1.1002
 1541TIP3   OH226181   0.576   5.134   1.284 -0.0057 -0.5727 -0.0360
 1541TIP3    H126182   0.594   5.087   1.366 -1.6309 -0.6489  0.3117
 1541TIP3    H226183   0.520   5.075   1.234 -0.8962  0.3662 -0.2055
 1542TIP3   OH226184   5.822   0.780   1.743  0.1723 -0.2071  0.0817
 1542TIP3    H126185   5.811   0.686   1.726  0.6625  0.1547 -2.8515
 1542TIP3    H226186   5.788   0.793   1.831 -3.4813 -2.4967 -0.7924
 1543TIP3   OH226187   2.670   6.958   2.700 -0.0120 -0.2993  0.2030
 1543TIP3    H126188   2.579   6.928   2.699  0.2533 -1.1357  0.3529
 1543TIP3    H226189   2.701   6.942   2.611 -0.1342  0.4118  0.0216
 1544TIP3   OH226190   4.034   5.361   8.043 -0.4442 -0.3013 -0.0614
 1544TIP3    H126191   3.951   5.402   8.020  0.6908  2.4273  0.2874
 1544TIP3    H226192   4.015   5.267   8.047 -2.7827 -0.0773 -2.9058
 1545TIP3   OH226193   6.129   1.664   1.586  0.4369 -0.1701 -0.2105
 1545TIP3    H126194   6.142   1.608   1.510  1.5344 -0.6918  0.3305
 1545TIP3    H226195   6.043   1.638   1.620  0.3549 -0.5995 -0.7282
 1546TIP3   OH226196   2.119   5.322   0.135 -0.1355  0.0557  0.4314
 1546TIP3    H126197   2.180   5.248   0.140 -0.4447 -0.2729 -0.3944
 1546TIP3    H226198   2.132   5.358   0.048 -1.5025 -0.3742  0.0166
 1547TIP3   OH226199   3.812   6.273   8.096  0.1088 -0.1109 -0.2859
 1547TIP3    H126200   3.825   6.338   8.027  0.0835  0.4480  0.2257
 1547TIP3    H226201   3.743   6.215   8.063  2.8244 -2.3497 -2.5012
 1548TIP3   OH226202   1.870   2.011   7.434 -0.4822 -0.2559 -0.0724
 1548TIP3    H126203   1.963   2.032   7.422 -0.3768 -0.7923 -0.2013
 1548TIP3    H226204   1.870   1.924   7.474 -0.9389 -0.4800 -0.5499
 1549TIP3   OH226205   2.104   3.059   0.800  0.5626 -0.5243  0.1950
 1549TIP3    H126206   2.033   2.995   0.802  0.5901 -0.5578  0.1320
 1549TIP3    H226207   2.061   3.141   0.777  0.8735 -1.0326 -2.5927
 1550TIP3   OH226208   2.777   2.754   1.707 -0.0198  0.2359 -0.2358
 1550TIP3    H126209   2.819   2.696   1.770  1.2718  1.8269  0.4430
 1550TIP3    H226210   2.693   2.777   1.747  0.4288  0.5672  0.5318
 1551TIP3   OH226211   0.401   3.340   6.829  0.2882  0.1670  0.0291
 1551TIP3    H126212   0.488   3.315   6.859 -0.5075 -1.6599  0.9971
 1551TIP3    H226213   0.399   3.313   6.737 -0.0076 -2.0607  0.6335
 1552TIP3   OH226214   6.336   5.659   0.942  0.3751  0.5347  0.0288
 1552TIP3    H126215   6.313   5.595   0.875  0.3111  0.3272  0.2472
 1552TIP3    H226216   6.263   5.721   0.942  1.3698  1.7846 -1.6068
 1553TIP3   OH226217   5.888   6.252   7.956 -0.7587  0.2917  0.2105
 1553TIP3    H126218   5.836   6.282   7.882  2.2881  0.6475 -1.9726
 1553TIP3    H226219   5.911   6.332   8.003  1.9874  0.9235 -1.9003
 1554TIP3   OH226220   1.485   3.642   1.468 -0.3912  0.0417  0.6994
 1554TIP3    H126221   1.573   3.679   1.463  0.3279 -1.6558 -0.3013
 1554TIP3    H226222   1.453   3.645   1.378 -0.2913 -1.6818  0.5691
 1555TIP3   OH226223   0.692   6.602   2.001  0.0998 -0.3213  0.2248
 1555TIP3    H126224   0.715   6.691   2.025 -1.5604 -0.2910  1.9866
 1555TIP3    H226225   0.776   6.558   1.988  0.9566  1.2841  0.0797
 1556TIP3   OH226226   0.250   0.593   6.530  0.6632  0.1081  0.1526
 1556TIP3    H126227   0.301   0.512   6.521 -0.4622 -0.5488 -0.5789
 1556TIP3    H226228   0.207   0.603   6.445 -0.2377  0.7783  0.6744
 1557TIP3   OH226229   0.019   4.990   1.197 -0.3145 -0.2680  0.2097
 1557TIP3    H126230   0.095   4.933   1.211  0.1304  0.2879  0.1124
 1557TIP3    H226231  -0.056   4.932   1.203  0.1380 -0.8830  0.0092
 1558TIP3   OH226232   3.449   1.522   2.112 -0.2376  0.1255  0.0491
 1558TIP3    H126233   3.396   1.461   2.164 -3.0284  2.8473  0.7266
 1558TIP3    H226234   3.533   1.526   2.158 -0.5204 -1.9240  0.8777
 1559TIP3   OH226235   2.915   0.440   1.084  0.6782  0.5058  0.4730
 1559TIP3    H126236   2.873   0.526   1.076  2.2746  1.3159  0.4825
 1559TIP3    H226237   2.911   0.404   0.995  0.6335  0.8980  0.3124
 1560TIP3   OH226238   2.668   4.889   2.775  0.4366  0.5288  0.2134
 1560TIP3    H126239   2.757   4.925   2.784  1.8771 -1.7470 -2.9492
 1560TIP3    H226240   2.626   4.947   2.711 -0.3423  1.4445  1.5063
 1561TIP3   OH226241   0.788   2.528   7.417 -0.2682  0.6201 -0.4498
 1561TIP3    H126242   0.767   2.435   7.426  1.6009 -0.2236 -3.3315
 1561TIP3    H226243   0.797   2.560   7.507 -0.3256 -2.1550  0.6223
 1562TIP3   OH226244   4.874   5.716   2.473  0.3289  0.3618 -0.3939
 1562TIP3    H126245   4.792   5.752   2.440 -0.0075  0.2557  0.3118
 1562TIP3    H226246   4.913   5.671   2.398  0.8881  2.3750 -1.3806
 1563TIP3   OH226247   0.979   3.188   7.501 -0.3316  0.1155 -0.4761
 1563TIP3    H126248   0.982   3.282   7.481  1.0423  0.2355  0.1699
 1563TIP3    H226249   0.886   3.168   7.509 -0.6097  1.8466  1.2440
 1564TIP3   OH226250   2.789   4.638   2.257  0.2711 -1.1138  0.5264
 1564TIP3    H126251   2.773   4.547   2.282  0.4277 -1.0602  0.8366
 1564TIP3    H226252   2.885   4.647   2.261  0.2429 -0.8769  0.7197
 1565TIP3   OH226253   2.062   6.858   1.677 -0.0963 -0.1873  0.0399
 1565TIP3    H126254   2.074   6.851   1.583 -0.0349  0.8320 -0.0445
 1565TIP3    H226255   2.000   6.789   1.699 -0.7859  0.1145 -0.8876
 1566TIP3   OH226256   0.368   6.090   2.269  0.6050  0.1703 -0.6623
 1566TIP3    H126257   0.424   6.105   2.193 -1.6059  0.6576 -2.3040
 1566TIP3    H226258   0.324   6.007   2.250 -2.0321  1.6190 -1.3688
 1567TIP3   OH226259   6.024   6.865   1.493  0.5325  0.0401  0.0310
 1567TIP3    H126260   6.034   6.876   1.398  0.6834 -1.8333 -0.2059
 1567TIP3    H226261   6.111   6.841   1.524 -0.0778 -2.2739  0.1464
 1568TIP3   OH226262   6.054   3.901   7.554 -0.4210  0.1156  1.0179
 1568TIP3    H126263   6.007   3.885   7.472 -0.8410  1.3593  1.0016
 1568TIP3    H226264   6.144   3.877   7.535 -1.0405 -2.6753  1.1530
 1569TIP3   OH226265   1.191   2.516   0.337 -0.0038 -0.5872  0.3934
 1569TIP3    H126266   1.147   2.580   0.393  0.3426  0.0185 -0.0029
 1569TIP3    H226267   1.191   2.557   0.250 -0.5177 -1.4927 -0.0538
 1570TIP3   OH226268   5.159   3.416   1.644 -0.4586  1.0059  0.1610
 1570TIP3    H126269   5.144   3.507   1.667  0.0565  1.1824 -0.1827
 1570TIP3    H226270   5.074   3.374   1.655 -0.2029  1.0083  2.6243
 1571TIP3   OH226271   6.091   6.541   7.510 -0.4272  0.3379 -0.1065
 1571TIP3    H126272   6.065   6.450   7.496 -0.1703  0.3516 -0.6926
 1571TIP3    H226273   6.129   6.541   7.598 -0.4555 -0.1111 -0.0893
 1572TIP3   OH226274   6.143   0.538   0.877 -0.0478 -0.7533  0.5757
 1572TIP3    H126275   6.194   0.555   0.798  0.4514  3.0864  1.5221
 1572TIP3    H226276   6.052   0.555   0.851 -0.0836 -1.0772  0.4791
 1573TIP3   OH226277   1.382   5.998   7.184 -0.4056  0.6656 -0.0477
 1573TIP3    H126278   1.420   6.041   7.107 -1.2210  0.3546 -0.6443
 1573TIP3    H226279   1.293   6.031   7.188 -0.1910  1.1194  1.1261
 1574TIP3   OH226280   4.315   5.259   7.177  0.7283 -0.5622  0.1397
 1574TIP3    H126281   4.306   5.303   7.261  3.2152  0.2672  0.0438
 1574TIP3    H226282   4.323   5.166   7.199  0.7171 -0.4124  0.7735
 1575TIP3   OH226283   4.098   0.798   7.881  0.0291  0.7323  0.1313
 1575TIP3    H126284   4.038   0.814   7.954 -0.2204 -1.4412  0.4727
 1575TIP3    H226285   4.179   0.770   7.923 -0.5497 -1.9799 -0.3142
 1576TIP3   OH226286   2.244   3.123   1.764  0.1301 -0.2833 -0.2394
 1576TIP3    H126287   2.253   3.159   1.853 -0.0732  0.5313 -0.5430
 1576TIP3    H226288   2.334   3.101   1.739  0.0772 -1.5411  0.5735
 1577TIP3   OH226289   4.461   0.617   7.611 -0.1735 -0.2025 -0.2816
 1577TIP3    H126290   4.524   0.634   7.540  0.8529  0.0220  0.6511
 1577TIP3    H226291   4.376   0.634   7.571  0.4231  0.8168 -1.2229
 1578TIP3   OH226292   5.395   0.347   0.117 -0.0843 -0.3472 -0.5480
 1578TIP3    H126293   5.396   0.395   0.034 -1.4964  0.7086  0.0070
 1578TIP3    H226294   5.486   0.322   0.132  0.6895  2.0072 -0.9755
 1579TIP3   OH226295   4.550   1.120   2.411  0.7599 -0.0714  0.2128
 1579TIP3    H126296   4.503   1.075   2.482  0.6059  1.1483  0.9104
 1579TIP3    H226297   4.559   1.210   2.442  1.3057  0.3176 -1.0357
 1580TIP3   OH226298   6.911   3.517   7.212 -0.0166  0.3663 -0.2316
 1580TIP3    H126299   6.920   3.425   7.238 -2.7652  0.1218  0.1468
 1580TIP3    H226300   6.967   3.525   7.134  1.8734 -1.0480  0.8877
 1581TIP3   OH226301   3.736   5.677   8.263 -0.0158  0.1558 -0.2456
 1581TIP3    H126302   3.739   5.688   8.168  5.3080 -0.7422 -0.5083
 1581TIP3    H226303   3.791   5.600   8.279  0.1477  0.9126  3.6348
 1582TIP3   OH226304   1.462   4.496   6.970  0.6732  0.1613 -0.3661
 1582TIP3    H126305   1.474   4.408   6.935 -1.2463 -0.0859 -0.4921
 1582TIP3    H226306   1.496   4.554   6.901 -0.3022 -0.4162 -1.3592
 1583TIP3   OH226307   0.801   5.243   0.679  0.2862 -0.2757  0.1740
 1583TIP3    H126308   0.793   5.184   0.755  2.9273 -0.8935  0.0941
 1583TIP3    H226309   0.780   5.188   0.604  0.0977 -0.3652  0.2918
 1584TIP3   OH226310   5.966   1.355   0.916  0.3287 -0.1718  0.3273
 1584TIP3    H126311   5.986   1.280   0.972  0.6614 -0.9006 -0.7385
 1584TIP3    H226312   6.014   1.428   0.956  1.4681 -0.9196  0.3899
 1585TIP3   OH226313   1.346   5.806   0.525  0.3442  0.2990 -0.2012
 1585TIP3    H126314   1.307   5.721   0.546 -0.2744  0.2554 -1.4217
 1585TIP3    H226315   1.424   5.785   0.473  0.2158  0.4730 -0.4682
 1586TIP3   OH226316   4.643   0.038   0.377 -0.0218  0.1496  0.5584
 1586TIP3    H126317   4.720   0.079   0.337 -0.2261  0.4010  0.4200
 1586TIP3    H226318   4.618   0.098   0.447  0.1841 -0.1649  0.9031
 1587TIP3   OH226319   2.063   1.056   0.477  0.4680  0.2483  0.1015
 1587TIP3    H126320   2.013   1.126   0.518 -1.5753 -0.7584 -0.5684
 1587TIP3    H226321   2.125   1.028   0.545 -0.6257  0.7978  1.3661
 1588TIP3   OH226322   3.739   0.320   7.704 -0.0604 -0.9034 -0.4322
 1588TIP3    H126323   3.774   0.368   7.629  0.5370  0.4061  0.6290
 1588TIP3    H226324   3.667   0.374   7.735  0.5036 -0.7735  0.6833
 1589TIP3   OH226325   5.967   0.124   1.599  0.8489  0.3362 -0.2715
 1589TIP3    H126326   5.999   0.082   1.519  1.4342 -0.7364  0.5116
 1589TIP3    H226327   5.997   0.068   1.670 -1.2524  0.2413  0.6113
 1590TIP3   OH226328   6.739   4.816   1.827  0.3360 -0.1028  0.0909
 1590TIP3    H126329   6.812   4.838   1.770 -0.4782 -0.3503 -1.0717
 1590TIP3    H226330   6.729   4.721   1.818 -0.9778  0.0985 -0.8357
 1591TIP3   OH226331   2.401   5.404   7.387 -0.1756  0.4377  0.1255
 1591TIP3    H126332   2.494   5.395   7.365 -0.5393 -0.2892 -1.2094
 1591TIP3    H226333   2.369   5.470   7.325 -0.3174  1.5987  1.3813
 1592TIP3   OH226334   3.273   0.195   7.735 -0.1159  0.3412 -0.3072
 1592TIP3    H126335   3.324   0.227   7.661 -0.8419  2.8055  0.1828
 1592TIP3    H226336   3.185   0.182   7.700 -0.1520  0.2366 -0.1776
 1593TIP3   OH226337   4.225   6.754   6.818  0.3931  0.5009 -0.3827
 1593TIP3    H126338   4.237   6.783   6.727 -0.1412 -0.1896 -0.6748
 1593TIP3    H226339   4.313   6.758   6.855  0.3032  3.0303 -0.2275
 1594TIP3   OH226340   0.036   0.415   2.425 -0.3569  0.4212 -0.1666
 1594TIP3    H126341   0.043   0.480   2.355  0.0474  0.3225 -0.2189
 1594TIP3    H226342   0.052   0.463   2.505 -2.0599  0.8017 -0.0006
 1595TIP3   OH226343   1.878   3.226   1.529  0.0847 -0.3553  0.3114
 1595TIP3    H126344   1.936   3.244   1.456  0.9613 -1.2129  0.7709
 1595TIP3    H226345   1.790   3.240   1.494  0.5231 -0.0084 -0.6764
 1596TIP3   OH226346   0.623   1.665   8.165 -0.3671  0.3442 -0.1471
 1596TIP3    H126347   0.586   1.593   8.115 -0.2187  0.5468 -0.5491
 1596TIP3    H226348   0.612   1.638   8.257 -0.5366 -0.0741 -0.2867
 1597TIP3   OH226349   1.717   6.256   0.711  0.7667 -0.2466  0.2586
 1597TIP3    H126350   1.755   6.258   0.799  3.0561  0.7031 -0.6594
 1597TIP3    H226351   1.741   6.171   0.676  1.5525  0.1104 -0.0974
 1598TIP3   OH226352   2.238   1.596   1.084  0.0480  0.1803 -0.0661
 1598TIP3    H126353   2.185   1.524   1.119  0.8776  0.0508  0.9697
 1598TIP3    H226354   2.294   1.555   1.018  0.4641 -0.1230  0.4673
 1599TIP3   OH226355   3.524   5.333   1.600  0.5736 -0.0965 -0.4104
 1599TIP3    H126356   3.497   5.242   1.587 -1.7808  0.8022 -2.5707
 1599TIP3    H226357   3.617   5.334   1.576  0.7466 -1.9606  0.0194
 1600TIP3   OH226358   4.678   4.578   7.722 -0.1330  0.0940 -0.1520
 1600TIP3    H126359   4.773   4.586   7.716  0.1921 -2.5603  0.3900
 1600TIP3    H226360   4.663   4.530   7.804 -1.9016 -0.1548 -0.5788
 1601TIP3   OH226361   4.025   4.965   1.658  0.1375 -0.2592 -0.5272
 1601TIP3    H126362   3.945   4.924   1.624 -0.4948 -1.4963  2.1634
 1601TIP3    H226363   4.006   4.980   1.751  2.2569  1.5200 -0.3089
 1602TIP3   OH226364   2.570   4.824   7.443  0.3017 -0.0927  0.1326
 1602TIP3    H126365   2.658   4.822   7.404  1.0164  0.0851  1.6757
 1602TIP3    H226366   2.551   4.917   7.454 -0.1725 -0.1261 -0.3798
 1603TIP3   OH226367   0.752   0.955   0.583 -0.0914  0.4470  0.3026
 1603TIP3    H126368   0.657   0.961   0.574 -0.3327 -1.7067  0.7834
 1603TIP3    H226369   0.785   0.951   0.493 -0.5382  0.4787  0.1371
 1604TIP3   OH226370   2.216   3.158   6.557  0.3060 -0.2733 -0.2002
 1604TIP3    H126371   2.236   3.065   6.547 -0.1402 -0.3788 -0.1482
 1604TIP3    H226372   2.172   3.182   6.475 -0.1631 -0.2702  0.0490
 1605TIP3   OH226373   0.821   6.227   2.161  0.4369 -0.1850 -0.0809
 1605TIP3    H126374   0.783   6.139   2.160  0.6701 -0.2904  0.1821
 1605TIP3    H226375   0.887   6.224   2.230  1.1342 -0.0970 -0.7279
 1606TIP3   OH226376   5.605   4.017   0.253 -0.0575  1.0284  0.0146
 1606TIP3    H126377   5.671   3.977   0.310 -0.1414  0.4455 -0.2878
 1606TIP3    H226378   5.521   3.989   0.290 -0.1572  2.3150  0.7906
 1607TIP3   OH226379   2.163   5.441   8.218  0.0896  0.7784  0.4487
 1607TIP3    H126380   2.226   5.507   8.246 -0.2648  1.0992  0.5021
 1607TIP3    H226381   2.171   5.438   8.123  2.6420 -1.6510  0.6070
 1608TIP3   OH226382   6.345   1.563   7.586 -0.2248 -0.1488 -0.1566
 1608TIP3    H126383   6.351   1.546   7.680 -1.9905  1.7606  0.3766
 1608TIP3    H226384   6.259   1.603   7.574  0.0513 -0.1331 -2.5666
 1609TIP3   OH226385   3.452   6.543   7.400 -0.5965 -0.6939 -0.2717
 1609TIP3    H126386   3.376   6.535   7.343 -2.0704 -0.0818  1.5390
 1609TIP3    H226387   3.464   6.455   7.437 -0.7394 -0.6686 -0.1664
 1610TIP3   OH226388   1.388   5.806   7.573 -0.1588 -0.4484  0.0121
 1610TIP3    H126389   1.459   5.835   7.516  0.2617 -1.6061 -0.0899
 1610TIP3    H226390   1.400   5.855   7.654  0.3341 -0.1190 -0.2605
 1611TIP3   OH226391   2.981   1.331   6.850 -0.0764 -0.2256  0.5071
 1611TIP3    H126392   2.892   1.362   6.834 -0.0886  0.2001  1.3153
 1611TIP3    H226393   2.989   1.251   6.798 -0.1602  0.9392 -1.3872
 1612TIP3   OH226394   3.067   6.331   0.292 -0.0666  0.9175 -0.5031
 1612TIP3    H126395   3.051   6.252   0.343 -0.3029  1.1084 -0.2787
 1612TIP3    H226396   3.138   6.375   0.339 -1.1777  1.7642  0.4442
 1613TIP3   OH226397   0.224   4.781   6.719 -0.0593  0.3805 -0.7754
 1613TIP3    H126398   0.315   4.801   6.700  0.5080  0.0531  1.3528
 1613TIP3    H226399   0.210   4.693   6.685  0.8122 -0.0831  0.0484
 1614TIP3   OH226400   1.576   4.991   1.812 -0.0124  0.2623  0.3456
 1614TIP3    H126401   1.635   4.936   1.863 -1.8281 -0.4477  1.7787
 1614TIP3    H226402   1.578   5.076   1.856  1.6220  0.9488 -0.9628
 1615TIP3   OH226403   1.452   0.089   1.704  0.2929 -0.4258 -0.6309
 1615TIP3    H126404   1.519   0.022   1.690  1.7944  0.6722  0.9468
 1615TIP3    H226405   1.414   0.103   1.617  1.5058 -1.6804 -1.4147
 1616TIP3   OH226406   1.316   3.312   7.175 -0.4472 -0.3664  0.0849
 1616TIP3    H126407   1.264   3.232   7.184 -1.7831  0.6068  1.4580
 1616TIP3    H226408   1.251   3.381   7.159  0.6379  0.5526 -0.5014
 1617TIP3   OH226409   6.018   5.654   1.797 -0.2744  0.0839  0.6365
 1617TIP3    H126410   6.013   5.650   1.702  1.4337 -0.6542  0.5334
 1617TIP3    H226411   5.937   5.614   1.827 -0.8299  0.3277 -0.5113
 1618TIP3   OH226412   0.802   2.206   1.613 -0.5794  0.3735  0.2635
 1618TIP3    H126413   0.818   2.153   1.692  1.1376  0.7465  0.2003
 1618TIP3    H226414   0.741   2.153   1.561 -0.6053 -0.5383  1.1826
 1619TIP3   OH226415   6.412   5.998   8.153  0.7370 -0.0330  0.1904
 1619TIP3    H126416   6.464   5.921   8.131 -0.5821 -0.4882 -1.4866
 1619TIP3    H226417   6.353   5.969   8.223  2.7132  0.5313  2.2321
 1620TIP3   OH226418   0.704   6.197   1.506  0.3389 -0.9406 -0.0471
 1620TIP3    H126419   0.682   6.290   1.506 -0.6607 -1.1595  0.7974
 1620TIP3    H226420   0.746   6.182   1.422 -2.4224 -0.3761 -1.6546
 1621TIP3   OH226421   0.682   4.120   6.952  0.2753  0.8995 -0.2653
 1621TIP3    H126422   0.709   4.044   6.901 -0.4337  0.5485 -0.1291
 1621TIP3    H226423   0.589   4.132   6.929  0.1250  1.1296  0.4434
 1622TIP3   OH226424   2.478   3.545   7.924  0.2488  0.6470  0.5370
 1622TIP3    H126425   2.473   3.522   7.831 -0.6891  0.6211  0.5805
 1622TIP3    H226426   2.392   3.583   7.944  0.3278  0.3775  1.4663
 1623TIP3   OH226427   1.268   0.069   2.450  0.4921 -0.6573  0.3797
 1623TIP3    H126428   1.270   0.009   2.376 -0.0228  1.0740 -1.1099
 1623TIP3    H226429   1.188   0.048   2.497  0.5367 -1.3920  0.1394
 1624TIP3   OH226430   3.970   3.225   7.837  0.3218  0.2202 -0.2596
 1624TIP3    H126431   4.063   3.241   7.820  0.2312 -1.7683 -3.5604
 1624TIP3    H226432   3.925   3.294   7.788  0.0623  0.3433  0.1535
 1625TIP3   OH226433   5.732   4.316   6.735 -0.8274 -0.5411 -0.0203
 1625TIP3    H126434   5.764   4.268   6.658 -0.3070 -2.6196  1.3888
 1625TIP3    H226435   5.779   4.399   6.733  0.5520 -1.2956 -0.9837
 1626TIP3   OH226436   5.677   0.894   0.903 -0.1008  0.1895 -0.2527
 1626TIP3    H126437   5.726   0.940   0.835 -0.4914 -0.2999 -0.8678
 1626TIP3    H226438   5.610   0.844   0.856  0.3356 -1.0530  0.3863
 1627TIP3   OH226439   0.089   2.427   0.883  0.0255 -0.1811  0.2080
 1627TIP3    H126440   0.107   2.502   0.941 -0.0891  0.4857 -0.5972
 1627TIP3    H226441   0.020   2.458   0.825 -1.3494 -1.5456  1.0341
 1628TIP3   OH226442   5.087   4.491   0.799  0.0113 -0.5804  0.1251
 1628TIP3    H126443   5.029   4.567   0.791  0.2923 -0.2748  0.9477
 1628TIP3    H226444   5.166   4.515   0.750  0.6056  0.1735  1.4072
 1629TIP3   OH226445   0.503   4.358   1.896  0.1492 -0.4094  0.2438
 1629TIP3    H126446   0.442   4.412   1.846 -2.2244 -2.9444  0.1775
 1629TIP3    H226447   0.569   4.331   1.831 -1.4933 -1.6450 -0.9986
 1630TIP3   OH226448   6.796   1.179   7.951 -0.0747  0.0638 -0.3816
 1630TIP3    H126449   6.760   1.138   8.030  0.5714 -0.4988 -0.3757
 1630TIP3    H226450   6.812   1.107   7.891 -0.2129  0.4550 -0.8921
 1631TIP3   OH226451   4.762   2.974   2.293  0.1342 -0.3454  0.2967
 1631TIP3    H126452   4.723   2.933   2.370 -0.2527  1.3626  1.0469
 1631TIP3    H226453   4.714   3.056   2.282  0.7409 -0.1639 -1.2733
 1632TIP3   OH226454   0.244   2.774   8.041 -0.2163 -0.0389  0.8495
 1632TIP3    H126455   0.193   2.696   8.061 -1.8123  0.7663  0.1402
 1632TIP3    H226456   0.188   2.824   7.981  1.4267  0.9032  0.0476
 1633TIP3   OH226457   6.186   3.201   7.664  0.0578 -0.0424 -0.0696
 1633TIP3    H126458   6.124   3.143   7.710  0.7386 -1.0834 -0.4354
 1633TIP3    H226459   6.265   3.198   7.717  1.1745 -1.9785 -1.7018
 1634TIP3   OH226460   2.086   4.374   0.808  0.4208 -0.1208  0.5269
 1634TIP3    H126461   2.107   4.403   0.896  1.9781  1.3025 -0.2702
 1634TIP3    H226462   2.077   4.455   0.757 -1.6998 -0.8519 -0.3991
 1635TIP3   OH226463   2.107   2.091   0.417 -0.0909 -0.0663  0.0419
 1635TIP3    H126464   2.090   2.127   0.504 -0.9747 -0.9241  0.2373
 1635TIP3    H226465   2.108   1.997   0.430  2.4425 -0.1644 -0.4234
 1636TIP3   OH226466   6.387   1.755   1.411  0.5883 -0.1628 -0.0596
 1636TIP3    H126467   6.386   1.754   1.315  0.0977  1.2797 -0.0870
 1636TIP3    H226468   6.296   1.766   1.436  0.9008  1.1978  0.5254
 1637TIP3   OH226469   2.586   2.544   1.209 -0.1582  0.4436 -0.0790
 1637TIP3    H126470   2.538   2.498   1.140  2.2178 -2.3918  0.0163
 1637TIP3    H226471   2.636   2.477   1.254  0.4348  2.5793  2.7937
 1638TIP3   OH226472   6.984   6.677   2.407  0.4844 -0.1332  0.5127
 1638TIP3    H126473   7.076   6.650   2.407  0.4018 -0.9665  4.2880
 1638TIP3    H226474   6.987   6.772   2.394  1.8776 -0.1112  0.8481
 1639TIP3   OH226475   3.965   1.048   1.348  0.0828  1.0988 -0.2177
 1639TIP3    H126476   3.896   1.029   1.285  0.6884  1.1787 -0.9223
 1639TIP3    H226477   3.926   1.029   1.433 -1.1134  2.0272 -0.5172
 1640TIP3   OH226478   2.565   5.069   7.205  0.2784  0.2302 -0.1013
 1640TIP3    H126479   2.510   5.147   7.199 -1.1591 -0.6617  0.7362
 1640TIP3    H226480   2.584   5.060   7.298  1.4658  0.2409 -0.3292
 1641TIP3   OH226481   6.582   5.830   0.284  0.2492  0.5392  0.4277
 1641TIP3    H126482   6.581   5.825   0.188  2.2173  1.1799  0.3302
 1641TIP3    H226483   6.532   5.753   0.313  1.1594 -0.6774 -1.0930
 1642TIP3   OH226484   2.781   6.692   7.769  1.0591  0.0632  0.3105
 1642TIP3    H126485   2.797   6.603   7.800 -1.2398 -0.1682  0.9655
 1642TIP3    H226486   2.735   6.681   7.686 -1.1477  0.5643  1.4061
 1643TIP3   OH226487   2.986   2.539   1.038 -0.6766  0.5186 -0.0110
 1643TIP3    H126488   3.057   2.590   1.000  0.8386 -0.9547  0.6994
 1643TIP3    H226489   2.989   2.560   1.132  0.6835 -1.5830  0.4750
 1644TIP3   OH226490   4.086   5.267   1.581  0.5310 -0.4170 -0.2678
 1644TIP3    H126491   4.120   5.178   1.583  1.3566 -0.0937  0.9848
 1644TIP3    H226492   4.089   5.296   1.672  1.6549  1.4024 -0.8382
 1645TIP3   OH226493   3.049   2.033   6.600 -0.1898  0.2524 -0.7001
 1645TIP3    H126494   3.001   2.107   6.637 -0.6569  0.3744 -1.5092
 1645TIP3    H226495   3.116   2.074   6.545 -0.1441  0.0779 -0.7738
 1646TIP3   OH226496   4.077   4.075   0.476  0.1374 -0.3143  0.0678
 1646TIP3    H126497   4.019   4.041   0.543  1.4495 -0.8408  0.9753
 1646TIP3    H226498   4.086   4.004   0.413 -0.2837 -0.1892 -0.1361
 1647TIP3   OH226499   3.637   0.558   1.050 -0.4155  0.3495  0.1628
 1647TIP3    H126500   3.673   0.470   1.063 -1.9252 -0.4789 -0.9482
 1647TIP3    H226501   3.666   0.584   0.963  0.0700  0.9962  0.5059
 1648TIP3   OH226502   5.740   5.589   1.028 -0.1655 -0.3134 -0.6382
 1648TIP3    H126503   5.684   5.516   1.001 -0.5342 -0.3032  0.0751
 1648TIP3    H226504   5.688   5.667   1.010 -0.4915 -0.3130  0.2231
 1649TIP3   OH226505   3.872   6.915   6.813  0.2490 -0.1980  0.1902
 1649TIP3    H126506   3.794   6.917   6.758 -1.0203  2.4561  1.8591
 1649TIP3    H226507   3.863   6.836   6.866 -1.4981  0.1997  0.5387
 1650TIP3   OH226508   0.896   5.899   1.821  0.0105 -0.0442 -0.0510
 1650TIP3    H126509   0.901   5.972   1.884  0.0916 -1.0474  1.1399
 1650TIP3    H226510   0.942   5.931   1.744  0.7186  0.8912  0.7314
 1651TIP3   OH226511   4.571   6.068   7.841  0.4881  0.5051 -0.1053
 1651TIP3    H126512   4.626   6.016   7.782 -0.2287  0.4452 -0.7301
 1651TIP3    H226513   4.538   6.139   7.787  1.2403  1.4753  0.6836
 1652TIP3   OH226514   0.785   1.510   7.924 -0.6184  0.4647 -0.2221
 1652TIP3    H126515   0.766   1.572   7.854  1.4409 -1.1672 -2.3936
 1652TIP3    H226516   0.879   1.493   7.916 -0.7429 -1.4627  1.5403
 1653TIP3   OH226517   5.538   1.768   6.689 -0.0313  0.0837  0.3395
 1653TIP3    H126518   5.511   1.859   6.678  1.2629  0.2253 -2.6292
 1653TIP3    H226519   5.628   1.774   6.722  0.1336 -0.0991 -0.0694
 1654TIP3   OH226520   2.675   1.823   1.164 -0.6418 -0.4032 -0.2878
 1654TIP3    H126521   2.634   1.869   1.236 -0.8628 -1.0379 -0.0006
 1654TIP3    H226522   2.605   1.814   1.098 -0.9281 -1.2986  0.1157
 1655TIP3   OH226523   4.163   4.277   0.652 -0.2595 -0.0745  1.0312
 1655TIP3    H126524   4.144   4.204   0.593  0.9945  0.2312  0.2232
 1655TIP3    H226525   4.093   4.340   0.636  0.3947  0.2740 -0.6107
 1656TIP3   OH226526   2.896   5.465   7.199 -0.9649  0.1302  0.5614
 1656TIP3    H126527   2.929   5.378   7.177 -0.0144  0.1801  1.6783
 1656TIP3    H226528   2.963   5.525   7.167 -0.0087  0.2481  2.6193
 1657TIP3   OH226529   3.682   4.744   0.830  0.1221 -0.2582  0.2261
 1657TIP3    H126530   3.630   4.784   0.899 -0.2167  1.8246 -1.1649
 1657TIP3    H226531   3.757   4.803   0.818  0.7488 -1.1525 -0.4501
 1658TIP3   OH226532   4.365   6.174   0.115 -0.4704  0.2546  0.0966
 1658TIP3    H126533   4.409   6.105   0.065 -0.7556 -0.6595  1.0758
 1658TIP3    H226534   4.377   6.149   0.206 -0.9992  1.2531  0.4528
 1659TIP3   OH226535   6.858   2.955   6.173 -0.3674 -0.1483  0.2459
 1659TIP3    H126536   6.790   2.963   6.240 -0.1943 -1.1904  0.5691
 1659TIP3    H226537   6.932   3.005   6.207 -0.5401 -0.0586  0.4894
 1660TIP3   OH226538   4.247   6.723   1.775  0.0795  0.4151  0.1411
 1660TIP3    H126539   4.260   6.659   1.704 -1.8885  0.7972 -0.6225
 1660TIP3    H226540   4.326   6.716   1.828  0.3704 -1.9420 -0.4905
 1661TIP3   OH226541   6.759   5.595   0.194 -0.2279 -0.4473  0.5174
 1661TIP3    H126542   6.672   5.565   0.220 -0.5835 -0.3059 -0.4492
 1661TIP3    H226543   6.743   5.651   0.118  0.7734 -1.1717 -0.2676
 1662TIP3   OH226544   2.443   0.045   0.134  0.2366 -0.2442 -0.2377
 1662TIP3    H126545   2.433  -0.023   0.068 -1.0088 -0.9541  0.6501
 1662TIP3    H226546   2.353   0.070   0.157  0.6559  1.7013 -0.5296
 1663TIP3   OH226547   2.167   0.473   7.678  0.4036  0.2095 -0.6225
 1663TIP3    H126548   2.205   0.515   7.601  1.0676  0.5615 -0.1137
 1663TIP3    H226549   2.134   0.545   7.731 -0.4286 -0.0579 -0.7629
 1664TIP3   OH226550   0.731   1.737   7.285  0.0159 -0.4221 -0.0133
 1664TIP3    H126551   0.794   1.777   7.226  0.8238 -1.7674 -0.0979
 1664TIP3    H226552   0.724   1.647   7.256 -2.1006 -0.2938 -0.1084
 1665TIP3   OH226553   3.853   0.815   0.259 -0.7358 -0.1951  0.3210
 1665TIP3    H126554   3.941   0.852   0.262 -0.1571 -1.3970 -0.8905
 1665TIP3    H226555   3.809   0.852   0.336  0.3068  1.6710  0.0879
 1666TIP3   OH226556   1.945   1.094   7.500 -0.0660  0.3618  0.1343
 1666TIP3    H126557   1.909   1.107   7.413  1.5740 -1.4900 -0.8851
 1666TIP3    H226558   1.879   1.042   7.546  1.2163 -3.3471 -1.8377
 1667TIP3   OH226559   1.084   1.261   7.719 -0.3736 -0.3508  0.9236
 1667TIP3    H126560   1.114   1.339   7.673 -1.9419 -0.5474 -0.5201
 1667TIP3    H226561   1.094   1.282   7.812  0.2594  1.1291  0.5386
 1668TIP3   OH226562   2.601   2.005   6.845 -0.5686 -0.0095  0.1087
 1668TIP3    H126563   2.528   2.061   6.818 -1.2084 -0.0669  1.6570
 1668TIP3    H226564   2.679   2.053   6.816 -1.1830  0.4470 -0.8365
 1669TIP3   OH226565   5.186   3.942   1.879 -0.0498 -0.1906  0.5465
 1669TIP3    H126566   5.223   3.971   1.795 -2.6769  2.2734  0.0872
 1669TIP3    H226567   5.126   3.871   1.856  0.8591 -1.0084  0.6642
 1670TIP3   OH226568   2.827   3.243   2.286  0.9451 -0.4086 -0.1422
 1670TIP3    H126569   2.860   3.157   2.310  0.6804 -0.5290 -0.2088
 1670TIP3    H226570   2.853   3.300   2.358  0.0043 -0.7974  0.5219
 1671TIP3   OH226571   0.170   5.775   8.143 -0.3891 -0.1651 -0.3865
 1671TIP3    H126572   0.182   5.842   8.075  0.6480 -0.7602 -0.8198
 1671TIP3    H226573   0.075   5.766   8.151 -0.5725  1.8241  0.1589
 1672TIP3   OH226574   0.524   5.474   8.246 -0.2818 -0.4996  0.2107
 1672TIP3    H126575   0.437   5.435   8.242 -1.3230  1.5629  0.9968
 1672TIP3    H226576   0.570   5.440   8.170 -2.5888  0.1427 -1.5686
 1673TIP3   OH226577   4.434   5.925   1.004 -0.7596 -0.5974 -0.0104
 1673TIP3    H126578   4.471   5.959   0.923  0.6152 -1.4617  0.2149
 1673TIP3    H226579   4.376   5.994   1.035 -0.3987  0.2309 -1.1223
 1674TIP3   OH226580   5.343   4.500   7.532 -0.2581  0.2623 -0.4358
 1674TIP3    H126581   5.341   4.404   7.534 -0.8441  0.2728 -0.0804
 1674TIP3    H226582   5.432   4.523   7.557  0.0765 -0.1979 -1.1619
 1675TIP3   OH226583   2.734   0.402   2.047 -0.0490 -0.5164  0.5242
 1675TIP3    H126584   2.647   0.374   2.021  0.7788 -3.0339  0.2402
 1675TIP3    H226585   2.734   0.397   2.143 -0.3140 -0.0787  0.5533
 1676TIP3   OH226586   0.595   5.330   8.012 -0.1580  0.5304 -0.0187
 1676TIP3    H126587   0.639   5.373   7.939  2.5202  1.9699  2.2507
 1676TIP3    H226588   0.537   5.266   7.971  0.5036  1.8846 -3.3717
 1677TIP3   OH226589   2.992   2.559   7.360 -0.4644 -0.0475  0.0664
 1677TIP3    H126590   2.949   2.582   7.278  0.2143  1.7301  0.1639
 1677TIP3    H226591   2.930   2.586   7.428  0.2365  1.4082  0.1758
 1678TIP3   OH226592   4.528   4.070   0.573  0.2522  0.2115  0.1093
 1678TIP3    H126593   4.513   4.100   0.662 -1.2480  1.5465 -0.5402
 1678TIP3    H226594   4.526   3.974   0.579 -0.1234  0.2820  1.4487
 1679TIP3   OH226595   6.919   5.818   0.299  0.4973  0.8737  0.0041
 1679TIP3    H126596   6.879   5.734   0.275  1.4860 -0.3142  2.2050
 1679TIP3    H226597   6.845   5.878   0.307 -0.9068 -0.9879  2.9316
 1680TIP3   OH226598   1.730   5.378   1.144  0.1829 -0.3262  0.4456
 1680TIP3    H126599   1.727   5.377   1.049 -0.0854 -0.1890  0.4537
 1680TIP3    H226600   1.822   5.359   1.165  0.4038  0.3656  0.1447
 1681TIP3   OH226601   0.561   6.175   1.733 -0.7194 -0.3783 -0.4077
 1681TIP3    H126602   0.621   6.193   1.660 -0.2258 -1.3326 -0.2525
 1681TIP3    H226603   0.596   6.225   1.806 -0.2699 -0.7236 -0.3886
 1682TIP3   OH226604   3.302   5.432   1.809 -0.0875  0.2308  0.1715
 1682TIP3    H126605   3.318   5.385   1.727 -0.7656 -3.3306  1.9048
 1682TIP3    H226606   3.238   5.379   1.856  1.9438  0.7538  3.9964
 1683TIP3   OH226607   6.855   0.480   7.705 -0.1275  0.8280  0.7875
 1683TIP3    H126608   6.786   0.528   7.659 -0.1386 -1.2737 -1.6184
 1683TIP3    H226609   6.813   0.447   7.784 -1.4345  0.9568  0.1688
 1684TIP3   OH226610   3.335   4.655   1.571 -0.4158 -0.0274  0.1506
 1684TIP3    H126611   3.423   4.656   1.609 -0.3315 -0.7921  0.0030
 1684TIP3    H226612   3.278   4.686   1.641 -0.2782 -1.5551  0.9753
 1685TIP3   OH226613   0.108   5.176   0.699 -0.3016 -0.1718  0.3143
 1685TIP3    H126614   0.071   5.136   0.778 -0.3158  1.6984  1.3357
 1685TIP3    H226615   0.040   5.236   0.669  0.4571  0.5610  0.0165
 1686TIP3   OH226616   2.161   5.864   2.498  0.0961  0.4507  0.0921
 1686TIP3    H126617   2.213   5.784   2.503 -2.3285 -1.2113  0.9978
 1686TIP3    H226618   2.169   5.903   2.584  1.1235  1.1003 -0.2880
 1687TIP3   OH226619   4.133   5.526   7.634 -0.2294 -0.3500  0.2137
 1687TIP3    H126620   4.074   5.602   7.643 -0.2018 -0.1982 -0.7538
 1687TIP3    H226621   4.074   5.451   7.630 -0.2691 -0.3625  0.9482
 1688TIP3   OH226622   5.900   0.536   2.195  0.4807 -0.6548 -0.3770
 1688TIP3    H126623   5.975   0.557   2.138  0.6696 -1.0461 -0.2754
 1688TIP3    H226624   5.896   0.441   2.195  0.1982 -0.6438 -0.0968
 1689TIP3   OH226625   4.241   3.583   8.215  0.8138  0.2424 -0.0390
 1689TIP3    H126626   4.151   3.608   8.193  1.2696  0.4611 -1.8087
 1689TIP3    H226627   4.249   3.493   8.183  1.0249 -0.0421  0.7866
 1690TIP3   OH226628   0.781   3.030   0.075 -0.0531 -0.0016 -0.3640
 1690TIP3    H126629   0.770   3.108   0.130 -1.7814 -0.2526 -0.2892
 1690TIP3    H226630   0.865   3.043   0.030  0.2848  1.2933  0.5943
 1691TIP3   OH226631   1.790   5.799   7.489  0.4760 -0.5661 -0.0491
 1691TIP3    H126632   1.840   5.721   7.511 -0.7861 -0.7296  2.5763
 1691TIP3    H226633   1.720   5.768   7.432  1.9253 -0.7020 -1.8552
 1692TIP3   OH226634   1.824   6.421   8.217 -0.2371 -0.0037  0.2089
 1692TIP3    H126635   1.920   6.419   8.220 -0.2617 -1.6458  0.9301
 1692TIP3    H226636   1.800   6.362   8.146 -0.7213 -0.3990  0.6907
 1693TIP3   OH226637   5.618   1.117   7.243  0.0158 -0.0682 -0.2188
 1693TIP3    H126638   5.697   1.159   7.209 -1.3153  1.0245 -2.1481
 1693TIP3    H226639   5.620   1.134   7.337  1.9647  0.0748 -0.2448
 1694TIP3   OH226640   2.616   3.161   1.324 -0.0798 -0.1668  0.6592
 1694TIP3    H126641   2.572   3.117   1.396 -0.2434 -1.2610 -0.0839
 1694TIP3    H226642   2.599   3.106   1.247 -1.6247  1.9801 -0.6490
 1695TIP3   OH226643   5.074   6.604   7.553  0.2344  0.2652 -0.6935
 1695TIP3    H126644   5.077   6.624   7.647 -0.3494 -0.7623 -0.4356
 1695TIP3    H226645   5.157   6.637   7.519  0.8842 -0.1992  0.3753
 1696TIP3   OH226646   1.208   1.809   2.505  0.2380 -0.1969 -0.3230
 1696TIP3    H126647   1.133   1.814   2.445  0.2560  0.2767 -0.3119
 1696TIP3    H226648   1.227   1.715   2.512  0.1329 -0.2674 -0.9258
 1697TIP3   OH226649   0.853   3.232   1.106 -0.0400 -0.6488  0.0640
 1697TIP3    H126650   0.861   3.218   1.012 -0.9134  1.8680 -0.4666
 1697TIP3    H226651   0.939   3.209   1.141  0.9097  0.1284 -1.6211
 1698TIP3   OH226652   3.443   1.783   7.913 -0.0597  0.3006  0.0494
 1698TIP3    H126653   3.497   1.792   7.834  1.3968 -0.6678  0.8838
 1698TIP3    H226654   3.394   1.865   7.918 -1.2017 -0.1188 -2.5503
 1699TIP3   OH226655   0.439   1.713   1.906 -0.0051  0.3880 -0.6021
 1699TIP3    H126656   0.429   1.747   1.994 -0.0841 -0.9159 -0.0850
 1699TIP3    H226657   0.532   1.695   1.897 -0.1326 -0.4236 -0.4019
 1700TIP3   OH226658   5.868   1.336   2.856 -0.5502 -0.3391 -0.4660
 1700TIP3    H126659   5.831   1.282   2.926 -3.4467 -0.0906 -1.6802
 1700TIP3    H226660   5.923   1.276   2.806 -0.4222 -1.1117  0.5579
 1701TIP3   OH226661   6.889   1.448   7.628 -0.4446  0.4705  0.0301
 1701TIP3    H126662   6.920   1.538   7.620  0.1840  0.2732  0.1263
 1701TIP3    H226663   6.916   1.406   7.546  1.6076 -0.2846  0.9958
 1702TIP3   OH226664   2.421   0.509   8.051 -0.3229  0.2173 -0.3585
 1702TIP3    H126665   2.397   0.473   8.136  0.6175 -1.2953 -0.6992
 1702TIP3    H226666   2.370   0.459   7.988  0.5162 -0.0791 -0.8098
 1703TIP3   OH226667   2.536   0.758   0.889 -0.2857 -0.5192 -0.1594
 1703TIP3    H126668   2.565   0.845   0.915  0.6298 -0.0937 -2.4092
 1703TIP3    H226669   2.517   0.714   0.972  0.2167  1.4623  1.0793
 1704TIP3   OH226670   6.762   3.204   6.698 -0.2933  0.3317 -0.4569
 1704TIP3    H126671   6.831   3.201   6.632  1.2728  2.6388  0.9549
 1704TIP3    H226672   6.704   3.274   6.669  0.6221  1.6361  0.7337
 1705TIP3   OH226673   4.657   3.033   0.563 -0.3848  0.2753  0.0261
 1705TIP3    H126674   4.586   2.985   0.520 -1.6634  2.6323 -0.6674
 1705TIP3    H226675   4.727   3.035   0.497  0.2620 -1.7176  0.5715
 1706TIP3   OH226676   1.104   5.616   8.107  0.1575  0.2422 -0.3042
 1706TIP3    H126677   1.145   5.549   8.051 -1.9142 -0.8229 -0.6369
 1706TIP3    H226678   1.147   5.697   8.082 -0.2883 -0.2732 -3.1255
 1707TIP3   OH226679   1.868   4.683   1.554 -0.6251  0.6563 -0.1992
 1707TIP3    H126680   1.901   4.595   1.538 -3.3333 -0.2297 -1.4483
 1707TIP3    H226681   1.879   4.696   1.649 -2.4287 -2.0981  0.4930
 1708TIP3   OH226682   0.637   1.904   6.223  0.1385 -0.1781 -0.0342
 1708TIP3    H126683   0.572   1.973   6.221  0.8254  0.6442  2.2481
 1708TIP3    H226684   0.601   1.838   6.282  1.0631  0.0185  0.7906
 1709TIP3   OH226685   6.095   2.241   7.198  0.7058  0.4396 -0.0960
 1709TIP3    H126686   6.174   2.292   7.180 -0.7853  2.2839 -1.9496
 1709TIP3    H226687   6.059   2.281   7.278 -0.0371  1.9081 -1.1033
 1710TIP3   OH226688   4.991   0.324   7.941  0.1989 -1.0076  0.1992
 1710TIP3    H126689   4.937   0.252   7.973  1.6905 -2.1320  0.2815
 1710TIP3    H226690   5.029   0.292   7.859  0.2627  0.0027 -0.1887
 1711TIP3   OH226691   6.338   4.750   1.856  0.2615 -0.5793  0.8574
 1711TIP3    H126692   6.320   4.663   1.892 -1.0251 -0.1327  1.3289
 1711TIP3    H226693   6.323   4.810   1.929 -1.3209  0.2436 -0.0899
 1712TIP3   OH226694   6.112   4.622   0.338 -0.7048 -0.3754 -0.1311
 1712TIP3    H126695   6.060   4.543   0.354 -0.6109 -0.2149  1.0772
 1712TIP3    H226696   6.049   4.685   0.302 -1.4770 -0.0765  1.6072
 1713TIP3   OH226697   0.649   0.874   7.865 -0.1509 -0.1056  0.3804
 1713TIP3    H126698   0.727   0.896   7.813  0.7534 -0.9183  1.3340
 1713TIP3    H226699   0.684   0.853   7.952 -1.1320 -2.9758  0.1811
 1714TIP3   OH226700   6.607   5.245   1.742 -0.2542 -0.6003  0.3603
 1714TIP3    H126701   6.646   5.278   1.823 -1.0443  0.0412  0.4996
 1714TIP3    H226702   6.622   5.315   1.678  1.2602 -1.5234 -0.3446
 1715TIP3   OH226703   6.340   5.149   1.437 -0.5688  0.2549  0.2397
 1715TIP3    H126704   6.309   5.144   1.347 -0.3375  0.0688  0.1715
 1715TIP3    H226705   6.330   5.061   1.471 -1.1467  0.4390  0.5604
 1716TIP3   OH226706   2.413   1.267   7.953 -0.4849 -0.0812 -0.1887
 1716TIP3    H126707   2.353   1.203   7.916 -0.2803 -0.3280 -0.0986
 1716TIP3    H226708   2.448   1.314   7.878 -0.4326 -0.2556 -0.2726
 1717TIP3   OH226709   6.197   1.165   7.144  0.2686 -0.1942 -0.0741
 1717TIP3    H126710   6.136   1.124   7.205  0.0878 -0.0662 -0.1660
 1717TIP3    H226711   6.193   1.258   7.164  1.8169 -0.3548  1.1516
 1718TIP3   OH226712   6.519   2.749   1.208 -0.1072 -0.2281  0.6600
 1718TIP3    H126713   6.453   2.778   1.271 -0.6715  1.0500 -0.4635
 1718TIP3    H226714   6.471   2.738   1.126  0.6991 -1.4083  0.3156
 1719TIP3   OH226715   3.961   0.338   7.866 -1.2426  0.2771 -0.4288
 1719TIP3    H126716   3.883   0.316   7.815  0.3885 -0.0661 -2.9148
 1719TIP3    H226717   3.966   0.434   7.860 -0.3571  0.1578 -2.1022
 1720TIP3   OH226718   3.985   0.495   7.216 -0.3700  0.7059  0.6692
 1720TIP3    H126719   4.032   0.442   7.279  1.1710 -0.3949 -1.2975
 1720TIP3    H226720   3.943   0.432   7.157  0.8024  1.5952 -1.2135
 1721TIP3   OH226721   3.835   3.005   8.294 -0.2942 -0.0400  0.1354
 1721TIP3    H126722   3.881   2.956   8.363  0.6562 -1.1755 -1.2334
 1721TIP3    H226723   3.750   2.961   8.287 -0.7571  0.6601  1.1792
 1722TIP3   OH226724   4.642   5.509   1.356 -0.2899 -0.1379  0.0689
 1722TIP3    H126725   4.569   5.454   1.325 -0.4885 -0.3288  0.8589
 1722TIP3    H226726   4.718   5.451   1.354 -0.0344  0.2116 -1.2723
 1723TIP3   OH226727   5.695   6.170   1.576  0.5631  0.3794  0.3974
 1723TIP3    H126728   5.618   6.217   1.545  1.1539  0.8514 -0.4004
 1723TIP3    H226729   5.769   6.227   1.553  1.3418 -1.1372 -1.0754
 1724TIP3   OH226730   2.790   3.943   6.717  0.4926  0.6614  0.7614
 1724TIP3    H126731   2.874   3.915   6.680  0.1418  1.8027 -0.9512
 1724TIP3    H226732   2.724   3.906   6.659 -0.2050  0.2275  1.7932
 1725TIP3   OH226733   0.191   3.704   1.788 -0.7710 -0.0493  0.1535
 1725TIP3    H126734   0.109   3.670   1.752  0.2656 -1.6137 -0.8335
 1725TIP3    H226735   0.240   3.627   1.815  1.1244  0.7045 -0.9097
 1726TIP3   OH226736   3.394   6.372   8.244  1.1260  0.0730 -0.6661
 1726TIP3    H126737   3.302   6.376   8.269  1.1573 -0.6696 -0.4291
 1726TIP3    H226738   3.439   6.338   8.321  1.6282  0.5939 -0.7206
 1727TIP3   OH226739   1.254   2.406   7.703  0.5531  0.1329  0.1798
 1727TIP3    H126740   1.190   2.349   7.661 -1.6562  0.0467  3.3262
 1727TIP3    H226741   1.316   2.347   7.745  1.9310  0.2162 -1.6048
 1728TIP3   OH226742   1.074   1.842   7.695 -0.0926  0.5511  0.2569
 1728TIP3    H126743   1.103   1.920   7.742  1.5433  0.4695 -0.5225
 1728TIP3    H226744   1.150   1.817   7.642  0.1436 -2.6978  1.8769
 1729TIP3   OH226745   0.827   5.307   7.306 -0.3515 -0.4421  0.8976
 1729TIP3    H126746   0.909   5.330   7.349 -0.6515 -0.6578  1.5991
 1729TIP3    H226747   0.759   5.339   7.366 -0.8036  0.8174 -0.2347
 1730TIP3   OH226748   5.776   1.516   1.887  0.1171 -0.1353 -0.5173
 1730TIP3    H126749   5.815   1.548   1.806  0.7900 -1.7097 -0.8490
 1730TIP3    H226750   5.681   1.520   1.871  0.2483 -1.8618 -2.0032
 1731TIP3   OH226751   5.754   0.037   0.852 -0.0999 -0.1398 -0.6934
 1731TIP3    H126752   5.765   0.019   0.758  0.4646  0.0450 -0.6659
 1731TIP3    H226753   5.666   0.005   0.872  0.0497 -0.8557 -1.1264
 1732TIP3   OH226754   3.480   3.740   2.077  0.4191  0.5636  0.2667
 1732TIP3    H126755   3.541   3.755   2.150 -1.2866  1.4125  1.5975
 1732TIP3    H226756   3.422   3.816   2.080 -1.2024 -0.6035 -0.4215
 1733TIP3   OH226757   4.956   5.613   1.263 -0.2914 -0.7526  0.1992
 1733TIP3    H126758   4.929   5.705   1.264 -0.6728 -0.8634  0.4880
 1733TIP3    H226759   5.016   5.607   1.189 -0.1203 -0.2314  0.2882
 1734TIP3   OH226760   6.551   6.627   7.879 -0.5383 -0.1095  0.1135
 1734TIP3    H126761   6.589   6.676   7.805 -1.0710 -0.4241 -0.3745
 1734TIP3    H226762   6.488   6.688   7.917 -1.8047 -0.6884 -1.0034
 1735TIP3   OH226763   6.602   0.124   7.365 -0.2074  0.2575 -0.1721
 1735TIP3    H126764   6.658   0.164   7.432  0.3891 -0.2870 -0.3353
 1735TIP3    H226765   6.634   0.161   7.283  0.0361 -0.1949 -0.2810
 1736TIP3   OH226766   6.971   4.229   6.676  0.9580 -0.2478  0.1249
 1736TIP3    H126767   7.037   4.257   6.613 -0.0866 -0.0233 -0.8943
 1736TIP3    H226768   6.934   4.311   6.710  1.0984 -0.3756  0.5994
 1737TIP3   OH226769   3.023   4.915   0.530  0.1440 -0.2620  0.8664
 1737TIP3    H126770   3.056   4.872   0.609  0.4724 -0.9831  0.3468
 1737TIP3    H226771   2.983   4.845   0.479  0.6173  0.0436  0.0424
 1738TIP3   OH226772   2.212   1.689   1.999  0.4037 -0.1493  0.3664
 1738TIP3    H126773   2.156   1.644   1.936 -0.7870 -0.9189  1.8898
 1738TIP3    H226774   2.169   1.773   2.014  0.9528  0.2409 -0.1788
 1739TIP3   OH226775   6.029   5.922   6.269 -0.0376 -0.5889  0.0218
 1739TIP3    H126776   6.083   5.897   6.344 -0.2912 -2.8496 -0.4732
 1739TIP3    H226777   6.085   5.907   6.193  0.2566  1.7879 -0.3024
 1740TIP3   OH226778   6.998   2.330   6.814  0.2589  0.3644  0.2310
 1740TIP3    H126779   7.083   2.358   6.780  0.3964 -1.0494 -0.6702
 1740TIP3    H226780   6.936   2.395   6.780  0.7228  0.3024 -0.7719
 1741TIP3   OH226781   1.832   4.352   7.146 -0.1440  0.0774 -0.5742
 1741TIP3    H126782   1.860   4.395   7.227 -0.2323 -0.2727 -0.3569
 1741TIP3    H226783   1.839   4.421   7.080 -0.8151  0.5909 -0.1315
 1742TIP3   OH226784   1.003   0.766   8.123  0.2385  0.3010  0.0513
 1742TIP3    H126785   1.015   0.859   8.145 -1.4859  0.8233 -1.0610
 1742TIP3    H226786   1.092   0.735   8.103  1.0871  1.2447  2.0360
 1743TIP3   OH226787   5.610   2.991   1.574  0.5202  0.1285  0.2747
 1743TIP3    H126788   5.627   2.997   1.480 -0.5370  2.0810  0.1430
 1743TIP3    H226789   5.518   2.968   1.580  0.5006  0.3397  0.8110
 1744TIP3   OH226790   4.314   6.165   1.041  0.0100 -0.7701 -0.3247
 1744TIP3    H126791   4.222   6.171   1.067 -0.1427 -2.4454 -0.3779
 1744TIP3    H226792   4.315   6.190   0.948 -0.1234  0.7290  0.0386
 1745TIP3   OH226793   6.578   1.208   1.074 -0.0738 -0.1098  0.1861
 1745TIP3    H126794   6.559   1.135   1.134 -1.3521 -0.3541 -0.4789
 1745TIP3    H226795   6.652   1.177   1.021  0.3870 -0.3048  0.9224
 1746TIP3   OH226796   0.539   0.642   6.989  0.1688 -0.2294 -0.3141
 1746TIP3    H126797   0.510   0.732   7.004  1.5522  0.0975  0.6184
 1746TIP3    H226798   0.588   0.647   6.907  3.5174  0.7757  1.5599
 1747TIP3   OH226799   3.366   0.609   7.072 -0.1139  0.3019  0.0682
 1747TIP3    H126800   3.359   0.626   6.979 -1.5279 -0.5668 -0.0190
 1747TIP3    H226801   3.454   0.574   7.084 -0.1319 -0.1583 -1.0539
 1748TIP3   OH226802   4.269   0.695   2.650 -0.2806  0.2678 -0.1660
 1748TIP3    H126803   4.310   0.648   2.722 -0.8264 -0.0044 -0.0268
 1748TIP3    H226804   4.242   0.779   2.688  2.9539  1.8678 -0.9953
 1749TIP3   OH226805   1.150   0.138   0.653 -0.3429  0.3790 -0.0470
 1749TIP3    H126806   1.149   0.044   0.674  0.1573 -0.1096 -2.0442
 1749TIP3    H226807   1.190   0.179   0.730 -1.9720 -0.8214  1.5465
 1750TIP3   OH226808   2.947   4.493   1.941 -0.1640  0.6605  0.4571
 1750TIP3    H126809   2.960   4.443   2.022 -0.9901 -1.9748 -0.9308
 1750TIP3    H226810   2.901   4.433   1.883  0.4559  2.4555 -2.0390
 1751TIP3   OH226811   5.417   2.523   7.261 -0.3650  0.2491 -0.3871
 1751TIP3    H126812   5.505   2.505   7.229  0.0383  1.9092 -0.2933
 1751TIP3    H226813   5.361   2.465   7.210  0.7186 -0.5233 -0.7466
 1752TIP3   OH226814   2.238   6.480   1.683 -0.4610  1.0818  0.5492
 1752TIP3    H126815   2.322   6.458   1.644 -0.6746 -0.7809  1.0628
 1752TIP3    H226816   2.252   6.568   1.720  1.3792  0.6778  0.9496
 1753TIP3   OH226817   6.057   4.135   1.079 -0.2319  0.4673  0.2506
 1753TIP3    H126818   6.031   4.045   1.063 -3.0875  1.0874  0.8033
 1753TIP3    H226819   6.030   4.182   1.000 -0.5567  1.1178  0.7394
 1754TIP3   OH226820   3.641   4.541   1.062 -0.3663  0.5095  0.2373
 1754TIP3    H126821   3.629   4.523   1.156  2.1603  1.4605  0.8284
 1754TIP3    H226822   3.592   4.621   1.046  0.4292  1.2160  1.1762
 1755TIP3   OH226823   5.364   1.792   6.473 -0.4264  0.4019  0.6297
 1755TIP3    H126824   5.426   1.807   6.545 -1.9906  2.9559  1.5780
 1755TIP3    H226825   5.340   1.880   6.443 -1.3081 -0.5615 -1.7565
 1756TIP3   OH226826   3.857   4.788   6.423 -0.3433 -0.6296 -0.2818
 1756TIP3    H126827   3.820   4.764   6.338  0.1878  0.7484 -0.9454
 1756TIP3    H226828   3.897   4.874   6.408  0.4049 -0.6830  1.1808
 1757TIP3   OH226829   3.574   1.024   0.144 -0.0358  0.4991  0.1921
 1757TIP3    H126830   3.549   0.953   0.204  0.0466  0.5307  0.2637
 1757TIP3    H226831   3.545   0.994   0.058 -3.0382  1.7727  0.6058
 1758TIP3   OH226832   1.769   0.442   8.185  0.7989 -0.1590 -0.5303
 1758TIP3    H126833   1.854   0.412   8.152  2.2452  1.0177  1.8274
 1758TIP3    H226834   1.790   0.491   8.264 -2.1152  0.2158  0.1351
 1759TIP3   OH226835   2.844   1.499   6.638  0.4770  0.8188 -0.6876
 1759TIP3    H126836   2.777   1.482   6.704  2.5323 -0.3605  1.2576
 1759TIP3    H226837   2.824   1.438   6.567  0.2948 -0.5886  0.5208
 1760TIP3   OH226838   2.002   0.786   0.054 -0.2729 -0.6148  0.5906
 1760TIP3    H126839   1.911   0.765   0.031 -0.7431  2.3070 -0.6916
 1760TIP3    H226840   1.994   0.855   0.120  1.0060 -0.2151  0.3473
 1761TIP3   OH226841   3.701   3.829   0.477  0.4719 -0.0989  0.0269
 1761TIP3    H126842   3.674   3.740   0.455 -0.2360  0.2516 -0.5874
 1761TIP3    H226843   3.771   3.849   0.415  0.3195 -0.0619 -0.1316
 1762TIP3   OH226844   3.567   2.760   7.685 -0.2658 -0.3061  0.1005
 1762TIP3    H126845   3.555   2.793   7.595  0.4565 -1.6513 -0.5088
 1762TIP3    H226846   3.629   2.822   7.725 -1.9108  1.3129  0.2780
 1763TIP3   OH226847   1.898   4.768   0.068 -0.1667  0.0551  0.1511
 1763TIP3    H126848   1.870   4.856   0.093  1.3881  0.7805 -0.5064
 1763TIP3    H226849   1.977   4.782   0.015  0.3695 -1.7556  0.3952
 1764TIP3   OH226850   6.429   6.651   0.076  0.0654 -0.7662  0.3480
 1764TIP3    H126851   6.410   6.615   0.163  1.4367 -0.7020  0.6875
 1764TIP3    H226852   6.497   6.594   0.040  0.9704  0.3933  0.1586
 1765TIP3   OH226853   3.856   5.655   2.159 -0.1049 -0.1389  0.4477
 1765TIP3    H126854   3.819   5.593   2.095  1.4609  0.7695 -1.4327
 1765TIP3    H226855   3.951   5.645   2.150  0.1590  1.1289  1.5545
 1766TIP3   OH226856   1.658   3.709   7.767  0.3072 -0.2579 -0.0931
 1766TIP3    H126857   1.725   3.663   7.818  0.6614  0.8028  0.4315
 1766TIP3    H226858   1.659   3.798   7.802 -0.2294  0.1994 -1.2092
 1767TIP3   OH226859   1.076   6.686   2.271 -0.3672  0.3227 -0.2550
 1767TIP3    H126860   0.986   6.677   2.240 -0.9594 -1.1874  1.7209
 1767TIP3    H226861   1.109   6.596   2.273  1.1889  0.8440 -0.8516
 1768TIP3   OH226862   3.816   3.725   7.650  0.5519  0.1624  0.6874
 1768TIP3    H126863   3.848   3.705   7.562 -0.6501 -0.8323  0.4333
 1768TIP3    H226864   3.763   3.804   7.639 -0.3387 -0.4644  0.3098
 1769TIP3   OH226865   4.650   5.216   0.617  0.5321 -0.0124  0.3832
 1769TIP3    H126866   4.700   5.181   0.543  0.5738  1.9113 -0.5753
 1769TIP3    H226867   4.590   5.146   0.641  1.2456 -1.0668 -0.7959
 1770TIP3   OH226868   4.262   3.530   7.836 -0.2994 -0.1924 -0.1433
 1770TIP3    H126869   4.259   3.473   7.912 -2.3591  0.0729  0.0262
 1770TIP3    H226870   4.316   3.605   7.864  1.1896 -1.3096  0.1142
 1771TIP3   OH226871   6.138   1.503   1.381  0.1887  0.5350 -0.4304
 1771TIP3    H126872   6.203   1.433   1.377  0.3055  0.5806  0.3973
 1771TIP3    H226873   6.054   1.458   1.381  0.2616  0.1953  2.2253
 1772TIP3   OH226874   4.465   1.547   7.139  0.2016 -0.7408  0.5380
 1772TIP3    H126875   4.427   1.464   7.167  1.3524 -0.7640  2.1584
 1772TIP3    H226876   4.393   1.610   7.147 -0.1821 -1.2349  1.0493
 1773TIP3   OH226877   1.971   4.251   2.329  0.1590  0.3620 -0.1744
 1773TIP3    H126878   2.063   4.269   2.307 -0.3939  1.8147 -1.4704
 1773TIP3    H226879   1.959   4.159   2.304  1.1426  0.2777 -0.4068
 1774TIP3   OH226880   0.861   2.408   6.965 -0.2423 -0.0706 -0.3737
 1774TIP3    H126881   0.780   2.435   6.922  0.2237  0.7569 -0.7679
 1774TIP3    H226882   0.915   2.373   6.894 -0.6721 -1.6733  0.0650
 1775TIP3   OH226883   2.750   6.911   1.995  0.3044 -0.5132 -0.1277
 1775TIP3    H126884   2.703   6.993   1.976  0.5491 -0.2979  0.1840
 1775TIP3    H226885   2.792   6.927   2.079 -0.8012 -1.4680  0.6430
 1776TIP3   OH226886   4.104   5.944   7.179 -0.0372 -0.2545 -0.2921
 1776TIP3    H126887   4.112   6.026   7.227 -2.9442 -1.6858  2.9817
 1776TIP3    H226888   4.020   5.950   7.134  0.1408 -1.1057 -0.7648
 1777TIP3   OH226889   4.096   1.564   0.450 -0.6691 -0.4195  0.6776
 1777TIP3    H126890   4.065   1.506   0.519 -1.9476 -0.4271  0.1266
 1777TIP3    H226891   4.191   1.561   0.457 -0.7517 -1.3713  1.6424
 1778TIP3   OH226892   0.148   1.711   1.405 -0.4676  0.1801  1.0162
 1778TIP3    H126893   0.110   1.796   1.383 -1.3324  0.0054  1.7757
 1778TIP3    H226894   0.226   1.733   1.457 -0.4323  0.5132  0.8292
 1779TIP3   OH226895   5.237   6.688   1.714  0.4372 -0.8729  0.6164
 1779TIP3    H126896   5.143   6.685   1.696  0.6797  0.1379 -1.0577
 1779TIP3    H226897   5.271   6.605   1.681  0.5565  0.1126 -2.0500
 1780TIP3   OH226898   0.581   5.038   6.842  0.5723  0.0709  0.1306
 1780TIP3    H126899   0.499   5.070   6.881 -1.7393 -1.9248 -2.7011
 1780TIP3    H226900   0.630   5.001   6.916 -0.1356  2.9058  2.1967
 1781TIP3   OH226901   3.714   6.461   2.711  0.3285  0.6434  0.1923
 1781TIP3    H126902   3.670   6.382   2.741  1.0505 -0.2988 -1.1178
 1781TIP3    H226903   3.643   6.515   2.676  0.0149 -0.1734 -0.4714
 1782TIP3   OH226904   0.002   6.155   7.871  0.5799  0.7028 -0.4228
 1782TIP3    H126905  -0.048   6.082   7.834  0.6278  1.2134 -1.5101
 1782TIP3    H226906  -0.062   6.203   7.924 -0.5348  2.1721 -2.9333
 1783TIP3   OH226907   2.587   4.870   8.262 -0.1145  0.2361  0.6941
 1783TIP3    H126908   2.528   4.919   8.319  0.2906 -0.4664  1.7365
 1783TIP3    H226909   2.554   4.780   8.264  0.7937 -0.0976  1.0269
 1784TIP3   OH226910   1.373   6.848   0.542 -0.5486  0.5243 -0.1433
 1784TIP3    H126911   1.337   6.924   0.496 -0.7222 -0.3211 -1.4603
 1784TIP3    H226912   1.314   6.834   0.616 -1.0587  1.1007 -0.4348
 1785TIP3   OH226913   5.327   0.915   1.926  0.5531  0.0095  0.1963
 1785TIP3    H126914   5.334   0.861   2.005 -1.4574 -1.9424 -0.8440
 1785TIP3    H226915   5.267   0.986   1.951  1.0128  0.1926  0.8020
 1786TIP3   OH226916   2.248   5.052   1.693  0.0814  0.6530 -0.4873
 1786TIP3    H126917   2.319   5.036   1.754 -1.2137 -0.3308  0.8535
 1786TIP3    H226918   2.223   4.965   1.662 -0.0593  1.0460 -1.5071
 1787TIP3   OH226919   0.555   0.432   0.800 -0.2350  0.5210  0.0113
 1787TIP3    H126920   0.557   0.340   0.825 -0.5535  0.0857 -1.4466
 1787TIP3    H226921   0.495   0.472   0.863 -0.0796 -0.2572  0.6765
 1788TIP3   OH226922   1.818   3.519   8.263  0.0030  0.1624 -0.4647
 1788TIP3    H126923   1.783   3.453   8.324 -1.2756  1.7360  0.5885
 1788TIP3    H226924   1.746   3.534   8.201 -0.3620  1.6725  0.2685
 1789TIP3   OH226925   3.870   0.686   0.812  0.3329  0.0695  0.4363
 1789TIP3    H126926   3.961   0.686   0.840  0.2784 -2.3940  0.7938
 1789TIP3    H226927   3.851   0.595   0.791 -2.1021  0.4885  0.5140
 1790TIP3   OH226928   2.782   2.597   1.443 -0.0129  0.3592  0.0729
 1790TIP3    H126929   2.796   2.661   1.373 -0.1027 -0.6281 -0.8786
 1790TIP3    H226930   2.757   2.650   1.518 -2.0933  1.3304 -1.2050
 1791TIP3   OH226931   6.899   6.417   7.275  0.4932  0.0523 -0.4520
 1791TIP3    H126932   6.956   6.481   7.316  0.5181  0.5007 -1.1673
 1791TIP3    H226933   6.828   6.469   7.237  0.3330 -0.3726 -0.7421
 1792TIP3   OH226934   0.321   5.075   6.985  0.8487  0.2699  0.0265
 1792TIP3    H126935   0.255   5.012   6.959 -1.6553  2.5504  0.4243
 1792TIP3    H226936   0.376   5.027   7.047 -1.6805 -1.2236  1.2915
 1793TIP3   OH226937   1.855   0.686   7.491 -0.0231  0.4273  0.3734
 1793TIP3    H126938   1.949   0.688   7.473  0.1805 -0.6252  1.2390
 1793TIP3    H226939   1.819   0.631   7.422  0.4655 -1.8218  1.8079
 1794TIP3   OH226940   5.695   3.972   1.392 -0.0861 -0.0712 -0.3988
 1794TIP3    H126941   5.723   4.016   1.312 -2.0109 -1.5708 -2.0145
 1794TIP3    H226942   5.603   3.950   1.376 -0.2256 -1.4191  1.7951
 1795TIP3   OH226943   3.766   3.040   2.223  0.1934 -0.0437 -0.0667
 1795TIP3    H126944   3.676   3.064   2.246  1.4414  2.1379  3.4872
 1795TIP3    H226945   3.790   3.102   2.154 -1.0906 -0.9696 -1.4078
 1796TIP3   OH226946   0.985   6.495   1.990 -0.1095 -0.6133  0.2450
 1796TIP3    H126947   1.064   6.468   2.037  0.5023  0.2780 -0.2465
 1796TIP3    H226948   1.017   6.546   1.916 -1.1392 -0.4634 -0.1152
 1797TIP3   OH226949   2.150   2.497   7.080  0.5418  0.1248 -0.4409
 1797TIP3    H126950   2.191   2.428   7.028 -1.6000 -0.4151 -1.5282
 1797TIP3    H226951   2.118   2.452   7.158  0.1626  0.1012 -0.6065
 1798TIP3   OH226952   1.752   3.390   0.427  0.1379 -0.9007  0.6559
 1798TIP3    H126953   1.787   3.311   0.467  1.0978 -0.2647  1.1000
 1798TIP3    H226954   1.760   3.457   0.495  1.6207  0.1567 -0.4994
 1799TIP3   OH226955   6.468   3.441   7.965 -0.0530 -0.5104  0.2114
 1799TIP3    H126956   6.531   3.512   7.974 -0.4421 -0.3434  2.1585
 1799TIP3    H226957   6.420   3.460   7.885  1.2852  0.2293 -0.4331
 1800TIP3   OH226958   0.479   2.735   1.370 -0.6302  0.0594  0.7689
 1800TIP3    H126959   0.560   2.752   1.417 -1.7227  0.4879  2.5596
 1800TIP3    H226960   0.474   2.639   1.366  1.8676 -0.1478 -2.9101
 1801TIP3   OH226961   4.251   1.330   0.907 -0.0236  0.4110  0.5415
 1801TIP3    H126962   4.213   1.282   0.980 -0.2476  1.8851  1.4328
 1801TIP3    H226963   4.330   1.281   0.883  0.1866  0.0447  1.9381
 1802TIP3   OH226964   6.921   2.245   8.226 -0.0436 -0.0602 -0.3733
 1802TIP3    H126965   6.827   2.230   8.231 -0.4730  1.7295 -1.7571
 1802TIP3    H226966   6.950   2.192   8.152 -0.1460  0.0444 -0.4906
 1803TIP3   OH226967   5.162   1.782   8.255  0.2053 -0.1556 -0.4440
 1803TIP3    H126968   5.230   1.848   8.259 -0.7366  0.8445 -0.3579
 1803TIP3    H226969   5.113   1.803   8.175 -0.0061 -0.8552 -0.5107
 1804TIP3   OH226970   0.376   2.336   6.543  0.1734  0.2146 -0.2350
 1804TIP3    H126971   0.416   2.416   6.508  1.1184  0.0087  0.3239
 1804TIP3    H226972   0.354   2.284   6.466 -0.0199  0.8146 -0.5881
 1805TIP3   OH226973   2.349   2.779   7.437  0.2421  0.0871  0.2523
 1805TIP3    H126974   2.362   2.754   7.346 -0.1965 -0.1165  0.2445
 1805TIP3    H226975   2.420   2.841   7.455 -0.0907  0.6796 -0.4361
 1806TIP3   OH226976   1.555   6.010   0.902 -0.3189 -0.0615 -0.2831
 1806TIP3    H126977   1.564   5.950   0.828 -1.5267  0.1495 -0.6164
 1806TIP3    H226978   1.590   5.962   0.976  0.4060 -0.4837 -0.8858
 1807TIP3   OH226979   2.947   2.373   6.966 -0.4114  0.2871  0.0681
 1807TIP3    H126980   2.938   2.326   7.049  0.8741  0.6399  0.4247
 1807TIP3    H226981   2.899   2.319   6.903  1.0761 -1.5730  0.4446
 1808TIP3   OH226982   2.760   0.134   2.185  0.1572  0.3999  0.5030
 1808TIP3    H126983   2.744   0.208   2.244 -1.3405 -0.6631  1.5195
 1808TIP3    H226984   2.717   0.158   2.103 -1.8352  0.0169  1.3686
 1809TIP3   OH226985   1.207   0.371   8.182  0.3926 -0.4053  0.1082
 1809TIP3    H126986   1.165   0.440   8.129  1.2171 -1.1516 -1.6017
 1809TIP3    H226987   1.164   0.378   8.268 -0.5462  1.2965 -0.4319
 1810TIP3   OH226988   6.679   2.749   0.039 -0.1259 -0.2422 -0.6846
 1810TIP3    H126989   6.695   2.713   0.126 -1.2859  0.0001 -0.3584
 1810TIP3    H226990   6.761   2.732  -0.009  1.2295  1.2625  0.9748
 1811TIP3   OH226991   2.767   1.529   7.846  0.1506  0.3186  0.0550
 1811TIP3    H126992   2.741   1.597   7.782  1.3035  1.3485  0.6477
 1811TIP3    H226993   2.712   1.454   7.824 -0.6988  1.2248 -1.0521
 1812TIP3   OH226994   0.293   5.031   8.247 -0.0804  0.6334 -0.2472
 1812TIP3    H126995   0.208   5.032   8.292 -0.5167  0.0475 -1.0390
 1812TIP3    H226996   0.353   4.991   8.309 -0.5426  0.3839  0.0432
 1813TIP3   OH226997   1.370   1.362   6.482  0.1015  0.1574  1.1269
 1813TIP3    H126998   1.391   1.269   6.472 -2.2239 -0.2127 -1.7020
 1813TIP3    H226999   1.451   1.407   6.457 -0.0047 -1.1753 -2.1556
 1814TIP3   OH227000   1.342   2.503   1.421  0.0966 -0.3825  0.4874
 1814TIP3    H127001   1.391   2.524   1.501  1.2154  0.1512 -0.3161
 1814TIP3    H227002   1.409   2.484   1.356 -0.7763 -0.0333 -0.5415
 1815TIP3   OH227003   2.457   3.100   0.915 -0.2882 -0.5254 -0.3536
 1815TIP3    H127004   2.421   3.050   0.988 -0.7705 -2.4328 -1.8335
 1815TIP3    H227005   2.527   3.045   0.880  1.8503  1.5850  0.3251
 1816TIP3   OH227006   6.214   2.556   8.112 -0.0521 -0.1465  0.4609
 1816TIP3    H127007   6.165   2.632   8.142  1.2701  1.0426 -0.2234
 1816TIP3    H227008   6.292   2.554   8.168  0.1382 -0.7439  0.1860
 1817TIP3   OH227009   5.711   3.355   0.234  0.5676 -0.0759  0.3961
 1817TIP3    H127010   5.683   3.444   0.212  0.5748 -0.2058 -0.1562
 1817TIP3    H227011   5.631   3.310   0.260  0.0648 -0.6522 -1.8666
 1818TIP3   OH227012   4.108   3.264   1.267 -0.1340  0.5039 -0.2046
 1818TIP3    H127013   4.038   3.231   1.324  0.0879 -1.0793 -0.7960
 1818TIP3    H227014   4.163   3.317   1.325  1.3580 -2.8228  1.7433
 1819TIP3   OH227015   3.646   3.395   7.526 -0.3756 -0.7207 -1.2026
 1819TIP3    H127016   3.641   3.302   7.502 -0.4945 -0.6943 -1.2816
 1819TIP3    H227017   3.646   3.441   7.442  0.0693 -0.6666 -1.1750
 1820TIP3   OH227018   1.345   4.505   1.809  0.6723 -0.3085 -0.1474
 1820TIP3    H127019   1.376   4.534   1.895  0.2688  0.2832 -0.1949
 1820TIP3    H227020   1.249   4.508   1.816  0.6369  0.3419 -0.8135
 1821TIP3   OH227021   2.677   1.065   1.345 -0.5267  0.1598  0.1035
 1821TIP3    H127022   2.611   1.056   1.414 -0.9088 -0.0507 -0.2812
 1821TIP3    H227023   2.732   1.137   1.374 -0.8802  0.2865  0.4741
 1822TIP3   OH227024   2.967   1.407   0.446 -0.1106 -0.5971  0.3609
 1822TIP3    H127025   2.949   1.402   0.352 -0.0405 -1.6100  0.3906
 1822TIP3    H227026   2.889   1.372   0.488  0.5266 -1.7796  0.6095
 1823TIP3   OH227027   0.162   6.923   7.669  0.5796 -0.1296  0.3791
 1823TIP3    H127028   0.175   7.016   7.684 -0.7546 -0.0886  1.3957
 1823TIP3    H227029   0.106   6.894   7.741  0.1756 -1.5094 -0.4504
 1824TIP3   OH227030   3.773   2.218   2.953  0.2813  0.2908 -0.2611
 1824TIP3    H127031   3.689   2.185   2.984 -0.8065  1.4337 -1.8410
 1824TIP3    H227032   3.751   2.297   2.904  1.9036 -1.0692 -3.4744
 1825TIP3   OH227033   1.879   3.957   0.967  0.6568  0.3517 -0.2800
 1825TIP3    H127034   1.851   4.041   0.930 -0.2172  1.0947  1.9006
 1825TIP3    H227035   1.974   3.956   0.955  0.8299  2.1731  0.5716
 1826TIP3   OH227036   2.252   0.658   0.257  0.8666 -0.4357  0.4791
 1826TIP3    H127037   2.184   0.613   0.207  0.3817 -2.9578  3.1659
 1826TIP3    H227038   2.311   0.695   0.191 -1.6632 -0.3820 -1.9074
 1827TIP3   OH227039   2.126   1.855   1.409  0.4037  0.1918  0.4520
 1827TIP3    H127040   2.095   1.842   1.499 -0.4158  2.0468  0.4860
 1827TIP3    H227041   2.120   1.949   1.395 -2.1757 -0.2615 -2.4841
 1828TIP3   OH227042   1.841   3.242   0.055  0.2644 -0.6075  0.2266
 1828TIP3    H127043   1.790   3.201   0.124  1.1042  0.2350  1.3844
 1828TIP3    H227044   1.932   3.236   0.085  0.9285 -2.1720 -1.8278
 1829TIP3   OH227045   6.293   0.683   0.674 -0.1740  0.3116 -0.1797
 1829TIP3    H127046   6.355   0.656   0.606  1.2422  1.8060  0.4174
 1829TIP3    H227047   6.274   0.775   0.654 -0.2788  0.5755  1.0209
 1830TIP3   OH227048   0.541   3.999   0.835  0.6716  0.5382  0.2803
 1830TIP3    H127049   0.472   4.051   0.876  0.9140  0.6942  0.4938
 1830TIP3    H227050   0.529   3.911   0.870  0.7258  0.6174  0.4986
 1831TIP3   OH227051   0.266   5.840   0.436 -0.8670 -0.0813 -0.5220
 1831TIP3    H127052   0.346   5.793   0.460 -0.0268  1.7807  0.4522
 1831TIP3    H227053   0.214   5.843   0.516 -0.8405  0.7744 -0.5274
 1832TIP3   OH227054   1.883   1.605   7.219  0.0127  0.4065 -0.1534
 1832TIP3    H127055   1.934   1.683   7.241 -0.6970  1.2261 -1.3427
 1832TIP3    H227056   1.871   1.561   7.303 -1.8297  2.9557  1.0335
 1833TIP3   OH227057   2.040   0.285   7.858 -0.0247  0.3396  0.1565
 1833TIP3    H127058   2.050   0.254   7.948 -0.0970 -0.9637 -0.2643
 1833TIP3    H227059   2.124   0.326   7.837  0.6611 -0.9896  0.2188
 1834TIP3   OH227060   3.946   2.371   8.201  0.4693 -0.0812  0.3525
 1834TIP3    H127061   3.879   2.364   8.269  1.8130  0.6586  1.8235
 1834TIP3    H227062   4.026   2.340   8.243  1.6615  1.8368 -0.3685
 1835TIP3   OH227063   2.506   1.674   2.518 -0.1275  0.4703  0.2831
 1835TIP3    H127064   2.470   1.756   2.485 -0.4548 -0.3894 -1.5998
 1835TIP3    H227065   2.438   1.609   2.504  1.2571 -0.7413 -1.2646
 1836TIP3   OH227066   4.001   1.221   7.996  0.6828 -0.0880  0.3110
 1836TIP3    H127067   4.061   1.220   7.921 -0.4391  1.0984 -0.6371
 1836TIP3    H227068   3.916   1.246   7.959 -0.0622 -0.1821  1.8699
 1837TIP3   OH227069   2.902   2.610   0.409  0.1994  0.6378 -0.6820
 1837TIP3    H127070   2.870   2.528   0.371  0.2071  0.3293 -0.0352
 1837TIP3    H227071   2.825   2.649   0.450  0.1595  1.0394 -1.1341
 1838TIP3   OH227072   2.001   0.181   1.316  0.1756 -0.0985  0.2999
 1838TIP3    H127073   2.089   0.190   1.353  0.2373 -0.6489  0.2985
 1838TIP3    H227074   1.957   0.262   1.341  0.8023  0.3575 -0.0355
 1839TIP3   OH227075   0.175   6.648   6.729 -0.3307  0.0635 -0.1238
 1839TIP3    H127076   0.180   6.555   6.747 -0.7453 -0.4816 -2.4661
 1839TIP3    H227077   0.132   6.654   6.644 -0.1391  2.3832 -0.1362
 1840TIP3   OH227078   5.319   1.292   8.018  0.0314  0.3857  0.5623
 1840TIP3    H127079   5.384   1.362   8.031  0.7331 -0.2881  0.7455
 1840TIP3    H227080   5.294   1.299   7.926  1.8116 -0.5511 -0.0467
 1841TIP3   OH227081   4.101   2.443   1.641  0.3576 -0.8168 -0.0325
 1841TIP3    H127082   4.088   2.485   1.726  0.8063 -0.7493  0.0061
 1841TIP3    H227083   4.157   2.504   1.593 -0.1432 -0.7101 -0.4879
 1842TIP3   OH227084   6.349   3.954   1.308  0.0701  0.2309  0.3500
 1842TIP3    H127085   6.366   3.929   1.217  2.1361  1.8571  0.2149
 1842TIP3    H227086   6.312   3.875   1.347  1.6482 -1.4254 -1.2479
 1843TIP3   OH227087   5.853   0.785   0.110  0.5774  0.1728 -0.1765
 1843TIP3    H127088   5.897   0.750   0.187 -0.7218  0.2613  0.6226
 1843TIP3    H227089   5.811   0.709   0.070 -1.5519  0.5997  1.1016
 1844TIP3   OH227090   3.244   2.367   0.953  0.4172  0.2983  0.4080
 1844TIP3    H127091   3.166   2.404   0.994  0.7483  1.7787 -0.2457
 1844TIP3    H227092   3.314   2.380   1.018  0.4622  0.4848  0.3213
 1845TIP3   OH227093   5.494   3.849   7.412  0.3026  0.2704 -0.0836
 1845TIP3    H127094   5.531   3.926   7.369  0.7232  0.3302  0.3696
 1845TIP3    H227095   5.570   3.795   7.433  0.0019 -0.3030 -0.4603
 1846TIP3   OH227096   3.664   3.797   2.240 -0.4625 -0.3135  0.2230
 1846TIP3    H127097   3.755   3.766   2.233 -0.2337  0.6355 -1.5348
 1846TIP3    H227098   3.664   3.855   2.316  0.2361 -0.8408  0.6368
 1847TIP3   OH227099   3.401   4.614   0.880  0.1313  0.3929  0.5723
 1847TIP3    H127100   3.327   4.565   0.845  1.3834 -0.8267 -0.4861
 1847TIP3    H227101   3.406   4.587   0.972 -0.2789 -0.0914  0.4573
 1848TIP3   OH227102   3.676   1.452   0.850  0.3356 -0.0440 -0.4069
 1848TIP3    H127103   3.750   1.402   0.885 -0.6438 -0.9061  0.4933
 1848TIP3    H227104   3.673   1.531   0.904  0.8693  0.2157 -0.7470
 1849TIP3   OH227105   0.275   0.019   2.129  0.1592 -0.9726  0.4111
 1849TIP3    H127106   0.293  -0.073   2.149 -1.9264 -1.4655  0.2020
 1849TIP3    H227107   0.318   0.067   2.200 -1.4308 -2.3082  2.3944
 1850TIP3   OH227108   6.138   3.990   6.509  0.1249 -0.1013  0.4009
 1850TIP3    H127109   6.185   4.003   6.427 -0.3181 -1.3387 -0.0799
 1850TIP3    H227110   6.205   3.999   6.577  0.1395  2.9125  0.0966
 1851TIP3   OH227111   1.189   4.687   6.439 -0.4880  0.1040 -0.1635
 1851TIP3    H127112   1.179   4.695   6.534  1.0013 -3.5234  0.4524
 1851TIP3    H227113   1.100   4.670   6.407 -0.8447  0.2804  0.7056
 1852TIP3   OH227114   3.618   6.069   2.292  0.7610 -0.4995  0.2348
 1852TIP3    H127115   3.652   5.982   2.313  1.0074 -0.9928 -1.9380
 1852TIP3    H227116   3.571   6.096   2.371  1.4490 -2.1948  1.2957
 1853TIP3   OH227117   3.751   1.924   6.638 -0.2000  0.1123  0.4074
 1853TIP3    H127118   3.780   1.994   6.579  1.0312  0.4788  1.3876
 1853TIP3    H227119   3.661   1.906   6.611  0.5129 -0.2019 -1.9848
 1854TIP3   OH227120   4.865   3.717   1.523  0.0161  0.2031  0.7443
 1854TIP3    H127121   4.860   3.639   1.468 -0.7410  1.0975 -0.4907
 1854TIP3    H227122   4.939   3.700   1.582  0.3327 -1.1195  0.0015
 1855TIP3   OH227123   5.026   4.236   0.909  0.4937  0.3855 -0.1396
 1855TIP3    H127124   5.068   4.240   0.995 -3.5384 -0.0461  2.1142
 1855TIP3    H227125   5.055   4.316   0.864  1.4536  1.5180  2.3044
 1856TIP3   OH227126   1.161   5.280   8.216 -0.3161 -0.3720  0.1564
 1856TIP3    H127127   1.249   5.248   8.237  0.4323  1.1513 -0.4914
 1856TIP3    H227128   1.162   5.292   8.121 -0.7228  0.9879  0.2991
 1857TIP3   OH227129   2.095   4.878   2.313  0.5222  0.1911 -0.0347
 1857TIP3    H127130   2.159   4.906   2.248  2.4383 -2.3871  0.5904
 1857TIP3    H227131   2.141   4.885   2.396 -0.7544  0.2770  0.6808
 1858TIP3   OH227132   0.852   0.042   7.363  0.0578 -0.3510 -0.1446
 1858TIP3    H127133   0.849   0.083   7.277  0.9018 -1.3508 -0.6647
 1858TIP3    H227134   0.836   0.114   7.424  0.0550  0.4762 -1.0998
 1859TIP3   OH227135   1.637   2.862   1.603  0.2665 -0.0441 -0.2709
 1859TIP3    H127136   1.645   2.900   1.690  0.1144  0.7203 -0.5750
 1859TIP3    H227137   1.725   2.871   1.565 -0.5645  3.5591 -1.7167
 1860TIP3   OH227138   3.896   5.655   1.242 -0.6034 -0.4464  0.2302
 1860TIP3    H127139   3.889   5.685   1.332  1.1296  0.0390  0.2344
 1860TIP3    H227140   3.979   5.607   1.239  1.0549  2.2710 -1.8088
 1861TIP3   OH227141   2.191   0.605   8.287 -0.0514  0.2803 -0.0334
 1861TIP3    H127142   2.134   0.681   8.294  0.4501  0.5245  2.2635
 1861TIP3    H227143   2.276   0.642   8.262  0.3368  0.6069  1.6435
 1862TIP3   OH227144   0.747   1.424   1.679  0.5602  0.5131  0.3642
 1862TIP3    H127145   0.741   1.329   1.669  0.2323  0.5325  0.3731
 1862TIP3    H227146   0.661   1.457   1.650  0.0876  0.6829  1.9084
 1863TIP3   OH227147   2.938   5.827   0.405  0.3292 -0.1375  0.5244
 1863TIP3    H127148   2.892   5.765   0.461 -1.4234  0.6615  0.0493
 1863TIP3    H227149   2.945   5.906   0.458 -0.4078  0.2860  0.0131
 1864TIP3   OH227150   3.773   6.979   1.353 -0.5691  0.4389  0.4246
 1864TIP3    H127151   3.836   6.930   1.405  0.2766  1.1839  0.1112
 1864TIP3    H227152   3.721   6.911   1.309  0.3149 -0.1781  0.3164
 1865TIP3   OH227153   4.355   5.681   7.402  0.4020  0.4421 -0.2216
 1865TIP3    H127154   4.327   5.592   7.424  1.9572 -0.1317 -0.4667
 1865TIP3    H227155   4.424   5.701   7.466 -0.2756  1.7017  0.1750
 1866TIP3   OH227156   5.718   2.085   0.082 -0.3592 -0.3232  0.0715
 1866TIP3    H127157   5.788   2.027   0.112 -0.1090 -0.7453 -1.2882
 1866TIP3    H227158   5.682   2.121   0.163  0.4942 -1.1789  0.8687
 1867TIP3   OH227159   5.052   2.340   7.708  0.2408 -0.4948 -0.0444
 1867TIP3    H127160   5.069   2.382   7.623  1.9062  2.4231  1.5858
 1867TIP3    H227161   4.988   2.397   7.750 -0.7237 -2.0264  0.6575
 1868TIP3   OH227162   1.607   0.834   7.534 -0.0984  0.0420  0.3473
 1868TIP3    H127163   1.670   0.762   7.535 -0.7174 -0.5392  2.8419
 1868TIP3    H227164   1.524   0.794   7.560 -0.5728  1.5303  1.2567
 1869TIP3   OH227165   4.714   2.637   1.164  0.2445 -0.0249  0.1560
 1869TIP3    H127166   4.716   2.723   1.205  2.0733  0.3832 -0.7121
 1869TIP3    H227167   4.757   2.579   1.227  1.6675  0.3011 -0.4849
 1870TIP3   OH227168   4.931   4.543   6.573 -0.2415 -0.4732 -0.6217
 1870TIP3    H127169   4.966   4.487   6.505 -0.0596 -0.7492 -0.3054
 1870TIP3    H227170   4.954   4.632   6.545 -0.6495 -0.5437 -1.1883
 1871TIP3   OH227171   3.546   1.844   7.680  0.2575 -0.3230 -0.2715
 1871TIP3    H127172   3.502   1.871   7.600 -1.9950  0.4485  1.1425
 1871TIP3    H227173   3.599   1.919   7.705  1.5890 -0.8402 -1.3688
 1872TIP3   OH227174   6.548   6.985   1.568 -0.1240 -0.5357 -0.0486
 1872TIP3    H127175   6.556   6.896   1.604 -1.5645 -1.2021 -1.2636
 1872TIP3    H227176   6.636   7.005   1.535  0.6647 -0.7799  1.7725
 1873TIP3   OH227177   5.777   3.627   6.211 -0.6930 -0.3544  0.5622
 1873TIP3    H127178   5.755   3.598   6.300  0.0503  1.1026  1.2581
 1873TIP3    H227179   5.855   3.576   6.188 -1.6869 -1.7506  0.1553
 1874TIP3   OH227180   3.774   2.865   7.828 -0.3857  0.5460 -0.7973
 1874TIP3    H127181   3.821   2.902   7.903 -0.7488 -1.7630  0.6643
 1874TIP3    H227182   3.841   2.854   7.761  0.2012  1.4894 -0.3905
 1875TIP3   OH227183   5.972   6.533   2.233 -0.0599 -0.3374 -0.0991
 1875TIP3    H127184   5.948   6.621   2.261 -0.1455 -0.2102 -0.5658
 1875TIP3    H227185   6.007   6.492   2.312  2.0194  0.8212 -0.3496
 1876TIP3   OH227186   2.147   4.762   7.130 -0.1993 -0.2225  0.9057
 1876TIP3    H127187   2.075   4.795   7.076  0.1136 -0.0176  0.6146
 1876TIP3    H227188   2.206   4.836   7.140 -1.4959  0.5847  3.7006
 1877TIP3   OH227189   6.639   1.887   1.408 -0.1396  0.1757  0.3332
 1877TIP3    H127190   6.562   1.832   1.394 -2.8353  3.6397  0.3309
 1877TIP3    H227191   6.650   1.889   1.503  0.0049 -0.3390  0.3325
 1878TIP3   OH227192   1.798   2.265   1.490 -0.2410  0.0242 -0.8496
 1878TIP3    H127193   1.875   2.249   1.545  0.5971  0.9314 -1.7408
 1878TIP3    H227194   1.724   2.257   1.551  0.7422  3.9900  1.2164
 1879TIP3   OH227195   4.578   6.816   7.812 -0.3054  0.2697  0.3014
 1879TIP3    H127196   4.562   6.730   7.772  0.4993 -0.1699  0.8806
 1879TIP3    H227197   4.498   6.836   7.859 -0.4436 -0.2378  0.2887
 1880TIP3   OH227198   5.281   0.833   0.946 -0.4713 -0.0290  0.4599
 1880TIP3    H127199   5.310   0.923   0.934  0.9861 -0.4458  0.6732
 1880TIP3    H227200   5.187   0.840   0.962 -0.3162  1.4770  0.8609
 1881TIP3   OH227201   2.801   2.338   7.923  0.0301 -0.5156  0.5769
 1881TIP3    H127202   2.891   2.324   7.953  0.1323 -0.4350  0.3075
 1881TIP3    H227203   2.756   2.256   7.944  0.7694 -1.5482 -1.5492
 1882TIP3   OH227204   4.724   3.379   7.449  0.2420 -0.2335  0.8367
 1882TIP3    H127205   4.663   3.399   7.520  0.3014 -0.1788  0.8721
 1882TIP3    H227206   4.729   3.460   7.398 -1.7072 -0.9644 -0.6664
 1883TIP3   OH227207   5.877   1.432   1.363  0.0371  0.0381  0.2641
 1883TIP3    H127208   5.829   1.354   1.334 -0.5206  0.5521 -0.2217
 1883TIP3    H227209   5.822   1.505   1.335  0.4750  0.6019  0.8707
 1884TIP3   OH227210   3.896   3.558   6.380 -0.0961  0.2844 -0.3443
 1884TIP3    H127211   3.991   3.549   6.381 -0.0999  0.2565 -0.1769
 1884TIP3    H227212   3.874   3.575   6.288 -0.0051 -0.5142 -0.5179
 1885TIP3   OH227213   1.053   0.772   7.762  0.2126 -0.3178  0.4744
 1885TIP3    H127214   1.102   0.774   7.845  0.1604 -1.6370  0.5592
 1885TIP3    H227215   0.979   0.714   7.780 -0.5033  0.4054 -0.1253
 1886TIP3   OH227216   0.649   2.192   1.301  0.5043  0.4430 -0.8963
 1886TIP3    H127217   0.561   2.165   1.277  0.2267 -0.5657  1.0462
 1886TIP3    H227218   0.692   2.112   1.329  1.3921  1.2098  0.0300
 1887TIP3   OH227219   1.795   0.556   7.228 -0.3178  0.2088 -0.3684
 1887TIP3    H127220   1.750   0.482   7.188  0.4056 -0.4278 -0.0509
 1887TIP3    H227221   1.813   0.616   7.156 -0.3512 -0.2269 -0.7422
 1888TIP3   OH227222   1.732   2.944   8.031  0.2586  0.3868 -0.3182
 1888TIP3    H127223   1.718   3.024   8.082 -0.8848  1.0604 -1.6341
 1888TIP3    H227224   1.644   2.911   8.013  0.6276  0.0611 -1.6521
 1889TIP3   OH227225   5.851   6.820   0.598 -0.3347  0.4586  0.0842
 1889TIP3    H127226   5.795   6.764   0.544  2.0051 -1.4385 -0.5188
 1889TIP3    H227227   5.863   6.771   0.679  0.8436  0.5868  0.0007
 1890TIP3   OH227228   2.054   0.807   1.433  0.1585  0.3652 -0.1850
 1890TIP3    H127229   2.015   0.739   1.487  0.2204  0.7328  0.3362
 1890TIP3    H227230   1.999   0.884   1.448  1.9843  1.3648  1.8488
 1891TIP3   OH227231   5.895   0.552   0.804  0.1256  0.0856 -0.3303
 1891TIP3    H127232   5.843   0.482   0.765  0.2928  0.0967 -0.5823
 1891TIP3    H227233   5.849   0.576   0.884  0.6283 -1.0244  0.3010
 1892TIP3   OH227234   3.319   0.219   2.160 -0.3899  0.1366 -0.5933
 1892TIP3    H127235   3.229   0.214   2.192  0.2666 -0.3182  1.2776
 1892TIP3    H227236   3.333   0.137   2.113 -1.1873  0.5723 -1.6425
 1893TIP3   OH227237   0.086   0.214   1.322  0.0313 -0.2642  0.5437
 1893TIP3    H127238   0.006   0.164   1.305  0.2565 -0.0141 -1.3815
 1893TIP3    H227239   0.107   0.193   1.413 -2.6313  0.2463  1.3957
 1894TIP3   OH227240   5.528   6.141   2.085 -0.1511  0.8390  0.1802
 1894TIP3    H127241   5.535   6.123   1.991 -0.7913 -0.6901  0.3800
 1894TIP3    H227242   5.526   6.054   2.125 -1.2942  1.4398  1.4975
 1895TIP3   OH227243   4.911   3.299   7.622  0.4553  0.0193 -0.3502
 1895TIP3    H127244   4.982   3.361   7.604 -0.3599  1.1735  0.2309
 1895TIP3    H227245   4.842   3.323   7.560 -0.3163  0.4869  0.6612
 1896TIP3   OH227246   2.313   3.534   6.109  0.4863 -0.2163  0.1637
 1896TIP3    H127247   2.261   3.533   6.028 -0.0643  0.0248  0.5052
 1896TIP3    H227248   2.397   3.496   6.084  0.2108 -0.4426 -0.4496
 1897TIP3   OH227249   0.802   1.263   7.734 -0.2249  0.3753  0.3549
 1897TIP3    H127250   0.894   1.242   7.750 -0.6047  0.2976  2.8160
 1897TIP3    H227251   0.768   1.189   7.684  0.9747  0.3161 -0.4042
 1898TIP3   OH227252   5.104   1.381   2.311 -0.2567 -0.1987 -0.4872
 1898TIP3    H127253   5.068   1.443   2.247 -0.4099 -1.4994 -1.7093
 1898TIP3    H227254   5.116   1.433   2.390  2.2896  2.1486 -2.2038
 1899TIP3   OH227255   1.752   1.612   0.466  0.2246  0.0759  0.1027
 1899TIP3    H127256   1.686   1.551   0.432  0.5946 -0.4863  0.3700
 1899TIP3    H227257   1.712   1.649   0.544  0.5397 -0.9059  0.7523
 1900TIP3   OH227258   6.395   5.732   8.203 -0.3017  0.5061 -0.4763
 1900TIP3    H127259   6.385   5.637   8.197 -2.4332  0.7647 -2.1153
 1900TIP3    H227260   6.306   5.766   8.208  0.4181  2.4335  0.3378
 1901TIP3   OH227261   4.598   6.438   1.833  0.0224 -0.4975  0.0648
 1901TIP3    H127262   4.591   6.373   1.903 -1.0307 -0.3316  0.1360
 1901TIP3    H227263   4.691   6.444   1.815  0.7186  1.5007  3.4106
 1902TIP3   OH227264   3.411   3.013   1.121  0.7361  0.6423 -0.4575
 1902TIP3    H127265   3.396   2.922   1.145 -1.1991  1.2844  1.0231
 1902TIP3    H227266   3.436   3.056   1.204 -0.3709  1.8153 -0.6976
 1903TIP3   OH227267   2.782   3.226   7.722 -1.1870  0.1311 -0.1252
 1903TIP3    H127268   2.700   3.260   7.686 -1.9689 -0.3619  1.1244
 1903TIP3    H227269   2.755   3.176   7.799  0.2865 -0.1369  0.2394
 1904TIP3   OH227270   6.128   0.408   0.194 -0.1073 -0.0730 -0.1402
 1904TIP3    H127271   6.204   0.372   0.148 -0.9160 -0.1142 -1.4601
 1904TIP3    H227272   6.131   0.365   0.280  1.4715  0.0867 -0.0727
 1905TIP3   OH227273   2.805   3.617   6.340 -0.7785  0.1406  0.2794
 1905TIP3    H127274   2.791   3.712   6.344  0.8257  0.3727  1.0273
 1905TIP3    H227275   2.749   3.582   6.409 -2.1118  0.4217 -0.6184
 1906TIP3   OH227276   2.296   5.007   7.125 -0.2300 -0.3547 -0.2257
 1906TIP3    H127277   2.373   4.974   7.172  1.0946  0.6341 -1.5675
 1906TIP3    H227278   2.291   5.099   7.151  0.0455 -0.0025 -1.3500
 1907TIP3   OH227279   2.399   1.660   8.112  0.5586  0.2000 -0.3711
 1907TIP3    H127280   2.417   1.625   8.025  0.2513 -2.6923  0.6032
 1907TIP3    H227281   2.446   1.743   8.116  0.5964  0.3931 -3.2340
 1908TIP3   OH227282   2.832   5.647   1.639 -0.2905 -0.0376 -0.1076
 1908TIP3    H127283   2.793   5.661   1.553 -0.6826 -1.0122 -0.0917
 1908TIP3    H227284   2.922   5.621   1.621 -0.5246 -0.7565 -0.2420
 1909TIP3   OH227285   3.261   2.421   6.922  0.2183 -0.0400 -0.1639
 1909TIP3    H127286   3.241   2.465   7.004 -0.8074 -0.7187 -0.0394
 1909TIP3    H227287   3.183   2.370   6.902  1.0052 -1.0160 -0.8217
 1910TIP3   OH227288   2.201   1.882   6.367  0.1769  0.1806 -0.0396
 1910TIP3    H127289   2.262   1.931   6.422 -2.6277 -0.7093  4.2824
 1910TIP3    H227290   2.244   1.797   6.353  1.2224  0.6669  0.0898
 1911TIP3   OH227291   5.423   5.012   1.965 -0.2879 -0.2841 -0.6298
 1911TIP3    H127292   5.416   4.936   2.024  0.6310  0.7681  0.9079
 1911TIP3    H227293   5.515   5.013   1.939  0.1014  1.1688  0.6437
 1912TIP3   OH227294   1.784   6.569   7.472 -0.1609 -0.0538  0.2747
 1912TIP3    H127295   1.739   6.494   7.510  2.2276 -1.2138  1.0380
 1912TIP3    H227296   1.734   6.645   7.503 -0.2811 -1.1293  3.0364
 1913TIP3   OH227297   4.279   3.140   7.171 -0.1647  0.2659  0.1521
 1913TIP3    H127298   4.240   3.225   7.149 -0.1174 -0.2053 -1.8979
 1913TIP3    H227299   4.213   3.098   7.227  0.0273  1.8106  1.6226
 1914TIP3   OH227300   0.999   6.134   1.928  0.5395 -0.1758 -0.5583
 1914TIP3    H127301   1.060   6.134   2.002 -1.4184 -0.1856  1.1713
 1914TIP3    H227302   1.051   6.166   1.854  2.4617  0.3871  0.9332
 1915TIP3   OH227303   5.240   2.495   6.670 -0.3895 -0.5217 -0.2100
 1915TIP3    H127304   5.289   2.414   6.656  0.0556  0.0123 -2.1467
 1915TIP3    H227305   5.154   2.478   6.630  0.0206  0.2269 -1.4655
 1916TIP3   OH227306   6.664   2.197   1.294  0.1117  0.1552 -0.3545
 1916TIP3    H127307   6.613   2.158   1.365  1.2178 -1.8703 -0.6012
 1916TIP3    H227308   6.632   2.287   1.288  0.6824  0.7526  3.3715
 1917TIP3   OH227309   6.903   6.613   5.936 -0.4026  0.0189  0.4970
 1917TIP3    H127310   6.974   6.673   5.958  1.0273 -0.1914 -2.9035
 1917TIP3    H227311   6.927   6.530   5.978  0.4512  0.4186  0.8124
 1918TIP3   OH227312   6.755   6.703   0.887  0.2884  0.3427  0.2318
 1918TIP3    H127313   6.673   6.685   0.932  0.1007 -1.2837 -0.6916
 1918TIP3    H227314   6.768   6.628   0.828  3.1343 -0.1852  1.3500
 1919TIP3   OH227315   3.594   5.624   1.342  0.0792  0.3619  0.2188
 1919TIP3    H127316   3.565   5.559   1.278  0.9021  0.7226 -0.5493
 1919TIP3    H227317   3.690   5.620   1.338  0.1476  0.5228  1.3096
 1920TIP3   OH227318   3.007   2.193   2.361  0.2489 -0.4857 -0.3359
 1920TIP3    H127319   2.925   2.173   2.315 -0.3229 -2.7467  1.5029
 1920TIP3    H227320   3.068   2.126   2.330  1.8580  1.8160 -2.5150
 1921TIP3   OH227321   6.163   5.583   2.803 -0.6099  0.2626 -0.2943
 1921TIP3    H127322   6.192   5.650   2.865 -2.6650 -0.9579  2.1860
 1921TIP3    H227323   6.068   5.593   2.799 -0.9823 -2.3223  0.0460
 1922TIP3   OH227324   1.118   6.198   6.329 -0.6057 -0.0017  0.4467
 1922TIP3    H127325   1.033   6.155   6.322 -0.5945  0.0947 -0.2853
 1922TIP3    H227326   1.104   6.287   6.297  0.0406 -0.3495 -0.8694
 1923TIP3   OH227327   0.984   6.148   8.116  0.0873  0.4509  0.1828
 1923TIP3    H127328   1.037   6.205   8.061  2.0561 -0.4896  1.0315
 1923TIP3    H227329   0.921   6.207   8.158  1.0137  1.7470 -0.1984
 1924TIP3   OH227330   6.783   0.362   2.460  0.1350 -0.0375  0.3350
 1924TIP3    H127331   6.769   0.438   2.516  1.2925 -1.2312  2.4079
 1924TIP3    H227332   6.875   0.366   2.436  0.2954 -0.9276  0.7499
 1925TIP3   OH227333   0.125   4.814   7.375 -0.0095  0.3582 -0.1358
 1925TIP3    H127334   0.122   4.878   7.446 -1.3346  1.5186 -1.2006
 1925TIP3    H227335   0.069   4.850   7.306 -0.0436 -1.4925 -1.1574
 1926TIP3   OH227336   6.441   1.136   8.261  0.3076 -0.4718 -0.4665
 1926TIP3    H127337   6.442   1.047   8.225 -0.1794 -0.3864 -0.7107
 1926TIP3    H227338   6.349   1.162   8.255  0.4750  0.1112 -0.5492
 1927TIP3   OH227339   4.736   6.854   8.262  0.1042 -0.3084  0.4182
 1927TIP3    H127340   4.713   6.761   8.257  0.2483 -0.3838  1.0290
 1927TIP3    H227341   4.802   6.866   8.195 -0.2493 -0.5423  0.0193
 1928TIP3   OH227342   2.837   4.541   8.039  0.3916 -0.2002 -0.2875
 1928TIP3    H127343   2.816   4.485   8.114 -0.1547  0.3639 -0.0066
 1928TIP3    H227344   2.932   4.541   8.034  0.4027 -1.1425 -0.2895
 1929TIP3   OH227345   5.511   3.435   2.401  0.3030 -0.0705  0.2182
 1929TIP3    H127346   5.522   3.341   2.418 -0.5920 -0.2152  0.0837
 1929TIP3    H227347   5.445   3.438   2.331  2.4707  0.5656 -1.9200
 1930TIP3   OH227348   4.288   3.867   8.171  0.2228 -0.3962 -0.1255
 1930TIP3    H127349   4.287   3.775   8.143  0.6070  0.3785 -2.9972
 1930TIP3    H227350   4.305   3.863   8.265 -1.1120 -3.2875  0.1121
 1931TIP3   OH227351   6.453   0.910   7.688 -0.3630 -0.1108 -0.3871
 1931TIP3    H127352   6.520   0.951   7.633 -0.3957 -0.0883 -0.4091
 1931TIP3    H227353   6.424   0.979   7.747 -1.0143  0.1190 -0.9754
 1932TIP3   OH227354   0.378   6.827   0.158  0.2026 -0.6161 -0.3888
 1932TIP3    H127355   0.398   6.840   0.066 -0.1592  2.0247 -0.1771
 1932TIP3    H227356   0.462   6.809   0.199  0.7690  0.7559 -0.8924
 1933TIP3   OH227357   0.744   0.450   0.578 -0.6973 -0.1155  0.1626
 1933TIP3    H127358   0.775   0.540   0.581 -0.2072 -0.2979  0.7359
 1933TIP3    H227359   0.663   0.451   0.629 -0.7229  0.0065  0.1206
 1934TIP3   OH227360   5.104   4.029   7.208 -0.1168 -0.5660  0.3561
 1934TIP3    H127361   5.129   3.995   7.294  1.5193 -1.5791 -0.4777
 1934TIP3    H227362   5.116   4.124   7.215  0.2888 -0.6702  1.1559
 1935TIP3   OH227363   6.017   6.395   7.171 -0.2014 -0.1420 -0.5698
 1935TIP3    H127364   5.939   6.381   7.118 -0.6634  0.4060 -0.0466
 1935TIP3    H227365   6.011   6.485   7.201  0.7663 -0.0081 -0.7277
 1936TIP3   OH227366   5.913   6.617   7.721 -0.2997 -0.2341 -0.0544
 1936TIP3    H127367   5.962   6.699   7.714  0.8437 -0.7853  1.1570
 1936TIP3    H227368   5.919   6.578   7.633  1.0331 -0.0453 -0.0688
 1937TIP3   OH227369   1.952   4.701   0.990  0.4124  0.0899  0.6180
 1937TIP3    H127370   2.002   4.679   0.911  0.2952 -0.0756  0.5888
 1937TIP3    H227371   2.017   4.734   1.052  0.3736  1.1623  0.1078
 1938TIP3   OH227372   5.680   2.766   1.759 -0.8233 -0.6280 -0.5060
 1938TIP3    H127373   5.626   2.797   1.687 -0.4826 -0.9010 -0.8827
 1938TIP3    H227374   5.642   2.807   1.837 -1.1781 -0.3164 -0.8401
 1939TIP3   OH227375   6.657   1.238   6.668  0.2123  0.1624 -0.0579
 1939TIP3    H127376   6.715   1.313   6.659  1.7307 -1.2108 -3.0890
 1939TIP3    H227377   6.715   1.165   6.690 -0.6142 -0.8723 -1.1891
 1940TIP3   OH227378   2.458   5.467   0.510  0.2509 -0.6004 -0.2144
 1940TIP3    H127379   2.487   5.386   0.553  0.5314 -0.2120  0.3487
 1940TIP3    H227380   2.381   5.494   0.560  0.5756 -0.1484  0.0474
 1941TIP3   OH227381   2.220   6.957   0.907 -0.0669  0.4211  0.2530
 1941TIP3    H127382   2.254   7.036   0.865  1.7174  0.8445  2.3336
 1941TIP3    H227383   2.162   6.989   0.976  1.1833  0.0126  1.5430
 1942TIP3   OH227384   5.297   6.110   1.395  0.3248 -0.0174  0.3515
 1942TIP3    H127385   5.319   6.041   1.332 -0.7825 -1.1554  1.1708
 1942TIP3    H227386   5.228   6.160   1.352 -1.1627 -1.4148  0.9949
 1943TIP3   OH227387   3.848   1.815   2.293 -0.6425  0.0659  0.6050
 1943TIP3    H127388   3.867   1.865   2.373 -0.6377  0.7041  0.2089
 1943TIP3    H227389   3.929   1.767   2.275 -0.0387  1.2720  0.0187
 1944TIP3   OH227390   6.235   2.781   0.136 -0.5308  0.0168 -0.5291
 1944TIP3    H127391   6.234   2.813   0.046 -0.1962 -0.2409 -0.6254
 1944TIP3    H227392   6.146   2.748   0.151 -0.9803  1.2770 -0.3163
 1945TIP3   OH227393   6.050   5.819   0.769 -0.2680 -0.0934  0.4712
 1945TIP3    H127394   6.023   5.727   0.770 -2.2399  0.4478  1.8089
 1945TIP3    H227395   6.026   5.852   0.855 -2.1792  2.3574 -0.8618
 1946TIP3   OH227396   2.743   6.354   1.615  0.1424 -0.4960 -0.1914
 1946TIP3    H127397   2.754   6.259   1.614 -1.4693 -0.7211 -1.9128
 1946TIP3    H227398   2.803   6.386   1.548  1.0058 -0.2040  0.6829
 1947TIP3   OH227399   0.970   4.029   1.025 -0.1409 -0.4970 -0.2727
 1947TIP3    H127400   1.030   4.052   1.096 -0.0662  0.0068 -0.4950
 1947TIP3    H227401   0.915   3.959   1.061 -1.6929  1.3445  1.1307
 1948TIP3   OH227402   2.437   3.999   7.300  0.0943 -0.5865 -0.5252
 1948TIP3    H127403   2.450   4.046   7.382  0.0499 -0.8696 -0.3547
 1948TIP3    H227404   2.401   3.915   7.326  2.1087 -1.5579 -0.6501
 1949TIP3   OH227405   4.213   4.583   7.163 -0.2860 -0.5968 -0.2407
 1949TIP3    H127406   4.299   4.554   7.193 -0.1997  0.0199  0.1067
 1949TIP3    H227407   4.155   4.511   7.186 -0.0037 -0.6685  0.2662
 1950TIP3   OH227408   1.782   4.054   8.195  0.7020 -0.1197  0.0229
 1950TIP3    H127409   1.721   4.109   8.244  0.9690 -0.5004  0.7933
 1950TIP3    H227410   1.835   4.116   8.144  1.0872  0.3565  0.9809
 1951TIP3   OH227411   4.297   3.977   6.770 -0.1902 -0.2205 -0.0962
 1951TIP3    H127412   4.295   3.943   6.680  2.1987 -2.3820  0.5215
 1951TIP3    H227413   4.365   4.044   6.769  2.6027 -2.8307  0.7104
 1952TIP3   OH227414   2.752   3.576   1.820  0.0802 -0.3407  0.0322
 1952TIP3    H127415   2.777   3.622   1.899  0.4660  0.6651 -0.6585
 1952TIP3    H227416   2.757   3.642   1.751 -3.2138 -0.3759 -0.3928
 1953TIP3   OH227417   4.312   4.221   7.905 -0.6045  0.0610 -0.4984
 1953TIP3    H127418   4.320   4.268   7.988  0.0362 -0.2457 -0.3871
 1953TIP3    H227419   4.223   4.185   7.907 -0.3447 -0.5537  0.3776
 1954TIP3   OH227420   4.704   2.812   2.513  0.1079  0.1312 -0.1183
 1954TIP3    H127421   4.660   2.727   2.524  1.4692 -0.4797  0.8992
 1954TIP3    H227422   4.652   2.872   2.566  0.2139 -0.4907  0.7224
 1955TIP3   OH227423   6.482   6.720   7.120  0.3500  0.0876  0.1325
 1955TIP3    H127424   6.401   6.742   7.168  0.6768  2.0965 -0.1249
 1955TIP3    H227425   6.533   6.801   7.122  0.4384  0.2667 -3.5187
 1956TIP3   OH227426   1.537   2.913   6.827 -0.4197  0.4268 -0.2624
 1956TIP3    H127427   1.603   2.864   6.776  1.3362  0.6518  1.6831
 1956TIP3    H227428   1.511   2.985   6.769  0.5957 -0.0085 -1.3059
 1957TIP3   OH227429   0.344   2.352   6.848  0.3182  0.2733  0.4201
 1957TIP3    H127430   0.310   2.263   6.841  2.0857 -0.4139  0.2744
 1957TIP3    H227431   0.407   2.360   6.777  0.7848  1.3769  0.9264
 1958TIP3   OH227432   2.051   0.345   8.171  0.8637  0.7253  0.3746
 1958TIP3    H127433   2.107   0.270   8.192  0.4039  0.3254  0.1838
 1958TIP3    H227434   2.099   0.420   8.204  0.1827  0.1419  2.8617
 1959TIP3   OH227435   1.158   1.980   0.888  0.4605  0.4871  1.0562
 1959TIP3    H127436   1.157   2.058   0.944 -1.4944  2.6732 -1.6910
 1959TIP3    H227437   1.230   1.995   0.827  0.3590 -0.0997  0.7826
 1960TIP3   OH227438   2.861   5.889   8.122  0.2495 -0.0608 -0.4272
 1960TIP3    H127439   2.910   5.807   8.136  0.5549  0.2663  0.4529
 1960TIP3    H227440   2.772   5.869   8.148  0.0785 -0.4200 -1.2491
 1961TIP3   OH227441   6.894   5.413   0.381  0.0857  0.1097 -0.3426
 1961TIP3    H127442   6.868   5.470   0.309 -0.7055 -0.5533 -0.5946
 1961TIP3    H227443   6.880   5.324   0.348  1.0797 -0.2326  0.1265
 1962TIP3   OH227444   4.561   0.509   0.435  0.1479  0.1140  0.0505
 1962TIP3    H127445   4.539   0.588   0.484 -2.1582 -0.4231  0.0072
 1962TIP3    H227446   4.557   0.536   0.343 -0.5721 -0.0151  0.0377
 1963TIP3   OH227447   4.979   5.750   7.168  0.1784  0.5979  0.1207
 1963TIP3    H127448   4.989   5.811   7.241  1.2008  1.9275 -1.0920
 1963TIP3    H227449   4.950   5.804   7.095  0.9126 -0.3857 -0.9296
 1964TIP3   OH227450   5.414   5.899   7.678 -0.4393 -0.2461 -0.6990
 1964TIP3    H127451   5.468   5.978   7.679 -1.8639  0.8765 -3.2117
 1964TIP3    H227452   5.324   5.931   7.681 -1.0474 -1.8855  0.0456
 1965TIP3   OH227453   1.743   2.541   0.712 -0.1459 -0.0959  0.4762
 1965TIP3    H127454   1.804   2.614   0.724  0.7471 -0.7172 -0.1130
 1965TIP3    H227455   1.757   2.512   0.622 -2.9132  1.1152 -0.4595
 1966TIP3   OH227456   3.111   6.837   0.706  0.6703  0.3036 -0.0850
 1966TIP3    H127457   3.202   6.806   0.703  0.3705 -0.5109 -0.9941
 1966TIP3    H227458   3.101   6.870   0.796  0.8163 -2.8571  1.2194
 1967TIP3   OH227459   2.794   6.251   7.217  0.3328  0.3106 -0.4156
 1967TIP3    H127460   2.744   6.216   7.291 -1.1985  0.4881 -1.3231
 1967TIP3    H227461   2.868   6.296   7.258  0.8863 -1.6285  0.9059
 1968TIP3   OH227462   5.811   4.779   0.719  0.0771 -0.3374 -0.6842
 1968TIP3    H127463   5.748   4.711   0.697  0.9776 -1.2793 -0.4002
 1968TIP3    H227464   5.890   4.756   0.669  1.5023 -1.4131  1.8927
 1969TIP3   OH227465   6.652   4.381   1.206  0.3757 -0.1922 -0.1757
 1969TIP3    H127466   6.659   4.323   1.130  0.2375  2.8583 -2.7183
 1969TIP3    H227467   6.566   4.422   1.197 -0.7998 -1.5651  3.2089
 1970TIP3   OH227468   3.392   4.275   1.366  0.4000 -0.0871 -0.2868
 1970TIP3    H127469   3.400   4.209   1.296 -0.2463 -0.0693 -0.3848
 1970TIP3    H227470   3.319   4.244   1.419  0.7680  0.0041  0.2767
 1971TIP3   OH227471   1.084   6.857   7.642 -0.7181  0.0221 -0.1458
 1971TIP3    H127472   1.158   6.853   7.704 -0.9762 -0.4461  0.1363
 1971TIP3    H227473   1.007   6.844   7.696 -0.9170 -0.8592 -0.6330
 1972TIP3   OH227474   0.491   0.656   1.236  0.4314 -0.0053  0.2972
 1972TIP3    H127475   0.460   0.719   1.301  1.8727 -0.0010  1.0184
 1972TIP3    H227476   0.581   0.636   1.263  0.5114 -1.2245 -0.7887
 1973TIP3   OH227477   5.297   6.380   1.901 -0.4518 -0.0467 -0.1949
 1973TIP3    H127478   5.316   6.290   1.875  1.0863  0.4363 -0.8833
 1973TIP3    H227479   5.301   6.429   1.819 -3.7715  0.3344 -0.2540
 1974TIP3   OH227480   2.455   4.155   0.504  0.1408  0.4410 -0.0207
 1974TIP3    H127481   2.425   4.077   0.551  0.9037 -0.1138 -0.4251
 1974TIP3    H227482   2.433   4.228   0.561 -2.0540  0.0868 -0.3191
 1975TIP3   OH227483   5.567   3.244   1.248  0.5039  0.1984 -0.2349
 1975TIP3    H127484   5.573   3.151   1.271  0.5072  0.1384 -0.4693
 1975TIP3    H227485   5.512   3.282   1.316  0.1415 -0.0597 -0.3774
 1976TIP3   OH227486   3.462   0.196   7.537  0.4487 -0.0041  0.3417
 1976TIP3    H127487   3.466   0.286   7.504  4.0276 -0.7817 -1.8630
 1976TIP3    H227488   3.436   0.144   7.461 -1.2573 -0.9928  1.5158
 1977TIP3   OH227489   6.020   1.974   1.372 -0.1830  0.2081 -0.8482
 1977TIP3    H127490   6.092   2.005   1.426  0.2793 -2.6655  0.3973
 1977TIP3    H227491   6.055   1.898   1.327 -2.1722 -0.7977 -0.8180
 1978TIP3   OH227492   4.169   5.156   2.911  0.4529  0.4626 -0.1128
 1978TIP3    H127493   4.099   5.144   2.975 -0.0426 -2.0085 -0.9846
 1978TIP3    H227494   4.168   5.249   2.890 -2.2157  0.6089  0.3267
 1979TIP3   OH227495   0.493   4.720   6.990  0.7602  0.3864 -0.9425
 1979TIP3    H127496   0.544   4.678   7.060  0.1564  1.4159  0.1555
 1979TIP3    H227497   0.405   4.727   7.026  0.7126  2.0250 -1.3349
 1980TIP3   OH227498   5.861   2.760   0.025 -0.1880 -0.0330  0.2282
 1980TIP3    H127499   5.837   2.677   0.067  0.4833 -0.0724  0.5391
 1980TIP3    H227500   5.806   2.763  -0.054 -1.7558  0.2164  1.2677
 1981TIP3   OH227501   0.968   2.479   0.631  0.1763  0.0890  0.0632
 1981TIP3    H127502   1.012   2.563   0.648 -0.1027 -0.2762  2.9769
 1981TIP3    H227503   0.899   2.474   0.696 -1.3762 -1.3921 -1.5874
 1982TIP3   OH227504   6.242   1.390   0.150 -0.8287 -0.4287 -0.2076
 1982TIP3    H127505   6.155   1.354   0.167 -0.7670  0.4960  2.6714
 1982TIP3    H227506   6.289   1.379   0.233  0.5176  2.4902 -0.4489
 1983TIP3   OH227507   6.880   0.928   2.032  0.0121 -0.3461  0.2116
 1983TIP3    H127508   6.899   1.008   2.081  0.0379  0.7741 -1.5348
 1983TIP3    H227509   6.947   0.866   2.060 -0.9634 -0.3346  2.7803
 1984TIP3   OH227510   2.702   3.643   2.194  0.4152 -0.2730 -0.1143
 1984TIP3    H127511   2.743   3.559   2.174 -1.9707 -1.8805  1.3440
 1984TIP3    H227512   2.746   3.673   2.273  0.4009 -0.7863  0.0905
 1985TIP3   OH227513   6.485   1.506   1.485 -0.2001 -0.3945 -0.4411
 1985TIP3    H127514   6.516   1.459   1.407  0.1416  0.8738 -1.1060
 1985TIP3    H227515   6.460   1.592   1.452 -2.7277 -0.7194  0.3961
 1986TIP3   OH227516   6.312   6.441   0.739  0.1488 -0.0201  0.1885
 1986TIP3    H127517   6.317   6.359   0.690  0.8300  0.3929 -0.4536
 1986TIP3    H227518   6.320   6.509   0.672  0.4778  0.5641  0.8082
 1987TIP3   OH227519   4.291   1.004   8.133 -0.4446  0.2675  0.5007
 1987TIP3    H127520   4.309   1.086   8.179  2.0394  1.4467 -2.3149
 1987TIP3    H227521   4.331   0.936   8.188 -1.6459  0.9611  2.3405
 1988TIP3   OH227522   0.174   6.514   7.140  0.6344  0.1681 -0.6978
 1988TIP3    H127523   0.255   6.549   7.177 -0.8612  1.2548  1.7524
 1988TIP3    H227524   0.132   6.590   7.098 -0.1108  0.1144 -0.0622
 1989TIP3   OH227525   0.636   5.819   0.277  0.7198 -0.3870  0.1669
 1989TIP3    H127526   0.571   5.759   0.242 -0.5721  0.1646  1.5041
 1989TIP3    H227527   0.706   5.763   0.309 -0.8186 -1.2965  2.1367
 1990TIP3   OH227528   4.242   5.917   0.135 -0.0045 -0.0544  0.0610
 1990TIP3    H127529   4.195   6.000   0.131  0.1789  0.1618  1.7681
 1990TIP3    H227530   4.320   5.930   0.080  1.2902  1.7824  2.2043
 1991TIP3   OH227531   2.848   4.845   8.206  0.3391 -0.0693 -0.2432
 1991TIP3    H127532   2.897   4.782   8.259  0.3702  0.9199  0.9269
 1991TIP3    H227533   2.766   4.858   8.253  1.0496  2.0877  0.5066
 1992TIP3   OH227534   5.862   6.020   8.131  0.2282  0.3043  0.1415
 1992TIP3    H127535   5.879   6.100   8.082  2.9965  0.6577  1.4481
 1992TIP3    H227536   5.833   5.957   8.065  0.0004  1.8028 -1.2564
 1993TIP3   OH227537   1.681   2.336   8.251 -0.3207 -0.3108  0.1559
 1993TIP3    H127538   1.615   2.362   8.186 -0.5971  0.1823  0.6239
 1993TIP3    H227539   1.706   2.418   8.293 -0.0901 -0.6192  0.6227
 1994TIP3   OH227540   1.498   0.510   0.230  0.0866 -0.3778  0.2968
 1994TIP3    H127541   1.515   0.510   0.324  0.5281 -1.1488  0.2247
 1994TIP3    H227542   1.414   0.464   0.221  0.3082 -0.7853  0.2774
 1995TIP3   OH227543   5.022   6.778   1.406  0.4292 -0.2922  0.4596
 1995TIP3    H127544   5.006   6.775   1.312  0.8600  0.1351  0.3678
 1995TIP3    H227545   5.024   6.686   1.433  0.4802 -0.4222  0.0238
 1996TIP3   OH227546   3.910   3.116   6.956  0.1403 -0.2548 -0.3235
 1996TIP3    H127547   3.981   3.169   6.919  1.2650 -0.6881  1.1030
 1996TIP3    H227548   3.856   3.178   7.004 -0.2643  0.0268 -1.1296
 1997TIP3   OH227549   3.084   4.087   1.681 -0.3478 -0.2360 -0.0031
 1997TIP3    H127550   3.115   4.012   1.630 -2.1293 -0.5194 -0.7454
 1997TIP3    H227551   3.089   4.161   1.620  1.2227  0.2627  0.6677
 1998TIP3   OH227552   3.579   4.992   8.243 -0.3314 -0.0130 -0.1261
 1998TIP3    H127553   3.544   5.006   8.331 -2.0066 -0.5411 -0.6625
 1998TIP3    H227554   3.604   4.900   8.240 -0.1741  0.0312 -0.1581
 1999TIP3   OH227555   0.237   4.351   7.775  0.6319 -0.2308 -0.0221
 1999TIP3    H127556   0.248   4.405   7.853  0.2941 -0.6193  0.2959
 1999TIP3    H227557   0.149   4.313   7.783  0.2570  0.3771 -0.9939
 2000TIP3   OH227558   0.757   5.969   0.042 -0.2347  0.0567 -0.1079
 2000TIP3    H127559   0.792   5.900  -0.015  0.5526  0.1549  0.2508
 2000TIP3    H227560   0.709   5.921   0.109 -0.0782 -0.1258 -0.1234
 2001TIP3   OH227561   3.791   6.170   1.925  0.3350 -0.0697 -0.5917
 2001TIP3    H127562   3.742   6.205   2.000  2.0442  2.1252 -0.4179
 2001TIP3    H227563   3.756   6.217   1.850  0.3159 -0.4885 -0.8475
 2002TIP3   OH227564   3.859   1.904   1.163  0.4290  0.4142 -0.2947
 2002TIP3    H127565   3.821   1.926   1.248  1.6140 -0.6032  0.5499
 2002TIP3    H227566   3.843   1.981   1.109 -1.4779  0.5948  0.4445
 2003TIP3   OH227567   4.451   1.409   1.141  0.2559  0.2525  0.0312
 2003TIP3    H127568   4.491   1.403   1.228  0.4879 -0.6390 -0.1206
 2003TIP3    H227569   4.520   1.378   1.082 -0.0481  0.4450 -0.4249
 2004TIP3   OH227570   2.937   3.696   0.910  0.5239 -0.1359 -0.3233
 2004TIP3    H127571   2.932   3.734   0.998  0.7866 -0.8983  0.0386
 2004TIP3    H227572   2.846   3.694   0.880  0.5413  1.0301 -0.4784
 2005TIP3   OH227573   1.853   4.512   0.153  0.0787  0.0430 -0.1782
 2005TIP3    H127574   1.759   4.494   0.162  0.2760 -1.1270 -0.2880
 2005TIP3    H227575   1.858   4.579   0.085 -0.6775  0.1877 -0.1045
 2006TIP3   OH227576   5.995   1.560   8.247  0.3130  0.2625 -0.0382
 2006TIP3    H127577   6.009   1.543   8.340 -1.7343 -0.2008  0.2326
 2006TIP3    H227578   5.916   1.511   8.225 -1.0844  2.8859 -1.2593
 2007TIP3   OH227579   1.844   6.070   1.541 -0.4695 -0.1545  0.4409
 2007TIP3    H127580   1.898   6.003   1.581 -1.2218 -0.8592  0.3136
 2007TIP3    H227581   1.757   6.058   1.580 -0.6759  0.5917  0.2398
 2008TIP3   OH227582   3.442   3.238   1.724 -0.1786  0.6867  0.3415
 2008TIP3    H127583   3.423   3.197   1.640 -0.0242  0.3398  0.4735
 2008TIP3    H227584   3.448   3.332   1.705  1.2129  0.4852 -0.2781
 2009TIP3   OH227585   2.351   5.642   8.286 -0.5684  0.2745 -0.5266
 2009TIP3    H127586   2.339   5.727   8.243 -0.0185  0.1345 -0.9808
 2009TIP3    H227587   2.438   5.648   8.326 -0.2041 -0.3303 -1.1983
 2010TIP3   OH227588   3.864   4.157   7.631  0.4560 -0.2340  0.3360
 2010TIP3    H127589   3.888   4.126   7.543 -2.1880  1.1416 -1.0269
 2010TIP3    H227590   3.781   4.113   7.650  0.3666  0.4300  1.5852
 2011TIP3   OH227591   3.439   2.259   7.647 -0.1919 -0.3186  0.0741
 2011TIP3    H127592   3.385   2.181   7.635 -1.1350  0.4117 -0.5850
 2011TIP3    H227593   3.410   2.319   7.579  1.8467 -0.0859 -0.6623
 2012TIP3   OH227594   0.083   4.573   0.299  0.1621  0.6526  0.1523
 2012TIP3    H127595   0.039   4.527   0.371  1.4700  0.9470  1.1726
 2012TIP3    H227596   0.087   4.508   0.228 -1.8087  0.5932  0.0386
 2013TIP3   OH227597   0.099   4.714   1.311  0.5807 -0.6765 -0.0442
 2013TIP3    H127598   0.175   4.731   1.255 -0.7364 -0.5596 -1.8898
 2013TIP3    H227599   0.028   4.694   1.250 -0.5258 -2.3215  1.6792
 2014TIP3   OH227600   0.688   4.092   7.510  0.1589 -0.1707 -0.0569
 2014TIP3    H127601   0.663   4.103   7.418 -1.5402 -0.4900  0.3369
 2014TIP3    H227602   0.773   4.134   7.517  0.1580  0.1625 -1.7026
 2015TIP3   OH227603   6.877   5.198   7.220  0.2908 -0.0077 -0.2821
 2015TIP3    H127604   6.823   5.277   7.209  1.0247  0.3675 -1.3669
 2015TIP3    H227605   6.874   5.181   7.314 -1.1314  0.4100 -0.2106
 2016TIP3   OH227606   0.626   3.156   6.896 -0.4523  0.1621 -0.6074
 2016TIP3    H127607   0.577   3.106   6.961 -0.0360  1.6330  0.9213
 2016TIP3    H227608   0.624   3.102   6.817 -4.0864 -0.1005 -0.4963
 2017TIP3   OH227609   4.964   0.493   1.277 -0.2245 -0.6395 -0.1240
 2017TIP3    H127610   4.914   0.426   1.323 -2.2554  0.3649 -0.7375
 2017TIP3    H227611   4.993   0.449   1.197  0.3646 -1.3946  0.4855
 2018TIP3   OH227612   0.993   3.468   0.183 -0.5261  0.4439 -0.5491
 2018TIP3    H127613   1.084   3.487   0.209 -0.3452  0.0612 -0.8840
 2018TIP3    H227614   1.000   3.441   0.091 -0.8859 -0.2769 -0.3764
 2019TIP3   OH227615   4.820   0.183   6.791 -0.4152 -0.6568  0.5974
 2019TIP3    H127616   4.736   0.150   6.760 -1.2105  3.0013 -1.8023
 2019TIP3    H227617   4.884   0.152   6.726 -0.9632  1.1652 -0.9255
 2020TIP3   OH227618   2.502   2.533   6.844  0.1193  0.2299  0.4059
 2020TIP3    H127619   2.583   2.584   6.848  0.7359 -0.6353 -0.5826
 2020TIP3    H227620   2.433   2.597   6.863  0.9131  1.3091 -0.1979
 2021TIP3   OH227621   5.843   6.023   1.174  0.1500  0.1800 -0.5369
 2021TIP3    H127622   5.841   6.025   1.078 -0.1220 -2.2247 -0.6364
 2021TIP3    H227623   5.932   5.998   1.196 -0.0525 -0.2795 -0.2170
 2022TIP3   OH227624   4.451   6.459   0.306 -0.7232 -0.1993  0.5996
 2022TIP3    H127625   4.419   6.432   0.392 -1.8956 -1.2326 -0.1382
 2022TIP3    H227626   4.546   6.446   0.311 -0.7863 -0.3546  1.6926
 2023TIP3   OH227627   5.698   5.622   7.929  0.4627  0.2871 -0.1356
 2023TIP3    H127628   5.738   5.704   7.959  1.9711  0.0017 -1.2414
 2023TIP3    H227629   5.685   5.571   8.008 -1.9474  2.1257  0.7995
 2024TIP3   OH227630   0.314   5.378   6.487  0.3379  0.1963 -0.9952
 2024TIP3    H127631   0.328   5.440   6.416 -0.1266  1.8689  0.2918
 2024TIP3    H227632   0.239   5.325   6.459 -0.0611  1.0595 -1.6131
 2025TIP3   OH227633   1.035   2.968   0.387 -0.2353  0.2073  0.1337
 2025TIP3    H127634   0.945   2.988   0.360  0.7023  1.8175 -2.1120
 2025TIP3    H227635   1.039   2.995   0.479 -2.0610 -0.0025  0.3044
 2026TIP3   OH227636   2.493   3.626   0.134  0.3004  0.5866  0.0115
 2026TIP3    H127637   2.498   3.700   0.074  1.1064 -0.2012 -0.9234
 2026TIP3    H227638   2.461   3.553   0.080  1.4670 -0.2477  0.4131
 2027TIP3   OH227639   5.949   3.760   2.016  0.1677 -0.2213 -0.1127
 2027TIP3    H127640   6.036   3.746   1.979  0.5415 -2.7942  1.5393
 2027TIP3    H227641   5.950   3.851   2.045  2.0346  0.0171 -0.7840
 2028TIP3   OH227642   6.440   2.570   7.250  0.0323  0.3434  0.5341
 2028TIP3    H127643   6.439   2.484   7.206 -0.3023  1.0167 -0.8493
 2028TIP3    H227644   6.476   2.629   7.184 -1.3277  1.5713  0.8435
 2029TIP3   OH227645   0.781   1.738   7.757 -0.0979  0.3628 -0.0536
 2029TIP3    H127646   0.862   1.765   7.712  0.3860 -1.0820 -0.0996
 2029TIP3    H227647   0.726   1.701   7.688  0.8906 -2.4308  0.5103
 2030TIP3   OH227648   2.455   0.734   2.233  0.1354  0.4314  0.4351
 2030TIP3    H127649   2.476   0.760   2.143 -0.8202  1.6830  0.5500
 2030TIP3    H227650   2.441   0.640   2.228  2.4164  0.0547 -0.2616
 2031TIP3   OH227651   5.706   0.343   0.760 -0.4855 -0.2545 -0.4147
 2031TIP3    H127652   5.624   0.321   0.804  0.0183 -0.0710  0.6576
 2031TIP3    H227653   5.766   0.272   0.784 -0.5684 -0.8803 -1.9475
 2032TIP3   OH227654   0.935   0.465   2.093 -0.5608 -0.1737  0.8807
 2032TIP3    H127655   0.932   0.371   2.107 -2.7403 -0.1838  0.7366
 2032TIP3    H227656   0.849   0.487   2.057  0.0790  1.8008  0.3980
 2033TIP3   OH227657   6.702   6.232   0.110  0.0236 -0.6175 -0.0739
 2033TIP3    H127658   6.787   6.240   0.066  0.7601  1.3126  1.5288
 2033TIP3    H227659   6.721   6.180   0.189 -0.0889  0.3683  0.6279
 2034TIP3   OH227660   2.458   0.933   6.333 -0.0740  0.6248 -0.7088
 2034TIP3    H127661   2.454   1.028   6.338  2.8691  0.7936  0.9884
 2034TIP3    H227662   2.549   0.914   6.311 -0.6512 -1.8069 -1.3271
 2035TIP3   OH227663   3.821   0.933   7.887  0.4183 -0.2005 -0.4113
 2035TIP3    H127664   3.873   1.013   7.874  0.4454 -0.0482  0.5226
 2035TIP3    H227665   3.804   0.932   7.982  0.6153 -1.4292 -0.3846
 2036TIP3   OH227666   2.779   6.682   2.358  0.0771 -0.0775  0.2059
 2036TIP3    H127667   2.778   6.597   2.402 -0.3520 -0.2315 -0.0964
 2036TIP3    H227668   2.722   6.671   2.282 -0.5081  0.6665  0.5145
 2037TIP3   OH227669   5.012   0.695   0.919 -0.0075  0.2232  0.1680
 2037TIP3    H127670   4.973   0.627   0.864  0.2170 -0.4583  0.8333
 2037TIP3    H227671   5.073   0.648   0.975  1.5248  1.2247 -0.6051
 2038TIP3   OH227672   2.820   3.978   7.855  0.1261 -0.5057  0.5097
 2038TIP3    H127673   2.890   3.951   7.795  0.2163 -1.1458  0.8866
 2038TIP3    H227674   2.822   4.073   7.854  0.3420 -0.5131 -0.2534
 2039TIP3   OH227675   1.969   4.231   1.081  0.8719  0.2451  0.2525
 2039TIP3    H127676   1.939   4.321   1.098  1.8846  0.7719 -0.6600
 2039TIP3    H227677   1.934   4.181   1.154 -0.1725  1.2768  0.5028
 2040TIP3   OH227678   4.748   1.738   2.409  0.2851 -0.1933 -0.2482
 2040TIP3    H127679   4.768   1.687   2.487  0.9950  1.1988  0.5152
 2040TIP3    H227680   4.677   1.797   2.436 -0.2700 -0.4870 -1.0076
 2041TIP3   OH227681   3.453   0.769   6.253 -0.1411 -0.5388 -0.5380
 2041TIP3    H127682   3.520   0.775   6.321  1.7122 -0.7306 -2.2616
 2041TIP3    H227683   3.464   0.682   6.216 -1.0583 -0.4001 -1.1754
 2042TIP3   OH227684   2.823   3.179   7.305 -0.0497 -0.0177  0.2009
 2042TIP3    H127685   2.814   3.136   7.390  2.0586 -1.3713 -0.1831
 2042TIP3    H227686   2.785   3.116   7.243  0.6338 -0.1356 -0.0986
 2043TIP3   OH227687   0.017   3.152   2.227  0.3892 -0.2754 -0.0572
 2043TIP3    H127688   0.041   3.064   2.197  0.1926 -0.0254 -0.9664
 2043TIP3    H227689   0.091   3.207   2.202 -0.4825  0.2407 -1.6138
 2044TIP3   OH227690   3.992   5.842   0.739 -0.4332 -0.3586  0.1025
 2044TIP3    H127691   4.077   5.806   0.766 -0.2166  0.3401  0.3768
 2044TIP3    H227692   3.965   5.787   0.666  1.3563  0.7702 -1.5429
 2045TIP3   OH227693   3.451   4.765   1.301  0.3856  0.8441 -0.0837
 2045TIP3    H127694   3.384   4.761   1.369  0.9334  1.6173  0.5177
 2045TIP3    H227695   3.528   4.802   1.345  2.3201 -2.9160  0.1349
 2046TIP3   OH227696   3.923   3.912   7.089  0.1953  0.4007 -0.1093
 2046TIP3    H127697   3.979   3.962   7.029  1.7472 -0.0568  0.8917
 2046TIP3    H227698   3.984   3.873   7.151 -1.0842 -1.6984 -0.0764
 2047TIP3   OH227699   1.708   0.684   1.827  0.3151 -0.2832 -0.1693
 2047TIP3    H127700   1.615   0.663   1.834  0.3210 -0.0538  0.8437
 2047TIP3    H227701   1.741   0.671   1.916  1.1374  0.1621 -0.4068
 2048TIP3   OH227702   1.561   2.330   0.794  0.5931  1.0243 -0.6419
 2048TIP3    H127703   1.631   2.381   0.754  0.2420  0.4310 -2.1042
 2048TIP3    H227704   1.521   2.282   0.721  0.4248 -0.7573  0.5377
 2049TIP3   OH227705   3.539   5.189   1.923  0.0325 -0.2710 -0.5524
 2049TIP3    H127706   3.529   5.241   2.002  0.8572 -1.1690  0.1661
 2049TIP3    H227707   3.450   5.162   1.901 -0.3580  1.0782 -0.7148
 2050TIP3   OH227708   1.614   0.186   0.414  0.8920  0.1090  1.2586
 2050TIP3    H127709   1.571   0.244   0.478  0.5675  1.0421  0.2319
 2050TIP3    H227710   1.679   0.138   0.465 -1.0664 -1.0577  2.8117
 2051TIP3   OH227711   0.274   1.569   6.445 -0.1125 -0.3084 -0.8790
 2051TIP3    H127712   0.193   1.556   6.494  1.1879  0.3738  1.6873
 2051TIP3    H227713   0.262   1.520   6.364 -1.7368 -3.2024  0.9232
 2052TIP3   OH227714   6.327   3.331   1.012  0.0447  0.6305 -0.3525
 2052TIP3    H127715   6.352   3.242   1.040 -0.9522  0.6987  0.8341
 2052TIP3    H227716   6.277   3.317   0.932 -2.0872 -0.1343  1.0243
 2053TIP3   OH227717   3.124   4.611   7.980 -0.4550  0.0829  0.0248
 2053TIP3    H127718   3.089   4.669   7.912  0.6779  0.5516 -0.1983
 2053TIP3    H227719   3.126   4.525   7.939  0.3295  0.3820 -0.6137
 2054TIP3   OH227720   2.259   1.258   0.184 -0.5987 -0.1884 -0.0642
 2054TIP3    H127721   2.235   1.166   0.196 -0.2041  0.0043  3.1304
 2054TIP3    H227722   2.355   1.258   0.191 -0.6556  0.5102  0.9661
 2055TIP3   OH227723   1.774   3.319   0.719 -0.1490 -0.1135  0.0475
 2055TIP3    H127724   1.791   3.258   0.791  0.0460  1.3811  1.3277
 2055TIP3    H227725   1.743   3.399   0.762  0.2998  0.9492 -1.5063
 2056TIP3   OH227726   0.615   6.503   7.472 -0.0265  0.2759  0.2504
 2056TIP3    H127727   0.602   6.576   7.532  1.8908  2.7882 -2.1075
 2056TIP3    H227728   0.710   6.490   7.469 -0.2539 -1.6492 -0.1936
 2057TIP3   OH227729   5.309   5.354   1.169  0.7744 -0.2395 -0.2961
 2057TIP3    H127730   5.392   5.311   1.187  1.6036  1.3330 -0.1746
 2057TIP3    H227731   5.243   5.296   1.206  1.9857 -0.3272  1.8557
 2058TIP3   OH227732   0.302   3.647   0.742 -0.0915  0.0235  0.6393
 2058TIP3    H127733   0.221   3.686   0.710  0.2367  0.2307  0.0505
 2058TIP3    H227734   0.328   3.585   0.674  0.6070  0.4614  0.4927
 2059TIP3   OH227735   3.545   3.696   1.324 -0.2531  0.0710 -0.1273
 2059TIP3    H127736   3.511   3.783   1.346  0.1466  0.2773 -0.3103
 2059TIP3    H227737   3.473   3.654   1.277 -1.0264 -0.2948  1.3403
 2060TIP3   OH227738   3.692   5.214   7.704  0.0305  0.1431  0.4744
 2060TIP3    H127739   3.748   5.137   7.712 -0.6149 -0.5818 -1.3285
 2060TIP3    H227740   3.603   5.178   7.702 -0.3023  0.9645  0.0394
 2061TIP3   OH227741   6.950   6.175   0.876 -0.2990 -0.0795 -0.2452
 2061TIP3    H127742   6.945   6.242   0.807 -1.0225  0.5098  0.3512
 2061TIP3    H227743   6.918   6.095   0.834 -1.4634  0.4435 -0.4138
 2062TIP3   OH227744   3.320   3.956   7.379  0.0871 -0.3721  0.1959
 2062TIP3    H127745   3.271   3.964   7.461 -0.5302 -0.1118 -0.1937
 2062TIP3    H227746   3.258   3.918   7.317  0.2536  0.3039 -0.4061
 2063TIP3   OH227747   0.389   6.274   0.035 -0.4941  0.1514  0.1541
 2063TIP3    H127748   0.346   6.300  -0.046  1.1137  1.1958 -0.4111
 2063TIP3    H227749   0.402   6.179   0.026 -0.3026  0.2641 -0.8241
 2064TIP3   OH227750   4.219   6.235   7.709 -0.3295  0.6679  0.1062
 2064TIP3    H127751   4.260   6.182   7.641  0.6474 -0.2960  1.3948
 2064TIP3    H227752   4.127   6.240   7.684 -0.0876 -0.1235 -0.9953
 2065TIP3   OH227753   3.966   1.193   2.489 -0.2080 -0.2855  0.0112
 2065TIP3    H127754   4.002   1.172   2.576 -0.5745 -1.9684 -0.2071
 2065TIP3    H227755   3.927   1.111   2.459 -0.6982  0.4552 -1.4662
 2066TIP3   OH227756   1.563   4.569   0.958 -0.7081 -0.0386  0.0846
 2066TIP3    H127757   1.496   4.637   0.968 -1.7885 -1.1927  1.1311
 2066TIP3    H227758   1.622   4.583   1.032 -0.2307  0.4917 -0.3894
 2067TIP3   OH227759   1.364   2.435   0.080  0.0502 -0.0447  0.1643
 2067TIP3    H127760   1.362   2.402  -0.009  3.3190 -2.4331  0.7730
 2067TIP3    H227761   1.390   2.527   0.071 -0.0097 -0.1561 -1.3432
 2068TIP3   OH227762   4.248   4.924   1.243 -0.3422 -0.0057  0.0450
 2068TIP3    H127763   4.231   5.018   1.237  1.2494  0.3718  0.8300
 2068TIP3    H227764   4.291   4.902   1.160 -0.2755  0.0626  0.0615
 2069TIP3   OH227765   0.307   6.536   6.048  0.7854 -0.3220 -0.0855
 2069TIP3    H127766   0.319   6.591   6.126  2.4468  0.7184 -0.9936
 2069TIP3    H227767   0.321   6.447   6.079  0.4528 -0.0199  0.9824
 2070TIP3   OH227768   6.938   5.139   0.264 -0.2042 -0.6050  0.1671
 2070TIP3    H127769   7.023   5.110   0.298  0.6708  0.6043 -0.8951
 2070TIP3    H227770   6.949   5.139   0.169 -1.6752 -1.1922 -0.0357
 2071TIP3   OH227771   2.606   5.704   1.823  0.1226 -0.0387  0.0591
 2071TIP3    H127772   2.669   5.671   1.758  0.0083  0.3533 -0.2547
 2071TIP3    H227773   2.653   5.697   1.906 -0.4992 -2.6343  0.2885
 2072TIP3   OH227774   5.863   3.219   7.640 -0.5873  0.0350 -0.3151
 2072TIP3    H127775   5.847   3.152   7.573 -0.3787  0.4716 -0.8094
 2072TIP3    H227776   5.914   3.286   7.595 -0.7037  0.4781  0.2033
 2073TIP3   OH227777   6.356   5.166   0.822 -0.0882 -0.5592  0.1565
 2073TIP3    H127778   6.324   5.084   0.784  2.8119 -1.8525  0.1905
 2073TIP3    H227779   6.419   5.199   0.758  0.4804  0.4053  1.1685
 2074TIP3   OH227780   4.394   6.426   7.801 -0.1809  0.1930  0.0525
 2074TIP3    H127781   4.373   6.338   7.770 -0.9333 -0.3262  1.8704
 2074TIP3    H227782   4.437   6.469   7.727 -0.7755 -1.3381 -1.2216
 2075TIP3   OH227783   2.544   5.463   0.196 -0.1653  0.2131  0.3811
 2075TIP3    H127784   2.628   5.417   0.188  0.9249  1.8280  1.8654
 2075TIP3    H227785   2.510   5.434   0.280 -0.7751  0.1254  0.1082
 2076TIP3   OH227786   1.601   5.313   7.341 -0.3288  0.0000  0.7338
 2076TIP3    H127787   1.603   5.309   7.246  1.0762  0.6877  0.7014
 2076TIP3    H227788   1.584   5.224   7.369 -2.4919  0.0686 -0.1567
 2077TIP3   OH227789   1.264   0.915   7.648 -0.4610  0.2716  0.2556
 2077TIP3    H127790   1.203   0.863   7.700 -0.5373 -1.4951 -1.4529
 2077TIP3    H227791   1.295   0.983   7.707 -1.5746 -0.7920  2.1582
 2078TIP3   OH227792   2.403   2.295   7.771  0.1080 -0.2385 -0.4413
 2078TIP3    H127793   2.366   2.348   7.700 -0.7096 -0.0442  0.1154
 2078TIP3    H227794   2.405   2.354   7.846  1.2603 -0.3488 -0.3682
 2079TIP3   OH227795   5.152   1.406   1.479 -0.2986 -0.3104  0.4879
 2079TIP3    H127796   5.204   1.455   1.415  1.6237  0.5410  2.5778
 2079TIP3    H227797   5.161   1.315   1.452 -1.7145  0.1611 -1.9002
 2080TIP3   OH227798   6.626   0.761   2.079  0.4104  0.3621 -0.2532
 2080TIP3    H127799   6.611   0.735   1.988 -2.6826  0.3839  0.1304
 2080TIP3    H227800   6.669   0.846   2.073 -0.0991  0.5458 -1.7234
 2081TIP3   OH227801   5.263   1.207   0.375  0.1633 -0.0431  0.5989
 2081TIP3    H127802   5.217   1.142   0.323  1.8236  0.4633 -1.6833
 2081TIP3    H227803   5.233   1.291   0.341  0.0087  0.3500  1.6667
 2082TIP3   OH227804   4.875   2.455   1.322  0.0278 -0.4184 -0.5268
 2082TIP3    H127805   4.837   2.437   1.407  1.8309 -0.7677  0.2445
 2082TIP3    H227806   4.941   2.387   1.309  0.6331  0.3396 -1.6449
 2083TIP3   OH227807   0.956   3.033   6.980 -0.4121  0.0390  0.4959
 2083TIP3    H127808   0.970   3.126   7.000 -1.1915  0.3063 -0.1858
 2083TIP3    H227809   0.984   3.023   6.889 -2.1383  0.0309 -0.0609
 2084TIP3   OH227810   5.012   0.896   7.674  0.3684 -0.2339 -0.6025
 2084TIP3    H127811   4.998   0.865   7.585  0.3714 -0.4564 -0.5256
 2084TIP3    H227812   4.931   0.875   7.720  0.7123 -0.9571 -0.3187
 2085TIP3   OH227813   5.559   6.983   1.445 -0.5812 -0.4403  0.7656
 2085TIP3    H127814   5.564   6.979   1.541  0.1367 -0.4441  0.7325
 2085TIP3    H227815   5.470   7.012   1.427  0.1166  2.4649  1.5120
 2086TIP3   OH227816   5.724   3.261   6.753  0.5745  0.5486  0.0545
 2086TIP3    H127817   5.728   3.186   6.813 -2.1384  0.3435  0.0717
 2086TIP3    H227818   5.681   3.227   6.675  0.7400  1.7322 -0.5759
 2087TIP3   OH227819   4.759   2.130   8.137  0.0455  0.0433 -0.4186
 2087TIP3    H127820   4.853   2.111   8.138 -0.4959 -3.4485 -0.0284
 2087TIP3    H227821   4.731   2.107   8.048 -0.4978  0.6942 -0.4240
 2088TIP3   OH227822   2.807   4.313   8.193  0.3067  0.0470 -0.2538
 2088TIP3    H127823   2.742   4.311   8.263 -0.4345  4.3535 -0.5594
 2088TIP3    H227824   2.833   4.221   8.182 -1.2928 -1.1460  3.9253
 2089TIP3   OH227825   6.828   3.463   6.264  0.0173  0.0644 -0.1189
 2089TIP3    H127826   6.743   3.458   6.308  0.1358 -0.3773  0.0627
 2089TIP3    H227827   6.826   3.394   6.199  1.2816 -1.8465  1.7367
 2090TIP3   OH227828   3.713   2.073   7.620  0.8215 -0.2143  0.1702
 2090TIP3    H127829   3.736   2.111   7.705 -1.4041  0.9405  0.3204
 2090TIP3    H227830   3.707   2.148   7.561 -0.9088 -0.6021 -0.1966
 2091TIP3   OH227831   5.846   6.358   0.568 -0.6801  0.1979  0.2276
 2091TIP3    H127832   5.882   6.285   0.618 -0.5594  0.9091  1.2258
 2091TIP3    H227833   5.886   6.436   0.607  1.4403  0.7082 -2.6860
 2092TIP3   OH227834   0.645   4.405   2.350  0.2152 -0.1094 -0.1093
 2092TIP3    H127835   0.571   4.455   2.318  0.9813  0.7497 -0.5822
 2092TIP3    H227836   0.707   4.471   2.383 -0.0641 -0.8844  2.1641
 2093TIP3   OH227837   1.169   2.872   7.277 -0.0992  0.4194  0.0009
 2093TIP3    H127838   1.145   2.843   7.365  1.4484  3.4828  1.5614
 2093TIP3    H227839   1.198   2.792   7.234  0.1422 -1.0392  2.6299
 2094TIP3   OH227840   0.544   5.377   0.740  0.0448 -0.3917 -0.0513
 2094TIP3    H127841   0.566   5.470   0.745  0.1604 -0.3561 -0.9994
 2094TIP3    H227842   0.629   5.332   0.743  0.0076 -0.4491  0.1222
 2095TIP3   OH227843   4.708   5.614   1.115  0.5709  0.0168  0.3068
 2095TIP3    H127844   4.742   5.528   1.094 -0.9812 -0.6735  0.5030
 2095TIP3    H227845   4.677   5.606   1.205 -0.5175  0.4773 -0.0172
 2096TIP3   OH227846   4.606   1.556   2.719  0.2298 -0.5150  0.6157
 2096TIP3    H127847   4.545   1.483   2.705 -1.0246  0.2108  1.9542
 2096TIP3    H227848   4.668   1.523   2.784 -0.8958 -0.1413  1.9328
 2097TIP3   OH227849   4.135   3.229   6.876  0.6779  0.0397 -0.6559
 2097TIP3    H127850   4.158   3.293   6.944  1.7848 -0.3713 -0.6199
 2097TIP3    H227851   4.117   3.282   6.798  0.1442  0.4693 -0.2499
 2098TIP3   OH227852   0.042   1.099   1.758 -0.0047 -0.5674  0.1796
 2098TIP3    H127853   0.048   1.136   1.847 -1.2624 -2.3477  1.0755
 2098TIP3    H227854   0.028   1.175   1.702  2.6611  0.8264  1.2022
 2099TIP3   OH227855   0.838   1.424   1.915 -0.1363 -0.8006  0.6827
 2099TIP3    H127856   0.802   1.422   1.827  3.0062 -2.5453 -0.7613
 2099TIP3    H227857   0.839   1.332   1.943  3.7946 -1.1431  0.0923
 2100TIP3   OH227858   4.795   1.392   8.204 -0.0070 -0.5063 -0.0469
 2100TIP3    H127859   4.795   1.349   8.290  1.0471 -1.2666 -0.4139
 2100TIP3    H227860   4.867   1.351   8.156 -0.5010  0.0010 -1.2614
 2101TIP3   OH227861   4.843   2.856   7.105  0.3974  0.2847 -0.3423
 2101TIP3    H127862   4.758   2.892   7.130 -0.2674 -1.0110 -0.6230
 2101TIP3    H227863   4.848   2.870   7.011 -0.5557 -1.6038 -0.7358
 2102TIP3   OH227864   6.076   1.437   6.745 -0.9821  0.1773  0.3531
 2102TIP3    H127865   6.041   1.356   6.782  2.1675 -0.9967  1.1057
 2102TIP3    H227866   6.143   1.465   6.807 -0.9997  2.6201 -0.6058
 2103TIP3   OH227867   6.919   4.908   7.736 -0.1434  0.1305 -0.1090
 2103TIP3    H127868   6.850   4.934   7.797 -1.0616  0.3653 -1.1870
 2103TIP3    H227869   6.909   4.813   7.727  0.6698 -0.0571  0.8779
 2104TIP3   OH227870   2.766   3.594   0.179 -0.3891  0.3209 -0.0625
 2104TIP3    H127871   2.810   3.668   0.136 -0.4621 -0.0407 -0.7803
 2104TIP3    H227872   2.678   3.594   0.142  0.0897 -1.0957 -1.3321
 2105TIP3   OH227873   0.032   4.994   7.181  0.6915  0.1080  0.1682
 2105TIP3    H127874  -0.037   5.058   7.198  1.1375  0.3536  1.1143
 2105TIP3    H227875   0.030   4.982   7.086 -2.1640 -1.6189  0.3296
 2106TIP3   OH227876   6.933   0.902   0.837 -0.7005 -0.1160  0.1218
 2106TIP3    H127877   6.954   0.844   0.763  0.0174 -0.2020  0.3872
 2106TIP3    H227878   6.847   0.872   0.867 -0.3282 -1.0660  0.2741
 2107TIP3   OH227879   1.447   6.453   1.110 -0.5030  0.0291 -0.9795
 2107TIP3    H127880   1.449   6.516   1.037 -0.0908  1.3588  0.1259
 2107TIP3    H227881   1.444   6.367   1.068  0.7114  0.7093 -2.5692
 2108TIP3   OH227882   3.241   5.242   7.081  0.1678 -0.3073  0.5214
 2108TIP3    H127883   3.270   5.333   7.071  0.6552  0.0884  4.1958
 2108TIP3    H227884   3.322   5.192   7.088 -0.1046 -1.0046 -0.9691
 2109TIP3   OH227885   0.792   2.239   7.506  0.0697 -0.2497 -0.0055
 2109TIP3    H127886   0.762   2.165   7.559 -0.0265 -1.5696 -1.8394
 2109TIP3    H227887   0.729   2.244   7.434 -0.5571  2.3273  0.6168
 2110TIP3   OH227888   2.335   5.889   0.648 -0.4072 -0.0926 -0.0709
 2110TIP3    H127889   2.276   5.941   0.594 -0.6516 -1.0567 -0.7673
 2110TIP3    H227890   2.422   5.924   0.630 -0.3999 -0.8606 -1.6789
 2111TIP3   OH227891   4.819   3.438   1.077 -0.1258 -0.9369  0.0535
 2111TIP3    H127892   4.888   3.427   1.012  1.2547  0.4024  1.1834
 2111TIP3    H227893   4.747   3.478   1.029  1.2340  0.9931 -0.5333
 2112TIP3   OH227894   5.371   2.263   2.008  0.7498 -0.7351 -0.2002
 2112TIP3    H127895   5.371   2.277   2.102  0.7845  0.0662 -0.3053
 2112TIP3    H227896   5.458   2.228   1.989  0.6418 -1.1643  0.1005
 2113TIP3   OH227897   3.484   6.903   2.366 -0.9686 -0.3048  0.6157
 2113TIP3    H127898   3.529   6.970   2.418  0.7585 -1.9846  1.4153
 2113TIP3    H227899   3.500   6.930   2.275 -0.5271  0.5071  0.9162
 2114TIP3   OH227900   1.458   3.284   7.955  0.4117  0.2983  0.1181
 2114TIP3    H127901   1.487   3.219   7.890 -1.2280  0.6772 -1.0431
 2114TIP3    H227902   1.393   3.337   7.910  0.3312  1.5774  1.6274
 2115TIP3   OH227903   1.638   5.888   6.574 -0.1766 -0.2999 -0.4031
 2115TIP3    H127904   1.648   5.923   6.662  1.4401 -1.3051 -0.1549
 2115TIP3    H227905   1.645   5.793   6.584 -2.9761 -0.7092 -1.2605
 2116TIP3   OH227906   6.161   6.963   7.075  0.3923  0.1814 -0.2481
 2116TIP3    H127907   6.098   6.906   7.032 -0.0579 -0.0078  0.6396
 2116TIP3    H227908   6.113   7.044   7.092  0.2719 -0.0805  0.7273
 2117TIP3   OH227909   6.430   3.714   6.272  0.3052  0.1138 -0.3094
 2117TIP3    H127910   6.470   3.672   6.196 -1.4317 -0.5333 -0.9222
 2117TIP3    H227911   6.337   3.691   6.266  0.0558  0.3347  1.8257
 2118TIP3   OH227912   4.006   0.468   8.235  0.3610  0.3110 -0.0245
 2118TIP3    H127913   4.077   0.404   8.241  0.4341  0.1991 -1.6471
 2118TIP3    H227914   3.927   0.416   8.245  0.4492  0.4475  1.8843
 2119TIP3   OH227915   5.379   1.805   6.928 -0.2777 -0.1975  0.3371
 2119TIP3    H127916   5.369   1.775   6.838  0.6436 -0.7860  0.4121
 2119TIP3    H227917   5.322   1.882   6.935 -0.5616 -0.3073 -0.6647
 2120TIP3   OH227918   2.040   4.651   0.723 -0.3442 -0.2057 -0.2957
 2120TIP3    H127919   2.084   4.730   0.693 -0.5013  0.3196  0.8028
 2120TIP3    H227920   1.974   4.633   0.655 -1.0650  1.2576 -0.0255
 2121TIP3   OH227921   4.624   2.501   8.139  0.0252 -0.5704 -0.3234
 2121TIP3    H127922   4.583   2.579   8.102  0.5715  0.2845  0.8105
 2121TIP3    H227923   4.573   2.482   8.218  0.7468 -0.5216  0.1635
 2122TIP3   OH227924   5.602   4.975   7.603 -0.1879 -0.2379 -0.1803
 2122TIP3    H127925   5.528   4.915   7.611 -0.2616 -0.0415  0.6655
 2122TIP3    H227926   5.671   4.923   7.562  0.0879 -1.2141  1.4254
 2123TIP3   OH227927   4.846   3.469   1.386 -0.2117  0.6664  0.2470
 2123TIP3    H127928   4.864   3.384   1.425  0.5689  1.0749  0.7982
 2123TIP3    H227929   4.830   3.451   1.293 -0.9241 -0.1738  0.5224
 2124TIP3   OH227930   3.063   1.420   2.350 -0.1122  0.1430  0.2174
 2124TIP3    H127931   2.981   1.417   2.301 -0.7160  0.6488  1.1459
 2124TIP3    H227932   3.052   1.355   2.420 -0.1519  0.9149  0.9543
 2125TIP3   OH227933   0.824   4.446   8.171  0.0881 -0.5885  0.4302
 2125TIP3    H127934   0.882   4.449   8.096 -0.4786  0.7929  0.0224
 2125TIP3    H227935   0.882   4.450   8.247  0.5553  1.2944  0.0317
 2126TIP3   OH227936   0.480   2.328   0.985  0.1298 -0.1970  0.5984
 2126TIP3    H127937   0.521   2.395   1.040 -0.0797 -1.0590  1.8366
 2126TIP3    H227938   0.387   2.350   0.986  0.1662 -0.0229  0.3065
 2127TIP3   OH227939   0.277   6.957   6.736 -0.5544  0.1951 -0.1155
 2127TIP3    H127940   0.350   6.967   6.675 -0.3674  1.6606  0.3129
 2127TIP3    H227941   0.248   6.866   6.725  2.5219 -1.0623  1.0419
 2128TIP3   OH227942   1.401   5.349   0.671 -0.6969  0.3145 -0.0063
 2128TIP3    H127943   1.455   5.425   0.691  0.5791 -0.6624  0.4202
 2128TIP3    H227944   1.357   5.328   0.753 -0.0966 -0.1339  0.2031
 2129TIP3   OH227945   2.948   1.279   5.748 -0.1389  0.1784 -0.0834
 2129TIP3    H127946   2.984   1.221   5.815 -0.2726 -0.4989 -0.5875
 2129TIP3    H227947   3.023   1.330   5.717 -0.0598  0.4330  0.5077
 2130TIP3   OH227948   3.114   1.446   7.073  0.2306  0.2503  0.0757
 2130TIP3    H127949   3.076   1.398   7.000  0.9418  1.5798 -1.2228
 2130TIP3    H227950   3.206   1.418   7.075  0.2281  0.2613  0.4373
 2131TIP3   OH227951   5.928   4.779   1.407  0.0686 -0.3886 -0.1687
 2131TIP3    H127952   5.863   4.772   1.337 -0.0929 -0.5923 -0.0008
 2131TIP3    H227953   5.879   4.814   1.482 -0.0435 -1.2908  0.2017
 2132TIP3   OH227954   3.759   5.887   1.960 -0.1446  0.8997 -0.5002
 2132TIP3    H127955   3.695   5.863   2.027 -0.8496 -1.7334 -1.9827
 2132TIP3    H227956   3.734   5.976   1.935 -1.9302  0.7153  0.4050
 2133TIP3   OH227957   0.350   6.743   7.944 -0.4078 -0.4261  0.8017
 2133TIP3    H127958   0.284   6.703   8.000 -0.7628  0.2657  0.8877
 2133TIP3    H227959   0.325   6.715   7.855  0.5053 -2.0146  1.0190
 2134TIP3   OH227960   4.585   6.848   0.567  0.2976 -0.1079 -0.0649
 2134TIP3    H127961   4.589   6.890   0.481  0.6407 -1.1106 -0.5617
 2134TIP3    H227962   4.625   6.911   0.627  0.0728  0.5967 -0.6450
 2135TIP3   OH227963   5.698   5.430   0.786  0.3078 -0.1056  0.0840
 2135TIP3    H127964   5.614   5.386   0.801  0.2869 -0.1013 -0.0164
 2135TIP3    H227965   5.761   5.360   0.776  0.4186 -0.1035  0.7396
 2136TIP3   OH227966   4.435   5.887   7.232  0.0218  0.1297 -0.2374
 2136TIP3    H127967   4.412   5.823   7.300 -1.4456  0.5609 -0.2860
 2136TIP3    H227968   4.531   5.887   7.230  0.0735 -1.9739 -0.1572
 2137TIP3   OH227969   4.292   5.347   0.743  0.0782  0.0612 -0.0957
 2137TIP3    H127970   4.221   5.350   0.806  0.2049  0.6809  0.0249
 2137TIP3    H227971   4.314   5.255   0.735 -0.8028 -0.1474 -0.2091
 2138TIP3   OH227972   6.208   1.920   0.332  0.4680  0.4915 -0.1259
 2138TIP3    H127973   6.232   1.850   0.271  0.3896 -0.2946  0.7172
 2138TIP3    H227974   6.274   1.988   0.317  0.2526  0.4565 -1.3027
 2139TIP3   OH227975   2.031   5.543   0.936  0.4916  0.4914 -0.2000
 2139TIP3    H127976   2.111   5.502   0.967  1.1577  1.6819 -0.2989
 2139TIP3    H227977   2.060   5.622   0.890 -0.7301  0.9117 -0.2965
 2140TIP3   OH227978   3.314   6.087   1.419 -0.0829  0.0673 -0.3666
 2140TIP3    H127979   3.348   6.171   1.450  0.5014 -0.8860  1.8380
 2140TIP3    H227980   3.388   6.027   1.430 -0.1699 -0.5785 -2.8470
 2141TIP3   OH227981   3.298   0.884   0.797  0.1943 -0.0102  0.0182
 2141TIP3    H127982   3.263   0.931   0.873 -2.8622 -2.1604  0.1316
 2141TIP3    H227983   3.267   0.935   0.722 -0.1137  0.0310  0.1697
 2142TIP3   OH227984   3.941   3.537   6.937  0.2467  0.1003 -0.6799
 2142TIP3    H127985   4.018   3.594   6.943 -0.7204  1.5128 -1.2026
 2142TIP3    H227986   3.886   3.579   6.870 -0.8009 -1.0899 -0.5857
 2143TIP3   OH227987   0.608   3.288   7.633  0.0154 -0.3363  0.1464
 2143TIP3    H127988   0.652   3.315   7.552 -1.6748 -0.0060 -0.6987
 2143TIP3    H227989   0.529   3.244   7.604 -0.2362 -0.9317  1.6355
 2144TIP3   OH227990   5.255   6.022   0.100 -0.4155 -0.4700 -0.1182
 2144TIP3    H127991   5.311   6.097   0.120 -0.6498 -0.0858 -0.8934
 2144TIP3    H227992   5.316   5.956   0.066 -0.1680 -0.7539  0.8285
 2145TIP3   OH227993   2.603   5.705   0.752 -0.2959  0.0549 -0.2765
 2145TIP3    H127994   2.584   5.798   0.736 -0.5278  0.0239 -0.1922
 2145TIP3    H227995   2.678   5.686   0.697  0.5194  0.6044  0.6080
 2146TIP3   OH227996   5.089   3.648   6.488  0.5698  0.0026  0.1451
 2146TIP3    H127997   5.035   3.631   6.565 -0.6348  0.1533 -0.6340
 2146TIP3    H227998   5.038   3.711   6.436  1.2864 -0.2031 -0.8429
 2147TIP3   OH227999   5.688   1.738   6.960  0.6585 -0.0681  0.1436
 2147TIP3    H128000   5.594   1.753   6.961  0.7280  0.5129  2.1212
 2147TIP3    H228001   5.699   1.657   6.910 -0.9514 -0.4922  0.4201
 2148TIP3   OH228002   5.512   6.663   2.068  0.8237 -0.1549  0.1890
 2148TIP3    H128003   5.578   6.615   2.119  1.8063  1.2224  0.2663
 2148TIP3    H228004   5.559   6.694   1.991  0.4376  1.3722  0.5432
 2149TIP3   OH228005   2.706   0.265   7.971 -0.4766  0.4689  0.6967
 2149TIP3    H128006   2.700   0.352   7.931  0.2364  0.7530  1.2093
 2149TIP3    H228007   2.795   0.235   7.952 -1.0242 -0.5907 -0.3600
 2150TIP3   OH228008   4.700   1.369   7.195  0.6038 -0.2215 -0.1932
 2150TIP3    H128009   4.751   1.353   7.116  0.7710  1.2044 -0.3870
 2150TIP3    H228010   4.619   1.409   7.164  0.9399  0.9473  0.3870
 2151TIP3   OH228011   0.359   5.199   7.927 -0.2042  0.6655  0.4372
 2151TIP3    H128012   0.350   5.277   7.982  0.0832  0.5060  0.7119
 2151TIP3    H228013   0.334   5.126   7.983 -1.3922  0.6350 -0.1020
 2152TIP3   OH228014   2.819   3.824   7.408 -0.0472 -0.2741  0.3070
 2152TIP3    H128015   2.755   3.768   7.365  0.3519 -1.1780  0.8644
 2152TIP3    H228016   2.835   3.895   7.346  0.5750 -1.5767 -1.0564
 2153TIP3   OH228017   5.273   6.457   1.245  0.2175  0.5065 -0.9028
 2153TIP3    H128018   5.223   6.377   1.261 -1.4216  1.2484 -2.0011
 2153TIP3    H228019   5.300   6.450   1.153  1.6769  0.4015 -0.4966
 2154TIP3   OH228020   0.525   5.399   1.523 -0.0972 -0.4628  0.0455
 2154TIP3    H128021   0.448   5.415   1.469 -0.6752 -0.7225  0.7756
 2154TIP3    H228022   0.539   5.304   1.517 -0.7164 -0.6280  1.0702
 2155TIP3   OH228023   2.745   5.265   2.815  0.4598  0.0453  0.4222
 2155TIP3    H128024   2.702   5.313   2.886 -1.6875  1.0453 -1.4183
 2155TIP3    H228025   2.794   5.196   2.859 -0.8237  0.5859  2.8792
 2156TIP3   OH228026   2.143   0.481   7.072  0.6170 -0.6865  0.5162
 2156TIP3    H128027   2.048   0.473   7.059  0.6256 -1.1423  0.7518
 2156TIP3    H228028   2.179   0.399   7.039  1.0690  0.0204 -0.8813
 2157TIP3   OH228029   2.191   3.154   0.436  0.3511  0.2344 -0.0542
 2157TIP3    H128030   2.273   3.192   0.468 -0.5272  0.9889  1.4070
 2157TIP3    H228031   2.180   3.191   0.349  0.9588  1.1043  0.2242
 2158TIP3   OH228032   6.012   5.038   1.825 -0.2508 -0.4668 -0.0169
 2158TIP3    H128033   6.097   5.073   1.796 -0.7471 -0.6137 -1.7810
 2158TIP3    H228034   5.983   5.099   1.892  1.1978 -0.3558  0.5595
 2159TIP3   OH228035   2.965   1.724   7.946  0.2692  0.1267  0.4505
 2159TIP3    H128036   2.894   1.671   7.909  0.2688  0.6484 -0.3016
 2159TIP3    H228037   2.926   1.810   7.961  0.4883  0.1459  0.9324
 2160TIP3   OH228038   6.331   4.933   0.677  0.2524 -0.1696 -0.3825
 2160TIP3    H128039   6.413   4.884   0.688 -1.2773 -2.8643 -0.0089
 2160TIP3    H228040   6.302   4.912   0.588 -0.9882 -0.8884  0.1701
 2161TIP3   OH228041   1.412   3.864   0.815  0.3953 -0.5185  0.0105
 2161TIP3    H128042   1.437   3.956   0.804  0.7492 -0.6892 -0.6410
 2161TIP3    H228043   1.317   3.864   0.808  0.4274 -0.2603 -0.4620
 2162TIP3   OH228044   0.166   2.140   0.429  0.0514 -0.0804 -0.3181
 2162TIP3    H128045   0.087   2.149   0.482  0.4900 -2.3181  0.7953
 2162TIP3    H228046   0.161   2.052   0.392  3.0589 -1.2491  1.6767
 2163TIP3   OH228047   6.599   0.596   0.706 -0.2465  0.4215 -0.5836
 2163TIP3    H128048   6.618   0.524   0.646  0.8530  0.7888 -0.7084
 2163TIP3    H228049   6.566   0.554   0.785 -1.3217 -0.0918 -1.2864
 2164TIP3   OH228050   6.791   0.864   7.464  0.9821  0.4941  0.9285
 2164TIP3    H128051   6.749   0.857   7.378  3.1447  0.9164 -0.2610
 2164TIP3    H228052   6.771   0.952   7.494 -0.3336  0.1247  1.1983
 2165TIP3   OH228053   6.595   2.975   0.239 -0.0852 -0.7654 -0.3455
 2165TIP3    H128054   6.657   2.902   0.242  0.6784 -0.0994  1.9422
 2165TIP3    H228055   6.516   2.942   0.280 -0.3777 -0.8254 -0.9421
 2166TIP3   OH228056   4.572   0.911   0.435 -0.3560 -0.5579  0.0010
 2166TIP3    H128057   4.526   0.905   0.518  2.2502  1.4487  1.7498
 2166TIP3    H228058   4.652   0.859   0.447  1.9505  2.7608  0.3461
 2167TIP3   OH228059   3.131   2.692   5.942 -0.6514  0.0245 -0.2846
 2167TIP3    H128060   3.045   2.692   5.985  0.6171  1.1123  2.4749
 2167TIP3    H228061   3.142   2.781   5.910 -0.2716  0.0849  0.0073
 2168TIP3   OH228062   6.855   6.102   0.315  0.1336  0.1477  0.1595
 2168TIP3    H128063   6.947   6.082   0.299 -0.0323 -0.4543 -0.0504
 2168TIP3    H228064   6.856   6.152   0.397  0.6771  0.4759 -0.0393
 2169TIP3   OH228065   1.549   5.465   1.738 -0.5158  0.5350  0.0938
 2169TIP3    H128066   1.545   5.545   1.685  1.6078  1.1185  0.6980
 2169TIP3    H228067   1.542   5.496   1.828  1.3536  0.2154  0.3893
 2170TIP3   OH228068   5.349   0.623   7.796  0.2129 -0.9047 -0.6865
 2170TIP3    H128069   5.259   0.606   7.768  0.9059 -1.4840 -2.7236
 2170TIP3    H228070   5.381   0.539   7.827  0.9923 -1.4933 -2.9122
 2171TIP3   OH228071   1.661   5.387   7.051 -0.4238 -0.5508 -0.0141
 2171TIP3    H128072   1.584   5.389   6.994  0.0026  1.3458 -0.6052
 2171TIP3    H228073   1.724   5.443   7.007  1.3966 -2.1755  0.3676
 2172TIP3   OH228074   5.651   3.643   1.512 -0.2518  0.2896 -0.2056
 2172TIP3    H128075   5.656   3.734   1.481 -0.8812  0.7314  0.9333
 2172TIP3    H228076   5.725   3.635   1.573 -0.4327  0.1579 -0.0026
 2173TIP3   OH228077   2.952   5.573   7.700 -0.3673  0.0891  0.1731
 2173TIP3    H128078   3.039   5.550   7.668 -0.7589 -1.4332  0.1268
 2173TIP3    H228079   2.902   5.595   7.621  0.0621  1.3623  0.2344
 2174TIP3   OH228080   6.756   5.010   8.017  0.2617 -0.1355  0.2915
 2174TIP3    H128081   6.724   5.075   7.955  2.7612  1.4313  0.5250
 2174TIP3    H228082   6.833   5.050   8.058 -0.5392 -1.5757  3.5479
 2175TIP3   OH228083   6.356   5.201   2.099  0.2894  0.1638 -0.6383
 2175TIP3    H128084   6.425   5.218   2.164  0.6350  0.9878 -1.2008
 2175TIP3    H228085   6.397   5.145   2.034  0.1502 -0.0792 -0.5218
 2176TIP3   OH228086   4.048   2.563   1.315  0.0411 -0.0756 -0.3431
 2176TIP3    H128087   4.092   2.629   1.369  1.1117 -2.3803  1.8363
 2176TIP3    H228088   4.093   2.567   1.231  1.7487  0.3620  0.5317
 2177TIP3   OH228089   6.048   2.278   2.193  0.6082  0.0006  0.2767
 2177TIP3    H128090   6.000   2.318   2.265 -1.0622 -0.8543 -0.3031
 2177TIP3    H228091   6.054   2.347   2.127 -1.3937 -0.3412 -0.3296
 2178TIP3   OH228092   1.601   6.574   2.139  0.4692 -0.1738 -0.5255
 2178TIP3    H128093   1.511   6.605   2.153  0.1825 -1.7270  1.5548
 2178TIP3    H228094   1.592   6.507   2.072 -0.3686 -1.9564  1.2758
 2179TIP3   OH228095   0.807   6.823   8.185 -0.0309 -0.2541 -0.3183
 2179TIP3    H128096   0.748   6.802   8.113 -1.0687 -0.9673  0.6826
 2179TIP3    H228097   0.806   6.744   8.240  0.6089  0.3169  0.5445
 2180TIP3   OH228098   1.419   2.241   7.858 -0.0041  0.5337  0.0132
 2180TIP3    H128099   1.466   2.309   7.809  0.0915  0.5466  0.1215
 2180TIP3    H228100   1.488   2.186   7.895 -0.0543  0.8519  0.6017
 2181TIP3   OH228101   6.181   5.581   7.465 -0.5003  0.3277 -0.3490
 2181TIP3    H128102   6.258   5.525   7.456 -0.4629  0.4476 -0.8014
 2181TIP3    H228103   6.154   5.570   7.556  0.4477  0.7822  0.0103
 2182TIP3   OH228104   3.041   4.211   6.710  0.0156 -0.1580  0.3727
 2182TIP3    H128105   2.947   4.226   6.702  0.2213  1.2245  0.3052
 2182TIP3    H228106   3.070   4.270   6.780  0.5054 -2.1269  1.9105
 2183TIP3   OH228107   1.840   4.971   2.222 -0.2672  0.2741 -0.0656
 2183TIP3    H128108   1.921   4.938   2.263  1.1407  2.6966 -0.6972
 2183TIP3    H228109   1.802   5.030   2.287 -2.2337 -1.6727  0.6733
 2184TIP3   OH228110   1.303   4.455   2.392  0.3889  0.3161  0.5358
 2184TIP3    H128111   1.242   4.524   2.365 -0.8373 -1.1009 -0.4909
 2184TIP3    H228112   1.286   4.383   2.331 -0.4018 -1.9755  3.2655
 2185TIP3   OH228113   3.181   1.738   7.610  0.5503 -0.4103 -0.5391
 2185TIP3    H128114   3.185   1.642   7.613 -0.9908 -0.4860  0.1750
 2185TIP3    H228115   3.160   1.758   7.519  0.6331 -0.7729 -0.6390
 2186TIP3   OH228116   0.247   0.963   0.752  0.1857 -0.1623  0.4867
 2186TIP3    H128117   0.303   0.886   0.755  1.3769  0.5742 -1.4172
 2186TIP3    H228118   0.257   0.997   0.663 -2.6579  0.4915  0.3154
 2187TIP3   OH228119   3.844   2.582   7.344 -0.1589 -0.7944 -0.5241
 2187TIP3    H128120   3.859   2.583   7.438  0.6639  1.5161 -0.6223
 2187TIP3    H228121   3.789   2.658   7.327 -0.7704 -1.4922 -1.8627
 2188TIP3   OH228122   3.964   6.731   0.394 -0.2118  0.0410 -0.3950
 2188TIP3    H128123   3.921   6.771   0.470  0.8180 -1.1720  0.8611
 2188TIP3    H228124   4.030   6.795   0.368 -0.6788  0.5363 -0.3832
 2189TIP3   OH228125   6.671   4.017   1.303  0.1338  0.1022 -0.3283
 2189TIP3    H128126   6.728   3.990   1.231 -0.5605  0.1290 -0.9029
 2189TIP3    H228127   6.589   4.042   1.260 -0.2555  0.2140  0.4659
 2190TIP3   OH228128   6.885   0.462   1.121 -0.8776  0.0538  0.4454
 2190TIP3    H128129   6.834   0.437   1.198 -1.3860 -0.5020 -0.0608
 2190TIP3    H228130   6.821   0.460   1.049 -0.4376  0.6810  0.0308
 2191TIP3   OH228131   2.756   6.100   0.343 -0.3824  0.0383  0.2744
 2191TIP3    H128132   2.768   6.169   0.408 -2.2602  0.8048 -0.1384
 2191TIP3    H228133   2.805   6.132   0.266 -0.7404  0.6425  0.2887
 2192TIP3   OH228134   6.725   3.765   6.596 -0.1185  0.0404  0.5864
 2192TIP3    H128135   6.792   3.801   6.654  1.7204 -1.8395 -0.2441
 2192TIP3    H228136   6.699   3.839   6.541  0.9146  0.9552  1.2857
 2193TIP3   OH228137   5.987   0.437   1.410  0.6688  0.0359  0.3783
 2193TIP3    H128138   6.034   0.486   1.342 -0.2788  1.8504  0.9786
 2193TIP3    H228139   5.897   0.433   1.378  0.7131 -1.3367  0.3629
 2194TIP3   OH228140   5.519   3.285   8.190  0.2693  0.5909 -0.2097
 2194TIP3    H128141   5.450   3.271   8.125 -0.0577  0.6332  0.1247
 2194TIP3    H228142   5.473   3.285   8.274  0.4082  2.5487 -0.0917
 2195TIP3   OH228143   1.881   0.256   0.172 -0.1252 -0.1380  0.3392
 2195TIP3    H128144   1.944   0.187   0.151  0.0520  0.7258 -2.3066
 2195TIP3    H228145   1.815   0.251   0.102 -1.6359  0.6069  1.6408
 2196TIP3   OH228146   6.034   4.538   0.889  0.7864 -0.1327  0.4914
 2196TIP3    H128147   6.026   4.442   0.887 -1.5457  0.0104  0.0383
 2196TIP3    H228148   6.063   4.557   0.979  0.3520 -1.2160  0.8880
 2197TIP3   OH228149   4.650   2.191   1.751 -0.2054  0.4801  0.3223
 2197TIP3    H128150   4.717   2.175   1.818 -1.2970  1.0430  1.5953
 2197TIP3    H228151   4.593   2.257   1.790 -1.4641  0.0802 -0.7782
 2198TIP3   OH228152   2.193   6.168   6.525  0.2494 -0.0851  0.1302
 2198TIP3    H128153   2.208   6.125   6.440  0.6871  1.1477 -0.4432
 2198TIP3    H228154   2.278   6.208   6.547  0.2249 -0.6350  1.3110
 2199TIP3   OH228155   4.968   4.939   8.245  0.5244 -0.0326 -0.3750
 2199TIP3    H128156   5.046   4.995   8.239  0.7426 -0.2612  0.1720
 2199TIP3    H228157   5.003   4.851   8.258  0.2544  0.2084  3.0646
 2200TIP3   OH228158   3.728   2.626   6.326 -0.8187 -0.7459 -0.2454
 2200TIP3    H128159   3.742   2.720   6.311  1.5581 -1.0979 -0.5912
 2200TIP3    H228160   3.769   2.608   6.410  0.3720 -1.7577 -0.9976
 2201TIP3   OH228161   5.892   5.657   8.176 -0.3277  0.1920 -0.5643
 2201TIP3    H128162   5.983   5.682   8.194 -0.4938  1.4983 -1.3152
 2201TIP3    H228163   5.883   5.569   8.211  0.2794  1.2453  2.5000
 2202TIP3   OH228164   2.910   3.125   0.545 -0.3796  0.2413 -0.3838
 2202TIP3    H128165   2.818   3.147   0.532 -0.7544 -1.0305 -0.0652
 2202TIP3    H228166   2.931   3.161   0.631 -0.5139  0.7197 -0.5480
 2203TIP3   OH228167   0.156   2.791   0.100 -0.1647 -0.0956  0.0847
 2203TIP3    H128168   0.236   2.742   0.119 -0.7586 -0.7475  0.9961
 2203TIP3    H228169   0.186   2.870   0.056  0.9198 -0.7022 -0.3160
 2204TIP3   OH228170   2.575   3.884   6.498  0.0764  0.0405  0.5890
 2204TIP3    H128171   2.529   3.815   6.450 -1.2932  1.2257  0.1268
 2204TIP3    H228172   2.623   3.933   6.431  0.3564  0.0513  0.7945
 2205TIP3   OH228173   3.551   3.410   8.184  0.0946 -0.2550  0.4439
 2205TIP3    H128174   3.482   3.414   8.118  1.6903 -0.4403 -1.3117
 2205TIP3    H228175   3.537   3.325   8.227  0.7394 -1.5099 -1.6784
 2206TIP3   OH228176   0.982   4.812   1.397 -0.1777 -0.0820 -0.5860
 2206TIP3    H128177   1.003   4.762   1.319 -0.0001  1.3707 -1.5046
 2206TIP3    H228178   1.026   4.766   1.468  0.3643 -0.9420 -1.4630
 2207TIP3   OH228179   4.462   3.578   0.104 -0.1476 -0.3598  0.0293
 2207TIP3    H128180   4.399   3.582   0.032 -0.3385 -2.1044  0.0635
 2207TIP3    H228181   4.408   3.567   0.183  0.1490 -1.1749  0.1305
 2208TIP3   OH228182   1.281   5.188   7.467  0.0126  0.2192  0.0294
 2208TIP3    H128183   1.368   5.150   7.454 -0.5807 -0.4399 -2.5487
 2208TIP3    H228184   1.294   5.282   7.455  0.1783 -0.0144 -2.0017
 2209TIP3   OH228185   3.582   6.630   0.240  0.2150  0.6436  0.2576
 2209TIP3    H128186   3.671   6.625   0.206 -0.0646  1.1949 -0.5763
 2209TIP3    H228187   3.576   6.555   0.299  1.3422  0.8084  0.6114
 2210TIP3   OH228188   5.496   1.508   8.194 -0.2132  0.1037  0.0692
 2210TIP3    H128189   5.518   1.594   8.158 -0.5190  0.7918  1.4588
 2210TIP3    H228190   5.420   1.524   8.251  0.2497 -0.9263  1.0207
 2211TIP3   OH228191   5.839   0.890   0.533 -0.1370 -0.5921  0.0374
 2211TIP3    H128192   5.757   0.844   0.518  0.5821 -1.6482 -0.8276
 2211TIP3    H228193   5.907   0.828   0.506  1.0291 -0.2943  2.0875
 2212TIP3   OH228194   4.415   5.472   6.503  0.2138 -0.7603  0.1915
 2212TIP3    H128195   4.356   5.497   6.433 -0.1688 -1.9098  0.0815
 2212TIP3    H228196   4.359   5.460   6.580  0.5888  0.1893  0.6313
 2213TIP3   OH228197   4.428   4.167   7.410  0.0557 -0.7884 -0.7305
 2213TIP3    H128198   4.355   4.188   7.468  0.0283 -1.4786 -0.4981
 2213TIP3    H228199   4.460   4.082   7.442  0.7377 -0.6599 -1.0446
 2214TIP3   OH228200   0.084   2.182   0.987 -0.2600  0.3182  0.0897
 2214TIP3    H128201   0.071   2.187   1.082 -0.0164  3.0315  0.0357
 2214TIP3    H228202   0.081   2.272   0.957 -4.9330 -0.5263 -3.1448
 2215TIP3   OH228203   1.481   4.109   7.572 -0.1896  0.1337  0.6051
 2215TIP3    H128204   1.468   4.014   7.581  1.0997 -0.5202 -2.8978
 2215TIP3    H228205   1.401   4.140   7.531  0.0754  0.2238  0.1495
 2216TIP3   OH228206   6.553   4.489   0.022  0.2722 -0.5080 -0.0353
 2216TIP3    H128207   6.543   4.439  -0.059  1.2836 -1.9720  0.6904
 2216TIP3    H228208   6.464   4.514   0.046  0.0077  0.5131 -1.9018
 2217TIP3   OH228209   1.081   1.606   1.122  0.3760  0.0340  0.0644
 2217TIP3    H128210   1.067   1.618   1.216  0.9281  2.3005 -0.0965
 2217TIP3    H228211   1.079   1.511   1.109 -2.0752 -0.2714  1.9883
 2218TIP3   OH228212   5.301   4.232   0.033  0.6491 -0.0515 -0.4016
 2218TIP3    H128213   5.225   4.217   0.089 -0.9827 -1.6063 -2.8570
 2218TIP3    H228214   5.352   4.152   0.039  1.5289  0.5317  0.2963
 2219TIP3   OH228215   3.923   4.025   7.390 -0.3367 -0.2693  0.1124
 2219TIP3    H128216   3.971   3.942   7.385 -1.5162 -0.9179 -1.0583
 2219TIP3    H228217   3.883   4.034   7.304 -1.3290  0.8484  0.6724
 2220TIP3   OH228218   3.378   6.777   0.695 -0.0445 -0.3212 -0.7643
 2220TIP3    H128219   3.464   6.818   0.692  0.3198 -1.1059 -1.3029
 2220TIP3    H228220   3.380   6.709   0.628 -0.3564 -1.7236  0.5738
 2221TIP3   OH228221   2.967   2.972   8.004 -0.5562  0.1573 -0.2031
 2221TIP3    H128222   3.024   3.049   8.011 -2.7434  1.8097  0.8437
 2221TIP3    H228223   2.986   2.921   8.082  0.8138 -0.3408 -0.8304
 2222TIP3   OH228224   2.856   5.119   0.963 -0.7357 -0.1736  0.3284
 2222TIP3    H128225   2.812   5.175   0.898  0.0774  0.8800  0.6786
 2222TIP3    H228226   2.790   5.105   1.030 -0.8463  0.6552  0.4053
 2223TIP3   OH228227   2.548   1.365   7.676  0.0987 -0.1882  0.8318
 2223TIP3    H128228   2.594   1.379   7.593  0.8445 -1.5788  0.9786
 2223TIP3    H228229   2.486   1.438   7.682 -0.2058 -0.2305 -1.1115
 2224TIP3   OH228230   5.821   4.995   0.926  0.7240 -0.7554 -0.1937
 2224TIP3    H128231   5.851   4.926   0.867  1.0319 -1.2300  0.4980
 2224TIP3    H228232   5.855   4.969   1.012 -0.3784 -0.4918  0.3358
 2225TIP3   OH228233   0.502   1.452   6.939 -0.2529  1.0716  0.0772
 2225TIP3    H128234   0.547   1.448   6.854  0.0869  2.2331  0.1885
 2225TIP3    H228235   0.515   1.542   6.969 -0.3238  0.6605  1.3959
 2226TIP3   OH228236   5.759   4.188   1.214 -0.0397  0.2816 -0.1885
 2226TIP3    H128237   5.830   4.234   1.259 -1.5494  1.5426  0.9609
 2226TIP3    H228238   5.683   4.243   1.225 -1.5098 -1.6010 -0.3952
 2227TIP3   OH228239   0.870   6.442   7.479 -0.0559  0.8346 -0.2177
 2227TIP3    H128240   0.935   6.451   7.548  2.0297 -1.4174 -1.7245
 2227TIP3    H228241   0.906   6.490   7.404 -0.7043  0.5701 -0.7191
 2228TIP3   OH228242   2.469   4.888   1.527 -0.4503  0.0625  0.1878
 2228TIP3    H128243   2.493   4.918   1.615 -0.3024 -0.5952  0.3789
 2228TIP3    H228244   2.420   4.807   1.541  3.0437 -2.3951 -0.4129
 2229TIP3   OH228245   3.498   2.715   1.518 -0.1328 -0.6804 -0.1122
 2229TIP3    H128246   3.542   2.732   1.601  0.0991 -0.0887 -0.3442
 2229TIP3    H228247   3.564   2.739   1.452 -1.4058  2.1277 -0.5004
 2230TIP3   OH228248   0.157   6.182   6.247  0.1756 -0.1013 -0.1204
 2230TIP3    H128249   0.138   6.271   6.275 -1.4472  0.1453 -1.7766
 2230TIP3    H228250   0.084   6.159   6.189  1.1915 -2.0475 -0.7324
 2231TIP3   OH228251   2.287   0.727   0.532  0.1998  0.4177  0.8145
 2231TIP3    H128252   2.256   0.723   0.442  0.8086  2.0619  0.4909
 2231TIP3    H228253   2.363   0.669   0.534 -0.7599 -0.8961  0.7214
 2232TIP3   OH228254   5.910   4.411   0.297 -0.3606 -0.5513 -0.0692
 2232TIP3    H128255   5.847   4.387   0.228 -0.4796 -0.1869 -0.0864
 2232TIP3    H228256   5.894   4.347   0.366 -1.6334  0.3028  0.4629
 2233TIP3   OH228257   6.948   2.025   7.270  0.4026 -0.3325  0.1257
 2233TIP3    H128258   7.003   1.981   7.205 -0.0752 -1.1366  0.2571
 2233TIP3    H228259   7.002   2.028   7.349  0.4068 -0.7588  0.1396
 2234TIP3   OH228260   0.114   4.494   8.299 -0.0675  0.0263  0.0773
 2234TIP3    H128261   0.096   4.401   8.284 -1.6156  0.2204  0.5432
 2234TIP3    H228262   0.027   4.536   8.297  0.3725  1.1517  1.8590
 2235TIP3   OH228263   2.561   0.913   7.005 -0.0275 -0.4705 -0.1851
 2235TIP3    H128264   2.653   0.910   7.030 -0.2195 -0.7865  0.4973
 2235TIP3    H228265   2.513   0.908   7.087 -0.6480  0.9070 -0.4259
 2236TIP3   OH228266   6.128   3.525   7.114  0.4653  0.2643  0.4605
 2236TIP3    H128267   6.141   3.608   7.067 -1.5785  0.9657  1.0098
 2236TIP3    H228268   6.112   3.552   7.204 -0.4457 -0.7217  0.6013
 2237TIP3   OH228269   1.189   1.862   1.730  0.3126 -0.0498 -0.1401
 2237TIP3    H128270   1.274   1.818   1.730  0.3716  0.0445 -1.2065
 2237TIP3    H228271   1.209   1.955   1.722  0.0970 -0.0911 -1.3116
 2238TIP3   OH228272   1.500   2.891   7.837  0.2363 -0.0705 -0.2521
 2238TIP3    H128273   1.481   2.840   7.757 -1.3333  0.4972 -0.2646
 2238TIP3    H228274   1.537   2.973   7.805 -1.0841  0.4634 -0.4640
 2239TIP3   OH228275   5.647   6.814   1.885 -0.0846  0.9236 -0.4224
 2239TIP3    H128276   5.698   6.812   1.804 -1.7614 -1.8613 -1.5551
 2239TIP3    H228277   5.712   6.828   1.954  1.6397  1.4677 -2.0710
 2240TIP3   OH228278   5.285   4.729   1.748  0.1276 -0.4552 -0.4446
 2240TIP3    H128279   5.200   4.772   1.740 -0.5067 -1.6177 -0.1374
 2240TIP3    H228280   5.321   4.729   1.660 -0.8360 -1.2248 -0.8495
 2241TIP3   OH228281   1.667   6.608   0.365 -0.9000 -0.1092  0.1464
 2241TIP3    H128282   1.712   6.560   0.434 -0.4019  0.6124  0.3253
 2241TIP3    H228283   1.734   6.621   0.297  0.8941  5.4084  2.4395
 2242TIP3   OH228284   6.564   2.291   7.325  0.5675 -0.3128 -0.7006
 2242TIP3    H128285   6.626   2.332   7.265  2.0072 -0.5405  0.5510
 2242TIP3    H228286   6.490   2.267   7.271  2.4851 -2.0187 -2.7335
 2243TIP3   OH228287   3.246   5.473   7.662  0.8769 -0.0625 -0.6775
 2243TIP3    H128288   3.315   5.535   7.638  0.5364 -0.0932 -1.7769
 2243TIP3    H228289   3.289   5.387   7.657  0.7155 -0.1048 -1.6280
 2244TIP3   OH228290   2.438   4.237   8.139  0.0410 -0.3361  0.0336
 2244TIP3    H128291   2.462   4.145   8.148  0.0824 -0.2632  0.6875
 2244TIP3    H228292   2.479   4.264   8.056 -1.0018 -1.2119 -0.8016
 2245TIP3   OH228293   0.883   1.569   0.477  0.0243 -0.0166  0.4249
 2245TIP3    H128294   0.876   1.664   0.482  0.2088 -0.0398  1.1314
 2245TIP3    H228295   0.805   1.537   0.521 -0.2709 -0.1967 -0.2152
 2246TIP3   OH228296   3.691   4.116   1.059  0.7510 -0.2030  0.3026
 2246TIP3    H128297   3.638   4.036   1.062 -1.2657  1.0486 -0.0141
 2246TIP3    H228298   3.706   4.138   1.151 -0.2922  0.0216  0.4391
 2247TIP3   OH228299   1.016   6.405   0.552 -0.3819  0.2737  0.5778
 2247TIP3    H128300   0.988   6.330   0.499  1.7984  1.0553 -1.8996
 2247TIP3    H228301   1.082   6.368   0.611 -1.1099 -0.1807  1.1222
 2248TIP3   OH228302   1.791   0.312   7.788  0.3899  0.0104  0.2461
 2248TIP3    H128303   1.883   0.304   7.813  0.6397 -1.7146 -1.0737
 2248TIP3    H228304   1.757   0.382   7.844  2.7704  1.4851 -0.0006
 2249TIP3   OH228305   0.323   5.182   2.621  0.6680 -0.0259  0.6948
 2249TIP3    H128306   0.355   5.267   2.590  1.3057 -0.8652 -1.1283
 2249TIP3    H228307   0.246   5.202   2.674  1.6755  1.7734  1.5506
 2250TIP3   OH228308   2.268   6.957   7.452 -0.4660  0.0335 -0.1410
 2250TIP3    H128309   2.228   7.034   7.491 -0.0252 -0.1223  0.6409
 2250TIP3    H228310   2.332   6.992   7.390 -0.0683  0.3100  0.4124
 2251TIP3   OH228311   4.771   2.398   7.482  0.2263  0.0073  0.2082
 2251TIP3    H128312   4.700   2.340   7.510 -0.5138 -0.2246 -2.0006
 2251TIP3    H228313   4.829   2.343   7.430  0.1890  0.9346 -0.8608
 2252TIP3   OH228314   1.153   3.055   2.605  0.8962 -0.0510  0.8752
 2252TIP3    H128315   1.209   3.132   2.596 -0.1230  0.5473 -0.7136
 2252TIP3    H228316   1.192   2.990   2.546 -0.3081  0.5348 -0.6147
 2253TIP3   OH228317   6.869   2.159   1.656 -0.1449  0.7223 -0.0090
 2253TIP3    H128318   6.781   2.143   1.692  0.8291 -0.5940  1.9702
 2253TIP3    H228319   6.886   2.083   1.600  0.3173  0.1767  0.8558
 2254TIP3   OH228320   6.052   0.486   1.763  0.4216 -0.2378 -0.5076
 2254TIP3    H128321   6.023   0.396   1.748  0.5341 -0.7889  2.1626
 2254TIP3    H228322   6.051   0.526   1.676 -1.0462 -2.3748 -1.5626
 2255TIP3   OH228323   5.651   5.030   0.663  0.2063 -0.5056 -0.5664
 2255TIP3    H128324   5.673   5.009   0.572  0.3303 -0.6401 -0.5063
 2255TIP3    H228325   5.704   4.969   0.715  1.6653  0.8719 -0.3437
 2256TIP3   OH228326   5.926   2.250   1.356  0.1770 -0.0988 -0.2291
 2256TIP3    H128327   5.918   2.293   1.441 -1.2318 -0.9069  0.0799
 2256TIP3    H228328   5.963   2.164   1.376 -2.2767 -1.1899 -0.0869
 2257TIP3   OH228329   6.476   4.542   2.800  0.5670  0.4062  0.6450
 2257TIP3    H128330   6.559   4.538   2.752 -0.2377 -0.3560 -0.7470
 2257TIP3    H228331   6.467   4.455   2.839 -0.2688 -0.0346 -0.4723
 2258TIP3   OH228332   5.067   2.432   8.297 -0.3012  0.3417 -0.2513
 2258TIP3    H128333   5.030   2.421   8.209 -0.0129 -1.3335 -0.2065
 2258TIP3    H228334   5.046   2.350   8.341  0.8800  0.5534  0.7475
 2259TIP3   OH228335   1.651   4.393   6.775 -0.2351  0.2371  0.0051
 2259TIP3    H128336   1.639   4.456   6.704 -1.9630 -1.0191 -0.9033
 2259TIP3    H228337   1.703   4.323   6.736 -2.0215 -0.9285 -0.4089
 2260TIP3   OH228338   1.125   1.161   2.272 -0.7300  0.5169  0.2182
 2260TIP3    H128339   1.142   1.068   2.286 -1.4903  0.3715  0.1894
 2260TIP3    H228340   1.209   1.204   2.291 -0.4428 -0.1480  0.4613
 2261TIP3   OH228341   6.150   2.290   0.059 -0.1872  0.3751 -0.8728
 2261TIP3    H128342   6.114   2.208   0.024  0.4311 -0.4715  0.3814
 2261TIP3    H228343   6.095   2.309   0.135  1.8498 -0.9140  1.0443
 2262TIP3   OH228344   0.719   5.131   0.441 -0.6284  0.3345  0.0304
 2262TIP3    H128345   0.629   5.108   0.417 -0.0471 -0.1036 -1.8071
 2262TIP3    H228346   0.762   5.153   0.359  1.1994 -0.2821  0.7674
 2263TIP3   OH228347   4.715   0.298   0.780 -0.2299  0.6004  0.5349
 2263TIP3    H128348   4.641   0.358   0.767  0.2620  1.0910 -0.0971
 2263TIP3    H228349   4.772   0.314   0.705  0.6908  0.4828  1.1836
 2264TIP3   OH228350   3.777   3.281   1.238 -0.2505 -0.4964 -0.0100
 2264TIP3    H128351   3.814   3.295   1.151 -0.5932 -1.6771 -0.3658
 2264TIP3    H228352   3.837   3.327   1.297  0.9756 -1.1515 -0.6991
 2265TIP3   OH228353   3.783   0.382   1.810 -0.4718 -0.1300  0.4292
 2265TIP3    H128354   3.701   0.409   1.852 -0.7688 -0.0268 -0.1962
 2265TIP3    H228355   3.796   0.291   1.837 -1.2739 -0.4433 -0.1698
 2266TIP3   OH228356   1.706   3.809   7.473  0.2242  0.0539 -0.5964
 2266TIP3    H128357   1.738   3.752   7.543  2.9005  0.3384 -1.5099
 2266TIP3    H228358   1.756   3.784   7.396 -1.3055  1.0443 -1.9815
 2267TIP3   OH228359   3.531   6.797   7.488 -0.1725  0.4301  0.3597
 2267TIP3    H128360   3.493   6.714   7.459 -0.5946  0.9573 -0.6119
 2267TIP3    H228361   3.575   6.775   7.571 -0.6039 -0.6754  0.3106
 2268TIP3   OH228362   3.477   2.937   2.028 -0.1907 -0.1032  0.2478
 2268TIP3    H128363   3.432   2.859   2.060 -0.6019  0.2180  0.4642
 2268TIP3    H228364   3.452   2.944   1.936  3.6797 -2.9912 -1.3162
 2269TIP3   OH228365   1.386   0.794   1.614 -0.1882 -0.3094  0.5960
 2269TIP3    H128366   1.412   0.730   1.680 -0.1010 -0.6768  0.2085
 2269TIP3    H228367   1.335   0.743   1.550 -0.8798  0.1756  0.7520
 2270TIP3   OH228368   0.169   4.925   2.443 -0.7334 -0.1407 -0.4634
 2270TIP3    H128369   0.195   4.851   2.389 -2.2922 -0.8474 -0.2973
 2270TIP3    H228370   0.196   4.901   2.531 -1.0023 -0.3976 -0.4501
 2271TIP3   OH228371   0.591   5.753   6.865 -0.5113 -0.1055  0.3334
 2271TIP3    H128372   0.684   5.732   6.869 -0.8768 -1.8261  0.8805
 2271TIP3    H228373   0.580   5.801   6.783  0.8103 -0.1321  0.1246
 2272TIP3   OH228374   5.022   3.262   0.543  0.4713 -0.4161 -0.1717
 2272TIP3    H128375   5.053   3.180   0.504  1.1004 -0.2914  0.0615
 2272TIP3    H228376   5.092   3.288   0.602 -0.4825 -0.6200  1.0895
 2273TIP3   OH228377   3.106   2.767   1.456  0.2153 -0.4993  0.4560
 2273TIP3    H128378   3.102   2.709   1.531  0.5994  1.2211  1.8703
 2273TIP3    H228379   3.054   2.843   1.481  0.6618  0.2836 -0.8595
 2274TIP3   OH228380   5.448   0.701   8.133  0.3805 -0.3538  0.9013
 2274TIP3    H128381   5.504   0.723   8.058  1.1105 -0.1741  1.4838
 2274TIP3    H228382   5.507   0.654   8.193  0.0133  0.2320  1.7243
 2275TIP3   OH228383   3.237   5.296   2.465  0.1228 -0.1626 -0.0876
 2275TIP3    H128384   3.260   5.385   2.440  1.9599 -0.9077 -1.1962
 2275TIP3    H228385   3.148   5.283   2.431  0.5685  0.6197 -1.6171
 2276TIP3   OH228386   0.269   0.755   1.733 -0.0197 -0.5229 -0.0294
 2276TIP3    H128387   0.254   0.809   1.810 -0.3802 -0.2513 -0.2907
 2276TIP3    H228388   0.188   0.760   1.682  0.9831  1.1616 -1.5756
 2277TIP3   OH228389   0.303   2.543   7.081  0.3380 -0.2542 -0.3760
 2277TIP3    H128390   0.396   2.555   7.100  0.1984 -0.5220  0.5291
 2277TIP3    H228391   0.300   2.477   7.012  0.8083 -0.4830 -0.1816
 2278TIP3   OH228392   1.788   2.133   1.033 -0.2026 -0.2973 -0.1404
 2278TIP3    H128393   1.882   2.118   1.037  0.1073  1.6003  0.9274
 2278TIP3    H228394   1.763   2.154   1.123 -1.1619  1.7186 -0.8168
 2279TIP3   OH228395   6.316   6.188   0.605 -0.3296  0.0822  0.1814
 2279TIP3    H128396   6.345   6.126   0.538  0.0300  0.8093 -0.3440
 2279TIP3    H228397   6.225   6.206   0.584 -0.8459 -1.2547  1.1083
 2280TIP3   OH228398   1.691   1.150   2.289  0.1730  0.2605 -0.1177
 2280TIP3    H128399   1.786   1.161   2.294  0.1523  0.8988 -0.8748
 2280TIP3    H228400   1.656   1.228   2.331 -0.0366 -0.5087  1.1775
 2281TIP3   OH228401   6.036   0.725   0.442  0.1527  1.3531  0.7051
 2281TIP3    H128402   6.011   0.648   0.493  0.6478  1.3123  0.8978
 2281TIP3    H228403   6.046   0.693   0.353  0.3158  1.2017  0.7775
 2282TIP3   OH228404   2.660   3.847   8.010  0.4446 -0.3962 -0.0954
 2282TIP3    H128405   2.677   3.766   7.962 -0.0532 -0.3267 -0.3930
 2282TIP3    H228406   2.710   3.914   7.963  2.1103 -0.7851  1.0562
 2283TIP3   OH228407   2.906   5.479   0.419  1.0779 -0.0847  0.3081
 2283TIP3    H128408   2.880   5.389   0.436  1.6856 -0.1140  1.1705
 2283TIP3    H228409   2.824   5.528   0.417  0.7336 -0.6795 -0.3514
 2284TIP3   OH228410   5.348   4.523   6.665 -0.6821  0.2322  0.0089
 2284TIP3    H128411   5.438   4.545   6.643  0.0733 -1.2282  1.4496
 2284TIP3    H228412   5.339   4.432   6.637 -0.3342 -1.0312  3.5122
 2285TIP3   OH228413   2.476   6.387   1.560  0.4779  0.2045 -0.4398
 2285TIP3    H128414   2.563   6.395   1.598 -0.3653  1.8834  1.2777
 2285TIP3    H228415   2.491   6.380   1.466  2.4822 -0.4460 -0.1090
 2286TIP3   OH228416   5.914   0.045   0.125  0.0050 -0.0536 -0.0869
 2286TIP3    H128417   5.891   0.026   0.216  0.1310 -0.3715 -0.1195
 2286TIP3    H228418   5.917   0.140   0.121 -0.2709 -0.0300  0.1749
 2287TIP3   OH228419   2.037   2.266   0.629  0.2082  0.1917 -0.0534
 2287TIP3    H128420   1.996   2.352   0.614 -0.0570  0.2129  0.7187
 2287TIP3    H228421   2.129   2.286   0.646  0.1995  0.3048 -0.1419
 2288TIP3   OH228422   3.370   2.364   8.032  0.0335  0.0478  0.0258
 2288TIP3    H128423   3.325   2.295   8.081  0.7020  0.1062  0.7451
 2288TIP3    H228424   3.332   2.445   8.067  1.0493  0.1188  1.0342
 2289TIP3   OH228425   0.674   3.620   7.795 -1.1522 -0.2606  0.6821
 2289TIP3    H128426   0.752   3.596   7.746 -0.3572  0.7546  1.4059
 2289TIP3    H228427   0.659   3.547   7.855 -0.5764 -0.3296  0.7466
 2290TIP3   OH228428   0.313   0.260   7.851  0.1524 -0.2872  0.5784
 2290TIP3    H128429   0.267   0.309   7.919 -1.3724  1.3796 -1.5116
 2290TIP3    H228430   0.302   0.168   7.876  0.1060  0.2867  2.8115
 2291TIP3   OH228431   5.182   0.727   8.042  0.7234  0.0100  0.4969
 2291TIP3    H128432   5.273   0.738   8.067  0.4477  0.7075  1.2475
 2291TIP3    H228433   5.147   0.816   8.037  0.2597 -0.2078 -0.4931
 2292TIP3   OH228434   6.748   5.001   2.372  0.1960 -0.1071  0.0021
 2292TIP3    H128435   6.836   5.031   2.350  0.5999 -0.0152  1.6263
 2292TIP3    H228436   6.760   4.945   2.448 -1.2533  0.9056  1.0320
 2293TIP3   OH228437   2.944   1.487   2.617  0.2342 -0.1904  0.4150
 2293TIP3    H128438   3.002   1.550   2.658 -0.6058  0.2938  0.8968
 2293TIP3    H228439   3.001   1.414   2.590  0.7609 -0.7257  2.8053
 2294TIP3   OH228440   0.859   3.706   7.259 -0.1675 -0.1008 -0.0468
 2294TIP3    H128441   0.887   3.615   7.252  0.0316 -0.0298 -0.1986
 2294TIP3    H228442   0.775   3.709   7.215  0.1618 -0.0671 -0.6875
 2295TIP3   OH228443   1.442   5.974   0.119 -0.1009  0.4238  0.1586
 2295TIP3    H128444   1.457   5.981   0.213 -0.2656  0.8276  0.1603
 2295TIP3    H228445   1.506   6.033   0.080  0.6166 -0.4810 -0.0463
 2296TIP3   OH228446   3.915   0.938   0.678 -0.0094 -0.4929 -0.2800
 2296TIP3    H128447   3.957   0.926   0.593  1.1639 -0.1926  0.2271
 2296TIP3    H228448   3.880   0.852   0.700 -0.2938 -0.5817 -1.0389
 2297TIP3   OH228449   1.926   0.069   7.404 -0.1494 -0.1797  0.2356
 2297TIP3    H128450   1.933  -0.026   7.394  0.5651 -0.0568 -0.5747
 2297TIP3    H228451   2.003   0.103   7.360  0.3244  0.7297  1.6894
 2298TIP3   OH228452   6.970   3.698   7.580  0.0881  0.3042  0.2774
 2298TIP3    H128453   6.956   3.632   7.512  2.2132 -0.8901  0.9145
 2298TIP3    H228454   7.032   3.760   7.540 -0.6257  1.0128  0.2576
 2299TIP3   OH228455   3.193   0.517   1.136  0.1600  0.3307 -0.0644
 2299TIP3    H128456   3.100   0.507   1.157  0.2750  0.8378  0.7344
 2299TIP3    H228457   3.194   0.557   1.050 -0.3418 -1.1654 -0.8030
 2300TIP3   OH228458   6.626   5.960   7.234 -0.1122 -0.4578 -0.2315
 2300TIP3    H128459   6.703   5.997   7.192  0.5492 -0.6045  0.8255
 2300TIP3    H228460   6.660   5.896   7.296 -1.1793 -2.1098 -1.2434
 2301TIP3   OH228461   4.744   0.284   7.029  0.5507  0.4040  0.0420
 2301TIP3    H128462   4.760   0.248   6.942 -0.0381  1.5815 -0.5819
 2301TIP3    H228463   4.717   0.375   7.012 -1.8124  0.0043  1.2984
 2302TIP3   OH228464   2.612   3.412   0.894  0.1779 -0.3108 -0.0676
 2302TIP3    H128465   2.697   3.417   0.937  0.3728  0.6057 -0.5368
 2302TIP3    H228466   2.605   3.321   0.865  0.2202 -0.8500  1.5132
 2303TIP3   OH228467   1.444   3.998   0.254 -0.1534  0.8923  0.2762
 2303TIP3    H128468   1.500   4.064   0.215 -0.2785  1.4664  1.0398
 2303TIP3    H228469   1.389   4.046   0.316  1.2653 -0.1715  2.5411
 2304TIP3   OH228470   2.637   6.611   1.337 -0.9183 -0.2602 -0.2917
 2304TIP3    H128471   2.546   6.640   1.342 -1.1731 -0.8407 -1.2732
 2304TIP3    H228472   2.639   6.551   1.262  0.3355 -0.0156 -0.4740
 2305TIP3   OH228473   0.170   4.682   7.615  0.3072 -0.4406 -0.6454
 2305TIP3    H128474   0.139   4.702   7.527 -0.5450 -2.4122 -0.8524
 2305TIP3    H228475   0.161   4.587   7.622 -0.0567 -0.2782  1.7311
 2306TIP3   OH228476   1.167   5.792   2.618 -0.2243 -0.1434  0.4019
 2306TIP3    H128477   1.191   5.784   2.526  1.4454  1.0529  0.6780
 2306TIP3    H228478   1.076   5.761   2.623  0.1467 -1.6545 -1.3511
 2307TIP3   OH228479   3.691   0.414   1.287  0.2665 -0.2092 -0.3528
 2307TIP3    H128480   3.607   0.459   1.277 -0.5063 -1.3424  0.8037
 2307TIP3    H228481   3.674   0.344   1.349  1.9754 -0.7495 -0.4381
 2308TIP3   OH228482   0.760   3.480   6.338 -0.3883  0.4372  0.2679
 2308TIP3    H128483   0.704   3.557   6.331 -0.8670  0.1046  0.3648
 2308TIP3    H228484   0.847   3.514   6.357 -0.1428  1.0804 -1.7799
 2309TIP3   OH228485   6.959   0.650   6.812 -0.3039  0.2583  0.2185
 2309TIP3    H128486   7.042   0.638   6.858 -0.7138 -1.2943  0.6035
 2309TIP3    H228487   6.899   0.679   6.881 -0.4267 -0.0648  0.2495
 2310TIP3   OH228488   0.410   5.536   6.297  0.0150 -0.4007  0.0049
 2310TIP3    H128489   0.498   5.569   6.317 -0.3317  0.6064 -0.0740
 2310TIP3    H228490   0.361   5.613   6.270 -0.8187 -1.0012 -0.2448
 2311TIP3   OH228491   1.329   5.101   0.088 -0.6398 -0.2496  0.0944
 2311TIP3    H128492   1.421   5.087   0.112 -0.6038 -0.7734 -0.3382
 2311TIP3    H228493   1.279   5.059   0.158 -0.5607  0.1395  0.3945
 2312TIP3   OH228494   2.845   4.684   7.693 -0.3842  0.7919 -0.6537
 2312TIP3    H128495   2.836   4.753   7.759 -2.4547 -0.3410  0.3432
 2312TIP3    H228496   2.895   4.725   7.623 -0.3328  2.8540  0.5056
 2313TIP3   OH228497   4.695   1.654   0.119 -0.3874  0.0659 -0.4001
 2313TIP3    H128498   4.788   1.676   0.115  0.2267 -2.4217 -1.7897
 2313TIP3    H228499   4.653   1.723   0.067  0.9342  0.1433 -1.4482
 2314TIP3   OH228500   5.879   2.941   1.687  0.1828 -0.4764 -0.0989
 2314TIP3    H128501   5.786   2.917   1.694 -0.7871  2.9635  0.5786
 2314TIP3    H228502   5.888   2.975   1.598  0.6664 -0.3803 -0.0151
 2315TIP3   OH228503   0.545   0.908   6.803 -0.4284  0.7041 -0.2745
 2315TIP3    H128504   0.546   0.903   6.898  0.9393  0.4936 -0.2865
 2315TIP3    H228505   0.453   0.892   6.779 -0.6160 -0.1407  0.9456
 2316TIP3   OH228506   4.415   2.709   0.994  0.1549  0.2723 -0.1641
 2316TIP3    H128507   4.426   2.799   1.023  0.1256  0.1316  0.3027
 2316TIP3    H228508   4.440   2.657   1.071  1.4237 -0.1450 -0.8239
 2317TIP3   OH228509   5.250   0.011   0.829 -0.5051 -0.4499 -0.0482
 2317TIP3    H128510   5.158   0.028   0.849 -0.0847  2.0415  0.0071
 2317TIP3    H228511   5.299   0.046   0.903  0.5916  0.6812 -1.2377
 2318TIP3   OH228512   4.972   6.254   8.297  0.4800 -0.1342 -0.0345
 2318TIP3    H128513   5.065   6.234   8.292  0.6348  0.7403 -0.8584
 2318TIP3    H228514   4.934   6.208   8.222  0.1010 -1.1427  0.7407
 2319TIP3   OH228515   2.262   6.096   1.200  0.0952  0.1996  0.4815
 2319TIP3    H128516   2.170   6.121   1.195 -0.1233 -0.5449  0.5789
 2319TIP3    H228517   2.307   6.175   1.229 -0.7186  0.1808  1.9199
 2320TIP3   OH228518   0.059   1.245   0.924 -0.0423  0.1181  0.1870
 2320TIP3    H128519   0.116   1.321   0.931 -0.4672  0.6012 -1.1506
 2320TIP3    H228520   0.075   1.211   0.836 -0.5229 -0.7998  0.4382
 2321TIP3   OH228521   5.739   2.020   8.096 -0.1949 -0.0556 -0.1121
 2321TIP3    H128522   5.771   1.956   8.159 -0.0608  0.8985  0.8011
 2321TIP3    H228523   5.660   2.056   8.136  0.8583  1.8377  0.3694
 2322TIP3   OH228524   4.784   6.682   7.020  0.0792  0.2813 -0.1112
 2322TIP3    H128525   4.714   6.619   7.037  0.0926  0.3245  0.1053
 2322TIP3    H228526   4.813   6.710   7.107 -0.2016  0.8938 -0.2079
 2323TIP3   OH228527   0.189   3.636   2.176 -0.3911  0.7456 -0.0434
 2323TIP3    H128528   0.130   3.709   2.194  0.0718  1.3074 -0.7444
 2323TIP3    H228529   0.240   3.626   2.257 -0.9931  0.6856  0.3315
 2324TIP3   OH228530   3.303   1.797   2.570 -0.0752  0.0792  0.3291
 2324TIP3    H128531   3.246   1.868   2.601 -0.1052 -0.3650  1.3585
 2324TIP3    H228532   3.258   1.717   2.598  0.5825 -0.3048  0.3071
 2325TIP3   OH228533   2.161   6.818   0.076 -0.0744  0.1542  0.0977
 2325TIP3    H128534   2.158   6.770  -0.007 -0.8840  0.6226 -0.1450
 2325TIP3    H228535   2.215   6.762   0.133 -0.8086 -0.9481 -0.2430
 2326TIP3   OH228536   3.478   5.952   2.060  0.7647 -0.1149  0.3529
 2326TIP3    H128537   3.383   5.965   2.057  0.9084  1.0355  0.4657
 2326TIP3    H228538   3.506   5.994   2.141  1.5509  0.8305 -0.3832
 2327TIP3   OH228539   5.201   2.928   8.188  0.3195 -0.3414 -0.1342
 2327TIP3    H128540   5.226   2.835   8.189 -1.6274 -0.8993 -0.3536
 2327TIP3    H228541   5.141   2.938   8.261  1.9700  1.2518  1.1142
 2328TIP3   OH228542   6.100   6.035   1.612 -0.4651 -0.1489  0.2738
 2328TIP3    H128543   6.154   6.098   1.659  0.3702 -1.0736  0.5883
 2328TIP3    H228544   6.161   5.969   1.579 -1.1657 -0.0840 -1.2237
 2329TIP3   OH228545   0.849   0.374   1.703  0.3342  0.0519 -0.2575
 2329TIP3    H128546   0.862   0.469   1.712  0.1556  0.0934 -0.4465
 2329TIP3    H228547   0.755   0.364   1.687  0.6860  0.0116 -2.5306
 2330TIP3   OH228548   5.832   1.559   7.868  0.3341 -0.2777  0.1231
 2330TIP3    H128549   5.827   1.646   7.907  1.4659  0.4963 -1.4014
 2330TIP3    H228550   5.913   1.522   7.903  0.0928 -0.5416  0.4057
 2331TIP3   OH228551   4.919   3.110   8.282 -0.1665 -0.1626 -0.0185
 2331TIP3    H128552   4.963   3.036   8.323  0.6255  0.1891 -0.2079
 2331TIP3    H228553   4.945   3.186   8.334 -2.7021 -0.2281  1.5318
 2332TIP3   OH228554   1.169   4.546   0.722 -0.0912  0.0099  0.0972
 2332TIP3    H128555   1.168   4.625   0.776  2.1876  0.0813  0.1274
 2332TIP3    H228556   1.145   4.578   0.634  1.4064  0.8904 -0.0249
 2333TIP3   OH228557   2.739   1.713   2.359  0.5742  0.9608 -0.3470
 2333TIP3    H128558   2.664   1.687   2.412  0.3297  1.7109 -0.3019
 2333TIP3    H228559   2.793   1.764   2.420  0.9660  0.6855 -0.4633
 2334TIP3   OH228560   0.781   6.463   7.833  0.1943 -0.6217  0.3682
 2334TIP3    H128561   0.764   6.505   7.917 -0.2288 -0.2258  0.0871
 2334TIP3    H228562   0.750   6.526   7.768  0.7652 -0.8138 -0.0918
 2335TIP3   OH228563   2.283   5.281   7.129 -0.0376  0.2091 -0.9352
 2335TIP3    H128564   2.320   5.366   7.153  0.2624 -0.3709  0.7527
 2335TIP3    H228565   2.257   5.292   7.037  1.5881  1.5589 -1.2934
 2336TIP3   OH228566   0.971   1.838   1.017 -0.3660  0.0517  0.3214
 2336TIP3    H128567   1.042   1.890   0.980 -0.8571  0.1729 -0.4702
 2336TIP3    H228568   1.014   1.765   1.061  0.2329 -0.1492 -0.5839
 2337TIP3   OH228569   1.676   5.534   7.493 -0.3523 -0.3194 -0.0366
 2337TIP3    H128570   1.634   5.458   7.453 -0.2455  0.2759 -1.3590
 2337TIP3    H228571   1.733   5.498   7.561 -0.6425 -1.3820 -0.3475
 2338TIP3   OH228572   3.448   0.953   7.048 -0.5412 -0.5403 -0.3006
 2338TIP3    H128573   3.436   0.994   6.962 -0.3864 -3.1362 -1.6369
 2338TIP3    H228574   3.363   0.916   7.070 -0.3057 -0.8257  0.1517
 2339TIP3   OH228575   1.948   4.243   0.129  0.1852  0.2819  0.1576
 2339TIP3    H128576   2.014   4.174   0.119 -0.1921 -0.3323  1.5481
 2339TIP3    H228577   1.962   4.302   0.055  3.1328  0.8978  1.0859
 2340TIP3   OH228578   3.037   4.996   1.685  0.4005 -0.4017 -0.2123
 2340TIP3    H128579   2.951   4.954   1.692 -0.0971  0.1732 -2.2952
 2340TIP3    H228580   3.078   4.956   1.608  1.8963 -0.4330  0.5509
 2341TIP3   OH228581   0.197   3.404   0.136  0.5160  0.4399 -0.2663
 2341TIP3    H128582   0.257   3.465   0.177 -0.2008  0.7755  0.3194
 2341TIP3    H228583   0.119   3.406   0.192 -0.6857  1.2507 -1.8776
 2342TIP3   OH228584   3.793   4.502   0.053 -0.4604  0.0118  0.1785
 2342TIP3    H128585   3.806   4.491   0.147 -1.3378  0.3199  0.3503
 2342TIP3    H228586   3.721   4.565   0.046  0.1867  0.6868 -0.7119
 2343TIP3   OH228587   0.810   2.862   7.163 -0.1100  0.1426 -0.1377
 2343TIP3    H128588   0.861   2.781   7.156 -1.8250 -0.9245 -0.9982
 2343TIP3    H228589   0.874   2.932   7.154  1.3046 -1.1385 -0.3555
 2344TIP3   OH228590   6.183   3.267   6.884  0.5894  0.7933 -0.0099
 2344TIP3    H128591   6.121   3.336   6.863  0.2904  0.0648 -1.6620
 2344TIP3    H228592   6.178   3.258   6.980 -2.4614  0.2085 -0.1200
 2345TIP3   OH228593   4.658   2.598   0.609 -0.3245 -0.2330  0.2349
 2345TIP3    H128594   4.624   2.578   0.522 -1.6553  0.0775  0.6587
 2345TIP3    H228595   4.606   2.543   0.668  1.6395 -1.6529  0.7345
 2346TIP3   OH228596   0.697   2.778   6.223  0.0185  0.5105  0.1620
 2346TIP3    H128597   0.736   2.858   6.190  2.3859 -0.1475  1.1426
 2346TIP3    H228598   0.666   2.801   6.311  2.1526  0.0482  1.1015
 2347TIP3   OH228599   3.268   1.654   1.802 -0.0475 -0.1891  0.0723
 2347TIP3    H128600   3.248   1.740   1.838  1.4372  0.7102 -1.1446
 2347TIP3    H228601   3.364   1.647   1.808  0.1754 -0.4435 -2.5874
 2348TIP3   OH228602   0.326   1.524   8.194  0.0317 -0.0045  0.2671
 2348TIP3    H128603   0.376   1.454   8.236  1.3740  0.1557 -0.9438
 2348TIP3    H228604   0.367   1.533   8.107 -0.8730  1.4705 -0.0429
 2349TIP3   OH228605   6.354   0.120   1.453  0.6018  0.0542 -0.1779
 2349TIP3    H128606   6.406   0.050   1.494  0.8246  0.6828  0.6231
 2349TIP3    H228607   6.396   0.201   1.481 -0.2560  0.5479 -0.2939
 2350TIP3   OH228608   6.691   2.831   5.999  0.0054  0.2328 -0.4421
 2350TIP3    H128609   6.665   2.759   6.056  1.2543 -1.0464 -1.4163
 2350TIP3    H228610   6.756   2.880   6.050 -0.2954  0.2312 -0.0575
 2351TIP3   OH228611   0.673   6.282   0.742  0.4641 -0.8437 -0.0736
 2351TIP3    H128612   0.618   6.332   0.802  0.0862 -0.5972 -0.6185
 2351TIP3    H228613   0.641   6.305   0.654  0.0653 -2.2724 -0.3346
 2352TIP3   OH228614   6.921   0.284   7.323 -0.6156  0.0441 -0.6331
 2352TIP3    H128615   6.865   0.354   7.358 -0.6658  0.4751 -1.5528
 2352TIP3    H228616   6.968   0.325   7.251  0.9381 -0.3010  0.1572
 2353TIP3   OH228617   1.107   4.385   0.936  0.1180  0.3705  0.1948
 2353TIP3    H128618   1.134   4.435   0.858  1.2322 -0.4299  0.0397
 2353TIP3    H228619   1.182   4.329   0.955 -0.3160  0.2424  1.6038
 2354TIP3   OH228620   0.268   1.178   8.068 -0.1173 -0.6453 -0.3960
 2354TIP3    H128621   0.339   1.116   8.084  0.1208 -0.8256 -1.9792
 2354TIP3    H228622   0.252   1.173   7.974 -1.4079  0.2934 -0.2628
 2355TIP3   OH228623   1.059   4.722   7.077  0.2646 -0.2946  0.3969
 2355TIP3    H128624   1.059   4.635   7.039 -0.3976  0.0371 -0.3966
 2355TIP3    H228625   1.142   4.761   7.048 -0.3989  0.0935 -1.0817
 2356TIP3   OH228626   1.102   4.492   1.499  0.1471 -0.5807  0.5274
 2356TIP3    H128627   1.159   4.559   1.536 -0.8913  0.6250  0.0259
 2356TIP3    H228628   1.141   4.472   1.413 -0.2577  0.3758  0.1023
 2357TIP3   OH228629   1.804   1.115   0.663 -0.1093 -0.3027  0.0446
 2357TIP3    H128630   1.818   1.195   0.712 -0.9881 -0.2443  0.2244
 2357TIP3    H228631   1.824   1.139   0.572  2.2133 -0.6049  0.4304
 2358TIP3   OH228632   2.377   2.992   1.189 -0.7279 -0.2832  0.0138
 2358TIP3    H128633   2.416   2.907   1.170 -0.2268 -0.2518  0.8485
 2358TIP3    H228634   2.393   3.005   1.283 -1.6844  0.2792  0.1081
 2359TIP3   OH228635   2.733   6.803   0.146 -0.1624 -0.1717  0.0082
 2359TIP3    H128636   2.827   6.806   0.161 -0.3555 -0.8044  1.5228
 2359TIP3    H228637   2.716   6.873   0.082  1.1916  0.5646  0.4277
 2360TIP3   OH228638   2.034   1.288   6.754  0.9445  0.0834 -0.1010
 2360TIP3    H128639   1.995   1.202   6.769  0.6521  0.2092 -0.1373
 2360TIP3    H228640   1.970   1.350   6.789  1.1201  0.2905 -0.1429
 2361TIP3   OH228641   5.266   0.379   7.476 -0.2328 -0.0350  0.4798
 2361TIP3    H128642   5.293   0.295   7.515 -0.4367 -0.2191  0.2263
 2361TIP3    H228643   5.204   0.354   7.407 -1.4314  0.4013  1.3599
 2362TIP3   OH228644   0.531   0.332   6.648 -0.1202  0.2029  0.0397
 2362TIP3    H128645   0.528   0.325   6.744  0.9953  0.1805  0.0839
 2362TIP3    H228646   0.590   0.405   6.631  0.3523 -0.3221 -0.6381
 2363TIP3   OH228647   5.424   6.538   8.263  0.2649  0.7757 -0.3867
 2363TIP3    H128648   5.499   6.479   8.266 -0.6457 -0.4228 -0.3474
 2363TIP3    H228649   5.462   6.624   8.242  1.5167 -0.0350 -1.6862
 2364TIP3   OH228650   0.430   4.160   6.841  0.3728  0.1834 -0.0301
 2364TIP3    H128651   0.427   4.255   6.830  1.4469  0.0347 -2.4276
 2364TIP3    H228652   0.379   4.126   6.767  2.4353 -1.0598 -0.9864
 2365TIP3   OH228653   1.910   5.251   0.333  0.3898  0.4032  0.0929
 2365TIP3    H128654   1.964   5.305   0.275 -0.4905  0.5526 -0.6124
 2365TIP3    H228655   1.851   5.314   0.377  0.2240  0.1566  0.2273
 2366TIP3   OH228656   2.491   0.210   7.496 -0.2652  0.1021 -0.0448
 2366TIP3    H128657   2.481   0.158   7.576 -2.1202 -0.6699 -0.7144
 2366TIP3    H228658   2.529   0.149   7.433  0.3081  0.4352 -0.0290
 2367TIP3   OH228659   1.424   4.224   7.916 -0.1387 -0.7661  0.2546
 2367TIP3    H128660   1.493   4.275   7.959  1.3518 -0.5128 -2.2530
 2367TIP3    H228661   1.451   4.133   7.928 -0.7252 -0.8077  1.3871
 2368TIP3   OH228662   0.075   3.050   8.102  0.0213  0.1273 -0.0928
 2368TIP3    H128663   0.028   3.022   8.023  0.8511  0.7050 -0.8107
 2368TIP3    H228664   0.015   3.030   8.174 -0.5233 -0.9182 -0.8172
 2369TIP3   OH228665   4.094   5.357   0.430 -0.4972 -0.9258  0.0137
 2369TIP3    H128666   4.113   5.451   0.426 -0.6562 -0.7989  1.6013
 2369TIP3    H228667   4.173   5.315   0.396  0.0470 -0.2464  0.4199
 2370TIP3   OH228668   1.086   4.587   6.053 -0.6881 -0.0574  0.3118
 2370TIP3    H128669   1.042   4.655   6.002 -0.0237  0.9435  1.0340
 2370TIP3    H228670   1.179   4.608   6.047 -0.3073 -1.7934 -0.6897
 2371TIP3   OH228671   4.419   2.596   3.027 -0.3883 -0.3441  0.6548
 2371TIP3    H128672   4.486   2.662   3.011 -1.8037  1.1288  0.4724
 2371TIP3    H228673   4.459   2.514   3.000  1.8069  0.2432  1.8509
 2372TIP3   OH228674   2.888   0.417   0.517 -0.0981  0.3059 -1.0253
 2372TIP3    H128675   2.955   0.384   0.577 -1.2665  1.5030  1.0727
 2372TIP3    H228676   2.838   0.339   0.493 -0.1930 -0.0962  0.3711
 2373TIP3   OH228677   0.560   0.899   1.071 -0.5386 -0.4109  0.0786
 2373TIP3    H128678   0.647   0.934   1.052 -0.0387 -2.0946 -0.9559
 2373TIP3    H228679   0.568   0.865   1.160 -0.5334  0.5291  0.4523
 2374TIP3   OH228680   3.019   2.547   5.077 -0.0685  0.0476 -0.5630
 2374TIP3    H128681   3.072   2.543   5.157 -4.3094 -0.5762  2.5528
 2374TIP3    H228682   2.973   2.631   5.083  0.4227  0.5811 -3.1446
 2375TIP3   OH228683   6.541   5.842   0.975  0.6453  0.4063 -0.1412
 2375TIP3    H128684   6.468   5.781   0.969 -1.1745  2.5124 -0.3603
 2375TIP3    H228685   6.575   5.829   1.064  1.5224 -2.1491 -0.7508
 2376TIP3   OH228686   4.432   1.248   7.249 -0.9553 -0.7202  0.0658
 2376TIP3    H128687   4.365   1.206   7.196 -1.5319  1.7758 -1.3300
 2376TIP3    H228688   4.515   1.222   7.208 -1.3337  0.0336 -1.2167
 2377TIP3   OH228689   5.410   3.108   2.097  0.0552  0.4998 -0.1231
 2377TIP3    H128690   5.434   3.143   2.183 -0.5018 -1.8557  1.0695
 2377TIP3    H228691   5.318   3.085   2.106  1.0502 -4.3996  0.5011
 2378TIP3   OH228692   0.270   4.441   8.043  0.5718 -0.1844  0.1375
 2378TIP3    H128693   0.319   4.360   8.059  0.9435  0.1477  0.7090
 2378TIP3    H228694   0.229   4.462   8.127  0.3292  0.1272 -0.0556
 2379TIP3   OH228695   6.654   1.078   7.555  0.4923  0.4266  0.1741
 2379TIP3    H128696   6.651   1.165   7.597 -0.2601  0.1484  0.7255
 2379TIP3    H228697   6.593   1.085   7.482 -0.2025  0.1178  0.7172
 2380TIP3   OH228698   4.976   5.234   0.481 -0.0905 -0.0907  0.5888
 2380TIP3    H128699   4.908   5.189   0.431 -0.8986 -0.1942  1.7461
 2380TIP3    H228700   4.942   5.238   0.570  0.3227  2.0879  0.6963
 2381TIP3   OH228701   2.149   3.792   1.223  0.0393  0.1039 -0.4994
 2381TIP3    H128702   2.135   3.763   1.132 -0.1516 -2.3199  0.2120
 2381TIP3    H228703   2.206   3.868   1.215 -1.0743  0.8064 -2.7042
 2382TIP3   OH228704   4.243   6.031   6.737 -0.1795  0.1606  0.3591
 2382TIP3    H128705   4.297   6.014   6.814 -2.0980  0.6725  1.9129
 2382TIP3    H228706   4.245   5.949   6.688 -0.3798 -0.8434  1.9405
 2383TIP3   OH228707   3.103   4.497   0.127  0.2075 -0.5874  0.4452
 2383TIP3    H128708   3.193   4.464   0.132  0.0541 -1.3184 -0.9726
 2383TIP3    H228709   3.049   4.426   0.161  0.0359 -0.9789 -0.6032
 2384TIP3   OH228710   4.559   6.882   7.336 -0.7312 -0.1539 -0.2386
 2384TIP3    H128711   4.604   6.899   7.418  1.1744 -0.3640 -1.1762
 2384TIP3    H228712   4.581   6.958   7.281  0.9733 -1.6049 -1.6873
 2385TIP3   OH228713   4.906   3.010   1.083  0.6938 -0.3052  0.3374
 2385TIP3    H128714   4.871   2.949   1.147 -0.0837  0.5441  0.7508
 2385TIP3    H228715   4.847   3.004   1.008  1.2360 -0.8322 -0.0615
 2386TIP3   OH228716   2.550   5.433   1.520 -0.3649  0.1817 -0.6847
 2386TIP3    H128717   2.560   5.437   1.616  0.8954 -0.3186 -0.7758
 2386TIP3    H228718   2.606   5.504   1.488 -0.1848 -0.1428 -1.0836
 2387TIP3   OH228719   3.941   0.152   0.377  0.1691 -0.7549  0.1183
 2387TIP3    H128720   3.924   0.128   0.468  3.3744 -1.1727  0.7379
 2387TIP3    H228721   4.011   0.092   0.349  1.7754  1.6514 -1.3998
 2388TIP3   OH228722   4.472   1.193   1.690  0.2202 -0.0332  0.0731
 2388TIP3    H128723   4.477   1.174   1.596  0.3022 -1.1409  0.2965
 2388TIP3    H228724   4.449   1.286   1.694 -2.3325 -0.5257 -1.0573
 2389TIP3   OH228725   5.109   5.515   7.176 -0.1644  0.1553 -0.7698
 2389TIP3    H128726   5.067   5.600   7.190 -0.4540  0.1647 -1.6525
 2389TIP3    H228727   5.153   5.523   7.092 -0.4182 -0.6491 -0.9893
 2390TIP3   OH228728   4.612   1.688   6.884 -0.1557  0.1194 -0.3218
 2390TIP3    H128729   4.663   1.626   6.833  1.6182  2.2225 -1.2290
 2390TIP3    H228730   4.603   1.646   6.970  0.2298 -1.7173 -1.1201
 2391TIP3   OH228731   6.905   0.684   0.668  0.1006 -0.1288  0.2976
 2391TIP3    H128732   6.822   0.723   0.698  1.4629  2.0903  1.4544
 2391TIP3    H228733   6.925   0.619   0.735 -0.2069  0.0675  0.5891
 2392TIP3   OH228734   6.714   1.045   1.806 -0.1379 -0.0303 -0.5031
 2392TIP3    H128735   6.748   1.012   1.889  0.8032  1.9921 -0.0290
 2392TIP3    H228736   6.621   1.059   1.823 -0.0255  0.0386  0.0957
 2393TIP3   OH228737   4.438   2.718   0.056  0.2796 -0.0031  0.1463
 2393TIP3    H128738   4.469   2.809   0.050 -0.1865  0.1362 -0.1955
 2393TIP3    H228739   4.345   2.726   0.077  0.2273 -0.4047  0.0757
 2394TIP3   OH228740   6.840   1.608   0.659 -0.3028  0.4033  0.3730
 2394TIP3    H128741   6.927   1.646   0.647 -0.5824  1.0013  0.2169
 2394TIP3    H228742   6.840   1.528   0.605  0.5624 -0.2647  1.3377
 2395TIP3   OH228743   1.402   1.686   1.541  0.0460 -0.2707 -0.1601
 2395TIP3    H128744   1.411   1.615   1.478  0.2778  0.0399 -0.4869
 2395TIP3    H228745   1.310   1.711   1.536 -0.4362 -1.6498  1.1878
 2396TIP3   OH228746   1.211   1.157   1.397  0.5557  0.0687 -0.1004
 2396TIP3    H128747   1.140   1.146   1.334 -1.3890 -0.8375  2.0975
 2396TIP3    H228748   1.172   1.210   1.467  2.6468  1.1006  0.3596
 2397TIP3   OH228749   4.919   4.579   1.097  0.4646 -0.1377  0.6100
 2397TIP3    H128750   4.865   4.600   1.020  0.5065 -0.1012  0.5907
 2397TIP3    H228751   4.921   4.483   1.099 -2.1447 -0.2717  2.3519
 2398TIP3   OH228752   5.155   4.942   6.833  0.4363  0.4963 -0.1543
 2398TIP3    H128753   5.074   4.902   6.865 -1.6663  3.3094 -1.5775
 2398TIP3    H228754   5.157   4.921   6.740 -0.9477  3.7853 -1.0376
 2399TIP3   OH228755   4.900   5.373   1.363 -0.1528  0.2878 -0.0780
 2399TIP3    H128756   4.919   5.461   1.330 -1.5975  0.6413 -0.0131
 2399TIP3    H228757   4.986   5.334   1.376  0.4925  1.0951 -1.6800
 2400TIP3   OH228758   6.249   6.975   7.403  0.1833  0.3814  0.1396
 2400TIP3    H128759   6.196   6.928   7.338  1.6223 -0.3822 -0.5197
 2400TIP3    H228760   6.186   7.029   7.450 -0.9786  0.6647 -1.6337
 2401TIP3   OH228761   1.957   0.313   6.898  0.3063 -0.2425  0.0212
 2401TIP3    H128762   2.026   0.318   6.832 -0.0652  1.2277 -0.2944
 2401TIP3    H228763   1.881   0.354   6.856 -0.3768 -0.6139  0.8482
 2402TIP3   OH228764   4.193   1.383   0.163 -0.4825 -0.0091 -0.4008
 2402TIP3    H128765   4.125   1.364   0.227 -0.2079 -1.2039 -0.4412
 2402TIP3    H228766   4.255   1.439   0.210 -0.4821 -0.5509  0.2649
 2403TIP3   OH228767   1.011   1.428   2.246  0.1902 -0.2783 -0.1808
 2403TIP3    H128768   0.928   1.383   2.256  0.0032  0.0509 -0.2330
 2403TIP3    H228769   1.077   1.361   2.263 -0.0862 -0.0846  1.9320
 2404TIP3   OH228770   5.019   4.181   0.612 -0.2275  0.2955 -0.2562
 2404TIP3    H128771   5.034   4.273   0.587  0.1342  0.4476  0.4973
 2404TIP3    H228772   4.960   4.148   0.545  0.7430  0.6734 -1.3312
 2405TIP3   OH228773   1.677   5.978   1.772 -0.3659 -0.4474 -0.0289
 2405TIP3    H128774   1.692   5.883   1.774 -0.4790 -0.4668 -0.1247
 2405TIP3    H228775   1.661   6.001   1.864 -0.6432 -0.5681 -0.0469
 2406TIP3   OH228776   1.953   5.984   7.289  0.1367  0.4870 -0.3272
 2406TIP3    H128777   2.002   6.067   7.293  1.6279 -0.4144  1.6039
 2406TIP3    H228778   1.883   5.994   7.353  0.5864  0.1003  0.2280
 2407TIP3   OH228779   4.513   0.580   0.168  0.1909  0.1902 -0.1626
 2407TIP3    H128780   4.488   0.526   0.093  3.3591  0.1172 -1.3115
 2407TIP3    H228781   4.513   0.670   0.133  2.5263  0.0801 -0.6532
 2408TIP3   OH228782   1.272   5.515   7.771  0.2679  0.2983 -0.2424
 2408TIP3    H128783   1.367   5.510   7.765  0.5643  1.1418  2.4807
 2408TIP3    H228784   1.254   5.599   7.813 -1.7047  0.2524 -0.8864
 2409TIP3   OH228785   2.520   4.130   7.527 -0.0462 -0.0287 -0.0587
 2409TIP3    H128786   2.534   4.070   7.600 -0.0175  0.9051  0.7289
 2409TIP3    H228787   2.439   4.176   7.549 -0.3061 -0.0830 -0.8663
 2410TIP3   OH228788   5.212   0.117   6.832 -0.4843 -0.5307  0.3807
 2410TIP3    H128789   5.221   0.210   6.816 -0.8646 -0.4341  0.6953
 2410TIP3    H228790   5.157   0.085   6.761  0.6682 -0.7522 -0.4247
 2411TIP3   OH228791   5.053   0.826   1.833  0.5430 -0.0525  0.2536
 2411TIP3    H128792   5.036   0.805   1.925  0.6388 -4.1756 -0.4680
 2411TIP3    H228793   5.148   0.842   1.829  0.3623  1.2980  1.0024
 2412TIP3   OH228794   5.892   3.299   6.542  1.2001 -0.3444  0.2012
 2412TIP3    H128795   5.969   3.245   6.559  3.9109  3.7028  2.3970
 2412TIP3    H228796   5.841   3.295   6.623  2.0008  1.1297  0.8058
 2413TIP3   OH228797   1.104   0.536   2.294 -0.2821 -0.3029 -0.0891
 2413TIP3    H128798   1.165   0.464   2.286  0.3244  0.2204 -0.2667
 2413TIP3    H228799   1.037   0.518   2.227 -0.4608 -0.9944  0.2650
 2414TIP3   OH228800   1.300   4.389   8.225  0.1182  0.0078  0.4102
 2414TIP3    H128801   1.213   4.394   8.186  0.1275  2.3633  0.5350
 2414TIP3    H228802   1.330   4.480   8.227  2.4932 -0.7170  0.5941
 2415TIP3   OH228803   3.406   6.894   1.596 -0.0405 -0.3306 -0.4365
 2415TIP3    H128804   3.387   6.801   1.597 -0.9578 -0.2822 -3.3140
 2415TIP3    H228805   3.494   6.902   1.632 -0.7760 -1.9832  1.9672
 2416TIP3   OH228806   2.824   3.342   6.208  0.6843  0.3835  0.1542
 2416TIP3    H128807   2.729   3.352   6.207  0.4066 -1.6500  0.6283
 2416TIP3    H228808   2.848   3.338   6.301  1.4701  2.3139  0.0879
 2417TIP3   OH228809   4.284   2.424   0.291 -0.4016  0.3127  0.1487
 2417TIP3    H128810   4.230   2.503   0.295  1.0004  1.2607  1.3700
 2417TIP3    H228811   4.259   2.374   0.369 -2.0061 -1.0092 -1.1312
 2418TIP3   OH228812   5.190   1.295   7.367  0.2843 -0.3411  0.1347
 2418TIP3    H128813   5.098   1.302   7.391 -0.2792 -1.9506 -1.3152
 2418TIP3    H228814   5.204   1.201   7.355  1.8360 -0.0335 -0.6916
 2419TIP3   OH228815   1.549   1.880   0.491  0.3879  0.3538 -0.1744
 2419TIP3    H128816   1.577   1.811   0.552  0.1667 -0.6526 -1.1851
 2419TIP3    H228817   1.456   1.864   0.476  0.4714  0.4939 -0.8950
 2420TIP3   OH228818   5.755   2.619   0.690 -0.2296  0.3081 -0.2918
 2420TIP3    H128819   5.756   2.549   0.625  0.2445 -0.2434  0.2994
 2420TIP3    H228820   5.779   2.576   0.772  3.0751  1.6369 -0.4016
 2421TIP3   OH228821   2.520   3.503   7.069  0.5392 -0.0751 -0.3502
 2421TIP3    H128822   2.607   3.468   7.052  1.4779  1.0108  1.8495
 2421TIP3    H228823   2.518   3.586   7.021  1.4035  0.7091  0.8982
 2422TIP3   OH228824   5.857   6.448   1.521  0.2281 -0.8964  0.1282
 2422TIP3    H128825   5.808   6.494   1.453  1.8232 -0.2702 -0.6458
 2422TIP3    H228826   5.895   6.372   1.477  0.3960 -1.0714  0.5684
 2423TIP3   OH228827   1.317   4.926   7.319 -0.1939  0.6735 -0.8803
 2423TIP3    H128828   1.331   4.889   7.231 -1.5293 -0.7410 -0.5544
 2423TIP3    H228829   1.382   4.882   7.374 -1.4086 -0.8767 -0.6046
 2424TIP3   OH228830   6.432   2.403   1.047  0.1586 -0.2415 -0.0013
 2424TIP3    H128831   6.459   2.429   1.135 -0.0001 -1.9078  0.5682
 2424TIP3    H228832   6.338   2.420   1.045  0.4665  1.6156 -0.5489
 2425TIP3   OH228833   2.635   0.264   6.902  0.7353  0.4995  0.2971
 2425TIP3    H128834   2.623   0.321   6.826  1.4523  1.3753  0.8070
 2425TIP3    H228835   2.575   0.192   6.888 -1.3088  2.0973  0.3121
 2426TIP3   OH228836   2.266   2.067   0.113  0.2238  0.3316 -0.4603
 2426TIP3    H128837   2.360   2.064   0.127  0.0297 -0.2602  0.8491
 2426TIP3    H228838   2.232   1.993   0.163 -1.0273  1.1354 -0.0842
 2427TIP3   OH228839   2.953   0.565   2.134  0.1775  0.3922 -0.0968
 2427TIP3    H128840   2.886   0.497   2.130  1.4175 -0.9438  0.6265
 2427TIP3    H228841   3.006   0.541   2.210  0.9264  1.9341 -0.0960
 2428TIP3   OH228842   6.395   2.709   0.975  0.2584 -0.5743 -0.4124
 2428TIP3    H128843   6.341   2.657   0.915  0.0285 -0.1855 -0.5517
 2428TIP3    H228844   6.477   2.722   0.928  0.2144 -0.5802 -0.4922
 2429TIP3   OH228845   6.783   4.268   1.726 -0.2518  0.6291  0.3285
 2429TIP3    H128846   6.765   4.186   1.680 -0.6405  0.8521  0.0736
 2429TIP3    H228847   6.792   4.333   1.657 -0.8720  0.9752  0.5571
 2430TIP3   OH228848   5.242   6.292   8.247 -0.2293  0.3529  0.0053
 2430TIP3    H128849   5.313   6.254   8.300 -0.1290 -1.6627 -1.4234
 2430TIP3    H228850   5.287   6.330   8.171 -0.6328 -1.4390 -1.1940
 2431TIP3   OH228851   4.815   0.508   7.663  0.2864  0.4500  0.3652
 2431TIP3    H128852   4.788   0.599   7.677 -3.5052 -0.1728 -1.7248
 2431TIP3    H228853   4.752   0.457   7.714  0.9065 -1.0910 -0.3648
 2432TIP3   OH228854   4.040   3.175   1.813 -0.2883 -0.4098 -0.1781
 2432TIP3    H128855   3.986   3.172   1.892  1.2867 -0.3546  0.9305
 2432TIP3    H228856   4.130   3.168   1.844  0.5464  1.9274 -1.7619
 2433TIP3   OH228857   2.976   6.253   7.751 -0.0977 -0.3145  0.6009
 2433TIP3    H128858   3.067   6.239   7.725 -0.0482  0.6725  0.1761
 2433TIP3    H228859   2.952   6.336   7.710 -2.0112 -1.7389 -1.3999
 2434TIP3   OH228860   6.323   2.362   0.740  0.4225  0.6400  0.0228
 2434TIP3    H128861   6.305   2.313   0.659  0.2196 -0.0830  0.4903
 2434TIP3    H228862   6.388   2.308   0.785  1.0803  1.4089  0.0108
 2435TIP3   OH228863   2.919   4.025   0.332  0.2191  0.6402 -0.6727
 2435TIP3    H128864   2.951   3.935   0.338 -0.0318  0.5695 -0.3880
 2435TIP3    H228865   2.983   4.076   0.382 -0.2114  0.4731  0.0513
 2436TIP3   OH228866   1.919   0.864   0.323  0.1190  0.0087 -0.1588
 2436TIP3    H128867   1.959   0.781   0.349  1.4474  0.1926 -1.5161
 2436TIP3    H228868   1.953   0.928   0.385  0.8770 -0.0761 -0.4831
 2437TIP3   OH228869   0.760   4.656   7.945  0.4910  0.7382 -0.5538
 2437TIP3    H128870   0.669   4.628   7.936  0.2714  1.6510 -1.3041
 2437TIP3    H228871   0.810   4.574   7.939 -0.3137  0.0917  1.0088
 2438TIP3   OH228872   6.031   1.637   7.050 -0.0196  0.2453 -0.0563
 2438TIP3    H128873   6.041   1.654   7.143 -0.0635 -1.5838  0.3150
 2438TIP3    H228874   6.045   1.543   7.040 -1.7624  0.0772 -1.6437
 2439TIP3   OH228875   6.444   6.123   7.093  0.3373  0.4839  0.2148
 2439TIP3    H128876   6.489   6.069   7.158  0.5734  0.7794  0.3020
 2439TIP3    H228877   6.513   6.147   7.031 -0.3026 -1.5757 -1.3630
 2440TIP3   OH228878   6.986   2.202   1.239  0.4697 -0.3966 -0.0488
 2440TIP3    H128879   6.962   2.292   1.261 -0.0366 -0.2099 -1.2687
 2440TIP3    H228880   6.902   2.158   1.225  0.7116 -1.0895  0.6247
 2441TIP3   OH228881   4.546   2.525   0.367  0.3719  0.4432 -0.1603
 2441TIP3    H128882   4.528   2.463   0.296 -0.0578 -0.7667  0.9664
 2441TIP3    H228883   4.462   2.534   0.412  1.3817 -1.6662  2.3796
 2442TIP3   OH228884   2.003   6.298   7.829 -0.3036  0.0930 -0.0191
 2442TIP3    H128885   2.019   6.306   7.735  2.2632  0.0974  0.3416
 2442TIP3    H228886   1.966   6.382   7.854  0.2047  0.5742 -0.8268
 2443TIP3   OH228887   6.982   3.207   1.863  0.6717 -0.2407 -0.4027
 2443TIP3    H128888   7.036   3.169   1.794  1.3962 -0.5069  0.2983
 2443TIP3    H228889   7.012   3.165   1.944  0.6976  0.9710  0.2448
 2444TIP3   OH228890   4.016   3.661   7.835  0.1029  0.3300 -0.1773
 2444TIP3    H128891   3.954   3.698   7.773  0.5139 -0.4140 -1.0564
 2444TIP3    H228892   4.094   3.642   7.783  0.1165 -1.1898  0.3463
 2445TIP3   OH228893   5.192   6.930   7.454  0.1123 -0.5334  0.2426
 2445TIP3    H128894   5.129   7.001   7.444  0.3555 -0.3480 -0.0130
 2445TIP3    H228895   5.177   6.873   7.378  1.6272  0.6088 -0.9772
 2446TIP3   OH228896   3.170   1.225   0.165 -0.0718 -0.7266  0.3427
 2446TIP3    H128897   3.252   1.242   0.211  1.4903 -1.0282 -2.1395
 2446TIP3    H228898   3.145   1.137   0.194 -0.2255 -0.1734  2.0266
 2447TIP3   OH228899   4.154   1.794   2.937 -0.0231  0.3136 -0.4341
 2447TIP3    H128900   4.227   1.847   2.969  0.8535 -1.9165  1.6309
 2447TIP3    H228901   4.077   1.848   2.949  0.9074  1.4475  0.7419
 2448TIP3   OH228902   3.719   2.182   0.145  0.6501  0.0700 -0.1570
 2448TIP3    H128903   3.690   2.234   0.070  0.5206  0.8663  0.4325
 2448TIP3    H228904   3.809   2.210   0.160  1.3159 -1.4029 -1.1224
 2449TIP3   OH228905   4.256   1.787   7.906 -0.0730 -0.2116 -0.5462
 2449TIP3    H128906   4.195   1.801   7.979 -0.0379 -3.0375  0.1430
 2449TIP3    H228907   4.239   1.697   7.878  3.2636 -0.8941 -0.7572
 2450TIP3   OH228908   2.124   0.291   2.196 -0.2625  0.0157 -0.0199
 2450TIP3    H128909   2.090   0.375   2.167 -1.0250 -0.6873 -1.2059
 2450TIP3    H228910   2.064   0.263   2.265  0.0451  0.4745  0.4405
 2451TIP3   OH228911   6.120   3.128   1.558  0.0874  0.6656 -0.3159
 2451TIP3    H128912   6.079   3.058   1.507  2.4048 -0.7197 -0.4106
 2451TIP3    H228913   6.063   3.204   1.545 -2.1631 -1.0045 -0.7341
 2452TIP3   OH228914   4.311   3.367   7.630 -0.4839  0.1525 -0.2684
 2452TIP3    H128915   4.274   3.430   7.691 -0.8000  0.6446 -0.9497
 2452TIP3    H228916   4.379   3.321   7.680 -1.8117 -0.5779  0.9035
 2453TIP3   OH228917   0.518   3.853   6.633  0.5253 -0.3300 -0.3501
 2453TIP3    H128918   0.521   3.800   6.554 -1.3421 -1.7259  0.4355
 2453TIP3    H228919   0.482   3.937   6.605  1.0625 -0.3594 -1.1648
 2454TIP3   OH228920   1.260   3.064   7.582  0.0097 -0.3107 -0.3208
 2454TIP3    H128921   1.209   3.069   7.663 -1.4565 -0.9717 -1.1553
 2454TIP3    H228922   1.219   3.128   7.524  0.0673 -0.9009 -1.0282
 2455TIP3   OH228923   1.404   5.255   6.818  0.3620 -0.5923 -0.2801
 2455TIP3    H128924   1.406   5.184   6.753 -1.1966 -1.9136  1.0374
 2455TIP3    H228925   1.429   5.213   6.900 -0.7388  0.3243  0.5544
 2456TIP3   OH228926   3.037   1.580   1.421 -0.1232  0.2688  0.0501
 2456TIP3    H128927   3.088   1.502   1.442 -0.5161 -0.6261 -2.0379
 2456TIP3    H228928   2.956   1.571   1.471 -0.2316 -0.7648 -0.2953
 2457TIP3   OH228929   4.911   5.131   2.747  0.6311 -0.0729  0.0500
 2457TIP3    H128930   4.986   5.162   2.798  1.2514 -2.1710  0.5277
 2457TIP3    H228931   4.949   5.094   2.667  0.1749 -1.4209  0.4230
 2458TIP3   OH228932   5.760   0.145   8.122 -0.3444  0.2191  0.0581
 2458TIP3    H128933   5.852   0.132   8.146 -0.3792  2.0820  1.3796
 2458TIP3    H228934   5.711   0.087   8.181 -0.1215  0.7471  0.7694
 2459TIP3   OH228935   3.528   5.942   0.462  0.0900 -0.1647 -0.1378
 2459TIP3    H128936   3.474   5.927   0.384  0.2180 -1.9396  0.0838
 2459TIP3    H228937   3.594   5.873   0.460 -0.4588 -0.8361  2.0096
 2460TIP3   OH228938   5.728   2.258   7.515  0.1613  0.5928 -0.0655
 2460TIP3    H128939   5.744   2.300   7.430 -1.7431  2.4438  0.4020
 2460TIP3    H228940   5.657   2.196   7.498  2.1368 -1.6954 -0.4849
 2461TIP3   OH228941   6.286   1.743   6.736  0.0736 -0.1031  0.2394
 2461TIP3    H128942   6.375   1.765   6.763  0.1672 -1.4224  1.1136
 2461TIP3    H228943   6.279   1.649   6.752 -1.8972  0.1918  1.4143
 2462TIP3   OH228944   2.840   5.853   7.408  0.2651  0.0001  0.0249
 2462TIP3    H128945   2.829   5.923   7.472  1.3004  0.3352 -0.1390
 2462TIP3    H228946   2.891   5.893   7.337 -1.2855 -0.2040 -1.2842
 2463TIP3   OH228947   4.992   2.238   7.288 -0.3910  0.0256  0.1799
 2463TIP3    H128948   5.083   2.221   7.310 -0.5243 -2.0058 -0.6583
 2463TIP3    H228949   4.992   2.327   7.254  1.3026  0.0173  0.0758
 2464TIP3   OH228950   1.397   6.932   7.582  1.1361  0.6616 -0.0088
 2464TIP3    H128951   1.477   6.879   7.583  0.1318 -1.0152 -1.5123
 2464TIP3    H228952   1.371   6.938   7.674  1.9846 -0.3745  0.3267
 2465TIP3   OH228953   5.460   3.451   7.362  0.5505 -0.2204  0.5842
 2465TIP3    H128954   5.498   3.369   7.395  1.5968 -0.4845 -1.1860
 2465TIP3    H228955   5.453   3.439   7.268 -1.5174  0.8675  0.5340
 2466TIP3   OH228956   0.186   0.759   6.955  0.3547  0.2703 -0.3304
 2466TIP3    H128957   0.185   0.769   6.860 -0.0428  0.2804 -0.3250
 2466TIP3    H228958   0.132   0.831   6.988  0.7265  0.4374 -0.0799
 2467TIP3   OH228959   1.365   5.432   0.367  0.0422 -0.5510 -0.5421
 2467TIP3    H128960   1.306   5.357   0.368  0.8177 -1.1790  0.9284
 2467TIP3    H228961   1.354   5.470   0.280 -0.3648 -2.3661 -1.3176
 2468TIP3   OH228962   6.634   5.000   7.467  0.5866 -0.3492  0.3359
 2468TIP3    H128963   6.593   5.032   7.547  0.4430  2.3520 -0.7212
 2468TIP3    H228964   6.571   4.938   7.429 -0.2039 -0.1430  1.2935
 2469TIP3   OH228965   2.729   4.987   0.627 -0.1310  0.3681  0.5847
 2469TIP3    H128966   2.740   4.936   0.707 -0.3074 -0.6326 -0.0081
 2469TIP3    H228967   2.750   4.926   0.556  3.4405  2.1241 -0.0920
 2470TIP3   OH228968   6.837   2.092   7.010 -0.3555 -0.7510 -0.6490
 2470TIP3    H128969   6.817   2.186   7.011 -1.8454 -1.0482 -0.4562
 2470TIP3    H228970   6.885   2.077   7.092  0.7780  0.0005 -1.1516
 2471TIP3   OH228971   6.502   6.899   7.427 -0.0021  0.5716  0.5749
 2471TIP3    H128972   6.552   6.976   7.400  0.1247  0.7902  1.4012
 2471TIP3    H228973   6.412   6.917   7.400  0.2123  0.5347 -0.1875
 2472TIP3   OH228974   5.520   2.466   6.803  0.1137  0.0817 -0.0859
 2472TIP3    H128975   5.453   2.520   6.762  0.5146  0.1814 -0.6133
 2472TIP3    H228976   5.494   2.376   6.783 -0.6928  0.0499  1.0053
 2473TIP3   OH228977   0.930   6.982   1.283  0.5151 -0.2873  0.0785
 2473TIP3    H128978   0.938   6.892   1.252  0.3037 -0.3550  0.2165
 2473TIP3    H228979   0.871   6.977   1.358  1.4217 -0.1961  0.8178
 2474TIP3   OH228980   3.756   5.535   7.469  0.0275  0.5367  0.0422
 2474TIP3    H128981   3.733   5.457   7.418  2.4830 -0.4786  0.3851
 2474TIP3    H228982   3.796   5.595   7.406 -2.7565  2.0950 -0.4452
 2475TIP3   OH228983   3.713   2.526   6.756  0.5676  0.0269  0.9718
 2475TIP3    H128984   3.738   2.560   6.842  3.1904 -0.5174  0.4992
 2475TIP3    H228985   3.787   2.547   6.700 -1.0165  0.2029 -1.1446
 2476TIP3   OH228986   6.879   5.519   7.423  0.0057  0.0292  0.1814
 2476TIP3    H128987   6.896   5.427   7.402 -1.5687 -0.3752  0.5439
 2476TIP3    H228988   6.960   5.550   7.463  1.4244 -0.4921 -2.0854
 2477TIP3   OH228989   5.770   6.942   7.478  0.2039  0.3069 -0.7698
 2477TIP3    H128990   5.829   6.930   7.403  1.1913 -0.3778  0.1060
 2477TIP3    H228991   5.815   6.903   7.552 -2.5949 -3.0747 -0.5870
 2478TIP3   OH228992   6.857   3.782   7.225  0.1222  0.3303 -0.1496
 2478TIP3    H128993   6.789   3.816   7.167 -1.1711 -0.0618  1.0864
 2478TIP3    H228994   6.853   3.687   7.214 -0.9076  0.1744  1.3856
 2479TIP3   OH228995   3.153   6.610   7.835 -0.7880 -0.8782  0.2711
 2479TIP3    H128996   3.185   6.540   7.892 -0.5150 -0.4365  0.6679
 2479TIP3    H228997   3.216   6.681   7.848  0.2248 -1.3178 -1.7815
 2480TIP3   OH228998   6.483   5.530   0.215 -0.6976  0.2588  0.0733
 2480TIP3    H128999   6.460   5.498   0.303 -1.2132  0.1164 -0.1133
 2480TIP3    H229000   6.400   5.532   0.168 -0.3537 -0.0945 -0.5525
 2481TIP3   OH229001   5.291   5.927   0.761  0.1985  0.4859  0.0571
 2481TIP3    H129002   5.255   5.999   0.710 -1.1506  1.0999  1.7354
 2481TIP3    H229003   5.221   5.905   0.824  1.4809 -0.6637  1.1676
 2482TIP3   OH229004   6.552   6.621   0.480 -0.1016 -0.0518  0.1503
 2482TIP3    H129005   6.477   6.578   0.439 -0.0373 -0.0494  0.0284
 2482TIP3    H229006   6.574   6.693   0.420  0.8308 -0.8535 -0.5080
 2483TIP3   OH229007   5.108   3.186   1.293  0.4389  0.3096 -0.2467
 2483TIP3    H129008   5.067   3.158   1.211 -1.5962 -0.5358  0.9833
 2483TIP3    H229009   5.035   3.197   1.354  1.6892  2.8983  0.9402
 2484TIP3   OH229010   1.285   6.988   0.061 -0.2240 -0.2469 -0.3452
 2484TIP3    H129011   1.312   7.049   0.130 -1.8567  0.3926 -0.2329
 2484TIP3    H229012   1.215   6.937   0.100  0.4046 -1.4921 -0.7955
 2485TIP3   OH229013   0.364   4.302   6.190  0.1837 -0.2370  0.4118
 2485TIP3    H129014   0.327   4.372   6.243 -1.2731 -0.1374 -0.6564
 2485TIP3    H229015   0.405   4.348   6.116  0.6085 -0.4387  0.5246
 2486TIP3   OH229016   4.193   1.638   1.854  0.3899 -0.1152 -0.5852
 2486TIP3    H129017   4.243   1.566   1.891  2.4831  1.6898  0.3153
 2486TIP3    H229018   4.259   1.694   1.812 -0.9915  1.7624 -0.3948
 2487TIP3   OH229019   3.150   2.314   6.225  0.1163 -0.4016  0.6333
 2487TIP3    H129020   3.125   2.350   6.310  0.6727 -0.5269  0.8539
 2487TIP3    H229021   3.092   2.239   6.212 -0.1015 -0.2634  0.8130
 2488TIP3   OH229022   5.842   3.432   0.645 -0.5895 -0.3080  0.8822
 2488TIP3    H129023   5.747   3.430   0.648 -0.5661 -1.8972  1.7429
 2488TIP3    H229024   5.870   3.403   0.732  0.6553 -1.0735  0.2701
 2489TIP3   OH229025   3.994   0.069   7.225 -0.1927  0.5547 -0.2449
 2489TIP3    H129026   4.075   0.059   7.176  0.4257 -0.3850  0.9259
 2489TIP3    H229027   3.984  -0.013   7.273 -2.2214  0.3609 -0.9006
 2490TIP3   OH229028   0.352   5.978   1.898 -0.1554  0.2288  0.1959
 2490TIP3    H129029   0.335   5.927   1.977 -1.0630  0.0532 -0.0925
 2490TIP3    H229030   0.329   5.919   1.826  0.0362  0.6026 -0.1786
 2491TIP3   OH229031   2.702   3.079   7.967  0.5877  0.7797  0.1018
 2491TIP3    H129032   2.787   3.040   7.987  0.3243  0.3276  0.3495
 2491TIP3    H229033   2.669   3.111   8.051  0.8085  1.5604 -0.1010
 2492TIP3   OH229034   1.190   4.399   1.248  0.1094  0.0484  0.1287
 2492TIP3    H129035   1.158   4.376   1.161  0.5454 -0.7044  0.1494
 2492TIP3    H229036   1.285   4.390   1.241  0.0733 -4.2856  1.7241
 2493TIP3   OH229037   6.738   6.201   2.083 -0.4850 -0.3422 -0.3492
 2493TIP3    H129038   6.710   6.245   2.162  4.0725 -0.7335  1.8162
 2493TIP3    H229039   6.737   6.269   2.015 -1.8914  0.7209  0.6902
 2494TIP3   OH229040   6.508   0.017   1.216 -0.0515  0.1462  0.1377
 2494TIP3    H129041   6.452   0.058   1.282 -0.0097  0.5385 -0.0643
 2494TIP3    H229042   6.559   0.090   1.180  0.6639 -0.2198  0.3928
 2495TIP3   OH229043   6.764   0.031   6.618 -0.4571  0.5352  0.7779
 2495TIP3    H129044   6.833  -0.026   6.653 -1.6709 -1.0889  0.6204
 2495TIP3    H229045   6.806   0.116   6.608  2.1638 -0.8704 -1.3504
 2496TIP3   OH229046   3.573   5.021   2.585 -0.8555 -0.1217  0.0248
 2496TIP3    H129047   3.666   5.038   2.569 -1.0130 -0.1528 -0.9446
 2496TIP3    H229048   3.550   4.952   2.522 -1.7605  0.5479 -0.3873
 2497TIP3   OH229049   1.737   3.438   6.819 -0.7666  0.0422 -0.0226
 2497TIP3    H129050   1.714   3.436   6.726  3.3124 -1.8196 -1.2177
 2497TIP3    H229051   1.747   3.531   6.839 -3.4683  0.5963 -0.8026
 2498TIP3   OH229052   1.347   1.862   6.883  0.1366  0.2204  0.6098
 2498TIP3    H129053   1.316   1.947   6.914 -1.5689 -0.3448  0.5384
 2498TIP3    H229054   1.269   1.818   6.850  0.8802 -1.6060  1.1538
 2499TIP3   OH229055   3.927   3.443   1.423 -0.5097 -0.6191 -0.3006
 2499TIP3    H129056   3.871   3.442   1.501  0.6270 -1.1186  0.5356
 2499TIP3    H229057   3.995   3.506   1.442 -0.5506 -0.2970 -1.1581
 2500TIP3   OH229058   3.091   6.218   1.351  0.1734  0.4808  0.1703
 2500TIP3    H129059   3.164   6.158   1.333 -0.8243 -0.8562  0.3683
 2500TIP3    H229060   3.114   6.261   1.432  0.4179 -0.5017  0.6380
 2501TIP3   OH229061   5.163   2.273   1.800 -0.0919 -0.4233 -0.0338
 2501TIP3    H129062   5.232   2.320   1.752  0.6623  0.6120  1.9215
 2501TIP3    H229063   5.203   2.255   1.886 -2.4660  0.9118  1.4536
 2502TIP3   OH229064   0.800   2.772   0.845  0.3198 -0.0584 -0.1709
 2502TIP3    H129065   0.745   2.850   0.853  2.4964  1.6925 -1.1057
 2502TIP3    H229066   0.787   2.725   0.927 -0.7956  1.4748  0.5825
 2503TIP3   OH229067   5.335   3.283   7.981  0.0877  0.6850  0.1724
 2503TIP3    H129068   5.262   3.222   7.995 -0.5348  1.7663  2.0868
 2503TIP3    H229069   5.292   3.369   7.970  0.8593  0.7309 -3.7529
 2504TIP3   OH229070   6.281   3.909   0.179  0.5124 -0.3384  0.3376
 2504TIP3    H129071   6.281   3.901   0.083  0.8013 -1.4790  0.4158
 2504TIP3    H229072   6.367   3.875   0.205 -0.6753 -2.9126  1.1916
 2505TIP3   OH229073   3.685   0.517   8.114 -0.1491 -0.6484  0.1137
 2505TIP3    H129074   3.720   0.557   8.193  2.1349 -2.8692  0.3311
 2505TIP3    H229075   3.622   0.452   8.145  0.6734 -1.4500  0.1348
 2506TIP3   OH229076   4.474   3.370   1.839  0.5637 -0.0412 -0.5781
 2506TIP3    H129077   4.435   3.453   1.811 -1.9934 -0.7861  0.4073
 2506TIP3    H229078   4.564   3.392   1.863 -0.0838  2.4897 -0.1465
 2507TIP3   OH229079   1.198   6.398   2.178  0.4223 -0.9434  0.1769
 2507TIP3    H129080   1.242   6.385   2.263  1.0789  2.3066  0.4586
 2507TIP3    H229081   1.267   6.381   2.113  1.5087  1.5913  0.5474
 2508TIP3   OH229082   6.180   0.933   0.578  0.0118  0.1549  0.4141
 2508TIP3    H129083   6.106   0.882   0.544  0.7898 -0.8153  0.1240
 2508TIP3    H229084   6.196   0.999   0.510  1.7566 -1.9615 -1.3949
 2509TIP3   OH229085   3.432   2.417   1.176 -0.3530 -0.4295 -0.1618
 2509TIP3    H129086   3.513   2.431   1.224  0.1406  0.5867 -1.2254
 2509TIP3    H229087   3.390   2.342   1.219  1.3371 -1.2398  0.1530
 2510TIP3   OH229088   5.325   4.426   2.603 -0.6922 -0.5065 -0.1488
 2510TIP3    H129089   5.300   4.493   2.539 -2.3617  0.0260  0.9847
 2510TIP3    H229090   5.398   4.464   2.652 -0.5137 -0.2339 -0.6270
 2511TIP3   OH229091   0.692   1.807   0.747  0.3467  0.4845 -0.3123
 2511TIP3    H129092   0.716   1.815   0.655  2.5422 -0.1265  0.1435
 2511TIP3    H229093   0.614   1.862   0.756  0.9800  1.8104 -2.2012
 2512TIP3   OH229094   2.995   6.226   7.438  0.2272  0.0577  0.1738
 2512TIP3    H129095   3.076   6.207   7.391  0.8948  0.8765  0.9655
 2512TIP3    H229096   3.022   6.278   7.513 -1.1811  1.4555 -0.2318
 2513TIP3   OH229097   0.099   0.298   0.640 -0.5152  0.5679  0.2976
 2513TIP3    H129098   0.091   0.273   0.732 -1.9592 -2.0112 -0.4363
 2513TIP3    H229099   0.193   0.299   0.623 -0.2402  0.8397  1.7103
 2514TIP3   OH229100   1.079   5.353   7.931  0.5056 -0.3012  0.2477
 2514TIP3    H129101   1.100   5.259   7.928  1.8112 -0.0440  0.4602
 2514TIP3    H229102   1.113   5.388   7.849 -2.1085 -0.3703 -0.9390
 2515TIP3   OH229103   3.946   6.725   0.107  0.0506  0.1520  0.1461
 2515TIP3    H129104   3.884   6.774   0.053  0.2768  0.9016  0.5573
 2515TIP3    H229105   3.909   6.728   0.195  0.0722 -0.4170  0.1804
 2516TIP3   OH229106   6.255   1.176   0.433  0.6171 -0.6064  0.2027
 2516TIP3    H129107   6.249   1.135   0.347  0.7683  0.0139 -0.1112
 2516TIP3    H229108   6.321   1.245   0.422  1.3577 -1.1567  1.0731
 2517TIP3   OH229109   3.145   4.200   1.914  0.5682 -0.1405  0.6045
 2517TIP3    H129110   3.232   4.235   1.896  0.1350 -0.0902 -1.6169
 2517TIP3    H229111   3.115   4.166   1.830 -2.3147  1.4722  0.8756
 2518TIP3   OH229112   4.262   2.576   7.407 -0.0474  0.1997 -1.0476
 2518TIP3    H129113   4.270   2.515   7.480 -2.1663  1.9749  0.8191
 2518TIP3    H229114   4.208   2.530   7.343  0.1119 -0.6234 -0.6044
 2519TIP3   OH229115   0.211   3.830   8.217 -0.6024 -0.3066  0.2599
 2519TIP3    H129116   0.205   3.735   8.232 -0.5826 -0.2138  0.9042
 2519TIP3    H229117   0.124   3.855   8.187 -0.7095 -0.4760  0.4258
 2520TIP3   OH229118   4.130   2.326   0.509 -0.0811  0.3430  0.5312
 2520TIP3    H129119   4.058   2.266   0.493 -0.1386  0.1066  1.5811
 2520TIP3    H229120   4.088   2.406   0.543  0.2243 -0.6132  3.4464
 2521TIP3   OH229121   3.652   2.451   2.165  0.1330 -0.4865  0.0694
 2521TIP3    H129122   3.596   2.519   2.203  1.1402  0.2307  0.3271
 2521TIP3    H229123   3.737   2.464   2.207  0.2661 -2.1324  0.3642
 2522TIP3   OH229124   1.359   6.695   6.613  0.3615  0.5205 -0.0454
 2522TIP3    H129125   1.420   6.627   6.585 -0.9759 -0.0299 -1.7640
 2522TIP3    H229126   1.408   6.777   6.603  1.1968  0.0060 -0.2370
 2523TIP3   OH229127   2.940   2.639   6.409  0.2096  0.6870  0.5566
 2523TIP3    H129128   2.855   2.629   6.365  0.1148 -0.6375  0.9775
 2523TIP3    H229129   2.921   2.694   6.484  0.0190  1.5414 -0.0989
 2524TIP3   OH229130   6.131   5.587   1.193 -0.0571  0.5608 -0.0514
 2524TIP3    H129131   6.125   5.679   1.168  1.1343  1.1676  1.6510
 2524TIP3    H229132   6.225   5.572   1.205 -0.3776 -0.0004  2.5314
 2525TIP3   OH229133   2.266   1.661   1.674 -0.3275 -0.4751 -0.1605
 2525TIP3    H129134   2.229   1.749   1.680  1.1282  0.2238 -0.8080
 2525TIP3    H229135   2.275   1.646   1.580 -2.3114 -2.1306 -0.1504
 2526TIP3   OH229136   2.482   4.546   6.589 -0.4274 -0.5485  0.0654
 2526TIP3    H129137   2.488   4.545   6.494  0.6691 -1.0708  0.1257
 2526TIP3    H229138   2.520   4.630   6.615 -0.1187 -0.6910  0.0751
 2527TIP3   OH229139   1.498   5.700   1.560  0.0911  0.1243  0.2182
 2527TIP3    H129140   1.411   5.671   1.535  0.5961 -1.6655  0.3967
 2527TIP3    H229141   1.486   5.742   1.645 -0.5410 -0.4817  0.4314
 2528TIP3   OH229142   5.323   6.174   7.833 -0.2098  0.2376  0.6536
 2528TIP3    H129143   5.294   6.088   7.864  0.6974  0.2216  1.4699
 2528TIP3    H229144   5.242   6.215   7.801 -0.7030 -0.7995  0.5072
 2529TIP3   OH229145   6.959   3.469   0.248 -0.2415  0.1916  0.2282
 2529TIP3    H129146   6.872   3.433   0.265 -0.6224  0.4386 -1.1219
 2529TIP3    H229147   6.952   3.561   0.271 -0.4680  0.3079 -0.3005
 2530TIP3   OH229148   4.341   4.818   7.935  0.3417  0.5248  0.4398
 2530TIP3    H129149   4.394   4.739   7.945  0.1639  0.4685  0.9568
 2530TIP3    H229150   4.252   4.784   7.923  0.3656  0.6301 -0.0860
 2531TIP3   OH229151   1.463   0.867   7.937  0.0566 -0.2254  0.7272
 2531TIP3    H129152   1.536   0.927   7.925  0.9638 -1.3919  0.2848
 2531TIP3    H229153   1.385   0.918   7.914  0.6271  1.2913  2.0219
 2532TIP3   OH229154   2.552   6.060   1.491 -0.0541 -0.1560 -0.0493
 2532TIP3    H129155   2.509   5.975   1.497 -0.8200  0.1911 -0.4904
 2532TIP3    H229156   2.630   6.052   1.547 -0.5988 -0.8473  0.6194
 2533TIP3   OH229157   0.979   3.041   6.337  0.3395  0.1041 -0.3727
 2533TIP3    H129158   1.068   3.022   6.306  0.6795  0.8694  0.0948
 2533TIP3    H229159   0.986   3.129   6.375 -0.7440  0.4118 -0.8472
 2534TIP3   OH229160   4.375   6.380   7.149 -0.1423  0.1409 -0.7092
 2534TIP3    H129161   4.468   6.360   7.137 -0.4499 -1.6612 -0.4243
 2534TIP3    H229162   4.333   6.349   7.068 -0.6756 -0.6024 -0.1637
 2535TIP3   OH229163   4.129   2.294   2.426 -0.4444 -0.5115 -0.4259
 2535TIP3    H129164   4.183   2.373   2.426 -1.1847  0.0132  0.3043
 2535TIP3    H229165   4.186   2.225   2.391  0.5204  0.1348 -0.1438
 2536TIP3   OH229166   3.148   3.092   1.455  0.3551  0.0609 -0.1905
 2536TIP3    H129167   3.138   3.125   1.544 -0.7114 -1.8811  0.4844
 2536TIP3    H229168   3.066   3.115   1.411  1.0406  1.3739 -0.8385
 2537TIP3   OH229169   4.330   0.400   1.243  0.1729  0.4754 -0.6098
 2537TIP3    H129170   4.423   0.378   1.241  0.0528 -0.2537  0.6111
 2537TIP3    H229171   4.326   0.482   1.292  0.0205 -0.6497  1.3672
 2538TIP3   OH229172   0.665   2.884   6.857 -0.1046  0.2827 -0.4343
 2538TIP3    H129173   0.747   2.877   6.905 -0.1960  2.0831  0.0398
 2538TIP3    H229174   0.689   2.925   6.774 -0.1933 -1.3633 -1.3231
 2539TIP3   OH229175   1.648   6.828   7.468  0.6350  0.0391  0.4797
 2539TIP3    H129176   1.716   6.824   7.536  2.1853 -1.2140 -1.0400
 2539TIP3    H229177   1.670   6.907   7.418 -0.8181  1.2563  1.6757
 2540TIP3   OH229178   0.612   1.586   0.125  0.5857 -0.4147  0.0166
 2540TIP3    H129179   0.547   1.595   0.194 -0.4060 -2.3473 -0.5822
 2540TIP3    H229180   0.669   1.514   0.155  2.1675  0.8982  0.2917
 2541TIP3   OH229181   4.596   2.206   7.560 -0.2066 -0.2767  0.2898
 2541TIP3    H129182   4.512   2.203   7.606 -0.5265 -0.6916 -0.3021
 2541TIP3    H229183   4.589   2.138   7.493 -0.0527  0.7881 -0.8555
 2542TIP3   OH229184   5.003   3.530   0.350 -0.8368  1.0220  0.3063
 2542TIP3    H129185   5.015   3.622   0.372  0.4731  0.4373  2.3769
 2542TIP3    H229186   4.929   3.502   0.404 -0.1673  0.4984  0.9745
 2543TIP3   OH229187   0.201   3.733   1.386  0.6680  0.0272  0.7321
 2543TIP3    H129188   0.175   3.641   1.394  0.7774 -0.1062 -0.2247
 2543TIP3    H229189   0.243   3.737   1.300  1.4029  0.8025  1.1231
 2544TIP3   OH229190   1.617   6.214   6.561 -0.2195  0.2572 -0.0116
 2544TIP3    H129191   1.696   6.194   6.510  0.3377 -0.1816  0.9939
 2544TIP3    H229192   1.544   6.196   6.502  0.4259  0.4439 -0.8828
 2545TIP3   OH229193   5.733   4.716   1.730 -0.0869  0.1724 -0.4221
 2545TIP3    H129194   5.801   4.677   1.785  0.0882 -0.6240 -1.1805
 2545TIP3    H229195   5.764   4.804   1.711  0.5642 -0.0588 -0.4594
 2546TIP3   OH229196   1.020   5.410   7.473 -0.0702  0.3419  0.2668
 2546TIP3    H129197   1.062   5.496   7.485  0.5908  0.0784 -0.1120
 2546TIP3    H229198   1.073   5.350   7.525  0.5248 -0.1349 -0.8385
 2547TIP3   OH229199   4.878   6.587   7.267  0.2967  0.3041  0.9748
 2547TIP3    H129200   4.920   6.503   7.247  0.2277  0.5605 -0.3223
 2547TIP3    H229201   4.791   6.563   7.299  0.9015 -0.1756  2.3302
 2548TIP3   OH229202   2.297   1.612   7.567  0.3658  0.5178 -0.1560
 2548TIP3    H129203   2.378   1.632   7.521 -0.4077  0.6152 -1.5338
 2548TIP3    H229204   2.235   1.587   7.498 -0.0694 -2.0855  1.0536
 2549TIP3   OH229205   0.817   1.099   8.190 -0.2065 -0.2120  0.2339
 2549TIP3    H129206   0.781   1.177   8.150  0.4164 -0.1372 -0.1823
 2549TIP3    H229207   0.911   1.114   8.194 -0.1930 -0.4548  1.2071
 2550TIP3   OH229208   5.955   6.277   7.466  0.6153 -0.4372 -0.9353
 2550TIP3    H129209   5.916   6.251   7.383  1.2197 -2.9445 -0.5343
 2550TIP3    H229210   6.029   6.217   7.477  0.9801  0.3083  1.0674
 2551TIP3   OH229211   4.363   3.705   2.091  0.0371  0.0579  0.1364
 2551TIP3    H129212   4.295   3.705   2.024 -0.3988 -0.6611  0.5636
 2551TIP3    H229213   4.359   3.792   2.131 -0.8857 -0.1079  0.4139
 2552TIP3   OH229214   1.353   5.096   1.494 -0.4560  0.1719 -0.2239
 2552TIP3    H129215   1.290   5.047   1.441  0.4317  1.0408 -2.1859
 2552TIP3    H229216   1.388   5.031   1.555 -3.2624 -0.3178  1.0651
 2553TIP3   OH229217   1.783   6.190   7.381  0.5289 -0.0329 -0.0979
 2553TIP3    H129218   1.693   6.163   7.398  0.8275  0.0091  1.9012
 2553TIP3    H229219   1.778   6.284   7.367  0.3445  0.1741  1.1819
 2554TIP3   OH229220   2.328   2.830   0.002  0.1063  0.0368  0.7545
 2554TIP3    H129221   2.413   2.803  -0.032 -0.6904  0.1463 -1.4917
 2554TIP3    H229222   2.305   2.762   0.066  0.7527 -1.4060 -0.4833
 2555TIP3   OH229223   6.559   1.704   0.979  0.7448 -0.0396  0.4881
 2555TIP3    H129224   6.644   1.720   1.019  0.1170  0.5444  1.6347
 2555TIP3    H229225   6.578   1.648   0.903  2.2391  0.7912  0.2191
 2556TIP3   OH229226   2.690   0.887   7.882  0.0515 -0.0474 -0.4873
 2556TIP3    H129227   2.657   0.972   7.851  0.5847  0.5544  0.5575
 2556TIP3    H229228   2.612   0.832   7.886 -0.6954  1.0496  0.9432
 2557TIP3   OH229229   4.113   4.539   7.827 -0.0855  0.8182 -0.6386
 2557TIP3    H129230   4.035   4.521   7.880 -1.9209  0.5471 -3.2053
 2557TIP3    H229231   4.151   4.453   7.811 -0.9953  0.5910 -1.7418
 2558TIP3   OH229232   2.696   2.412   1.821 -0.1505 -0.1434  0.1317
 2558TIP3    H129233   2.645   2.483   1.781 -2.6055 -2.1561 -0.5591
 2558TIP3    H229234   2.655   2.398   1.906  0.3295 -0.7199  0.2770
 2559TIP3   OH229235   6.699   6.976   7.935 -0.3388 -0.4129  0.3013
 2559TIP3    H129236   6.642   7.014   8.002  1.0115  1.0788  0.6493
 2559TIP3    H229237   6.668   7.014   7.853  0.6044  0.9840  0.5766
 2560TIP3   OH229238   5.229   2.875   6.897 -0.0577 -0.0939  0.1420
 2560TIP3    H129239   5.312   2.906   6.862  0.0517 -0.4276  0.1040
 2560TIP3    H229240   5.169   2.876   6.823 -0.8011  2.5506  0.6528
 2561TIP3   OH229241   2.292   5.487   1.811 -0.1705  0.5055 -0.6553
 2561TIP3    H129242   2.374   5.439   1.818 -0.5196 -0.0929 -0.5875
 2561TIP3    H229243   2.232   5.442   1.871 -0.9080  0.1549 -1.6182
 2562TIP3   OH229244   1.895   1.651   0.831 -0.2871  0.3157 -0.0599
 2562TIP3    H129245   1.926   1.643   0.921  0.0237 -0.5382 -0.2343
 2562TIP3    H229246   1.919   1.740   0.805  1.5419 -0.1105  0.0026
 2563TIP3   OH229247   6.891   6.168   6.134  0.4235  0.6678  0.2148
 2563TIP3    H129248   6.916   6.237   6.072 -0.6727 -0.0147 -1.0345
 2563TIP3    H229249   6.796   6.174   6.140  0.3621 -0.3879  0.5104
 2564TIP3   OH229250   5.370   4.968   0.706 -0.2665 -0.3585  0.1224
 2564TIP3    H129251   5.343   5.015   0.785  1.3977  0.4444  0.2465
 2564TIP3    H229252   5.465   4.970   0.708 -0.1889 -0.9430 -1.5561
 2565TIP3   OH229253   6.607   1.498   0.787 -0.1486  0.2411  0.0786
 2565TIP3    H129254   6.605   1.410   0.748 -2.0255  0.2041  0.1810
 2565TIP3    H229255   6.668   1.547   0.732  1.7761 -1.3664  0.6331
 2566TIP3   OH229256   2.032   0.500   1.271  0.7060  0.4793 -0.5466
 2566TIP3    H129257   2.024   0.582   1.223 -0.5839  0.1654 -0.9121
 2566TIP3    H229258   1.946   0.459   1.262  1.2271 -0.7517 -0.0786
 2567TIP3   OH229259   4.852   4.122   1.853  0.1082 -0.6109 -0.2114
 2567TIP3    H129260   4.942   4.152   1.861 -0.0111 -0.6920  2.2205
 2567TIP3    H229261   4.852   4.063   1.777  1.1861  2.3483 -2.7263
 2568TIP3   OH229262   1.001   4.835   7.327 -0.3640 -0.1557  0.2168
 2568TIP3    H129263   1.025   4.788   7.247  1.3072  1.3653 -0.2553
 2568TIP3    H229264   0.911   4.807   7.346 -0.4686 -1.2435 -1.6722
 2569TIP3   OH229265   1.677   4.419   1.813 -0.1923  0.3171  0.2750
 2569TIP3    H129266   1.769   4.438   1.830 -0.1256 -0.6722  1.0976
 2569TIP3    H229267   1.629   4.486   1.862  0.0770  0.3865  0.4454
 2570TIP3   OH229268   5.673   6.395   8.288  0.3057 -0.4470 -0.4388
 2570TIP3    H129269   5.705   6.315   8.245  0.3302 -0.1145 -1.0581
 2570TIP3    H229270   5.751   6.437   8.323  0.1632 -1.3171  1.0112
 2571TIP3   OH229271   3.980   0.591   7.743  0.3114  0.5487 -0.5540
 2571TIP3    H129272   3.897   0.640   7.741  0.0869  0.2144  0.1722
 2571TIP3    H229273   4.036   0.643   7.801 -0.3407 -0.6477  1.2422
 2572TIP3   OH229274   4.285   0.807   1.201 -0.4491  0.1355  0.2667
 2572TIP3    H129275   4.288   0.899   1.228 -2.0016  0.0648  0.8021
 2572TIP3    H229276   4.280   0.758   1.284 -2.6533 -0.2340 -0.0177
 2573TIP3   OH229277   3.070   3.660   6.346  0.0438 -0.6985  0.4414
 2573TIP3    H129278   3.107   3.574   6.366 -0.8082 -0.3850  4.0803
 2573TIP3    H229279   2.986   3.641   6.304  1.2184 -1.4738 -1.7539
 2574TIP3   OH229280   3.982   1.969   0.040  0.1911  0.1795  0.0085
 2574TIP3    H129281   3.920   1.949  -0.030 -0.4407  1.8821  0.0476
 2574TIP3    H229282   3.958   2.056   0.070  1.2913  0.0241  1.4645
 2575TIP3   OH229283   6.819   3.283   0.926 -1.0019 -1.1697  0.2106
 2575TIP3    H129284   6.795   3.231   0.849  0.4989 -1.0031 -0.3962
 2575TIP3    H229285   6.759   3.358   0.924 -2.2477 -2.1195  0.3081
 2576TIP3   OH229286   1.053   6.712   1.781 -0.1082  0.4856  0.2237
 2576TIP3    H129287   0.997   6.725   1.705 -0.3412  1.5594  0.5544
 2576TIP3    H229288   1.138   6.687   1.744 -0.0303  1.6647 -0.4500
 2577TIP3   OH229289   5.878   5.647   1.263  0.1372 -0.3528  0.0475
 2577TIP3    H129290   5.807   5.620   1.205  0.5332 -0.1282 -0.5539
 2577TIP3    H229291   5.957   5.617   1.218  0.5343  0.9587 -0.1714
 2578TIP3   OH229292   4.453   4.631   6.720 -0.2379  0.0098  0.2173
 2578TIP3    H129293   4.475   4.724   6.713 -0.1629 -0.1048 -1.8016
 2578TIP3    H229294   4.515   4.587   6.661 -0.7963 -1.2265  0.5128
 2579TIP3   OH229295   1.588   6.535   8.023 -0.1253  0.1574 -0.4739
 2579TIP3    H129296   1.567   6.540   7.930  1.0835  0.4229 -0.7529
 2579TIP3    H229297   1.504   6.518   8.066 -0.5310 -1.1902 -1.7099
 2580TIP3   OH229298   3.120   5.616   7.405  0.0595  0.6454  0.3013
 2580TIP3    H129299   3.159   5.695   7.441  1.9200  0.4326 -1.0771
 2580TIP3    H229300   3.073   5.646   7.327  2.2139  0.2810 -1.2348
 2581TIP3   OH229301   2.345   3.587   2.495 -0.3055 -0.0947  0.2833
 2581TIP3    H129302   2.284   3.521   2.528 -2.4653  0.9293 -1.4185
 2581TIP3    H229303   2.388   3.545   2.420 -0.0938 -0.2734  0.5030
 2582TIP3   OH229304   1.143   1.304   0.395  0.2531  0.1373  0.0365
 2582TIP3    H129305   1.113   1.325   0.306 -1.0025 -4.0983 -0.7896
 2582TIP3    H229306   1.238   1.313   0.391  0.1194  1.3342 -1.3076
 2583TIP3   OH229307   1.400   0.503   1.706 -0.3519 -0.3909 -0.4440
 2583TIP3    H129308   1.347   0.533   1.781  1.5021 -0.1002  0.8255
 2583TIP3    H229309   1.428   0.415   1.731  0.1813 -0.3369 -0.8497
 2584TIP3   OH229310   0.049   3.969   7.500  0.3254 -0.3097  0.4909
 2584TIP3    H129311   0.079   3.931   7.417  2.1734  0.5393  0.7230
 2584TIP3    H229312  -0.023   4.027   7.474  1.9026  1.1815 -0.7878
 2585TIP3   OH229313   3.661   5.955   6.913  0.7261  0.0317  0.1625
 2585TIP3    H129314   3.669   5.891   6.842 -0.2253 -0.7695  0.7608
 2585TIP3    H229315   3.596   6.018   6.881  1.4757  0.5844 -0.3193
 2586TIP3   OH229316   0.797   2.453   7.908 -0.7443  1.0261  0.0110
 2586TIP3    H129317   0.846   2.374   7.886 -2.8529 -0.1151 -0.9054
 2586TIP3    H229318   0.864   2.516   7.936  1.1473 -0.5690 -0.6877
 2587TIP3   OH229319   3.316   2.716   7.374 -0.0164 -0.3265  0.4041
 2587TIP3    H129320   3.278   2.792   7.331  1.3554  0.4444  0.5061
 2587TIP3    H229321   3.293   2.726   7.466  0.3899  0.1272  0.4614
 2588TIP3   OH229322   3.935   1.192   7.079  0.1973  0.3194  0.1007
 2588TIP3    H129323   3.865   1.213   7.141  0.6424 -2.5730  1.7879
 2588TIP3    H229324   3.890   1.182   6.995 -0.6885  2.7051  0.2300
 2589TIP3   OH229325   3.892   5.022   7.651 -0.0740 -0.1972  0.2183
 2589TIP3    H129326   3.898   4.938   7.696  2.6856 -0.9220 -1.2881
 2589TIP3    H229327   3.968   5.072   7.682 -0.7285  1.1004 -0.1652
 2590TIP3   OH229328   4.810   0.450   1.690  0.1436  0.4254 -0.2203
 2590TIP3    H129329   4.802   0.509   1.765 -1.2516 -0.1021  0.0798
 2590TIP3    H229330   4.845   0.505   1.620  0.4363  1.1884  0.5030
 2591TIP3   OH229331   5.499   1.498   1.841 -0.3000  0.1214  0.2032
 2591TIP3    H129332   5.429   1.441   1.872  0.3400 -1.2271 -0.7500
 2591TIP3    H229333   5.476   1.518   1.751 -0.1167  0.7375  0.2888
 2592TIP3   OH229334   1.879   5.554   6.983 -0.0622  0.0086 -0.1529
 2592TIP3    H129335   1.935   5.490   6.939  0.8481 -0.4930  1.6250
 2592TIP3    H229336   1.940   5.622   7.012 -0.5438  0.0418  0.7935
 2593TIP3   OH229337   1.618   1.225   8.255  0.0302 -0.0463 -0.0393
 2593TIP3    H129338   1.702   1.190   8.285  0.2535  0.1562 -0.4097
 2593TIP3    H229339   1.614   1.200   8.162 -1.2922 -1.9043  0.4733
 2594TIP3   OH229340   2.316   1.652   6.393 -0.1258 -0.6185  0.3747
 2594TIP3    H129341   2.410   1.660   6.377 -0.1789  0.4984  0.5273
 2594TIP3    H229342   2.308   1.637   6.487 -0.1266  0.1621  0.5065
 2595TIP3   OH229343   3.624   0.763   6.501 -0.2754 -0.3815 -0.0931
 2595TIP3    H129344   3.585   0.696   6.558  0.2795 -0.6099  0.0237
 2595TIP3    H229345   3.673   0.819   6.561  0.9841 -1.0949 -0.4199
 2596TIP3   OH229346   5.545   6.791   8.159  0.4264  0.5431 -0.4132
 2596TIP3    H129347   5.614   6.839   8.204  0.8921  0.8293 -1.3872
 2596TIP3    H229348   5.506   6.856   8.099 -0.9129  0.4794  0.3451
 2597TIP3   OH229349   6.524   3.680   1.328 -0.3089 -0.1565 -0.5965
 2597TIP3    H129350   6.545   3.695   1.421  0.3466 -2.1643 -0.3734
 2597TIP3    H229351   6.533   3.766   1.288 -0.6736  0.7878  1.2001
 2598TIP3   OH229352   6.513   3.617   7.080  0.0418 -0.0657 -0.3109
 2598TIP3    H129353   6.590   3.626   7.023 -0.5249  0.1317 -1.0563
 2598TIP3    H229354   6.539   3.551   7.145  0.6701 -0.3576 -0.8443
 2599TIP3   OH229355   0.504   0.377   6.924 -0.4431  0.8200 -0.6688
 2599TIP3    H129356   0.495   0.325   7.003  1.6693 -1.5750 -1.8674
 2599TIP3    H229357   0.501   0.468   6.955 -1.4562  0.0126  1.8709
 2600TIP3   OH229358   6.005   2.004   7.157  0.3089  0.1211  0.6317
 2600TIP3    H129359   6.059   1.991   7.079 -0.8740  0.7578 -0.3441
 2600TIP3    H229360   6.017   2.097   7.179 -1.5838  0.7228 -0.6001
 2601TIP3   OH229361   2.479   1.745   1.818  0.3374  0.2447  0.1442
 2601TIP3    H129362   2.493   1.695   1.898  1.6674 -0.6494 -0.6046
 2601TIP3    H229363   2.387   1.733   1.798  0.0047  0.4140  1.4774
 2602TIP3   OH229364   3.096   3.841   6.786  0.5249  0.2260 -0.2694
 2602TIP3    H129365   3.126   3.932   6.798  2.0071 -0.2837  0.2392
 2602TIP3    H229366   3.132   3.815   6.701  0.4330  0.0077 -0.2411
 2603TIP3   OH229367   0.687   1.599   1.240  0.0916  0.3878  0.1262
 2603TIP3    H129368   0.681   1.629   1.330 -1.1712  2.2779 -0.5277
 2603TIP3    H229369   0.712   1.507   1.247  0.0542  0.4912  2.3796
 2604TIP3   OH229370   2.961   3.365   0.716 -0.0025  0.3259 -0.1171
 2604TIP3    H129371   3.054   3.343   0.714  0.0515  0.3347  1.2317
 2604TIP3    H229372   2.950   3.431   0.647  1.0158  0.4573 -0.1676
 2605TIP3   OH229373   2.001   2.360   1.191 -0.3079  0.1289  0.1848
 2605TIP3    H129374   2.027   2.364   1.099  1.3407 -0.2672  0.5988
 2605TIP3    H229375   2.050   2.430   1.233 -0.8043  0.1023  0.8225
 2606TIP3   OH229376   3.909   1.356   0.911 -0.2450 -0.4612 -0.2929
 2606TIP3    H129377   3.971   1.375   0.982 -0.1455  1.7474 -0.8979
 2606TIP3    H229378   3.885   1.264   0.924  0.7152 -0.4689  1.8503
 2607TIP3   OH229379   5.330   3.150   6.515 -0.4350 -0.5819 -0.1496
 2607TIP3    H129380   5.297   3.162   6.426  0.2796 -0.1247 -0.3608
 2607TIP3    H229381   5.295   3.065   6.542 -2.3070  0.1673 -0.0998
 2608TIP3   OH229382   5.472   2.699   0.142  0.1552 -0.0442  0.1285
 2608TIP3    H129383   5.461   2.746   0.225 -0.0007 -0.7434  0.5085
 2608TIP3    H229384   5.384   2.676   0.115  0.3219 -1.6811  0.8691
 2609TIP3   OH229385   3.011   5.176   7.210  0.2562 -0.4235 -0.6042
 2609TIP3    H129386   3.048   5.211   7.292 -1.0447 -0.4511  0.0212
 2609TIP3    H229387   3.079   5.192   7.145  0.8031  0.7986  0.2195
 2610TIP3   OH229388   1.367   2.478   0.530 -0.2537  0.3598  0.2473
 2610TIP3    H129389   1.312   2.494   0.454  0.0515  0.2962  0.0134
 2610TIP3    H229390   1.371   2.383   0.538  1.4384  0.3055 -0.9235
 2611TIP3   OH229391   3.995   3.774   0.822  0.4959 -0.0462  0.3983
 2611TIP3    H129392   4.041   3.751   0.903  2.9930  0.4331 -0.7912
 2611TIP3    H229393   4.065   3.783   0.757 -1.3792  0.1463 -1.6911
 2612TIP3   OH229394   2.641   6.783   7.555 -0.2958 -0.2135 -0.1292
 2612TIP3    H129395   2.671   6.866   7.517 -1.7773  1.0713  1.3497
 2612TIP3    H229396   2.586   6.744   7.487 -2.6011  1.8581  0.3924
 2613TIP3   OH229397   2.128   0.156   1.072 -0.5511 -0.2754  0.2717
 2613TIP3    H129398   2.071   0.173   1.147 -1.0511  0.5675 -0.2756
 2613TIP3    H229399   2.204   0.212   1.085  0.3668 -1.6719  1.1893
 2614TIP3   OH229400   4.118   4.858   7.567 -0.2069  0.2469  0.4001
 2614TIP3    H129401   4.103   4.841   7.474 -1.4051 -0.0712  0.6390
 2614TIP3    H229402   4.199   4.909   7.570 -0.7876  1.2813 -0.9034
 2615TIP3   OH229403   2.442   0.494   0.535 -0.5737 -0.1107  0.1304
 2615TIP3    H129404   2.493   0.423   0.573 -3.1174 -1.5971  0.9648
 2615TIP3    H229405   2.462   0.491   0.441  1.2642 -0.2330  0.4925
 2616TIP3   OH229406   4.464   2.919   0.360  0.5866  0.5692  0.1027
 2616TIP3    H129407   4.424   2.836   0.334  0.8047 -0.1002  1.7669
 2616TIP3    H229408   4.528   2.937   0.291  0.9391 -0.9454 -0.0006
 2617TIP3   OH229409   1.633   2.735   6.992  0.5942 -0.4649 -0.2497
 2617TIP3    H129410   1.633   2.752   7.086  0.5428 -0.1231 -0.3128
 2617TIP3    H229411   1.566   2.793   6.956 -0.0697 -1.2902 -0.3795
 2618TIP3   OH229412   0.217   1.677   6.844  0.4716 -0.1193 -0.0362
 2618TIP3    H129413   0.191   1.612   6.910 -1.9199 -0.4167 -1.1529
 2618TIP3    H229414   0.312   1.682   6.852  0.5629 -2.4101  1.3326
 2619TIP3   OH229415   4.039   6.855   1.875 -0.4188  0.2101  0.3482
 2619TIP3    H129416   4.046   6.861   1.970 -1.3580 -2.0619  0.6434
 2619TIP3    H229417   4.104   6.788   1.851 -1.8326 -0.9823 -0.2676
 2620TIP3   OH229418   0.630   0.484   7.429 -0.5210 -0.7738  1.1597
 2620TIP3    H129419   0.713   0.528   7.446 -0.3244 -0.0497 -1.2965
 2620TIP3    H229420   0.597   0.461   7.516  0.7206  1.7337  2.4095
 2621TIP3   OH229421   0.385   2.453   7.956  0.2739  0.3557  0.1944
 2621TIP3    H129422   0.449   2.463   8.026 -0.0732 -1.0022  0.7358
 2621TIP3    H229423   0.433   2.474   7.876  0.8754  1.1758  0.7583
 2622TIP3   OH229424   1.323   6.174   1.996  0.1960  0.3064  0.6200
 2622TIP3    H129425   1.261   6.143   2.062 -1.7611 -1.0205 -1.6831
 2622TIP3    H229426   1.307   6.118   1.920  2.7105  1.4024 -0.8320
 2623TIP3   OH229427   3.037   2.557   1.300  0.3690  0.0030  0.3586
 2623TIP3    H129428   3.105   2.618   1.329  1.6372 -0.4991 -1.3799
 2623TIP3    H229429   2.962   2.577   1.355  1.7858  0.8599  2.0829
 2624TIP3   OH229430   4.622   0.306   1.561  0.1067  0.0554 -0.1396
 2624TIP3    H129431   4.548   0.353   1.598 -0.3821 -1.1079  0.4130
 2624TIP3    H229432   4.698   0.341   1.607 -0.0936  1.1910 -0.6444
 2625TIP3   OH229433   0.466   4.648   1.026  0.0202  0.0414  0.1940
 2625TIP3    H129434   0.469   4.613   0.937 -0.0596  0.2466  0.1118
 2625TIP3    H229435   0.490   4.573   1.082  1.7492  0.3234 -0.1085
 2626TIP3   OH229436   4.325   1.889   0.945 -0.9930 -0.1491  0.1215
 2626TIP3    H129437   4.249   1.870   0.999 -1.3269  2.3975  0.6445
 2626TIP3    H229438   4.395   1.908   1.007 -0.5212 -0.3075 -0.3509
 2627TIP3   OH229439   5.771   1.835   1.418  0.4436  0.1131  0.2921
 2627TIP3    H129440   5.862   1.829   1.390  0.8115 -0.6789  1.5805
 2627TIP3    H229441   5.775   1.877   1.504 -0.3964  0.0630  0.3624
 2628TIP3   OH229442   4.617   6.450   6.764 -0.4615 -0.1393  0.0473
 2628TIP3    H129443   4.697   6.488   6.727 -0.1592 -0.3942  0.4275
 2628TIP3    H229444   4.643   6.420   6.851 -0.7412 -1.0157 -0.1548
 2629TIP3   OH229445   4.699   1.806   0.368 -0.3228 -0.4334  0.6584
 2629TIP3    H129446   4.673   1.723   0.329  0.2063 -0.9789  1.4351
 2629TIP3    H229447   4.720   1.862   0.293 -1.2381 -0.8063  0.1127
 2630TIP3   OH229448   4.498   4.110   1.870  0.3447  0.0521 -0.7256
 2630TIP3    H129449   4.420   4.063   1.898  0.5671 -0.1719 -0.4823
 2630TIP3    H229450   4.489   4.118   1.775 -0.2773  0.5769 -0.6304
 2631TIP3   OH229451   5.934   0.442   0.542 -0.1698  0.2472  0.2268
 2631TIP3    H129452   6.016   0.400   0.516 -0.4609 -0.9093  1.1154
 2631TIP3    H229453   5.954   0.485   0.625 -0.2725  0.6308  0.0583
 2632TIP3   OH229454   1.908   4.361   0.378  0.3451  0.0136  0.2132
 2632TIP3    H129455   1.871   4.444   0.347  0.9289  0.1910 -0.0370
 2632TIP3    H229456   1.941   4.319   0.298  1.5313  0.3017  0.5278
 2633TIP3   OH229457   1.583   5.014   2.139 -0.1650  0.2987 -0.4866
 2633TIP3    H129458   1.652   4.954   2.168 -1.6272 -0.4557  1.7236
 2633TIP3    H229459   1.628   5.098   2.126  1.4212 -0.5537 -0.7414
 2634TIP3   OH229460   5.303   5.783   1.599 -0.5702  0.0581 -0.4017
 2634TIP3    H129461   5.303   5.724   1.674  2.4382  0.8721  0.4015
 2634TIP3    H229462   5.246   5.856   1.625  0.0851  0.1123  0.9612
 2635TIP3   OH229463   4.664   3.428   8.092 -0.2611  0.0840 -0.5070
 2635TIP3    H129464   4.756   3.403   8.089 -0.2215  0.0743  0.4156
 2635TIP3    H229465   4.665   3.515   8.133 -0.6201  0.3174 -0.9922
 2636TIP3   OH229466   6.605   5.050   1.045 -0.9659  0.1209  0.1645
 2636TIP3    H129467   6.636   5.050   1.135 -1.5972  1.9542  0.4259
 2636TIP3    H229468   6.533   4.986   1.044  0.7743 -1.9347  0.2512
 2637TIP3   OH229469   3.163   5.526   0.062  0.7189  0.0621  0.9962
 2637TIP3    H129470   3.117   5.443   0.053  0.7924  0.2692 -3.8197
 2637TIP3    H229471   3.255   5.505   0.045  0.6744  1.0781 -0.7878
 2638TIP3   OH229472   5.701   3.284   7.074 -0.5900 -0.2191  0.2967
 2638TIP3    H129473   5.710   3.208   7.017 -2.0777 -1.2861  1.4404
 2638TIP3    H229474   5.737   3.256   7.158 -0.9426  0.4218  0.6661
 2639TIP3   OH229475   0.385   2.301   0.413  0.0414  0.1300  0.0457
 2639TIP3    H129476   0.338   2.382   0.397 -0.0420 -0.1266 -1.0813
 2639TIP3    H229477   0.319   2.233   0.404  0.7960 -0.3725 -3.0703
 2640TIP3   OH229478   5.114   1.685   1.840 -0.0885  0.0005  0.5066
 2640TIP3    H129479   5.030   1.700   1.883 -1.3129 -1.3590 -1.2578
 2640TIP3    H229480   5.100   1.715   1.750  1.3816 -0.1297  0.2048
 2641TIP3   OH229481   2.825   2.634   0.026 -0.1104 -0.1243 -0.0908
 2641TIP3    H129482   2.736   2.598   0.034 -0.1025 -0.3204 -0.7509
 2641TIP3    H229483   2.849   2.660   0.114 -1.2737  1.0037 -0.0841
 2642TIP3   OH229484   4.128   6.311   2.390 -0.0078 -0.2196  0.1724
 2642TIP3    H129485   4.044   6.351   2.413 -1.2970 -2.5160 -0.2433
 2642TIP3    H229486   4.162   6.277   2.472  0.7523  1.0171  0.4041
 2643TIP3   OH229487   1.696   0.196   0.850 -0.1853 -0.2930 -0.4292
 2643TIP3    H129488   1.627   0.154   0.800  1.1782 -1.7331 -1.2075
 2643TIP3    H229489   1.749   0.243   0.784  0.8921 -1.1463 -0.2002
 2644TIP3   OH229490   4.495   0.905   0.695 -0.7614  0.1766  0.2612
 2644TIP3    H129491   4.590   0.907   0.707 -0.5838 -0.3529 -0.9802
 2644TIP3    H229492   4.461   0.884   0.782  0.1271  2.2246  1.1707
 2645TIP3   OH229493   1.257   6.390   0.353 -0.5356 -0.1456 -0.2191
 2645TIP3    H129494   1.174   6.427   0.383  0.7781  2.0757  0.9528
 2645TIP3    H229495   1.312   6.467   0.334  1.2056 -1.5294 -1.0920
 2646TIP3   OH229496   2.776   3.889   6.297 -0.4169 -0.5410 -0.1588
 2646TIP3    H129497   2.763   3.871   6.204 -1.4359 -0.9077  0.0401
 2646TIP3    H229498   2.763   3.983   6.306 -1.4500 -0.6700 -0.2190
 2647TIP3   OH229499   5.644   5.362   1.424  0.0285 -0.0927 -0.6060
 2647TIP3    H129500   5.639   5.441   1.479  3.2013 -0.8835  1.0581
 2647TIP3    H229501   5.689   5.392   1.345 -1.0535  0.2395 -1.1157
 2648TIP3   OH229502   3.222   6.357   7.196 -0.1927  0.0659  0.1602
 2648TIP3    H129503   3.227   6.282   7.256  0.8212 -0.0747 -0.0851
 2648TIP3    H229504   3.283   6.335   7.126  0.1797  1.1722  0.1316
 2649TIP3   OH229505   1.829   6.559   7.822  0.1993  0.3079  0.0734
 2649TIP3    H129506   1.857   6.626   7.760 -2.6956  1.5337 -0.0488
 2649TIP3    H229507   1.811   6.607   7.903 -2.9995  0.0206 -0.3274
 2650TIP3   OH229508   4.830   0.386   2.374 -0.2853  0.6539 -0.3176
 2650TIP3    H129509   4.778   0.466   2.370  0.8394  1.3882 -0.3837
 2650TIP3    H229510   4.774   0.324   2.422 -0.8447  1.7186  0.4437
 2651TIP3   OH229511   6.254   1.157   6.794 -0.0657  0.0284  0.6077
 2651TIP3    H129512   6.166   1.192   6.808  0.2815 -0.0984  3.5882
 2651TIP3    H229513   6.240   1.067   6.764 -0.8866  0.8486 -1.7679
 2652TIP3   OH229514   0.711   6.924   6.883 -0.2698  0.2251 -0.0196
 2652TIP3    H129515   0.713   7.018   6.870 -1.5501  0.3598  0.6757
 2652TIP3    H229516   0.674   6.912   6.970 -0.7338 -0.9427 -0.3610
 2653TIP3   OH229517   0.972   6.128   0.537 -0.1782  0.0898  0.0372
 2653TIP3    H129518   0.897   6.081   0.501  0.8754 -1.3253 -0.3970
 2653TIP3    H229519   1.048   6.088   0.495  0.9235  0.4029  1.6436
 2654TIP3   OH229520   4.082   1.917   2.068 -0.0363 -0.2131  0.0256
 2654TIP3    H129521   4.077   1.994   2.124 -0.6594 -0.6311  0.5531
 2654TIP3    H229522   4.176   1.900   2.059  0.0714 -0.1518  0.9543
 2655TIP3   OH229523   4.722   2.094   1.303 -0.1956 -0.5272 -0.2288
 2655TIP3    H129524   4.677   2.171   1.339 -0.9278 -1.3901  0.7463
 2655TIP3    H229525   4.758   2.125   1.220 -2.8334  0.1357 -1.2119
 2656TIP3   OH229526   1.156   5.782   2.342 -0.4354  0.7341  0.0879
 2656TIP3    H129527   1.100   5.815   2.271  0.0938  2.1431  0.3001
 2656TIP3    H229528   1.115   5.699   2.367 -0.0402 -0.3995 -2.6027
 2657TIP3   OH229529   5.293   3.583   1.162 -0.2343 -0.0208 -0.4484
 2657TIP3    H129530   5.288   3.490   1.140  1.4682 -0.2735  0.1404
 2657TIP3    H229531   5.290   3.586   1.258  1.4681  0.3629 -0.3752
 2658TIP3   OH229532   0.369   0.752   1.462  0.7963  0.1714  0.2313
 2658TIP3    H129533   0.361   0.747   1.557 -0.5925  1.1661  0.1989
 2658TIP3    H229534   0.399   0.841   1.445 -2.7383  1.4186 -0.3634
 2659TIP3   OH229535   0.797   0.242   7.561 -0.3142 -0.8449  0.3849
 2659TIP3    H129536   0.806   0.258   7.655  1.7480  1.1876 -0.0697
 2659TIP3    H229537   0.702   0.237   7.547 -0.6976 -0.3562  2.4278
 2660TIP3   OH229538   4.341   3.460   0.314  0.0942 -0.0150 -0.1474
 2660TIP3    H129539   4.258   3.467   0.361  1.6432  0.0221  2.7981
 2660TIP3    H229540   4.351   3.366   0.296 -0.5165 -0.0286 -0.4518
 2661TIP3   OH229541   3.819   5.446   7.916 -0.0760  0.5827  0.2472
 2661TIP3    H129542   3.725   5.432   7.919  0.0565 -0.9951 -1.1133
 2661TIP3    H229543   3.841   5.438   7.823  1.5964 -0.7281  0.7088
 2662TIP3   OH229544   6.084   2.778   8.190 -0.4986  0.5518 -0.3583
 2662TIP3    H129545   6.013   2.781   8.255 -0.1199 -0.2610  0.1069
 2662TIP3    H229546   6.066   2.852   8.132 -1.8338  0.2601 -0.3566
 2663TIP3   OH229547   0.055   2.032   0.014 -0.1951  0.4467  0.2772
 2663TIP3    H129548   0.117   1.960   0.029  0.0828  0.7940  0.8173
 2663TIP3    H229549   0.110   2.104  -0.017 -0.3998  0.6074  0.2945
 2664TIP3   OH229550   0.898   6.273   6.030 -0.2373  0.2103  0.6041
 2664TIP3    H129551   0.853   6.197   6.068 -0.7977  0.3531  0.2500
 2664TIP3    H229552   0.950   6.236   5.959  1.8866 -0.2494  2.3019
 2665TIP3   OH229553   0.809   2.368   0.415  0.0426 -0.2928 -0.7506
 2665TIP3    H129554   0.876   2.408   0.470  2.8167 -2.5304 -2.2788
 2665TIP3    H229555   0.816   2.415   0.332  0.3534 -1.1162 -1.1971
 2666TIP3   OH229556   2.903   0.784   0.099 -0.0603  0.1791 -0.0700
 2666TIP3    H129557   2.808   0.788   0.113 -0.0289  0.1184  0.1609
 2666TIP3    H229558   2.933   0.713   0.155  0.3419  1.2541  1.1379
 2667TIP3   OH229559   0.946   6.522   0.032 -0.1157  0.4747  0.1037
 2667TIP3    H129560   0.896   6.455  -0.014 -1.3177  1.4158 -0.0217
 2667TIP3    H229561   1.033   6.485   0.042 -1.3554 -2.1920  2.3563
 2668TIP3   OH229562   2.507   3.293   0.456 -0.2807  0.0334  0.5577
 2668TIP3    H129563   2.505   3.387   0.441 -1.8489  0.1848  1.5703
 2668TIP3    H229564   2.498   3.255   0.369 -3.1281  0.8644  0.4070
 2669TIP3   OH229565   3.682   4.153   1.363 -0.0033 -0.0235 -0.3154
 2669TIP3    H129566   3.728   4.228   1.398  0.9616 -1.4889  1.7566
 2669TIP3    H229567   3.747   4.082   1.364 -0.9242 -0.9726 -1.9909
 2670TIP3   OH229568   0.844   0.581   7.839 -0.1121 -0.5963 -0.1228
 2670TIP3    H129569   0.829   0.486   7.842 -1.3074 -0.4219  2.1882
 2670TIP3    H229570   0.767   0.618   7.882 -0.0100  1.5094 -1.6242
 2671TIP3   OH229571   2.048   4.514   8.209  0.0546  0.6031  0.4824
 2671TIP3    H129572   2.116   4.560   8.159  0.2620  1.0909  1.1920
 2671TIP3    H229573   2.096   4.467   8.277 -0.1224 -0.9610 -0.4176
 2672TIP3   OH229574   3.061   2.808   2.480 -1.2421  0.2052 -0.1539
 2672TIP3    H129575   3.024   2.890   2.446 -2.5687 -0.4907 -0.4428
 2672TIP3    H229576   3.156   2.818   2.468 -1.3953  1.6018 -0.3882
 2673TIP3   OH229577   5.973   6.082   0.616  0.1333 -0.4923 -0.2364
 2673TIP3    H129578   5.958   6.032   0.535  2.5367  1.7511 -2.2278
 2673TIP3    H229579   6.017   6.020   0.674  0.6951 -1.4707 -1.6434
 2674TIP3   OH229580   2.355   2.063   1.107 -0.0773  0.0262 -0.1021
 2674TIP3    H129581   2.339   1.970   1.089 -1.0162  0.0516  0.5340
 2674TIP3    H229582   2.441   2.080   1.068  1.1883 -1.6800  1.7255
 2675TIP3   OH229583   6.937   3.417   0.625  0.2445  0.1582  0.4753
 2675TIP3    H129584   6.982   3.485   0.574  1.0099 -0.9766 -0.4024
 2675TIP3    H229585   7.007   3.361   0.658 -0.4374 -2.0328 -1.4724
 2676TIP3   OH229586   6.148   6.966   0.269 -0.2123 -0.3137 -0.4795
 2676TIP3    H129587   6.129   6.882   0.227 -1.4325 -0.1081 -0.3719
 2676TIP3    H229588   6.068   6.988   0.315  0.5933  0.2063  0.7303
 2677TIP3   OH229589   3.225   2.579   8.085  0.4891  0.1260 -0.1762
 2677TIP3    H129590   3.152   2.546   8.137  0.5904 -0.5000 -0.4209
 2677TIP3    H229591   3.185   2.608   8.003  0.6500 -1.4403 -0.8512
 2678TIP3   OH229592   2.209   1.024   7.916 -0.7239 -0.3408  0.5591
 2678TIP3    H129593   2.125   1.002   7.875 -0.9792  1.6951 -0.1187
 2678TIP3    H229594   2.273   0.972   7.868 -1.3615 -0.1892 -0.4987
 2679TIP3   OH229595   1.545   4.560   2.020  0.2814 -0.2577  0.7896
 2679TIP3    H129596   1.598   4.636   2.044 -1.3121  0.7890  1.1431
 2679TIP3    H229597   1.567   4.493   2.085  1.0138  0.2185  1.0412
 2680TIP3   OH229598   2.181   3.761   0.945 -0.3316  0.3169 -0.7089
 2680TIP3    H129599   2.257   3.818   0.934 -0.1192 -0.2423 -2.4730
 2680TIP3    H229600   2.147   3.748   0.856 -1.9046 -0.2475 -0.0710
 2681TIP3   OH229601   2.162   2.386   0.322  0.4571  0.2103  0.6654
 2681TIP3    H129602   2.165   2.451   0.392 -0.4384  0.7950  0.1788
 2681TIP3    H229603   2.152   2.437   0.242  0.1079 -0.5141  0.2389
 2682TIP3   OH229604   1.557   6.209   8.209  0.0971 -0.2506  0.8825
 2682TIP3    H129605   1.640   6.228   8.166  0.0621  0.7393  1.2382
 2682TIP3    H229606   1.549   6.275   8.277 -1.8033  0.7969 -0.2620
 2683TIP3   OH229607   6.286   1.989   1.012  0.0636  0.1027 -0.2053
 2683TIP3    H129608   6.355   1.950   0.959  1.3167  1.7186  0.1733
 2683TIP3    H229609   6.314   1.974   1.102  0.5124  1.6987 -0.0489
 2684TIP3   OH229610   3.452   4.880   7.357 -0.5173 -0.5434 -0.1726
 2684TIP3    H129611   3.546   4.887   7.376 -0.9179  0.2590  1.7083
 2684TIP3    H229612   3.423   4.971   7.349 -0.8486 -0.8015 -2.5092
 2685TIP3   OH229613   6.558   0.841   0.119 -0.4207 -0.5092  0.6768
 2685TIP3    H129614   6.653   0.837   0.127 -0.3678 -0.3364  0.1902
 2685TIP3    H229615   6.543   0.876   0.031 -0.9296  0.4378  1.1329
 2686TIP3   OH229616   0.611   5.461   0.376  0.1879 -1.0345  0.3919
 2686TIP3    H129617   0.517   5.443   0.381  0.2650 -2.2079 -1.4367
 2686TIP3    H229618   0.652   5.375   0.377  1.0875 -0.6537 -1.2475
 2687TIP3   OH229619   4.035   6.090   1.845  0.3878 -0.3192  0.2727
 2687TIP3    H129620   3.992   6.035   1.779  0.3036  1.5202 -1.2757
 2687TIP3    H229621   3.963   6.119   1.901  0.0206  0.4038 -0.5580
 2688TIP3   OH229622   2.308   5.859   1.073  0.2065 -0.3636  0.2170
 2688TIP3    H129623   2.244   5.892   1.010  0.8937 -0.1145 -0.3671
 2688TIP3    H229624   2.329   5.934   1.128  0.9500 -0.0960 -0.4143
 2689TIP3   OH229625   1.686   5.615   7.215  0.2519 -0.3100 -0.2651
 2689TIP3    H129626   1.712   5.569   7.295  0.5350  0.4353  0.0801
 2689TIP3    H229627   1.660   5.545   7.155  3.7021 -1.2613 -0.8986
 2690TIP3   OH229628   0.670   1.429   0.586  0.7320  0.1032  0.2424
 2690TIP3    H129629   0.658   1.334   0.576 -0.2797  0.2317  0.1561
 2690TIP3    H229630   0.607   1.453   0.653  1.7845  0.5470  1.1089
 2691TIP3   OH229631   6.692   3.010   7.056  0.0630  0.4289  0.1696
 2691TIP3    H129632   6.630   3.016   6.983  1.3048  1.3656 -0.8549
 2691TIP3    H229633   6.743   2.931   7.037 -0.7897 -0.3497  1.0184
 2692TIP3   OH229634   0.059   6.502   0.507  0.1573 -0.1199 -0.5831
 2692TIP3    H129635   0.078   6.594   0.487 -0.2897  0.0358 -0.3105
 2692TIP3    H229636   0.145   6.463   0.521  0.3802  0.1355 -1.2119
 2693TIP3   OH229637   4.071   2.310   2.898 -0.0754  0.0925  0.4400
 2693TIP3    H129638   4.000   2.312   2.963 -0.7829  0.7135 -0.3338
 2693TIP3    H229639   4.027   2.296   2.815  0.6805  0.8601 -0.1039
 2694TIP3   OH229640   3.007   1.555   1.801  0.4619 -0.4690  0.4444
 2694TIP3    H129641   3.099   1.575   1.781  0.1730  0.5591  0.0841
 2694TIP3    H229642   3.011   1.499   1.878  1.3917 -0.4069  0.4562
 2695TIP3   OH229643   4.668   6.889   6.716  0.4067 -0.3758  0.0521
 2695TIP3    H129644   4.746   6.915   6.666 -0.8042  0.5385 -1.4440
 2695TIP3    H229645   4.616   6.969   6.723 -1.4199 -1.4097 -0.9389
 2696TIP3   OH229646   0.223   3.818   0.449  0.5108 -0.3300 -0.3795
 2696TIP3    H129647   0.240   3.910   0.472  1.1018 -0.4074 -0.4874
 2696TIP3    H229648   0.309   3.777   0.449  0.2064 -0.9923  0.1065
 2697TIP3   OH229649   1.089   4.245   2.428 -0.3459 -0.0871 -0.3336
 2697TIP3    H129650   1.159   4.200   2.475  1.2389 -0.3712 -2.7925
 2697TIP3    H229651   1.063   4.317   2.487  0.1165 -1.5384  1.7541
 2698TIP3   OH229652   0.527   0.164   7.588 -0.4044 -0.3826 -0.4631
 2698TIP3    H129653   0.445   0.115   7.592 -0.6365  0.0714  0.9452
 2698TIP3    H229654   0.500   0.256   7.597  0.1328 -0.0634 -1.7621
 2699TIP3   OH229655   4.808   0.779   2.501  0.4578  0.7094  0.0312
 2699TIP3    H129656   4.738   0.731   2.457  0.5536 -0.4760  1.1259
 2699TIP3    H229657   4.762   0.840   2.560  0.3298  0.2585  0.4049
 2700TIP3   OH229658   4.475   6.535   8.074  0.0445  0.0607  0.1173
 2700TIP3    H129659   4.420   6.609   8.051  1.2621  1.2354  0.8785
 2700TIP3    H229660   4.486   6.487   7.992 -0.5595  0.8537 -0.4401
 2701TIP3   OH229661   0.224   2.381   1.201  0.3050  0.4225 -0.4557
 2701TIP3    H129662   0.280   2.440   1.251 -0.2466  2.1796 -1.7823
 2701TIP3    H229663   0.138   2.387   1.243  0.8980 -1.8725  1.2629
 2702TIP3   OH229664   6.743   1.566   1.554 -0.2605 -0.8072  0.7059
 2702TIP3    H129665   6.769   1.571   1.462 -0.9980 -1.1080  0.4795
 2702TIP3    H229666   6.648   1.568   1.553 -0.3306  2.4743  1.6470
 2703TIP3   OH229667   3.267   0.646   1.704  0.0369 -0.3092 -0.1593
 2703TIP3    H129668   3.308   0.699   1.771  1.1297 -1.8720  0.4579
 2703TIP3    H229669   3.173   0.659   1.717  0.2641  0.8195  0.4645
 2704TIP3   OH229670   2.721   1.104   1.727  0.5037 -0.5889 -0.0274
 2704TIP3    H129671   2.777   1.136   1.657  0.5921  0.1645  0.3854
 2704TIP3    H229672   2.777   1.044   1.777  0.5290 -0.8907 -0.4109
 2705TIP3   OH229673   5.564   3.590   0.882 -0.0796 -0.0776 -0.0310
 2705TIP3    H129674   5.576   3.495   0.885  0.6012 -0.0276 -0.7741
 2705TIP3    H229675   5.513   3.606   0.803  0.9050  0.2606 -0.6221
 2706TIP3   OH229676   0.414   5.416   2.494  0.8436  0.0096 -0.1911
 2706TIP3    H129677   0.414   5.504   2.532 -2.3376  0.6648 -1.3897
 2706TIP3    H229678   0.438   5.429   2.403 -1.1314 -0.0223 -0.7784
 2707TIP3   OH229679   1.017   3.639   7.858 -0.0162 -0.0680  0.0737
 2707TIP3    H129680   0.943   3.590   7.893 -0.8635  0.8777 -0.3427
 2707TIP3    H229681   1.020   3.719   7.911 -0.5722  0.8263 -1.1835
 2708TIP3   OH229682   6.539   6.818   0.258  0.0597 -0.1839  0.2317
 2708TIP3    H129683   6.592   6.873   0.200 -0.0547  0.1707  0.4633
 2708TIP3    H229684   6.487   6.764   0.199  1.5723 -1.4407 -0.0340
 2709TIP3   OH229685   6.563   3.879   0.176 -0.2843 -0.3481  0.2554
 2709TIP3    H129686   6.549   3.829   0.095 -0.4819 -0.0496  0.1061
 2709TIP3    H229687   6.652   3.856   0.203  0.0011  0.0122 -0.3722
 2710TIP3   OH229688   1.661   1.730   1.638  0.0527  0.3411 -0.0356
 2710TIP3    H129689   1.575   1.690   1.634 -0.5809  1.6765 -0.1567
 2710TIP3    H229690   1.649   1.808   1.693  1.2888  0.2921  0.3510
 2711TIP3   OH229691   2.316   2.029   1.513  0.0641  0.5194 -0.4084
 2711TIP3    H129692   2.256   1.965   1.551  1.7233 -0.1740  1.2288
 2711TIP3    H229693   2.281   2.047   1.426 -2.6578  0.4259  0.5850
 2712TIP3   OH229694   3.986   0.168   1.519 -0.7769 -0.7664 -0.4872
 2712TIP3    H129695   3.905   0.213   1.499 -0.8521 -0.3386  0.6876
 2712TIP3    H229696   4.050   0.203   1.457 -1.2516 -0.3498 -0.7395
 2713TIP3   OH229697   3.450   4.164   0.448 -0.1659  0.2106 -0.0102
 2713TIP3    H129698   3.479   4.146   0.537  0.3391 -0.0657 -0.2265
 2713TIP3    H229699   3.504   4.239   0.420 -0.0522  0.0564 -0.2115
 2714TIP3   OH229700   3.086   0.361   8.015 -0.1650 -0.2370  0.2339
 2714TIP3    H129701   3.178   0.346   8.035  0.0176 -0.8123 -0.9447
 2714TIP3    H229702   3.051   0.402   8.094  0.2674 -3.1785  2.1293
 2715TIP3   OH229703   4.134   4.487   1.309 -0.0313 -0.5666  0.1961
 2715TIP3    H129704   4.119   4.542   1.232  0.2710  2.4372  2.1058
 2715TIP3    H229705   4.046   4.465   1.339 -0.3969  2.1306  1.4421
 2716TIP3   OH229706   6.499   1.609   7.098 -0.0066  0.2471 -0.4790
 2716TIP3    H129707   6.465   1.618   7.187  0.5111 -0.1818 -0.2357
 2716TIP3    H229708   6.594   1.616   7.107  0.0204  0.7876 -1.0738
 2717TIP3   OH229709   5.607   3.745   2.145  0.0908  0.2177 -0.0069
 2717TIP3    H129710   5.651   3.829   2.135 -0.5778  0.4331 -1.4889
 2717TIP3    H229711   5.518   3.761   2.115 -0.5559 -0.6024  1.4032
 2718TIP3   OH229712   2.983   1.465   6.077  0.7122  0.2532 -0.0882
 2718TIP3    H129713   2.888   1.479   6.070  0.8605  1.9512  0.6973
 2718TIP3    H229714   2.991   1.395   6.142 -0.0211 -1.0547 -1.3548
 2719TIP3   OH229715   1.173   0.903   7.350 -0.4071 -0.0815 -0.4378
 2719TIP3    H129716   1.173   0.860   7.436 -2.0046  0.5682 -0.0681
 2719TIP3    H229717   1.247   0.964   7.354  0.3511 -0.9929 -0.0423
 2720TIP3   OH229718   6.596   1.348   8.212 -0.8647 -0.2979  0.5539
 2720TIP3    H129719   6.541   1.278   8.248  0.2002 -1.3331  0.2535
 2720TIP3    H229720   6.684   1.326   8.242 -0.8554  2.8461  3.4358
 2721TIP3   OH229721   1.606   4.089   1.078  0.2175  0.1816 -0.6558
 2721TIP3    H129722   1.659   4.163   1.051 -0.4639  0.6139 -0.8454
 2721TIP3    H229723   1.666   4.015   1.078  1.7269  1.2336  2.6942
 2722TIP3   OH229724   0.397   1.018   7.492  0.0746 -0.1422  0.2464
 2722TIP3    H129725   0.334   1.089   7.478  0.6310  0.1801 -0.7237
 2722TIP3    H229726   0.478   1.050   7.452  0.6855 -0.8147  0.9195
 2723TIP3   OH229727   6.838   2.790   6.722  0.5694  0.3758 -0.1253
 2723TIP3    H129728   6.744   2.806   6.721  0.6456  0.8248 -0.9146
 2723TIP3    H229729   6.872   2.843   6.650  1.4581  0.4140  0.3051
 2724TIP3   OH229730   5.458   1.721   7.857 -0.0114  0.5537  0.5575
 2724TIP3    H129731   5.481   1.629   7.863 -0.2544  0.4672  0.2088
 2724TIP3    H229732   5.365   1.721   7.835 -0.1028  0.8858  0.9174
 2725TIP3   OH229733   1.584   5.872   0.675  0.3900 -0.3415  0.3910
 2725TIP3    H129734   1.644   5.828   0.614  1.3836  1.0363  0.3114
 2725TIP3    H229735   1.497   5.844   0.647  0.8824 -0.7106 -0.8787
 2726TIP3   OH229736   2.724   5.081   1.831 -0.1293  0.0314 -0.1351
 2726TIP3    H129737   2.761   5.049   1.913  1.1061  0.2356 -0.5872
 2726TIP3    H229738   2.738   5.011   1.769 -2.3823 -0.7225  0.1191
 2727TIP3   OH229739   0.403   0.965   8.186 -0.0216 -0.2585 -0.0300
 2727TIP3    H129740   0.388   0.942   8.278 -0.1102 -0.1628 -0.0204
 2727TIP3    H229741   0.454   0.892   8.151  1.0296  0.2500  0.3955
 2728TIP3   OH229742   1.752   2.446   7.965 -0.0999 -0.5871  0.1129
 2728TIP3    H129743   1.791   2.399   8.039  0.2986  0.5023  0.6164
 2728TIP3    H229744   1.794   2.532   7.966  1.3980 -1.1606 -2.5836
 2729TIP3   OH229745   2.073   1.368   1.653  0.1802  0.0128  0.7458
 2729TIP3    H129746   2.165   1.363   1.677  0.1116 -2.2769  0.7895
 2729TIP3    H229747   2.060   1.458   1.623  2.2206  0.5976  1.4761
 2730TIP3   OH229748   2.264   4.212   0.983  0.2015 -0.1165 -0.0929
 2730TIP3    H129749   2.219   4.295   0.996  0.6097  0.2277 -0.8307
 2730TIP3    H229750   2.219   4.171   0.909 -0.6403 -1.0224  0.8785
 2731TIP3   OH229751   0.865   5.615   7.944  0.2546 -0.0232 -0.1777
 2731TIP3    H129752   0.853   5.707   7.968  0.6899  0.2922 -1.1475
 2731TIP3    H229753   0.945   5.589   7.988  0.6905  0.3637 -0.7365
 2732TIP3   OH229754   2.770   6.355   0.059 -0.0284 -0.0140 -0.1624
 2732TIP3    H129755   2.854   6.367   0.013  0.7147  0.9511  1.3731
 2732TIP3    H229756   2.770   6.263   0.084  0.4874 -0.0713 -0.3448
 2733TIP3   OH229757   5.393   1.606   1.382 -0.3256 -0.6356  0.1459
 2733TIP3    H129758   5.425   1.580   1.469 -1.4288 -0.0971  0.7335
 2733TIP3    H229759   5.318   1.662   1.400  0.4784  0.9375 -1.1364
 2734TIP3   OH229760   2.758   4.353   0.810 -0.0337  0.7792 -0.0644
 2734TIP3    H129761   2.842   4.320   0.778 -0.6418  0.3611 -1.2808
 2734TIP3    H229762   2.698   4.279   0.800 -0.8649  1.5004 -0.5390
 2735TIP3   OH229763   2.844   6.700   1.727  0.8966  0.0325 -0.4995
 2735TIP3    H129764   2.843   6.795   1.711  0.1413 -0.0621 -1.0302
 2735TIP3    H229765   2.752   6.673   1.721  0.9293 -0.5035  1.0958
 2736TIP3   OH229766   6.264   4.269   7.953 -0.7583  0.4880  0.2545
 2736TIP3    H129767   6.170   4.255   7.966 -0.9231  1.1843 -0.1569
 2736TIP3    H229768   6.303   4.243   8.037 -1.0816 -1.8173 -0.2611
 2737TIP3   OH229769   5.659   3.119   0.550  0.1398  0.5795 -0.2493
 2737TIP3    H129770   5.579   3.093   0.504  0.2938 -1.1118  0.3673
 2737TIP3    H229771   5.657   3.215   0.550 -2.0440  0.5856  0.0288
 2738TIP3   OH229772   2.411   0.208   0.435 -0.3538  0.6321 -0.2259
 2738TIP3    H129773   2.470   0.133   0.426 -0.5696  0.3826  0.4026
 2738TIP3    H229774   2.447   0.273   0.375 -0.1302  0.0497 -0.7404
 2739TIP3   OH229775   3.924   3.999   0.684  0.5392 -0.4260  0.4097
 2739TIP3    H129776   3.950   3.915   0.722 -0.4639 -1.1804 -0.5005
 2739TIP3    H229777   3.902   4.054   0.759 -0.0211 -1.4124  0.9858
 2740TIP3   OH229778   3.817   2.341   7.149  0.2451 -0.5807 -0.1548
 2740TIP3    H129779   3.896   2.302   7.113  0.8020  1.8208 -1.8154
 2740TIP3    H229780   3.849   2.409   7.209 -0.5834 -0.1286 -0.2084
 2741TIP3   OH229781   4.123   2.664   2.802  0.5079 -0.5368 -0.3594
 2741TIP3    H129782   4.129   2.611   2.722  0.6254 -0.6682 -0.2665
 2741TIP3    H229783   4.093   2.750   2.773  2.0854 -0.0844 -0.7715
 2742TIP3   OH229784   2.310   0.362   1.144  0.1772  0.2763 -0.3262
 2742TIP3    H129785   2.258   0.409   1.079  0.5377 -0.4349 -1.1382
 2742TIP3    H229786   2.274   0.391   1.228 -2.3260 -1.0495 -0.8390
 2743TIP3   OH229787   1.072   1.624   7.869 -0.5456  0.4265  0.6334
 2743TIP3    H129788   1.061   1.698   7.809 -0.7259 -0.0973  0.0034
 2743TIP3    H229789   1.158   1.639   7.909 -0.0495  0.3775 -0.3617
 2744TIP3   OH229790   4.689   6.726   0.207  0.0957  0.1568  0.3388
 2744TIP3    H129791   4.666   6.648   0.156  0.0364  0.2015  0.2969
 2744TIP3    H229792   4.731   6.785   0.144 -2.0991  1.2146 -0.2573
 2745TIP3   OH229793   5.662   6.966   6.825  0.9492 -0.0086 -0.8496
 2745TIP3    H129794   5.570   6.941   6.828  0.0140  2.9364 -1.3936
 2745TIP3    H229795   5.685   6.961   6.732  0.3236  2.2078 -1.1829
 2746TIP3   OH229796   1.252   4.012   1.458 -0.5914 -0.3025 -0.6001
 2746TIP3    H129797   1.271   4.086   1.516 -0.0710 -1.3089  0.5626
 2746TIP3    H229798   1.337   3.971   1.443 -0.7810 -0.3174 -1.7667
 2747TIP3   OH229799   3.051   4.754   7.483  0.3335  0.2906 -0.7171
 2747TIP3    H129800   3.096   4.719   7.406  0.6264 -0.9871  0.0154
 2747TIP3    H229801   3.018   4.839   7.454 -0.4779 -0.5973 -2.6041
 2748TIP3   OH229802   1.921   1.933   6.855 -0.0927 -0.1216 -0.9952
 2748TIP3    H129803   1.838   1.963   6.816 -0.2230  2.2816  0.8957
 2748TIP3    H229804   1.895   1.869   6.920 -0.4270  0.2029 -0.8061
 2749TIP3   OH229805   0.453   3.157   7.144  0.3856  0.7338  0.0907
 2749TIP3    H129806   0.394   3.129   7.074 -1.1587  0.2893  1.5116
 2749TIP3    H229807   0.479   3.076   7.187  1.1669  1.0210  0.1738
 2750TIP3   OH229808   0.184   1.856   1.717  0.0758 -0.4573 -0.2197
 2750TIP3    H129809   0.159   1.940   1.754 -0.7887  0.0395 -1.8766
 2750TIP3    H229810   0.112   1.832   1.659  1.0253 -1.5859 -0.9760
 2751TIP3   OH229811   4.336   6.796   8.011 -0.6496 -0.0603 -0.2894
 2751TIP3    H129812   4.281   6.733   7.965 -0.5838 -0.5921  0.3462
 2751TIP3    H229813   4.274   6.854   8.056 -0.7115  0.3912 -0.9542
 2752TIP3   OH229814   6.384   4.631   2.287 -0.4069  0.6737  0.1030
 2752TIP3    H129815   6.353   4.556   2.337 -1.5676  0.2871 -1.1512
 2752TIP3    H229816   6.475   4.610   2.265 -0.9293 -0.7206 -0.8560
 2753TIP3   OH229817   2.583   5.125   0.301 -0.3018 -1.0208  0.5629
 2753TIP3    H129818   2.668   5.094   0.332 -0.2655 -2.0852 -0.5322
 2753TIP3    H229819   2.525   5.115   0.377 -0.3179 -3.9966  0.2772
 2754TIP3   OH229820   5.061   6.263   0.289 -0.1615 -0.5154  0.0299
 2754TIP3    H129821   5.062   6.266   0.193  0.2541  1.3348  0.0510
 2754TIP3    H229822   5.120   6.334   0.316 -1.6333  0.1724  1.6358
 2755TIP3   OH229823   1.840   2.031   8.099  0.2806 -0.2705 -0.7289
 2755TIP3    H129824   1.893   1.951   8.099  2.0990  0.8691 -1.4838
 2755TIP3    H229825   1.841   2.060   8.190  3.8967  1.4789 -1.1510
 2756TIP3   OH229826   4.429   6.412   1.363  0.2588 -0.2897 -0.2548
 2756TIP3    H129827   4.453   6.394   1.454  0.3325  0.0687 -0.2027
 2756TIP3    H229828   4.468   6.498   1.344 -0.0978 -0.1792 -0.4982
 2757TIP3   OH229829   2.096   6.331   8.204  0.2381  0.6904 -0.4106
 2757TIP3    H129830   2.106   6.271   8.130 -0.8941 -0.4258  0.3045
 2757TIP3    H229831   2.172   6.315   8.259  0.0705  0.0667 -0.3512
 2758TIP3   OH229832   3.582   3.887   7.390  0.1252 -0.5218 -0.2255
 2758TIP3    H129833   3.486   3.889   7.387  0.1116  0.8039  0.2523
 2758TIP3    H229834   3.603   3.904   7.482  0.8255  0.9456 -0.6348
 2759TIP3   OH229835   5.732   2.363   0.555 -0.0482  0.3985  0.1909
 2759TIP3    H129836   5.665   2.354   0.486  0.9833  1.0475 -0.9348
 2759TIP3    H229837   5.709   2.296   0.619 -3.1161  2.0619  1.0280
 2760TIP3   OH229838   4.307   5.764   7.932  0.3269  0.2890 -0.6024
 2760TIP3    H129839   4.328   5.719   7.850 -0.1445 -0.0676 -0.5270
 2760TIP3    H229840   4.390   5.766   7.979 -0.0813 -2.5716  0.4032
 2761TIP3   OH229841   2.014   4.282   7.833  0.3422 -0.5874 -0.1311
 2761TIP3    H129842   2.013   4.188   7.816  0.1602 -0.4392 -0.9956
 2761TIP3    H229843   2.071   4.318   7.765  0.7037 -0.1103  0.4170
 2762TIP3   OH229844   4.718   3.683   8.147 -0.2156  0.4310  0.4447
 2762TIP3    H129845   4.783   3.725   8.204  0.4609  0.0571 -0.0400
 2762TIP3    H229846   4.674   3.756   8.104  0.7250  0.6833 -0.1374
 2763TIP3   OH229847   0.503   4.567   0.721  0.3927 -0.1645 -0.2121
 2763TIP3    H129848   0.565   4.634   0.693  0.0585  0.1776 -0.1308
 2763TIP3    H229849   0.558   4.491   0.740  0.7208 -0.1080 -0.8748
 2764TIP3   OH229850   5.993   1.597   2.028  0.0412 -0.5927 -0.3036
 2764TIP3    H129851   5.996   1.600   2.124 -4.5711  1.4256  0.0197
 2764TIP3    H229852   5.906   1.563   2.008 -0.5682  2.3660 -3.6084
 2765TIP3   OH229853   3.172   4.955   1.432 -0.0547  0.0820 -0.4708
 2765TIP3    H129854   3.126   5.018   1.377 -0.6770  1.1088  1.1525
 2765TIP3    H229855   3.116   4.877   1.434 -0.8807  0.6739  0.0612
 2766TIP3   OH229856   6.621   4.473   2.205  0.5065 -0.0500  0.3865
 2766TIP3    H129857   6.665   4.389   2.220 -0.2267 -0.5267 -0.0880
 2766TIP3    H229858   6.651   4.529   2.277  1.8486 -0.3747  0.1127
 2767TIP3   OH229859   0.621   3.516   6.677  0.0118  0.0437  0.3135
 2767TIP3    H129860   0.605   3.581   6.745 -0.7638 -0.2387  0.4139
 2767TIP3    H229861   0.533   3.495   6.644  0.0914 -1.9895  1.2594
 2768TIP3   OH229862   5.993   1.019   7.279  0.2068 -0.0353  0.4896
 2768TIP3    H129863   5.920   1.011   7.341  0.0552 -2.5209  0.0744
 2768TIP3    H229864   5.976   0.952   7.213  2.4580 -0.1014 -0.0834
 2769TIP3   OH229865   2.669   0.618   6.818  0.0772  0.0524 -0.4172
 2769TIP3    H129866   2.588   0.568   6.830 -0.7088  1.1185 -1.1147
 2769TIP3    H229867   2.702   0.632   6.907 -1.4203  1.0412  0.0162
 2770TIP3   OH229868   4.482   1.293   2.701  0.5123 -0.0216  0.6075
 2770TIP3    H129869   4.452   1.224   2.642  0.3216 -0.7032  1.4858
 2770TIP3    H229870   4.402   1.333   2.735  0.6082  1.3298 -0.6570
 2771TIP3   OH229871   4.365   5.554   7.769  0.0878  0.5726  0.5041
 2771TIP3    H129872   4.349   5.502   7.848  0.3010  1.0777  0.8838
 2771TIP3    H229873   4.301   5.521   7.706  0.1486 -0.0731  0.7759
 2772TIP3   OH229874   4.844   4.571   1.722  1.0377 -0.3674  0.0358
 2772TIP3    H129875   4.901   4.579   1.798 -0.0358 -0.5326  0.8913
 2772TIP3    H229876   4.864   4.485   1.685  3.1579  0.5973 -1.2554
 2773TIP3   OH229877   1.818   6.462   0.538  0.3881 -0.0130 -0.0470
 2773TIP3    H129878   1.770   6.402   0.594  0.2528  0.7589  0.6843
 2773TIP3    H229879   1.908   6.456   0.568  0.8611 -1.7061 -1.6335
 2774TIP3   OH229880   4.122   3.877   7.945  0.0026  0.3117 -0.4870
 2774TIP3    H129881   4.146   3.893   8.036 -0.4394 -0.4015 -0.2405
 2774TIP3    H229882   4.055   3.809   7.949  0.2829 -0.0298 -1.3741
 2775TIP3   OH229883   0.211   6.304   8.101 -0.1434 -0.2061 -0.3218
 2775TIP3    H129884   0.263   6.279   8.025 -1.5534 -0.1275 -1.3406
 2775TIP3    H229885   0.121   6.305   8.070 -0.6874  0.5477  1.1685
 2776TIP3   OH229886   3.748   6.451   6.632  0.1394  0.4469 -0.2254
 2776TIP3    H129887   3.681   6.497   6.683 -0.5027 -0.8411  0.1496
 2776TIP3    H229888   3.722   6.464   6.541  0.1650  1.1142 -0.1384
 2777TIP3   OH229889   2.946   2.213   7.190 -0.1856  0.4825  0.5132
 2777TIP3    H129890   2.864   2.213   7.241 -0.0877 -0.4687  0.6858
 2777TIP3    H229891   3.013   2.188   7.253  0.3740  1.9505  0.5410
 2778TIP3   OH229892   5.655   0.367   6.752  1.0154 -0.1390 -0.3571
 2778TIP3    H129893   5.715   0.327   6.815  0.2623  1.6390  1.6260
 2778TIP3    H229894   5.577   0.388   6.804  0.8571  2.5824 -1.5265
 2779TIP3   OH229895   5.208   5.784   1.283 -0.0908  0.2079 -0.5427
 2779TIP3    H129896   5.254   5.709   1.247 -0.2360 -0.7536  1.1359
 2779TIP3    H229897   5.252   5.802   1.366 -1.3671  0.6146  0.0869
 2780TIP3   OH229898   5.012   6.963   0.181 -0.1391  0.2941  0.3372
 2780TIP3    H129899   5.004   6.972   0.086  1.0164  1.6923  0.3202
 2780TIP3    H229900   5.041   7.050   0.211  1.7429 -0.7025  1.6799
 2781TIP3   OH229901   5.329   5.548   0.096 -0.1586 -0.2371 -0.0728
 2781TIP3    H129902   5.375   5.595   0.166 -0.9447  1.7724 -0.8043
 2781TIP3    H229903   5.267   5.491   0.141  0.4119 -0.1335  0.8680
 2782TIP3   OH229904   0.628   2.448   6.806  0.6462  0.2995 -0.1122
 2782TIP3    H129905   0.638   2.415   6.717  1.7246  1.1139 -0.3044
 2782TIP3    H229906   0.604   2.540   6.796  1.9126  0.7146  0.4174
 2783TIP3   OH229907   2.530   0.845   2.815 -0.0685  0.1431  0.5324
 2783TIP3    H129908   2.504   0.931   2.847  0.0042  1.0204 -1.6030
 2783TIP3    H229909   2.624   0.839   2.833 -0.0457  0.5669  0.5516
 2784TIP3   OH229910   2.671   1.894   0.533 -0.0334 -0.6847 -0.0529
 2784TIP3    H129911   2.753   1.895   0.483  0.5868 -0.5005  0.9446
 2784TIP3    H229912   2.698   1.912   0.623 -1.1899 -0.5185  0.2684
 2785TIP3   OH229913   4.472   2.442   0.064 -0.1868  0.2189 -0.0035
 2785TIP3    H129914   4.389   2.406   0.094  0.4878  0.0039  1.6620
 2785TIP3    H229915   4.457   2.536   0.059 -1.3556 -0.0157 -2.4842
 2786TIP3   OH229916   5.698   0.507   2.573 -0.0604  0.0914  0.3862
 2786TIP3    H129917   5.677   0.420   2.606  3.0063 -0.6599  0.6846
 2786TIP3    H229918   5.758   0.544   2.638  0.5231  1.4897 -0.8710
 2787TIP3   OH229919   6.243   5.825   7.159  0.1332 -0.3275 -0.3818
 2787TIP3    H129920   6.228   5.733   7.138  0.2282 -0.5811  0.6180
 2787TIP3    H229921   6.253   5.827   7.254  1.1476  0.5660 -0.4869
 2788TIP3   OH229922   4.926   6.406   0.596  0.5316 -0.1787  0.6335
 2788TIP3    H129923   4.976   6.434   0.518  0.9401 -0.6111  0.7367
 2788TIP3    H229924   4.835   6.413   0.569  0.6756 -0.7129 -0.0270
 2789TIP3   OH229925   4.274   4.001   0.901 -0.2836  0.1127 -0.1131
 2789TIP3    H129926   4.264   4.081   0.851 -0.0800  1.3621  1.7320
 2789TIP3    H229927   4.315   3.939   0.841 -0.7136  1.2799 -1.6624
 2790TIP3   OH229928   0.469   2.712   6.778  0.5592 -0.4574 -0.0546
 2790TIP3    H129929   0.476   2.712   6.683 -2.3442 -0.4351 -0.3615
 2790TIP3    H229930   0.533   2.777   6.807  1.3552 -0.3072 -2.0032
 2791TIP3   OH229931   2.915   2.002   6.990 -0.2535 -0.3652  0.8479
 2791TIP3    H129932   2.845   2.037   6.934  0.4546 -0.1401  0.0872
 2791TIP3    H229933   2.913   2.057   7.068  0.7495  1.3353 -0.2617
 2792TIP3   OH229934   5.361   2.690   1.270  0.4342 -0.2442 -0.0498
 2792TIP3    H129935   5.322   2.772   1.239 -1.6272 -0.4412  1.7620
 2792TIP3    H229936   5.332   2.625   1.206  0.7723  0.1804 -0.6452
 2793TIP3   OH229937   1.734   0.043   7.830 -0.2541  0.5829 -0.2048
 2793TIP3    H129938   1.817   0.033   7.784 -0.4911 -1.3461 -0.2998
 2793TIP3    H229939   1.739   0.130   7.870  1.7593  0.5648 -0.3046
 2794TIP3   OH229940   2.203   0.739   7.133  0.2205 -0.0448 -0.3136
 2794TIP3    H129941   2.126   0.768   7.085 -0.6890 -0.8778  0.5892
 2794TIP3    H229942   2.206   0.644   7.120  0.6307 -0.1267  0.2977
 2795TIP3   OH229943   4.127   6.387   1.318 -0.0215 -0.1627  0.4457
 2795TIP3    H129944   4.212   6.429   1.301  0.0051 -0.1715  0.5532
 2795TIP3    H229945   4.150   6.299   1.350 -0.0908 -0.7567 -1.0702
 2796TIP3   OH229946   6.201   6.964   7.826 -0.3938  0.3269  0.1729
 2796TIP3    H129947   6.242   7.047   7.802 -3.3198  1.8039 -0.1046
 2796TIP3    H229948   6.167   6.978   7.914  0.4229 -1.1827  0.7804
 2797TIP3   OH229949   4.439   3.162   6.754 -0.0279 -0.0963 -0.0659
 2797TIP3    H129950   4.527   3.156   6.716 -0.9164 -0.4838 -2.1468
 2797TIP3    H229951   4.408   3.249   6.729 -1.3837 -1.0960 -2.0227
 2798TIP3   OH229952   6.894   2.656   1.170 -0.1819  0.2822 -0.2341
 2798TIP3    H129953   6.842   2.660   1.089 -1.2510  1.4630  0.4757
 2798TIP3    H229954   6.982   2.633   1.141 -1.3649 -3.5143 -1.3600
 2799TIP3   OH229955   4.954   6.839   0.444 -0.4363  0.4170 -0.0110
 2799TIP3    H129956   4.872   6.794   0.424  0.5273 -0.9470 -0.9801
 2799TIP3    H229957   4.965   6.902   0.373 -0.1469 -0.0926 -0.4194
 2800TIP3   OH229958   1.373   4.764   1.049 -0.5688 -0.1255 -0.2516
 2800TIP3    H129959   1.440   4.832   1.059 -1.9257  1.1000  0.9268
 2800TIP3    H229960   1.313   4.799   0.984 -1.5226  0.0574  0.6956
 2801TIP3   OH229961   2.347   0.980   2.192  0.5147  0.0348 -0.1726
 2801TIP3    H129962   2.437   0.957   2.168  0.4396  0.4254 -0.8381
 2801TIP3    H229963   2.336   1.070   2.161  0.1664  0.2958  0.6592
 2802TIP3   OH229964   1.307   3.150   0.952  0.2430  0.0255 -0.5229
 2802TIP3    H129965   1.391   3.105   0.953  1.3146  1.9282  0.3885
 2802TIP3    H229966   1.283   3.154   0.859  1.3075 -0.3003 -0.8249
 2803TIP3   OH229967   1.200   3.752   1.591 -0.3088 -0.2422 -0.2439
 2803TIP3    H129968   1.181   3.835   1.548 -2.3697 -0.5707 -0.0337
 2803TIP3    H229969   1.148   3.753   1.671  0.1876 -1.4426  0.1226
 2804TIP3   OH229970   4.614   3.361   0.882  0.0685  0.0650  0.7705
 2804TIP3    H129971   4.665   3.309   0.820 -0.8927  0.3576 -0.3114
 2804TIP3    H229972   4.612   3.309   0.962  2.3205  0.1978  0.9798
 2805TIP3   OH229973   2.889   1.052   6.828  0.1640 -0.2010  0.2335
 2805TIP3    H129974   2.797   1.034   6.808  0.0633 -0.1391  0.6342
 2805TIP3    H229975   2.938   0.999   6.766 -0.1450  0.4313 -0.5648
 2806TIP3   OH229976   4.388   6.468   1.670 -0.0398 -0.0770 -0.5129
 2806TIP3    H129977   4.426   6.461   1.758 -0.6121  1.8517 -0.0783
 2806TIP3    H229978   4.346   6.383   1.656 -1.0015 -0.0194  1.6099
 2807TIP3   OH229979   0.475   6.502   6.644 -0.3931 -1.2750  0.6076
 2807TIP3    H129980   0.517   6.587   6.626  2.2279 -2.6513 -0.2858
 2807TIP3    H229981   0.405   6.496   6.579  1.5114 -1.1518 -1.5804
 2808TIP3   OH229982   0.812   6.183   7.387  0.1782  0.3723 -0.5978
 2808TIP3    H129983   0.802   6.271   7.425 -1.2528 -0.1159  0.2260
 2808TIP3    H229984   0.742   6.178   7.321 -1.0063 -0.7881  0.6825
 2809TIP3   OH229985   3.226   3.294   0.679 -0.0522 -0.3080  0.3096
 2809TIP3    H129986   3.279   3.243   0.619  0.0513  1.4065 -1.1597
 2809TIP3    H229987   3.247   3.259   0.766  1.9838 -0.9782 -0.3894
 2810TIP3   OH229988   6.600   6.318   2.281 -0.3894 -0.1579  0.4238
 2810TIP3    H129989   6.681   6.348   2.321  0.6761 -2.2269 -0.0264
 2810TIP3    H229990   6.532   6.372   2.321  1.3022  2.8103 -0.3927
 2811TIP3   OH229991   1.474   3.598   1.166  0.5141 -0.1458  0.3244
 2811TIP3    H129992   1.549   3.650   1.136  0.4455  0.6967  1.5797
 2811TIP3    H229993   1.398   3.644   1.131  0.4811  0.2722  0.9418
 2812TIP3   OH229994   2.136   5.128   0.434  0.0665 -0.4939  0.2387
 2812TIP3    H129995   2.153   5.077   0.354 -1.9845  0.0664 -0.6419
 2812TIP3    H229996   2.047   5.162   0.421  0.8225  2.1932  1.3897
 2813TIP3   OH229997   4.503   1.404   2.431  0.6518 -0.1457  0.1735
 2813TIP3    H129998   4.441   1.457   2.481  0.6128 -0.9222  0.9758
 2813TIP3    H229999   4.458   1.386   2.349  0.8336  1.3922 -0.2985
 2814TIP3   OH230000   1.242   5.856   0.916  0.0619  0.1866  0.1874
 2814TIP3    H130001   1.196   5.827   0.995  1.4318 -0.5720  0.7440
 2814TIP3    H230002   1.270   5.775   0.873  0.7699  0.6196 -0.1959
 2815TIP3   OH230003   2.204   2.073   7.720  0.2701 -0.4609 -0.0509
 2815TIP3    H130004   2.274   2.109   7.773  0.0836 -0.4697  0.2008
 2815TIP3    H230005   2.201   1.980   7.742 -0.2294 -0.3430  0.4027
 2816TIP3   OH230006   1.677   0.496   7.940  0.4130 -0.0085 -0.0252
 2816TIP3    H130007   1.722   0.492   8.024  0.2345  0.1527  0.0777
 2816TIP3    H230008   1.584   0.496   7.963  0.3541  2.1336 -0.1200
 2817TIP3   OH230009   3.191   1.840   0.298 -0.0350  0.0078  0.5167
 2817TIP3    H130010   3.241   1.818   0.219 -1.0242 -1.2209  0.1971
 2817TIP3    H230011   3.165   1.755   0.335 -0.2564  0.5730  1.7422
 2818TIP3   OH230012   4.864   2.585   0.355 -0.6419  0.4429  0.0075
 2818TIP3    H130013   4.880   2.492   0.373  0.2627  0.3900 -1.0045
 2818TIP3    H230014   4.790   2.607   0.412 -1.5822 -1.1816 -0.5100
 2819TIP3   OH230015   6.215   4.130   7.459  0.5573 -0.4609  0.0475
 2819TIP3    H130016   6.207   4.168   7.547 -1.1200  1.8476 -0.9747
 2819TIP3    H230017   6.291   4.073   7.464  1.2349  0.5171  2.6830
 2820TIP3   OH230018   0.707   3.558   0.897 -0.2690 -0.2303  0.1510
 2820TIP3    H130019   0.746   3.605   0.971  0.1147  0.5041 -0.5014
 2820TIP3    H230020   0.729   3.466   0.914  4.4836  0.2921 -1.6305
 2821TIP3   OH230021   5.134   0.612   2.054 -0.1132 -0.5554  0.1032
 2821TIP3    H130022   5.118   0.548   2.123  0.3658 -1.7438 -0.8306
 2821TIP3    H230023   5.176   0.686   2.098 -0.0630 -1.1727  1.1165
 2822TIP3   OH230024   1.979   4.796   1.828  0.0060  0.5015 -0.0579
 2822TIP3    H130025   2.030   4.754   1.897  0.2004 -1.4294 -1.2973
 2822TIP3    H230026   2.035   4.789   1.750 -0.6078  1.7645 -0.6512
 2823TIP3   OH230027   5.357   1.490   0.648  0.2434 -0.0918  0.6087
 2823TIP3    H130028   5.351   1.455   0.737 -0.6368 -2.4404 -0.2984
 2823TIP3    H230029   5.386   1.416   0.595 -4.9551 -0.6853 -2.0047
 2824TIP3   OH230030   0.473   4.909   2.226  0.2580  0.2337 -0.0123
 2824TIP3    H130031   0.401   4.863   2.268  0.7890 -1.6114 -1.0320
 2824TIP3    H230032   0.509   4.964   2.296 -0.0921 -1.2785  1.4317
 2825TIP3   OH230033   5.603   2.624   7.032 -0.0797  0.4965  0.2327
 2825TIP3    H130034   5.654   2.702   7.015 -1.8574  1.8032  0.5871
 2825TIP3    H230035   5.582   2.589   6.945  0.6143  0.4821  0.0707
 2826TIP3   OH230036   3.420   0.782   1.888 -0.8130 -0.0219 -0.1358
 2826TIP3    H130037   3.515   0.770   1.880 -0.7897  1.1938 -2.7287
 2826TIP3    H230038   3.410   0.873   1.916 -1.2239 -0.2628  0.5161
 2827TIP3   OH230039   3.385   4.324   1.675  0.1338 -0.2514 -0.4266
 2827TIP3    H130040   3.429   4.398   1.634 -0.4078 -0.1301 -0.7982
 2827TIP3    H230041   3.404   4.333   1.768 -1.1357  1.1876 -0.2721
 2828TIP3   OH230042   4.258   3.050   7.505  0.6109  0.1577 -0.6055
 2828TIP3    H130043   4.313   3.006   7.570 -0.0147  0.8274  0.4028
 2828TIP3    H230044   4.219   2.979   7.454 -1.6223 -0.6229  1.9952
 2829TIP3   OH230045   6.475   6.426   1.719  0.6124  0.1954  0.7059
 2829TIP3    H130046   6.542   6.364   1.690  0.9357  0.8240  0.0814
 2829TIP3    H230047   6.396   6.372   1.731  0.4603 -0.1173 -1.3720
 2830TIP3   OH230048   2.903   1.971   8.055 -0.1660 -0.5328  0.2049
 2830TIP3    H130049   2.908   1.933   8.143 -3.0309  0.3528  0.8597
 2830TIP3    H230050   2.952   2.053   8.063  1.4281 -1.4582  0.3138
 2831TIP3   OH230051   4.086   1.184   2.256  0.5625 -0.1148 -0.0381
 2831TIP3    H130052   4.053   1.179   2.346  1.4840  1.3599  0.4104
 2831TIP3    H230053   4.010   1.207   2.204  0.2183  0.0251  0.5179
 2832TIP3   OH230054   5.794   1.383   2.316 -0.7128 -0.1143  0.6710
 2832TIP3    H130055   5.883   1.399   2.286 -0.1855  0.1809  2.2732
 2832TIP3    H230056   5.805   1.340   2.401 -2.1027 -0.7236  0.5760
 2833TIP3   OH230057   4.121   6.029   6.470  0.3309 -0.3408 -0.6884
 2833TIP3    H130058   4.127   5.934   6.480  2.4825 -0.4157 -2.1421
 2833TIP3    H230059   4.207   6.062   6.494 -0.5162  1.3291  0.2411
 2834TIP3   OH230060   3.380   1.362   7.069 -0.0763  0.0734  0.1940
 2834TIP3    H130061   3.463   1.343   7.027 -0.3412 -1.8303  0.4413
 2834TIP3    H230062   3.375   1.299   7.142 -1.1094  1.0751  1.0303
 2835TIP3   OH230063   0.019   4.073   0.676 -0.6100 -0.2739 -0.3277
 2835TIP3    H130064   0.027   4.120   0.759 -1.8403 -0.7460  0.0865
 2835TIP3    H230065   0.100   4.093   0.629  0.2765 -0.2789  1.1234
 2836TIP3   OH230066   6.813   6.714   8.003 -0.2787 -0.3743  0.3173
 2836TIP3    H130067   6.814   6.792   7.948  1.2303 -0.2832  0.4235
 2836TIP3    H230068   6.764   6.740   8.081 -1.9477 -0.3333 -0.7095
 2837TIP3   OH230069   0.403   4.365   7.173  0.1407 -0.3090  0.0401
 2837TIP3    H130070   0.337   4.382   7.241 -0.1711 -1.0942 -0.0552
 2837TIP3    H230071   0.363   4.398   7.092  0.3379  0.2450  0.1674
 2838TIP3   OH230072   1.463   0.564   1.286  0.3754  0.1176 -0.3043
 2838TIP3    H130073   1.390   0.625   1.295  3.0172  3.5872 -0.5497
 2838TIP3    H230074   1.437   0.506   1.214 -2.0094  1.3236 -0.5206
 2839TIP3   OH230075   6.240   3.604   1.483 -0.2083  0.1394 -0.0096
 2839TIP3    H130076   6.247   3.555   1.400  1.0181  2.9980 -1.7439
 2839TIP3    H230077   6.202   3.688   1.458 -2.6038  0.1197  2.9083
 2840TIP3   OH230078   5.921   3.036   8.254  0.2048 -0.0216  0.7458
 2840TIP3    H130079   5.833   3.012   8.283  0.2360  1.1790  1.9853
 2840TIP3    H230080   5.907   3.107   8.192  0.2651 -0.5032  0.1780
 2841TIP3   OH230081   2.920   4.351   1.269 -0.0190 -0.3282  0.1536
 2841TIP3    H130082   2.875   4.425   1.229 -1.4868 -0.7394  0.9482
 2841TIP3    H230083   2.987   4.390   1.324 -1.5030  0.5233  1.4465
 2842TIP3   OH230084   5.361   4.855   8.083  0.7537  0.3626 -0.5006
 2842TIP3    H130085   5.308   4.830   8.007  0.9683  2.1185 -1.2820
 2842TIP3    H230086   5.442   4.888   8.045  0.8244  1.3629  0.4748
 2843TIP3   OH230087   4.588   6.605   0.673  0.4529  0.1991 -0.1344
 2843TIP3    H130088   4.576   6.699   0.657 -1.6201 -0.0329 -0.2434
 2843TIP3    H230089   4.630   6.600   0.758 -0.4703  1.2415  0.4095
 2844TIP3   OH230090   5.228   2.982   2.377 -0.7257  0.2607  0.3360
 2844TIP3    H130091   5.204   2.962   2.286 -2.6657 -1.7097  1.2087
 2844TIP3    H230092   5.165   3.048   2.405 -0.0650  0.9418  0.2579
 2845TIP3   OH230093   1.583   2.061   7.972  0.2268  0.6076  0.4326
 2845TIP3    H130094   1.603   1.976   7.932 -0.8300  0.3196  0.4742
 2845TIP3    H230095   1.661   2.082   8.023 -0.4762 -1.6955  2.7069
 2846TIP3   OH230096   1.372   1.469   8.187  0.5600  0.5474  0.1672
 2846TIP3    H130097   1.370   1.556   8.227  0.6303  1.0888 -0.9634
 2846TIP3    H230098   1.355   1.409   8.260  2.0785  1.3825  1.2796
 2847TIP3   OH230099   3.159   1.778   6.215  0.1481 -0.5894 -0.3130
 2847TIP3    H130100   3.119   1.698   6.250  3.0348 -1.8744  0.3825
 2847TIP3    H230101   3.143   1.773   6.121 -1.8463 -0.6398 -0.0256
 2848TIP3   OH230102   3.936   3.223   8.157  0.4299  0.3460 -0.0028
 2848TIP3    H130103   3.907   3.157   8.219  2.7568 -1.7040 -0.9220
 2848TIP3    H230104   3.922   3.182   8.071  2.4980  0.7422 -0.5695
 2849TIP3   OH230105   0.296   7.007   7.968 -0.4630  0.2529  0.3650
 2849TIP3    H130106   0.346   6.926   7.961 -0.3991  0.2924  0.3683
 2849TIP3    H230107   0.211   6.980   8.004 -0.1994  0.2800  1.0273
 2850TIP3   OH230108   1.846   6.345   1.512 -0.6541  0.3183 -0.0201
 2850TIP3    H130109   1.929   6.384   1.483 -1.6652  0.1057 -3.6667
 2850TIP3    H230110   1.865   6.252   1.523 -0.6459 -0.0108 -2.3679
 2851TIP3   OH230111   1.227   4.987   0.333 -0.3141 -0.2995 -0.1871
 2851TIP3    H130112   1.135   4.971   0.354  0.0600 -1.6970  0.5062
 2851TIP3    H230113   1.274   4.916   0.377  1.1183  0.5196 -0.3595
 2852TIP3   OH230114   1.171   4.774   0.866  0.2360 -0.3081  0.2092
 2852TIP3    H130115   1.143   4.856   0.825 -0.6028 -1.1140 -0.9215
 2852TIP3    H230116   1.117   4.766   0.945  0.6547  0.4426  0.5749
 2853TIP3   OH230117   3.691   4.680   0.532 -0.2206 -0.2364  0.0191
 2853TIP3    H130118   3.634   4.751   0.562 -0.4288  0.1094 -1.1475
 2853TIP3    H230119   3.664   4.604   0.584 -1.9403 -0.1439 -0.6589
 2854TIP3   OH230120   0.228   5.465   6.861 -0.7092  0.1375  0.6922
 2854TIP3    H130121   0.227   5.375   6.829  0.8526  0.6282 -0.8988
 2854TIP3    H230122   0.307   5.470   6.915  0.4537  1.0678 -1.0100
 2855TIP3   OH230123   1.582   6.705   6.898  0.0564  0.0131 -0.3280
 2855TIP3    H130124   1.635   6.714   6.819  0.9645  0.4131  0.2973
 2855TIP3    H230125   1.505   6.760   6.882  0.0880 -0.1418 -1.0449
 2856TIP3   OH230126   4.521   1.569   0.811 -0.3926  0.5866  0.3025
 2856TIP3    H130127   4.584   1.628   0.854 -0.9208  1.0701  0.4302
 2856TIP3    H230128   4.534   1.585   0.717  2.2104 -1.9634  0.1004
 2857TIP3   OH230129   4.308   0.243   1.737  0.0625  0.1263  0.3915
 2857TIP3    H130130   4.283   0.323   1.691  0.0406 -0.1312 -0.0451
 2857TIP3    H230131   4.308   0.268   1.830 -1.1038  0.3106  0.3521
 2858TIP3   OH230132   5.038   0.865   7.410 -0.5501  0.0758 -0.2443
 2858TIP3    H130133   5.112   0.920   7.433 -0.8616  0.8263 -0.9988
 2858TIP3    H230134   4.982   0.921   7.357 -1.0066 -0.8772 -0.7953
 2859TIP3   OH230135   5.675   1.608   1.330 -0.2213 -0.2833 -0.2046
 2859TIP3    H130136   5.580   1.608   1.339 -0.3659  0.1461 -1.5117
 2859TIP3    H230137   5.701   1.697   1.354 -0.1632 -0.3682  0.0459
 2860TIP3   OH230138   6.986   2.847   6.434  0.5617 -0.3391 -0.1764
 2860TIP3    H130139   6.960   2.779   6.372  0.9184  1.3268 -2.2769
 2860TIP3    H230140   6.917   2.913   6.429  0.9721  0.1827  0.6660
 2861TIP3   OH230141   3.544   4.165   7.379 -0.3815  0.1071 -0.3295
 2861TIP3    H130142   3.516   4.093   7.435  0.5317 -1.3635 -1.6701
 2861TIP3    H230143   3.515   4.140   7.292  1.2373  0.6223 -1.0573
 2862TIP3   OH230144   0.947   3.919   1.467  0.0975 -0.4236  0.0320
 2862TIP3    H130145   1.036   3.921   1.434  0.2932  1.1482  0.5561
 2862TIP3    H230146   0.929   3.826   1.483  1.6775 -0.7556  0.0442
 2863TIP3   OH230147   0.259   0.836   6.654 -0.4012  0.7611 -0.8499
 2863TIP3    H130148   0.280   0.761   6.598 -0.6662  0.6284 -0.7722
 2863TIP3    H230149   0.234   0.905   6.592  0.8522  1.1238 -0.9853
 2864TIP3   OH230150   3.339   6.842   8.241 -0.0604 -0.2166  0.5400
 2864TIP3    H130151   3.296   6.912   8.290  1.2299  1.1962 -0.2786
 2864TIP3    H230152   3.353   6.878   8.154 -0.9986 -2.1664 -0.5058
 2865TIP3   OH230153   3.683   6.768   2.567 -0.3765  0.1419  0.3290
 2865TIP3    H130154   3.612   6.817   2.527 -0.6819 -0.1113  0.5557
 2865TIP3    H230155   3.640   6.708   2.628  0.0124 -0.1748  0.2981
 2866TIP3   OH230156   3.558   3.208   7.118 -0.5231 -0.5582 -0.1382
 2866TIP3    H130157   3.624   3.278   7.110 -0.5741 -0.4300  0.4852
 2866TIP3    H230158   3.586   3.158   7.194  0.0770 -1.8427 -1.1679
 2867TIP3   OH230159   4.203   5.740   8.191  0.0629 -0.1236  0.1781
 2867TIP3    H130160   4.272   5.762   8.129  0.6095 -0.5618  0.6256
 2867TIP3    H230161   4.193   5.818   8.245  0.1551 -0.0390  0.0733
 2868TIP3   OH230162   1.000   6.669   6.669  0.2249 -0.7270 -1.1569
 2868TIP3    H130163   0.991   6.764   6.675  0.4309 -0.6949 -1.3502
 2868TIP3    H230164   0.916   6.639   6.634 -0.0576 -0.6760 -0.5436
 2869TIP3   OH230165   5.406   5.801   6.199  0.4203  0.0904  0.2395
 2869TIP3    H130166   5.318   5.764   6.210  0.9612 -1.3455 -0.1680
 2869TIP3    H230167   5.403   5.844   6.114  0.2336 -0.3107  0.0415
 2870TIP3   OH230168   0.049   2.883   7.858 -0.3607  0.0894  0.3452
 2870TIP3    H130169   0.100   2.872   7.777  1.0458 -1.5206  1.3848
 2870TIP3    H230170   0.001   2.800   7.868  0.1393 -0.0716  1.5809
 2871TIP3   OH230171   6.728   6.060   1.384 -0.2422  0.1119  0.1676
 2871TIP3    H130172   6.769   6.146   1.395 -2.1682  1.2384 -1.0172
 2871TIP3    H230173   6.796   5.998   1.410  1.3083  1.9692  0.7562
 2872TIP3   OH230174   4.463   1.987   1.870 -0.4244 -0.6622  0.0996
 2872TIP3    H130175   4.455   2.082   1.874  2.3096 -0.3934  1.4821
 2872TIP3    H230176   4.404   1.955   1.938  0.4006  0.2419  1.2747
 2873TIP3   OH230177   6.742   0.572   1.780  0.0768  0.5127  0.2398
 2873TIP3    H130178   6.674   0.540   1.841  0.9863  0.4534  1.2584
 2873TIP3    H230179   6.695   0.630   1.721 -1.1973 -0.8495 -0.1744
 2874TIP3   OH230180   1.870   1.967   1.278 -0.0538 -0.1834  0.3883
 2874TIP3    H130181   1.964   1.970   1.293  0.0424  0.3128 -0.2734
 2874TIP3    H230182   1.857   1.892   1.219 -0.1490 -0.6137  0.9441
 2875TIP3   OH230183   1.677   6.726   7.141  0.2551 -0.1542 -0.3924
 2875TIP3    H130184   1.641   6.647   7.181 -0.2223 -0.0212 -0.5591
 2875TIP3    H230185   1.629   6.736   7.060  1.3655 -0.5412 -1.1283
 2876TIP3   OH230186   3.329   5.486   1.464 -0.1964  0.0883  0.4154
 2876TIP3    H130187   3.392   5.422   1.497 -1.6697 -2.4661 -1.4436
 2876TIP3    H230188   3.381   5.543   1.407  0.7190 -1.0190  0.1032
 2877TIP3   OH230189   0.363   2.252   1.495  0.2693  0.7706 -0.2614
 2877TIP3    H130190   0.386   2.335   1.453 -1.1591  0.6801 -1.2716
 2877TIP3    H230191   0.334   2.278   1.583 -0.2086  1.3510 -0.5846
 2878TIP3   OH230192   4.399   1.355   6.523  0.0773 -0.1239  0.4157
 2878TIP3    H130193   4.490   1.375   6.546  0.1133 -0.9716  1.0561
 2878TIP3    H230194   4.407   1.296   6.448  0.0696 -0.4265  0.6503
 2879TIP3   OH230195   3.399   0.176   1.209 -0.0155  0.1104 -0.2423
 2879TIP3    H130196   3.419   0.262   1.247 -2.7195  0.9265 -0.4026
 2879TIP3    H230197   3.340   0.135   1.272 -1.1697 -0.3084 -1.5311
 2880TIP3   OH230198   5.251   0.999   2.391 -0.3865  0.0857  0.0213
 2880TIP3    H130199   5.246   1.063   2.462 -0.1665 -1.6446  1.6774
 2880TIP3    H230200   5.159   0.979   2.371 -0.4516  0.7047 -0.3214
 2881TIP3   OH230201   6.023   1.938   0.804 -0.1571 -0.0652  0.0180
 2881TIP3    H130202   6.105   1.968   0.842 -0.2894  0.1830  0.1099
 2881TIP3    H230203   6.039   1.846   0.782  0.3696  0.1713 -0.6055
 2882TIP3   OH230204   2.260   4.125   0.722  0.3754 -0.5300 -0.0549
 2882TIP3    H130205   2.301   4.210   0.738 -0.0522  0.5750 -3.8400
 2882TIP3    H230206   2.203   4.140   0.646  1.9699 -4.6317 -2.4069
 2883TIP3   OH230207   2.383   4.544   2.631 -0.2623 -0.0047 -0.4971
 2883TIP3    H130208   2.399   4.603   2.705 -1.4319  0.0909 -0.2898
 2883TIP3    H230209   2.418   4.460   2.660  1.4196  0.5572 -0.7963
 2884TIP3   OH230210   3.181   6.210   7.994  1.0023 -0.4369 -0.3927
 2884TIP3    H130211   3.201   6.148   7.924  2.9487 -0.7915  0.4074
 2884TIP3    H230212   3.179   6.157   8.074  0.3074  0.1843  0.0190
 2885TIP3   OH230213   6.116   3.079   6.245  0.0241  0.2719  0.5590
 2885TIP3    H130214   6.039   3.128   6.216 -1.3130 -1.7281  0.5088
 2885TIP3    H230215   6.177   3.084   6.171 -0.8920  0.2036 -0.2122
 2886TIP3   OH230216   4.988   2.429   2.376  0.9107  0.1136 -0.0634
 2886TIP3    H130217   4.994   2.481   2.295 -0.3910 -1.6177 -1.3439
 2886TIP3    H230218   4.895   2.419   2.391  1.1250 -1.7578  0.1860
 2887TIP3   OH230219   3.025   0.367   7.541 -0.0092 -0.0963 -0.6294
 2887TIP3    H130220   3.063   0.398   7.458 -0.8061  0.3231 -0.8399
 2887TIP3    H230221   2.932   0.384   7.533 -0.1655 -0.5368  0.1527
 2888TIP3   OH230222   3.951   0.008   2.135 -0.0089  0.1527  0.1019
 2888TIP3    H130223   3.863  -0.027   2.127 -0.2441  0.3775  1.4689
 2888TIP3    H230224   3.963   0.062   2.058 -0.1548 -1.7860 -1.3634
 2889TIP3   OH230225   3.239   3.190   2.090 -0.5111  0.3521 -0.3223
 2889TIP3    H130226   3.216   3.152   2.174 -0.7486 -0.4058 -0.7288
 2889TIP3    H230227   3.293   3.266   2.113 -0.8654  0.3624  0.5197
 2890TIP3   OH230228   5.683   3.490   8.156 -0.1150 -0.3323 -0.2029
 2890TIP3    H130229   5.732   3.442   8.089  0.7646 -3.4972  2.4638
 2890TIP3    H230230   5.622   3.426   8.192 -2.0235  1.8418  0.7264
 2891TIP3   OH230231   2.624   3.093   6.550 -0.3589 -0.3288 -0.6350
 2891TIP3    H130232   2.540   3.113   6.509 -0.7965 -1.8694 -0.5330
 2891TIP3    H230233   2.680   3.167   6.526 -1.5382  0.3803 -1.2878
 2892TIP3   OH230234   3.500   3.956   1.348  0.0678 -0.1955 -0.1011
 2892TIP3    H130235   3.449   3.983   1.271  1.5481 -1.0322 -1.4357
 2892TIP3    H230236   3.556   4.031   1.367 -0.5995  0.1757  0.4670
 2893TIP3   OH230237   5.016   0.191   7.700 -0.2394  0.0323 -0.4113
 2893TIP3    H130238   5.011   0.146   7.616  1.3473  0.8679 -0.9975
 2893TIP3    H230239   4.926   0.194   7.731 -0.7691 -0.8773 -1.7653
 2894TIP3   OH230240   4.356   3.977   2.181  0.3120  0.2441  0.2398
 2894TIP3    H130241   4.437   4.028   2.193 -0.0511  0.7002  0.8290
 2894TIP3    H230242   4.291   4.042   2.153 -0.0194  0.0048  0.4485
 2895TIP3   OH230243   0.227   0.574   8.279  0.2467  0.0005 -0.2397
 2895TIP3    H130244   0.157   0.634   8.307  1.5608  0.6566  1.8774
 2895TIP3    H230245   0.294   0.631   8.242 -0.1732 -0.6086 -2.0289
 2896TIP3   OH230246   5.130   2.561   0.721 -0.6127 -0.1333  0.7571
 2896TIP3    H130247   5.163   2.627   0.659 -0.8170 -1.9395 -1.4065
 2896TIP3    H230248   5.061   2.607   0.769  0.1505  1.6109  0.2902
 2897TIP3   OH230249   5.299   0.194   7.840 -0.6718  0.2636 -0.5390
 2897TIP3    H130250   5.258   0.123   7.888  2.7316 -1.7974 -0.3067
 2897TIP3    H230251   5.307   0.161   7.750 -0.8352  1.2103 -0.9178
 2898TIP3   OH230252   6.328   6.754   7.683  0.7235  0.1844  0.0210
 2898TIP3    H130253   6.409   6.784   7.642 -0.2556  1.8788 -0.7998
 2898TIP3    H230254   6.305   6.824   7.744  0.9129 -1.2306  1.8034
 2899TIP3   OH230255   3.878   5.421   8.256  0.3373 -0.0704 -0.5184
 2899TIP3    H130256   3.968   5.411   8.227  0.2953 -1.2047 -0.2841
 2899TIP3    H230257   3.874   5.375   8.340 -0.7734 -1.2206 -1.1600
 2900TIP3   OH230258   2.094   4.085   6.834  0.8585 -0.0510 -0.2039
 2900TIP3    H130259   2.151   4.158   6.859  2.1637 -1.3432  0.7272
 2900TIP3    H230260   2.013   4.128   6.804  2.2833  1.8439 -1.6157
 2901TIP3   OH230261   5.309   3.637   7.484 -0.2931 -0.4721  0.2858
 2901TIP3    H130262   5.327   3.714   7.431 -0.3106 -0.3532  0.4504
 2901TIP3    H230263   5.373   3.572   7.455 -0.2002 -0.3558  0.2280
 2902TIP3   OH230264   4.787   4.746   7.309  0.4022  0.9210  0.1214
 2902TIP3    H130265   4.715   4.688   7.336  1.3916  0.3411  1.6603
 2902TIP3    H230266   4.750   4.834   7.311 -0.9252  0.4538 -1.5448
 2903TIP3   OH230267   0.706   0.622   6.783  0.1132  0.8949  0.0685
 2903TIP3    H130268   0.718   0.586   6.695 -0.6395  0.8066 -0.0100
 2903TIP3    H230269   0.752   0.561   6.841 -0.1568  0.4508 -0.1811
 2904TIP3   OH230270   4.519   4.960   0.394  0.2841  0.0112 -0.1065
 2904TIP3    H130271   4.508   4.866   0.404 -0.1170  0.1735  1.2014
 2904TIP3    H230272   4.484   4.979   0.306 -0.8688 -0.8767  0.1330
 2905TIP3   OH230273   2.089   4.714   2.080 -0.4472  0.7379 -0.2794
 2905TIP3    H130274   2.035   4.755   2.148 -0.3802  1.8349 -0.8682
 2905TIP3    H230275   2.174   4.758   2.088  0.2408 -0.6193  0.3092
 2906TIP3   OH230276   2.646   3.214   0.659  0.2567  0.1183 -0.0661
 2906TIP3    H130277   2.707   3.288   0.658 -0.6963  0.9229 -0.3992
 2906TIP3    H230278   2.579   3.237   0.595  0.2149 -1.2837 -0.5699
 2907TIP3   OH230279   5.002   6.549   1.095  0.2827  0.4038  0.7237
 2907TIP3    H130280   5.006   6.539   1.000 -1.5008  1.1994  0.5102
 2907TIP3    H230281   5.065   6.619   1.115 -1.2233  2.1340 -0.2750
 2908TIP3   OH230282   2.059   2.827   1.842  0.1607 -0.1616 -0.2372
 2908TIP3    H130283   2.036   2.821   1.935 -0.0731 -0.0358 -0.2837
 2908TIP3    H230284   2.014   2.906   1.812  1.6746  0.8110 -0.0461
 2909TIP3   OH230285   1.855   1.759   7.540  0.0480  0.3362 -0.0480
 2909TIP3    H130286   1.871   1.670   7.510  1.4474  0.5374  0.0097
 2909TIP3    H230287   1.779   1.788   7.489  0.7899 -0.2155 -1.5584
 2910TIP3   OH230288   2.373   1.934   0.395  0.7822  0.0186 -0.3178
 2910TIP3    H130289   2.289   1.893   0.412  0.2888  0.2618 -1.9803
 2910TIP3    H230290   2.367   2.020   0.437 -0.1291  0.3423 -1.0672
 2911TIP3   OH230291   0.303   5.793   1.280  0.1915  0.3427  0.0419
 2911TIP3    H130292   0.261   5.722   1.230  2.3390 -0.8485 -0.2169
 2911TIP3    H230293   0.294   5.870   1.224  1.0526 -0.5987 -1.4720
 2912TIP3   OH230294   2.859   3.896   1.130  0.1955  0.2531  0.0922
 2912TIP3    H130295   2.814   3.831   1.184 -0.3749  0.0104 -0.6627
 2912TIP3    H230296   2.853   3.978   1.179  0.9574 -0.2580  1.0750
 2913TIP3   OH230297   1.190   2.237   0.364  0.0989  0.7589  0.5469
 2913TIP3    H130298   1.186   2.332   0.355 -0.0799  0.6800 -0.2574
 2913TIP3    H230299   1.283   2.217   0.365  0.1469  0.9742  1.1818
 2914TIP3   OH230300   4.771   5.061   0.404 -0.5798 -0.0137  0.3793
 2914TIP3    H130301   4.804   5.014   0.327  0.3415  0.5641  0.3990
 2914TIP3    H230302   4.681   5.031   0.413 -0.4437 -0.7353 -0.4192
 2915TIP3   OH230303   0.141   0.152   2.368  0.0229  0.1530 -0.7222
 2915TIP3    H130304   0.126   0.242   2.396 -0.1642  0.1434 -0.7895
 2915TIP3    H230305   0.235   0.147   2.353  0.3984 -0.2723  1.4195
 2916TIP3   OH230306   2.331   3.093   7.183 -1.1426 -0.0914 -0.4401
 2916TIP3    H130307   2.350   3.186   7.198  0.0838 -0.2553 -0.8662
 2916TIP3    H230308   2.305   3.088   7.091  0.4775 -0.3810 -0.9192
 2917TIP3   OH230309   0.624   6.082   6.485 -0.0029 -0.3902 -0.0745
 2917TIP3    H130310   0.557   6.103   6.550 -0.2371  1.8562 -0.9729
 2917TIP3    H230311   0.575   6.044   6.412 -0.1881  0.3486 -0.3390
 2918TIP3   OH230312   4.276   5.523   0.028 -0.0766  0.3426 -0.2063
 2918TIP3    H130313   4.278   5.554   0.119 -0.9674 -0.5871  0.1446
 2918TIP3    H230314   4.249   5.600  -0.022  1.3889  1.1422  0.1739
 2919TIP3   OH230315   0.419   4.324   2.162  0.2413  0.4361 -0.3708
 2919TIP3    H130316   0.430   4.338   2.068 -3.1564  0.2677 -0.9204
 2919TIP3    H230317   0.434   4.410   2.201  0.8154  0.7081 -1.1711
 2920TIP3   OH230318   4.002   1.886   0.525 -0.2737  0.7210 -0.1850
 2920TIP3    H130319   4.005   1.848   0.437  1.3077  1.5689 -0.5420
 2920TIP3    H230320   4.018   1.812   0.584 -1.8184  0.0630 -0.5650
 2921TIP3   OH230321   3.828   4.473   0.850 -0.2051 -0.1243  0.4289
 2921TIP3    H130322   3.859   4.527   0.923  0.8547  0.1036 -0.1548
 2921TIP3    H230323   3.757   4.524   0.810  0.8130  0.9016 -0.1389
 2922TIP3   OH230324   2.371   5.054   7.553 -0.5847 -0.2050 -0.2254
 2922TIP3    H130325   2.463   5.077   7.545 -0.4682  0.0793  1.5230
 2922TIP3    H230326   2.324   5.134   7.526 -0.2734  0.2866  0.6502
 2923TIP3   OH230327   1.440   0.129   0.222 -0.4194  0.5708 -0.0879
 2923TIP3    H130328   1.520   0.144   0.272 -0.3917  1.3869 -0.3697
 2923TIP3    H230329   1.402   0.216   0.211 -1.8960  0.0975  0.9577
 2924TIP3   OH230330   2.818   4.368   0.423 -0.1896 -0.0839  0.1032
 2924TIP3    H130331   2.826   4.423   0.501  0.1104 -0.4337  0.3267
 2924TIP3    H230332   2.905   4.372   0.383  0.3264 -1.6587  0.9900
 2925TIP3   OH230333   3.644   1.919   1.697  0.2930  0.3135 -0.1005
 2925TIP3    H130334   3.654   1.824   1.700  0.2544  0.2649 -1.1578
 2925TIP3    H230335   3.555   1.933   1.666  0.4171  0.6935 -0.2908
 2926TIP3   OH230336   3.600   6.311   7.137  0.0684 -1.3669  0.3146
 2926TIP3    H130337   3.526   6.264   7.175 -0.0747 -1.1561  0.2955
 2926TIP3    H230338   3.675   6.284   7.190 -0.0667 -1.3742  0.5028
 2927TIP3   OH230339   5.533   3.858   1.703  0.1633 -0.3935  0.2951
 2927TIP3    H130340   5.621   3.824   1.685  0.6277  0.9592 -0.0881
 2927TIP3    H230341   5.479   3.779   1.709  1.1058 -1.2005 -1.0454
 2928TIP3   OH230342   2.157   1.846   0.223 -0.0580 -0.6401 -0.3562
 2928TIP3    H130343   2.192   1.767   0.180 -1.2010 -1.7783  0.7157
 2928TIP3    H230344   2.063   1.831   0.228 -0.4232  1.2368 -0.9207
 2929TIP3   OH230345   4.566   3.125   1.765 -0.0666 -0.1536  0.2585
 2929TIP3    H130346   4.501   3.194   1.779  1.4612  1.7174 -1.2958
 2929TIP3    H230347   4.612   3.119   1.849 -1.3243 -0.5538  0.9461
 2930TIP3   OH230348   1.359   2.174   6.080 -1.1274  0.1366 -0.5122
 2930TIP3    H130349   1.348   2.093   6.129  0.0187 -0.1451 -0.6853
 2930TIP3    H230350   1.369   2.145   5.989 -1.1314  0.4972 -0.6285
 2931TIP3   OH230351   5.265   5.436   2.074  0.5637 -0.1291 -0.6972
 2931TIP3    H130352   5.179   5.400   2.097 -0.8575  2.9991 -0.6758
 2931TIP3    H230353   5.304   5.462   2.157  0.3108  0.9259 -0.8899
 2932TIP3   OH230354   4.822   5.837   0.689  0.7074 -0.8575  0.3685
 2932TIP3    H130355   4.859   5.814   0.604  1.0094 -2.9055  0.9865
 2932TIP3    H230356   4.779   5.757   0.719  0.7516 -0.2451  2.2063
 2933TIP3   OH230357   6.348   3.259   0.349  0.4476  0.0313  0.0819
 2933TIP3    H130358   6.295   3.269   0.270 -1.1616 -2.8867  0.6823
 2933TIP3    H230359   6.293   3.291   0.420  1.1147  0.7666  0.2881
 2934TIP3   OH230360   3.745   0.607   7.022 -0.6471  0.4311 -0.3173
 2934TIP3    H130361   3.680   0.623   6.952 -1.5883  0.8007  0.6125
 2934TIP3    H230362   3.718   0.523   7.060  0.2149 -0.0592 -0.7638
 2935TIP3   OH230363   0.886   4.430   0.163 -0.0474  0.2947 -0.0881
 2935TIP3    H130364   0.819   4.418   0.230  0.7291 -0.0269  0.6554
 2935TIP3    H230365   0.936   4.507   0.193  0.7633 -0.2934  0.1114
 2936TIP3   OH230366   5.654   4.858   2.295  0.2987 -0.3939 -0.1306
 2936TIP3    H130367   5.648   4.773   2.339 -1.7164 -0.2569 -0.0312
 2936TIP3    H230368   5.668   4.837   2.203  1.3804 -0.7709  0.1082
 2937TIP3   OH230369   6.245   1.696   0.700  0.1999 -0.0967  0.0408
 2937TIP3    H130370   6.307   1.656   0.639  1.0045  1.6550 -0.3472
 2937TIP3    H230371   6.285   1.779   0.724 -1.0648  0.1634  1.3851
 2938TIP3   OH230372   4.236   0.426   8.015  0.3300  0.1190  0.1363
 2938TIP3    H130373   4.307   0.365   7.999 -0.2855 -0.0577 -2.5530
 2938TIP3    H230374   4.163   0.371   8.044  0.3548 -0.1784 -0.3459
 2939TIP3   OH230375   0.309   3.158   0.252 -0.0144 -0.0811 -0.0148
 2939TIP3    H130376   0.329   3.081   0.198  1.5546 -0.3638  0.8820
 2939TIP3    H230377   0.269   3.220   0.192  3.8091  0.5720 -2.2005
 2940TIP3   OH230378   3.159   2.098   7.334  0.5013  0.0358 -0.3395
 2940TIP3    H130379   3.146   2.012   7.294  0.7250 -0.4510  0.6020
 2940TIP3    H230380   3.224   2.141   7.277 -2.0896  0.9778 -2.8255
 2941TIP3   OH230381   0.092   1.073   7.434  0.8500 -0.1485 -0.2429
 2941TIP3    H130382   0.091   0.980   7.415 -2.3112 -0.2644  0.0055
 2941TIP3    H230383   0.064   1.079   7.526  2.5315  1.0270  0.2523
 2942TIP3   OH230384   5.236   2.859   0.731  0.1330  0.0719  0.4484
 2942TIP3    H130385   5.298   2.932   0.730 -0.2818  0.4446  1.3187
 2942TIP3    H230386   5.158   2.894   0.687  0.6829 -0.5590 -1.1183
 2943TIP3   OH230387   3.511   5.350   0.788  0.0135  0.0644 -0.5131
 2943TIP3    H130388   3.597   5.314   0.766  0.7160  0.6793  1.0380
 2943TIP3    H230389   3.456   5.330   0.713  1.6843  0.2376 -1.8387
 2944TIP3   OH230390   0.324   0.513   1.879 -0.5813  0.0118 -0.2539
 2944TIP3    H130391   0.312   0.548   1.968 -0.8937 -0.9627  0.0994
 2944TIP3    H230392   0.279   0.576   1.823 -2.5246 -0.6061  0.5245
 2945TIP3   OH230393   5.015   1.888   2.390 -0.2528 -0.2934  0.0537
 2945TIP3    H130394   4.948   1.823   2.412 -0.4174  0.2048  1.1227
 2945TIP3    H230395   5.096   1.837   2.380 -0.5396 -0.7555  0.0771
 2946TIP3   OH230396   5.794   0.975   8.205  0.2379  0.2611 -0.3887
 2946TIP3    H130397   5.829   1.058   8.237  2.3310  0.0823 -2.0386
 2946TIP3    H230398   5.843   0.908   8.254  0.9808  0.0077 -1.4589
 2947TIP3   OH230399   5.156   1.832   6.748  0.0038  0.0486 -0.1400
 2947TIP3    H130400   5.139   1.926   6.737 -1.1542 -0.1198  0.0273
 2947TIP3    H230401   5.102   1.807   6.823  0.6499 -0.6724  0.0965
 2948TIP3   OH230402   2.453   0.548   1.704 -0.2198  0.5128 -0.7128
 2948TIP3    H130403   2.442   0.491   1.781  1.6259 -1.4861 -1.8110
 2948TIP3    H230404   2.364   0.569   1.678 -1.0158 -1.5977  0.0200
 2949TIP3   OH230405   5.252   0.184   1.498  0.5212 -0.3748 -0.7322
 2949TIP3    H130406   5.249   0.205   1.591  1.3127  1.0494 -0.9859
 2949TIP3    H230407   5.223   0.093   1.492 -1.5098  0.1078  0.6898
 2950TIP3   OH230408   2.559   4.325   7.928  0.5427 -0.2895 -0.0862
 2950TIP3    H130409   2.569   4.419   7.940 -0.1760 -0.4552  2.3285
 2950TIP3    H230410   2.616   4.304   7.854  0.9614  1.9666 -0.4778
 2951TIP3   OH230411   0.925   6.391   1.605  0.3007  0.2106  0.0981
 2951TIP3    H130412   0.878   6.371   1.686 -0.0799  0.1533 -0.1308
 2951TIP3    H230413   0.855   6.410   1.542  0.6423  2.2625  0.2945
 2952TIP3   OH230414   6.153   5.834   1.045 -0.8113 -0.0371 -0.1476
 2952TIP3    H130415   6.181   5.903   0.984  0.0120  0.7101  1.0363
 2952TIP3    H230416   6.118   5.881   1.120 -1.1760 -0.9359  0.2628
 2953TIP3   OH230417   0.899   5.109   7.499 -0.2719 -0.3205 -0.2434
 2953TIP3    H130418   0.850   5.165   7.438  0.3514 -0.2321 -0.6787
 2953TIP3    H230419   0.866   5.132   7.585  0.1060  0.8713 -0.3930
 2954TIP3   OH230420   0.608   5.635   0.769 -0.4719 -0.7528  0.0803
 2954TIP3    H130421   0.695   5.661   0.739 -1.1668  0.8212 -0.6919
 2954TIP3    H230422   0.611   5.647   0.864  0.2725 -1.1178  0.1139
 2955TIP3   OH230423   4.012   2.039   2.957  0.1303 -0.2786  0.4685
 2955TIP3    H130424   3.936   2.095   2.969  0.3905  0.2191 -0.1533
 2955TIP3    H230425   4.070   2.089   2.899  0.5456 -1.0151  0.2379
 2956TIP3   OH230426   3.435   1.786   1.227  0.2639 -0.5904  0.2108
 2956TIP3    H130427   3.374   1.777   1.155  0.6556  0.2217 -0.2361
 2956TIP3    H230428   3.384   1.763   1.305 -0.3601 -0.7510 -0.2390
 2957TIP3   OH230429   6.901   6.280   0.541  0.3223 -0.3482  0.3161
 2957TIP3    H130430   6.815   6.321   0.555  0.1669 -0.4774 -0.2268
 2957TIP3    H230431   6.957   6.351   0.510  0.1066 -0.4975 -0.4288
 2958TIP3   OH230432   0.736   4.770   7.361  0.1809  0.1734 -0.3697
 2958TIP3    H130433   0.687   4.748   7.282 -0.5447  0.5305 -0.0327
 2958TIP3    H230434   0.668   4.789   7.426  0.7659  2.0956 -0.2780
 2959TIP3   OH230435   5.501   5.372   0.326  0.4212  0.5282  0.8046
 2959TIP3    H130436   5.448   5.385   0.405 -0.6865  0.0083  0.1767
 2959TIP3    H230437   5.454   5.303   0.277  1.0414  0.8922 -0.3338
 2960TIP3   OH230438   0.565   2.030   1.619  0.6449  0.0206 -0.4095
 2960TIP3    H130439   0.560   2.018   1.714  0.7155  0.3564 -0.3608
 2960TIP3    H230440   0.525   2.116   1.605 -0.1592 -0.4035 -0.7749
 2961TIP3   OH230441   5.510   1.214   2.848  0.1128 -0.3572 -0.0404
 2961TIP3    H130442   5.420   1.182   2.842  0.3035 -0.9065 -0.0608
 2961TIP3    H230443   5.534   1.237   2.759  0.5011 -1.6564 -0.2887
 2962TIP3   OH230444   2.488   1.751   0.746 -0.2448 -0.4832  0.0026
 2962TIP3    H130445   2.494   1.777   0.654 -0.1033 -0.3293  0.0554
 2962TIP3    H230446   2.578   1.750   0.777 -0.3996  1.1125  0.5891
 2963TIP3   OH230447   0.446   5.458   1.787 -0.3873 -0.0776  0.1481
 2963TIP3    H130448   0.466   5.413   1.705 -0.8123  0.2707 -0.1542
 2963TIP3    H230449   0.423   5.548   1.760 -0.9478 -0.0793  0.5995
 2964TIP3   OH230450   2.500   1.216   1.906 -0.3724 -0.9800  0.1105
 2964TIP3    H130451   2.580   1.206   1.855  0.3948 -0.3132  1.1453
 2964TIP3    H230452   2.433   1.236   1.841  0.2806 -1.6003 -0.7787
 2965TIP3   OH230453   6.345   0.298   7.918 -0.2963 -0.1720  0.1134
 2965TIP3    H130454   6.265   0.282   7.968 -0.3777  0.1498  0.0897
 2965TIP3    H230455   6.414   0.260   7.971 -0.5120 -0.8406 -0.0717
 2966TIP3   OH230456   1.512   2.771   1.306  0.3953 -0.4429  0.1698
 2966TIP3    H130457   1.566   2.824   1.365  0.6910 -1.0869  0.4827
 2966TIP3    H230458   1.552   2.685   1.307  0.2024 -0.5568 -0.7173
 2967TIP3   OH230459   2.245   5.484   7.631  0.2372  0.4396 -0.3558
 2967TIP3    H130460   2.336   5.476   7.602  0.0497  1.9695 -1.4804
 2967TIP3    H230461   2.218   5.394   7.647  1.4186 -0.2173 -1.7367
 2968TIP3   OH230462   5.243   4.788   1.278  0.3287 -0.7784  0.3666
 2968TIP3    H130463   5.241   4.716   1.215 -0.2469  0.5213 -1.1609
 2968TIP3    H230464   5.155   4.791   1.314  0.2907 -0.6737  0.2623
 2969TIP3   OH230465   3.256   3.791   7.862  0.7162 -0.1349 -0.9958
 2969TIP3    H130466   3.296   3.742   7.934  1.9471 -0.6222 -1.9718
 2969TIP3    H230467   3.182   3.736   7.834  0.7728 -0.3755 -0.6754
 2970TIP3   OH230468   2.375   1.049   7.480  0.4395 -0.6068 -0.4686
 2970TIP3    H130469   2.296   1.014   7.522  1.4952 -1.8694  0.5754
 2970TIP3    H230470   2.355   1.142   7.466 -0.1255 -0.1245  2.6582
 2971TIP3   OH230471   4.090   1.200   1.097  0.3899 -0.1230 -0.1989
 2971TIP3    H130472   4.028   1.245   1.155  2.6832  2.4836  0.4456
 2971TIP3    H230473   4.138   1.141   1.156  0.2654 -0.2095 -0.1828
 2972TIP3   OH230474   6.570   5.657   1.817 -0.7205  0.0196 -0.0309
 2972TIP3    H130475   6.477   5.639   1.834 -0.2412 -2.7013  0.3042
 2972TIP3    H230476   6.611   5.650   1.902  0.4656 -4.7243 -0.6867
 2973TIP3   OH230477   6.332   5.720   6.677 -0.1633 -0.1042  0.6161
 2973TIP3    H130478   6.338   5.806   6.718  0.8990  0.8725 -1.4696
 2973TIP3    H230479   6.422   5.687   6.675 -0.4462 -0.8987  0.6635
 2974TIP3   OH230480   5.907   5.904   2.244 -0.1065 -0.0712 -0.4454
 2974TIP3    H130481   5.837   5.908   2.308 -0.9108  3.1934 -1.3687
 2974TIP3    H230482   5.981   5.865   2.291 -1.8980 -1.7606  1.1038
 2975TIP3   OH230483   5.097   3.818   2.292 -0.8018  0.3371 -0.0367
 2975TIP3    H130484   5.079   3.863   2.374  0.5200  0.4296  0.2216
 2975TIP3    H230485   5.089   3.886   2.225 -0.0125  0.6845  0.2209
 2976TIP3   OH230486   4.366   0.334   2.293  0.1878  0.0363 -0.5011
 2976TIP3    H130487   4.317   0.378   2.363  0.8706 -0.2497  0.1725
 2976TIP3    H230488   4.448   0.306   2.335  0.5585 -0.2418 -1.3893
 2977TIP3   OH230489   2.664   4.254   6.764 -0.2480 -0.5482 -0.1128
 2977TIP3    H130490   2.620   4.332   6.797  0.5291 -0.8536  1.7305
 2977TIP3    H230491   2.699   4.281   6.679 -0.6447  0.8639  0.1504
 2978TIP3   OH230492   4.099   1.279   1.840  0.2225  0.3215 -0.5616
 2978TIP3    H130493   4.052   1.276   1.924  0.1961 -0.1647 -0.5860
 2978TIP3    H230494   4.187   1.308   1.862 -0.0556  1.1263 -0.4970
 2979TIP3   OH230495   6.751   0.971   8.235  0.2465  0.5818 -0.0204
 2979TIP3    H130496   6.806   1.017   8.298  0.1339  1.0430 -0.2523
 2979TIP3    H230497   6.811   0.912   8.189  0.1083 -0.6741  1.3518
 2980TIP3   OH230498   4.506   6.675   1.068 -0.4857 -0.6688 -0.3070
 2980TIP3    H130499   4.578   6.613   1.058 -1.1329 -1.1823 -2.4217
 2980TIP3    H230500   4.470   6.684   0.979 -0.6833  2.4329 -0.0360
 2981TIP3   OH230501   4.515   2.705   7.334 -0.3483 -0.4173 -0.4292
 2981TIP3    H130502   4.579   2.709   7.404  0.2727  0.0757 -1.0080
 2981TIP3    H230503   4.440   2.659   7.372 -0.4433  0.7565  0.8745
 2982TIP3   OH230504   4.139   3.721   6.876 -0.6090  0.4955  0.3146
 2982TIP3    H130505   4.186   3.683   6.802  0.6422  0.1968  1.2366
 2982TIP3    H230506   4.160   3.815   6.871  1.2550  0.1958  1.4794
 2983TIP3   OH230507   3.006   0.694   1.770  0.7066  0.0237  0.5899
 2983TIP3    H130508   2.971   0.755   1.705  1.0758  0.0757  0.4367
 2983TIP3    H230509   2.934   0.633   1.787  1.0096 -0.7822 -0.8359
 2984TIP3   OH230510   5.704   5.116   7.294 -0.2455 -0.0048 -0.3950
 2984TIP3    H130511   5.680   5.114   7.201  2.1149 -2.6373 -1.0937
 2984TIP3    H230512   5.782   5.172   7.298 -1.1421  1.2414  0.2951
 2985TIP3   OH230513   6.477   0.444   6.746  0.0225 -0.1215  0.1530
 2985TIP3    H130514   6.571   0.426   6.750 -0.0675 -0.3449  2.2884
 2985TIP3    H230515   6.444   0.380   6.682  1.1175 -0.9769  0.4115
 2986TIP3   OH230516   7.001   0.244   7.929 -0.2994 -0.6736  0.4748
 2986TIP3    H130517   6.918   0.251   7.883  0.3242  2.4824 -0.4177
 2986TIP3    H230518   6.980   0.262   8.021 -0.7941 -1.7575  0.5963
 2987TIP3   OH230519   0.022   0.774   8.230 -0.1537  0.5101  0.3487
 2987TIP3    H130520   0.069   0.728   8.161 -1.2654 -0.5684  0.2835
 2987TIP3    H230521  -0.070   0.751   8.217 -0.7687  2.7304  0.3498
 2988TIP3   OH230522   6.709   4.026   1.593 -0.1681  0.0841  0.6193
 2988TIP3    H130523   6.778   3.967   1.622  1.3836  1.4798 -0.0719
 2988TIP3    H230524   6.692   4.001   1.502 -0.9659 -0.5887  0.9414
 2989TIP3   OH230525   2.521   3.842   7.091 -0.1117 -0.2323  0.1068
 2989TIP3    H130526   2.498   3.894   7.014  1.1013 -0.1562 -0.2351
 2989TIP3    H230527   2.489   3.893   7.165 -0.4200  0.1833 -0.3089
 2990TIP3   OH230528   2.647   3.915   0.667 -0.2760  0.4812 -0.1155
 2990TIP3    H130529   2.627   3.962   0.748 -3.4097 -0.9605  0.1184
 2990TIP3    H230530   2.668   3.826   0.695 -1.0976  0.0457 -0.8340
 2991TIP3   OH230531   5.783   2.398   7.259  0.3597 -0.5808  0.2940
 2991TIP3    H130532   5.804   2.490   7.241  0.7711 -0.1541  2.6196
 2991TIP3    H230533   5.841   2.348   7.202  0.1115  0.5751 -1.0326
 2992TIP3   OH230534   5.913   4.242   7.622  0.2636 -0.3079  0.3780
 2992TIP3    H130535   5.951   4.329   7.636  1.8813 -1.1555  1.4992
 2992TIP3    H230536   5.968   4.204   7.553  0.8209 -1.1578  1.2772
 2993TIP3   OH230537   5.997   5.917   0.373  0.5629 -0.0195  0.0026
 2993TIP3    H130538   6.079   5.870   0.355  1.2720  0.9122  0.7147
 2993TIP3    H230539   5.928   5.854   0.351  1.4817 -1.3304  0.7197
 2994TIP3   OH230540   1.425   3.018   7.053 -0.0586 -0.2106  0.2253
 2994TIP3    H130541   1.456   2.992   6.966 -0.3635 -0.8820  0.3110
 2994TIP3    H230542   1.498   2.997   7.112  1.2884  2.8294 -0.1838
 2995TIP3   OH230543   4.225   3.803   0.649  0.0035 -0.2839  0.2775
 2995TIP3    H130544   4.288   3.846   0.591 -0.9754  0.0793 -0.5574
 2995TIP3    H230545   4.208   3.719   0.606 -0.0443 -0.4052  0.5316
 2996TIP3   OH230546   6.789   1.879   7.796 -0.5600 -0.0452 -0.8715
 2996TIP3    H130547   6.722   1.811   7.795 -1.5612  0.9191 -0.2523
 2996TIP3    H230548   6.741   1.961   7.801  0.6518  0.6905 -0.8958
 2997TIP3   OH230549   4.524   2.505   6.930  0.3994  0.9075  0.3101
 2997TIP3    H130550   4.569   2.534   7.010 -0.8346 -0.2433  1.4875
 2997TIP3    H230551   4.448   2.455   6.962  0.3115 -0.2898 -1.5873
 2998TIP3   OH230552   0.176   0.686   8.004 -0.0761  0.0392  0.1892
 2998TIP3    H130553   0.137   0.701   7.919 -2.4478 -0.4128  1.1218
 2998TIP3    H230554   0.199   0.594   8.005 -0.5089 -0.0706  0.1955
 2999TIP3   OH230555   4.826   4.371   1.303  0.8374  0.3059  0.0025
 2999TIP3    H130556   4.920   4.366   1.323  0.5476  0.2334  1.5142
 2999TIP3    H230557   4.791   4.431   1.369 -0.4227 -0.8818  0.4644
 3000TIP3   OH230558   5.037   3.138   1.944  0.5827  0.0481  0.1708
 3000TIP3    H130559   5.106   3.175   1.889  0.1138  0.0516 -0.4316
 3000TIP3    H230560   5.008   3.059   1.898  1.2071 -0.8021  1.1778
 3001TIP3   OH230561   0.742   4.229   2.175 -1.1121  0.0392  0.1894
 3001TIP3    H130562   0.721   4.139   2.202 -1.7457 -0.3007 -1.3411
 3001TIP3    H230563   0.686   4.284   2.231  0.0167 -0.4155  1.8544
 3002TIP3   OH230564   2.247   3.346   7.732 -0.5188 -0.2050 -0.1611
 3002TIP3    H130565   2.170   3.290   7.724  1.2662 -2.9104  0.4389
 3002TIP3    H230566   2.263   3.351   7.826 -0.8353  1.7251 -0.1605
 3003TIP3   OH230567   2.346   3.993   1.179  0.0335  0.2448 -0.2213
 3003TIP3    H130568   2.350   4.068   1.119  1.9606 -0.4325 -1.0003
 3003TIP3    H230569   2.408   3.930   1.143  2.1908  0.2688  3.0936
 3004TIP3   OH230570   3.422   2.064   1.101  0.2191  0.0151 -0.1169
 3004TIP3    H130571   3.364   1.992   1.075  0.7085  0.3598 -2.3985
 3004TIP3    H230572   3.367   2.121   1.155 -1.7869  0.5348 -2.5159
 3005TIP3   OH230573   1.159   0.342   0.463  0.5577 -0.0397  0.0154
 3005TIP3    H130574   1.141   0.275   0.529 -2.4095  1.0032  0.4130
 3005TIP3    H230575   1.186   0.419   0.514  1.2179 -0.0906 -0.2437
 3006TIP3   OH230576   5.573   3.466   7.860 -0.0654  0.2388  0.2140
 3006TIP3    H130577   5.546   3.396   7.920  0.5979 -0.5885 -0.4308
 3006TIP3    H230578   5.574   3.425   7.774 -0.2133  1.2028 -0.2652
 3007TIP3   OH230579   2.433   2.527   0.011 -0.8462  0.4946 -0.3177
 3007TIP3    H130580   2.344   2.547   0.040 -0.8599  1.9652 -1.2544
 3007TIP3    H230581   2.483   2.607   0.031  0.6282 -0.7725  1.4598
 3008TIP3   OH230582   3.858   3.750   1.588  0.1969  0.7710 -0.1927
 3008TIP3    H130583   3.771   3.714   1.573  0.9419 -1.4422  0.3359
 3008TIP3    H230584   3.875   3.733   1.681  1.3770  0.6696 -0.4105
 3009TIP3   OH230585   6.340   2.224   0.462  0.2164 -0.2989 -0.0966
 3009TIP3    H130586   6.358   2.244   0.370  1.4296 -1.1685 -0.0770
 3009TIP3    H230587   6.425   2.195   0.497 -0.0128  0.8492  1.5320
 3010TIP3   OH230588   3.463   0.919   6.760 -0.1729  0.1280 -0.3246
 3010TIP3    H130589   3.552   0.951   6.767 -0.5495  0.8896  1.6600
 3010TIP3    H230590   3.434   0.946   6.673  1.7803 -0.9179 -1.3448
 3011TIP3   OH230591   0.052   4.199   0.910 -0.1005 -0.1078  0.7914
 3011TIP3    H130592   0.062   4.194   1.005  2.2580  3.5517  0.9433
 3011TIP3    H230593   0.128   4.249   0.880  0.2890 -2.7045 -3.3407
 3012TIP3   OH230594   2.814   3.843   1.921 -0.1281  0.0943  0.0729
 3012TIP3    H130595   2.770   3.897   1.986 -0.3064 -1.8973  1.7302
 3012TIP3    H230596   2.897   3.819   1.963  0.2190 -0.3807 -0.8742
 3013TIP3   OH230597   0.875   3.860   6.401  0.1371 -0.4264  0.0984
 3013TIP3    H130598   0.809   3.821   6.343  0.0555  0.1353 -0.1955
 3013TIP3    H230599   0.914   3.785   6.447  0.8496 -0.9868 -1.3409
 3014TIP3   OH230600   0.074   0.028   0.593  0.4679  0.8574 -0.2219
 3014TIP3    H130601   0.072   0.122   0.609  0.4591  0.7232  0.6110
 3014TIP3    H230602   0.138   0.016   0.523 -0.1353  1.5590 -0.9013
 3015TIP3   OH230603   3.441   1.170   0.433 -0.3192 -0.3294  0.0507
 3015TIP3    H130604   3.528   1.192   0.399 -0.7931  0.0580 -0.9667
 3015TIP3    H230605   3.409   1.253   0.469 -0.6767 -0.1995 -0.5441
 3016TIP3   OH230606   3.883   2.423   0.923  0.4978  0.1939  0.0892
 3016TIP3    H130607   3.857   2.515   0.931 -0.0508  0.1709 -1.2122
 3016TIP3    H230608   3.800   2.376   0.914  0.7622 -0.4748  1.0491
 3017TIP3   OH230609   3.776   6.687   0.871 -0.5684  0.5359  0.1920
 3017TIP3    H130610   3.773   6.641   0.955  1.1180  0.0305  0.0122
 3017TIP3    H230611   3.799   6.777   0.895  0.6879  0.2161  0.2399
 3018TIP3   OH230612   1.567   3.666   0.149  0.5980 -0.2740  0.1304
 3018TIP3    H130613   1.635   3.716   0.104  0.2788 -1.3666 -1.6653
 3018TIP3    H230614   1.490   3.724   0.147  1.1663  0.5679  1.3007
 3019TIP3   OH230615   0.770   4.938   7.069  0.5246  0.4562 -0.0758
 3019TIP3    H130616   0.835   4.903   7.130  0.1780  0.9990  0.6192
 3019TIP3    H230617   0.718   4.998   7.122 -1.1336 -0.6554 -0.3885
 3020TIP3   OH230618   6.876   1.349   8.162  0.0160  0.0695 -0.3593
 3020TIP3    H130619   6.844   1.335   8.073 -0.7192  3.3233 -0.7368
 3020TIP3    H230620   6.959   1.397   8.150  0.5866 -0.6254  0.7154
 3021TIP3   OH230621   7.008   3.649   7.003  0.1894  0.1783  0.4089
 3021TIP3    H130622   7.043   3.723   7.052 -0.5900  1.4431 -0.8708
 3021TIP3    H230623   7.049   3.655   6.917  0.2706 -1.0186  0.3428
 3022TIP3   OH230624   0.775   1.782   0.177 -0.5859 -0.2087  0.2900
 3022TIP3    H130625   0.720   1.705   0.159  0.0357 -0.5836 -0.0480
 3022TIP3    H230626   0.806   1.768   0.267 -2.1123  0.6831  0.9909
 3023TIP3   OH230627   4.170   3.683   1.006 -1.0472  0.5547 -0.0054
 3023TIP3    H130628   4.188   3.639   1.089 -3.6123 -2.6180 -0.9326
 3023TIP3    H230629   4.254   3.684   0.961 -0.3527 -1.1397  1.1448
 3024TIP3   OH230630   6.074   0.920   7.956 -0.3491  0.1347  0.3516
 3024TIP3    H130631   6.139   0.870   7.907 -0.9309 -0.1417 -0.1445
 3024TIP3    H230632   5.990   0.887   7.926 -0.7577  1.5141 -0.1203
 3025TIP3   OH230633   5.150   6.334   0.913  0.2521 -0.2554 -0.1994
 3025TIP3    H130634   5.102   6.402   0.866  1.8821  0.3576 -1.0407
 3025TIP3    H230635   5.106   6.252   0.889 -0.7933  0.3462 -0.3764
 3026TIP3   OH230636   2.099   4.584   2.650  0.3252  0.1635  0.2057
 3026TIP3    H130637   2.194   4.576   2.640  0.4872  1.3190  0.6601
 3026TIP3    H230638   2.086   4.604   2.743  0.1120  5.1636 -0.6353
 3027TIP3   OH230639   0.502   1.739   6.396  0.0616 -0.0752  0.0150
 3027TIP3    H130640   0.536   1.718   6.483 -0.8090  1.3444  0.7401
 3027TIP3    H230641   0.439   1.670   6.376 -2.6731  1.5298  2.2867
 3028TIP3   OH230642   1.864   4.248   6.645 -0.2318 -0.2038  0.2776
 3028TIP3    H130643   1.876   4.188   6.572 -2.1239  1.1664 -1.2718
 3028TIP3    H230644   1.911   4.327   6.619 -0.5063  0.1298  0.7673
 3029TIP3   OH230645   0.957   0.438   0.878  0.6196 -0.2991  0.1582
 3029TIP3    H130646   0.904   0.362   0.853  1.6529 -1.1665  0.5839
 3029TIP3    H230647   0.914   0.472   0.956  0.8715 -1.1982  0.6993
 3030TIP3   OH230648   5.313   0.061   7.105 -0.1606  0.7327  0.1059
 3030TIP3    H130649   5.223   0.029   7.104  0.3437 -0.7979 -0.8016
 3030TIP3    H230650   5.310   0.143   7.056 -1.2853  1.5033  1.3766
 3031TIP3   OH230651   5.301   1.590   0.060  0.5665 -0.3404  0.1028
 3031TIP3    H130652   5.339   1.626   0.141 -1.6079 -1.2080  1.6125
 3031TIP3    H230653   5.233   1.652   0.036  0.5218 -0.6084 -0.4667
 3032TIP3   OH230654   4.801   5.102   6.838 -0.5573  0.1572 -0.6855
 3032TIP3    H130655   4.711   5.135   6.835 -0.2223  1.3836  0.9233
 3032TIP3    H230656   4.855   5.180   6.825  0.3273 -0.6971 -2.5959
 3033TIP3   OH230657   5.211   6.464   7.987 -0.3692  0.0184 -0.2014
 3033TIP3    H130658   5.183   6.544   7.943  2.4560  1.8756  1.0865
 3033TIP3    H230659   5.173   6.470   8.075  0.3448  0.2419  0.0914
 3034TIP3   OH230660   3.666   4.876   7.540 -0.0740  0.1974  0.2483
 3034TIP3    H130661   3.673   4.919   7.625 -0.2608  0.0068  0.3633
 3034TIP3    H230662   3.753   4.842   7.523 -0.0593  0.1526  0.4108
 3035TIP3   OH230663   1.634   2.458   6.306  0.5347  0.2660 -0.8733
 3035TIP3    H130664   1.583   2.504   6.240 -1.2592 -1.5382 -0.8295
 3035TIP3    H230665   1.652   2.524   6.373  0.1924  1.4844 -1.9517
 3036TIP3   OH230666   0.540   5.840   7.411 -0.8151  0.4100  0.0559
 3036TIP3    H130667   0.617   5.852   7.356 -2.1448  0.8304 -1.7773
 3036TIP3    H230668   0.573   5.853   7.500  1.3254  0.0313 -0.6159
 3037TIP3   OH230669   2.042   1.566   2.184 -0.1451 -0.6556  0.3745
 3037TIP3    H130670   2.114   1.571   2.121  0.1154 -0.3745  0.6920
 3037TIP3    H230671   2.082   1.526   2.262 -0.6851 -1.8874  0.0505
 3038TIP3   OH230672   5.867   4.934   1.619 -0.3061 -0.6770  0.4749
 3038TIP3    H130673   5.819   5.007   1.582 -0.7458 -1.0501  0.2959
 3038TIP3    H230674   5.933   4.974   1.676 -0.1386 -0.1293 -0.1031
 3039TIP3   OH230675   2.251   0.939   1.603 -0.0428 -0.2724  0.1921
 3039TIP3    H130676   2.224   0.924   1.693  1.2861 -0.7595  0.5369
 3039TIP3    H230677   2.180   0.901   1.550  0.0887 -1.8055  1.0512
 3040TIP3   OH230678   3.050   6.584   6.613 -0.0254  0.4671  0.8513
 3040TIP3    H130679   3.012   6.659   6.567 -0.8034 -0.0095  0.7071
 3040TIP3    H230680   3.024   6.508   6.561 -0.1923 -0.0059  1.6205
 3041TIP3   OH230681   0.296   2.076   6.848 -0.3090 -0.0909 -0.1719
 3041TIP3    H130682   0.314   2.035   6.932 -0.9866  2.6586  1.4330
 3041TIP3    H230683   0.375   2.058   6.795  0.2277 -1.6576  1.1001
 3042TIP3   OH230684   5.290   4.661   2.388  0.2277  0.1239 -0.0881
 3042TIP3    H130685   5.273   4.580   2.341  0.2329 -0.4605  0.8778
 3042TIP3    H230686   5.384   4.678   2.376  0.4114 -0.4901  0.4022
 3043TIP3   OH230687   3.093   4.665   0.689 -0.2796 -0.1641  0.3682
 3043TIP3    H130688   3.181   4.648   0.655  0.3083  1.1480  1.1448
 3043TIP3    H230689   3.101   4.654   0.784 -0.7200  0.8339  0.5382
 3044TIP3   OH230690   0.340   6.713   7.005  0.1803 -0.2234 -0.1067
 3044TIP3    H130691   0.255   6.714   6.963  0.6426 -0.7087 -1.0686
 3044TIP3    H230692   0.384   6.636   6.971  1.5694  0.8182 -0.7911
 3045TIP3   OH230693   0.629   2.060   0.330 -0.8763 -0.5737 -0.3255
 3045TIP3    H130694   0.715   2.103   0.332 -1.1804  0.0112  1.0684
 3045TIP3    H230695   0.584   2.099   0.256 -0.0356 -0.7314 -0.9442
 3046TIP3   OH230696   4.448   6.633   1.942 -0.5049  0.3647  0.7568
 3046TIP3    H130697   4.504   6.556   1.930 -0.6110  0.2633  0.9176
 3046TIP3    H230698   4.508   6.707   1.942 -0.5283  0.4241 -0.9721
 3047TIP3   OH230699   0.664   5.100   0.869 -0.4223  0.1961  0.7672
 3047TIP3    H130700   0.612   5.035   0.822 -1.1251  0.9047  0.5270
 3047TIP3    H230701   0.732   5.050   0.914 -0.4287 -0.6096 -0.0971
 3048TIP3   OH230702   2.809   3.891   7.026  0.0767 -0.0073 -0.0491
 3048TIP3    H130703   2.881   3.834   7.001  0.2427  0.9423 -1.8873
 3048TIP3    H230704   2.840   3.934   7.106  1.2029 -0.2445 -0.3335
 3049TIP3   OH230705   0.275   2.404   5.891  0.4566  0.2036 -0.8773
 3049TIP3    H130706   0.296   2.358   5.972 -2.8510 -0.9237 -0.5009
 3049TIP3    H230707   0.331   2.364   5.825  0.7983 -1.2704  0.2670
 3050TIP3   OH230708   1.603   1.947   1.804  0.2542 -0.0205  0.5472
 3050TIP3    H130709   1.634   2.031   1.769 -0.5563  1.0274  2.2066
 3050TIP3    H230710   1.532   1.970   1.863 -1.0371 -2.0458 -0.1204
 3051TIP3   OH230711   3.161   4.296   1.517 -0.2154  0.0937 -0.4085
 3051TIP3    H130712   3.162   4.378   1.467  0.3432 -0.2680 -0.9921
 3051TIP3    H230713   3.240   4.301   1.572 -0.8114  0.4791  0.4377
 3052TIP3   OH230714   0.003   6.096   1.120  0.0513  0.5992 -0.3053
 3052TIP3    H130715  -0.035   6.117   1.034  1.4400 -0.5323 -1.2293
 3052TIP3    H230716  -0.014   6.174   1.173 -1.1370  1.1854 -1.4888
 3053TIP3   OH230717   6.021   6.805   6.153  0.3372 -0.2096  0.5035
 3053TIP3    H130718   6.084   6.813   6.224  1.1198 -0.6463 -0.1270
 3053TIP3    H230719   6.071   6.822   6.073 -0.5360  0.3255  0.0445
 3054TIP3   OH230720   4.530   3.652   1.627  0.4336 -0.5647 -0.4747
 3054TIP3    H130721   4.599   3.587   1.626  0.8231 -0.1525 -0.5747
 3054TIP3    H230722   4.571   3.732   1.660 -0.9117 -1.3099  3.6376
 3055TIP3   OH230723   5.056   6.934   7.104 -0.7483  0.5588 -0.1929
 3055TIP3    H130724   5.066   6.882   7.183 -1.2265 -0.9759 -1.1095
 3055TIP3    H230725   4.962   6.936   7.088 -0.7201  1.5263 -0.3141
 3056TIP3   OH230726   1.442   1.677   6.626 -0.4763 -0.0296 -0.7966
 3056TIP3    H130727   1.495   1.652   6.550 -0.5197  0.7520 -1.0914
 3056TIP3    H230728   1.487   1.637   6.701  0.9684  1.2287 -0.9473
 3057TIP3   OH230729   1.483   3.143   6.710 -0.5632  0.4347 -0.0779
 3057TIP3    H130730   1.453   3.222   6.754 -1.1301  0.0469  0.2440
 3057TIP3    H230731   1.474   3.163   6.617 -0.3776  0.8729 -0.0028
 3058TIP3   OH230732   1.457   6.770   1.425 -0.1866  0.1051  0.1460
 3058TIP3    H130733   1.380   6.826   1.411  0.6621  1.0246 -1.0058
 3058TIP3    H230734   1.530   6.831   1.432  0.5825 -0.8109  0.3148
 3059TIP3   OH230735   5.100   5.418   1.832  0.8069  0.6700  0.7767
 3059TIP3    H130736   5.116   5.421   1.738 -1.8320 -1.4791  0.1340
 3059TIP3    H230737   5.123   5.329   1.858 -1.7839  0.0772  1.3481
 3060TIP3   OH230738   5.857   2.592   2.087  0.3402 -0.3954 -0.1205
 3060TIP3    H130739   5.909   2.671   2.078 -1.1017  0.4808 -1.2891
 3060TIP3    H230740   5.890   2.549   2.165  2.4098  0.3910 -0.5102
 3061TIP3   OH230741   4.332   5.053   7.543  0.2639  0.0627  0.1797
 3061TIP3    H130742   4.281   5.110   7.484  0.1927 -0.8355 -0.6582
 3061TIP3    H230743   4.421   5.088   7.539 -0.5599  3.0095  3.3287
 3062TIP3   OH230744   4.408   5.918   1.410 -0.3245 -0.2829 -0.1190
 3062TIP3    H130745   4.474   5.935   1.343 -0.6430 -2.2569 -1.0198
 3062TIP3    H230746   4.411   5.823   1.423 -1.9672 -0.2389  0.9109
 3063TIP3   OH230747   4.318   2.675   2.516 -0.2690  0.2328  0.0828
 3063TIP3    H130748   4.357   2.707   2.597  0.0544  1.5189 -0.5480
 3063TIP3    H230749   4.376   2.604   2.488  0.3293  0.6193  0.3243
 3064TIP3   OH230750   0.076   6.463   0.798 -0.2410 -0.0709  0.1023
 3064TIP3    H130751   0.141   6.502   0.739 -0.8748 -1.0580 -1.3024
 3064TIP3    H230752  -0.001   6.449   0.743 -0.5142 -1.9696  0.8856
 3065TIP3   OH230753   2.638   6.253   7.445  0.5588  0.4272  0.4072
 3065TIP3    H130754   2.635   6.166   7.484 -0.4267 -0.5045 -1.6495
 3065TIP3    H230755   2.628   6.312   7.520 -0.1282 -1.2381  1.7006
 3066TIP3   OH230756   4.989   4.545   1.987 -0.1724 -0.1786 -0.4210
 3066TIP3    H130757   4.998   4.604   2.061 -0.7028 -0.6412  0.0220
 3066TIP3    H230758   5.079   4.524   1.961  0.1066  2.4364 -1.9274
 3067TIP3   OH230759   1.756   5.803   8.076  0.5961  0.3716  1.2028
 3067TIP3    H130760   1.762   5.726   8.020 -0.7921  0.2717  1.1597
 3067TIP3    H230761   1.814   5.867   8.035  1.4389 -0.4886  1.0044
 3068TIP3   OH230762   4.144   5.568   1.285 -0.3234  0.2419  0.6382
 3068TIP3    H130763   4.200   5.600   1.215  1.3879 -0.2811  1.6851
 3068TIP3    H230764   4.194   5.497   1.324 -1.4633  0.1644  2.0369
 3069TIP3   OH230765   3.443   6.790   1.013 -0.3782 -0.0480 -0.1972
 3069TIP3    H130766   3.460   6.721   0.949  2.2848 -0.0030  0.3227
 3069TIP3    H230767   3.372   6.841   0.975  0.0994 -0.8999 -2.4018
 3070TIP3   OH230768   0.454   0.777   0.832  0.3627 -0.1736 -0.1410
 3070TIP3    H130769   0.490   0.812   0.914 -2.0162 -1.3359  1.5204
 3070TIP3    H230770   0.497   0.692   0.821 -0.1138 -0.5072  0.5310
 3071TIP3   OH230771   5.943   0.888   7.060 -0.2974 -0.2271 -0.2785
 3071TIP3    H130772   5.874   0.832   7.095 -1.3185  1.0369 -0.1934
 3071TIP3    H230773   5.896   0.956   7.011  0.9608 -0.2933 -1.6753
 3072TIP3   OH230774   1.427   0.282   1.878 -0.0452 -0.8154 -0.1319
 3072TIP3    H130775   1.474   0.214   1.829  0.7523 -1.3675  1.3443
 3072TIP3    H230776   1.412   0.243   1.964 -1.5659  0.0683  0.0309
 3073TIP3   OH230777   5.492   6.617   1.327 -0.7049 -0.1356 -0.1486
 3073TIP3    H130778   5.427   6.547   1.326  0.2434 -1.0551  0.4255
 3073TIP3    H230779   5.509   6.633   1.420 -0.8248  0.7830 -0.2758
 3074TIP3   OH230780   2.033   5.732   0.464  0.0252 -0.2331 -0.4007
 3074TIP3    H130781   2.052   5.680   0.542 -2.5212 -0.0204  0.4437
 3074TIP3    H230782   2.027   5.667   0.393 -1.7263 -0.9759  0.3818
 3075TIP3   OH230783   5.532   2.908   1.955  0.4959 -0.5531 -0.7064
 3075TIP3    H130784   5.465   2.899   1.887  0.0320 -0.6102 -0.2427
 3075TIP3    H230785   5.505   2.984   2.006  0.5769 -0.8071 -0.2815
 3076TIP3   OH230786   1.101   4.709   6.695  0.4861  0.1701  0.3292
 3076TIP3    H130787   1.059   4.639   6.746 -0.4580  1.0489  0.8088
 3076TIP3    H230788   1.034   4.777   6.690  1.9019  1.7117  1.2713
 3077TIP3   OH230789   0.702   0.921   7.326  0.4300 -0.3153 -0.4987
 3077TIP3    H130790   0.781   0.871   7.303  0.0494 -0.0950 -2.4690
 3077TIP3    H230791   0.630   0.864   7.300 -0.0657 -0.1772  0.5410
 3078TIP3   OH230792   6.200   4.468   1.627 -0.6440  0.4074  0.4890
 3078TIP3    H130793   6.124   4.526   1.629  0.2650  1.6309  0.4633
 3078TIP3    H230794   6.183   4.404   1.696 -1.9154  0.3621  0.1595
 3079TIP3   OH230795   3.254   1.841   1.025 -0.0629  0.2387  0.4341
 3079TIP3    H130796   3.171   1.826   1.071 -0.1649 -0.1520  0.1352
 3079TIP3    H230797   3.237   1.809   0.936  0.3189  0.4250  0.2948
 3080TIP3   OH230798   5.975   4.920   0.309 -0.3289  0.2723  0.6290
 3080TIP3    H130799   5.880   4.911   0.307 -0.3958  0.0690  2.8669
 3080TIP3    H230800   5.993   4.997   0.254 -1.5995 -0.6669 -1.1919
 3081TIP3   OH230801   3.490   1.138   0.757 -0.2555  0.1837 -0.4875
 3081TIP3    H130802   3.459   1.228   0.769  1.3723  0.9190 -1.5485
 3081TIP3    H230803   3.451   1.111   0.674 -1.1940 -0.3207  0.0988
 3082TIP3   OH230804   3.584   2.412   2.475 -0.3857  0.3544 -0.3536
 3082TIP3    H130805   3.666   2.377   2.440 -0.6147  0.3359 -0.8770
 3082TIP3    H230806   3.582   2.503   2.446 -0.1638  0.5911  0.3509
 3083TIP3   OH230807   5.486   0.787   1.741 -0.0096 -0.1891 -0.0190
 3083TIP3    H130808   5.493   0.696   1.771  1.4754  0.4539  1.8047
 3083TIP3    H230809   5.448   0.834   1.815  1.3570  1.0368 -0.0437
 3084TIP3   OH230810   0.268   2.949   0.935  0.3381 -0.4806 -0.8966
 3084TIP3    H130811   0.308   2.934   1.021 -0.4169  1.1618 -0.2253
 3084TIP3    H230812   0.335   2.921   0.872  0.7165 -2.1600  0.1966
 3085TIP3   OH230813   5.203   1.534   7.743  0.1075  0.1884  0.3708
 3085TIP3    H130814   5.248   1.536   7.659  3.0445  2.5943  1.7900
 3085TIP3    H230815   5.186   1.626   7.763 -1.8664 -0.4243  1.7836
 3086TIP3   OH230816   3.341   6.760   7.977  0.3635  0.2397  0.1543
 3086TIP3    H130817   3.387   6.722   8.051 -0.2584  1.8575  1.4316
 3086TIP3    H230818   3.397   6.832   7.948 -0.5389  1.1636  0.6508
 3087TIP3   OH230819   6.228   3.333   0.760 -0.8200  0.2599  0.4922
 3087TIP3    H130820   6.318   3.359   0.742 -0.8221  1.3120  1.8672
 3087TIP3    H230821   6.220   3.247   0.719  1.1467 -0.3550  1.2487
 3088TIP3   OH230822   5.125   3.434   7.539  0.7530 -0.2966  0.5904
 3088TIP3    H130823   5.176   3.364   7.582 -0.1829 -1.2127  0.2544
 3088TIP3    H230824   5.171   3.514   7.563  4.0952 -1.2056 -2.0318
 3089TIP3   OH230825   2.528   5.743   7.719  0.4333 -0.0746 -0.3073
 3089TIP3    H130826   2.505   5.764   7.628  0.0388 -0.4734 -0.3042
 3089TIP3    H230827   2.574   5.820   7.750 -0.4829  0.5634 -0.4749
 3090TIP3   OH230828   5.734   0.544   1.676  0.6321  0.0453 -0.4334
 3090TIP3    H130829   5.667   0.570   1.612  0.7714  1.5500  0.0074
 3090TIP3    H230830   5.764   0.458   1.645 -0.8188 -0.2245 -1.1716
 3091TIP3   OH230831   2.711   6.981   7.065 -0.3167  0.4683  0.4121
 3091TIP3    H130832   2.635   7.008   7.012  0.0959 -0.1316 -0.5153
 3091TIP3    H230833   2.784   6.978   7.003  0.4056  0.7352  1.2319
 3092TIP3   OH230834   2.712   6.526   0.269  0.4017 -0.3110  1.1198
 3092TIP3    H130835   2.737   6.611   0.231 -0.3078 -0.9434 -0.9332
 3092TIP3    H230836   2.751   6.461   0.210  1.4673 -1.4713  3.0177
 3093TIP3   OH230837   6.171   5.234   6.796 -0.7607  0.0595  0.0175
 3093TIP3    H130838   6.187   5.231   6.702 -1.3918  1.0180 -0.1290
 3093TIP3    H230839   6.238   5.176   6.833  0.6770  1.1003 -0.8652
 3094TIP3   OH230840   0.648   2.255   0.593 -0.3936 -0.1387  0.3078
 3094TIP3    H130841   0.700   2.279   0.517 -0.8510 -0.5226 -0.1341
 3094TIP3    H230842   0.558   2.254   0.561 -0.4972 -1.2737  0.5947
 3095TIP3   OH230843   1.253   3.240   6.854 -0.1622 -0.5418 -0.0421
 3095TIP3    H130844   1.176   3.293   6.873  1.8370  3.3776 -1.7225
 3095TIP3    H230845   1.296   3.226   6.939 -0.0081  1.9610  0.3506
 3096TIP3   OH230846   0.129   1.535   7.427 -0.2022 -0.7590 -0.1148
 3096TIP3    H130847   0.194   1.509   7.361  0.6746 -0.8064  0.7460
 3096TIP3    H230848   0.073   1.458   7.436  0.6579 -1.3453  0.3603
 3097TIP3   OH230849   3.769   3.997   7.914 -0.4203 -0.1860 -0.4910
 3097TIP3    H130850   3.846   3.985   7.969  1.0349 -0.9878 -2.5737
 3097TIP3    H230851   3.709   4.049   7.968  1.0975 -0.4723  1.6085
 3098TIP3   OH230852   1.771   2.247   7.143 -0.0102  0.1173 -0.2536
 3098TIP3    H130853   1.823   2.301   7.084  1.6737 -0.9589  0.1449
 3098TIP3    H230854   1.734   2.308   7.206 -1.4035  1.2215 -2.0347
 3099TIP3   OH230855   4.744   6.121   1.940  0.0234  0.8284  0.1871
 3099TIP3    H130856   4.768   6.150   1.851 -1.1567 -0.1267 -0.4765
 3099TIP3    H230857   4.825   6.087   1.977  0.8778  2.6522  0.0645
 3100TIP3   OH230858   5.693   5.799   1.802 -0.5765 -0.0512  0.2638
 3100TIP3    H130859   5.785   5.824   1.797 -0.7951  0.5594 -1.3550
 3100TIP3    H230860   5.656   5.828   1.718 -2.3582  0.1971  1.0940
 3101TIP3   OH230861   0.970   1.169   1.241  0.0410  0.3098  0.0410
 3101TIP3    H130862   0.921   1.125   1.171 -1.3181  2.5120 -0.4690
 3101TIP3    H230863   0.910   1.169   1.315  0.9650 -0.7839  0.8294
 3102TIP3   OH230864   1.077   3.667   7.495 -0.6570 -0.2043 -0.4733
 3102TIP3    H130865   1.112   3.632   7.577 -0.1794  2.5826  0.6044
 3102TIP3    H230866   1.021   3.739   7.521  0.4533  1.5500 -2.6211
 3103TIP3   OH230867   5.850   1.068   0.757  0.3811 -0.0910  0.6088
 3103TIP3    H130868   5.908   1.142   0.745 -1.7285  1.7011  0.7355
 3103TIP3    H230869   5.864   1.013   0.680  0.7643  1.3553 -0.3950
 3104TIP3   OH230870   4.838   2.873   1.287  0.3336 -0.0060 -0.2038
 3104TIP3    H130871   4.916   2.835   1.328  0.7770  0.0502 -0.9589
 3104TIP3    H230872   4.795   2.922   1.357  1.2048  0.3100  0.1285
 3105TIP3   OH230873   5.528   5.555   8.150  0.2189  0.0703  1.1004
 3105TIP3    H130874   5.498   5.552   8.241 -0.7947 -1.7144  0.7406
 3105TIP3    H230875   5.448   5.548   8.098  0.6580  2.1700  0.0012
 3106TIP3   OH230876   1.590   3.512   8.132  0.6845  0.1585 -0.7228
 3106TIP3    H130877   1.568   3.443   8.195  1.7225 -0.3834 -0.9278
 3106TIP3    H230878   1.558   3.478   8.048 -2.2371  1.6122 -0.3146
 3107TIP3   OH230879   3.054   2.277   1.374  0.3096 -0.4635 -0.4829
 3107TIP3    H130880   3.051   2.301   1.467  1.5402  0.0116 -0.5434
 3107TIP3    H230881   3.050   2.360   1.328  0.3337 -0.6537 -0.8281
 3108TIP3   OH230882   2.288   2.970   5.978 -0.2431 -0.1961  0.3857
 3108TIP3    H130883   2.365   3.027   5.981 -0.1724 -0.3423  2.3794
 3108TIP3    H230884   2.215   3.027   5.999 -0.5283 -0.3376 -0.1833
 3109TIP3   OH230885   4.606   0.692   1.290 -0.3656  0.3476 -0.2568
 3109TIP3    H130886   4.620   0.618   1.231  1.0248  0.4196 -0.0540
 3109TIP3    H230887   4.525   0.672   1.336 -0.1554 -0.9155 -0.4131
 3110TIP3   OH230888   0.574   2.193   7.933  0.2894 -0.5976 -0.2609
 3110TIP3    H130889   0.517   2.156   8.000 -0.7684 -0.2512 -0.9524
 3110TIP3    H230890   0.628   2.257   7.980 -1.6573  0.9461  0.0047
 3111TIP3   OH230891   4.570   4.704   7.504 -0.6335  0.0463 -0.1760
 3111TIP3    H130892   4.576   4.786   7.553 -0.2876  0.8246 -1.4761
 3111TIP3    H230893   4.604   4.637   7.564 -0.9125  0.8460  0.8940
 3112TIP3   OH230894   0.765   4.459   0.705  0.1065  0.7820 -0.5670
 3112TIP3    H130895   0.816   4.393   0.657  0.0729 -0.6810  1.3032
 3112TIP3    H230896   0.824   4.535   0.711  1.0447  0.0960 -0.7770
 3113TIP3   OH230897   3.191   3.780   0.843 -0.8081 -0.1504 -0.2934
 3113TIP3    H130898   3.101   3.748   0.842 -0.5080 -1.0196 -1.0099
 3113TIP3    H230899   3.244   3.702   0.857 -0.0096 -0.1158 -2.6531
 3114TIP3   OH230900   2.141   4.456   1.058 -0.6154  0.0935  0.2038
 3114TIP3    H130901   2.181   4.543   1.065 -0.1088 -0.0666 -0.6391
 3114TIP3    H230902   2.058   4.464   1.106 -0.9969  1.2981 -0.6028
 3115TIP3   OH230903   3.499   2.198   0.818  0.8307 -0.7074 -0.2202
 3115TIP3    H130904   3.524   2.142   0.892  0.4598  0.8678  1.1430
 3115TIP3    H230905   3.467   2.278   0.859 -2.4132 -0.9640 -1.9918
 3116TIP3   OH230906   3.521   0.978   7.801 -0.0999 -0.2378  0.1881
 3116TIP3    H130907   3.473   0.896   7.788  0.6559 -0.6413 -0.0532
 3116TIP3    H230908   3.608   0.952   7.828  0.4405  0.4662 -0.8022
 3117TIP3   OH230909   4.972   1.298   1.955  1.1750 -0.0968 -0.0079
 3117TIP3    H130910   4.995   1.279   2.046  1.6964 -1.0924 -0.3387
 3117TIP3    H230911   5.056   1.318   1.913  0.8512  1.1070 -0.1055
 3118TIP3   OH230912   0.362   2.962   6.990  0.5555 -0.3141 -0.5342
 3118TIP3    H130913   0.352   2.868   6.976  0.5863 -0.4329  0.2255
 3118TIP3    H230914   0.289   3.001   6.943  1.4284 -0.5919 -2.2135
 3119TIP3   OH230915   1.786   3.254   7.857  0.2353 -0.4055 -0.7348
 3119TIP3    H130916   1.841   3.251   7.935 -0.1632  0.6828 -0.3945
 3119TIP3    H230917   1.704   3.214   7.883  0.3425 -0.6702 -0.8018
 3120TIP3   OH230918   6.661   2.425   0.886  0.2168  0.9231  0.2763
 3120TIP3    H130919   6.684   2.333   0.869  1.1608  1.3257 -0.6855
 3120TIP3    H230920   6.585   2.419   0.944  1.1991 -0.4538  1.5020
 3121TIP3   OH230921   0.924   5.703   0.152  0.1308 -0.3257  0.1607
 3121TIP3    H130922   0.894   5.693   0.061 -0.9294  0.4287  0.4037
 3121TIP3    H230923   0.910   5.618   0.192  0.2615 -0.5622 -0.2926
 3122TIP3   OH230924   4.132   5.205   7.405  0.6305 -0.0080 -0.0494
 3122TIP3    H130925   4.042   5.171   7.407  0.6259  0.0104  0.0961
 3122TIP3    H230926   4.125   5.288   7.359  0.8070 -0.6660 -1.2906
 3123TIP3   OH230927   5.580   6.101   7.922 -0.1267 -0.3358 -0.7709
 3123TIP3    H130928   5.512   6.139   7.867 -0.0501  1.8049  0.4880
 3123TIP3    H230929   5.566   6.140   8.008  0.3714 -2.7905  0.5156
 3124TIP3   OH230930   0.368   6.768   1.217  0.2714 -0.2065 -0.4436
 3124TIP3    H130931   0.282   6.803   1.196  0.8170  2.1063  0.8605
 3124TIP3    H230932   0.350   6.689   1.269 -1.0544  0.0639 -0.4620
 3125TIP3   OH230933   4.089   6.704   7.631  0.3827 -0.1246  0.0201
 3125TIP3    H130934   4.172   6.669   7.600 -0.5562 -1.5261 -1.0377
 3125TIP3    H230935   4.042   6.730   7.552 -0.0659  0.9477  0.6200
 3126TIP3   OH230936   1.122   0.284   1.656 -0.0165 -0.1491  0.7104
 3126TIP3    H130937   1.130   0.373   1.691  0.3894  1.0600 -2.1589
 3126TIP3    H230938   1.032   0.280   1.623  0.3522 -0.3122 -0.3106
 3127TIP3   OH230939   6.558   3.447   7.284 -0.3069 -0.3582 -0.3666
 3127TIP3    H130940   6.579   3.391   7.209 -0.7582 -0.0808 -0.7056
 3127TIP3    H230941   6.588   3.397   7.360 -1.4198 -1.4280 -0.5920
 3128TIP3   OH230942   3.933   1.557   0.056 -0.3289  0.0963  0.3482
 3128TIP3    H130943   3.849   1.517   0.077 -0.4425  0.0523 -0.1876
 3128TIP3    H230944   3.997   1.488   0.075 -0.5718 -0.6071 -1.2317
 3129TIP3   OH230945   4.075   6.674   8.133  0.4283 -0.2743  0.2439
 3129TIP3    H130946   3.981   6.671   8.117  0.5839 -0.0096 -0.8126
 3129TIP3    H230947   4.114   6.656   8.047  1.3429 -1.1427  0.8276
 3130TIP3   OH230948   4.360   6.389   7.454  0.0587  0.1315 -0.5152
 3130TIP3    H130949   4.316   6.474   7.465  2.1176  1.4380 -1.5515
 3130TIP3    H230950   4.393   6.391   7.364  0.4402 -1.6526 -0.4537
 3131TIP3   OH230951   1.594   2.687   2.091  0.2734 -0.4024 -0.0962
 3131TIP3    H130952   1.653   2.724   2.157 -1.3093 -0.0466  1.1815
 3131TIP3    H230953   1.566   2.604   2.128 -0.2109 -0.4603 -0.5862
 3132TIP3   OH230954   6.448   6.171   1.010 -0.1580 -0.2706 -0.0867
 3132TIP3    H130955   6.482   6.148   0.923  0.4633 -0.1733  0.1232
 3132TIP3    H230956   6.441   6.267   1.008 -1.6686 -0.3703 -0.5722
 3133TIP3   OH230957   2.171   0.661   1.738  0.1996 -0.3400  0.4286
 3133TIP3    H130958   2.221   0.720   1.795  0.5687 -0.4653  0.2432
 3133TIP3    H230959   2.116   0.611   1.797  1.1765 -1.0460  0.7736
 3134TIP3   OH230960   1.569   1.712   6.935 -0.1645  0.1869  0.2789
 3134TIP3    H130961   1.581   1.629   6.890 -0.5284 -0.8780  2.0577
 3134TIP3    H230962   1.485   1.745   6.904  0.6307  0.6328 -1.5080
 3135TIP3   OH230963   3.411   3.706   1.801  0.7381 -0.4065  0.2859
 3135TIP3    H130964   3.342   3.770   1.819  0.0974 -0.6993 -1.0518
 3135TIP3    H230965   3.444   3.683   1.888  0.4056  1.0836  0.8523
 3136TIP3   OH230966   3.107   4.651   7.251 -0.0147  0.2798  0.1465
 3136TIP3    H130967   3.119   4.635   7.157 -0.1007  2.1385 -0.2192
 3136TIP3    H230968   3.159   4.583   7.294  0.1363 -0.5156 -1.2371
 3137TIP3   OH230969   4.399   4.671   0.583  0.1840 -0.0263 -0.2389
 3137TIP3    H130970   4.467   4.613   0.618 -1.0519 -0.9411  0.7254
 3137TIP3    H230971   4.403   4.658   0.488  0.6030 -0.9288 -0.1068
 3138TIP3   OH230972   3.142   4.936   8.180  0.0502  0.1257  0.0142
 3138TIP3    H130973   3.123   4.964   8.270  0.4538  1.4776 -0.2982
 3138TIP3    H230974   3.058   4.942   8.135 -0.2610 -1.0452  0.4035
 3139TIP3   OH230975   5.832   4.081   0.060  0.0059  0.1366 -0.3603
 3139TIP3    H130976   5.761   4.099   0.121  0.0183 -0.7655 -0.0670
 3139TIP3    H230977   5.807   4.125  -0.021 -1.7932 -1.6690 -0.8565
 3140TIP3   OH230978   4.649   0.589   2.330 -0.7778  0.2229 -0.1739
 3140TIP3    H130979   4.644   0.638   2.247 -0.5801 -0.6283 -0.7031
 3140TIP3    H230980   4.561   0.594   2.366 -0.3025  2.7642  0.8752
 3141TIP3   OH230981   3.425   0.140   2.895 -0.0196 -0.3911 -0.5329
 3141TIP3    H130982   3.419   0.209   2.829 -1.3371  1.7692  1.6423
 3141TIP3    H230983   3.335   0.115   2.912  0.1700 -0.0450  1.2017
 3142TIP3   OH230984   7.002   5.079   2.316 -0.3643  0.2873  0.1730
 3142TIP3    H130985   7.001   5.173   2.334 -0.4409  0.6074 -1.3594
 3142TIP3    H230986   7.063   5.043   2.381 -0.4533  1.3584  0.8865
 3143TIP3   OH230987   5.414   0.530   6.831 -0.0765 -0.0004 -0.0193
 3143TIP3    H130988   5.379   0.477   6.903 -1.7911  1.0703 -0.0155
 3143TIP3    H230989   5.438   0.613   6.872  3.8914 -1.0692  0.2441
 3144TIP3   OH230990   4.458   3.710   7.907  0.0396  0.1269  0.1742
 3144TIP3    H130991   4.483   3.776   7.972 -0.1842 -1.5977  2.1236
 3144TIP3    H230992   4.539   3.689   7.862  0.7659 -0.4769  1.6983
 3145TIP3   OH230993   5.888   5.984   1.811 -0.6942 -0.2334  0.7180
 3145TIP3    H130994   5.945   6.036   1.868  0.5204 -3.1107  2.3695
 3145TIP3    H230995   5.931   5.986   1.725 -1.3317  2.3190  0.3812
 3146TIP3   OH230996   5.810   5.512   7.406 -0.2997 -0.3054  0.0663
 3146TIP3    H130997   5.810   5.571   7.482  0.5439 -0.0179 -0.1418
 3146TIP3    H230998   5.778   5.566   7.334  1.4910  0.2587 -0.3618
 3147TIP3   OH230999   5.048   0.368   1.059  0.3268 -0.2669  0.0475
 3147TIP3    H131000   5.052   0.332   0.971  1.6152  0.0069 -0.0319
 3147TIP3    H231001   5.126   0.332   1.103 -0.4457 -0.6307  1.1674
 3148TIP3   OH231002   6.798   3.257   2.097  0.6433 -0.6338 -0.5219
 3148TIP3    H131003   6.879   3.222   2.132  0.1147 -0.2507  1.2014
 3148TIP3    H231004   6.738   3.182   2.094  1.2427 -1.0844 -2.5266
 3149TIP3   OH231005   3.063   5.263   0.029 -0.1775 -0.0613  0.0497
 3149TIP3    H131006   3.056   5.252  -0.066 -0.6842 -0.9940  0.1921
 3149TIP3    H231007   3.016   5.188   0.066  1.3978 -0.5909  1.0457
 3150TIP3   OH231008   3.027   1.847   1.583 -0.2023  0.0250 -0.1322
 3150TIP3    H131009   2.935   1.823   1.573 -0.4280  1.5809 -2.4927
 3150TIP3    H231010   3.072   1.765   1.603 -2.0666 -0.7534  1.1205
 3151TIP3   OH231011   1.581   6.252   1.731 -0.0332  0.1549  0.5072
 3151TIP3    H131012   1.516   6.248   1.661  1.0510  2.3401 -0.7426
 3151TIP3    H231013   1.624   6.167   1.729 -0.3930 -0.0247 -1.1551
 3152TIP3   OH231014   2.149   5.087   0.877 -0.7542  0.3248 -0.3311
 3152TIP3    H131015   2.112   5.021   0.817 -1.6761  0.0080  0.5621
 3152TIP3    H231016   2.192   5.150   0.819 -2.3637  0.4894 -1.4104
 3153TIP3   OH231017   5.781   1.547   7.308 -0.2762  0.0694 -0.1092
 3153TIP3    H131018   5.809   1.629   7.268  0.0722  0.0370  0.0595
 3153TIP3    H231019   5.700   1.568   7.354 -0.2793  0.2779 -0.2130
 3154TIP3   OH231020   2.401   6.942   2.666 -0.4594  0.4352 -0.0199
 3154TIP3    H131021   2.371   7.009   2.605 -1.2486  1.9795  1.9537
 3154TIP3    H231022   2.339   6.946   2.739 -0.7761 -2.7798 -0.0033
 3155TIP3   OH231023   2.603   6.445   1.110  0.1453  0.1101  0.1009
 3155TIP3    H131024   2.579   6.512   1.046 -0.8669  0.3904  0.7452
 3155TIP3    H231025   2.697   6.433   1.098 -0.0083  0.2316 -1.3493
 3156TIP3   OH231026   5.894   3.474   0.394 -0.1971 -0.2416 -0.0529
 3156TIP3    H131027   5.883   3.457   0.487 -0.7371  0.1464 -0.0414
 3156TIP3    H231028   5.833   3.413   0.351  0.6141 -0.9752 -0.2010
 3157TIP3   OH231029   3.387   1.879   6.346 -0.8010  0.2053  0.6292
 3157TIP3    H131030   3.340   1.957   6.375 -0.4740  0.8134 -0.4150
 3157TIP3    H231031   3.341   1.852   6.266  0.1174  0.3543  0.0295
 3158TIP3   OH231032   3.981   5.785   6.539  0.3214 -0.0584 -0.0682
 3158TIP3    H131033   3.935   5.869   6.539 -1.7231 -1.0855 -2.0607
 3158TIP3    H231034   4.022   5.781   6.625 -2.2893  1.5208  1.3847
 3159TIP3   OH231035   5.716   2.521   1.878  0.4065 -0.1469 -0.7846
 3159TIP3    H131036   5.684   2.600   1.835 -0.4218 -0.7728 -1.3694
 3159TIP3    H231037   5.752   2.551   1.961 -1.3452  0.6794 -0.2759
 3160TIP3   OH231038   2.581   1.977   1.380  0.0773 -0.6827  0.8915
 3160TIP3    H131039   2.499   1.978   1.430 -0.2675  0.0493  0.3213
 3160TIP3    H231040   2.576   2.054   1.324  0.8672 -1.0004  0.3715
 3161TIP3   OH231041   5.304   6.985   0.394  0.9694 -0.7031  0.1337
 3161TIP3    H131042   5.335   7.051   0.456  0.1887 -0.0848 -0.1175
 3161TIP3    H231043   5.277   7.035   0.317 -0.0419 -1.2645  0.1044
 3162TIP3   OH231044   5.134   2.945   6.599  0.0817 -0.1321  0.1282
 3162TIP3    H131045   5.117   2.851   6.600  2.2237 -0.5974 -1.6272
 3162TIP3    H231046   5.047   2.985   6.604 -0.8816 -2.1773  0.6464
 3163TIP3   OH231047   3.006   6.419   7.052 -0.3962  0.2264  0.8076
 3163TIP3    H131048   3.001   6.463   7.136  1.6265  1.0031  0.5710
 3163TIP3    H231049   3.077   6.355   7.062  0.4330  0.8790 -0.5051
 3164TIP3   OH231050   3.175   3.803   7.209  0.1826  0.3153  0.3302
 3164TIP3    H131051   3.135   3.862   7.145  2.4985  0.6735 -0.8801
 3164TIP3    H231052   3.206   3.729   7.158  2.3140  0.7343  0.9204
 3165TIP3   OH231053   6.607   5.612   0.746  0.1520 -0.1592  0.2689
 3165TIP3    H131054   6.533   5.619   0.807 -1.7777 -0.2602 -1.9124
 3165TIP3    H231055   6.599   5.523   0.711 -0.3715  0.6840 -1.9232
 3166TIP3   OH231056   1.448   5.528   1.237 -0.0284  0.1568  0.3732
 3166TIP3    H131057   1.392   5.469   1.288  0.1101 -0.6855 -0.4254
 3166TIP3    H231058   1.527   5.539   1.290 -0.0306 -0.4278  0.5007
 3167TIP3   OH231059   6.905   3.824   1.656 -0.3993  0.3839 -0.2049
 3167TIP3    H131060   6.981   3.851   1.606 -1.2249  1.8261 -0.7342
 3167TIP3    H231061   6.871   3.748   1.609 -0.0029  0.4858 -0.6614
 3168TIP3   OH231062   4.330   1.599   8.150 -0.0078  0.0127 -0.0021
 3168TIP3    H131063   4.285   1.674   8.190  0.7953  1.0037 -0.9028
 3168TIP3    H231064   4.259   1.544   8.116 -0.6736 -0.4434  1.9854
 3169TIP3   OH231065   2.715   0.590   7.142 -0.3821 -0.3744  0.0647
 3169TIP3    H131066   2.625   0.605   7.173 -0.3350  2.4530 -0.8534
 3169TIP3    H231067   2.764   0.663   7.179  1.4254 -1.4809 -0.0616
 3170TIP3   OH231068   2.803   5.593   7.442 -0.3066 -0.3493  0.1367
 3170TIP3    H131069   2.791   5.688   7.436 -1.6171 -0.4874  0.4087
 3170TIP3    H231070   2.843   5.569   7.358 -2.5302  0.0774 -1.1016
 3171TIP3   OH231071   3.724   1.458   2.016 -0.0127  0.0303 -0.4891
 3171TIP3    H131072   3.713   1.510   2.096 -0.7420  0.9377 -1.1498
 3171TIP3    H231073   3.796   1.501   1.970 -1.5099  1.3972 -1.6986
 3172TIP3   OH231074   2.026   0.182   0.528  0.0441 -0.2047  1.2009
 3172TIP3    H131075   2.077   0.260   0.508 -1.4816  0.5487 -0.0410
 3172TIP3    H231076   1.960   0.212   0.592 -1.0623 -0.2315  0.1121
 3173TIP3   OH231077   3.991   6.833   1.559  0.6137  0.2314  0.3596
 3173TIP3    H131078   3.920   6.780   1.523  0.1843 -0.0963  1.6200
 3173TIP3    H231079   4.066   6.773   1.564  0.2346 -0.1818  1.4292
 3174TIP3   OH231080   2.790   4.576   1.571  0.4000 -0.9197  0.2346
 3174TIP3    H131081   2.701   4.566   1.604  0.7753 -0.0573  1.5925
 3174TIP3    H231082   2.842   4.514   1.622  0.9041  0.0667  0.9515
 3175TIP3   OH231083   1.245   2.610   7.487  0.3654  0.1083 -0.9619
 3175TIP3    H131084   1.226   2.546   7.555 -0.2230  1.5152  0.2596
 3175TIP3    H231085   1.214   2.693   7.523  0.4638  0.9792 -2.7684
 3176TIP3   OH231086   1.500   0.432   6.885 -0.7738  0.4072  0.1797
 3176TIP3    H131087   1.473   0.360   6.827 -1.7316  1.0569 -0.2090
 3176TIP3    H231088   1.423   0.489   6.890 -0.2335  1.0942  0.9740
 3177TIP3   OH231089   4.557   4.612   8.011  0.5286 -0.3597 -0.2252
 3177TIP3    H131090   4.518   4.542   8.062  0.6844 -1.6837 -1.8455
 3177TIP3    H231091   4.647   4.619   8.045  0.1894 -0.1933  0.6576
 3178TIP3   OH231092   1.694   6.348   7.670  0.4020  0.4757 -0.6879
 3178TIP3    H131093   1.716   6.271   7.723  1.7531  1.7290  0.6790
 3178TIP3    H231094   1.743   6.419   7.711 -1.2174  2.1784 -1.5946
 3179TIP3   OH231095   1.313   5.382   6.442  0.6254  0.5223  0.0319
 3179TIP3    H131096   1.236   5.412   6.393  0.9204  0.1319 -0.6841
 3179TIP3    H231097   1.355   5.319   6.384  1.2307  0.3810  0.6148
 3180TIP3   OH231098   1.719   2.296   1.245  0.4250  0.0136 -0.4556
 3180TIP3    H131099   1.713   2.288   1.340  1.4917  2.1095 -0.1497
 3180TIP3    H231100   1.805   2.334   1.230 -1.0322  3.1454 -1.9328
 3181TIP3   OH231101   6.504   2.592   7.826 -0.1771 -0.0943  0.1798
 3181TIP3    H131102   6.428   2.539   7.803 -1.1328  1.5143 -0.5649
 3181TIP3    H231103   6.473   2.648   7.897  0.6824 -0.2322  0.6747
 3182TIP3   OH231104   6.882   5.364   1.429 -0.5140  0.2392 -0.1927
 3182TIP3    H131105   6.847   5.293   1.483 -0.3353  2.2996  2.8325
 3182TIP3    H231106   6.938   5.319   1.365 -3.4871 -2.6010 -1.0763
 3183TIP3   OH231107   2.254   3.481   6.373  0.5913 -0.3223 -0.4268
 3183TIP3    H131108   2.286   3.563   6.409  0.5796 -1.1622  1.6611
 3183TIP3    H231109   2.286   3.480   6.283  1.5885  1.4172 -0.1408
 3184TIP3   OH231110   6.635   3.752   0.987  0.2076  0.1258  0.1721
 3184TIP3    H131111   6.669   3.809   0.918 -2.0497 -1.6999 -2.6855
 3184TIP3    H231112   6.696   3.679   0.990  1.0241  0.8264  1.1057
 3185TIP3   OH231113   5.188   0.802   2.617 -0.6637 -0.4523 -0.5619
 3185TIP3    H131114   5.183   0.834   2.527 -0.3100 -0.9722 -0.7696
 3185TIP3    H231115   5.118   0.738   2.624 -0.9279 -0.1438 -0.3531
 3186TIP3   OH231116   2.307   5.479   1.388  0.4089 -0.0494  0.5104
 3186TIP3    H131117   2.326   5.546   1.322 -0.5796  1.4426  1.6686
 3186TIP3    H231118   2.392   5.440   1.408  0.6230 -1.1661 -2.2471
 3187TIP3   OH231119   4.064   5.699   0.435  0.3048  0.5666 -0.0284
 3187TIP3    H131120   4.074   5.793   0.446  1.3004  0.6227 -1.2812
 3187TIP3    H231121   3.999   5.674   0.501 -0.4505  2.2209 -0.1103
 3188TIP3   OH231122   3.957   6.432   7.007  0.1655  0.1523 -0.2825
 3188TIP3    H131123   3.945   6.525   7.027  0.5449  0.0131  0.6357
 3188TIP3    H231124   4.014   6.400   7.076  1.2965 -0.4363 -1.4570
 3189TIP3   OH231125   4.709   2.766   7.731  0.4600 -0.2111 -0.1120
 3189TIP3    H131126   4.734   2.805   7.647  2.1300  2.9859  1.6733
 3189TIP3    H231127   4.614   2.761   7.727  0.3197  2.0501 -1.3932
 3190TIP3   OH231128   1.736   5.883   7.118  0.2875  0.1206 -0.1287
 3190TIP3    H131129   1.804   5.916   7.178 -0.0703 -0.7797  0.8132
 3190TIP3    H231130   1.745   5.788   7.123  1.4095 -0.0236 -2.9024
 3191TIP3   OH231131   2.987   3.045   0.873  0.4830 -0.3849 -0.0564
 3191TIP3    H131132   3.065   3.023   0.823 -0.0824 -1.2945 -0.5691
 3191TIP3    H231133   3.021   3.079   0.956  1.4214 -0.2620 -0.4760
 3192TIP3   OH231134   0.435   5.676   0.107  0.3942  0.1906 -0.2131
 3192TIP3    H131135   0.480   5.611   0.054  0.7819  1.5461 -1.5942
 3192TIP3    H231136   0.364   5.708   0.052 -0.7896 -0.1776  1.0422
 3193TIP3   OH231137   6.691   0.412   0.951 -0.0989 -0.7782  0.0469
 3193TIP3    H131138   6.687   0.325   0.912 -0.2974 -0.9554  0.4545
 3193TIP3    H231139   6.600   0.443   0.951  0.2165  0.3515 -2.1082
 3194TIP3   OH231140   2.929   2.300   1.959  0.5374  0.1260 -0.2340
 3194TIP3    H131141   2.872   2.343   1.895 -1.6119 -0.0091  1.4673
 3194TIP3    H231142   2.896   2.330   2.043  1.7221 -1.5700  0.8772
 3195TIP3   OH231143   0.848   5.438   6.731 -0.0623  0.0773 -0.1151
 3195TIP3    H131144   0.872   5.494   6.805  0.9499 -0.5603  0.0522
 3195TIP3    H231145   0.825   5.500   6.661 -1.5830  0.6864  0.8753
 3196TIP3   OH231146   3.643   1.973   0.941 -0.4723 -0.3601 -0.3010
 3196TIP3    H131147   3.592   1.942   0.866 -2.1279 -0.7112  0.9291
 3196TIP3    H231148   3.578   2.001   1.005  0.9130  1.3686  0.4504
 3197TIP3   OH231149   3.454   1.807   6.921 -0.1549 -0.4677 -0.5822
 3197TIP3    H131150   3.418   1.849   6.843  0.7979  1.8271  0.1355
 3197TIP3    H231151   3.511   1.738   6.887 -2.1454 -1.6244 -1.7857
 3198TIP3   OH231152   1.289   4.832   6.849  0.7535  0.3630 -0.5594
 3198TIP3    H131153   1.215   4.790   6.803  1.0993  0.3973 -1.1621
 3198TIP3    H231154   1.365   4.781   6.822  1.0920  0.9750 -0.7788
 3199TIP3   OH231155   0.519   5.896   7.919 -0.1989  0.0482  0.2629
 3199TIP3    H131156   0.441   5.933   7.960  0.2380  0.5147  0.6800
 3199TIP3    H231157   0.561   5.846   7.988 -0.1518 -0.2504  0.0219
 3200TIP3   OH231158   2.124   1.549   7.922 -0.3273 -0.7546 -0.1226
 3200TIP3    H131159   2.070   1.606   7.977  0.8899  0.6772 -0.3346
 3200TIP3    H231160   2.068   1.474   7.903 -1.9119  0.2433  0.3931
 3201TIP3   OH231161   6.643   5.802   0.019  0.3409 -0.1295  0.5002
 3201TIP3    H131162   6.561   5.783  -0.027  1.3268 -0.8213 -1.0531
 3201TIP3    H231163   6.699   5.840  -0.048  0.9332  1.4029  1.8138
 3202TIP3   OH231164   4.622   6.195   0.525  0.1397 -0.1670 -0.2207
 3202TIP3    H131165   4.571   6.277   0.530  0.3577 -0.0613  0.2680
 3202TIP3    H231166   4.679   6.197   0.602 -0.6591 -1.3314  0.4338
 3203TIP3   OH231167   1.102   0.996   0.817 -0.6627 -0.1547 -0.5950
 3203TIP3    H131168   1.048   1.012   0.740  0.2963  0.2994 -1.1879
 3203TIP3    H231169   1.160   1.072   0.822  0.8402 -1.2509 -0.7507
 3204TIP3   OH231170   2.616   4.092   0.919 -0.3856  0.2414 -0.1080
 3204TIP3    H131171   2.585   4.161   0.978  3.2807  0.4150  1.9569
 3204TIP3    H231172   2.579   4.011   0.955 -1.4003  0.7383 -0.0131
 3205TIP3   OH231173   5.731   3.681   7.811  0.2576  0.3494 -0.0632
 3205TIP3    H131174   5.741   3.733   7.891 -0.8705 -0.2989  0.5334
 3205TIP3    H231175   5.678   3.606   7.839  1.5602 -0.9381 -0.9792
 3206TIP3   OH231176   6.784   4.028   0.013 -0.0614  0.1131 -0.0500
 3206TIP3    H131177   6.713   4.004  -0.048 -1.1362 -0.2953  1.3040
 3206TIP3    H231178   6.772   4.122   0.028 -0.3769  0.0295  0.2359
 3207TIP3   OH231179   1.572   2.519   1.215  0.0386 -0.4191 -0.4922
 3207TIP3    H131180   1.621   2.550   1.139  1.7029 -2.4177 -0.3266
 3207TIP3    H231181   1.614   2.436   1.238 -0.7650 -0.1588  2.2837
 3208TIP3   OH231182   2.899   5.005   7.390 -0.0238  0.3504 -0.3096
 3208TIP3    H131183   2.873   5.077   7.448  1.2863  0.2186  0.4953
 3208TIP3    H231184   2.943   5.049   7.317  0.2915  0.4087 -0.0886
 3209TIP3   OH231185   1.307   3.663   7.351  0.7827 -0.2541  0.1183
 3209TIP3    H131186   1.227   3.661   7.404 -0.7059  2.3862 -1.7811
 3209TIP3    H231187   1.282   3.622   7.268  2.1172 -1.4339  0.2644
 3210TIP3   OH231188   2.340   1.298   2.705 -0.0112  0.1175 -0.0905
 3210TIP3    H131189   2.255   1.259   2.728  0.0179  1.3612  2.4730
 3210TIP3    H231190   2.405   1.235   2.736  0.0648 -0.6945 -1.7842
 3211TIP3   OH231191   4.126   2.666   3.080 -0.6745 -0.1500  0.0972
 3211TIP3    H131192   4.218   2.653   3.057  0.1337 -0.1973  3.0345
 3211TIP3    H231193   4.082   2.674   2.995  2.1742  1.0914 -1.4128
 3212TIP3   OH231194   2.497   4.314   1.071 -0.2466  0.2495 -0.1393
 3212TIP3    H131195   2.417   4.274   1.036 -0.4410  0.9332 -0.4808
 3212TIP3    H231196   2.505   4.397   1.026  1.3438 -0.3286 -1.0185
 3213TIP3   OH231197   3.308   1.833   2.872 -0.1509  0.0940  0.2102
 3213TIP3    H131198   3.300   1.928   2.857  1.1452  0.5555  2.0860
 3213TIP3    H231199   3.370   1.803   2.805 -0.0877  0.6812 -0.0064
 3214TIP3   OH231200   3.758   6.740   0.590 -0.4387  0.0344  0.1673
 3214TIP3    H131201   3.793   6.661   0.549 -0.6877 -0.4875  0.9445
 3214TIP3    H231202   3.750   6.718   0.682  0.5304  1.3467  0.5949
 3215TIP3   OH231203   3.251   1.395   0.493  0.0528 -0.2855  0.1174
 3215TIP3    H131204   3.167   1.427   0.461  1.7465  2.1183 -2.3821
 3215TIP3    H231205   3.252   1.419   0.586 -0.5336  3.3505 -0.6673
 3216TIP3   OH231206   4.475   4.298   7.705 -0.7149  0.3814  0.2766
 3216TIP3    H131207   4.423   4.265   7.778 -1.3112  0.1453 -0.2573
 3216TIP3    H231208   4.534   4.362   7.746 -0.0942 -0.7335  1.1896
 3217TIP3   OH231209   5.874   3.239   6.281  1.6676  0.4638 -0.0182
 3217TIP3    H131210   5.781   3.250   6.261  1.7086 -1.5119 -1.6964
 3217TIP3    H231211   5.881   3.256   6.375 -0.7284 -1.0589  0.5360
 3218TIP3   OH231212   5.142   1.897   0.501 -0.0601 -0.1986 -0.2319
 3218TIP3    H131213   5.208   1.829   0.517 -2.4150 -2.7767 -0.6567
 3218TIP3    H231214   5.091   1.899   0.582 -0.6760  0.3135 -0.6297
 3219TIP3   OH231215   0.945   4.275   1.330 -0.4419  0.5543 -0.1801
 3219TIP3    H131216   0.985   4.247   1.413 -0.3930 -1.6818 -0.8721
 3219TIP3    H231217   1.017   4.312   1.280  0.0404 -0.2271 -0.0816
 3220TIP3   OH231218   3.778   3.351   7.070 -0.0019  0.1632 -0.2160
 3220TIP3    H131219   3.828   3.412   7.015  2.3317 -2.6465 -1.4615
 3220TIP3    H231220   3.809   3.369   7.159  0.8552  0.6286 -0.5950
 3221TIP3   OH231221   4.897   1.303   2.907  0.8314  0.0969 -0.4019
 3221TIP3    H131222   4.934   1.299   2.819  1.1059  1.1705 -0.3468
 3221TIP3    H231223   4.973   1.300   2.965  0.6869 -0.0267 -0.2204
 3222TIP3   OH231224   6.213   3.314   0.100  0.0474  0.4481 -0.1771
 3222TIP3    H131225   6.228   3.351   0.013  0.0379 -1.3061 -0.9801
 3222TIP3    H231226   6.123   3.337   0.122 -0.4688 -0.4025 -1.3350
 3223TIP3   OH231227   4.075   3.403   1.991  0.2037 -0.1600 -0.0480
 3223TIP3    H131228   4.110   3.492   1.989 -0.9714  0.3157 -1.4207
 3223TIP3    H231229   4.150   3.347   2.011  1.0456  1.0891  0.3751
 3224TIP3   OH231230   3.280   3.837   6.373  0.0081  0.9538 -0.0361
 3224TIP3    H131231   3.205   3.788   6.339  0.8546  0.7445 -1.6815
 3224TIP3    H231232   3.333   3.771   6.418  1.1925  0.2422 -2.3241
 3225TIP3   OH231233   2.926   1.853   2.528  0.3007  0.1753 -0.1049
 3225TIP3    H131234   2.985   1.785   2.495  0.9703  1.9435 -2.8390
 3225TIP3    H231235   2.984   1.913   2.575 -0.2439 -0.8599  2.0171
 3226TIP3   OH231236   6.660   3.670   8.261  0.6051  0.0535  0.1854
 3226TIP3    H131237   6.749   3.676   8.296 -0.1684  0.5048  2.2666
 3226TIP3    H231238   6.611   3.624   8.330 -1.0764  1.1107 -0.2618
 3227TIP3   OH231239   0.522   2.436   0.214 -0.3936 -0.3345  0.1018
 3227TIP3    H131240   0.510   2.370   0.282  3.1551 -1.1737  0.1113
 3227TIP3    H231241   0.616   2.435   0.196 -0.4981  3.1760 -1.4987
 3228TIP3   OH231242   2.271   4.501   8.042 -0.2544  0.1836 -0.1089
 3228TIP3    H131243   2.358   4.530   8.014  0.2342 -1.2597 -0.1485
 3228TIP3    H231244   2.287   4.418   8.088 -1.7562 -0.9583 -1.5350
 3229TIP3   OH231245   3.858   0.383   0.241 -0.3204  0.4261  0.5820
 3229TIP3    H131246   3.779   0.402   0.291 -0.1053  0.3472  0.9545
 3229TIP3    H231247   3.889   0.300   0.276 -0.1197  0.4164  0.3809
 3230TIP3   OH231248   4.199   6.142   7.388  0.1393  0.4695 -0.5480
 3230TIP3    H131249   4.272   6.202   7.404  0.3732  0.1524 -0.4118
 3230TIP3    H231250   4.225   6.060   7.431 -0.7859  0.6800  0.4693
 3231TIP3   OH231251   0.134   4.516   1.532 -0.4906  0.7210  0.0967
 3231TIP3    H131252   0.118   4.571   1.455 -0.5096  0.0617 -0.3741
 3231TIP3    H231253   0.121   4.426   1.502  1.7406  0.2664  0.2545
 3232TIP3   OH231254   3.802   5.523   7.185 -0.7249 -0.2408  0.0724
 3232TIP3    H131255   3.753   5.584   7.130 -1.1906  0.2503  1.0062
 3232TIP3    H231256   3.772   5.436   7.157 -0.9269 -0.0059 -0.4636
 3233TIP3   OH231257   5.573   4.102   7.852 -0.2647  0.1639 -0.3094
 3233TIP3    H131258   5.573   4.143   7.938  0.3276  0.0589 -0.2548
 3233TIP3    H231259   5.487   4.061   7.845 -0.2109 -0.0752  0.3539
 3234TIP3   OH231260   4.467   2.107   0.637  0.1187  0.1410 -0.2907
 3234TIP3    H131261   4.391   2.130   0.690 -0.2337 -1.9394  0.2049
 3234TIP3    H231262   4.533   2.172   0.661 -1.5344  2.1741 -0.9363
 3235TIP3   OH231263   6.109   6.228   1.235  0.0415 -0.1911 -0.8214
 3235TIP3    H131264   6.166   6.304   1.248 -0.4076  0.3556 -1.9767
 3235TIP3    H231265   6.084   6.232   1.143 -3.6162  0.8542  0.0720
 3236TIP3   OH231266   5.038   6.547   0.818 -0.1016  0.5674  1.0126
 3236TIP3    H131267   5.063   6.636   0.792  0.5424  0.1746  0.2235
 3236TIP3    H231268   5.026   6.501   0.735 -2.2666  0.3746  1.3644
 3237TIP3   OH231269   0.561   4.542   8.211 -0.3805  0.0798 -0.0603
 3237TIP3    H131270   0.656   4.530   8.217 -0.5774 -1.6649  0.1407
 3237TIP3    H231271   0.547   4.582   8.125  0.6681  2.4139  0.7883
 3238TIP3   OH231272   0.380   6.818   0.738 -0.2094  0.4061  0.7562
 3238TIP3    H131273   0.408   6.908   0.723 -0.9673  0.4120 -0.7337
 3238TIP3    H231274   0.410   6.770   0.661  0.7177 -0.7718  1.8001
 3239TIP3   OH231275   7.006   6.766   0.995 -0.0442  0.1981  0.0993
 3239TIP3    H131276   7.054   6.740   0.916 -1.0732 -0.3349 -0.3623
 3239TIP3    H231277   6.914   6.762   0.970 -0.3919 -0.0001  1.3430
 3240TIP3   OH231278   3.024   3.469   2.392  0.4042  0.2144 -0.1672
 3240TIP3    H131279   3.070   3.505   2.316  1.1771  0.1641  0.2677
 3240TIP3    H231280   2.964   3.538   2.419  0.9242  0.6627 -0.1500
 3241TIP3   OH231281   1.878   5.585   0.695 -0.4318 -0.1817  0.3256
 3241TIP3    H131282   1.887   5.496   0.660 -0.9384  0.2435 -0.9445
 3241TIP3    H231283   1.918   5.581   0.781 -2.5358 -2.2611  1.3293
 3242TIP3   OH231284   0.418   1.713   7.006 -0.1646  0.4600 -0.2045
 3242TIP3    H131285   0.357   1.720   7.079 -0.1195  0.9739 -0.2104
 3242TIP3    H231286   0.493   1.767   7.032  0.8562 -1.1783  0.3588
 3243TIP3   OH231287   0.973   2.675   6.737  0.3694  0.3325 -0.2773
 3243TIP3    H131288   0.917   2.704   6.665  0.6963  1.0008 -0.2696
 3243TIP3    H231289   0.944   2.586   6.755 -1.7831  1.1560  0.7670
 3244TIP3   OH231290   2.941   0.267   7.808 -0.1636 -0.1353 -0.2147
 3244TIP3    H131291   2.994   0.310   7.876 -1.7728 -0.0817  1.0438
 3244TIP3    H231292   2.952   0.324   7.731 -1.6441  2.2486  1.1962
 3245TIP3   OH231293   0.288   5.310   8.210 -0.2599  0.1755 -0.0722
 3245TIP3    H131294   0.223   5.349   8.268  0.3548 -1.1780  1.6216
 3245TIP3    H231295   0.292   5.218   8.237  1.6617  0.0127 -0.7563
 3246TIP3   OH231296   0.390   4.666   7.385  0.1272 -0.0201  0.6311
 3246TIP3    H131297   0.312   4.615   7.363 -0.1475  0.7101 -0.1244
 3246TIP3    H231298   0.445   4.605   7.434 -1.2161 -0.3353  1.8133
 3247TIP3   OH231299   2.050   2.793   2.098  0.2924 -0.0870 -0.4628
 3247TIP3    H131300   2.039   2.852   2.173  0.7044  1.2369 -1.3896
 3247TIP3    H231301   1.993   2.719   2.117 -0.4140  0.7101  0.6681
 3248TIP3   OH231302   4.121   1.903   1.265 -0.2177  0.3219  0.1266
 3248TIP3    H131303   4.028   1.900   1.245 -0.0682 -1.3458 -0.4806
 3248TIP3    H231304   4.150   1.988   1.231 -2.0934  2.4005  3.2981
 3249TIP3   OH231305   6.470   0.242   6.573  0.6202  0.0384 -0.2603
 3249TIP3    H131306   6.499   0.160   6.613  0.8179 -0.0122 -0.5068
 3249TIP3    H231307   6.514   0.244   6.488  0.1695  0.1331 -0.4892
 3250TIP3   OH231308   6.176   6.234   8.292  0.3470  0.0239  0.0205
 3250TIP3    H131309   6.095   6.205   8.333  0.3241  1.3502  1.0058
 3250TIP3    H231310   6.172   6.200   8.202 -1.0164 -0.4141  0.2298
 3251TIP3   OH231311   1.498   2.269   1.049  0.0889 -0.1955  0.3910
 3251TIP3    H131312   1.584   2.283   1.090  0.1283 -1.2807  0.7312
 3251TIP3    H231313   1.507   2.303   0.961  1.4136 -1.7163 -0.1216
 3252TIP3   OH231314   2.515   0.924   1.511 -0.5304 -0.6086  0.2629
 3252TIP3    H131315   2.567   0.908   1.590  0.6257  0.2269 -0.2990
 3252TIP3    H231316   2.425   0.928   1.543 -0.0743 -0.0643  1.5730
 3253TIP3   OH231317   2.012   4.732   6.803  0.2002 -0.4986 -0.4489
 3253TIP3    H131318   1.998   4.684   6.884  1.6414 -1.8685 -0.9414
 3253TIP3    H231319   2.052   4.667   6.744 -1.3058  0.2717 -2.4538
 3254TIP3   OH231320   5.270   1.285   0.880  0.0925  0.7858  0.0185
 3254TIP3    H131321   5.205   1.252   0.942  0.9130 -0.8673  0.0544
 3254TIP3    H231322   5.347   1.231   0.895  1.2853  2.2935 -0.4598
 3255TIP3   OH231323   0.818   1.206   1.450  0.7439 -0.4767 -0.1376
 3255TIP3    H131324   0.781   1.183   1.536  1.0409 -1.0345 -0.1603
 3255TIP3    H231325   0.742   1.231   1.398  0.7034  1.7099  0.8295
 3256TIP3   OH231326   0.768   3.290   1.600 -0.2515  0.3759  0.0914
 3256TIP3    H131327   0.702   3.317   1.665  0.4517  0.2181  0.8957
 3256TIP3    H231328   0.840   3.256   1.653  0.2405  0.0129 -0.7975
 3257TIP3   OH231329   0.026   0.488   7.189  0.3508  0.1438 -0.1987
 3257TIP3    H131330  -0.026   0.563   7.159  0.2557  1.0878  2.1293
 3257TIP3    H231331   0.112   0.502   7.149  0.0070  0.8578 -0.7300
 3258TIP3   OH231332   5.080   6.303   1.577 -0.2249 -0.0563 -0.5715
 3258TIP3    H131333   5.055   6.266   1.661  0.0008  0.6034 -0.2043
 3258TIP3    H231334   5.071   6.231   1.515  0.2257 -0.7213  0.1241
 3259TIP3   OH231335   5.321   3.588   8.282  0.4386  0.0453  0.1041
 3259TIP3    H131336   5.350   3.665   8.330  2.1212 -0.0178 -0.7528
 3259TIP3    H231337   5.329   3.613   8.190 -1.1015 -0.4183 -0.1856
 3260TIP3   OH231338   1.054   6.404   6.852  0.2441 -0.8415 -0.7007
 3260TIP3    H131339   0.972   6.403   6.802  0.8171 -1.7603 -1.6438
 3260TIP3    H231340   1.026   6.426   6.941 -0.9602 -0.5523 -1.1235
 3261TIP3   OH231341   0.560   2.582   7.174 -0.1060  0.2110  0.6752
 3261TIP3    H131342   0.641   2.567   7.223  0.0709  0.6657  0.5220
 3261TIP3    H231343   0.558   2.676   7.158  1.4567 -0.1926 -2.9107
 3262TIP3   OH231344   1.054   2.292   7.566 -0.2602 -0.4054  0.4166
 3262TIP3    H131345   0.965   2.288   7.530  0.2892 -0.1131 -1.0633
 3262TIP3    H231346   1.101   2.223   7.520  0.5834  0.2689  0.2385
 3263TIP3   OH231347   4.818   0.298   7.312 -0.6513 -0.6473 -0.2517
 3263TIP3    H131348   4.744   0.294   7.251 -0.9116 -0.8810  0.0772
 3263TIP3    H231349   4.827   0.392   7.332 -2.7929 -0.8272  2.0313
 3264TIP3   OH231350   3.923   0.358   6.994  0.3256  0.2056  0.0662
 3264TIP3    H131351   3.937   0.277   6.945  1.5574 -0.1759  1.0252
 3264TIP3    H231352   3.903   0.423   6.926  0.8144 -0.5625 -0.8476
 3265TIP3   OH231353   1.047   3.340   7.031 -0.4426  1.1703 -0.0637
 3265TIP3    H131354   1.048   3.280   7.106  0.1767  2.1475  0.7207
 3265TIP3    H231355   0.994   3.414   7.059 -0.6570  1.3029 -0.7899
 3266TIP3   OH231356   5.037   2.498   7.167 -0.2383  0.1228 -0.0034
 3266TIP3    H131357   5.099   2.511   7.094  1.5554 -0.8394  1.2636
 3266TIP3    H231358   5.037   2.582   7.213 -0.9560  0.5609 -0.7769
 3267TIP3   OH231359   3.590   3.636   1.595 -0.2545 -0.1779 -0.3037
 3267TIP3    H131360   3.546   3.638   1.511 -1.2198  0.8636  0.1911
 3267TIP3    H231361   3.519   3.639   1.660  0.4674 -0.8239  0.5457
 3268TIP3   OH231362   2.871   3.782   0.010  0.1000  0.2580 -0.8427
 3268TIP3    H131363   2.857   3.775  -0.084 -0.1016 -3.5438 -0.7001
 3268TIP3    H231364   2.966   3.775   0.021  0.1227  0.6882 -0.7568
 3269TIP3   OH231365   1.039   1.017   0.209  0.2132  0.1368 -0.1115
 3269TIP3    H131366   1.078   0.968   0.281 -0.7666 -0.0091  0.3416
 3269TIP3    H231367   0.983   1.083   0.252  0.6731  0.9470 -0.7213
 3270TIP3   OH231368   2.423   3.491   1.826  0.1376  0.2156  0.2948
 3270TIP3    H131369   2.494   3.426   1.826  0.9240  1.0315 -0.6463
 3270TIP3    H231370   2.435   3.540   1.908  1.5862  1.2675 -0.4953
 3271TIP3   OH231371   6.073   3.717   0.757  0.6713 -0.1500  0.0570
 3271TIP3    H131372   6.166   3.737   0.745  0.6150 -1.0205 -2.3811
 3271TIP3    H231373   6.071   3.658   0.833  2.1122 -0.0998  0.1666
 3272TIP3   OH231374   1.086   5.814   7.116  0.0296 -0.3171 -0.1163
 3272TIP3    H131375   1.076   5.895   7.067 -1.4946 -1.5871 -2.0400
 3272TIP3    H231376   1.141   5.838   7.191 -1.5984  2.8125  0.2414
 3273TIP3   OH231377   4.122   0.057   7.659 -0.5094 -0.1105  0.6017
 3273TIP3    H131378   4.171   0.001   7.599 -2.1504 -0.6980 -0.2557
 3273TIP3    H231379   4.030   0.040   7.639 -1.0885  1.8519  1.2940
 3274TIP3   OH231380   2.820   3.368   1.094  0.0698  0.6876  0.3049
 3274TIP3    H131381   2.808   3.424   1.171  0.3737  0.0768  0.8010
 3274TIP3    H231382   2.905   3.395   1.058  1.2898 -0.9320  1.8212
 3275TIP3   OH231383   4.570   1.098   7.054  0.2234 -0.7849  0.1265
 3275TIP3    H131384   4.549   1.176   7.002 -1.2963 -1.8849 -1.0026
 3275TIP3    H231385   4.661   1.110   7.080 -0.0049  1.4212  0.0910
 3276TIP3   OH231386   6.833   4.683   7.324  0.0842  0.9026 -0.1747
 3276TIP3    H131387   6.908   4.646   7.278  0.0988  0.5811  0.1083
 3276TIP3    H231388   6.866   4.762   7.365 -0.0124  1.3946 -1.0092
 3277TIP3   OH231389   4.059   0.984   7.700  0.2415  0.3500 -0.6189
 3277TIP3    H131390   4.025   0.911   7.752 -1.0339  1.2794 -0.0815
 3277TIP3    H231391   4.109   1.036   7.762  1.7488 -0.4036 -1.1579
 3278TIP3   OH231392   6.281   6.027   0.175 -0.5592  0.2750  0.0472
 3278TIP3    H131393   6.250   5.945   0.211  0.9695 -0.7816 -0.9023
 3278TIP3    H231394   6.210   6.058   0.118 -1.5852  0.2086  1.2659
 3279TIP3   OH231395   5.057   4.283   2.637 -0.2334  0.0974  0.1950
 3279TIP3    H131396   5.127   4.217   2.640 -0.1627  0.2111  1.4725
 3279TIP3    H231397   5.103   4.367   2.640 -0.3703  0.2037 -0.4663
 3280TIP3   OH231398   6.929   5.759   8.128 -0.4649 -0.1543 -0.1128
 3280TIP3    H131399   6.866   5.829   8.110  0.6602  0.8729 -0.2115
 3280TIP3    H231400   6.885   5.679   8.099 -2.6930  0.1605  2.0401
 3281TIP3   OH231401   5.855   0.742   1.290 -0.4654  0.3643  0.1156
 3281TIP3    H131402   5.841   0.648   1.281 -1.9216  0.4463  1.1201
 3281TIP3    H231403   5.947   0.755   1.267 -0.2292 -1.3001 -0.0246
 3282TIP3   OH231404   0.620   6.716   8.018 -0.1657 -0.1660  0.2590
 3282TIP3    H131405   0.600   6.629   8.052  0.0585 -1.1274 -1.9033
 3282TIP3    H231406   0.549   6.736   7.957  0.2106  0.8063  0.1034
 3283TIP3   OH231407   4.919   1.607   2.890  0.2775  0.1063  0.4478
 3283TIP3    H131408   5.011   1.630   2.897  0.2425  0.5819 -0.5360
 3283TIP3    H231409   4.908   1.532   2.949  0.7218  1.6305  2.5667
 3284TIP3   OH231410   4.713   5.400   6.465  0.2012  0.3591 -0.0250
 3284TIP3    H131411   4.625   5.434   6.480 -0.5814 -0.9635 -1.2818
 3284TIP3    H231412   4.708   5.308   6.492  1.4270  0.4721  0.6255
 3285TIP3   OH231413   5.241   4.517   1.910 -0.4804  0.2542  0.5657
 3285TIP3    H131414   5.251   4.584   1.842  0.4497 -2.9239 -2.6939
 3285TIP3    H231415   5.327   4.476   1.917 -1.3943 -1.6504  1.2371
 3286TIP3   OH231416   4.022   6.821   7.325 -0.6464  0.1273 -0.4295
 3286TIP3    H131417   3.938   6.790   7.359 -0.5624  0.6169  0.2562
 3286TIP3    H231418   4.075   6.742   7.315 -0.6193 -0.0252  0.7699
 3287TIP3   OH231419   4.883   1.426   1.401  0.4637  0.3743  0.2768
 3287TIP3    H131420   4.873   1.429   1.306  0.5902 -0.7340  0.2142
 3287TIP3    H231421   4.976   1.407   1.416  0.5372  0.9875  0.6355
 3288TIP3   OH231422   1.044   4.254   0.049 -0.4404  0.0727 -0.6587
 3288TIP3    H131423   0.994   4.318   0.100  1.9478  2.2846 -0.8759
 3288TIP3    H231424   1.073   4.190   0.114 -0.1348  1.0518  0.2071
 3289TIP3   OH231425   2.637   4.532   6.832  0.2796  0.2674 -0.3517
 3289TIP3    H131426   2.727   4.565   6.827  0.5225 -0.4270 -0.6164
 3289TIP3    H231427   2.595   4.565   6.752  0.1825  0.9163 -0.0394
 3290TIP3   OH231428   3.962   6.491   1.805  0.2437  0.2433  0.5518
 3290TIP3    H131429   4.012   6.473   1.885 -0.2855  1.1291  1.1031
 3290TIP3    H231430   4.026   6.484   1.734  1.0892  1.0040  1.2072
 3291TIP3   OH231431   6.811   1.990   1.208  0.0074 -0.6026  0.0165
 3291TIP3    H131432   6.784   1.930   1.277  3.1488  1.5298  3.4921
 3291TIP3    H231433   6.769   2.073   1.230  0.9769  0.1078 -0.7025
 3292TIP3   OH231434   1.485   0.340   0.600  0.1060 -0.4442 -0.2706
 3292TIP3    H131435   1.425   0.413   0.614  1.0906  0.4967 -0.8513
 3292TIP3    H231436   1.457   0.274   0.664 -1.2946  0.1113 -0.2689
 3293TIP3   OH231437   4.601   1.409   1.952 -0.0918  0.3366  0.2295
 3293TIP3    H131438   4.655   1.438   1.878  0.7247 -1.5704  0.0010
 3293TIP3    H231439   4.590   1.487   2.006  1.0095  1.3030 -0.8663
 3294TIP3   OH231440   4.236   3.996   1.880  0.3829  0.1712 -0.1414
 3294TIP3    H131441   4.201   4.034   1.961 -0.9461  2.0155 -1.4899
 3294TIP3    H231442   4.172   3.928   1.857 -0.3034  0.9567 -0.6150
 3295TIP3   OH231443   2.591   5.793   8.217 -0.2764  0.0171 -0.0969
 3295TIP3    H131444   2.523   5.851   8.184  1.0921  1.1567 -1.0197
 3295TIP3    H231445   2.593   5.810   8.311  0.8683  2.3903 -0.4871
 3296TIP3   OH231446   5.900   5.550   6.241  0.2127 -0.1400  0.0322
 3296TIP3    H131447   5.845   5.496   6.298 -0.5828  1.4900  0.8938
 3296TIP3    H231448   5.855   5.635   6.239  0.9133  0.2333 -2.0124
 3297TIP3   OH231449   5.662   5.905   2.452  0.1590 -0.0796  0.7479
 3297TIP3    H131450   5.587   5.852   2.480 -1.9862  2.5429  0.3618
 3297TIP3    H231451   5.702   5.935   2.534 -0.3611  0.0024  0.9769
 3298TIP3   OH231452   4.812   5.656   7.551 -0.0849  0.4866  0.2724
 3298TIP3    H131453   4.825   5.565   7.525 -0.1843  0.4275  0.4280
 3298TIP3    H231454   4.793   5.652   7.644  2.6175  0.8793  0.9337
 3299TIP3   OH231455   6.925   6.280   1.342  0.0100  0.2028  0.1460
 3299TIP3    H131456   6.861   6.320   1.284 -2.1821 -1.2715  1.3989
 3299TIP3    H231457   6.940   6.346   1.410  0.1152  0.6875 -0.3392
 3300TIP3   OH231458   1.086   1.033   8.261  0.0596  0.1079  0.3167
 3300TIP3    H131459   1.064   1.015   8.353 -1.7772 -0.1667 -0.1349
 3300TIP3    H231460   1.175   1.067   8.264  0.3233 -0.6221  2.1257
 3301TIP3   OH231461   4.732   6.125   8.160 -0.5913  0.1656 -0.3902
 3301TIP3    H131462   4.731   6.049   8.219  1.1715  1.1164  0.9763
 3301TIP3    H231463   4.643   6.159   8.163 -0.6344 -0.0096  1.4995
 3302TIP3   OH231464   5.956   2.962   1.426 -0.5607 -0.0451 -0.8947
 3302TIP3    H131465   5.944   2.870   1.403 -0.1276  0.2710 -2.4943
 3302TIP3    H231466   5.984   3.004   1.345 -1.2790  1.6175 -0.3323
 3303TIP3   OH231467   4.537   5.896   1.657 -0.3358 -0.3482 -0.1802
 3303TIP3    H131468   4.592   5.821   1.635  0.0546 -0.1594  0.1365
 3303TIP3    H231469   4.502   5.925   1.573  1.7576  0.8474 -0.7334
 3304TIP3   OH231470   4.804   3.037   2.707 -0.4146  0.4477  0.2776
 3304TIP3    H131471   4.714   3.055   2.680  0.3753  1.2575 -2.0923
 3304TIP3    H231472   4.854   3.114   2.678  1.1873 -0.3830  0.6874
 3305TIP3   OH231473   2.817   6.409   2.467  0.0882  0.1375  0.0462
 3305TIP3    H131474   2.757   6.351   2.513 -2.4103  1.6040 -1.1802
 3305TIP3    H231475   2.874   6.445   2.535 -0.6467 -1.0129  1.3044
 3306TIP3   OH231476   5.249   3.324   1.103 -0.4061 -0.2156 -0.1726
 3306TIP3    H131477   5.231   3.269   1.026 -1.3326  1.0472 -0.8915
 3306TIP3    H231478   5.199   3.282   1.174 -0.5346 -0.6872 -0.5335
 3307TIP3   OH231479   3.648   4.534   7.710  0.5356  0.0630 -0.7785
 3307TIP3    H131480   3.655   4.454   7.762  1.2143  0.5559 -0.0945
 3307TIP3    H231481   3.569   4.578   7.742 -1.1529 -1.3775 -2.6841
 3308TIP3   OH231482   0.911   6.293   0.290 -0.0260 -0.0370 -0.3286
 3308TIP3    H131483   0.860   6.213   0.300 -0.0463 -0.2088 -1.6369
 3308TIP3    H231484   0.958   6.281   0.207  1.1965  0.6334  0.2407
 3309TIP3   OH231485   1.790   3.482   0.941  0.3066  0.0651 -0.0561
 3309TIP3    H131486   1.879   3.454   0.962  0.7892  0.2396 -1.7700
 3309TIP3    H231487   1.770   3.548   1.007  0.7999 -1.1206  1.3468
 3310TIP3   OH231488   1.475   0.091   0.725  0.3080 -0.4199  0.0198
 3310TIP3    H131489   1.439   0.038   0.796  2.4595 -0.5208  1.1239
 3310TIP3    H231490   1.519   0.028   0.668  1.5301 -0.0177  0.4903
 3311TIP3   OH231491   1.533   0.366   7.686 -0.2796  0.5798  0.4030
 3311TIP3    H131492   1.534   0.332   7.597 -1.3207  0.7400  0.3245
 3311TIP3    H231493   1.610   0.327   7.728  0.3203  0.6548 -0.6135
 3312TIP3   OH231494   5.595   0.014   0.059 -0.0612 -0.1274 -0.1323
 3312TIP3    H131495   5.518   0.054   0.018 -0.8446 -1.4645 -0.0225
 3312TIP3    H231496   5.614   0.071   0.134 -2.0693 -0.7107  0.9038
 3313TIP3   OH231497   0.402   2.672   0.984 -0.1995 -0.7061  0.7913
 3313TIP3    H131498   0.488   2.655   1.022  0.1308 -0.2795  0.2466
 3313TIP3    H231499   0.409   2.640   0.894 -1.0054 -1.7942  1.0944
 3314TIP3   OH231500   2.164   5.260   7.731  0.1670 -1.0278 -0.1926
 3314TIP3    H131501   2.081   5.214   7.746 -0.7951  1.4257  3.5404
 3314TIP3    H231502   2.227   5.214   7.787  0.0176  0.0103  0.8780
 3315TIP3   OH231503   5.045   0.220   7.015 -0.0897 -0.4389 -0.6589
 3315TIP3    H131504   4.953   0.196   6.998  0.1311 -4.3630  2.2747
 3315TIP3    H231505   5.092   0.193   6.936 -1.3074  1.5652 -2.1785
 3316TIP3   OH231506   4.099   1.962   8.036 -0.0799 -0.2295 -0.1572
 3316TIP3    H131507   4.182   1.999   8.008 -0.1080  1.2978  1.5754
 3316TIP3    H231508   4.033   2.019   7.998 -0.2475 -0.2421  0.1060
 3317TIP3   OH231509   3.981   5.679   8.013 -0.4515  0.4638 -0.2950
 3317TIP3    H131510   4.064   5.684   8.061  0.0469  1.0707 -1.1834
 3317TIP3    H231511   3.961   5.586   8.010  0.1016  0.3258  0.1001
 3318TIP3   OH231512   0.794   3.655   0.285 -0.1410 -0.0654  0.2599
 3318TIP3    H131513   0.741   3.615   0.354  1.6238 -1.2344  1.0281
 3318TIP3    H231514   0.865   3.593   0.271  0.3295  0.8347 -1.6259
 3319TIP3   OH231515   4.359   3.022   0.702 -0.1977  0.3580 -0.0406
 3319TIP3    H131516   4.305   2.981   0.769  0.5400 -2.0042 -0.8081
 3319TIP3    H231517   4.449   3.003   0.728  0.1728  1.2863 -0.5860
 3320TIP3   OH231518   1.870   4.489   7.884 -0.1070  0.4680 -0.2173
 3320TIP3    H131519   1.921   4.408   7.888  1.0274  1.2074  0.9225
 3320TIP3    H231520   1.885   4.523   7.796  1.3166  0.6185  0.0620
 3321TIP3   OH231521   0.951   3.437   7.380  0.7884 -0.6257 -0.7372
 3321TIP3    H131522   0.859   3.439   7.409  1.1865 -1.2925  0.6677
 3321TIP3    H231523   0.990   3.516   7.419  1.4549 -1.7997  1.0818
 3322TIP3   OH231524   5.091   2.707   2.750  0.7283 -0.1194 -0.0321
 3322TIP3    H131525   5.012   2.700   2.804  0.8030  1.6666  0.3768
 3322TIP3    H231526   5.064   2.759   2.674  1.3110 -0.1773 -0.2848
 3323TIP3   OH231527   6.109   5.260   7.078  0.6612  0.1708 -0.7535
 3323TIP3    H131528   6.164   5.185   7.103  0.1534 -0.1282 -0.5326
 3323TIP3    H231529   6.095   5.248   6.984 -0.6989 -0.8735 -0.4429
 3324TIP3   OH231530   3.214   4.912   1.014  0.5313  0.0003  0.0645
 3324TIP3    H131531   3.279   4.961   1.065  0.9557 -0.1179 -0.3615
 3324TIP3    H231532   3.134   4.918   1.067  1.3195 -1.3638  1.4965
 3325TIP3   OH231533   0.624   4.151   0.569 -0.0653 -0.1333 -0.3882
 3325TIP3    H131534   0.592   4.147   0.659 -0.4698  1.2688 -0.4494
 3325TIP3    H231535   0.547   4.175   0.517  0.4940  0.6449 -0.8831
 3326TIP3   OH231536   1.705   5.425   0.445  0.0272  0.1665 -0.2884
 3326TIP3    H131537   1.643   5.495   0.465 -0.6467  0.1480 -2.1202
 3326TIP3    H231538   1.706   5.371   0.524 -0.8749  1.1982  0.4659
 3327TIP3   OH231539   5.938   1.801   2.741 -0.0817  0.4826  0.6368
 3327TIP3    H131540   5.984   1.755   2.811 -0.2078  0.5246  0.7489
 3327TIP3    H231541   5.909   1.883   2.781 -0.3670  0.3995  0.6047
 3328TIP3   OH231542   3.777   1.261   1.522 -0.3164  0.5984 -0.4160
 3328TIP3    H131543   3.751   1.350   1.546  1.8592  1.4439 -0.8836
 3328TIP3    H231544   3.803   1.221   1.605  1.9045  1.6258 -0.5205
 3329TIP3   OH231545   2.237   0.966   0.275  0.5428 -0.2652 -0.5234
 3329TIP3    H131546   2.230   0.872   0.291  1.4122 -0.5381 -1.6068
 3329TIP3    H231547   2.177   1.006   0.338 -0.8801 -1.6147 -0.9640
 3330TIP3   OH231548   2.243   3.115   8.187  0.0648  0.0216 -0.2033
 3330TIP3    H131549   2.169   3.075   8.140 -0.5713  0.7585  0.1485
 3330TIP3    H231550   2.279   3.043   8.238 -1.6329  0.0498  1.1262
 3331TIP3   OH231551   1.824   3.015   6.550  0.4851  0.1345 -0.3063
 3331TIP3    H131552   1.911   3.013   6.590  0.3737  1.9921  0.1253
 3331TIP3    H231553   1.780   2.937   6.584  2.5303 -1.8841 -1.9745
 3332TIP3   OH231554   3.396   3.097   7.525 -0.8635  0.6343  0.6354
 3332TIP3    H131555   3.308   3.093   7.488 -0.3080  1.1824 -0.8272
 3332TIP3    H231556   3.437   3.014   7.498  0.1214  1.7522 -1.6685
 3333TIP3   OH231557   5.742   0.535   7.424  0.0108  0.5305 -0.0536
 3333TIP3    H131558   5.647   0.520   7.420 -0.1266  1.5744 -0.8770
 3333TIP3    H231559   5.761   0.533   7.518 -0.6167 -0.8853  0.0677
 3334TIP3   OH231560   1.312   1.320   7.437 -0.1190  0.5758  0.6625
 3334TIP3    H131561   1.288   1.383   7.505  0.5564  1.2994  0.2481
 3334TIP3    H231562   1.250   1.337   7.366 -2.7445 -2.1058  2.0962
 3335TIP3   OH231563   0.512   0.883   2.079  0.3330 -0.0956  0.1682
 3335TIP3    H131564   0.421   0.905   2.057  0.4704 -0.8272 -1.2065
 3335TIP3    H231565   0.562   0.910   2.003  1.2378 -0.0253  0.7801
 3336TIP3   OH231566   1.327   4.104   6.003 -0.0065  0.0797  0.5112
 3336TIP3    H131567   1.245   4.152   6.008 -0.6590 -0.5675 -2.2805
 3336TIP3    H231568   1.394   4.168   6.030 -1.3242  0.7701  2.2923
 3337TIP3   OH231569   5.719   4.756   7.759 -0.0245  0.5307 -0.4824
 3337TIP3    H131570   5.782   4.741   7.829 -0.6496  0.8982  0.1768
 3337TIP3    H231571   5.681   4.842   7.778 -1.9689 -0.4044  0.1413
 3338TIP3   OH231572   1.888   5.680   1.128  0.3472 -0.1037  0.4720
 3338TIP3    H131573   1.872   5.603   1.182  0.5843 -1.2953 -1.1137
 3338TIP3    H231574   1.931   5.647   1.049 -0.7206  1.4559 -0.8429
 3339TIP3   OH231575   3.184   3.922   1.482  0.3302 -0.2094 -0.4825
 3339TIP3    H131576   3.260   3.894   1.430  0.4416 -0.4601 -0.1846
 3339TIP3    H231577   3.130   3.844   1.489 -0.3599  0.1630 -1.3769
 3340TIP3   OH231578   4.499   4.983   0.688 -0.3004 -0.3225 -0.4392
 3340TIP3    H131579   4.473   4.941   0.606  0.0941  0.8784 -1.2099
 3340TIP3    H231580   4.420   4.981   0.742 -0.4160 -1.6181 -0.6187
 3341TIP3   OH231581   5.175   5.138   1.602  0.3438  0.0528 -0.6987
 3341TIP3    H131582   5.266   5.110   1.607  0.2405 -0.2440 -0.4343
 3341TIP3    H231583   5.170   5.215   1.658 -0.0642 -1.2794  1.1917
 3342TIP3   OH231584   0.873   0.766   0.815  0.2905  0.0513 -0.2300
 3342TIP3    H131585   0.825   0.820   0.753  1.3792  0.7337 -0.5229
 3342TIP3    H231586   0.863   0.677   0.783  1.2565  0.4315 -1.7324
 3343TIP3   OH231587   5.105   4.722   7.028  0.3831  0.0363  0.0083
 3343TIP3    H131588   5.106   4.677   6.943  0.7190  0.7873 -0.4064
 3343TIP3    H231589   5.033   4.785   7.020  0.7138  0.4283  0.1023
 3344TIP3   OH231590   5.144   1.603   0.345  0.4159 -0.2198  0.3920
 3344TIP3    H131591   5.117   1.564   0.428  0.0282  0.1131  0.4245
 3344TIP3    H231592   5.219   1.658   0.367 -0.6275  1.1042  0.8183
 3345TIP3   OH231593   4.873   3.264   2.553  0.6162 -0.2993  0.1863
 3345TIP3    H131594   4.784   3.299   2.544  0.6946 -0.5215 -2.0221
 3345TIP3    H231595   4.925   3.314   2.489  1.9836 -0.5564  1.0419
 3346TIP3   OH231596   2.164   0.191   7.253  0.2440 -0.3667 -0.1092
 3346TIP3    H131597   2.256   0.212   7.236  0.7855 -0.6779  2.1622
 3346TIP3    H231598   2.121   0.276   7.258  0.8019 -0.1151  0.6870
 3347TIP3   OH231599   0.667   3.900   0.187 -0.0720 -0.3068  0.2419
 3347TIP3    H131600   0.699   3.823   0.235  0.7926 -1.1527 -1.5725
 3347TIP3    H231601   0.653   3.868   0.098 -2.4045  0.9960  0.0646
 3348TIP3   OH231602   0.087   4.490   1.105  0.0065 -0.5995  0.0502
 3348TIP3    H131603   0.006   4.501   1.155  0.4013 -0.5726  0.6888
 3348TIP3    H231604   0.142   4.434   1.161 -0.7320 -3.2931 -1.7014
 3349TIP3   OH231605   4.372   0.600   1.431 -0.1137  0.5480 -0.2467
 3349TIP3    H131606   4.375   0.581   1.524 -1.4043  3.7892  0.6104
 3349TIP3    H231607   4.280   0.589   1.407  0.2226 -0.3432 -1.1880
 3350TIP3   OH231608   3.166   2.448   0.364  0.0496 -0.2107 -0.2798
 3350TIP3    H131609   3.075   2.476   0.357  0.7268  3.0547  1.7052
 3350TIP3    H231610   3.175   2.422   0.456  0.8941 -1.5878 -0.7290
 3351TIP3   OH231611   6.330   0.346   1.088 -0.0041 -0.0269 -0.4001
 3351TIP3    H131612   6.255   0.351   1.028 -0.7638 -0.3496  0.5035
 3351TIP3    H231613   6.311   0.270   1.144  0.6503  0.3266  0.3125
 3352TIP3   OH231614   4.900   3.970   1.640 -0.4840 -0.3355  1.0535
 3352TIP3    H131615   4.962   3.904   1.670  0.2275  0.8515  2.2808
 3352TIP3    H231616   4.871   3.938   1.554  0.8099 -1.5739  1.0407
 3353TIP3   OH231617   0.964   4.159   6.732 -0.2974  0.1462  0.6953
 3353TIP3    H131618   1.008   4.087   6.777 -1.4910  0.8867  3.2629
 3353TIP3    H231619   0.893   4.118   6.683  1.0165 -0.6924 -0.5606
 3354TIP3   OH231620   1.922   4.630   2.458 -0.0630  0.3365  0.0616
 3354TIP3    H131621   1.907   4.724   2.461 -1.8740  0.1041 -0.6585
 3354TIP3    H231622   1.981   4.613   2.532  0.3360  2.0164  0.1695
 3355TIP3   OH231623   6.436   1.914   0.720  0.5892 -0.0966  0.2470
 3355TIP3    H131624   6.530   1.912   0.736  0.7343  0.9659 -0.3688
 3355TIP3    H231625   6.428   1.933   0.626 -0.2321  0.4383  0.4159
 3356TIP3   OH231626   5.352   1.725   0.531 -0.1287 -0.2844  0.5314
 3356TIP3    H131627   5.361   1.641   0.575  0.3926 -0.9173 -0.7382
 3356TIP3    H231628   5.442   1.752   0.513 -0.2823 -1.6046 -2.9625
 3357TIP3   OH231629   0.494   4.980   0.412  0.0524  0.1533  0.4275
 3357TIP3    H131630   0.434   4.932   0.355  0.0339 -0.6546  1.0963
 3357TIP3    H231631   0.437   5.032   0.468  0.1119  1.9979 -1.1442
 3358TIP3   OH231632   3.516   1.819   2.326 -0.7051  0.8160  0.4981
 3358TIP3    H131633   3.460   1.774   2.389  0.5033  2.4028  2.8120
 3358TIP3    H231634   3.577   1.751   2.295 -2.6657 -0.4977 -0.7395
 3359TIP3   OH231635   1.283   2.121   2.289  0.3928  0.6940 -0.1851
 3359TIP3    H131636   1.328   2.046   2.329  1.2937  1.3943  0.1296
 3359TIP3    H231637   1.351   2.186   2.275 -0.2364  1.1595 -1.2148
 3360TIP3   OH231638   5.591   2.794   7.405 -0.0491  0.5993  0.0222
 3360TIP3    H131639   5.586   2.731   7.333  0.3983 -0.5881  0.9964
 3360TIP3    H231640   5.608   2.741   7.483  2.7818  2.0694  0.5428
 3361TIP3   OH231641   5.419   3.325   0.169  0.0356  0.2849  0.6011
 3361TIP3    H131642   5.350   3.324   0.236  0.4149 -0.3123  0.9955
 3361TIP3    H231643   5.432   3.418   0.150 -1.9448  0.3732 -0.6140
 3362TIP3   OH231644   5.341   1.618   0.972  0.0151  0.6667  0.4779
 3362TIP3    H131645   5.288   1.606   0.893 -1.1708  0.2275  1.3255
 3362TIP3    H231646   5.299   1.564   1.038  1.0809  0.9182  1.3898
 3363TIP3   OH231647   5.575   5.291   7.927  0.3912 -0.7807 -0.1498
 3363TIP3    H131648   5.564   5.370   7.980  3.1846 -0.7356  0.4813
 3363TIP3    H231649   5.534   5.313   7.844  0.3480  1.0284  0.3014
 3364TIP3   OH231650   5.066   2.643   0.168 -0.4726 -0.7757  0.3450
 3364TIP3    H131651   5.094   2.553   0.150  0.5683 -1.0615  2.9782
 3364TIP3    H231652   4.988   2.633   0.222  0.1792 -0.1512  1.4317
 3365TIP3   OH231653   0.174   2.553   6.285 -0.0740  0.0751  0.6340
 3365TIP3    H131654   0.130   2.468   6.285  0.3987 -0.1828 -0.3379
 3365TIP3    H231655   0.103   2.617   6.284 -0.4331 -0.3041  1.4718
 3366TIP3   OH231656   4.091   0.453   1.134  0.2888 -0.1796 -0.1543
 3366TIP3    H131657   4.173   0.413   1.162  0.9069  0.5025 -0.9220
 3366TIP3    H231658   4.053   0.391   1.072  0.9858  0.1467 -0.9400
 3367TIP3   OH231659   2.568   4.584   8.044  0.4535  0.6679 -0.2965
 3367TIP3    H131660   2.663   4.585   8.045  0.4642  1.0567 -1.1094
 3367TIP3    H231661   2.543   4.669   8.006 -0.2363  0.9857  0.8086
 3368TIP3   OH231662   1.209   6.653   7.524  0.0695 -0.0757  0.0975
 3368TIP3    H131663   1.299   6.635   7.551  0.9365  0.6846 -2.0703
 3368TIP3    H231664   1.168   6.694   7.601  2.4375  2.2023  0.2576
 3369TIP3   OH231665   3.854   3.041   1.367 -0.2519 -0.5629  0.0197
 3369TIP3    H131666   3.775   3.082   1.331 -0.1411 -1.5198 -1.4094
 3369TIP3    H231667   3.868   3.085   1.451  0.4535  3.0357 -1.8049
 3370TIP3   OH231668   3.433   2.928   6.200  0.3700  0.0001  0.0694
 3370TIP3    H131669   3.384   2.993   6.149  0.9994 -0.8789 -1.7461
 3370TIP3    H231670   3.370   2.894   6.263 -1.2508 -0.7472 -1.8742
 3371TIP3   OH231671   7.011   3.185   6.891 -0.1889 -0.4098  0.4832
 3371TIP3    H131672   6.925   3.194   6.849  1.2873 -1.1482 -2.9710
 3371TIP3    H231673   7.020   3.091   6.907  0.0062 -0.3267  0.8830
 3372TIP3   OH231674   6.683   6.972   0.976  0.1492  0.1446 -0.5578
 3372TIP3    H131675   6.720   6.901   0.924 -0.3827  0.3448 -1.2248
 3372TIP3    H231676   6.609   6.933   1.022 -0.5646  0.4168 -1.4545
 3373TIP3   OH231677   2.208   4.537   0.286  0.2827 -0.0219 -0.9682
 3373TIP3    H131678   2.136   4.588   0.321 -0.4933 -1.7390  0.0774
 3373TIP3    H231679   2.166   4.470   0.232  1.0859 -0.8142 -0.6441
 3374TIP3   OH231680   2.730   1.360   7.433  0.0814 -0.0099 -0.0997
 3374TIP3    H131681   2.697   1.383   7.346  1.6177 -2.1997 -1.3612
 3374TIP3    H231682   2.824   1.379   7.428  0.7359 -2.8099  0.0058
 3375TIP3   OH231683   1.163   4.852   7.589  0.2166  0.0636 -0.5263
 3375TIP3    H131684   1.074   4.831   7.619 -0.4551  0.1962 -2.2954
 3375TIP3    H231685   1.199   4.768   7.563  0.4068  0.0849 -0.3309
 3376TIP3   OH231686   2.367   1.766   7.122  0.0652  0.4919  0.1889
 3376TIP3    H131687   2.404   1.688   7.081  0.8281  0.2594  1.2802
 3376TIP3    H231688   2.302   1.797   7.059  0.3095 -0.5630 -0.6190
 3377TIP3   OH231689   3.926   6.022   0.929  0.3423 -0.5718  0.7276
 3377TIP3    H131690   3.830   6.019   0.934 -0.0109  1.4612 -2.3688
 3377TIP3    H231691   3.948   5.958   0.862  1.1438 -0.7133  1.1154
 3378TIP3   OH231692   6.726   6.494   0.691  0.4754  0.4300 -0.2217
 3378TIP3    H131693   6.687   6.531   0.612  0.8090 -0.6861 -0.9317
 3378TIP3    H231694   6.665   6.426   0.719  0.7749  0.2480 -0.0027
 3379TIP3   OH231695   4.104   5.261   2.124  0.1864 -0.3647 -0.4114
 3379TIP3    H131696   4.050   5.186   2.148 -0.5547  0.1663 -0.4162
 3379TIP3    H231697   4.194   5.226   2.125  0.0280 -0.8187  1.3177
 3380TIP3   OH231698   0.442   1.329   7.501 -0.4086  0.7222  0.3094
 3380TIP3    H131699   0.532   1.339   7.471 -0.4849  0.4425 -0.0151
 3380TIP3    H231700   0.448   1.337   7.597  0.4425 -2.3614  0.6136
 3381TIP3   OH231701   6.806   0.175   1.517 -0.3153  0.0901 -0.3671
 3381TIP3    H131702   6.844   0.097   1.557 -1.2317  0.3360  1.0689
 3381TIP3    H231703   6.861   0.247   1.548  2.1137 -0.0753 -3.6860
 3382TIP3   OH231704   1.920   3.953   0.557  0.4847  0.1732 -0.9617
 3382TIP3    H131705   1.943   3.894   0.629 -1.4393  0.7102  0.1854
 3382TIP3    H231706   1.948   4.040   0.588 -1.3090  0.5633 -0.3376
 3383TIP3   OH231707   6.452   4.558   0.555  0.0914  0.5932 -0.1133
 3383TIP3    H131708   6.474   4.646   0.525  1.4603  1.0332  1.9417
 3383TIP3    H231709   6.397   4.573   0.632 -0.2269 -0.3744 -0.1476
 3384TIP3   OH231710   2.367   3.874   0.380  0.4866  0.1821 -0.1082
 3384TIP3    H131711   2.388   3.825   0.459  0.5488  0.2176 -0.1027
 3384TIP3    H231712   2.452   3.903   0.346  0.3443  1.7318  0.7998
 3385TIP3   OH231713   0.301   2.274   8.194 -0.4448 -0.0406 -0.5312
 3385TIP3    H131714   0.360   2.341   8.158 -1.1770  0.1469 -1.4130
 3385TIP3    H231715   0.306   2.286   8.289  0.9298 -0.0283 -0.5867
 3386TIP3   OH231716   3.413   5.465   8.223  0.7889 -0.0913 -0.2688
 3386TIP3    H131717   3.420   5.501   8.135  4.0958  0.5407  0.1032
 3386TIP3    H231718   3.487   5.404   8.229 -0.1742 -1.1439  1.6278
 3387TIP3   OH231719   5.937   4.951   7.602  0.4608 -1.5916  0.0781
 3387TIP3    H131720   5.881   4.882   7.567 -0.8015 -0.1569 -0.8284
 3387TIP3    H231721   5.975   4.993   7.524 -0.8080  0.3528  0.4544
 3388TIP3   OH231722   6.060   0.437   7.962 -0.2718  0.2445  0.1977
 3388TIP3    H131723   5.970   0.414   7.938 -0.1579  0.0190 -0.0175
 3388TIP3    H231724   6.102   0.458   7.878 -0.9476  3.3678  0.5358
 3389TIP3   OH231725   2.662   7.013   7.423  0.1257 -0.1432 -0.0423
 3389TIP3    H131726   2.672   6.987   7.332 -0.2452 -1.1871  0.2000
 3389TIP3    H231727   2.751   7.032   7.453  0.3915 -0.8956 -0.3188
 3390TIP3   OH231728   0.591   1.999   1.904  0.3429  0.5624 -0.0370
 3390TIP3    H131729   0.594   1.904   1.914 -0.4975  0.2526 -2.1670
 3390TIP3    H231730   0.571   2.032   1.992  2.2939 -1.0791  1.1018
 3391TIP3   OH231731   0.455   3.969   8.261  0.2268 -0.1605  0.2024
 3391TIP3    H131732   0.465   4.017   8.343 -0.8833 -0.0082  0.2639
 3391TIP3    H231733   0.374   3.919   8.272 -1.4429  1.9144 -1.7516
 3392TIP3   OH231734   5.209   5.453   1.552  0.4745  0.2311  0.0516
 3392TIP3    H131735   5.290   5.502   1.561  1.9487 -1.8257 -1.3028
 3392TIP3    H231736   5.185   5.462   1.460  1.2726 -2.1777 -0.4688
 3393TIP3   OH231737   3.267   6.465   0.875 -0.0527 -0.0940  0.0509
 3393TIP3    H131738   3.267   6.374   0.843  0.9393  0.8268 -2.9610
 3393TIP3    H231739   3.360   6.488   0.878 -0.2668  0.6581  1.4227
 3394TIP3   OH231740   1.050   4.947   0.700 -0.3413 -0.0510  0.3333
 3394TIP3    H131741   1.046   4.945   0.604  3.4493 -2.0709  0.0538
 3394TIP3    H231742   1.059   5.039   0.721  1.0052  0.2908 -1.4687
 3395TIP3   OH231743   1.408   4.775   2.401  0.1104  0.3792 -0.5198
 3395TIP3    H131744   1.315   4.756   2.410  0.1240  1.0809  1.5888
 3395TIP3    H231745   1.441   4.707   2.343 -1.9498  0.9390 -2.5188
 3396TIP3   OH231746   0.144   1.912   8.059 -0.0554 -0.2717 -0.1574
 3396TIP3    H131747   0.121   1.865   7.978  0.5000  0.0129 -0.4855
 3396TIP3    H231748   0.240   1.915   8.058 -0.0820  0.9575 -0.1927
 3397TIP3   OH231749   1.803   6.165   8.086  0.3886  0.2684 -0.2956
 3397TIP3    H131750   1.880   6.127   8.128 -0.7429 -1.2071  0.5806
 3397TIP3    H231751   1.802   6.126   7.998 -0.1986 -1.0098  0.2464
 3398TIP3   OH231752   1.301   6.384   7.342  0.0276  0.1349 -0.0739
 3398TIP3    H131753   1.290   6.452   7.275 -3.1109 -0.0592  0.1032
 3398TIP3    H231754   1.305   6.431   7.425 -1.0403  0.1781 -0.0384
 3399TIP3   OH231755   3.258   1.423   1.631 -0.0280 -0.5531 -0.1082
 3399TIP3    H131756   3.348   1.393   1.631  0.1913 -0.0184 -1.9720
 3399TIP3    H231757   3.213   1.366   1.569 -0.3330  0.7919 -1.1941
 3400TIP3   OH231758   4.873   6.875   1.160 -0.1456 -0.5620 -0.3116
 3400TIP3    H131759   4.852   6.782   1.152 -0.3570 -0.3867 -2.0924
 3400TIP3    H231760   4.858   6.911   1.073  2.0380  0.7137 -0.2258
 3401TIP3   OH231761   2.096   3.904   7.328  0.4128 -0.7666 -0.3265
 3401TIP3    H131762   2.025   3.951   7.286 -0.2793 -2.6686 -1.4199
 3401TIP3    H231763   2.176   3.937   7.286 -0.0365 -0.4858 -0.9679
 3402TIP3   OH231764   3.243   0.105   1.749  0.1052 -0.7997 -0.2663
 3402TIP3    H131765   3.281   0.053   1.679  0.6408  1.8277 -2.0818
 3402TIP3    H231766   3.308   0.174   1.766 -1.9615  1.3778 -0.5637
 3403TIP3   OH231767   5.469   5.354   7.691  0.0077 -0.0025 -0.4277
 3403TIP3    H131768   5.543   5.343   7.632 -1.4672  0.1264 -2.3872
 3403TIP3    H231769   5.464   5.449   7.706  0.4407 -0.0440  0.0388
 3404TIP3   OH231770   1.775   4.878   7.379 -0.0607  0.3543 -0.1018
 3404TIP3    H131771   1.834   4.939   7.423  0.0445 -1.1742  2.0556
 3404TIP3    H231772   1.827   4.799   7.368 -0.7814 -0.0093 -1.0324
 3405TIP3   OH231773   5.305   6.749   0.768  0.4612  0.1887 -0.6474
 3405TIP3    H131774   5.349   6.831   0.791  0.9442  0.2453 -1.7148
 3405TIP3    H231775   5.338   6.686   0.833  0.7427  0.6406 -0.3421
 3406TIP3   OH231776   1.320   5.274   7.138  0.0814  0.3874 -0.0284
 3406TIP3    H131777   1.386   5.224   7.090  0.6376  0.1273  0.9770
 3406TIP3    H231778   1.334   5.251   7.230 -1.4663  0.2692  0.2024
 3407TIP3   OH231779   6.516   2.528   0.266 -0.1144  0.1243  0.5908
 3407TIP3    H131780   6.457   2.486   0.203  0.3946  1.8532 -1.1035
 3407TIP3    H231781   6.603   2.521   0.226  0.5769 -0.5540  2.1041
 3408TIP3   OH231782   2.652   0.858   7.319  0.1719  0.9065 -0.2922
 3408TIP3    H131783   2.671   0.902   7.402 -1.8981  2.0852 -0.3907
 3408TIP3    H231784   2.562   0.881   7.299  0.7675  1.1174 -3.1752
 3409TIP3   OH231785   1.976   4.950   6.981  0.6853  0.0807  0.1898
 3409TIP3    H131786   1.940   4.991   7.060 -0.2460  1.2329 -0.7830
 3409TIP3    H231787   2.058   4.996   6.964  0.7337  0.0418  0.3218
 3410TIP3   OH231788   1.883   3.795   1.331 -0.2102 -0.5837 -0.7814
 3410TIP3    H131789   1.979   3.788   1.332  0.0386  1.4895 -1.9271
 3410TIP3    H231790   1.857   3.781   1.422  1.5364  1.8667  0.2351
 3411TIP3   OH231791   1.895   6.002   2.198  0.1886 -0.4538  0.3753
 3411TIP3    H131792   1.811   5.970   2.231  0.4052 -1.3380  0.0972
 3411TIP3    H231793   1.890   5.988   2.103  1.1149 -1.6428  0.4889
 3412TIP3   OH231794   2.525   6.608   8.089  0.6081  0.2764  0.5153
 3412TIP3    H131795   2.518   6.694   8.130 -2.9087 -0.0022  0.8305
 3412TIP3    H231796   2.464   6.611   8.015  0.3348 -1.9295  0.5608
 3413TIP3   OH231797   3.668   5.962   1.712 -0.1355  0.4248 -0.2464
 3413TIP3    H131798   3.701   5.896   1.774  1.3683  0.0253 -1.4328
 3413TIP3    H231799   3.743   5.984   1.658 -1.0976  1.7540 -1.0918
 3414TIP3   OH231800   0.472   3.989   7.091  0.0468  0.0712  0.0452
 3414TIP3    H131801   0.468   3.915   7.030  1.9170  1.8510 -2.3901
 3414TIP3    H231802   0.426   4.060   7.046  1.8613  1.5742  0.4543
 3415TIP3   OH231803   4.814   1.831   2.149  0.3347 -0.3760 -0.2019
 3415TIP3    H131804   4.873   1.904   2.132  0.8379 -1.0946 -1.7294
 3415TIP3    H231805   4.811   1.824   2.244  3.2137 -0.6892 -0.0527
 3416TIP3   OH231806   3.931   1.810   6.798 -0.1434  0.1290  0.4189
 3416TIP3    H131807   3.888   1.777   6.877 -1.1361  0.7562  0.1711
 3416TIP3    H231808   3.858   1.842   6.744  0.5606  0.1390 -0.5381
 3417TIP3   OH231809   0.806   5.116   7.772  0.2924  0.5065  0.0235
 3417TIP3    H131810   0.840   5.200   7.804 -0.9407  1.5220 -1.2176
 3417TIP3    H231811   0.773   5.072   7.850  0.6295  1.3259  0.6430
 3418TIP3   OH231812   6.644   3.651   7.959  0.7216 -0.0945 -0.2892
 3418TIP3    H131813   6.653   3.674   8.051  0.8578  0.1555 -0.3624
 3418TIP3    H231814   6.734   3.641   7.927  0.6979  0.4973 -0.5556
 3419TIP3   OH231815   6.966   0.835   1.752  0.0869 -0.1054  0.1578
 3419TIP3    H131816   6.884   0.805   1.792  0.4285 -1.6630 -0.2306
 3419TIP3    H231817   6.963   0.930   1.759 -2.5363  0.0221 -1.3292
 3420TIP3   OH231818   6.413   5.948   6.864  0.0458  0.0178 -0.0025
 3420TIP3    H131819   6.434   5.997   6.784  0.3020  0.2743  0.2207
 3420TIP3    H231820   6.481   5.881   6.869  0.0529  0.0264  0.0199
 3421TIP3   OH231821   5.278   6.511   2.164 -0.1095  0.1390  0.0340
 3421TIP3    H131822   5.318   6.554   2.088 -0.8174 -0.5366 -0.7328
 3421TIP3    H231823   5.326   6.547   2.239  0.0800  1.4114 -0.6561
 3422TIP3   OH231824   5.468   6.212   0.074 -0.2103  0.2184 -0.1932
 3422TIP3    H131825   5.511   6.263   0.004  1.9313  1.5146  1.9047
 3422TIP3    H231826   5.539   6.159   0.111 -1.3919 -0.7378  0.7639
 3423TIP3   OH231827   5.156   2.456   1.540  0.1151 -0.0989  0.3044
 3423TIP3    H131828   5.071   2.458   1.584 -0.7402 -2.1927 -1.0672
 3423TIP3    H231829   5.137   2.419   1.454  2.1989  0.9233 -0.6691
 3424TIP3   OH231830   0.619   1.700   7.567  0.3862  0.5632  0.1405
 3424TIP3    H131831   0.534   1.677   7.530  0.3611  1.6345 -0.5222
 3424TIP3    H231832   0.651   1.770   7.510  1.3157  0.7761  0.9064
 3425TIP3   OH231833   5.406   2.853   7.159 -0.0409  0.5656  0.4146
 3425TIP3    H131834   5.330   2.854   7.101  2.4477  0.0516 -3.1663
 3425TIP3    H231835   5.438   2.763   7.155  1.8903  1.2204  0.1863
 3426TIP3   OH231836   3.490   0.442   7.418  0.0386 -0.0140  0.0655
 3426TIP3    H131837   3.441   0.518   7.386  1.3723  1.0744  0.4876
 3426TIP3    H231838   3.569   0.480   7.456  0.5729 -1.6125  0.6018
 3427TIP3   OH231839   4.222   1.772   0.225 -0.6289 -0.7356 -0.3017
 3427TIP3    H131840   4.133   1.747   0.249 -0.7121 -1.3085 -1.1846
 3427TIP3    H231841   4.270   1.772   0.308 -2.0086  2.1386  0.6155
 3428TIP3   OH231842   6.789   4.277   7.754 -0.1712  0.4261 -0.4527
 3428TIP3    H131843   6.722   4.222   7.796  0.0351 -0.4263 -1.2119
 3428TIP3    H231844   6.748   4.307   7.673  1.1630 -2.2446 -2.2851
 3429TIP3   OH231845   6.560   0.457   7.604 -0.0785  0.1261 -0.1326
 3429TIP3    H131846   6.488   0.520   7.605  1.1246  1.6692 -2.1164
 3429TIP3    H231847   6.521   0.375   7.633 -2.1413  1.3673  0.8052
 3430TIP3   OH231848   2.607   5.380   7.190  0.4046  0.0526  0.0649
 3430TIP3    H131849   2.604   5.447   7.122 -1.5695  0.7577  0.7716
 3430TIP3    H231850   2.696   5.385   7.225  0.3959  2.1151 -0.0800
 3431TIP3   OH231851   4.899   1.308   7.373 -0.0414 -0.0208  0.6066
 3431TIP3    H131852   4.826   1.326   7.314 -0.5511 -0.9899  0.9155
 3431TIP3    H231853   4.896   1.380   7.437 -0.3207  0.2987  0.2427
 3432TIP3   OH231854   1.571   5.176   0.301  0.5669 -0.4409 -0.5364
 3432TIP3    H131855   1.624   5.203   0.226  1.1246 -0.6513 -0.2295
 3432TIP3    H231856   1.578   5.250   0.362  0.9067 -0.6681 -0.2963
 3433TIP3   OH231857   1.122   2.345   6.473  0.1136 -0.0243  0.3021
 3433TIP3    H131858   1.121   2.258   6.433  0.7378 -0.9279  2.0917
 3433TIP3    H231859   1.113   2.406   6.400 -0.4914 -1.5892 -0.9929
 3434TIP3   OH231860   4.067   5.428   7.232 -0.4976  0.0397 -0.1865
 3434TIP3    H131861   4.088   5.517   7.260 -1.7350 -0.0616  1.1783
 3434TIP3    H231862   3.975   5.432   7.205 -1.0822 -1.1405  1.4715
 3435TIP3   OH231863   4.032   2.292   5.985 -0.1435  0.0051  0.0355
 3435TIP3    H131864   3.956   2.246   5.949 -0.8868 -0.2480  1.7741
 3435TIP3    H231865   3.995   2.368   6.029  0.7405  0.4724 -0.0088
 3436TIP3   OH231866   2.217   6.225   0.502 -0.0581  0.3827 -0.2552
 3436TIP3    H131867   2.312   6.229   0.515 -0.1509 -0.5590  0.9994
 3436TIP3    H231868   2.206   6.179   0.419  0.5736  1.8239 -1.1738
 3437TIP3   OH231869   6.402   0.616   0.159  0.1559 -0.6755 -0.3101
 3437TIP3    H131870   6.454   0.551   0.113  0.6745 -0.5526  0.0966
 3437TIP3    H231871   6.457   0.695   0.160 -0.4641 -0.2169 -0.8069
 3438TIP3   OH231872   2.936   1.381   8.066  0.3072  0.2226 -0.2544
 3438TIP3    H131873   2.871   1.428   8.014  0.4976 -1.1329 -1.8079
 3438TIP3    H231874   2.909   1.289   8.061  1.3901 -0.1689  0.5080
 3439TIP3   OH231875   3.760   0.646   1.612 -0.3211 -0.0449 -0.4412
 3439TIP3    H131876   3.797   0.566   1.651  0.9484 -0.2389 -1.9297
 3439TIP3    H231877   3.675   0.618   1.578 -0.6009 -0.3425  0.4789
 3440TIP3   OH231878   0.525   5.085   2.416  0.5564  0.6164 -0.1702
 3440TIP3    H131879   0.446   5.101   2.467  0.0573  2.3675 -1.3886
 3440TIP3    H231880   0.572   5.169   2.417  1.6524  0.0329 -0.6994
 3441TIP3   OH231881   6.229   1.437   7.131 -0.6348  0.3218  0.2725
 3441TIP3    H131882   6.237   1.468   7.041  1.5310  1.2216  0.7225
 3441TIP3    H231883   6.317   1.409   7.155 -0.7742  1.7040  2.6789
 3442TIP3   OH231884   4.921   4.732   0.376 -0.0699 -0.2669 -0.5286
 3442TIP3    H131885   4.879   4.776   0.302 -0.9909 -0.9953 -0.4542
 3442TIP3    H231886   5.009   4.770   0.380  0.4658 -1.0992 -2.7906
 3443TIP3   OH231887   2.963   4.078   8.205  0.0954 -0.7514  0.1078
 3443TIP3    H131888   2.904   4.003   8.199 -0.8059  0.0450 -3.6332
 3443TIP3    H231889   3.036   4.057   8.147 -0.5402  1.4056 -1.6513
 3444TIP3   OH231890   2.140   5.547   1.586  0.2637  0.0697 -0.0062
 3444TIP3    H131891   2.195   5.538   1.508 -0.1597 -2.0162 -0.1127
 3444TIP3    H231892   2.199   5.529   1.659  0.6499  1.9794  0.2018
 3445TIP3   OH231893   4.627   1.305   0.959  0.3219  0.1770  0.4589
 3445TIP3    H131894   4.596   1.278   0.872 -0.3239  0.9043  0.4573
 3445TIP3    H231895   4.690   1.237   0.983 -0.9048 -1.0822  0.2484
 3446TIP3   OH231896   4.902   2.410   0.716  0.3554  0.0910 -0.3615
 3446TIP3    H131897   4.909   2.348   0.643  1.9544 -0.1472 -0.0423
 3446TIP3    H231898   4.992   2.423   0.745 -0.2358  0.0392  1.6783
 3447TIP3   OH231899   4.901   4.365   0.215 -0.1298  0.4120  0.6164
 3447TIP3    H131900   4.891   4.318   0.297  1.2668 -1.1411 -0.0455
 3447TIP3    H231901   4.830   4.334   0.159  1.0601 -1.3624  0.0188
 3448TIP3   OH231902   1.932   4.473   1.220 -0.0830 -0.2282  0.1842
 3448TIP3    H131903   1.970   4.476   1.308  1.4124 -1.7485 -0.3509
 3448TIP3    H231904   1.848   4.518   1.229 -0.7124 -1.6927  2.7722
 3449TIP3   OH231905   5.008   1.158   7.695  0.1464 -0.3039  0.4325
 3449TIP3    H131906   4.919   1.179   7.668  1.2588  2.6976 -1.4984
 3449TIP3    H231907   5.010   1.063   7.701 -3.0084 -0.5127  0.0192
 3450TIP3   OH231908   2.202   4.458   7.719  0.0206  0.1160 -0.0134
 3450TIP3    H131909   2.246   4.474   7.802  2.8757  0.3273 -1.4378
 3450TIP3    H231910   2.196   4.544   7.677  1.9302 -0.4131 -1.4908
 3451TIP3   OH231911   2.574   5.953   7.146 -0.1579 -0.5489 -0.4255
 3451TIP3    H131912   2.655   5.901   7.141  0.6700  0.6833 -0.2465
 3451TIP3    H231913   2.594   6.032   7.097 -0.7788  0.3990  0.8039
 3452TIP3   OH231914   3.609   6.432   7.795  0.4761 -0.5214  0.1602
 3452TIP3    H131915   3.535   6.442   7.734 -0.1191 -1.1223  0.7686
 3452TIP3    H231916   3.569   6.407   7.878  1.4338 -2.0076  0.2109
 3453TIP3   OH231917   5.108   0.447   1.773  0.2566 -0.4100  0.2649
 3453TIP3    H131918   5.117   0.494   1.855  0.1158 -0.8987  0.5653
 3453TIP3    H231919   5.084   0.358   1.799  0.4853 -0.6374 -0.2923
 3454TIP3   OH231920   2.005   5.289   1.086 -0.0733  1.4193 -0.0962
 3454TIP3    H131921   1.967   5.271   1.000  0.2757 -0.4984  0.1064
 3454TIP3    H231922   2.092   5.325   1.067  0.1705  0.6059 -0.5485
 3455TIP3   OH231923   4.059   0.725   1.815  0.1860  0.4700  0.1764
 3455TIP3    H131924   4.009   0.743   1.894  1.0707 -0.5232  0.9861
 3455TIP3    H231925   4.092   0.810   1.787 -0.7400  0.9286  0.4468
 3456TIP3   OH231926   1.995   4.167   7.540 -0.1307 -0.0194  0.0029
 3456TIP3    H131927   2.024   4.077   7.526 -0.0530 -0.2008  1.2195
 3456TIP3    H231928   1.904   4.158   7.568 -1.4614  0.5286 -3.6055
 3457TIP3   OH231929   1.988   3.043   8.102  0.1140  0.1155  1.0042
 3457TIP3    H131930   1.893   3.026   8.100  0.2252 -0.5410  1.2777
 3457TIP3    H231931   2.015   3.036   8.010 -0.7280  4.0895  0.2280
 3458TIP3   OH231932   6.602   5.030   1.578  0.3604  0.0110 -0.1872
 3458TIP3    H131933   6.536   4.968   1.607 -0.4146  0.6532 -0.5416
 3458TIP3    H231934   6.582   5.112   1.624  0.3720  0.4537 -0.9439
 3459TIP3   OH231935   6.391   0.275   0.824  0.8963  0.4336  0.0414
 3459TIP3    H131936   6.389   0.328   0.904  0.5514  1.3353 -0.5534
 3459TIP3    H231937   6.334   0.200   0.844  1.7106  0.0560  1.0309
 3460TIP3   OH231938   4.153   4.139   2.109  0.0107  0.1342  0.3597
 3460TIP3    H131939   4.206   4.219   2.112 -0.1255  0.3053 -1.1705
 3460TIP3    H231940   4.092   4.148   2.182  0.5262  1.0502  0.6925
 3461TIP3   OH231941   3.913   1.737   7.340 -0.0259  0.3421 -0.1765
 3461TIP3    H131942   3.905   1.828   7.366 -1.6638  0.0311  0.5411
 3461TIP3    H231943   3.825   1.712   7.313  0.4287 -0.9920 -0.5051
 3462TIP3   OH231944   2.221   3.978   7.061 -0.1978  0.1399  0.2961
 3462TIP3    H131945   2.168   4.038   7.007 -0.1766 -0.7091 -0.7082
 3462TIP3    H231946   2.309   4.013   7.057  0.1403 -0.7762 -1.6195
 3463TIP3   OH231947   6.156   4.304   0.152  0.6439  0.3966 -0.2989
 3463TIP3    H131948   6.197   4.299   0.239  0.5661 -0.2889 -0.2953
 3463TIP3    H231949   6.079   4.359   0.165  0.0123 -0.6017  0.3246
 3464TIP3   OH231950   4.992   2.149   1.632  0.0109  0.6923  0.0064
 3464TIP3    H131951   5.026   2.190   1.712 -1.9564 -0.5603  1.6013
 3464TIP3    H231952   5.066   2.101   1.596  0.3850 -0.8240  2.5466
 3465TIP3   OH231953   4.382   4.145   0.231 -0.0659  0.0091 -0.0692
 3465TIP3    H131954   4.355   4.053   0.235  1.1848 -0.3358  1.3989
 3465TIP3    H231955   4.466   4.144   0.185  1.4486 -0.0421  2.4868
 3466TIP3   OH231956   4.641   4.351   7.355  0.1509 -0.1959 -0.0467
 3466TIP3    H131957   4.599   4.266   7.369 -0.5522  0.1399 -0.0640
 3466TIP3    H231958   4.718   4.349   7.411  2.4648 -2.4303 -2.9486
 3467TIP3   OH231959   3.540   6.213   2.897  0.3023  0.4297 -0.8171
 3467TIP3    H131960   3.466   6.271   2.880 -0.5290 -0.8203 -1.6622
 3467TIP3    H231961   3.592   6.259   2.963 -2.2826  0.4834  1.3782
 3468TIP3   OH231962   3.187   0.401   1.586 -0.2693 -0.2743  0.1658
 3468TIP3    H131963   3.233   0.448   1.655 -0.2260  0.6379 -0.4711
 3468TIP3    H231964   3.108   0.367   1.628 -0.7436  1.1250  0.4338
 3469TIP3   OH231965   2.353   4.236   0.265  0.1710 -0.2222  0.2342
 3469TIP3    H131966   2.370   4.226   0.359  0.4767 -0.9681  0.1090
 3469TIP3    H231967   2.270   4.190   0.251  0.0109  0.0836  0.1777
 3470TIP3   OH231968   2.099   5.708   7.013 -0.8561  0.1179 -0.4532
 3470TIP3    H131969   2.128   5.641   6.951 -0.9785 -2.6628  2.3016
 3470TIP3    H231970   2.178   5.759   7.031 -0.2149 -0.6767 -0.9405
 3471TIP3   OH231971   3.204   2.451   7.530 -0.0021 -0.1006  0.0510
 3471TIP3    H131972   3.131   2.493   7.485  0.1064 -0.7009 -0.6921
 3471TIP3    H231973   3.177   2.449   7.622 -0.8982 -0.2630 -0.2045
 3472TIP3   OH231974   0.177   2.084   0.755  0.2036 -0.5893  0.3829
 3472TIP3    H131975   0.090   2.103   0.719  1.2534  1.3656 -1.2307
 3472TIP3    H231976   0.167   2.100   0.849 -0.8602  1.0195  0.0403
 3473TIP3   OH231977   2.580   1.872   7.540  0.1177 -0.0330 -0.1092
 3473TIP3    H131978   2.567   1.874   7.635  1.2479 -2.0962  0.1401
 3473TIP3    H231979   2.668   1.906   7.527 -0.6155  1.7894 -0.6187
 3474TIP3   OH231980   1.695   2.118   6.621  0.4760 -1.1332  0.1950
 3474TIP3    H131981   1.657   2.120   6.709  0.5480  2.1614  0.3049
 3474TIP3    H231982   1.789   2.122   6.636  0.4954 -0.7666 -0.0089
 3475TIP3   OH231983   6.420   2.945   7.767  0.6222  0.1718 -0.0294
 3475TIP3    H131984   6.442   3.036   7.783  0.4668  0.2111 -0.0377
 3475TIP3    H231985   6.398   2.909   7.853  2.9174 -0.4782  0.3695
 3476TIP3   OH231986   4.653   3.985   6.711  0.1591  0.8521 -0.4877
 3476TIP3    H131987   4.581   4.048   6.701  0.8799  1.4583 -2.1427
 3476TIP3    H231988   4.719   4.032   6.762 -1.0509 -0.1465  2.2083
 3477TIP3   OH231989   6.324   3.977   6.280  0.2633  0.3604 -0.0294
 3477TIP3    H131990   6.384   3.908   6.250  0.8731  0.9960 -0.2989
 3477TIP3    H231991   6.334   4.047   6.215 -1.6618  0.0201 -0.7653
 3478TIP3   OH231992   0.160   5.478   0.057  0.1763  0.5344  0.4555
 3478TIP3    H131993   0.120   5.546   0.003 -1.1796  1.4111  2.4551
 3478TIP3    H231994   0.179   5.522   0.140  2.4181 -0.6945  0.6599
 3479TIP3   OH231995   5.671   0.236   0.217  0.3410  0.0731  0.7175
 3479TIP3    H131996   5.677   0.261   0.309  1.0991  0.5400  0.5457
 3479TIP3    H231997   5.711   0.308   0.169  0.1419 -0.2590  0.0315
 3480TIP3   OH231998   1.775   3.238   1.955 -0.2561  0.1177  0.4324
 3480TIP3    H131999   1.750   3.328   1.934 -0.3842 -0.0808 -0.2914
 3480TIP3    H232000   1.870   3.240   1.959  0.0493 -0.4100 -3.1866
 3481TIP3   OH232001   2.086   1.795   7.292  0.1789 -0.2039 -0.6915
 3481TIP3    H132002   2.104   1.843   7.212  1.2219 -1.7117 -1.4057
 3481TIP3    H232003   2.082   1.862   7.360 -0.0038  1.0229 -1.8823
 3482TIP3   OH232004   6.714   0.252   1.267 -0.7506 -0.4349 -0.1927
 3482TIP3    H132005   6.645   0.309   1.301  0.6321  1.9115 -1.0766
 3482TIP3    H232006   6.749   0.207   1.344 -1.5277  0.3335  0.6311
 3483TIP3   OH232007   1.030   6.573   7.305 -0.0348  0.0805 -0.2028
 3483TIP3    H132008   1.105   6.570   7.365  0.4038  1.1176 -0.6697
 3483TIP3    H232009   1.012   6.667   7.294 -0.3288 -0.0983 -1.4142
 3484TIP3   OH232010   1.442   1.105   1.143 -0.2146  0.2721  0.3123
 3484TIP3    H132011   1.347   1.094   1.143 -0.1613 -0.2336  0.7872
 3484TIP3    H232012   1.471   1.062   1.223  0.6095 -1.4293 -0.8115
 3485TIP3   OH232013   1.073   3.940   8.003  0.3719 -0.1215 -0.3419
 3485TIP3    H132014   1.133   3.952   7.929  1.1316 -0.7911  0.1413
 3485TIP3    H232015   1.129   3.950   8.081 -0.1643 -0.6722  0.1230
 3486TIP3   OH232016   0.846   3.561   7.028 -0.8295 -0.2405 -0.1653
 3486TIP3    H132017   0.764   3.603   7.054 -1.5709 -2.4142  1.3121
 3486TIP3    H232018   0.830   3.467   7.042  1.9184 -0.7265  0.2186
 3487TIP3   OH232019   4.003   5.371   3.144  0.2128 -0.1494 -0.2834
 3487TIP3    H132020   3.972   5.380   3.234 -2.5315  1.2639 -1.2503
 3487TIP3    H232021   3.986   5.280   3.121  1.3311 -0.6269  0.7376
 3488TIP3   OH232022   6.711   4.201   1.001 -0.0273 -0.2911 -0.1175
 3488TIP3    H132023   6.790   4.156   1.030  0.4150 -0.0939 -0.9651
 3488TIP3    H232024   6.682   4.151   0.925 -0.5194 -0.1575 -0.0191
 3489TIP3   OH232025   5.772   3.913   8.013 -0.3487  0.3696 -0.6972
 3489TIP3    H132026   5.833   3.943   7.945  1.0178  0.6449  0.6020
 3489TIP3    H232027   5.755   3.991   8.065 -0.7914 -0.0034 -0.2825
 3490TIP3   OH232028   0.976   6.469   0.901 -0.3532 -0.6258  0.4609
 3490TIP3    H132029   0.928   6.449   0.981 -2.4762  0.2012 -0.5357
 3490TIP3    H232030   0.984   6.385   0.856  0.3733 -0.9977  1.2396
 3491TIP3   OH232031   0.330   4.316   0.287  0.2025 -0.3758  0.1327
 3491TIP3    H132032   0.252   4.285   0.241 -0.4270 -0.3511  1.1535
 3491TIP3    H232033   0.403   4.287   0.232 -0.5395  2.1149 -2.4707
 3492TIP3   OH232034   3.979   3.337   1.023 -0.2007  0.0306 -0.0222
 3492TIP3    H132035   4.039   3.358   0.952 -0.3190  0.7074  0.0694
 3492TIP3    H232036   4.036   3.325   1.099 -0.0537 -0.9262 -0.2660
 3493TIP3   OH232037   4.421   6.066   0.372  0.2439 -0.2381  0.4446
 3493TIP3    H132038   4.498   6.115   0.399  2.7626 -2.4277 -2.1081
 3493TIP3    H232039   4.420   5.988   0.428  0.7398 -0.8731 -0.4078
 3494TIP3   OH232040   4.465   6.889   1.566  0.0037 -0.5467  0.4088
 3494TIP3    H132041   4.426   6.971   1.536 -1.0041 -0.9943  0.4380
 3494TIP3    H232042   4.448   6.827   1.494 -0.0032 -0.9400  0.7437
 3495TIP3   OH232043   2.900   2.754   5.724 -0.4416 -0.0737 -0.2098
 3495TIP3    H132044   2.839   2.681   5.738  0.0709 -0.3295  0.7313
 3495TIP3    H232045   2.923   2.784   5.812 -1.5721  2.0402 -0.5586
 3496TIP3   OH232046   5.792   5.924   7.568  0.0748 -0.1107 -0.3897
 3496TIP3    H132047   5.810   5.839   7.609 -0.0123 -0.3533 -0.8445
 3496TIP3    H232048   5.845   5.924   7.488  0.5075  0.4991 -0.1159
 3497TIP3   OH232049   3.822   0.676   1.301  0.1851  0.8181 -0.3539
 3497TIP3    H132050   3.774   0.594   1.295  0.7020  0.5432 -0.8239
 3497TIP3    H232051   3.795   0.714   1.385  1.3264 -0.7050  0.7397
 3498TIP3   OH232052   5.868   2.432   2.327  0.5217  0.7887  0.2655
 3498TIP3    H132053   5.869   2.512   2.379 -1.2319  1.2521 -0.3117
 3498TIP3    H232054   5.792   2.383   2.360  2.4440 -1.4346  1.6649
 3499TIP3   OH232055   1.750   4.871   0.889 -0.6397 -0.0659  0.3520
 3499TIP3    H132056   1.706   4.911   0.964 -0.8031  0.3996  0.0042
 3499TIP3    H232057   1.801   4.799   0.928  1.0120  1.4818  1.2342
 3500TIP3   OH232058   2.248   4.636   7.474  0.1864 -0.1820 -0.2076
 3500TIP3    H132059   2.293   4.556   7.499 -1.1833 -1.0883 -0.4930
 3500TIP3    H232060   2.261   4.643   7.380 -0.4078 -0.5637 -0.3269
 3501TIP3   OH232061   2.494   1.540   0.263  0.2559 -0.4755  0.5704
 3501TIP3    H132062   2.485   1.445   0.255 -2.4930 -0.3206  0.8494
 3501TIP3    H232063   2.562   1.552   0.329 -0.3453 -2.3115  1.6071
 3502TIP3   OH232064   6.817   6.530   0.299  0.3194  0.2218  0.6617
 3502TIP3    H132065   6.761   6.474   0.353  1.9012 -1.6858  0.4315
 3502TIP3    H232066   6.775   6.531   0.213  2.0440 -3.7735 -0.4349
 3503TIP3   OH232067   2.357   6.634   0.515 -0.2577 -0.3115 -0.2484
 3503TIP3    H132068   2.314   6.692   0.578 -0.6215 -0.8171 -0.0230
 3503TIP3    H232069   2.395   6.565   0.569  2.1796  0.8823 -0.2710
 3504TIP3   OH232070   3.128   5.813   1.411  0.0537 -0.6196  0.4206
 3504TIP3    H132071   3.035   5.816   1.386  0.5432  0.0957 -1.5069
 3504TIP3    H232072   3.149   5.903   1.435  0.3003 -0.7390  0.6478
 3505TIP3   OH232073   3.474   1.565   7.564  0.1854 -0.6548 -0.4388
 3505TIP3    H132074   3.423   1.485   7.571  0.0596 -0.5060  0.5064
 3505TIP3    H232075   3.448   1.617   7.640  2.1054 -0.7951  0.3778
 3506TIP3   OH232076   3.081   1.515   2.061  0.0668 -0.0029  0.5102
 3506TIP3    H132077   3.134   1.577   2.111  0.5191 -0.7938  1.0344
 3506TIP3    H232078   2.995   1.519   2.102 -0.3700  1.4294 -0.4676
 3507TIP3   OH232079   4.497   5.790   7.642 -0.8362  0.2529 -0.5130
 3507TIP3    H132080   4.585   5.822   7.659 -0.9206 -0.0809  0.6485
 3507TIP3    H232081   4.495   5.703   7.682 -1.4422 -0.0878 -1.2492
 3508TIP3   OH232082   0.494   1.545   0.401  0.3711 -0.4513  0.5814
 3508TIP3    H132083   0.489   1.640   0.392 -1.2831 -0.5075  0.5725
 3508TIP3    H232084   0.566   1.531   0.463  0.2689  0.8411  1.0348
 3509TIP3   OH232085   1.050   5.165   7.204 -0.0422 -0.3812 -0.4207
 3509TIP3    H132086   0.974   5.171   7.146  0.4428  0.0394 -1.0302
 3509TIP3    H232087   1.115   5.222   7.163  0.4721 -0.4473  0.2944
 3510TIP3   OH232088   6.407   3.163   7.953 -0.4391 -0.2380 -0.0906
 3510TIP3    H132089   6.396   3.254   7.980  0.2584 -0.3255  0.5259
 3510TIP3    H232090   6.485   3.133   8.001 -0.7955 -1.2227 -0.1079
 3511TIP3   OH232091   4.093   0.183   0.060  0.4236  0.0771  0.0450
 3511TIP3    H132092   4.030   0.173   0.131 -0.2563  1.4043 -0.3461
 3511TIP3    H232093   4.123   0.094   0.042  0.2763 -0.3343  1.6794
 3512TIP3   OH232094   6.814   1.631   7.124  0.4019 -0.2014  0.3085
 3512TIP3    H132095   6.793   1.626   7.217  1.0153 -0.7432  0.4230
 3512TIP3    H232096   6.875   1.559   7.109  0.1133 -0.2854 -0.5653
 3513TIP3   OH232097   2.681   5.706   2.082 -0.2564 -0.3230  0.4738
 3513TIP3    H132098   2.645   5.651   2.151  0.5871  0.8473  1.9179
 3513TIP3    H232099   2.646   5.793   2.100  1.7369  0.4575  0.7950
 3514TIP3   OH232100   1.593   1.265   7.106 -0.0905  0.3645  0.1629
 3514TIP3    H132101   1.587   1.360   7.093 -1.5388  0.2797  0.0888
 3514TIP3    H232102   1.611   1.230   7.019 -1.1163  0.4671 -0.1027
 3515TIP3   OH232103   5.348   1.915   7.310 -0.0498  0.2892 -0.0515
 3515TIP3    H132104   5.422   1.973   7.293  0.2633 -0.4056 -1.2489
 3515TIP3    H232105   5.305   1.906   7.225 -0.0318 -1.2741  0.0619
 3516TIP3   OH232106   3.235   4.049   7.621 -0.3271 -0.5743 -0.1814
 3516TIP3    H132107   3.195   4.135   7.620 -1.1511 -0.9459 -0.6992
 3516TIP3    H232108   3.310   4.057   7.680  0.0974  0.7050 -0.8527
 3517TIP3   OH232109   3.796   6.588   1.116 -0.0599  0.1704  0.1079
 3517TIP3    H132110   3.742   6.518   1.153  1.6290 -0.1804  2.1421
 3517TIP3    H232111   3.885   6.551   1.116  0.6463  1.7963 -0.1649
 3518TIP3   OH232112   1.825   5.863   0.885 -0.7770 -0.0874 -0.2709
 3518TIP3    H132113   1.804   5.813   0.964 -1.6154  1.2415  0.3716
 3518TIP3    H232114   1.792   5.809   0.813 -1.1322 -0.7278  0.3621
 3519TIP3   OH232115   1.472   5.738   0.301 -0.4687  0.4322  0.4841
 3519TIP3    H132116   1.452   5.774   0.215 -2.4002 -1.2100  0.1770
 3519TIP3    H232117   1.530   5.665   0.284 -1.2707 -0.2203  0.4977
 3520TIP3   OH232118   4.551   2.868   7.089  0.5333 -0.1324 -0.2653
 3520TIP3    H132119   4.457   2.883   7.081  0.2549 -2.3035 -1.9735
 3520TIP3    H232120   4.558   2.795   7.151  1.2535  1.1308  1.2022
 3521TIP3   OH232121   6.491   5.018   7.719  0.0274 -0.6267  0.4927
 3521TIP3    H132122   6.561   5.031   7.783 -0.0509 -1.2967  0.7139
 3521TIP3    H232123   6.427   5.086   7.740  0.0179 -0.8161  1.1004
 3522TIP3   OH232124   1.565   4.545   0.194 -0.4124  0.6361 -0.0784
 3522TIP3    H132125   1.505   4.619   0.201 -0.1793  0.7344  1.0287
 3522TIP3    H232126   1.507   4.469   0.180 -0.7071  0.8972 -0.3008
 3523TIP3   OH232127   2.132   1.208   1.423  0.0817  0.1957 -0.0402
 3523TIP3    H132128   2.077   1.230   1.498 -0.2948  0.0457 -0.2680
 3523TIP3    H232129   2.207   1.162   1.461 -0.1336  0.0724  0.2400
 3524TIP3   OH232130   6.101   6.554   0.980  0.7860  0.3739 -0.4925
 3524TIP3    H132131   6.125   6.623   0.918 -1.1873  0.0920 -1.6681
 3524TIP3    H232132   6.057   6.600   1.051 -0.9851  0.3624 -1.5165
 3525TIP3   OH232133   2.577   2.781   7.205  0.1558  0.1637  0.3324
 3525TIP3    H132134   2.500   2.733   7.176 -1.7997  2.3409  1.6020
 3525TIP3    H232135   2.623   2.720   7.264  0.4119 -1.7652 -1.7478
 3526TIP3   OH232136   6.802   0.924   0.294  0.1709 -0.0466  0.0702
 3526TIP3    H132137   6.825   0.883   0.378 -1.9560 -1.1374  0.1806
 3526TIP3    H232138   6.881   0.971   0.268  0.8144  0.5467  2.8053
 3527TIP3   OH232139   6.812   1.582   1.283  0.3449  0.3005 -0.3265
 3527TIP3    H132140   6.767   1.642   1.224  0.6287  0.7923 -0.0526
 3527TIP3    H232141   6.899   1.570   1.243 -0.1957 -1.1013 -1.1630
 3528TIP3   OH232142   4.932   1.072   0.597 -0.0009  1.0032  0.1369
 3528TIP3    H132143   5.019   1.110   0.616  0.9730 -0.7535 -0.5723
 3528TIP3    H232144   4.934   0.986   0.639 -1.2864  0.8162 -0.1669
 3529TIP3   OH232145   6.991   5.244   7.494 -0.0028  0.2385  0.3948
 3529TIP3    H132146   7.000   5.243   7.589 -0.0417  1.9109  0.4555
 3529TIP3    H232147   7.073   5.207   7.461  0.6927  1.1164  1.0793
 3530TIP3   OH232148   5.445   4.414   0.232  0.1839  0.2836 -0.3733
 3530TIP3    H132149   5.379   4.399   0.299 -1.9686  4.0631 -1.3293
 3530TIP3    H232150   5.413   4.367   0.155 -0.4582  0.5972 -0.3045
 3531TIP3   OH232151   5.734   3.250   1.676 -0.7347 -0.5417 -0.2147
 3531TIP3    H132152   5.664   3.314   1.661 -0.6602 -0.6135 -0.9169
 3531TIP3    H232153   5.692   3.165   1.663 -1.1885 -0.7348  2.1373
 3532TIP3   OH232154   3.927   6.012   6.975 -0.3578 -0.4160  0.5633
 3532TIP3    H132155   3.838   5.984   6.951 -0.6526 -1.4527  2.6766
 3532TIP3    H232156   3.957   6.062   6.899 -1.3399 -3.1049 -1.7857
 3533TIP3   OH232157   1.159   0.736   0.712  0.4344 -0.8004 -0.2423
 3533TIP3    H132158   1.097   0.808   0.728 -0.2344 -1.2204 -0.8989
 3533TIP3    H232159   1.244   0.780   0.705  0.4005 -0.3090  1.6557
 3534TIP3   OH232160   2.758   5.349   1.152 -0.7539 -0.1982  0.5210
 3534TIP3    H132161   2.702   5.287   1.106 -2.1112  1.0972  0.3536
 3534TIP3    H232162   2.784   5.413   1.085 -0.6442  0.2784  1.0097
 3535TIP3   OH232163   2.748   4.851   6.780 -0.3037 -0.1014 -0.3716
 3535TIP3    H132164   2.676   4.827   6.721 -0.0556  2.1127 -1.6931
 3535TIP3    H232165   2.708   4.853   6.867 -1.3399 -0.8373 -0.8045
 3536TIP3   OH232166   5.355   3.587   6.365 -0.2702 -0.3263 -0.4267
 3536TIP3    H132167   5.266   3.615   6.388 -0.6740 -0.8384 -1.3023
 3536TIP3    H232168   5.406   3.667   6.363 -0.6426 -0.0539  0.3548
 3537TIP3   OH232169   3.217   3.325   7.779  0.2406  0.3124  0.2375
 3537TIP3    H132170   3.150   3.295   7.717  0.4941  1.6726 -0.7408
 3537TIP3    H232171   3.293   3.345   7.724  1.6486 -1.6141  1.3713
 3538TIP3   OH232172   1.060   6.088   0.999  0.8613 -0.1811  0.0877
 3538TIP3    H132173   1.015   6.144   0.935 -0.1276 -0.5112  0.4836
 3538TIP3    H232174   1.120   6.036   0.946 -0.6130 -1.1230 -0.7364
 3539TIP3   OH232175   3.825   3.903   0.118  0.0500  0.2278 -0.3139
 3539TIP3    H132176   3.730   3.911   0.116  0.0657  0.2471 -1.3184
 3539TIP3    H232177   3.850   3.884   0.028  0.8499 -1.4902  0.2047
 3540TIP3   OH232178   6.293   1.007   1.469 -0.2543 -0.2726  0.3764
 3540TIP3    H132179   6.206   0.982   1.501 -0.2487 -2.2565 -1.0029
 3540TIP3    H232180   6.280   1.093   1.430 -1.6295 -0.5645  0.1373
 3541TIP3   OH232181   2.201   5.773   7.620  0.2225 -0.0637  0.0585
 3541TIP3    H132182   2.209   5.800   7.529 -0.1174  0.3976  0.1603
 3541TIP3    H232183   2.218   5.679   7.619 -1.7644 -0.4696 -0.7907
 3542TIP3   OH232184   1.922   3.186   7.422 -0.3282 -0.4177  0.0124
 3542TIP3    H132185   1.879   3.258   7.376 -1.8684 -0.1025  1.8381
 3542TIP3    H232186   1.876   3.108   7.393  0.2830 -0.5046 -0.7524
 3543TIP3   OH232187   2.743   4.972   1.274 -0.2733 -0.2677 -0.3574
 3543TIP3    H132188   2.711   5.044   1.329  0.6526 -0.4078  0.3932
 3543TIP3    H232189   2.664   4.923   1.251 -0.5781 -1.3571  2.4934
 3544TIP3   OH232190   5.985   1.689   1.242  0.9194  0.2463 -0.1107
 3544TIP3    H132191   5.996   1.685   1.147  0.3601  1.4757 -0.2493
 3544TIP3    H232192   6.046   1.624   1.276 -0.1791 -1.5550 -1.3875
 3545TIP3   OH232193   6.617   0.111   2.066 -0.0540 -0.5659  0.4359
 3545TIP3    H132194   6.640   0.058   2.142 -0.1146 -1.3883 -0.0945
 3545TIP3    H232195   6.666   0.070   1.994 -0.7790 -0.4310 -0.1411
 3546TIP3   OH232196   5.489   2.233   0.249 -0.4913 -0.1895  0.2254
 3546TIP3    H132197   5.477   2.162   0.311 -0.2825 -0.5323 -0.1214
 3546TIP3    H232198   5.401   2.258   0.222 -0.5680 -0.2436  0.4242
 3547TIP3   OH232199   4.496   2.625   2.243  0.0156 -0.4208 -0.4188
 3547TIP3    H132200   4.575   2.631   2.190  0.4337  1.6399  0.3122
 3547TIP3    H232201   4.526   2.644   2.332 -1.2149  0.0084 -0.0744
 3548TIP3   OH232202   5.100   4.586   6.781 -0.0121 -0.2590  0.5366
 3548TIP3    H132203   5.172   4.535   6.744  0.9177  0.4017  1.3759
 3548TIP3    H232204   5.031   4.583   6.714  1.5063  0.7005 -1.1577
 3549TIP3   OH232205   3.451   7.002   8.046 -0.3085 -0.1021  0.3126
 3549TIP3    H132206   3.467   7.049   7.964  1.2581 -0.2310  0.5200
 3549TIP3    H232207   3.538   6.974   8.075 -0.8388 -0.1340  1.9700
 3550TIP3   OH232208   6.118   3.492   2.215 -0.0596 -0.0936 -0.1679
 3550TIP3    H132209   6.201   3.496   2.167  0.3684  3.3569  0.5955
 3550TIP3    H232210   6.142   3.454   2.299  0.5141 -0.2139 -0.3768
 3551TIP3   OH232211   4.886   3.219   1.466  0.2634  0.4526  0.4648
 3551TIP3    H132212   4.798   3.180   1.464  0.4266 -0.0607  1.8312
 3551TIP3    H232213   4.904   3.231   1.560  1.3627  1.2310  0.1750
 3552TIP3   OH232214   6.010   6.936   1.111 -0.6528  0.4950 -0.2514
 3552TIP3    H132215   5.988   6.843   1.120  1.6458 -0.3490 -2.2139
 3552TIP3    H232216   5.942   6.982   1.160 -2.0782 -2.1938  0.4711
 3553TIP3   OH232217   6.961   6.264   0.021  0.1723 -0.5037  0.7899
 3553TIP3    H132218   7.021   6.328   0.060  1.3728  0.6666 -2.5234
 3553TIP3    H232219   7.010   6.181   0.022 -0.3865 -0.8483  2.8767
 3554TIP3   OH232220   1.800   4.950   0.620 -0.2260 -0.0241  0.0113
 3554TIP3    H132221   1.770   4.937   0.710 -2.9811 -0.2845 -0.8573
 3554TIP3    H232222   1.777   4.868   0.576  0.4852  0.3525 -1.0941
 3555TIP3   OH232223   6.241   2.262   1.736 -0.2229 -0.6216  0.5077
 3555TIP3    H132224   6.331   2.280   1.708 -1.1850  0.4367 -2.2358
 3555TIP3    H232225   6.210   2.345   1.772 -0.6738 -0.3945 -0.3668
 3556TIP3   OH232226   3.886   1.227   2.045 -0.1870  0.1146 -0.0227
 3556TIP3    H132227   3.861   1.146   2.000 -1.2630  0.5767 -0.2820
 3556TIP3    H232228   3.804   1.261   2.081  0.3041  0.9292  0.3505
 3557TIP3   OH232229   2.536   5.684   6.809  0.2911 -0.5824 -0.7400
 3557TIP3    H132230   2.549   5.598   6.769  0.5486 -0.3834 -1.0963
 3557TIP3    H232231   2.451   5.713   6.776 -0.6357 -1.4463  0.7763
 3558TIP3   OH232232   5.803   1.830   6.674 -0.1565  0.1947  0.6073
 3558TIP3    H132233   5.836   1.832   6.584 -0.2407 -1.4026  0.5153
 3558TIP3    H232234   5.882   1.826   6.729 -0.1107 -1.2950  0.4787
 3559TIP3   OH232235   3.084   5.694   8.147 -0.1373  0.5193  0.3826
 3559TIP3    H132236   3.099   5.646   8.229 -0.2926  0.6567  0.4922
 3559TIP3    H232237   3.039   5.631   8.090  0.7140  0.1505  0.1000
 3560TIP3   OH232238   6.971   3.303   7.816 -0.2814 -0.4588 -0.2137
 3560TIP3    H132239   6.932   3.382   7.853 -0.4769 -1.0077  0.7755
 3560TIP3    H232240   6.897   3.245   7.800 -0.2466 -0.1220 -1.8164
 3561TIP3   OH232241   0.528   2.268   2.208  0.0578 -0.0688  0.6532
 3561TIP3    H132242   0.468   2.341   2.197  0.0939  0.1691  1.8501
 3561TIP3    H232243   0.575   2.288   2.289  0.5469 -1.0831  0.6366
 3562TIP3   OH232244   6.503   5.268   7.562 -0.1276 -0.0700  0.2391
 3562TIP3    H132245   6.409   5.252   7.560 -0.6353  2.4474  0.3501
 3562TIP3    H232246   6.533   5.241   7.475 -0.6940 -1.9328  0.5686
 3563TIP3   OH232247   3.842   0.046   7.640 -0.2188  0.5348  0.1787
 3563TIP3    H132248   3.820   0.138   7.658  1.0833  0.4828  2.4662
 3563TIP3    H232249   3.769  -0.003   7.679 -0.6015  0.5623 -0.4870
 3564TIP3   OH232250   6.116   5.522   7.197 -0.0014  0.1667 -0.3341
 3564TIP3    H132251   6.112   5.535   7.292 -1.2398  2.7282 -0.6505
 3564TIP3    H232252   6.041   5.467   7.177  0.6789 -1.0008  0.2023
 3565TIP3   OH232253   3.609   1.384   0.069 -0.2436 -0.6596  0.1670
 3565TIP3    H132254   3.534   1.389   0.129  0.1095 -0.9320  0.6401
 3565TIP3    H232255   3.610   1.469   0.025  0.4363  0.1667  1.6975
 3566TIP3   OH232256   5.450   0.529   7.343 -0.3008  0.1205  0.3276
 3566TIP3    H132257   5.471   0.611   7.386  1.4515 -0.1910  0.1209
 3566TIP3    H232258   5.384   0.488   7.399 -1.1255  1.5949  0.4798
 3567TIP3   OH232259   5.336   0.137   7.571  0.1487  0.3545  0.3273
 3567TIP3    H132260   5.418   0.133   7.523  0.5695 -1.2865  1.1408
 3567TIP3    H232261   5.287   0.059   7.543 -0.8041  0.8806  0.4557
 3568TIP3   OH232262   6.332   2.771   0.607 -0.4320 -0.2387 -0.2367
 3568TIP3    H132263   6.345   2.782   0.513  0.4325 -2.2671 -0.4054
 3568TIP3    H232264   6.404   2.819   0.647 -1.3609  1.4617 -0.5402
 3569TIP3   OH232265   1.209   1.798   1.359  0.7435 -0.1575  0.3755
 3569TIP3    H132266   1.292   1.830   1.322  0.8943 -1.3248 -0.3234
 3569TIP3    H232267   1.166   1.877   1.391  0.8951  0.8362 -1.7314
 3570TIP3   OH232268   5.074   3.797   8.176  0.1284  0.4799 -0.2860
 3570TIP3    H132269   5.063   3.716   8.126  1.1912  1.4302 -2.1921
 3570TIP3    H232270   5.169   3.808   8.184 -0.0068  0.6731  1.4903
 3571TIP3   OH232271   4.939   1.562   1.163 -0.6554 -0.1847 -0.4151
 3571TIP3    H132272   4.867   1.605   1.209  0.3532 -0.1476  1.1972
 3571TIP3    H232273   4.945   1.608   1.079 -1.7542  0.5595 -0.1074
 3572TIP3   OH232274   1.716   0.647   0.142 -0.0419 -0.6525 -0.5574
 3572TIP3    H132275   1.775   0.618   0.211  0.5304  0.2936 -0.6202
 3572TIP3    H232276   1.637   0.595   0.153 -0.1783 -0.1414  1.1522
 3573TIP3   OH232277   5.719   1.830   1.696  0.3043 -0.1746 -0.0351
 3573TIP3    H132278   5.810   1.838   1.722  0.1294 -1.3896  1.0551
 3573TIP3    H232279   5.675   1.905   1.736  0.8517  0.5487 -0.7704
 3574TIP3   OH232280   0.450   6.234   6.629  0.3392  0.1663  0.3855
 3574TIP3    H132281   0.453   6.329   6.620 -0.3207  0.1470 -0.1054
 3574TIP3    H232282   0.363   6.216   6.664 -1.1467 -0.4901 -3.1558
 3575TIP3   OH232283   2.243   2.882   0.969 -0.0347  0.1406  0.1060
 3575TIP3    H132284   2.176   2.931   0.922  0.7385  1.1785  0.0665
 3575TIP3    H232285   2.264   2.936   1.045 -0.4588 -0.9887  1.0853
 3576TIP3   OH232286   6.045   6.062   2.056  0.1967 -0.1014 -0.3481
 3576TIP3    H132287   6.079   5.993   1.999  0.7748 -1.2280  1.2781
 3576TIP3    H232288   6.007   6.015   2.130 -1.3512  1.2847 -0.2091
 3577TIP3   OH232289   6.420   2.686   8.272 -0.3073 -0.4858  0.5562
 3577TIP3    H132290   6.371   2.712   8.350  0.9588 -1.3397  1.6938
 3577TIP3    H232291   6.511   2.710   8.292 -0.0056 -0.4735 -0.7792
 3578TIP3   OH232292   5.150   6.994   1.197 -0.3314 -0.4088  0.6608
 3578TIP3    H132293   5.056   6.980   1.211 -0.6536  0.4692 -0.4858
 3578TIP3    H232294   5.178   6.919   1.144 -0.5592 -0.2761  0.3504
 3579TIP3   OH232295   3.336   3.054   7.834  0.6624 -0.9056 -0.1260
 3579TIP3    H132296   3.425   3.072   7.864  0.6297  0.5154 -0.8090
 3579TIP3    H232297   3.336   3.079   7.742 -0.5492 -0.4984 -0.0351
 3580TIP3   OH232298   0.635   6.785   0.978  0.6749  0.5928  0.0109
 3580TIP3    H132299   0.721   6.754   0.950  1.1447  2.0006 -0.1666
 3580TIP3    H232300   0.573   6.721   0.941  1.6312 -0.5007  0.2482
 3581TIP3   OH232301   4.960   2.673   1.677 -0.7114 -1.0321 -0.0208
 3581TIP3    H132302   4.929   2.594   1.633  0.1905 -1.2724 -0.2431
 3581TIP3    H232303   4.881   2.711   1.717 -1.7175 -0.3361 -2.5227
 3582TIP3   OH232304   3.545   2.315   8.237  1.0143  0.4404  0.4330
 3582TIP3    H132305   3.610   2.289   8.171  0.4349 -0.6834  0.2969
 3582TIP3    H232306   3.465   2.330   8.187  1.0109  1.2728  0.6747
 3583TIP3   OH232307   3.086   2.666   0.602  0.1448  0.0519  1.2915
 3583TIP3    H132308   3.116   2.579   0.628 -0.2234 -0.6318 -0.4207
 3583TIP3    H232309   3.040   2.651   0.519  0.2664  1.9118  0.8606
 3584TIP3   OH232310   5.285   3.330   1.921  0.2995 -0.6005 -0.1061
 3584TIP3    H132311   5.324   3.245   1.904 -0.1878 -0.8874  0.2132
 3584TIP3    H232312   5.295   3.378   1.839  1.2233 -0.7034 -0.0683
 3585TIP3   OH232313   4.234   5.767   6.721  0.4208 -0.2530  0.4939
 3585TIP3    H132314   4.327   5.770   6.739  0.3909 -1.1459  0.8210
 3585TIP3    H232315   4.220   5.683   6.677 -0.2866 -0.3097  0.8112
 3586TIP3   OH232316   5.696   1.105   2.081 -0.3046  0.2420  0.3329
 3586TIP3    H132317   5.657   1.114   1.994 -1.1609  1.0637  0.7804
 3586TIP3    H232318   5.764   1.172   2.084  3.0655 -2.7846 -1.3664
 3587TIP3   OH232319   5.629   2.255   0.965  0.1074 -0.1722 -0.1980
 3587TIP3    H132320   5.683   2.176   0.975  0.9725  0.4278 -0.0145
 3587TIP3    H232321   5.648   2.307   1.043 -2.3035 -0.8282  0.9083
 3588TIP3   OH232322   1.020   4.499   6.924 -0.0623  0.0295  0.1436
 3588TIP3    H132323   1.086   4.432   6.909 -1.2602 -1.5701  1.5878
 3588TIP3    H232324   0.942   4.451   6.952 -2.4035  1.6859 -2.8718
 3589TIP3   OH232325   5.161   2.471   7.488 -0.3382  0.6901 -0.2369
 3589TIP3    H132326   5.202   2.406   7.430  1.9335  1.0428  0.8574
 3589TIP3    H232327   5.155   2.550   7.435  0.9741  0.7872 -0.2694
 3590TIP3   OH232328   7.011   6.395   6.044 -0.0752 -0.0899  0.1264
 3590TIP3    H132329   7.074   6.338   5.999  0.6846  1.7976 -1.3213
 3590TIP3    H232330   7.047   6.406   6.132  0.8161 -0.2372 -0.2079
 3591TIP3   OH232331   2.219   3.324   7.995 -0.0585  0.8614  0.4186
 3591TIP3    H132332   2.134   3.358   8.023 -0.6425  0.2479 -0.5756
 3591TIP3    H232333   2.224   3.236   8.033  1.0729  1.6530  2.2493
 3592TIP3   OH232334   6.638   0.427   0.165  0.5442  0.0622  0.2692
 3592TIP3    H132335   6.605   0.342   0.195  1.8535 -0.4800  0.2054
 3592TIP3    H232336   6.701   0.453   0.232  2.2883 -0.3919 -1.1285
 3593TIP3   OH232337   5.032   3.924   7.611 -0.5496  0.2405  0.0335
 3593TIP3    H132338   5.124   3.948   7.602 -0.0477 -1.1369  1.1476
 3593TIP3    H232339   5.018   3.858   7.542 -0.5183 -0.0394  0.2946
 3594TIP3   OH232340   5.672   3.047   0.241 -0.4184 -0.0111 -0.1984
 3594TIP3    H132341   5.705   3.135   0.260 -1.0461  0.1771  0.0298
 3594TIP3    H232342   5.691   3.034   0.148  1.4586 -0.4107  0.1843
 3595TIP3   OH232343   3.841   2.510   1.552  1.0242 -0.0290 -0.3751
 3595TIP3    H132344   3.911   2.478   1.610  1.7992 -1.1552 -1.8766
 3595TIP3    H232345   3.881   2.512   1.465 -0.2618  1.1667 -0.9765
 3596TIP3   OH232346   1.318   5.199   1.043  0.1914 -0.5268  0.2660
 3596TIP3    H132347   1.236   5.234   1.008  0.6223  0.5383  0.2696
 3596TIP3    H232348   1.321   5.231   1.133 -0.0544 -1.7511  0.7275
 3597TIP3   OH232349   0.151   0.071   6.469  0.0104 -0.4000 -0.0588
 3597TIP3    H132350   0.193   0.018   6.537 -2.1901 -2.6769 -0.3347
 3597TIP3    H232351   0.196   0.046   6.388  0.5874  0.0270  0.1179
 3598TIP3   OH232352   3.587   3.107   7.983 -0.1203  0.0058  0.3913
 3598TIP3    H132353   3.574   3.198   7.957 -0.9074 -0.2649 -0.1868
 3598TIP3    H232354   3.663   3.077   7.932 -0.2208  0.1652  0.1500
 3599TIP3   OH232355   6.967   4.768   6.999 -0.3751  0.3945  0.0109
 3599TIP3    H132356   6.884   4.800   6.965 -0.9595 -1.5238 -0.4780
 3599TIP3    H232357   7.010   4.727   6.924  1.3772  1.9762  0.0788
 3600TIP3   OH232358   6.313   4.583   6.801  0.4986  0.0666 -0.0487
 3600TIP3    H132359   6.316   4.594   6.706 -0.5040  2.5099  0.1142
 3600TIP3    H232360   6.233   4.629   6.828  0.4873 -1.0026  1.9441
 3601TIP3   OH232361   5.953   6.474   0.194  0.1856 -0.5338  0.1882
 3601TIP3    H132362   5.942   6.379   0.202  0.6347 -0.5387  0.7921
 3601TIP3    H232363   5.948   6.491   0.100 -1.2322 -0.9884  0.1557
 3602TIP3   OH232364   2.452   0.652   6.251 -0.4173  0.0667 -0.3237
 3602TIP3    H132365   2.463   0.610   6.166 -1.1883  0.7093 -0.7564
 3602TIP3    H232366   2.523   0.715   6.257  1.0554 -1.5802  0.5447
 3603TIP3   OH232367   4.911   3.953   1.360 -0.3564  0.0869 -0.3243
 3603TIP3    H132368   4.898   3.991   1.273 -1.8742  1.2360  0.3656
 3603TIP3    H232369   4.868   3.867   1.355  1.4916 -0.8316 -1.3352
 3604TIP3   OH232370   3.907   5.292   0.181 -0.0045  0.9182 -0.2551
 3604TIP3    H132371   3.990   5.251   0.206 -0.5185 -0.4740 -0.7359
 3604TIP3    H232372   3.861   5.306   0.264  0.6363  1.5717  0.0037
 3605TIP3   OH232373   4.969   4.722   1.335 -0.5361  0.1894  0.4896
 3605TIP3    H132374   4.926   4.800   1.372 -1.5706 -0.3099  0.3627
 3605TIP3    H232375   4.909   4.691   1.268  1.3393  1.1184 -1.7423
 3606TIP3   OH232376   6.127   2.024   2.313  0.0581  0.1788 -0.0564
 3606TIP3    H132377   6.068   1.976   2.256  2.0613 -1.3880 -0.9336
 3606TIP3    H232378   6.110   2.116   2.294 -1.3659 -0.2484 -0.9892
 3607TIP3   OH232379   3.185   0.036   0.028 -0.0364  0.5803 -0.1469
 3607TIP3    H132380   3.131   0.041   0.108 -1.5621  0.0921 -1.0977
 3607TIP3    H232381   3.128  -0.006  -0.036  2.3448 -2.3296 -0.5464
 3608TIP3   OH232382   5.929   6.515   8.212 -0.4335 -0.4424 -0.2868
 3608TIP3    H132383   5.889   6.531   8.126  0.6333  1.1149 -0.5422
 3608TIP3    H232384   6.021   6.536   8.199 -0.1131 -0.9069  1.0793
 3609TIP3   OH232385   4.673   4.238   0.396 -0.8105  0.7462  0.4722
 3609TIP3    H132386   4.674   4.229   0.301 -0.2733 -0.9054  0.5949
 3609TIP3    H232387   4.598   4.185   0.424  0.0045 -0.1389  1.0462
 3610TIP3   OH232388   6.595   0.987   2.252 -0.0421 -0.0933  0.5081
 3610TIP3    H132389   6.561   0.902   2.222 -2.0046  0.6837  0.4226
 3610TIP3    H232390   6.569   0.992   2.344 -1.0285  0.9079  0.1985
 3611TIP3   OH232391   0.625   4.190   7.247  0.5580 -0.4967  0.4586
 3611TIP3    H132392   0.552   4.250   7.231  2.1803  1.3407 -0.3737
 3611TIP3    H232393   0.647   4.154   7.161  0.4591 -1.3122  0.7577
 3612TIP3   OH232394   4.650   3.768   7.191 -0.4847  0.2443  0.5723
 3612TIP3    H132395   4.579   3.723   7.237 -0.3998 -0.2847  0.1981
 3612TIP3    H232396   4.727   3.713   7.206 -0.4081  0.1857 -0.0070
 3613TIP3   OH232397   2.754   2.284   1.290 -0.1079 -0.3184  0.1794
 3613TIP3    H132398   2.694   2.289   1.365  0.6317  2.4895  0.6921
 3613TIP3    H232399   2.841   2.278   1.330  0.1276 -2.9868 -0.5555
 3614TIP3   OH232400   3.761   6.252   6.869  0.2216 -0.4409 -0.3444
 3614TIP3    H132401   3.678   6.281   6.831  0.4207  0.8761  0.1969
 3614TIP3    H232402   3.741   6.165   6.904 -1.2642  0.2994  0.7872
 3615TIP3   OH232403   4.431   1.994   8.000 -0.0370  0.1839 -0.2904
 3615TIP3    H132404   4.516   2.002   7.957 -1.6352 -0.4022 -3.9023
 3615TIP3    H232405   4.398   1.908   7.973 -1.8785  0.4920  0.8129
 3616TIP3   OH232406   1.621   0.541   0.481 -0.1738  0.4312 -0.1467
 3616TIP3    H132407   1.609   0.448   0.499  3.1179 -0.0497  0.0643
 3616TIP3    H232408   1.689   0.569   0.543  1.2357  2.1526 -2.3215
 3617TIP3   OH232409   3.771   3.848   1.237 -0.0810  0.1202  0.5863
 3617TIP3    H132410   3.692   3.802   1.265 -1.6033  0.1404 -3.1437
 3617TIP3    H232411   3.811   3.790   1.172  0.3214  2.1407 -1.0694
 3618TIP3   OH232412   1.904   0.116   2.032 -1.0363 -0.1621  0.7243
 3618TIP3    H132413   1.899   0.203   2.072 -2.0249  1.5151 -2.6408
 3618TIP3    H232414   1.813   0.085   2.029 -0.9599 -0.3302 -0.0063
 3619TIP3   OH232415   3.831   5.667   1.809  0.4309 -0.6542 -0.0929
 3619TIP3    H132416   3.922   5.682   1.835  0.5065 -1.7880  0.3361
 3619TIP3    H232417   3.781   5.730   1.860  0.9291 -0.3704  0.0537
 3620TIP3   OH232418   6.678   2.349   6.855 -0.5665  0.6485  0.2454
 3620TIP3    H132419   6.724   2.378   6.776  0.5655 -1.7573 -0.0673
 3620TIP3    H232420   6.650   2.260   6.835 -1.6658  0.5677  2.0050
 3621TIP3   OH232421   2.552   6.847   0.693  0.3964  0.0121  0.2468
 3621TIP3    H132422   2.457   6.854   0.686  0.6595  3.2393 -3.3968
 3621TIP3    H232423   2.578   6.801   0.613  1.9781  2.1601 -0.5634
 3622TIP3   OH232424   5.747   4.004   7.224 -0.0388  0.2320  0.5123
 3622TIP3    H132425   5.759   3.909   7.219 -0.7973  0.0597  1.7244
 3622TIP3    H232426   5.826   4.036   7.266 -0.5481 -0.0946  1.7865
 3623TIP3   OH232427   0.125   5.043   0.423  0.2284  0.0787 -0.1990
 3623TIP3    H132428   0.183   4.969   0.440  1.4814  0.8070 -1.1227
 3623TIP3    H232429   0.134   5.098   0.501  0.6130  0.0738 -0.2366
 3624TIP3   OH232430   4.144   2.816   7.384 -0.0810 -0.0756 -0.0045
 3624TIP3    H132431   4.219   2.758   7.372  0.4858  0.8750 -1.3157
 3624TIP3    H232432   4.098   2.813   7.300  0.5794  2.1690 -0.5131
 3625TIP3   OH232433   5.344   1.483   7.482 -0.0743 -0.0508  0.1961
 3625TIP3    H132434   5.282   1.543   7.441  0.6473  1.9163  1.8285
 3625TIP3    H232435   5.312   1.396   7.458 -1.3203  0.9335 -2.0409
 3626TIP3   OH232436   6.635   6.942   2.415 -0.3447 -0.2633  0.4384
 3626TIP3    H132437   6.604   7.025   2.451  0.6284 -0.4121  1.6727
 3626TIP3    H232438   6.718   6.964   2.373  0.3113 -0.7383  1.4570
 3627TIP3   OH232439   2.201   3.610   6.631  0.1484  0.3585 -0.0809
 3627TIP3    H132440   2.204   3.644   6.720  0.0362 -0.4178  0.2314
 3627TIP3    H232441   2.140   3.668   6.585 -1.6091 -0.5798  0.9568
 3628TIP3   OH232442   2.354   6.770   7.628  0.4100  1.1534  0.1836
 3628TIP3    H132443   2.300   6.818   7.565 -0.1759  0.1394 -0.1135
 3628TIP3    H232444   2.444   6.795   7.608  0.2129  1.0309 -0.9045
 3629TIP3   OH232445   0.302   2.747   7.743 -0.1436  0.1364 -0.0029
 3629TIP3    H132446   0.324   2.682   7.810  0.1579 -0.5099 -0.7133
 3629TIP3    H232447   0.347   2.716   7.664 -0.6279  0.7969 -0.5489
 3630TIP3   OH232448   1.734   6.533   1.303  0.4687  0.2236  0.2682
 3630TIP3    H132449   1.773   6.508   1.220  0.0326 -0.9171  0.3998
 3630TIP3    H232450   1.770   6.471   1.366 -0.1669  0.2959  0.7107
 3631TIP3   OH232451   0.247   2.524   0.392 -0.2021 -0.0643  0.0491
 3631TIP3    H132452   0.225   2.549   0.482 -0.9312  0.2272 -0.2036
 3631TIP3    H232453   0.266   2.607   0.348  0.1258 -0.2050 -0.0827
 3632TIP3   OH232454   4.596   5.605   8.174 -0.3154 -0.5862 -0.1785
 3632TIP3    H132455   4.587   5.638   8.263  1.4180 -0.5950  0.0405
 3632TIP3    H232456   4.507   5.586   8.146 -1.0508  0.9924  0.9377
 3633TIP3   OH232457   1.190   2.769   1.362 -0.0854 -0.6585 -0.8560
 3633TIP3    H132458   1.250   2.695   1.379 -0.6422 -0.7963  0.6894
 3633TIP3    H232459   1.244   2.847   1.375  0.0236 -0.7870 -0.5287
 3634TIP3   OH232460   2.032   6.409   6.576 -0.2464 -0.1556  0.7930
 3634TIP3    H132461   2.097   6.340   6.582 -1.0319 -1.0876 -0.8624
 3634TIP3    H232462   2.073   6.477   6.523 -0.0655 -0.0494  1.0654
 3635TIP3   OH232463   2.203   6.608   6.896  0.3183  0.8126 -0.2976
 3635TIP3    H132464   2.259   6.684   6.880 -0.6166  1.6490  0.2399
 3635TIP3    H232465   2.229   6.545   6.829  0.5870  1.9172 -1.2825
 3636TIP3   OH232466   3.661   1.304   0.562  0.1703 -0.5919 -0.0624
 3636TIP3    H132467   3.692   1.264   0.643  0.0818 -0.6972 -0.0801
 3636TIP3    H232468   3.656   1.397   0.583 -0.2830 -0.6699  0.2003
 3637TIP3   OH232469   1.002   1.555   8.305 -0.0834 -0.1884  0.2724
 3637TIP3    H132470   0.924   1.542   8.359 -0.5536 -1.9406 -0.7685
 3637TIP3    H232471   0.970   1.601   8.227 -0.3591 -2.0382 -0.7435
 3638TIP3   OH232472   2.573   1.254   0.966  0.1306  0.2127  0.1349
 3638TIP3    H132473   2.536   1.168   0.943  2.7495 -1.4892  1.7558
 3638TIP3    H232474   2.666   1.247   0.944  0.5053  2.4511  0.8081
 3639TIP3   OH232475   4.229   2.416   0.776 -0.4872  0.2092  0.0900
 3639TIP3    H132476   4.152   2.452   0.732 -0.3160  2.4827  1.4734
 3639TIP3    H232477   4.204   2.327   0.799 -3.1558  1.1697  1.3620
 3640TIP3   OH232478   4.596   2.214   0.379 -0.0585  0.1837  0.3216
 3640TIP3    H132479   4.534   2.142   0.383 -1.4359  1.3258  0.6572
 3640TIP3    H232480   4.649   2.197   0.300  0.2580 -1.6066  0.8752
 3641TIP3   OH232481   4.651   0.376   1.282 -0.2631  1.0659  0.0440
 3641TIP3    H132482   4.738   0.337   1.273  0.1998  2.0620  0.1244
 3641TIP3    H232483   4.634   0.377   1.376 -0.8975 -0.2449 -0.0312
 3642TIP3   OH232484   0.585   6.972   7.437 -0.0928  0.2478  0.2469
 3642TIP3    H132485   0.572   7.064   7.456  0.5216  1.1019 -2.9376
 3642TIP3    H232486   0.679   6.962   7.424 -0.1803 -0.7870  0.2477
 3643TIP3   OH232487   3.514   0.260   1.723 -0.2482  0.2248  0.2525
 3643TIP3    H132488   3.586   0.306   1.681  0.0237 -0.4827 -0.0632
 3643TIP3    H232489   3.477   0.324   1.784 -0.5716  1.2129 -0.9600
 3644TIP3   OH232490   6.290   3.961   7.797  0.1677 -0.7442 -0.7292
 3644TIP3    H132491   6.384   3.942   7.792  0.5961  1.1787 -1.1867
 3644TIP3    H232492   6.251   3.884   7.838  1.9019 -1.7190 -0.8226
 3645TIP3   OH232493   5.291   2.188   1.027  0.7402  0.1484 -0.0335
 3645TIP3    H132494   5.352   2.154   1.092  0.7120 -0.9340 -0.5444
 3645TIP3    H232495   5.313   2.141   0.946  1.4721  2.2127 -1.0965
 3646TIP3   OH232496   1.059   3.678   6.898  0.1348  0.3919 -0.5176
 3646TIP3    H132497   0.992   3.644   6.957  0.1253  0.3042 -0.5773
 3646TIP3    H232498   1.047   3.627   6.817 -0.0225  0.6885 -0.6828
 3647TIP3   OH232499   2.101   2.331   7.301  0.3688 -0.2500 -0.3664
 3647TIP3    H132500   2.087   2.239   7.281  0.9620 -0.2689 -0.7426
 3647TIP3    H232501   2.018   2.361   7.337  0.3282 -1.0536  0.2326
 3648TIP3   OH232502   2.144   5.915   1.387  0.2839  0.1252  0.4551
 3648TIP3    H132503   2.188   5.998   1.407  1.7343 -0.5140  0.1009
 3648TIP3    H232504   2.130   5.917   1.292 -2.0057  1.0130  0.7562
 3649TIP3   OH232505   2.120   5.511   7.955 -0.0083 -0.6122  0.4256
 3649TIP3    H132506   2.120   5.462   7.873 -1.2422 -0.4546  0.3030
 3649TIP3    H232507   2.189   5.576   7.944 -2.2877  1.6970 -1.9716
 3650TIP3   OH232508   5.263   0.898   7.748 -0.6354  0.0635  0.3665
 3650TIP3    H132509   5.272   0.803   7.755 -0.7662 -0.1150 -1.4807
 3650TIP3    H232510   5.196   0.911   7.681  1.0929  1.4448 -1.1879
 3651TIP3   OH232511   6.298   1.790   7.049  0.5038  0.3207 -0.0928
 3651TIP3    H132512   6.253   1.706   7.041  0.3022  0.5106 -1.2103
 3651TIP3    H232513   6.388   1.768   7.072  0.5996 -0.2409 -0.9779
 3652TIP3   OH232514   0.696   4.264   7.931 -0.1323 -0.0533  0.2666
 3652TIP3    H132515   0.711   4.171   7.914  0.6909  0.1966 -0.4622
 3652TIP3    H232516   0.663   4.267   8.021 -0.4636 -1.0709  0.1919
 3653TIP3   OH232517   5.808   0.558   7.001  0.2208  0.0602 -0.1255
 3653TIP3    H132518   5.719   0.583   7.026 -0.2980 -0.6452 -1.1923
 3653TIP3    H232519   5.847   0.525   7.082 -0.7222 -0.2825  0.2044
 3654TIP3   OH232520   2.973   6.887   8.151 -0.1270  0.5066  0.4982
 3654TIP3    H132521   3.021   6.898   8.070  0.6839  0.6061  0.9834
 3654TIP3    H232522   2.929   6.803   8.142  1.2652 -0.2611  0.6039
 3655TIP3   OH232523   6.070   2.056   2.584  0.2912  0.0077  0.3912
 3655TIP3    H132524   6.069   2.027   2.493  1.5999 -0.3136  0.4606
 3655TIP3    H232525   6.095   1.978   2.634  0.9404  0.5105  0.8762
 3656TIP3   OH232526   0.594   2.880   8.213 -0.4013 -0.1423 -0.1551
 3656TIP3    H132527   0.671   2.921   8.253 -0.9515  1.3724 -0.5679
 3656TIP3    H232528   0.520   2.924   8.254 -0.9921  0.6224 -1.9344
 3657TIP3   OH232529   2.246   4.189   7.623 -0.6749 -0.6797 -0.4072
 3657TIP3    H132530   2.257   4.284   7.625  0.4126 -0.8027  0.5471
 3657TIP3    H232531   2.153   4.176   7.607 -0.7974  0.5437 -0.7694
 3658TIP3   OH232532   0.457   3.735   0.915  0.0825 -0.2853  0.1946
 3658TIP3    H132533   0.396   3.709   0.846 -0.2185 -1.2958  0.8308
 3658TIP3    H232534   0.534   3.681   0.901 -0.1933 -0.8975  0.9777
 3659TIP3   OH232535   0.731   4.974   1.474  0.4064 -0.3693 -0.0205
 3659TIP3    H132536   0.815   4.941   1.441  0.5496 -0.2506  0.2244
 3659TIP3    H232537   0.701   4.906   1.534  0.9550  0.1694  0.8913
 3660TIP3   OH232538   6.261   6.972   0.011  0.1811 -0.9294  0.2250
 3660TIP3    H132539   6.315   7.051   0.011  2.3510 -2.2685  2.3746
 3660TIP3    H232540   6.219   6.972   0.098  1.6290 -2.9412  0.9869
 3661TIP3   OH232541   3.859   2.931   0.754 -0.3467 -0.1548 -0.3256
 3661TIP3    H132542   3.821   3.015   0.730 -0.0776 -0.6258 -2.6869
 3661TIP3    H232543   3.912   2.949   0.832 -1.4683  1.5115  0.0943
 3662TIP3   OH232544   4.986   1.763   1.002  0.1029 -0.0815 -0.0713
 3662TIP3    H132545   5.016   1.848   1.035 -2.1844  3.0025 -4.8016
 3662TIP3    H232546   5.065   1.719   0.971  1.1217  1.5336  0.1311
 3663TIP3   OH232547   6.602   3.320   8.254  0.0638 -0.2274 -0.2829
 3663TIP3    H132548   6.554   3.388   8.303 -0.6003  0.4236 -1.7771
 3663TIP3    H232549   6.542   3.246   8.253  0.6908 -0.7899  1.1406
 3664TIP3   OH232550   5.111   4.231   1.939  0.3327  0.4632  0.6318
 3664TIP3    H132551   5.135   4.314   1.979 -0.0856  0.8891  0.0229
 3664TIP3    H232552   5.193   4.193   1.909  0.5427  0.5872  1.0577
 3665TIP3   OH232553   0.955   4.108   0.561  0.9096  0.7592  0.2502
 3665TIP3    H132554   0.985   4.028   0.604 -0.2617 -0.0916 -0.4711
 3665TIP3    H232555   0.902   4.152   0.627 -1.9592 -1.1721 -0.6104
 3666TIP3   OH232556   5.566   6.581   7.955 -0.1855  0.0034  0.6713
 3666TIP3    H132557   5.512   6.616   7.884  0.5154  0.1775  0.2183
 3666TIP3    H232558   5.574   6.653   8.017 -2.2427 -0.6607  1.8175
 3667TIP3   OH232559   5.899   5.320   1.861  0.1265 -0.2411  0.0563
 3667TIP3    H132560   5.958   5.292   1.930 -0.3076  0.8456  0.8949
 3667TIP3    H232561   5.872   5.408   1.886 -0.9534 -0.2716 -0.8998
 3668TIP3   OH232562   0.729   5.614   6.042  0.2631 -0.4126  0.4877
 3668TIP3    H132563   0.823   5.632   6.030  1.0129 -2.7336  2.1446
 3668TIP3    H232564   0.700   5.681   6.104  1.2048 -0.5973  1.1435
 3669TIP3   OH232565   3.734   4.175   0.543 -0.0398  0.2067  0.1125
 3669TIP3    H132566   3.652   4.152   0.587  0.4370  1.1865  1.5801
 3669TIP3    H232567   3.798   4.111   0.576  0.0926  0.3100  0.0592
 3670TIP3   OH232568   4.893   5.107   1.719 -0.1507  0.4195  0.1159
 3670TIP3    H132569   4.922   5.127   1.808  1.5713  1.9126 -0.7053
 3670TIP3    H232570   4.929   5.021   1.701  1.8478  1.2317 -0.0218
 3671TIP3   OH232571   5.254   4.722   0.654  0.5603 -0.0554  0.4271
 3671TIP3    H132572   5.217   4.743   0.568  0.1245  0.4235  0.7249
 3671TIP3    H232573   5.315   4.794   0.672 -0.4651  0.6619  1.1704
 3672TIP3   OH232574   5.795   2.043   0.935  0.2292 -0.0767  0.0157
 3672TIP3    H132575   5.774   2.016   1.025  0.2839  0.8083  0.3064
 3672TIP3    H232576   5.863   1.982   0.907  2.6658  1.6065  1.7960
 3673TIP3   OH232577   3.595   4.617   8.018  0.7322  0.2737 -0.2953
 3673TIP3    H132578   3.551   4.600   8.101 -0.2075  1.3503 -0.5448
 3673TIP3    H232579   3.524   4.638   7.957  1.5669  2.6101 -0.5861
 3674TIP3   OH232580   6.781   3.658   0.762  0.3489 -0.4059 -0.0582
 3674TIP3    H132581   6.807   3.721   0.696  2.4494  0.7463  1.7376
 3674TIP3    H232582   6.812   3.574   0.728  1.6276  0.2005 -0.4321
 3675TIP3   OH232583   6.010   0.291   6.424 -0.0103 -0.3333  0.2026
 3675TIP3    H132584   6.080   0.228   6.439 -0.1175 -0.0140  2.4462
 3675TIP3    H232585   5.938   0.260   6.479 -1.1254  0.1500 -0.9351
 3676TIP3   OH232586   0.133   2.498   6.595  0.2037  0.5601 -0.7072
 3676TIP3    H132587   0.218   2.455   6.598 -0.0348  0.0757 -0.8089
 3676TIP3    H232588   0.093   2.467   6.514 -0.3813  0.1788 -0.2827
 3677TIP3   OH232589   3.216   1.706   8.114 -0.3732 -0.4992 -0.0020
 3677TIP3    H132590   3.136   1.730   8.067 -0.4335 -0.8165 -0.0629
 3677TIP3    H232591   3.285   1.712   8.048 -0.2738  0.2128  0.1575
 3678TIP3   OH232592   2.349   4.282   1.463  0.2828 -0.0596 -0.3647
 3678TIP3    H132593   2.352   4.263   1.369  1.5472 -0.5352 -0.2516
 3678TIP3    H232594   2.336   4.377   1.468 -0.7408 -0.1503 -0.9982
 3679TIP3   OH232595   2.833   1.150   7.328 -0.1413  0.5890 -0.5423
 3679TIP3    H132596   2.751   1.181   7.367 -1.4526 -0.8704 -1.9799
 3679TIP3    H232597   2.874   1.097   7.397 -1.2406 -0.0255 -0.3434
 3680TIP3   OH232598   6.729   3.155   7.807  0.2442  0.0789  0.3116
 3680TIP3    H132599   6.657   3.144   7.745 -0.0993  0.9082  0.5537
 3680TIP3    H232600   6.696   3.119   7.890  0.4450 -0.3683  0.2042
 3681TIP3   OH232601   3.045   2.998   0.153 -0.4899  0.0699  0.1413
 3681TIP3    H132602   3.055   3.087   0.186 -1.2092 -0.3007  1.4569
 3681TIP3    H232603   3.051   2.943   0.231 -0.9843 -0.9656 -0.5227
 3682TIP3   OH232604   3.102   5.122   0.387  0.5352  0.1967  0.3427
 3682TIP3    H132605   3.079   5.055   0.451 -1.8193 -0.0156 -0.6220
 3682TIP3    H232606   3.031   5.186   0.393  0.9259  0.8162 -1.1751
 3683TIP3   OH232607   6.923   1.860   1.636  0.7494 -0.6391 -0.9010
 3683TIP3    H132608   6.898   1.813   1.716 -2.1015  1.1933 -0.5873
 3683TIP3    H232609   6.907   1.798   1.566 -3.2154 -0.2709 -0.5192
 3684TIP3   OH232610   2.014   4.216   1.859 -0.1790  0.3182  0.1450
 3684TIP3    H132611   2.103   4.206   1.892  0.2123 -1.8021 -1.3219
 3684TIP3    H232612   1.959   4.222   1.937  1.1427  0.6850  1.0729
 3685TIP3   OH232613   2.621   4.237   0.070  0.3675  0.0961  0.5821
 3685TIP3    H132614   2.563   4.205   0.000  0.5278 -0.0580  0.5186
 3685TIP3    H232615   2.624   4.165   0.133  2.3499 -0.8699 -0.5302
 3686TIP3   OH232616   5.034   0.778   0.480 -0.6952  0.6033  0.1067
 3686TIP3    H132617   5.105   0.834   0.511 -0.8531  0.4636  0.7546
 3686TIP3    H232618   5.072   0.724   0.411 -0.1185  0.3956  0.5822
 3687TIP3   OH232619   0.567   6.759   6.612 -0.6599  0.1813 -0.9701
 3687TIP3    H132620   0.572   6.801   6.697  2.0703 -0.9876 -0.4440
 3687TIP3    H232621   0.636   6.802   6.560  0.6245 -1.9462 -1.1415
 3688TIP3   OH232622   5.793   0.791   7.264  0.2433  0.0526  0.2367
 3688TIP3    H132623   5.778   0.866   7.321  0.4195  0.6469 -0.4843
 3688TIP3    H232624   5.731   0.724   7.295 -0.1910  0.6321  0.6385
 3689TIP3   OH232625   2.101   5.802   6.560 -0.1050  0.3558  0.1252
 3689TIP3    H132626   2.027   5.853   6.526 -0.8975 -1.0847 -0.4438
 3689TIP3    H232627   2.134   5.755   6.483 -2.0400 -3.1207  1.2023
 3690TIP3   OH232628   4.065   2.626   2.406  0.7106 -0.1335  1.1587
 3690TIP3    H132629   4.006   2.674   2.463  0.7439  0.9016  0.3546
 3690TIP3    H232630   4.151   2.635   2.448  0.7214  0.5465  1.0102
 3691TIP3   OH232631   0.923   5.697   0.867  0.4962  0.0127  0.1751
 3691TIP3    H132632   0.897   5.744   0.788  2.1798 -1.0016 -1.0603
 3691TIP3    H232633   1.018   5.683   0.856  0.5135 -1.3763  1.7019
 3692TIP3   OH232634   0.457   5.667   0.517  0.4878 -1.0651  0.0051
 3692TIP3    H132635   0.521   5.616   0.467 -0.8488 -2.6367 -0.1645
 3692TIP3    H232636   0.463   5.631   0.606  1.9951  0.9056  0.7965
 3693TIP3   OH232637   0.877   3.126   5.646 -0.2257 -0.3065 -0.1910
 3693TIP3    H132638   0.914   3.136   5.733 -0.7057  1.5242 -0.1517
 3693TIP3    H232639   0.801   3.070   5.658 -0.2097 -0.1789  0.5587
 3694TIP3   OH232640   3.532   1.808   6.554 -0.1826 -0.3726  0.0555
 3694TIP3    H132641   3.476   1.841   6.485  1.2432  0.5162 -0.7219
 3694TIP3    H232642   3.586   1.741   6.511  1.0593  0.5341  0.1317
 3695TIP3   OH232643   3.172   6.761   6.793  0.1279  0.1760 -0.0845
 3695TIP3    H132644   3.266   6.770   6.776  0.2867 -0.9513  0.1054
 3695TIP3    H232645   3.143   6.691   6.735 -0.4885  0.1616  0.2286
 3696TIP3   OH232646   0.700   0.993   0.097  0.2310  0.1329 -0.1074
 3696TIP3    H132647   0.742   1.020   0.015  0.8974 -1.0434 -0.1727
 3696TIP3    H232648   0.676   0.902   0.083 -0.2070  0.0957  0.7964
 3697TIP3   OH232649   5.375   2.634   1.532 -0.9106  0.4585 -0.1897
 3697TIP3    H132650   5.290   2.590   1.535  0.2540 -1.9640 -0.3905
 3697TIP3    H232651   5.375   2.681   1.448 -1.5391 -0.6551 -0.8376
 3698TIP3   OH232652   2.994   4.927   6.705 -0.1722  0.3753  0.1919
 3698TIP3    H132653   2.909   4.919   6.748  0.3858  0.4597  1.3432
 3698TIP3    H232654   2.981   4.995   6.639 -1.2346 -0.2542 -0.2743
 3699TIP3   OH232655   6.987   3.871   0.904 -0.0076 -0.1992 -0.5509
 3699TIP3    H132656   7.037   3.937   0.856 -0.3666 -0.6035 -1.4870
 3699TIP3    H232657   6.941   3.821   0.837 -1.3342 -0.1214  0.2762
 3700TIP3   OH232658   0.510   3.423   7.203 -0.4135 -0.0438 -0.2120
 3700TIP3    H132659   0.476   3.333   7.199 -0.9395  0.1702 -0.5934
 3700TIP3    H232660   0.433   3.478   7.193  0.0950  0.4485 -1.7318
 3701TIP3   OH232661   0.195   3.389   7.727  0.4670  0.2248  0.4835
 3701TIP3    H132662   0.178   3.420   7.638 -0.1105  1.4310  1.0011
 3701TIP3    H232663   0.111   3.353   7.756  0.2840  1.0404  1.0029
 3702TIP3   OH232664   3.998   6.305   0.844  0.4481 -0.0142  0.1654
 3702TIP3    H132665   3.980   6.215   0.817  1.2237 -0.5168  1.2405
 3702TIP3    H232666   4.035   6.296   0.932 -0.6389  1.4500  0.7950
 3703TIP3   OH232667   4.258   2.082   2.679 -0.3909 -0.3758 -0.4644
 3703TIP3    H132668   4.307   2.143   2.734 -0.8476  0.8159 -1.3198
 3703TIP3    H232669   4.166   2.101   2.699 -0.5390 -1.0488 -0.4786
 3704TIP3   OH232670   3.022   2.426   4.823  0.1571 -0.7854 -0.0818
 3704TIP3    H132671   3.019   2.482   4.900  1.5991  0.0458 -0.5860
 3704TIP3    H232672   3.071   2.349   4.851  1.1250 -0.2580 -0.2715
 3705TIP3   OH232673   4.928   5.969   7.896  0.0927 -0.3780  0.3852
 3705TIP3    H132674   4.908   5.905   7.964 -0.9740  0.2699  0.7043
 3705TIP3    H232675   4.943   6.051   7.944  1.9831 -0.4737  0.0288
 3706TIP3   OH232676   1.382   2.675   1.893 -0.5891  0.5787  0.3699
 3706TIP3    H132677   1.469   2.679   1.931 -0.3677 -0.3813 -0.0061
 3706TIP3    H232678   1.325   2.646   1.964 -0.1559 -1.3371 -0.0048
 3707TIP3   OH232679   5.354   2.083   6.974  0.0015 -0.1320 -0.0571
 3707TIP3    H132680   5.432   2.051   7.019 -1.4493 -2.2915  1.1423
 3707TIP3    H232681   5.378   2.086   6.881  0.9561 -2.7448  0.0278
 3708TIP3   OH232682   4.864   0.350   2.671 -0.6368 -0.4333 -0.0174
 3708TIP3    H132683   4.894   0.300   2.747 -0.6569  0.5247  0.6376
 3708TIP3    H232684   4.779   0.311   2.649  0.3425 -2.1374 -0.9192
 3709TIP3   OH232685   6.406   0.608   0.443  0.4333 -0.0557 -0.1420
 3709TIP3    H132686   6.366   0.602   0.356 -0.8881  2.8487  0.1656
 3709TIP3    H232687   6.444   0.521   0.458 -2.7365 -1.9402 -1.9401
 3710TIP3   OH232688   4.590   1.621   2.134  0.1736 -0.4441 -0.1886
 3710TIP3    H132689   4.652   1.692   2.121  0.7246 -0.8446  0.2132
 3710TIP3    H232690   4.521   1.658   2.189 -0.3775  0.2388 -1.3027
 3711TIP3   OH232691   2.709   6.929   7.885 -0.5472  0.1049  0.3245
 3711TIP3    H132692   2.805   6.925   7.890 -0.6058 -0.8039  1.1280
 3711TIP3    H232693   2.685   6.854   7.832 -0.8459 -0.1397  0.7964
 3712TIP3   OH232694   4.734   5.776   6.940  0.0011  0.1664  0.6613
 3712TIP3    H132695   4.814   5.773   6.888 -1.0093  1.9278 -1.1400
 3712TIP3    H232696   4.741   5.858   6.989 -0.3888 -0.0280  1.0474
 3713TIP3   OH232697   3.412   6.411   2.004 -0.0509 -0.1408 -0.5073
 3713TIP3    H132698   3.330   6.374   1.970 -0.0370  1.1720 -2.1624
 3713TIP3    H232699   3.454   6.449   1.926  2.6374 -1.6358  0.1014
 3714TIP3   OH232700   5.180   4.274   1.130  0.4721 -0.3410 -0.1476
 3714TIP3    H132701   5.273   4.254   1.135  0.1471 -1.9555  0.1904
 3714TIP3    H232702   5.147   4.257   1.219 -0.1801  0.0194 -0.3120
 3715TIP3   OH232703   1.384   3.141   8.172  0.5853  0.7967  0.7215
 3715TIP3    H132704   1.417   3.196   8.100  0.0357  1.2705  0.8186
 3715TIP3    H232705   1.333   3.201   8.226  2.0568  0.7332  2.2413
 3716TIP3   OH232706   5.382   6.441   6.571  0.0614  0.0396 -0.5242
 3716TIP3    H132707   5.348   6.356   6.598 -1.7932  0.7601 -0.4413
 3716TIP3    H232708   5.476   6.437   6.591  0.1406 -2.2006 -1.1698
 3717TIP3   OH232709   5.130   0.640   0.234  0.2189 -0.2824 -0.2350
 3717TIP3    H132710   5.136   0.732   0.209 -2.3908  0.1169  0.3171
 3717TIP3    H232711   5.220   0.614   0.251  1.6304  0.9459 -4.4826
 3718TIP3   OH232712   4.383   1.766   1.733  0.2172 -1.1296 -0.4582
 3718TIP3    H132713   4.433   1.844   1.758 -0.1631 -0.7713 -0.8111
 3718TIP3    H232714   4.366   1.777   1.640 -1.5107 -0.6784 -0.1144
 3719TIP3   OH232715   0.096   6.061   1.438  0.2647  0.1418 -0.5011
 3719TIP3    H132716   0.188   6.088   1.436 -0.1487  2.4470  3.0375
 3719TIP3    H232717   0.048   6.139   1.411 -0.7699 -1.1929 -2.8167
 3720TIP3   OH232718   4.268   0.712   0.436 -0.1038  0.1307 -0.1932
 3720TIP3    H132719   4.311   0.777   0.380  0.4726 -0.1729 -0.1158
 3720TIP3    H232720   4.219   0.656   0.375  0.2542  0.0005 -0.3660
 3721TIP3   OH232721   4.615   1.829   2.725 -0.4270  0.3891  0.0012
 3721TIP3    H132722   4.633   1.737   2.703  2.8887  1.1394 -1.1350
 3721TIP3    H232723   4.522   1.840   2.708 -0.9525 -2.7444  0.2098
 3722TIP3   OH232724   1.564   3.419   6.602 -0.4215  0.4970 -0.1262
 3722TIP3    H132725   1.578   3.456   6.515 -0.2760 -1.0864 -0.7996
 3722TIP3    H232726   1.470   3.434   6.619 -0.1904  1.9578  0.0310
 3723TIP3   OH232727   0.179   4.386   0.678  0.7685  0.7249 -0.3063
 3723TIP3    H132728   0.093   4.406   0.642 -0.6101 -1.7216  1.3117
 3723TIP3    H232729   0.185   4.437   0.758 -0.2400 -0.8269  0.7977
 3724TIP3   OH232730   3.633   3.800   8.168  0.0783 -0.1150 -0.0244
 3724TIP3    H132731   3.652   3.872   8.227  0.0639 -0.3614  0.2813
 3724TIP3    H232732   3.707   3.800   8.106  0.8981 -0.8196  0.9204
 3725TIP3   OH232733   3.536   5.642   0.160  0.2828 -0.0506  0.2187
 3725TIP3    H132734   3.570   5.642   0.070  0.6672  0.3088  0.3603
 3725TIP3    H232735   3.506   5.732   0.173 -0.8082 -0.3882  0.0668
 3726TIP3   OH232736   5.487   6.311   1.458  0.3380 -0.6057  0.8573
 3726TIP3    H132737   5.434   6.238   1.426  1.0686 -1.7397  2.1206
 3726TIP3    H232738   5.543   6.334   1.384 -0.3766 -0.8627  0.2215
 3727TIP3   OH232739   6.884   3.245   6.098 -0.4545 -0.1085 -0.8576
 3727TIP3    H132740   6.932   3.197   6.165 -2.1866 -0.5463  0.1112
 3727TIP3    H232741   6.850   3.178   6.039  1.2599  0.2781 -2.4152
 3728TIP3   OH232742   2.844   1.240   0.919 -0.0612 -0.0686 -0.3602
 3728TIP3    H132743   2.889   1.174   0.972  1.7324  0.3311 -1.2804
 3728TIP3    H232744   2.905   1.314   0.918 -0.5700  0.3634 -2.0020
 3729TIP3   OH232745   5.233   5.556   8.127 -0.5647 -0.2987 -0.7346
 3729TIP3    H132746   5.242   5.463   8.108 -0.2799 -0.3826 -0.2228
 3729TIP3    H232747   5.234   5.561   8.223  0.0231  0.2880 -0.7644
 3730TIP3   OH232748   2.866   0.689   0.850 -0.1710 -0.1832 -1.0608
 3730TIP3    H132749   2.832   0.600   0.847 -0.2918 -0.4237  2.5127
 3730TIP3    H232750   2.803   0.737   0.902  1.6896  0.9960  0.2338
 3731TIP3   OH232751   2.520   4.679   1.946  0.2940 -0.4096 -0.0195
 3731TIP3    H132752   2.496   4.622   1.873 -0.0182  1.6322 -1.5999
 3731TIP3    H232753   2.615   4.670   1.953  0.2098 -1.3760  0.0067
 3732TIP3   OH232754   5.555   4.563   0.981 -0.2195 -0.3812 -0.1872
 3732TIP3    H132755   5.643   4.591   0.957 -0.1350 -0.8336 -0.4363
 3732TIP3    H232756   5.526   4.511   0.906 -0.2121 -1.2664  0.4056
 3733TIP3   OH232757   5.016   0.664   1.637  0.0056 -0.2178  0.2242
 3733TIP3    H132758   5.033   0.734   1.701  0.2271  0.3661 -0.4634
 3733TIP3    H232759   5.054   0.586   1.677  2.0487  0.5489 -0.1163
 3734TIP3   OH232760   0.856   6.716   0.849  0.1022 -0.6183 -0.3695
 3734TIP3    H132761   0.887   6.730   0.759  0.9698 -0.9071 -0.1304
 3734TIP3    H232762   0.897   6.633   0.875  2.4340  0.9345  1.3645
 3735TIP3   OH232763   3.059   3.203   1.092 -0.8794 -0.1350  0.1676
 3735TIP3    H132764   3.069   3.280   1.036 -1.7934  0.2273  0.4774
 3735TIP3    H232765   2.975   3.216   1.136 -0.5925 -0.8381  0.9623
 3736TIP3   OH232766   6.398   3.111   1.401 -0.8971  0.3392 -0.0576
 3736TIP3    H132767   6.465   3.171   1.432 -1.3003  0.4836  0.5521
 3736TIP3    H232768   6.317   3.142   1.441 -1.1725 -0.3858 -0.0271
 3737TIP3   OH232769   4.735   5.419   7.996 -0.3154  0.1717 -0.2713
 3737TIP3    H132770   4.704   5.491   8.050  1.0355  1.2869 -0.9329
 3737TIP3    H232771   4.754   5.349   8.058 -0.8538  0.6665  0.4693
 3738TIP3   OH232772   2.193   4.872   7.938  0.3894 -0.7669 -0.3896
 3738TIP3    H132773   2.270   4.818   7.954  0.5629  0.2375  2.9111
 3738TIP3    H232774   2.225   4.944   7.885  1.6151 -0.6916  0.4191
 3739TIP3   OH232775   5.761   1.095   0.357  0.2623 -0.1204 -0.1414
 3739TIP3    H132776   5.713   1.040   0.296  2.7407 -1.4344 -1.0318
 3739TIP3    H232777   5.785   1.036   0.429  0.0638  0.6440  0.5718
 3740TIP3   OH232778   0.101   4.829   7.969 -0.0658  0.2589  0.4209
 3740TIP3    H132779   0.064   4.747   8.002  0.9634  0.2443  1.6067
 3740TIP3    H232780   0.046   4.851   7.894 -1.8777 -0.2567  1.5287
 3741TIP3   OH232781   1.953   1.193   0.088 -0.2738  0.5770  0.5338
 3741TIP3    H132782   1.932   1.114   0.038  0.6362  0.3954  0.4229
 3741TIP3    H232783   1.881   1.201   0.151 -0.2117 -0.5382  0.7726
 3742TIP3   OH232784   1.996   4.719   6.361 -0.2897  0.0291 -0.3998
 3742TIP3    H132785   2.079   4.756   6.391 -0.5110  0.6991 -0.6030
 3742TIP3    H232786   1.931   4.753   6.422 -0.3989 -0.6259 -0.1421
 3743TIP3   OH232787   3.045   5.277   1.928 -0.1440  0.3648  0.9320
 3743TIP3    H132788   3.022   5.284   2.021 -2.5790 -2.8267  0.7544
 3743TIP3    H232789   2.960   5.278   1.883  1.0404  4.0333 -1.6239
 3744TIP3   OH232790   2.667   2.980   0.110 -0.2139 -0.7091  0.0944
 3744TIP3    H132791   2.704   3.033   0.040 -2.2909  0.2467 -0.3497
 3744TIP3    H232792   2.580   3.017   0.125  0.3727 -0.4513  3.6638
 3745TIP3   OH232793   5.550   2.073   7.191  0.1348 -0.0463 -0.1689
 3745TIP3    H132794   5.630   2.060   7.242  0.1108  1.1140  0.1920
 3745TIP3    H232795   5.560   2.159   7.152 -0.7333 -0.0903 -0.5103
 3746TIP3   OH232796   3.681   3.572   0.365  0.5705 -0.1613 -0.0082
 3746TIP3    H132797   3.645   3.559   0.277  1.5021 -1.3665 -0.2404
 3746TIP3    H232798   3.654   3.495   0.414 -0.7148  0.9310  1.0616
 3747TIP3   OH232799   5.811   2.124   1.671 -0.0459 -0.3473  0.5358
 3747TIP3    H132800   5.826   2.211   1.634  0.5302 -1.1513 -1.2343
 3747TIP3    H232801   5.835   2.133   1.763 -1.7159  1.7891  0.8246
 3748TIP3   OH232802   6.351   3.840   1.034 -0.6496  0.2774  0.0077
 3748TIP3    H132803   6.444   3.822   1.027 -0.0774  2.5422  0.9190
 3748TIP3    H232804   6.309   3.754   1.029  1.3906 -0.7172 -1.3446
 3749TIP3   OH232805   3.900   6.726   7.841 -0.1371  0.9825 -0.2396
 3749TIP3    H132806   3.921   6.808   7.886  1.1583  0.3795  0.3075
 3749TIP3    H232807   3.971   6.715   7.777  0.4415 -0.3288  0.5767
 3750TIP3   OH232808   6.538   0.183   0.225 -0.2188 -0.2650 -0.3980
 3750TIP3    H132809   6.540   0.176   0.321 -0.9015  0.8664 -0.2803
 3750TIP3    H232810   6.600   0.117   0.195 -0.8428 -1.4187  0.7790
 3751TIP3   OH232811   4.293   5.565   7.033 -0.0014  0.2422  0.6087
 3751TIP3    H132812   4.244   5.628   7.086  0.5350  1.1185  0.0965
 3751TIP3    H232813   4.332   5.618   6.963 -0.3200 -0.8162 -0.3993
 3752TIP3   OH232814   3.452   4.916   0.295  0.2647 -0.1368 -0.5193
 3752TIP3    H132815   3.497   4.922   0.380  0.1781  2.4357 -0.5618
 3752TIP3    H232816   3.489   4.988   0.244 -0.0870 -1.3061 -2.5081
 3753TIP3   OH232817   3.056   3.609   1.785 -0.4425 -0.0264 -0.1095
 3753TIP3    H132818   3.100   3.569   1.860 -0.4472 -0.5823 -0.3982
 3753TIP3    H232819   2.992   3.669   1.823 -0.8745 -0.7636  0.3386
 3754TIP3   OH232820   2.287   0.101   0.688 -0.2225  0.7067 -0.4041
 3754TIP3    H132821   2.353   0.091   0.620  0.8013  1.4179  0.4523
 3754TIP3    H232822   2.205   0.116   0.640  0.0997 -0.7946 -1.4832
 3755TIP3   OH232823   2.995   1.605   6.360  0.3634 -0.2282 -0.4072
 3755TIP3    H132824   3.045   1.531   6.327 -1.2268 -0.3426 -2.8176
 3755TIP3    H232825   2.903   1.584   6.340 -0.1625  2.2660 -1.0542
 3756TIP3   OH232826   4.732   4.884   0.818  0.0018  0.0104 -0.2803
 3756TIP3    H132827   4.669   4.937   0.768  0.9442  1.8708  0.3855
 3756TIP3    H232828   4.738   4.928   0.903 -0.8687 -2.5362  1.2074
 3757TIP3   OH232829   5.050   2.764   1.429 -0.1312  0.5686 -0.0787
 3757TIP3    H132830   5.059   2.753   1.524 -1.2323 -0.8361 -0.1163
 3757TIP3    H232831   5.106   2.696   1.392 -0.1883  0.7133 -0.4298
 3758TIP3   OH232832   1.456   6.172   0.377  0.4040  0.2031  0.2548
 3758TIP3    H132833   1.452   6.233   0.451  2.5893  1.1820 -0.3518
 3758TIP3    H232834   1.484   6.226   0.303  1.9230 -1.4285 -0.4203
 3759TIP3   OH232835   6.321   3.442   8.186 -0.6256  0.5405  0.1124
 3759TIP3    H132836   6.392   3.449   8.123  0.4997  1.7932  1.4307
 3759TIP3    H232837   6.318   3.528   8.229 -1.6910 -0.0905  1.3871
 3760TIP3   OH232838   5.495   4.052   0.014 -0.8285 -0.2811  0.1895
 3760TIP3    H132839   5.553   4.103  -0.042 -1.3759  0.3834  0.2099
 3760TIP3    H232840   5.546   4.036   0.094 -0.9123  0.8985  0.4895
 3761TIP3   OH232841   6.031   4.038   0.724  0.2423 -0.3166  0.0640
 3761TIP3    H132842   6.082   4.031   0.644  1.0335  0.7805  0.4463
 3761TIP3    H232843   5.956   3.979   0.711 -1.3474  2.0739 -2.7732
 3762TIP3   OH232844   5.830   2.244   6.982  0.3207 -0.3429 -0.1695
 3762TIP3    H132845   5.803   2.158   6.949  1.7505 -0.7713 -0.3215
 3762TIP3    H232846   5.764   2.267   7.046  0.1172 -1.7657  0.1782
 3763TIP3   OH232847   5.160   4.286   0.307 -0.0004 -0.0830  0.0680
 3763TIP3    H132848   5.126   4.202   0.278 -1.0787 -0.4759  2.3028
 3763TIP3    H232849   5.091   4.349   0.284 -0.2839 -0.2008  0.5767
 3764TIP3   OH232850   5.504   0.692   7.582  0.1167 -0.1839  0.3523
 3764TIP3    H132851   5.569   0.740   7.633  0.9154  0.3867 -1.1484
 3764TIP3    H232852   5.441   0.662   7.647  0.4527  1.5209  1.5511
 3765TIP3   OH232853   5.160   2.406   7.987  0.3588 -0.3890 -0.1157
 3765TIP3    H132854   5.136   2.385   7.897 -0.4893 -0.8146  0.1979
 3765TIP3    H232855   5.077   2.428   8.029  0.9354  1.3752  0.1685
 3766TIP3   OH232856   0.748   1.579   0.901 -0.2835 -0.6515 -0.1047
 3766TIP3    H132857   0.791   1.610   0.981  1.7828 -1.7004 -0.7506
 3766TIP3    H232858   0.754   1.653   0.840  0.7641 -0.8399 -0.2368
 3767TIP3   OH232859   3.459   0.565   0.080  0.4526 -0.3725 -0.1905
 3767TIP3    H132860   3.450   0.481   0.125  1.3063 -0.5472 -0.3325
 3767TIP3    H232861   3.552   0.585   0.086  0.4157  0.0764 -1.0286
 3768TIP3   OH232862   5.110   6.664   7.847  0.0871 -0.7270  0.4156
 3768TIP3    H132863   5.107   6.742   7.791 -1.6458  0.6463  2.2734
 3768TIP3    H232864   5.024   6.660   7.887  0.6798 -2.6977  1.6405
 3769TIP3   OH232865   5.136   5.735   2.627  0.4848  0.2012 -0.1406
 3769TIP3    H132866   5.166   5.815   2.584  0.2664 -0.7564 -2.1757
 3769TIP3    H232867   5.196   5.667   2.595  0.6315 -0.5044  1.5054
 3770TIP3   OH232868   4.073   1.906   7.198  0.3340  0.2821 -0.5356
 3770TIP3    H132869   4.011   1.849   7.243 -0.8123  1.2371 -0.8587
 3770TIP3    H232870   4.156   1.895   7.246  0.1592 -1.6672 -0.6339
 3771TIP3   OH232871   4.628   0.766   2.112 -0.3173 -0.1051  0.2582
 3771TIP3    H132872   4.619   0.811   2.028 -1.1184 -0.7494 -0.0178
 3771TIP3    H232873   4.673   0.828   2.168 -0.1286  0.4867 -0.5346
 3772TIP3   OH232874   4.821   3.031   0.324  0.4010 -0.5497  0.3230
 3772TIP3    H132875   4.739   3.030   0.275  0.2913 -0.6809  0.5086
 3772TIP3    H232876   4.889   3.022   0.257  0.3126  0.5040  0.0717
 3773TIP3   OH232877   6.694   1.973   7.499  0.9443  0.1006  0.0249
 3773TIP3    H132878   6.673   1.893   7.451  0.6685 -0.0790  0.4344
 3773TIP3    H232879   6.788   1.987   7.484  1.0349 -0.4091  0.1185
 3774TIP3   OH232880   4.272   5.535   2.417 -0.6493  0.0741  0.0814
 3774TIP3    H132881   4.209   5.579   2.474 -0.5209 -0.3988  0.5941
 3774TIP3    H232882   4.328   5.605   2.384 -1.1473  0.4365 -0.0065
 3775TIP3   OH232883   1.716   4.877   6.878  0.0505  0.0505 -0.1222
 3775TIP3    H132884   1.704   4.954   6.822 -2.2523  0.5957  1.0294
 3775TIP3    H232885   1.799   4.892   6.922  0.7201  0.7695 -1.5493
 3776TIP3   OH232886   3.201   1.064   0.583 -0.3497  0.2496 -0.3414
 3776TIP3    H132887   3.234   1.127   0.519  1.7344 -1.8388 -1.4750
 3776TIP3    H232888   3.130   1.019   0.537  0.2276 -0.3087 -0.7012
 3777TIP3   OH232889   1.953   1.927   0.802  0.3415  0.5797  0.3349
 3777TIP3    H132890   2.029   1.983   0.819  0.6053  0.2525  0.2424
 3777TIP3    H232891   1.900   1.976   0.739  0.5871  0.7092  0.2285
 3778TIP3   OH232892   4.237   4.208   7.580  0.3732 -0.4111  0.4043
 3778TIP3    H132893   4.182   4.190   7.656  0.1599  0.8184  0.5660
 3778TIP3    H232894   4.315   4.250   7.617 -0.1734  1.1165 -0.1190
 3779TIP3   OH232895   5.438   1.021   1.505  0.1861 -0.0558 -0.1307
 3779TIP3    H132896   5.486   0.965   1.444  1.7303  1.1899 -0.1285
 3779TIP3    H232897   5.495   1.026   1.582  0.4375  2.0548 -0.4071
 3780TIP3   OH232898   4.648   5.828   0.376  0.3908 -0.4178  0.5769
 3780TIP3    H132899   4.723   5.785   0.417  0.2984  0.5284  1.8012
 3780TIP3    H232900   4.684   5.908   0.339  0.3866 -1.0540 -0.8451
 3781TIP3   OH232901   2.977   1.442   7.354 -0.0545 -0.1356 -0.0179
 3781TIP3    H132902   2.989   1.438   7.259 -2.4611 -1.4948 -0.3212
 3781TIP3    H232903   3.055   1.399   7.389  0.9496  0.5130 -1.3343
 3782TIP3   OH232904   0.754   2.791   1.164  0.9190 -0.0466 -0.2482
 3782TIP3    H132905   0.835   2.836   1.187 -0.6862  2.7330  0.5303
 3782TIP3    H232906   0.712   2.773   1.248  0.4658 -0.9265 -0.6499
 3783TIP3   OH232907   6.099   4.494   7.662  0.0718  0.0018  0.3036
 3783TIP3    H132908   6.115   4.570   7.718 -0.2738 -1.0087  1.8071
 3783TIP3    H232909   6.181   4.445   7.663  0.8321  1.0660 -1.9142
 3784TIP3   OH232910   4.918   0.230   6.432  0.1153 -0.0615  0.3557
 3784TIP3    H132911   4.898   0.158   6.373  0.4722  0.4972 -0.4588
 3784TIP3    H232912   4.937   0.188   6.516 -1.4082 -0.8016  0.3644
 3785TIP3   OH232913   0.400   4.766   7.744 -0.0845  0.1664  0.4137
 3785TIP3    H132914   0.391   4.861   7.755  1.6920  0.7797 -2.3305
 3785TIP3    H232915   0.318   4.738   7.704 -0.6136  0.5157  1.2256
 3786TIP3   OH232916   1.779   5.009   6.331 -0.1022  0.3826  0.2222
 3786TIP3    H132917   1.749   5.025   6.420 -0.7186  2.0501 -0.2398
 3786TIP3    H232918   1.874   5.020   6.335 -0.1366  0.5395  0.6625
 3787TIP3   OH232919   5.748   0.182   6.949 -0.2785 -0.1933 -0.3920
 3787TIP3    H132920   5.709   0.100   6.919 -1.7320  0.4658 -0.3867
 3787TIP3    H232921   5.707   0.199   7.033 -1.8673  1.7293 -1.4567
 3788TIP3   OH232922   5.659   5.279   7.515  0.7460  0.3185  0.0532
 3788TIP3    H132923   5.661   5.355   7.457  0.7891  0.2741 -0.0033
 3788TIP3    H232924   5.631   5.207   7.458 -0.1900  0.4718  0.3043
 3789TIP3   OH232925   1.182   5.239   0.466 -0.0448 -0.2047  0.6051
 3789TIP3    H132926   1.230   5.267   0.544 -0.3449 -0.8263  1.0229
 3789TIP3    H232927   1.232   5.165   0.432 -0.4040 -0.5158  0.7382
 3790TIP3   OH232928   0.391   4.877   8.049  0.3282 -0.6044 -0.1887
 3790TIP3    H132929   0.366   4.946   8.111  1.5769 -1.6413  1.5606
 3790TIP3    H232930   0.308   4.844   8.014 -0.3114  1.7020 -1.0544
 3791TIP3   OH232931   1.749   5.731   0.525  0.0685 -0.0049 -0.2082
 3791TIP3    H132932   1.816   5.678   0.567 -0.4271 -2.3727 -2.1957
 3791TIP3    H232933   1.787   5.754   0.439 -0.5958  1.0035 -0.2491
 3792TIP3   OH232934   0.137   2.520   8.017  0.5396  0.3748  0.1192
 3792TIP3    H132935   0.079   2.468   8.072  0.7392  0.3045  0.2624
 3792TIP3    H232936   0.209   2.461   7.995  0.8043  0.6099  0.3428
 3793TIP3   OH232937   5.379   2.142   0.774 -0.1715 -0.3215 -0.2534
 3793TIP3    H132938   5.397   2.106   0.687 -2.4297  2.8194 -2.2127
 3793TIP3    H232939   5.448   2.208   0.787  0.2766 -0.9158  0.5026
 3794TIP3   OH232940   5.806   2.880   0.438 -0.4478  0.2286  0.1451
 3794TIP3    H132941   5.736   2.891   0.502 -1.6307 -0.6917 -0.9192
 3794TIP3    H232942   5.812   2.965   0.395 -0.4013  0.5321  0.7421
 3795TIP3   OH232943   4.235   4.256   1.766 -0.4699 -0.4635 -0.1509
 3795TIP3    H132944   4.215   4.209   1.685 -1.3611 -0.2583 -0.0607
 3795TIP3    H232945   4.269   4.189   1.825  1.5631 -0.3865 -1.1242
 3796TIP3   OH232946   5.781   5.903   7.865  0.0091  0.1459 -1.1594
 3796TIP3    H132947   5.747   5.853   7.791 -0.7325  0.2740 -0.9087
 3796TIP3    H232948   5.712   5.967   7.884  0.4280  0.4627 -0.7000
 3797TIP3   OH232949   3.183   0.627   0.881  0.4666 -0.0080  0.2312
 3797TIP3    H132950   3.097   0.629   0.839 -0.1704 -0.3987  1.4828
 3797TIP3    H232951   3.213   0.718   0.879 -0.2156  0.2227  0.2670
 3798TIP3   OH232952   1.968   3.329   8.089  0.1009  0.0791  0.4214
 3798TIP3    H132953   1.931   3.399   8.142 -1.4175 -1.2135  1.1426
 3798TIP3    H232954   1.965   3.251   8.145  0.5868 -0.8406 -0.7694
 3799TIP3   OH232955   1.264   2.132   6.920 -0.0285  0.4374  0.0247
 3799TIP3    H132956   1.345   2.176   6.945 -0.0553  0.3909  0.1927
 3799TIP3    H232957   1.239   2.174   6.837 -0.4313  1.2379  0.5337
 3800TIP3   OH232958   0.872   5.203   1.212 -0.1539  0.2839  0.6534
 3800TIP3    H132959   0.780   5.185   1.231 -0.1175 -0.1804  0.4271
 3800TIP3    H232960   0.917   5.188   1.296 -0.5551  2.8086  1.3875
 3801TIP3   OH232961   4.267   5.670   0.272 -0.4481  0.0591 -0.6737
 3801TIP3    H132962   4.255   5.761   0.248 -0.7763 -0.2379 -1.6934
 3801TIP3    H232963   4.199   5.652   0.336  0.1268  0.7375  0.1541
 3802TIP3   OH232964   5.069   4.781   7.951 -0.4717  0.1320 -0.1738
 3802TIP3    H132965   5.109   4.864   7.926  0.3393 -0.2987 -0.3397
 3802TIP3    H232966   5.037   4.745   7.868  0.2555 -0.2761 -0.2826
 3803TIP3   OH232967   6.721   6.978   0.139 -0.2191  0.6585  0.1618
 3803TIP3    H132968   6.775   6.900   0.154 -2.1579 -0.6582  0.7630
 3803TIP3    H232969   6.782   7.043   0.104  1.4785 -1.1317 -0.4272
 3804TIP3   OH232970   2.400   2.282   1.676 -0.5258 -0.0073  0.0868
 3804TIP3    H132971   2.349   2.207   1.646  0.5553 -1.2814  1.2673
 3804TIP3    H232972   2.491   2.258   1.658 -0.1068  0.6808  1.1546
 3805TIP3   OH232973   5.529   6.149   1.056 -0.2187 -0.5544 -0.6037
 3805TIP3    H132974   5.506   6.207   1.128  0.9042  0.3782 -0.9583
 3805TIP3    H232975   5.500   6.063   1.084 -1.3769  0.0673  0.2007
 3806TIP3   OH232976   5.626   5.979   1.342 -0.1424  0.0598 -0.4390
 3806TIP3    H132977   5.683   5.978   1.265 -0.0695 -0.0524 -0.3858
 3806TIP3    H232978   5.679   6.023   1.410 -0.3453  0.4855 -0.5541
 3807TIP3   OH232979   5.643   5.909   0.560 -0.1363  0.0224 -0.2694
 3807TIP3    H132980   5.682   5.840   0.613  0.8710  0.2205 -0.7309
 3807TIP3    H232981   5.603   5.969   0.624 -1.6510 -1.3233  0.1080
 3808TIP3   OH232982   6.615   6.225   6.930 -0.5158  0.4744 -0.2463
 3808TIP3    H132983   6.607   6.165   6.856  0.9835 -0.9811  0.6948
 3808TIP3    H232984   6.707   6.251   6.931 -0.0314 -1.0060  2.0960
 3809TIP3   OH232985   3.197   5.065   7.489  0.2535 -0.7066  0.3781
 3809TIP3    H132986   3.115   5.111   7.472  0.7360 -0.7479 -2.4038
 3809TIP3    H232987   3.265   5.123   7.455  1.5889 -0.2795  3.3754
 3810TIP3   OH232988   4.258   6.198   1.738  0.5887  0.0021  0.2974
 3810TIP3    H132989   4.325   6.187   1.805  1.3273 -2.1264 -0.7261
 3810TIP3    H232990   4.182   6.152   1.773  1.4514 -2.4735 -0.9057
 3811TIP3   OH232991   2.650   3.262   5.826 -0.1869  0.5748 -0.1374
 3811TIP3    H132992   2.717   3.321   5.860  1.0818 -0.7624 -0.2264
 3811TIP3    H232993   2.681   3.239   5.738 -0.5293 -0.4097 -0.0096
 3812TIP3   OH232994   2.863   2.602   1.937  0.2052 -0.1167 -0.5411
 3812TIP3    H132995   2.813   2.526   1.909  0.5095 -0.0567 -1.2728
 3812TIP3    H232996   2.834   2.618   2.027 -1.0909 -0.0720 -0.9479
 3813TIP3   OH232997   2.327   6.791   1.097  0.0952  0.0521 -0.0057
 3813TIP3    H132998   2.299   6.837   1.018 -2.1277 -0.6178  0.3183
 3813TIP3    H232999   2.368   6.858   1.151  0.9442  0.6773 -1.3778
 3814TIP3   OH233000   1.352   1.091   2.557  0.0367 -0.0703 -0.4612
 3814TIP3    H133001   1.319   1.158   2.616 -1.5083  0.1461 -1.5027
 3814TIP3    H233002   1.360   1.135   2.472  1.8681 -0.4603 -0.5440
 3815TIP3   OH233003   1.010   5.271   6.234  0.1151  0.4923 -0.1946
 3815TIP3    H133004   1.033   5.359   6.262 -0.7110  0.1558  1.7365
 3815TIP3    H233005   1.091   5.221   6.241  0.0039  0.4828  1.5208
 3816TIP3   OH233006   3.852   1.051   1.697 -0.2273 -0.2580  0.6664
 3816TIP3    H133007   3.831   1.059   1.789 -1.1733 -0.7938  0.5126
 3816TIP3    H233008   3.777   1.006   1.659  0.2278 -0.2100 -0.3316
 3817TIP3   OH233009   3.027   3.657   6.966  0.0067  0.4373 -0.5543
 3817TIP3    H133010   3.103   3.611   7.001  0.6614  2.3643  0.6979
 3817TIP3    H233011   3.059   3.701   6.887 -0.2726 -0.1181 -0.9867
 3818TIP3   OH233012   0.773   6.172   7.793 -0.4276 -0.2524  0.3646
 3818TIP3    H133013   0.814   6.258   7.800  0.6899 -0.7553  0.2287
 3818TIP3    H233014   0.822   6.128   7.724 -0.9158 -1.0386  0.5095
 3819TIP3   OH233015   1.493   2.310   6.534  0.3393  0.4050 -0.5177
 3819TIP3    H133016   1.567   2.252   6.516  0.1770  0.1898 -0.5029
 3819TIP3    H233017   1.503   2.383   6.473  0.0082 -0.1198 -1.2245
 3820TIP3   OH233018   1.032   0.081   1.052 -0.0696  0.3744  0.1265
 3820TIP3    H133019   0.969   0.064   0.982  0.7660 -0.2695 -0.4874
 3820TIP3    H233020   0.992   0.041   1.130 -0.5039  0.1374 -0.2095
 3821TIP3   OH233021   4.060   2.829   1.667  0.0917 -0.4613  0.2544
 3821TIP3    H133022   4.066   2.808   1.574 -2.4187 -0.6763  0.0729
 3821TIP3    H233023   4.083   2.922   1.673  0.2116 -0.4335 -0.5746
 3822TIP3   OH233024   0.443   4.938   0.790 -0.3306 -0.5151 -0.2211
 3822TIP3    H133025   0.407   4.992   0.860  1.0223 -0.8027  0.7278
 3822TIP3    H233026   0.368   4.887   0.758 -1.7648  2.1739 -1.4685
 3823TIP3   OH233027   2.609   3.656   7.338 -0.1625 -0.3514  0.0192
 3823TIP3    H133028   2.579   3.670   7.248  0.1627  1.5803  0.1813
 3823TIP3    H233029   2.654   3.571   7.335 -0.0422 -0.2553 -1.6592
 3824TIP3   OH233030   2.475   3.194   7.683  0.5440  0.0042 -0.1511
 3824TIP3    H133031   2.449   3.148   7.603 -0.6271 -1.6092  1.0730
 3824TIP3    H233032   2.394   3.232   7.716  0.8841  0.1326  0.5650
 3825TIP3   OH233033   3.076   4.272   7.223 -0.0037  0.2017 -0.3676
 3825TIP3    H133034   3.083   4.334   7.151 -0.7731 -0.1924 -0.7932
 3825TIP3    H233035   3.143   4.206   7.205 -0.9681 -0.5401 -1.3879
 3826TIP3   OH233036   3.254   6.264   7.633  0.0114 -0.2192  0.4215
 3826TIP3    H133037   3.332   6.283   7.582 -0.1282 -1.1269 -0.1610
 3826TIP3    H233038   3.258   6.170   7.649  0.5106  0.1643  2.8980
 3827TIP3   OH233039   2.448   3.474   2.242  0.4130  0.8318  0.1941
 3827TIP3    H133040   2.448   3.535   2.168 -0.0289 -0.8829 -1.2726
 3827TIP3    H233041   2.362   3.433   2.240  0.8913 -0.2529  0.8184
 3828TIP3   OH233042   1.291   6.147   7.461 -0.7130  0.5351  0.1047
 3828TIP3    H133043   1.301   6.222   7.403  1.9808  1.0240  1.0754
 3828TIP3    H233044   1.214   6.168   7.514 -0.9378  1.8398 -0.6978
 3829TIP3   OH233045   4.157   3.388   1.660  0.0541  1.3450  0.8068
 3829TIP3    H133046   4.202   3.449   1.719  1.5998  1.8874 -0.8407
 3829TIP3    H233047   4.158   3.304   1.707  0.5539  1.9198  1.8599
 3830TIP3   OH233048   3.288   5.493   0.915 -0.2778 -0.5999 -0.0053
 3830TIP3    H133049   3.225   5.425   0.937  0.5572 -0.8260  1.8792
 3830TIP3    H233050   3.365   5.446   0.883  0.4638 -0.6362  1.7130
 3831TIP3   OH233051   1.296   3.512   6.665  0.3790  0.3971 -0.1686
 3831TIP3    H133052   1.273   3.574   6.734 -1.3047  1.0262 -1.2474
 3831TIP3    H233053   1.212   3.486   6.626  1.2635 -0.0750 -1.8675
 3832TIP3   OH233054   4.041   3.840   0.330  0.7458  0.5541  0.6344
 3832TIP3    H133055   4.029   3.769   0.392 -0.3115  1.2081  1.2080
 3832TIP3    H233056   3.974   3.827   0.263  2.8001 -0.9975 -1.2661
 3833TIP3   OH233057   0.135   2.206   7.492 -0.9738  0.6039 -0.1249
 3833TIP3    H133058   0.093   2.262   7.426 -0.0015  0.1958 -1.1306
 3833TIP3    H233059   0.147   2.263   7.568  0.0086  1.7998 -1.1273
 3834TIP3   OH233060   0.925   0.495   0.324  0.0002  0.0231 -0.2831
 3834TIP3    H133061   1.001   0.457   0.368 -0.1620 -1.3933 -1.1791
 3834TIP3    H233062   0.851   0.472   0.379 -0.1061 -1.0516 -0.8613
 3835TIP3   OH233063   6.077   2.197   0.571 -0.4203  0.3449  0.0301
 3835TIP3    H133064   6.152   2.182   0.513 -0.4419 -0.6484  0.2338
 3835TIP3    H233065   6.044   2.283   0.547 -1.5490 -0.7466 -2.6808
 3836TIP3   OH233066   6.572   5.187   2.247  0.0377 -0.2365 -0.0561
 3836TIP3    H133067   6.626   5.249   2.296  0.4039 -2.6023  2.8334
 3836TIP3    H233068   6.625   5.107   2.245 -2.2861 -1.8890  0.6597
 3837TIP3   OH233069   5.196   0.452   1.473  0.2127  0.1185 -0.3136
 3837TIP3    H133070   5.221   0.363   1.446  0.7253 -0.0209  0.5770
 3837TIP3    H233071   5.195   0.448   1.568 -0.7334  0.8232 -0.2926
 3838TIP3   OH233072   0.465   0.679   8.281  0.4981  0.4944 -0.0645
 3838TIP3    H133073   0.552   0.701   8.248  0.5473 -0.7973 -0.8758
 3838TIP3    H233074   0.451   0.739   8.355  1.5993  1.4780 -0.6158
 3839TIP3   OH233075   3.772   0.245   7.240 -0.0678  0.1017 -0.1111
 3839TIP3    H133076   3.833   0.174   7.219  2.2036  2.1122 -0.7692
 3839TIP3    H233077   3.794   0.270   7.330 -2.3275 -1.3330  0.9247
 3840TIP3   OH233078   2.420   6.846   8.195 -0.1770 -0.2439  0.2657
 3840TIP3    H133079   2.470   6.920   8.161  1.4385 -1.8765 -1.0773
 3840TIP3    H233080   2.329   6.868   8.173 -0.1208  2.4904  2.2055
 3841TIP3   OH233081   6.349   0.194   7.241 -0.1947 -0.4123  0.1372
 3841TIP3    H133082   6.431   0.173   7.198 -0.4394 -0.1036 -0.4902
 3841TIP3    H233083   6.299   0.112   7.239 -0.4240 -0.2613 -0.6715
 3842TIP3   OH233084   6.419   1.142   2.464  0.0886  0.1096  0.5321
 3842TIP3    H133085   6.410   1.200   2.540 -1.0709 -0.4000  0.8102
 3842TIP3    H233086   6.368   1.186   2.396  0.9542  0.4596  0.0954
 3843TIP3   OH233087   0.576   2.571   7.803 -0.6546  0.3825 -0.5293
 3843TIP3    H133088   0.652   2.521   7.831 -0.4407  0.1401 -1.5118
 3843TIP3    H233089   0.559   2.632   7.875 -0.0501 -0.1276  0.0546
 3844TIP3   OH233090   5.330   6.711   7.553  0.4171  0.8852 -0.1467
 3844TIP3    H133091   5.416   6.695   7.514 -0.3591  0.8943 -1.9638
 3844TIP3    H233092   5.296   6.786   7.505 -2.2165 -1.4877 -2.4101
 3845TIP3   OH233093   4.714   3.660   0.158 -0.1056  0.0193  0.5014
 3845TIP3    H133094   4.723   3.613   0.241  0.0086  1.5017  1.3600
 3845TIP3    H233095   4.624   3.644   0.131 -0.3332  0.0238  1.2353
 3846TIP3   OH233096   0.288   5.993   1.104  0.8637  0.0362 -0.7214
 3846TIP3    H133097   0.328   5.971   1.020  0.3348  1.0010 -1.2436
 3846TIP3    H233098   0.210   6.044   1.081 -0.4279 -1.3859  0.2716
 3847TIP3   OH233099   5.799   6.964   1.313  0.8802  0.4793 -0.6273
 3847TIP3    H133100   5.839   6.927   1.392  0.9563 -0.9743 -1.3191
 3847TIP3    H233101   5.706   6.969   1.334  1.0512  1.3864  0.0206
 3848TIP3   OH233102   3.587   0.886   2.120  0.1760  0.5370  0.4760
 3848TIP3    H133103   3.491   0.888   2.126 -0.1875 -1.1383 -2.5191
 3848TIP3    H233104   3.614   0.832   2.194 -1.6069 -1.9775 -0.5569
 3849TIP3   OH233105   2.887   6.171   8.055 -0.1301 -0.0361  0.0370
 3849TIP3    H133106   2.968   6.187   8.006 -1.4154  0.3319 -2.0899
 3849TIP3    H233107   2.863   6.081   8.032  0.1301 -0.4671  1.3881
 3850TIP3   OH233108   4.767   0.775   7.788 -0.4944  0.2591  0.2004
 3850TIP3    H133109   4.744   0.814   7.703 -0.8186  0.1347  0.2289
 3850TIP3    H233110   4.690   0.790   7.843 -1.1027 -1.4411 -0.1299
 3851TIP3   OH233111   3.441   1.454   0.298  0.3204 -0.1045  0.4672
 3851TIP3    H133112   3.514   1.469   0.359 -0.8951  0.4704  1.8490
 3851TIP3    H233113   3.363   1.456   0.354 -0.7359 -1.0723 -0.9194
 3852TIP3   OH233114   2.900   0.724   6.446 -0.4146  0.1455 -0.1167
 3852TIP3    H133115   2.947   0.655   6.400  0.2197  0.5715 -0.1217
 3852TIP3    H233116   2.822   0.681   6.481  0.5503 -0.8542  0.8907
 3853TIP3   OH233117   4.303   1.947   6.589  0.4810 -0.2520 -0.3282
 3853TIP3    H133118   4.223   1.896   6.587 -1.0934  1.6691  3.2565
 3853TIP3    H233119   4.299   2.002   6.511 -1.4371 -0.5881 -0.5114
 3854TIP3   OH233120   4.512   0.785   1.691 -0.0980 -0.0972  0.6050
 3854TIP3    H133121   4.518   0.853   1.758  1.8518 -0.6280  1.0162
 3854TIP3    H233122   4.600   0.778   1.655  0.1416 -3.3190  1.4893
 3855TIP3   OH233123   2.359   1.293   0.640  0.0162 -0.0792  0.5147
 3855TIP3    H133124   2.354   1.222   0.576 -0.0273  1.2269 -0.9786
 3855TIP3    H233125   2.307   1.262   0.714  0.4281 -1.8149  0.1203
 3856TIP3   OH233126   1.810   2.159   0.726  0.2251 -0.4290 -0.1798
 3856TIP3    H133127   1.867   2.233   0.703  1.0354 -0.9612  0.1105
 3856TIP3    H233128   1.781   2.178   0.815  0.7144 -0.6388  0.0230
 3857TIP3   OH233129   0.628   0.531   8.035  0.3930  0.1626 -0.5442
 3857TIP3    H133130   0.579   0.458   7.997 -0.6676  0.4302  0.2646
 3857TIP3    H233131   0.693   0.488   8.091  0.9513 -0.1867 -1.4294
 3858TIP3   OH233132   1.104   4.242   6.027 -0.1170  0.4204  0.2236
 3858TIP3    H133133   1.014   4.210   6.029 -0.0295  0.1864  0.3770
 3858TIP3    H233134   1.095   4.337   6.039 -0.5125  0.7399 -2.0495
 3859TIP3   OH233135   4.019   2.719   0.821  0.0889  0.2833 -0.6225
 3859TIP3    H133136   3.926   2.744   0.824 -1.1800 -3.7741  0.6350
 3859TIP3    H233137   4.037   2.705   0.728 -1.0812 -0.4646 -0.7534
 3860TIP3   OH233138   4.372   3.209   0.218 -0.4532  0.0775 -0.2030
 3860TIP3    H133139   4.395   3.209   0.125  0.4956  0.9917  0.0134
 3860TIP3    H233140   4.429   3.143   0.258 -0.9054 -0.3606 -0.2728
 3861TIP3   OH233141   2.421   6.738   7.133 -0.6840  0.0857 -0.0523
 3861TIP3    H133142   2.350   6.752   7.195 -1.0236 -0.8921 -0.1990
 3861TIP3    H233143   2.384   6.760   7.048 -1.5078 -2.3424 -0.4049
 3862TIP3   OH233144   4.036   4.482   8.165 -0.0555  0.0226 -0.0320
 3862TIP3    H133145   4.005   4.401   8.126  0.0169  0.0394 -0.1262
 3862TIP3    H233146   3.999   4.482   8.253 -2.0292  1.0346 -0.8087
 3863TIP3   OH233147   0.060   6.411   6.917 -0.4581  0.0331 -0.0722
 3863TIP3    H133148   0.106   6.439   6.996 -1.3933 -0.2996  0.6288
 3863TIP3    H233149   0.122   6.355   6.871  0.3203  0.7369  0.1005
 3864TIP3   OH233150   0.049   6.227   7.603 -0.1427 -0.0768 -0.4818
 3864TIP3    H133151   0.048   6.222   7.698  2.0537 -0.1586 -0.4032
 3864TIP3    H233152  -0.034   6.188   7.575 -1.0894  0.5045  1.3901
 3865TIP3   OH233153   2.209   1.412   6.954 -0.2605  0.2415  0.0352
 3865TIP3    H133154   2.135   1.458   6.994 -1.5228 -0.6200 -1.2424
 3865TIP3    H233155   2.169   1.349   6.895  1.5194 -0.0552 -0.9069
 3866TIP3   OH233156   6.544   5.301   1.338  0.0539 -0.0361 -0.4595
 3866TIP3    H133157   6.481   5.234   1.364  0.1400 -0.1256 -0.4792
 3866TIP3    H233158   6.557   5.355   1.416 -0.8946  0.6632 -0.7726
 3867TIP3   OH233159   6.096   5.066   7.364 -0.3364  0.0782 -0.0912
 3867TIP3    H133160   6.040   5.137   7.332 -0.2143  0.3291  0.2517
 3867TIP3    H233161   6.162   5.055   7.295  0.1729  0.9028  0.2493
 3868TIP3   OH233162   4.520   2.954   1.078 -0.0407  0.4326  0.1715
 3868TIP3    H133163   4.474   3.038   1.084  0.3375  0.6352  0.3044
 3868TIP3    H233164   4.596   2.973   1.023 -0.0164  0.1473  0.1091
 3869TIP3   OH233165   4.480   4.663   0.302  0.2408 -0.2019  0.4131
 3869TIP3    H133166   4.485   4.569   0.319 -0.7875  0.0509  2.4269
 3869TIP3    H233167   4.516   4.673   0.214  2.7994 -2.1447  1.1224
 3870TIP3   OH233168   6.900   5.964   7.471  0.1041 -0.3950 -0.0871
 3870TIP3    H133169   6.982   5.987   7.426 -0.2751  1.8667  0.2581
 3870TIP3    H233170   6.841   6.037   7.452 -0.7767 -0.4017  2.2761
 3871TIP3   OH233171   4.184   6.694   1.190 -0.2716  0.1583 -0.0072
 3871TIP3    H133172   4.214   6.748   1.263 -0.4776 -0.2666  0.4001
 3871TIP3    H233173   4.221   6.736   1.112 -0.9817  1.2729  0.2363
 3872TIP3   OH233174   1.861   1.474   7.495  0.0761  0.3556  0.5903
 3872TIP3    H133175   1.936   1.418   7.515  1.0390  0.7514 -1.5774
 3872TIP3    H233176   1.791   1.414   7.473  0.2873 -0.0040  0.8892
 3873TIP3   OH233177   0.551   6.856   7.129  0.1068  0.2519  0.0979
 3873TIP3    H133178   0.468   6.833   7.088 -1.2178  1.5484  1.9075
 3873TIP3    H233179   0.527   6.890   7.215  2.2922  2.7261 -0.1199
 3874TIP3   OH233180   3.065   6.788   7.043 -0.1494 -0.0580  0.2607
 3874TIP3    H133181   3.111   6.792   6.959 -1.5028  2.0612 -0.4677
 3874TIP3    H233182   3.125   6.742   7.101  1.7980  0.3957 -1.2781
 3875TIP3   OH233183   3.588   4.582   1.685 -0.5673 -0.1426 -0.1959
 3875TIP3    H133184   3.541   4.542   1.759 -0.7093  0.3581 -0.0137
 3875TIP3    H233185   3.661   4.629   1.726 -0.6562  0.1492 -0.3716
 3876TIP3   OH233186   0.894   5.250   6.974  0.2375  0.1505 -0.0149
 3876TIP3    H133187   0.834   5.222   7.043  0.1295 -0.4253 -0.3406
 3876TIP3    H233188   0.841   5.304   6.916  0.8766  2.7721  1.6578
 3877TIP3   OH233189   2.395   6.508   6.439 -0.1214  0.2895 -0.4235
 3877TIP3    H133190   2.300   6.512   6.423 -0.2515 -0.7025  0.0034
 3877TIP3    H233191   2.402   6.499   6.534  0.4751  1.8730 -0.2973
 3878TIP3   OH233192   2.942   3.480   2.062 -0.3311  0.6081 -0.7884
 3878TIP3    H133193   3.021   3.427   2.054 -0.8376 -0.3049  0.0689
 3878TIP3    H233194   2.974   3.565   2.094  0.1581 -0.2551  1.1173
 3879TIP3   OH233195   0.443   3.184   1.336 -0.6691 -0.2758 -0.1865
 3879TIP3    H133196   0.437   3.210   1.244 -1.5305 -0.2906 -0.1460
 3879TIP3    H233197   0.416   3.262   1.385  1.0732  0.1623  0.1166
 3880TIP3   OH233198   1.753   4.778   2.014  0.4383  0.5351 -0.4095
 3880TIP3    H133199   1.799   4.790   1.931  0.8855  1.2482 -0.0709
 3880TIP3    H233200   1.802   4.831   2.077 -0.8724  1.3575 -0.0453
 3881TIP3   OH233201   0.672   2.374   6.553 -0.1358 -0.2371  0.2864
 3881TIP3    H133202   0.605   2.323   6.599  0.9682 -0.5329  1.6255
 3881TIP3    H233203   0.733   2.308   6.519 -0.8191 -0.0133 -1.4953
 3882TIP3   OH233204   3.003   1.688   7.120 -0.1703 -0.0645  0.6155
 3882TIP3    H133205   3.056   1.610   7.106  0.2747 -0.0485  2.0766
 3882TIP3    H233206   2.919   1.668   7.080  0.3345 -0.8107 -0.0990
 3883TIP3   OH233207   2.088   1.387   1.144  0.0446 -0.4845  0.3923
 3883TIP3    H133208   2.130   1.322   1.201  0.7461  0.2461  0.7200
 3883TIP3    H233209   2.033   1.335   1.086  0.4925 -1.3678  0.7350
 3884TIP3   OH233210   5.077   3.569   7.851  0.4925 -0.2477 -0.1559
 3884TIP3    H133211   5.075   3.576   7.946 -0.3826  0.5124 -0.2193
 3884TIP3    H233212   4.985   3.571   7.825  0.7168 -0.6295 -1.0072
 3885TIP3   OH233213   4.003   2.644   7.905 -0.1464 -0.1954  0.2570
 3885TIP3    H133214   3.999   2.716   7.968  0.0504  0.0188  0.0311
 3885TIP3    H233215   3.912   2.622   7.887 -0.2273  0.5921 -0.3375
 3886TIP3   OH233216   3.662   6.433   0.411  0.1601  0.4470  0.4029
 3886TIP3    H133217   3.694   6.391   0.331  0.2399 -0.5888  0.9576
 3886TIP3    H233218   3.738   6.433   0.469  0.0376  0.9708  0.5644
 3887TIP3   OH233219   0.271   3.876   7.936  0.0787 -0.1540  0.3063
 3887TIP3    H133220   0.295   3.857   8.026 -0.5614 -0.0630  0.5014
 3887TIP3    H233221   0.338   3.938   7.905 -0.3526  0.7369  1.0959
 3888TIP3   OH233222   4.466   0.510   1.684  0.2182  0.0362 -0.5352
 3888TIP3    H133223   4.492   0.601   1.675  1.5411 -0.3851 -1.2710
 3888TIP3    H233224   4.464   0.495   1.779 -1.8657  1.2910 -0.3205
 3889TIP3   OH233225   6.698   1.314   0.279 -0.3091 -0.5125  0.7499
 3889TIP3    H133226   6.771   1.265   0.242 -1.0945 -1.7600  0.7739
 3889TIP3    H233227   6.625   1.252   0.277 -1.6907  1.0856 -0.4289
 3890TIP3   OH233228   2.359   4.386   0.647 -0.3267 -0.4923  0.6641
 3890TIP3    H133229   2.418   4.407   0.574 -0.8786  0.6979  0.5295
 3890TIP3    H233230   2.371   4.458   0.708 -2.4402  0.4027  0.1122
 3891TIP3   OH233231   1.567   6.538   1.647  0.5032  0.2375  1.0124
 3891TIP3    H133232   1.536   6.509   1.561  1.0518 -0.4952  1.0514
 3891TIP3    H233233   1.579   6.457   1.696  0.0190  0.6643  1.8501
 3892TIP3   OH233234   0.795   2.185   8.170 -0.2329  0.1241  0.3360
 3892TIP3    H133235   0.820   2.146   8.253 -0.9342  0.1655  0.5796
 3892TIP3    H233236   0.797   2.113   8.107  1.3697  0.3146  0.1448
 3893TIP3   OH233237   2.556   3.381   6.042 -0.5039  0.0018 -0.0065
 3893TIP3    H133238   2.526   3.333   6.119  2.4578  0.3078  1.4640
 3893TIP3    H233239   2.588   3.313   5.983 -0.1043 -0.0788  0.2986
 3894TIP3   OH233240   4.580   1.981   1.017 -0.2578  0.4454  0.1260
 3894TIP3    H133241   4.555   2.071   0.998 -0.9551  0.5059  1.2042
 3894TIP3    H233242   4.618   1.985   1.105 -2.9108 -0.6842  1.4380
 3895TIP3   OH233243   1.564   5.535   7.751 -1.1676  0.0558  0.4303
 3895TIP3    H133244   1.547   5.555   7.659  0.5489  1.3275  0.3397
 3895TIP3    H233245   1.627   5.463   7.749 -0.2244  0.8674  0.5726
 3896TIP3   OH233246   0.582   2.563   1.978  0.1267  0.1755  1.0545
 3896TIP3    H133247   0.641   2.541   2.050  2.1223 -1.3169 -0.8908
 3896TIP3    H233248   0.594   2.492   1.915 -2.8347  0.5090 -0.0423
 3897TIP3   OH233249   5.271   4.561   1.103 -0.3438 -0.5612  0.0349
 3897TIP3    H133250   5.296   4.512   1.024  0.6299 -0.7311  0.4354
 3897TIP3    H233251   5.200   4.511   1.141 -0.5209 -0.7204 -0.4955
 3898TIP3   OH233252   6.471   4.152   0.110  0.1627 -0.4672  0.0811
 3898TIP3    H133253   6.468   4.073   0.164  3.1393  0.7640  2.3168
 3898TIP3    H233254   6.507   4.219   0.167  1.6713  1.4875 -2.8919
 3899TIP3   OH233255   4.908   2.464   8.065 -0.5598  0.0019 -0.2305
 3899TIP3    H133256   4.868   2.390   8.020 -0.8894  0.4873 -0.7636
 3899TIP3    H233257   4.834   2.522   8.085 -0.1512  0.9503 -1.2936
 3900TIP3   OH233258   5.662   0.868   7.726 -0.1104  0.4953  0.0727
 3900TIP3    H133259   5.596   0.925   7.686 -1.5049 -0.9563  0.2043
 3900TIP3    H233260   5.643   0.873   7.820 -0.9211 -0.9226  0.0130
 3901TIP3   OH233261   6.180   4.622   1.362  0.0420 -0.1098 -0.2572
 3901TIP3    H133262   6.097   4.641   1.318 -0.2504 -0.4813  0.1250
 3901TIP3    H233263   6.155   4.574   1.440  0.6527 -0.6441 -0.3815
 3902TIP3   OH233264   4.476   0.241   0.542 -0.2842  0.0622  0.2959
 3902TIP3    H133265   4.466   0.208   0.632  0.2083 -0.6150  0.1141
 3902TIP3    H233266   4.488   0.335   0.553  0.3530 -0.0855  0.9939
 3903TIP3   OH233267   1.319   3.970   1.867 -0.0677  0.6672  0.1291
 3903TIP3    H133268   1.355   4.023   1.938 -0.1221  1.5563 -0.4892
 3903TIP3    H233269   1.249   4.023   1.830  1.4747  1.2973 -2.0937
 3904TIP3   OH233270   2.928   2.375   1.627 -0.0591  1.0313 -0.2332
 3904TIP3    H133271   2.848   2.407   1.669  0.7231  0.8755  1.4826
 3904TIP3    H233272   2.920   2.280   1.630  1.0076  0.9416  1.7859
 3905TIP3   OH233273   1.382   3.310   7.441 -0.4630  0.3989 -0.2109
 3905TIP3    H133274   1.355   3.315   7.349 -1.7246 -0.2832  0.1054
 3905TIP3    H233275   1.424   3.395   7.458 -0.5963  0.6990 -1.2916
 3906TIP3   OH233276   2.622   6.420   2.125 -0.4312 -0.0154  0.3220
 3906TIP3    H133277   2.583   6.449   2.208  0.7928  0.0835  0.8918
 3906TIP3    H233278   2.688   6.487   2.105  0.3183 -0.8174  0.0521
 3907TIP3   OH233279   4.274   2.542   2.111  0.3059 -0.1210 -0.4053
 3907TIP3    H133280   4.269   2.447   2.101 -1.3453 -0.2381  1.1051
 3907TIP3    H233281   4.360   2.557   2.151  1.3334 -0.7664 -2.2307
 3908TIP3   OH233282   4.024   4.390   1.907  0.1469 -0.7192  0.5015
 3908TIP3    H133283   4.103   4.368   1.856  1.5530  1.2369  1.7008
 3908TIP3    H233284   4.037   4.481   1.933 -1.2577 -1.1521  3.0236
 3909TIP3   OH233285   2.674   6.622   6.377  0.0284 -0.3128  0.1115
 3909TIP3    H133286   2.581   6.609   6.395 -0.3334  0.9077 -0.6971
 3909TIP3    H233287   2.695   6.555   6.312 -0.4926 -0.1376 -0.2532
 3910TIP3   OH233288   0.377   3.397   0.477 -0.1026  0.5861 -0.0318
 3910TIP3    H133289   0.461   3.354   0.462  1.2015  2.8550  0.2476
 3910TIP3    H233290   0.366   3.455   0.401 -0.7422  1.2655  0.5595
 3911TIP3   OH233291   2.180   6.742   7.297 -0.1298  0.4278  0.6224
 3911TIP3    H133292   2.171   6.806   7.368  0.2618 -1.3810  2.3800
 3911TIP3    H233293   2.092   6.707   7.285 -0.0483  0.1568  0.7990
 3912TIP3   OH233294   1.591   4.322   7.692  0.0823 -0.3982  0.1649
 3912TIP3    H133295   1.624   4.323   7.782 -0.1264 -3.4421  0.3788
 3912TIP3    H233296   1.524   4.254   7.692 -1.9906  1.5126 -1.6778
 3913TIP3   OH233297   2.215   0.744   7.771  0.2229 -0.2140 -0.2189
 3913TIP3    H133298   2.218   0.805   7.697  0.3146  0.3107  0.2041
 3913TIP3    H233299   2.124   0.748   7.801  0.2484 -0.2197 -0.1411
 3914TIP3   OH233300   4.001   4.834   1.205 -0.2601  0.4289  0.2413
 3914TIP3    H133301   3.979   4.926   1.220 -0.9005 -0.0872  3.0264
 3914TIP3    H233302   4.094   4.828   1.228 -0.4287  0.2433  0.8962
 3915TIP3   OH233303   6.689   2.289   6.419 -0.0235 -0.1176  0.5096
 3915TIP3    H133304   6.696   2.374   6.377  0.9739 -1.2678 -1.8568
 3915TIP3    H233305   6.771   2.245   6.399 -0.7112 -1.8184  1.2078
 3916TIP3   OH233306   5.527   4.136   7.206 -0.3203 -0.5754  0.7866
 3916TIP3    H133307   5.475   4.069   7.161 -0.2464 -0.0900 -0.0348
 3916TIP3    H233308   5.617   4.105   7.198 -0.2257 -0.0782 -0.1274
 3917TIP3   OH233309   3.170   3.090   2.335 -0.0962 -0.3770 -0.2528
 3917TIP3    H133310   3.085   3.052   2.314  0.2729 -1.8754  0.8437
 3917TIP3    H233311   3.153   3.151   2.407  0.0747 -2.5994  1.7790
 3918TIP3   OH233312   6.574   2.199   1.558 -0.2006  0.7645 -1.0135
 3918TIP3    H133313   6.545   2.268   1.617 -0.7847  0.7413 -1.2719
 3918TIP3    H233314   6.599   2.127   1.615 -0.1986  0.9585 -0.7704
 3919TIP3   OH233315   0.993   6.142   6.626  0.0093  0.2565  0.2951
 3919TIP3    H133316   0.962   6.136   6.536 -0.9626  0.2517  0.6227
 3919TIP3    H233317   0.983   6.234   6.650 -0.9442  0.0266  0.8138
 3920TIP3   OH233318   6.884   2.507   0.712 -1.0593 -0.3750 -0.0683
 3920TIP3    H133319   6.825   2.458   0.769 -0.6686 -0.0890  0.6069
 3920TIP3    H233320   6.840   2.510   0.627 -0.9794 -2.0962 -0.2019
 3921TIP3   OH233321   0.079   6.994   1.939 -0.2167 -0.5626  0.1226
 3921TIP3    H133322   0.107   6.935   1.869 -0.7816 -1.6917  0.8181
 3921TIP3    H233323   0.154   6.995   2.000  0.6325  1.1144 -0.8836
 3922TIP3   OH233324   3.522   6.643   8.161  0.2995 -0.1623  0.0563
 3922TIP3    H133325   3.476   6.560   8.174 -2.3904  0.6828 -2.8073
 3922TIP3    H233326   3.472   6.706   8.213 -0.2337  0.3224 -1.0161
 3923TIP3   OH233327   4.041   1.596   1.602 -0.0865 -0.1619  0.5119
 3923TIP3    H133328   4.090   1.594   1.684  1.1420 -0.6037 -0.2052
 3923TIP3    H233329   4.107   1.582   1.534 -1.3555 -2.0249 -0.4353
 3924TIP3   OH233330   3.326   3.929   0.638  0.1636 -0.3462  0.2092
 3924TIP3    H133331   3.322   3.844   0.595 -0.9956 -0.1344 -0.1233
 3924TIP3    H233332   3.256   3.926   0.703 -0.5814  0.7473 -0.5338
 3925TIP3   OH233333   5.719   3.051   2.427 -0.1686  0.6264  0.3541
 3925TIP3    H133334   5.761   3.137   2.437 -1.0143  0.9164  1.7076
 3925TIP3    H233335   5.785   2.997   2.385  0.5243  1.8403 -0.1740
 3926TIP3   OH233336   2.031   0.113   1.770  0.2056  0.0628  0.2145
 3926TIP3    H133337   2.038   0.032   1.719  0.7980  0.2706 -0.0411
 3926TIP3    H233338   1.964   0.094   1.836 -0.6935 -0.1711 -0.7232
 3927TIP3   OH233339   4.103   4.744   1.890  0.0995  0.6666  0.3558
 3927TIP3    H133340   4.194   4.763   1.870 -0.3018  0.9871 -1.3317
 3927TIP3    H233341   4.076   4.813   1.951  0.4533  1.7355 -0.6655
 3928TIP3   OH233342   4.491   6.215   8.100  1.4030 -0.6259  0.1914
 3928TIP3    H133343   4.396   6.208   8.108  1.4379 -1.9731 -0.2304
 3928TIP3    H233344   4.507   6.210   8.006  1.9636 -1.9231  0.3376
 3929TIP3   OH233345   1.740   6.189   1.286 -0.5490 -0.4790 -0.1043
 3929TIP3    H133346   1.744   6.096   1.309  1.7518 -0.3097  0.4884
 3929TIP3    H233347   1.765   6.234   1.367 -0.2290  0.5773 -0.7784
 3930TIP3   OH233348   0.637   1.456   7.225  0.1959 -0.3364 -0.0805
 3930TIP3    H133349   0.584   1.453   7.145  0.3237  0.5597 -0.2080
 3930TIP3    H233350   0.699   1.384   7.215  0.5226  0.0485 -1.0219
 3931TIP3   OH233351   4.032   6.694   6.389  0.1890  0.5358  0.0424
 3931TIP3    H133352   4.075   6.667   6.470 -0.1192 -1.0826 -0.3133
 3931TIP3    H233353   4.051   6.788   6.383  0.2421  0.6993  1.9653
 3932TIP3   OH233354   5.702   5.802   0.023 -0.0390 -0.3190 -0.1085
 3932TIP3    H133355   5.736   5.753   0.097 -0.1021  0.5624  0.5152
 3932TIP3    H233356   5.758   5.777  -0.050 -0.8204 -2.2368 -0.1040
 3933TIP3   OH233357   6.134   0.775   1.286  0.5649 -0.0692 -0.1468
 3933TIP3    H133358   6.134   0.818   1.372  3.2357 -0.0559 -0.0679
 3933TIP3    H233359   6.208   0.814   1.240 -0.3408 -0.6555 -2.1880
 3934TIP3   OH233360   1.178   4.042   1.194  0.2536 -0.5379  0.1732
 3934TIP3    H133361   1.214   4.045   1.283  1.2833 -0.8647 -0.2176
 3934TIP3    H233362   1.250   4.071   1.138 -0.9339  1.4580 -0.4287
 3935TIP3   OH233363   3.960   2.679   6.892 -0.9950 -0.3021  0.6547
 3935TIP3    H133364   4.019   2.639   6.957 -0.0314  0.4583  0.2726
 3935TIP3    H233365   4.015   2.743   6.846 -1.7656 -0.5526 -0.6511
 3936TIP3   OH233366   2.398   6.724   1.402  0.1798 -1.4410 -0.4515
 3936TIP3    H133367   2.403   6.819   1.402  2.1248 -1.5026  0.1060
 3936TIP3    H233368   2.305   6.704   1.398 -0.2130  0.4698 -2.2961
 3937TIP3   OH233369   6.934   0.160   0.127 -0.1571  0.4634  0.7886
 3937TIP3    H133370   7.009   0.128   0.076 -0.5758  1.6223 -0.6275
 3937TIP3    H233371   6.974   0.206   0.202  0.6607  2.3122 -0.6926
 3938TIP3   OH233372   4.216   2.042   2.368  0.0416 -0.2899  0.2012
 3938TIP3    H133373   4.305   2.055   2.336 -0.3283  0.2862 -0.6093
 3938TIP3    H233374   4.226   2.030   2.462  0.7947  1.7411  0.4130
 3939TIP3   OH233375   6.634   6.724   7.615  0.2896  0.4316 -0.4073
 3939TIP3    H133376   6.588   6.732   7.531 -1.5775  0.4039  0.5755
 3939TIP3    H233377   6.714   6.775   7.602 -1.0477  2.4484 -1.4708
 3940TIP3   OH233378   2.243   5.220   0.661 -0.3265 -0.0019 -0.6533
 3940TIP3    H133379   2.235   5.173   0.577 -1.0720  1.2176 -1.2943
 3940TIP3    H233380   2.337   5.231   0.673 -0.1513 -1.3226 -0.6633
 3941TIP3   OH233381   6.591   2.953   6.686 -0.5216 -0.4154  0.3685
 3941TIP3    H133382   6.592   3.021   6.619  0.2520 -2.1435 -1.4802
 3941TIP3    H233383   6.590   3.001   6.769 -0.2300  1.8217 -0.8430
 3942TIP3   OH233384   2.440   6.103   2.351  0.4235 -0.4041 -0.3055
 3942TIP3    H133385   2.392   6.021   2.342  1.6491 -1.0230 -1.6220
 3942TIP3    H233386   2.380   6.170   2.318 -0.7826 -0.6609  1.2656
 3943TIP3   OH233387   2.378   3.768   6.360 -0.5794  0.0764  0.3442
 3943TIP3    H133388   2.397   3.767   6.266 -1.8233 -0.4905  0.0826
 3943TIP3    H233389   2.309   3.833   6.371 -1.4503 -0.8727  0.6378
 3944TIP3   OH233390   1.358   1.208   0.002 -0.0127 -0.3801 -0.1297
 3944TIP3    H133391   1.355   1.170   0.090 -1.8282  0.1099  0.0642
 3944TIP3    H233392   1.450   1.231  -0.011  0.1493  0.4862  2.0631
 3945TIP3   OH233393   0.433   0.111   8.291 -0.4341  0.4620 -0.2341
 3945TIP3    H133394   0.443   0.201   8.323 -0.3821 -0.4348  2.5933
 3945TIP3    H233395   0.340   0.090   8.307 -0.0043 -0.5930  1.0545
 3946TIP3   OH233396   5.534   3.580   0.184 -0.1390  0.0415 -0.4190
 3946TIP3    H133397   5.473   3.648   0.154  0.1604  0.2417 -0.5792
 3946TIP3    H233398   5.595   3.626   0.242  0.7545  0.1507 -1.4080
 3947TIP3   OH233399   6.636   2.221   8.274 -0.0667 -0.1392  0.5164
 3947TIP3    H133400   6.542   2.207   8.260 -0.4733  2.8852 -0.3325
 3947TIP3    H233401   6.665   2.141   8.318 -3.1538 -0.8942  1.4344
 3948TIP3   OH233402   6.133   4.758   7.732  0.0240 -0.4909  0.3995
 3948TIP3    H133403   6.076   4.824   7.692 -0.7377 -1.7325 -0.6306
 3948TIP3    H233404   6.218   4.771   7.690 -0.1180 -0.1910  0.1968
 3949TIP3   OH233405   4.401   3.644   7.541  0.4458 -0.0621 -0.5220
 3949TIP3    H133406   4.371   3.713   7.600  2.8707  1.2864 -0.7653
 3949TIP3    H233407   4.415   3.568   7.598  0.7205  0.5685  0.2678
 3950TIP3   OH233408   3.629   2.765   0.644 -0.1232  0.1667 -0.0150
 3950TIP3    H133409   3.627   2.836   0.707 -3.4774  0.2473  0.0027
 3950TIP3    H233410   3.589   2.691   0.690  2.4567 -1.5575 -0.3205
 3951TIP3   OH233411   3.314   2.220   1.298  0.4983  0.3728 -0.1175
 3951TIP3    H133412   3.350   2.222   1.387  0.5128 -1.0323 -0.0766
 3951TIP3    H233413   3.219   2.222   1.311  0.4529  3.3333 -0.2051
 3952TIP3   OH233414   5.369   3.612   7.976 -0.2699  0.3375  0.4193
 3952TIP3    H133415   5.456   3.587   7.946  0.7811  0.8873  2.7206
 3952TIP3    H233416   5.337   3.673   7.910  1.0908  0.1332 -0.4661
 3953TIP3   OH233417   6.425   6.186   7.598 -0.2110  0.6670  0.2750
 3953TIP3    H133418   6.381   6.220   7.675 -0.7173 -0.8798  0.7113
 3953TIP3    H233419   6.501   6.243   7.586  0.7819  0.0340  2.8753
 3954TIP3   OH233420   3.675   6.899   1.670 -0.1206 -0.0310 -0.1547
 3954TIP3    H133421   3.694   6.828   1.730  1.1649  0.7931  0.4623
 3954TIP3    H233422   3.695   6.864   1.583 -0.1224 -0.6100  0.0789
 3955TIP3   OH233423   1.915   5.772   1.531  0.1916  0.1745 -0.5528
 3955TIP3    H133424   2.001   5.814   1.520  0.2572  0.6899  1.6021
 3955TIP3    H233425   1.922   5.723   1.613 -1.1819 -0.8522 -1.0098
 3956TIP3   OH233426   0.760   3.380   1.325 -0.1051 -0.0318  0.3168
 3956TIP3    H133427   0.781   3.320   1.253  0.6414 -0.2326  0.7024
 3956TIP3    H233428   0.802   3.342   1.402 -1.9693 -0.5130  1.1508
 3957TIP3   OH233429   1.795   2.537   0.434  0.5651  0.1411 -0.7067
 3957TIP3    H133430   1.853   2.607   0.407 -0.4434  1.4652  0.4402
 3957TIP3    H233431   1.717   2.547   0.379  0.2893  0.1496 -0.3271
 3958TIP3   OH233432   3.997   3.007   1.038  0.2149  0.2131  0.5618
 3958TIP3    H133433   3.965   3.097   1.035  0.2979  0.2542  0.8751
 3958TIP3    H233434   4.013   2.990   1.131 -1.8767 -0.8444  0.8094
 3959TIP3   OH233435   3.723   0.737   7.699 -0.0756  0.5742  0.3705
 3959TIP3    H133436   3.677   0.678   7.758  0.8300  0.0942  0.6142
 3959TIP3    H233437   3.759   0.805   7.756  0.0022  0.6344  0.2505
 3960TIP3   OH233438   6.222   1.274   8.037  0.6293 -0.2496 -0.3426
 3960TIP3    H133439   6.145   1.256   8.091 -0.0353  1.7251 -0.5382
 3960TIP3    H233440   6.263   1.349   8.079  0.6860  0.6690 -1.9679
 3961TIP3   OH233441   1.517   5.047   6.278 -0.6557  0.0197  0.3219
 3961TIP3    H133442   1.612   5.033   6.276 -0.8934 -1.9417 -1.3327
 3961TIP3    H233443   1.485   4.977   6.335 -1.2386 -0.7845 -0.9467
 3962TIP3   OH233444   4.187   6.605   7.880  0.1192  0.0564 -0.1330
 3962TIP3    H133445   4.253   6.542   7.852  0.6707  1.1128 -1.3578
 3962TIP3    H233446   4.150   6.638   7.798 -1.5733 -0.1278  0.5278
 3963TIP3   OH233447   2.804   3.544   7.801  0.5241 -0.1404 -0.3310
 3963TIP3    H133448   2.838   3.460   7.770 -1.4701 -0.8626 -0.6844
 3963TIP3    H233449   2.748   3.575   7.730  1.0731  1.4197 -0.1195
 3964TIP3   OH233450   2.221   0.364   1.713  0.6406  0.0436  0.0164
 3964TIP3    H133451   2.131   0.342   1.737  1.0145 -0.7197  0.7507
 3964TIP3    H233452   2.227   0.458   1.726 -0.6450  0.4801 -2.0399
 3965TIP3   OH233453   2.901   4.616   6.840 -0.1395  0.6761 -0.0930
 3965TIP3    H133454   2.969   4.569   6.889  0.3987  1.1461 -0.3698
 3965TIP3    H233455   2.891   4.699   6.886  0.1179  0.9758 -0.5733
 3966TIP3   OH233456   5.237   3.147   7.286  0.6397  0.5726  0.6110
 3966TIP3    H133457   5.327   3.115   7.286  0.4104 -0.1062 -0.6490
 3966TIP3    H233458   5.183   3.069   7.274  0.0052  1.2134 -0.9777
 3967TIP3   OH233459   0.547   3.675   7.453 -0.5709 -0.8054  0.0703
 3967TIP3    H133460   0.475   3.656   7.392 -0.2112  1.3237 -1.1499
 3967TIP3    H233461   0.515   3.747   7.506  0.7019  0.3772 -0.6852
 3968TIP3   OH233462   4.461   4.443   0.970  0.1301 -0.1802  0.0033
 3968TIP3    H133463   4.534   4.496   0.936  1.5913 -1.1064  1.5087
 3968TIP3    H233464   4.442   4.381   0.900 -2.3115  2.7801 -2.2337
 3969TIP3   OH233465   6.140   6.510   1.372  0.1140 -0.0191  1.0624
 3969TIP3    H133466   6.169   6.575   1.436  1.6960  1.8969 -1.4332
 3969TIP3    H233467   6.215   6.451   1.362  0.4267  0.5541 -0.0514
 3970TIP3   OH233468   6.136   5.885   7.927 -0.1266  0.3039  0.7150
 3970TIP3    H133469   6.196   5.830   7.876 -1.2841 -2.9891  2.5750
 3970TIP3    H233470   6.059   5.895   7.871 -1.0948 -2.6536  1.3283
 3971TIP3   OH233471   5.072   4.248   1.405 -0.0384  0.0567  0.9120
 3971TIP3    H133472   5.001   4.198   1.446  0.7091 -0.1653  1.9834
 3971TIP3    H233473   5.135   4.261   1.475  1.6919 -1.0633 -0.3565
 3972TIP3   OH233474   2.643   0.971   6.759 -0.4577 -0.7433  0.1046
 3972TIP3    H133475   2.565   0.992   6.707  0.1503  1.5328  0.0108
 3972TIP3    H233476   2.610   0.919   6.832 -2.0114 -0.2118 -0.1794
 3973TIP3   OH233477   1.180   0.938   1.076 -0.1297 -0.3796  0.3665
 3973TIP3    H133478   1.182   0.972   0.986  1.8672 -0.4944  0.3279
 3973TIP3    H233479   1.207   0.847   1.068  0.9935 -0.1419  1.1428
 3974TIP3   OH233480   1.320   2.538   1.096  0.0331 -0.0545 -0.3408
 3974TIP3    H133481   1.322   2.456   1.046 -1.0896  0.4117 -1.1985
 3974TIP3    H233482   1.408   2.546   1.133  0.1424 -1.6856 -0.1625
 3975TIP3   OH233483   4.104   5.940   7.836 -0.0584  0.2424 -0.3077
 3975TIP3    H133484   4.058   5.938   7.920 -0.3509 -1.0688 -0.4800
 3975TIP3    H233485   4.181   5.883   7.850 -1.0788 -1.5094 -1.4418
 3976TIP3   OH233486   3.987   2.592   7.607 -0.0752  0.6978 -0.2276
 3976TIP3    H133487   3.982   2.637   7.691  0.4677 -2.0428  1.3536
 3976TIP3    H233488   4.077   2.607   7.577  0.9345 -1.3286  1.5472
 3977TIP3   OH233489   1.785   3.348   6.195 -0.4249  0.0127 -0.4496
 3977TIP3    H133490   1.692   3.345   6.215 -0.0461 -0.5834  1.3683
 3977TIP3    H233491   1.818   3.262   6.219  0.2148 -0.7122 -3.4577
 3978TIP3   OH233492   0.646   0.016   1.068  0.1188 -0.6225  0.0471
 3978TIP3    H133493   0.656  -0.074   1.037  0.8708  0.0008 -1.7016
 3978TIP3    H233494   0.601   0.061   0.995 -1.5803  0.1168  1.4795
 3979TIP3   OH233495   3.333   3.492   7.974  0.1896 -0.2587  0.2860
 3979TIP3    H133496   3.394   3.553   7.933  0.4764 -0.5900  0.2101
 3979TIP3    H233497   3.291   3.447   7.900 -1.8694  1.5905  0.2536
 3980TIP3   OH233498   3.370   4.935   2.232 -0.1299  0.2036  0.8943
 3980TIP3    H133499   3.443   4.905   2.286  0.0542 -2.8644 -0.7599
 3980TIP3    H233500   3.303   4.868   2.245 -0.2023 -0.4877 -2.2083
 3981TIP3   OH233501   3.809   1.795   7.981  0.2466  0.3108 -0.0078
 3981TIP3    H133502   3.845   1.843   7.906  0.2471  2.3193  1.1926
 3981TIP3    H233503   3.886   1.764   8.029  0.4003  2.0335  0.9591
 3982TIP3   OH233504   2.530   1.334   7.193  0.0125  0.0847  0.4705
 3982TIP3    H133505   2.595   1.295   7.134 -0.0779  1.2227 -0.4236
 3982TIP3    H233506   2.452   1.279   7.183  0.3204 -0.3215  0.2941
 3983TIP3   OH233507   3.272   1.028   1.071 -0.0311 -0.2546 -0.0078
 3983TIP3    H133508   3.280   0.975   1.150  1.3558  1.6722  1.2234
 3983TIP3    H233509   3.356   1.073   1.063  0.1520 -0.8948 -3.0174
 3984TIP3   OH233510   4.368   6.463   0.929 -0.0927  0.3487 -0.4185
 3984TIP3    H133511   4.347   6.374   0.901 -1.6032  0.4596  0.3011
 3984TIP3    H233512   4.304   6.483   0.996  1.4052  1.3068  0.7941
 3985TIP3   OH233513   0.066   3.310   8.163 -1.1632  0.2323  0.1474
 3985TIP3    H133514   0.006   3.356   8.104 -0.9815  1.1751  0.6710
 3985TIP3    H233515   0.050   3.217   8.147  0.0489  0.3902 -2.6154
 3986TIP3   OH233516   5.825   3.648   0.946 -0.3223  0.2056  0.1238
 3986TIP3    H133517   5.881   3.571   0.959  1.1890  1.0539 -0.9725
 3986TIP3    H233518   5.737   3.613   0.934  0.3352 -1.3480 -0.3875
 3987TIP3   OH233519   3.100   2.181   7.945 -0.3377 -0.3612 -0.1506
 3987TIP3    H133520   3.075   2.099   7.902 -1.5778 -0.6365  1.0420
 3987TIP3    H233521   3.161   2.154   8.014 -0.8516 -0.2977  0.3289
 3988TIP3   OH233522   6.881   4.013   1.102 -0.6709 -0.3950 -0.0150
 3988TIP3    H133523   6.899   3.947   1.036 -1.2312  0.0809 -0.6523
 3988TIP3    H233524   6.968   4.045   1.128 -0.4529 -0.4427 -0.6659
 3989TIP3   OH233525   3.462   1.870   0.774  0.1401  0.1905 -0.4505
 3989TIP3    H133526   3.387   1.924   0.751 -0.6367 -0.0381  1.3539
 3989TIP3    H233527   3.496   1.839   0.691 -1.7475  0.3318 -1.3280
 3990TIP3   OH233528   1.204   3.810   0.554  0.1343 -0.6408 -0.4721
 3990TIP3    H133529   1.148   3.822   0.631 -0.4268  1.0668 -1.1163
 3990TIP3    H233530   1.144   3.784   0.484  0.5162 -1.3083 -0.5620
 3991TIP3   OH233531   3.833   1.703   7.048  0.4262 -0.0770  0.6237
 3991TIP3    H133532   3.847   1.773   7.111 -2.3896 -0.3114  1.6361
 3991TIP3    H233533   3.894   1.634   7.074  0.9433  0.7273  1.5994
 3992TIP3   OH233534   5.542   3.457   0.546  0.0134 -0.1780 -0.3050
 3992TIP3    H133535   5.477   3.516   0.585 -0.5418 -1.2424  0.4235
 3992TIP3    H233536   5.498   3.420   0.470  0.3037  0.2191 -0.6683
 3993TIP3   OH233537   3.698   5.742   7.931 -0.2526  0.2548  0.6620
 3993TIP3    H133538   3.685   5.672   7.867 -2.1909  2.5934 -1.7165
 3993TIP3    H233539   3.784   5.724   7.968  0.2851 -2.1445 -1.4655
 3994TIP3   OH233540   0.632   6.105   0.988  0.5438  0.1892  0.1966
 3994TIP3    H133541   0.683   6.116   0.908 -2.5852  0.5464 -1.9413
 3994TIP3    H233542   0.595   6.191   1.005 -0.3673 -0.3140  0.8797
 3995TIP3   OH233543   4.072   6.497   1.055 -0.5630  0.4241 -0.0042
 3995TIP3    H133544   4.049   6.432   1.121 -3.2518  2.1901  0.9867
 3995TIP3    H233545   4.123   6.562   1.103 -0.1068  0.3309 -0.3599
 3996TIP3   OH233546   6.499   4.743   0.817  0.6714  0.5818  0.3000
 3996TIP3    H133547   6.461   4.800   0.883 -0.5284  0.5972 -0.3677
 3996TIP3    H233548   6.423   4.704   0.773  1.4380 -1.4802  0.6921
 3997TIP3   OH233549   4.445   5.666   1.466  0.1098 -0.2656  0.4049
 3997TIP3    H133550   4.536   5.639   1.455  0.9783  2.8814 -1.5620
 3997TIP3    H233551   4.394   5.590   1.438  2.0820 -1.9695  1.1537
 3998TIP3   OH233552   0.907   0.175   0.205  0.0131  0.0530 -0.2507
 3998TIP3    H133553   0.869   0.258   0.178 -2.5840 -1.5952 -2.1604
 3998TIP3    H233554   0.903   0.177   0.300 -1.2265  1.6119 -0.2886
 3999TIP3   OH233555   4.405   4.312   0.738 -0.3572  0.1627 -0.6325
 3999TIP3    H133556   4.319   4.311   0.695 -0.5023 -0.4664 -0.3303
 3999TIP3    H233557   4.464   4.351   0.673 -0.9954  1.2312 -0.6010
 4000TIP3   OH233558   6.454   3.851   0.511 -0.3982  0.4802  0.3605
 4000TIP3    H133559   6.399   3.846   0.589 -0.9479  0.1907 -0.0388
 4000TIP3    H233560   6.409   3.796   0.446  0.5544 -0.0514  0.1387
 4001TIP3   OH233561   3.406   5.660   0.706  0.1847 -0.2943 -0.5356
 4001TIP3    H133562   3.359   5.716   0.645 -0.7896 -1.5489 -0.9717
 4001TIP3    H233563   3.340   5.634   0.770  1.2330  1.2106  1.2835
 4002TIP3   OH233564   3.717   1.062   7.312 -0.6011  0.0994 -0.5080
 4002TIP3    H133565   3.795   1.064   7.367  1.3963  1.8174 -3.1488
 4002TIP3    H233566   3.713   0.972   7.279  0.0931 -0.0964 -0.0711
 4003TIP3   OH233567   1.547   4.533   0.510 -0.5128 -0.6802 -0.2168
 4003TIP3    H133568   1.487   4.521   0.436  0.4940 -0.7463 -1.0342
 4003TIP3    H233569   1.577   4.445   0.531  0.6594 -0.4700 -0.9696
 4004TIP3   OH233570   1.215   5.563   0.576  0.0880 -0.3905 -0.3339
 4004TIP3    H133571   1.138   5.546   0.521 -0.1239  0.6476 -0.3902
 4004TIP3    H233572   1.285   5.513   0.535 -0.3351 -0.5573 -0.8674
 4005TIP3   OH233573   6.275   0.911   6.630  0.3637  0.3775 -0.7255
 4005TIP3    H133574   6.262   0.820   6.659 -0.0606  0.9312  0.9388
 4005TIP3    H233575   6.256   0.909   6.536  1.5423 -1.4762 -0.9724
 4006TIP3   OH233576   5.468   6.953   1.720 -0.9841  0.5692 -0.4768
 4006TIP3    H133577   5.410   6.879   1.700 -0.3214 -0.3156  0.7071
 4006TIP3    H233578   5.520   6.923   1.794  0.6331  1.5454 -1.1651
 4007TIP3   OH233579   2.938   6.624   1.242 -0.4347 -0.4017  0.0672
 4007TIP3    H133580   3.028   6.626   1.208 -1.1489  0.5984 -1.9120
 4007TIP3    H233581   2.891   6.568   1.181 -1.5437  0.5586  0.0106
 4008TIP3   OH233582   0.614   5.953   7.669 -0.6784 -0.2522  0.2199
 4008TIP3    H133583   0.621   6.047   7.656 -0.7816 -0.4804 -1.8426
 4008TIP3    H233584   0.580   5.943   7.758  2.6235  1.5140  1.8700
 4009TIP3   OH233585   5.686   2.032   6.887  0.4277  0.1687  0.4069
 4009TIP3    H133586   5.690   1.942   6.918 -2.1921  0.4668  1.9962
 4009TIP3    H233587   5.619   2.031   6.819  1.1861  0.7287 -0.3608
 4010TIP3   OH233588   0.711   0.664   1.938 -0.1801  0.1153  0.2392
 4010TIP3    H133589   0.664   0.581   1.952 -0.4720  0.1443 -0.5203
 4010TIP3    H233590   0.698   0.713   2.020  0.2596 -0.7058  0.8220
 4011TIP3   OH233591   6.659   0.838   0.799 -0.1809 -0.1756 -0.1470
 4011TIP3    H133592   6.612   0.903   0.746 -0.3536 -0.8296 -0.8141
 4011TIP3    H233593   6.633   0.753   0.763  0.4078 -0.6080  0.4019
 4012TIP3   OH233594   1.981   1.627   1.832  0.8744  0.3346  0.1590
 4012TIP3    H133595   1.903   1.681   1.848 -1.6600 -2.9248 -0.0424
 4012TIP3    H233596   1.996   1.635   1.738 -1.1805 -1.2317 -0.3747
 4013TIP3   OH233597   0.674   0.734   2.221  0.0052 -0.0672 -0.2662
 4013TIP3    H133598   0.612   0.791   2.174  1.1207  2.4410  1.0948
 4013TIP3    H233599   0.618   0.678   2.275 -1.1327  0.6994 -0.6056
 4014TIP3   OH233600   4.563   4.169   2.720 -0.0140  0.5257 -0.0466
 4014TIP3    H133601   4.589   4.179   2.629 -0.8451 -2.1870 -0.6929
 4014TIP3    H233602   4.474   4.203   2.724 -0.6846 -1.0349 -0.7709
 4015TIP3   OH233603   5.956   5.948   6.639 -0.0144  0.1958 -0.6047
 4015TIP3    H133604   5.869   5.988   6.639  0.2393  0.7571 -0.9319
 4015TIP3    H233605   5.994   5.973   6.724 -1.0191 -1.9714  0.5658
 4016TIP3   OH233606   1.868   6.007   6.508 -0.3044  0.0266  0.6218
 4016TIP3    H133607   1.850   6.077   6.445 -1.8385  1.5405  2.6069
 4016TIP3    H233608   1.785   5.958   6.512 -0.2268 -0.0341  1.4702
 4017TIP3   OH233609   1.346   5.157   7.969 -0.8878  0.0111 -0.2008
 4017TIP3    H133610   1.318   5.139   7.880  0.0950  1.1524 -0.7751
 4017TIP3    H233611   1.420   5.217   7.959 -0.2437 -0.4678  1.3554
 4018TIP3   OH233612   4.036   0.112   8.064 -0.0552 -0.3576 -0.8998
 4018TIP3    H133613   4.024   0.179   7.997  1.8568  0.3701 -0.5823
 4018TIP3    H233614   3.953   0.112   8.113 -0.7178  0.5399 -1.9789
 4019TIP3   OH233615   5.906   4.258   0.858 -0.0576  0.0567  0.2959
 4019TIP3    H133616   5.937   4.183   0.807  0.3337 -2.1550  3.4658
 4019TIP3    H233617   5.821   4.230   0.894  0.5888  0.5911  2.4201
 4020TIP3   OH233618   4.395   0.310   7.547 -0.6959 -0.1297  0.8932
 4020TIP3    H133619   4.320   0.369   7.551  1.0882  2.6348 -1.7015
 4020TIP3    H233620   4.427   0.318   7.457  2.3013 -1.6619  1.6884
 4021TIP3   OH233621   3.115   1.658   2.732  0.2061  0.2268  0.2294
 4021TIP3    H133622   3.035   1.697   2.766 -0.5441 -0.7090 -0.3918
 4021TIP3    H233623   3.182   1.681   2.796 -0.4403  1.4742  0.4931
 4022TIP3   OH233624   5.688   6.478   2.169 -0.3131 -0.1553  0.2904
 4022TIP3    H133625   5.728   6.404   2.123  1.4998  1.1803 -0.3693
 4022TIP3    H233626   5.762   6.526   2.206 -1.4187  1.5182  0.4225
 4023TIP3   OH233627   1.757   3.805   0.369  0.4499  0.4409 -0.9454
 4023TIP3    H133628   1.670   3.815   0.408  0.7445  0.6840 -0.3434
 4023TIP3    H233629   1.817   3.848   0.431  0.9873  0.3669 -1.4036
 4024TIP3   OH233630   0.002   3.489   1.737 -0.0082 -0.2514 -0.4456
 4024TIP3    H133631   0.022   3.400   1.707  0.2049  0.1632 -1.5758
 4024TIP3    H233632  -0.041   3.530   1.662  1.7914  1.2688 -0.7232
 4025TIP3   OH233633   5.502   6.542   0.595  0.6455  0.2520 -0.0869
 4025TIP3    H133634   5.416   6.584   0.598  0.6278  0.1981  0.2054
 4025TIP3    H233635   5.491   6.468   0.534 -0.1984 -1.2454  1.7836
 4026TIP3   OH233636   2.162   2.566   1.312 -0.0759  0.1498  0.5312
 4026TIP3    H133637   2.156   2.656   1.344  2.1663  0.5854 -0.0694
 4026TIP3    H233638   2.224   2.523   1.371 -0.7121 -0.8456  0.4918
 4027TIP3   OH233639   6.369   1.328   7.391 -0.5034 -0.1443  0.0845
 4027TIP3    H133640   6.278   1.301   7.380 -1.0492  1.2100  1.0158
 4027TIP3    H233641   6.371   1.374   7.475  0.8766  0.5184 -0.2743
 4028TIP3   OH233642   4.185   6.939   0.005  0.0560 -0.2720 -0.1152
 4028TIP3    H133643   4.157   6.850  -0.017 -0.8634  0.0153 -0.1402
 4028TIP3    H233644   4.280   6.939  -0.011 -0.3207 -0.4422 -2.8747
 4029TIP3   OH233645   5.891   0.081   0.443  0.0278 -0.0253  0.3648
 4029TIP3    H133646   5.831   0.019   0.484 -0.7706  0.2540 -0.3523
 4029TIP3    H233647   5.851   0.167   0.458  0.2829  0.1718 -0.0659
 4030TIP3   OH233648   3.497   1.525   8.034  0.0191  0.2492 -0.0835
 4030TIP3    H133649   3.558   1.553   8.103  0.0636 -0.1498  0.0450
 4030TIP3    H233650   3.478   1.604   7.984  2.3539 -0.0015 -1.4877
 4031TIP3   OH233651   6.641   5.377   1.088  0.1039 -0.2261  0.2135
 4031TIP3    H133652   6.721   5.418   1.119  1.7092 -1.9841 -1.2884
 4031TIP3    H233653   6.604   5.333   1.165 -1.3170  3.2259  1.6997
 4032TIP3   OH233654   5.662   2.272   2.007  0.1206 -0.6250  0.1747
 4032TIP3    H133655   5.752   2.252   1.983 -0.6131 -1.9370 -1.7298
 4032TIP3    H233656   5.643   2.355   1.963  0.3558 -0.3959  0.5013
 4033TIP3   OH233657   3.766   1.442   7.413  0.0442 -0.6417  0.2163
 4033TIP3    H133658   3.701   1.380   7.448 -1.4623  0.5487 -0.3440
 4033TIP3    H233659   3.717   1.523   7.400  2.0856  0.9094  1.4854
 4034TIP3   OH233660   1.647   5.296   1.397 -0.5881 -0.1478  0.3338
 4034TIP3    H133661   1.656   5.330   1.308 -0.7912  1.1413  0.7883
 4034TIP3    H233662   1.669   5.370   1.453 -0.7668 -0.8606  1.3672
 4035TIP3   OH233663   4.692   2.239   0.817  0.0510  0.6971 -0.3986
 4035TIP3    H133664   4.630   2.301   0.856 -0.5459  0.9688 -1.7439
 4035TIP3    H233665   4.756   2.294   0.772  1.1414  0.4074  0.7337
 4036TIP3   OH233666   5.613   4.372   2.547 -0.1477 -0.4063  0.3102
 4036TIP3    H133667   5.687   4.314   2.564 -0.7298 -0.9415  1.1581
 4036TIP3    H233668   5.547   4.316   2.507 -0.7453 -0.3640  1.2054
 4037TIP3   OH233669   5.425   0.110   1.033 -0.0554 -0.3177 -0.0836
 4037TIP3    H133670   5.436   0.181   0.970 -1.5654  0.6844  0.6819
 4037TIP3    H233671   5.386   0.153   1.110 -1.6215 -2.0471  0.1815
 4038TIP3   OH233672   6.649   4.976   1.312  0.1004  0.2634 -0.3005
 4038TIP3    H133673   6.613   5.013   1.392 -0.6324  0.4500 -0.7025
 4038TIP3    H233674   6.655   4.882   1.329 -1.0059  0.1686 -0.3693
 4039TIP3   OH233675   6.026   3.487   6.817 -0.2699  0.1118 -0.2308
 4039TIP3    H133676   5.976   3.551   6.766 -1.1398  0.2180  0.7355
 4039TIP3    H233677   5.980   3.481   6.901 -0.6735 -2.3595 -0.5456
 4040TIP3   OH233678   3.579   2.354   7.859 -0.3966  0.3648 -0.0640
 4040TIP3    H133679   3.537   2.309   7.786 -1.3913  0.8247  0.2096
 4040TIP3    H233680   3.511   2.360   7.926 -0.7583  3.4523 -0.5662
 4041TIP3   OH233681   3.343   0.542   2.099  0.7701  0.3870 -0.2767
 4041TIP3    H133682   3.354   0.527   2.193  0.8729  2.1028  0.0116
 4041TIP3    H233683   3.328   0.636   2.091  1.0016  0.3114 -2.0094
 4042TIP3   OH233684   2.111   1.935   2.121 -0.4714 -0.0492  0.1441
 4042TIP3    H133685   2.038   1.996   2.131  0.5140  1.0488  1.0571
 4042TIP3    H233686   2.155   1.937   2.206 -0.5186 -2.2265  0.2674
 4043TIP3   OH233687   3.861   5.651   0.612 -0.0239  0.8025 -0.3011
 4043TIP3    H133688   3.836   5.646   0.704  0.1335 -2.1094 -0.2952
 4043TIP3    H233689   3.783   5.622   0.565  0.7266 -0.5004 -0.8198
 4044TIP3   OH233690   3.798   5.989   0.281 -0.0199 -0.3984 -0.3789
 4044TIP3    H133691   3.862   5.977   0.352 -0.0921  0.5707 -0.1291
 4044TIP3    H233692   3.721   5.941   0.310 -0.4305  0.8635  0.7429
 4045TIP3   OH233693   1.478   3.145   5.987  0.8623  0.7413 -0.2179
 4045TIP3    H133694   1.474   3.078   6.056  0.2281  2.6733  1.7512
 4045TIP3    H233695   1.552   3.119   5.933  0.9351 -1.2712  0.7550
 4046TIP3   OH233696   1.573   6.031   2.016  0.6119 -0.7916  0.2628
 4046TIP3    H133697   1.585   6.018   2.110 -0.5083 -1.8260  0.2978
 4046TIP3    H233698   1.504   6.097   2.008  1.8800  0.5609  0.1276
 4047TIP3   OH233699   0.055   5.243   1.260  0.3862  0.0565  0.5115
 4047TIP3    H133700   0.078   5.267   1.170 -0.5264  2.0151  0.7532
 4047TIP3    H233701   0.010   5.159   1.252 -0.5306  0.6546 -0.9888
 4048TIP3   OH233702   0.792   6.915   0.552 -0.1333  0.0021 -0.3543
 4048TIP3    H133703   0.794   6.821   0.567 -0.5507  0.1411  0.6256
 4048TIP3    H233704   0.878   6.935   0.516  0.8469 -0.4108  1.6001
 4049TIP3   OH233705   0.187   4.477   7.338 -0.0093 -0.0822 -0.0271
 4049TIP3    H133706   0.115   4.507   7.282  0.1838  2.4496  0.9472
 4049TIP3    H233707   0.144   4.430   7.410 -0.5879  0.2478 -0.1539
 4050TIP3   OH233708   1.810   2.190   1.800 -0.6356 -0.1344 -0.2710
 4050TIP3    H133709   1.835   2.145   1.720 -0.6278  0.1991 -0.4578
 4050TIP3    H233710   1.750   2.259   1.771 -0.3939  0.1828 -0.0262
 4051TIP3   OH233711   1.788   4.671   0.537  0.1631  0.4489  1.1641
 4051TIP3    H133712   1.739   4.627   0.468  1.8235  0.3415 -0.0233
 4051TIP3    H233713   1.789   4.609   0.610  0.4010 -0.4714  0.3941
 4052TIP3   OH233714   4.241   1.669   1.157  0.5397  0.3760  0.0721
 4052TIP3    H133715   4.210   1.600   1.215  0.0504 -0.2868 -0.9507
 4052TIP3    H233716   4.199   1.749   1.189  1.1433  0.2294  1.2877
 4053TIP3   OH233717   6.141   5.235   0.203  0.4484  0.3164  0.1077
 4053TIP3    H133718   6.161   5.148   0.167  0.7213  0.9028 -1.1941
 4053TIP3    H233719   6.226   5.269   0.232  0.9661  1.4940 -2.4929
 4054TIP3   OH233720   3.623   0.210   2.085  0.1495 -0.0113 -0.0843
 4054TIP3    H133721   3.550   0.147   2.077  0.0732 -0.0633  0.9169
 4054TIP3    H233722   3.582   0.295   2.071  0.2001 -0.1549 -1.1576
 4055TIP3   OH233723   0.409   3.179   7.471  0.2095  0.4661  0.0123
 4055TIP3    H133724   0.344   3.148   7.407 -0.8041 -0.5168  1.4470
 4055TIP3    H233725   0.370   3.159   7.556  1.5064  1.7582  0.9593
 4056TIP3   OH233726   3.888   2.005   7.419  0.2049 -0.1935 -0.1420
 4056TIP3    H133727   3.805   2.005   7.468  0.1611  1.0938 -0.1798
 4056TIP3    H233728   3.872   2.064   7.345  0.7058 -1.0657 -0.9738
 4057TIP3   OH233729   2.610   4.671   2.511 -0.1435  0.1566  0.0011
 4057TIP3    H133730   2.687   4.624   2.542  0.2335  0.7349 -0.0397
 4057TIP3    H233731   2.541   4.649   2.573  0.0770 -0.2949  0.0887
 4058TIP3   OH233732   3.410   2.469   6.204 -0.4828  0.2554  0.6002
 4058TIP3    H133733   3.465   2.391   6.214 -1.4200 -0.5712 -0.4509
 4058TIP3    H233734   3.440   2.528   6.273  1.8506 -0.0773 -0.0273
 4059TIP3   OH233735   0.203   6.060   6.663 -0.7528  0.1135 -0.5414
 4059TIP3    H133736   0.111   6.046   6.685 -0.6524 -2.0705 -1.3763
 4059TIP3    H233737   0.243   6.087   6.746 -1.6426 -1.5471  0.4703
 4060TIP3   OH233738   6.425   5.967   1.634 -0.1998 -0.3293  0.1003
 4060TIP3    H133739   6.336   5.955   1.602 -0.1073  0.3030 -0.4214
 4060TIP3    H233740   6.473   5.892   1.598 -0.2634 -0.0314 -0.6178
 4061TIP3   OH233741   6.390   6.579   7.444 -0.4958 -0.0117 -0.1399
 4061TIP3    H133742   6.329   6.624   7.503 -1.0145  0.6607 -1.1507
 4061TIP3    H233743   6.375   6.620   7.359  0.6782 -0.5228 -0.6195
 4062TIP3   OH233744   1.193   1.603   1.874 -0.3069 -0.0050 -0.7301
 4062TIP3    H133745   1.118   1.622   1.929  0.1545 -0.4678  0.0824
 4062TIP3    H233746   1.269   1.635   1.923  0.1506 -0.8017 -0.8889
 4063TIP3   OH233747   2.361   0.458   7.483  0.1368  0.2672 -0.1360
 4063TIP3    H133748   2.417   0.380   7.476  0.7505  0.3750  2.6548
 4063TIP3    H233749   2.423   0.531   7.484 -0.0942  0.4787  1.4999
 4064TIP3   OH233750   1.877   4.813   6.594  0.4926  0.6558 -0.1367
 4064TIP3    H133751   1.816   4.885   6.610 -1.4325 -0.7649 -0.7717
 4064TIP3    H233752   1.911   4.790   6.680  1.0258  2.1883  0.0952
 4065TIP3   OH233753   4.958   6.743   1.731 -0.0403  0.3255  0.1373
 4065TIP3    H133754   4.946   6.778   1.819 -0.8876 -1.5727  0.8472
 4065TIP3    H233755   4.876   6.763   1.685  0.3088  1.1081 -0.1542
 4066TIP3   OH233756   0.629   3.547   0.101 -0.7996 -0.7323  0.4355
 4066TIP3    H133757   0.701   3.584   0.153 -0.7301 -0.6247  0.2657
 4066TIP3    H233758   0.640   3.453   0.108 -1.9536 -0.7883  2.2545
 4067TIP3   OH233759   6.436   5.542   2.630  0.1051  0.1693  0.1491
 4067TIP3    H133760   6.370   5.610   2.612 -0.9224 -0.5997  0.8633
 4067TIP3    H233761   6.385   5.469   2.665  1.1855 -1.0055 -0.6823
 4068TIP3   OH233762   2.406   5.107   0.107 -0.0885 -0.6208 -0.3260
 4068TIP3    H133763   2.412   5.196   0.073  0.2285 -1.5497 -2.8638
 4068TIP3    H233764   2.478   5.100   0.170  1.6175  0.0994 -2.1274
 4069TIP3   OH233765   3.772   4.297   7.300  0.4884  0.3229  0.9124
 4069TIP3    H133766   3.713   4.229   7.333  0.5580 -0.1276  0.1448
 4069TIP3    H233767   3.753   4.374   7.353 -0.6172  0.1089  0.8452
 4070TIP3   OH233768   5.110   2.190   0.653  0.1681  0.0101  0.4372
 4070TIP3    H133769   5.045   2.121   0.669 -0.0446 -0.2739 -1.4787
 4070TIP3    H233770   5.166   2.187   0.731 -1.8150 -0.0241  1.9575
 4071TIP3   OH233771   6.540   4.280   7.612 -0.4621 -0.0833  0.2425
 4071TIP3    H133772   6.534   4.237   7.526  2.1726  0.9487 -0.5708
 4071TIP3    H233773   6.505   4.368   7.597  0.9400  0.4434 -0.1092
 4072TIP3   OH233774   0.565   3.147   8.026  0.0103 -0.1679  0.1138
 4072TIP3    H133775   0.508   3.220   8.051 -1.2734 -0.7520 -1.0006
 4072TIP3    H233776   0.513   3.095   7.965  2.1461 -0.0301 -1.9899
 4073TIP3   OH233777   3.237   0.760   6.870 -0.1219 -0.2421  0.7370
 4073TIP3    H133778   3.207   0.822   6.937 -0.9303  1.5628 -1.1889
 4073TIP3    H233779   3.303   0.808   6.821 -0.3207 -1.1261 -0.4371
 4074TIP3   OH233780   3.178   5.091   2.118  0.1053  0.4702  0.4189
 4074TIP3    H133781   3.247   5.034   2.153 -0.3624  0.0758  0.7004
 4074TIP3    H233782   3.202   5.103   2.026  0.4718  0.2207  0.4775
 4075TIP3   OH233783   1.611   4.895   7.168 -0.3579 -0.3654 -0.0279
 4075TIP3    H133784   1.681   4.919   7.229  0.1324  0.9887 -1.0769
 4075TIP3    H233785   1.604   4.800   7.177 -1.9799 -0.0635  3.8691
 4076TIP3   OH233786   4.514   4.879   2.374 -0.0249 -0.5846 -0.6766
 4076TIP3    H133787   4.518   4.851   2.283 -0.6209 -0.6909 -0.6795
 4076TIP3    H233788   4.603   4.905   2.396  0.1505 -0.6956 -1.2460
 4077TIP3   OH233789   0.255   0.940   1.960  0.6475 -0.1717  0.5151
 4077TIP3    H133790   0.215   1.023   1.987 -1.6032 -1.0648  0.1451
 4077TIP3    H233791   0.199   0.873   1.999  2.8500 -1.5817  1.4465
 4078TIP3   OH233792   5.952   3.355   1.541  0.2440  0.2058 -0.1722
 4078TIP3    H133793   5.870   3.348   1.589  0.3207 -0.1966 -0.0915
 4078TIP3    H233794   5.928   3.390   1.456 -0.1436 -0.7764 -0.4761
 4079TIP3   OH233795   2.898   4.023   7.242  0.0559  0.8370 -0.2653
 4079TIP3    H133796   2.972   4.060   7.193  1.6255  0.2706  1.5876
 4079TIP3    H233797   2.867   4.095   7.296  1.2663  0.3251  1.2001
 4080TIP3   OH233798   2.313   2.186   2.294 -0.1295 -0.6513  0.5566
 4080TIP3    H133799   2.329   2.106   2.344  0.4662 -2.2111 -1.9567
 4080TIP3    H233800   2.362   2.174   2.212 -2.6519  0.7998 -1.3255
 4081TIP3   OH233801   5.134   3.440   7.246  0.4766  0.1878  0.1202
 4081TIP3    H133802   5.113   3.477   7.332 -2.9051 -1.9149  0.3661
 4081TIP3    H233803   5.164   3.351   7.265 -1.1604 -0.6108 -0.8191
 4082TIP3   OH233804   2.755   0.220   0.354  0.5998  0.0613 -0.1597
 4082TIP3    H133805   2.711   0.156   0.409  0.3709  0.7523  0.4835
 4082TIP3    H233806   2.709   0.215   0.270 -0.2338  0.2531  0.2705
 4083TIP3   OH233807   0.506   0.920   0.452 -0.7651 -0.9257 -0.5068
 4083TIP3    H133808   0.417   0.922   0.487 -0.7249 -1.8244 -0.3486
 4083TIP3    H233809   0.534   0.830   0.462  1.7808  0.0615  3.5255
 4084TIP3   OH233810   4.230   0.004   1.670 -0.6247  0.4864 -0.2680
 4084TIP3    H133811   4.297  -0.056   1.702  0.8599  1.6010 -1.1399
 4084TIP3    H233812   4.246   0.085   1.718 -2.8608  0.1465  1.1955
 4085TIP3   OH233813   2.875   1.992   1.102  0.0392 -0.3582  0.2519
 4085TIP3    H133814   2.800   1.936   1.121  0.8297 -0.8759  2.0028
 4085TIP3    H233815   2.940   1.968   1.167  1.8184 -0.0506 -1.3230
 4086TIP3   OH233816   6.352   4.933   2.224 -0.0559 -0.1332  0.1218
 4086TIP3    H133817   6.428   4.887   2.260  1.0070 -0.0631 -1.8681
 4086TIP3    H233818   6.389   5.003   2.171 -1.5579  0.6831  0.1049
 4087TIP3   OH233819   3.544   3.166   2.321 -0.3964  0.3566 -0.3052
 4087TIP3    H133820   3.587   3.251   2.315 -1.4210  0.8274 -1.3992
 4087TIP3    H233821   3.475   3.169   2.254  0.4494 -1.8619 -1.3832
 4088TIP3   OH233822   1.983   6.834   1.041 -0.0622 -0.0789 -0.4131
 4088TIP3    H133823   1.945   6.869   0.960 -0.3116  1.2211  0.2520
 4088TIP3    H233824   2.050   6.772   1.011 -0.0480  0.4931 -1.6160
 4089TIP3   OH233825   4.259   2.790   2.234  0.1252  0.1312  0.6099
 4089TIP3    H133826   4.303   2.707   2.251  1.1048 -0.4276 -3.5758
 4089TIP3    H233827   4.166   2.766   2.225  0.0082  0.0004  1.9733
 4090TIP3   OH233828   4.099   5.694   2.575  0.2938  0.1372  0.2154
 4090TIP3    H133829   4.044   5.770   2.555  1.8050  1.5234  1.0956
 4090TIP3    H233830   4.060   5.657   2.655 -0.3214  0.0866 -0.0996
 4091TIP3   OH233831   6.374   2.273   7.652  0.3617 -0.3610  0.0339
 4091TIP3    H133832   6.395   2.295   7.743 -0.3672 -1.1779  0.4221
 4091TIP3    H233833   6.310   2.201   7.659  0.4692 -0.5943 -1.1246
 4092TIP3   OH233834   3.644   0.835   0.864  0.4204 -0.0039  0.0136
 4092TIP3    H133835   3.721   0.782   0.843  0.2670 -0.5744  0.8514
 4092TIP3    H233836   3.591   0.833   0.784  0.3629 -1.2141  0.0627
 4093TIP3   OH233837   2.607   1.986   1.762  0.1735 -0.2398 -0.3361
 4093TIP3    H133838   2.534   2.010   1.819 -0.2539  0.0628 -0.9920
 4093TIP3    H233839   2.586   1.898   1.732  1.3037 -1.1599  1.3738
 4094TIP3   OH233840   0.850   3.803   8.289 -1.2999  0.0179 -0.5724
 4094TIP3    H133841   0.855   3.887   8.243  1.5239 -0.3191 -1.0606
 4094TIP3    H233842   0.936   3.793   8.330 -0.7397 -3.5402 -2.2302
 4095TIP3   OH233843   2.622   6.001   2.155 -0.2607  0.1563 -0.6679
 4095TIP3    H133844   2.552   6.020   2.218 -0.4754  0.4331 -0.9840
 4095TIP3    H233845   2.618   6.074   2.094  1.3172  1.0013  0.1768
 4096TIP3   OH233846   4.044   4.630   0.652  0.1759  0.5219 -0.5341
 4096TIP3    H133847   4.047   4.549   0.701  0.5018  1.4425  1.0233
 4096TIP3    H233848   4.130   4.636   0.609 -0.3311 -0.5798 -1.7618
 4097TIP3   OH233849   3.628   2.218   1.715 -0.4528  0.6888  0.4316
 4097TIP3    H133850   3.649   2.306   1.683  1.5146 -0.2986 -1.1836
 4097TIP3    H233851   3.633   2.162   1.638  2.8155 -1.5579  2.0255
 4098TIP3   OH233852   0.901   3.285   8.294  0.4381 -0.2766  0.7137
 4098TIP3    H133853   0.945   3.204   8.269 -0.6501 -0.3454 -1.1516
 4098TIP3    H233854   0.828   3.293   8.232 -1.2347  0.6402  2.6780
 4099TIP3   OH233855   5.497   1.268   0.083  0.8145  0.0222 -0.3386
 4099TIP3    H133856   5.452   1.191   0.046  1.1638 -0.2706 -0.1546
 4099TIP3    H233857   5.463   1.342   0.032  0.7325 -0.2939 -0.7490
 4100TIP3   OH233858   0.346   4.228   0.858 -0.0227  0.5039  0.5968
 4100TIP3    H133859   0.312   4.284   0.789  0.8410 -0.5560 -0.7465
 4100TIP3    H233860   0.420   4.276   0.895  0.4074  0.4790 -0.2124
 4101TIP3   OH233861   3.623   2.756   6.578  0.1711 -0.2862  0.5233
 4101TIP3    H133862   3.702   2.809   6.571  0.8512 -1.2784  0.5437
 4101TIP3    H233863   3.596   2.765   6.669  1.6510 -1.8476  1.1648
 4102TIP3   OH233864   1.058   5.069   1.417  0.1703  0.2977  0.1932
 4102TIP3    H133865   1.053   5.077   1.513  1.8328  0.1420  0.3263
 4102TIP3    H233866   1.032   4.979   1.399 -1.9378  0.8276  0.2889
 4103TIP3   OH233867   0.444   1.616   1.349  0.6165 -0.0559 -0.7491
 4103TIP3    H133868   0.364   1.576   1.314  1.7146 -2.3140 -0.8442
 4103TIP3    H233869   0.509   1.605   1.280  1.2861  0.8586 -0.2836
 4104TIP3   OH233870   2.279   5.154   8.115 -0.0433  0.5749  0.4553
 4104TIP3    H133871   2.359   5.179   8.161  0.0972  0.1510  0.4462
 4104TIP3    H233872   2.310   5.108   8.037 -0.2876  0.9190  0.1542
 4105TIP3   OH233873   1.433   6.018   7.765  0.0252 -0.4862  0.0109
 4105TIP3    H133874   1.511   6.069   7.787  0.4709 -1.6563  1.2728
 4105TIP3    H233875   1.363   6.083   7.760  0.5908  0.2767  1.4932
 4106TIP3   OH233876   1.810   1.389   7.958 -0.1180 -0.8857  0.0380
 4106TIP3    H133877   1.883   1.362   7.902 -2.3270 -1.2456 -2.8730
 4106TIP3    H233878   1.742   1.323   7.943 -1.7419  0.4281  1.2110
 4107TIP3   OH233879   0.495   3.493   1.286  0.4983  0.1496  0.5543
 4107TIP3    H133880   0.589   3.476   1.278  0.7781  1.5740  0.4796
 4107TIP3    H233881   0.476   3.480   1.379  0.5300 -1.1505  0.3999
 4108TIP3   OH233882   2.028   3.175   7.678 -0.5331 -0.3548  0.0591
 4108TIP3    H133883   1.956   3.204   7.733  1.0385  3.3156  0.4981
 4108TIP3    H233884   1.991   3.171   7.589 -1.4502  0.6578  0.3844
 4109TIP3   OH233885   6.459   6.850   8.087 -0.0515 -0.3056  0.8614
 4109TIP3    H133886   6.485   6.940   8.103 -0.2381  0.6068 -3.0058
 4109TIP3    H233887   6.369   6.844   8.121 -1.0475  1.8700 -1.0816
 4110TIP3   OH233888   0.841   0.434   6.911 -0.0181  0.8374 -0.2404
 4110TIP3    H133889   0.922   0.484   6.919  1.5363 -1.6063  0.5996
 4110TIP3    H233890   0.808   0.426   7.000  0.7167 -0.9900 -0.0836
 4111TIP3   OH233891   4.368   2.215   7.298  0.2324 -0.6646 -0.4025
 4111TIP3    H133892   4.358   2.169   7.215  4.0918  0.0114 -1.4635
 4111TIP3    H233893   4.420   2.155   7.352  1.1586  0.4743  0.0031
 4112TIP3   OH233894   4.651   0.466   8.083  0.4247 -0.1086 -0.4522
 4112TIP3    H133895   4.588   0.425   8.024  0.7762 -1.5369  0.1241
 4112TIP3    H233896   4.669   0.399   8.149  2.7760  0.1311 -0.7814
 4113TIP3   OH233897   1.454   5.411   8.286 -0.5750  0.1745  0.1142
 4113TIP3    H133898   1.473   5.389   8.194  0.3358 -3.3232  1.0137
 4113TIP3    H233899   1.527   5.373   8.335 -0.9970  2.0283  2.3567
 4114TIP3   OH233900   2.992   6.862   7.860  0.9023  0.3140 -0.0439
 4114TIP3    H133901   3.037   6.779   7.875 -0.0589 -0.7893 -2.5680
 4114TIP3    H233902   3.062   6.927   7.856  1.8636 -0.6742  0.1755
 4115TIP3   OH233903   3.848   5.425   1.957  0.1541 -0.4117 -0.3204
 4115TIP3    H133904   3.934   5.387   1.938 -0.1360 -1.0035 -0.4418
 4115TIP3    H233905   3.837   5.493   1.890  0.9119  0.2861  0.2370
 4116TIP3   OH233906   0.695   3.147   7.427  0.2300  0.3719  0.0846
 4116TIP3    H133907   0.610   3.147   7.469  0.2522 -0.5993  0.1591
 4116TIP3    H233908   0.677   3.125   7.335  0.4035 -0.0267  0.1396
 4117TIP3   OH233909   3.108   4.479   7.724  0.0034  0.1761  0.3510
 4117TIP3    H133910   3.051   4.525   7.662 -0.7721 -0.1358  0.8081
 4117TIP3    H233911   3.090   4.387   7.709 -0.1884  0.0992  1.0234
 4118TIP3   OH233912   1.613   1.344   7.418 -0.2585  0.1446  0.5609
 4118TIP3    H133913   1.635   1.262   7.462 -1.7825  0.2018  1.5175
 4118TIP3    H233914   1.525   1.331   7.385  0.4892  0.4632 -1.7500
 4119TIP3   OH233915   1.253   6.255   6.794  0.0210  0.0307  0.2040
 4119TIP3    H133916   1.314   6.328   6.789  1.4933 -1.1678  0.0276
 4119TIP3    H233917   1.166   6.296   6.796  0.8369  1.8182  1.4139
 4120TIP3   OH233918   6.864   6.938   1.642 -0.6031  0.4122 -0.9218
 4120TIP3    H133919   6.857   6.880   1.717  0.5583  2.3270  0.7455
 4120TIP3    H233920   6.868   6.878   1.566 -1.6124 -1.5647  0.4836
 4121TIP3   OH233921   4.960   0.001   1.561  0.1316  0.1272 -0.1595
 4121TIP3    H133922   5.012   0.015   1.640 -1.6397  0.8340  0.9381
 4121TIP3    H233923   5.001  -0.075   1.520  1.2828 -0.0889  1.2673
 4122TIP3   OH233924   3.495   5.388   7.558  0.0656  0.3194  0.1629
 4122TIP3    H133925   3.545   5.307   7.551 -0.5988 -0.1122  0.2795
 4122TIP3    H233926   3.485   5.418   7.468 -0.6071 -0.3122  0.0151
 4123TIP3   OH233927   1.951   5.910   1.933  0.1303  0.2587  0.8334
 4123TIP3    H133928   2.006   5.900   1.855 -0.1691  0.7892  0.5465
 4123TIP3    H233929   1.878   5.850   1.919  0.0274  0.4243  0.6578
 4124TIP3   OH233930   6.162   2.469   1.013 -0.4029  0.0621 -0.3445
 4124TIP3    H133931   6.154   2.517   0.931 -1.1886  2.1154  0.8548
 4124TIP3    H233932   6.111   2.389   1.000 -0.2146  0.1727 -1.9417
 4125TIP3   OH233933   4.336   0.682   8.045  0.5670 -0.3022  0.0330
 4125TIP3    H133934   4.289   0.606   8.010 -0.4418  0.2112  0.2412
 4125TIP3    H233935   4.278   0.717   8.112  2.0624 -0.7260  1.6177
 4126TIP3   OH233936   5.408   1.520   6.620 -0.3022 -0.3245  0.0664
 4126TIP3    H133937   5.491   1.472   6.624 -0.2957 -0.3606 -0.4012
 4126TIP3    H233938   5.435   1.611   6.608 -0.3005 -0.1055  1.5936
 4127TIP3   OH233939   0.151   4.874   2.104 -0.4313  0.2452  0.2080
 4127TIP3    H133940   0.210   4.822   2.159 -1.3475 -2.2410 -0.9914
 4127TIP3    H233941   0.073   4.886   2.158 -1.7503 -3.0916 -0.7028
 4128TIP3   OH233942   1.168   2.005   2.073  0.1551  0.1517  0.1125
 4128TIP3    H133943   1.231   1.944   2.034 -0.3756  0.2427 -0.9395
 4128TIP3    H233944   1.209   2.034   2.154  2.1654  1.3582 -1.2557
 4129TIP3   OH233945   3.986   2.209   2.646 -0.6018  0.0365  0.8102
 4129TIP3    H133946   4.031   2.270   2.588 -0.5840 -0.8355 -0.1328
 4129TIP3    H233947   3.897   2.243   2.653 -1.1376 -0.7988 -1.2425
 4130TIP3   OH233948   3.653   2.637   1.730  0.1943  0.5983 -0.4152
 4130TIP3    H133949   3.703   2.597   1.660  0.1457 -0.4979  0.1633
 4130TIP3    H233950   3.718   2.685   1.782  0.4442  0.2310 -0.3919
 4131TIP3   OH233951   2.713   5.163   6.742  0.1319 -0.4367  0.3596
 4131TIP3    H133952   2.727   5.148   6.836 -1.0922 -1.4729  0.4161
 4131TIP3    H233953   2.749   5.085   6.700  1.2336  0.3007 -0.1079
 4132TIP3   OH233954   4.386   0.869   0.247  0.1861 -0.1914  0.1589
 4132TIP3    H133955   4.446   0.865   0.322 -0.7578 -1.3872  0.8847
 4132TIP3    H233956   4.442   0.893   0.173  0.7253  3.8936  1.6302
 4133TIP3   OH233957   2.539   5.740   0.181  0.6543 -0.2399 -0.0195
 4133TIP3    H133958   2.512   5.649   0.184 -1.0971  0.2505  1.3510
 4133TIP3    H233959   2.492   5.781   0.255  3.0215  1.3356  0.7292
 4134TIP3   OH233960   0.600   5.385   7.429 -0.4572  0.1267  0.2313
 4134TIP3    H133961   0.647   5.452   7.479 -1.9644  1.9081 -0.5963
 4134TIP3    H233962   0.550   5.336   7.494  0.5785 -0.1691  0.8381
 4135TIP3   OH233963   2.075   2.897   7.284 -0.6204 -0.5880 -0.7581
 4135TIP3    H133964   2.009   2.888   7.214  1.5704  0.7409 -3.1793
 4135TIP3    H233965   2.159   2.890   7.238  0.9876  2.4160  1.3751
 4136TIP3   OH233966   3.659   5.930   8.287  0.1590 -0.0943  0.5423
 4136TIP3    H133967   3.570   5.911   8.258  1.2289  0.3208 -3.6103
 4136TIP3    H233968   3.698   5.844   8.302 -0.8060 -0.2849  2.1581
 4137TIP3   OH233969   4.975   5.641   8.289 -0.7288 -0.6440  0.0325
 4137TIP3    H133970   5.026   5.667   8.212 -0.2449 -2.0680 -0.1640
 4137TIP3    H233971   4.990   5.710   8.352  1.2833 -0.8960 -0.1121
 4138TIP3   OH233972   1.819   4.877   2.553  0.1801 -0.0432  0.0557
 4138TIP3    H133973   1.795   4.959   2.509  0.8021  0.9465  1.4983
 4138TIP3    H233974   1.752   4.815   2.525  0.8131  0.3587 -2.6917
 4139TIP3   OH233975   1.258   0.682   0.988 -0.7641  0.1430 -0.2423
 4139TIP3    H133976   1.211   0.681   0.905 -2.0103 -0.3060  0.4452
 4139TIP3    H233977   1.200   0.637   1.050  1.1187 -1.6445  0.3571
 4140TIP3   OH233978   1.450   5.785   1.826 -0.1907 -0.3543 -0.3737
 4140TIP3    H133979   1.474   5.715   1.887 -3.7972 -0.9842  0.5603
 4140TIP3    H233980   1.518   5.851   1.837  2.3746 -2.8698  0.0565
 4141TIP3   OH233981   1.005   5.589   1.121 -0.4342 -0.2357  0.1761
 4141TIP3    H133982   1.081   5.647   1.131 -0.4430 -0.0801 -0.5702
 4141TIP3    H233983   0.956   5.628   1.048 -0.5149 -1.1013 -0.2453
 4142TIP3   OH233984   2.448   0.066   7.203  0.0580 -0.3479  0.2607
 4142TIP3    H133985   2.466   0.054   7.109  0.1294  0.6718  0.1414
 4142TIP3    H233986   2.534   0.064   7.244  0.0745 -0.1529  0.2337
 4143TIP3   OH233987   6.409   1.343   6.657 -0.5252  0.2934  0.1614
 4143TIP3    H133988   6.349   1.274   6.684  0.6132 -0.8955 -0.1941
 4143TIP3    H233989   6.495   1.300   6.656  0.5112  2.1731  1.6670
 4144TIP3   OH233990   5.900   1.989   0.551  0.6170 -0.1320  0.3300
 4144TIP3    H133991   5.959   2.063   0.567  1.9608 -1.0112 -0.2774
 4144TIP3    H233992   5.908   1.935   0.630 -0.4611  0.4317  0.8274
 4145TIP3   OH233993   5.564   6.105   7.264 -0.4641 -0.3488 -0.5490
 4145TIP3    H133994   5.565   6.044   7.191 -0.3108 -2.2505  0.9558
 4145TIP3    H233995   5.520   6.058   7.335  1.9460  0.2343  1.4899
 4146TIP3   OH233996   1.105   3.142   1.198  0.1493 -0.2361 -0.0740
 4146TIP3    H133997   1.175   3.140   1.132 -0.4827  0.1833 -0.7731
 4146TIP3    H233998   1.151   3.154   1.281  1.2202 -3.5642 -0.0353
 4147TIP3   OH233999   4.252   6.930   0.589  0.1373  0.0569  0.1734
 4147TIP3    H134000   4.221   6.851   0.633 -2.0359 -0.1353 -1.5762
 4147TIP3    H234001   4.346   6.914   0.575  0.4306 -0.8089  2.6232
 4148TIP3   OH234002   5.263   2.654   8.230  0.4854  0.3321  0.3268
 4148TIP3    H134003   5.302   2.572   8.200 -1.1571  0.3308 -2.0814
 4148TIP3    H234004   5.180   2.628   8.271  0.9217  0.6651  1.4700
 4149TIP3   OH234005   5.245   1.833   1.524  0.1065  0.1552  0.7232
 4149TIP3    H134006   5.222   1.923   1.504 -1.5693 -0.2985  0.4835
 4149TIP3    H234007   5.163   1.793   1.555  0.6959 -1.4039  0.3794
 4150TIP3   OH234008   2.197   6.449   7.469  0.1548  0.2443  0.4120
 4150TIP3    H134009   2.147   6.391   7.412  0.2077  2.1726 -1.7264
 4150TIP3    H234010   2.288   6.422   7.457 -0.0325 -1.1637  1.8240
 4151TIP3   OH234011   4.289   3.584   1.776  0.5032 -0.0536 -0.0040
 4151TIP3    H134012   4.356   3.635   1.731  1.1463  1.2167  2.2488
 4151TIP3    H234013   4.243   3.647   1.831  1.3403 -1.8032  2.9262
 4152TIP3   OH234014   4.626   0.922   2.639  0.0527 -0.5051 -0.2288
 4152TIP3    H134015   4.669   1.007   2.632  1.8378 -1.3493 -0.1665
 4152TIP3    H234016   4.533   0.941   2.632  0.3886  1.4850  0.1473
 4153TIP3   OH234017   3.541   2.098   7.350  0.2236  0.0409 -0.4394
 4153TIP3    H134018   3.474   2.124   7.287  0.6781  0.2656 -0.8439
 4153TIP3    H234019   3.493   2.071   7.428 -0.2770  1.7351 -0.1413
 4154TIP3   OH234020   6.040   0.686   7.394 -0.9355  0.4368  0.0481
 4154TIP3    H134021   6.034   0.699   7.489 -2.1795 -0.9138  0.1923
 4154TIP3    H234022   5.974   0.744   7.357  0.7533  2.3233 -0.1918
 4155TIP3   OH234023   0.841   0.770   1.087 -0.0985 -0.0611  0.3102
 4155TIP3    H134024   0.848   0.771   0.991  3.0023 -0.0432  0.4507
 4155TIP3    H234025   0.831   0.677   1.108 -1.8091  0.0124 -0.0173
 4156TIP3   OH234026   3.518   0.594   2.333  0.8072 -0.2125 -0.5644
 4156TIP3    H134027   3.579   0.667   2.340 -0.5680  0.8707  1.1674
 4156TIP3    H234028   3.433   0.636   2.318  0.0724 -1.4782 -0.0927
 4157TIP3   OH234029   3.480   2.893   7.070  0.2759  0.3814 -0.4228
 4157TIP3    H134030   3.568   2.863   7.090  0.5253  0.2580 -1.6386
 4157TIP3    H234031   3.456   2.949   7.144  0.1902 -1.9272  1.4397
 4158TIP3   OH234032   6.098   2.310   6.172 -0.4878 -0.0356  0.7628
 4158TIP3    H134033   6.119   2.356   6.253 -0.1631  0.0989  0.6049
 4158TIP3    H234034   6.071   2.223   6.200 -3.4278  0.9317  1.2601
 4159TIP3   OH234035   2.931   4.964   2.880  0.0874  0.2300 -0.0629
 4159TIP3    H134036   3.012   5.016   2.889  0.5669 -0.2116 -1.5884
 4159TIP3    H234037   2.961   4.873   2.878 -0.6807 -0.1004  1.7462
 4160TIP3   OH234038   5.833   6.167   7.247  0.3798  0.1844  0.1782
 4160TIP3    H134039   5.751   6.140   7.290 -0.7204  2.1574 -0.5682
 4160TIP3    H234040   5.825   6.134   7.157  0.3101  0.5545  0.0481
 4161TIP3   OH234041   0.781   6.023   6.060  1.1392 -0.3771 -0.3312
 4161TIP3    H134042   0.829   5.983   5.988  0.2223 -1.0194 -0.6007
 4161TIP3    H234043   0.732   5.951   6.100 -1.3024  0.5507 -1.4177
 4162TIP3   OH234044   3.901   1.808   0.236  0.3383 -0.5815  0.4781
 4162TIP3    H134045   3.911   1.723   0.194  0.8219 -1.4217  2.2322
 4162TIP3    H234046   3.952   1.868   0.180  0.4212 -1.5205 -0.4895
 4163TIP3   OH234047   6.134   6.146   7.207  0.1941 -0.1370  0.3883
 4163TIP3    H134048   6.066   6.211   7.187 -0.5175 -1.0999 -0.4527
 4163TIP3    H234049   6.158   6.163   7.298  0.1100  1.3687  0.1546
 4164TIP3   OH234050   4.504   1.997   0.202 -0.2636 -0.2519  0.0759
 4164TIP3    H134051   4.563   2.058   0.156 -0.8378 -0.7335 -1.3491
 4164TIP3    H234052   4.511   1.915   0.153  0.1028 -1.2176  1.6651
 4165TIP3   OH234053   4.521   1.366   8.161  0.3555  0.3591 -0.1834
 4165TIP3    H134054   4.610   1.396   8.177 -0.1072  1.4779  0.4687
 4165TIP3    H234055   4.467   1.444   8.177 -0.8671 -0.6882  0.9293
 4166TIP3   OH234056   5.994   6.771   7.369  0.1875 -0.6281 -0.3016
 4166TIP3    H134057   5.931   6.732   7.309 -1.0310  0.4057  0.2631
 4166TIP3    H234058   6.028   6.697   7.419  2.0220 -1.6840 -2.8735
 4167TIP3   OH234059   0.552   5.653   1.480  0.5532 -0.0503  0.5865
 4167TIP3    H134060   0.567   5.645   1.386  1.0170 -0.7872  0.7154
 4167TIP3    H234061   0.569   5.565   1.514 -0.0723  0.0942  1.2968
 4168TIP3   OH234062   4.803   4.388   0.791 -0.2831  0.0086 -0.8922
 4168TIP3    H134063   4.778   4.378   0.883 -2.1987  1.4958 -1.1978
 4168TIP3    H234064   4.889   4.346   0.785 -0.7013 -1.2918  1.2669
 4169TIP3   OH234065   0.128   3.256   1.578 -0.8651  0.0791  0.0224
 4169TIP3    H134066   0.116   3.221   1.491  2.1831 -0.1492 -0.4356
 4169TIP3    H234067   0.135   3.179   1.635  0.6631  0.0620 -0.1499
 4170TIP3   OH234068   2.064   5.980   0.951 -0.2172 -0.1796 -0.0225
 4170TIP3    H134069   2.053   6.069   0.984 -1.4992 -0.7578  1.2405
 4170TIP3    H234070   1.975   5.951   0.931  0.1313 -1.3206  0.0182
 4171TIP3   OH234071   0.939   0.765   7.268  0.3977  0.3045 -0.2694
 4171TIP3    H134072   0.959   0.672   7.277  0.8633  0.5405  1.4548
 4171TIP3    H234073   1.013   0.810   7.308 -0.8262  1.3535  0.9330
 4172TIP3   OH234074   5.123   3.009   0.450 -0.2455 -0.4098  0.0228
 4172TIP3    H134075   5.088   2.989   0.537 -2.2716  1.9752 -0.1264
 4172TIP3    H234076   5.074   2.951   0.391 -2.0534  0.9258  0.1151
 4173TIP3   OH234077   1.129   4.256   7.821  0.1653  0.0538  0.1131
 4173TIP3    H134078   1.139   4.169   7.783  1.5105  0.0878  0.3435
 4173TIP3    H234079   1.218   4.291   7.825 -0.1781  0.8510  1.3897
 4174TIP3   OH234080   5.923   5.137   7.810 -0.5908 -0.0323  0.4295
 4174TIP3    H134081   5.934   5.065   7.748 -1.1433 -0.9062  1.3052
 4174TIP3    H234082   5.842   5.116   7.857 -0.3247  0.7255  1.2681
 4175TIP3   OH234083   0.536   4.296   7.683  0.0828  0.0859  0.2381
 4175TIP3    H134084   0.590   4.303   7.761  1.3005  0.0098 -0.5742
 4175TIP3    H234085   0.447   4.309   7.714  0.4064 -1.2344  1.8301
 4176TIP3   OH234086   4.410   5.167   2.138 -0.3930  0.4960  0.0799
 4176TIP3    H134087   4.480   5.190   2.077  1.2488  0.0961  1.7469
 4176TIP3    H234088   4.357   5.103   2.090 -0.1916  1.4753 -1.5355
 4177TIP3   OH234089   4.207   2.836   0.250  0.1973 -0.0417  0.2299
 4177TIP3    H134090   4.215   2.861   0.342  0.2659 -0.0310  0.2215
 4177TIP3    H234091   4.114   2.818   0.237  0.3451 -1.1012  0.5736
 4178TIP3   OH234092   3.320   3.706   7.555 -0.1413  0.0306  0.0730
 4178TIP3    H134093   3.236   3.726   7.514 -0.5393  0.3832  1.0409
 4178TIP3    H234094   3.314   3.742   7.643  0.1350 -1.9620  0.9725
 4179TIP3   OH234095   2.336   4.228   6.854  0.3547 -0.0905  0.6449
 4179TIP3    H134096   2.334   4.322   6.874 -1.9400 -0.1725  1.1722
 4179TIP3    H234097   2.331   4.224   6.758 -0.2892  0.3535  0.6504
 4180TIP3   OH234098   6.616   6.508   7.198 -0.1705 -0.1521 -0.3752
 4180TIP3    H134099   6.562   6.587   7.196 -0.9212 -0.5829  1.1143
 4180TIP3    H234100   6.555   6.438   7.222  0.7501 -0.9254 -0.2234
 4181TIP3   OH234101   1.058   5.701   7.572  0.1647 -0.1717  0.1912
 4181TIP3    H134102   0.983   5.742   7.615  0.3948 -2.3525  2.9954
 4181TIP3    H234103   1.121   5.771   7.561 -1.6396  1.3841 -0.8112
 4182TIP3   OH234104   6.349   2.377   2.077  0.6584  0.1361 -0.5017
 4182TIP3    H134105   6.314   2.466   2.080 -0.4254 -0.3032  2.1271
 4182TIP3    H234106   6.427   2.379   2.133  0.9573 -0.4522 -0.8862
 4183TIP3   OH234107   3.317   0.891   2.177 -0.4454  0.1860  0.0463
 4183TIP3    H134108   3.258   0.850   2.114  0.7289 -1.0544 -0.3054
 4183TIP3    H234109   3.296   0.850   2.261  2.2759 -3.1417 -0.6611
 4184TIP3   OH234110   4.659   4.663   1.186  0.7281 -0.0520 -0.0737
 4184TIP3    H134111   4.641   4.651   1.093 -0.3379 -1.5195  0.2751
 4184TIP3    H234112   4.696   4.579   1.214  1.2795  0.4573  0.7933
 4185TIP3   OH234113   5.650   6.472   6.672 -0.0151 -0.0571 -0.4774
 4185TIP3    H134114   5.632   6.536   6.742  1.1602  1.5178 -1.5567
 4185TIP3    H234115   5.633   6.387   6.713 -0.1520  0.8485  1.4784
 4186TIP3   OH234116   3.784   0.216   8.220  0.5888  0.2694 -0.0191
 4186TIP3    H134117   3.732   0.214   8.300  1.9102  1.1286  0.9060
 4186TIP3    H234118   3.722   0.195   8.150 -0.9334  1.0329  1.0453
 4187TIP3   OH234119   5.076   1.024   1.640 -0.1856  0.2917 -0.4797
 4187TIP3    H134120   5.011   1.089   1.611  0.0007  0.8363  0.2994
 4187TIP3    H234121   5.025   0.959   1.688 -0.4276 -0.3623 -1.5741
 4188TIP3   OH234122   5.135   1.650   7.383 -0.4334  0.0262 -0.3894
 4188TIP3    H134123   5.045   1.680   7.373 -0.6834 -0.2076  0.9568
 4188TIP3    H234124   5.172   1.706   7.451  0.3150 -0.1493 -0.6403
 4189TIP3   OH234125   3.406   3.903   0.365  0.3598  0.2774  0.7656
 4189TIP3    H134126   3.469   3.857   0.421 -0.5066  0.0334  1.5625
 4189TIP3    H234127   3.409   3.993   0.396 -1.3990 -0.1883  2.4509
 4190TIP3   OH234128   1.843   6.277   0.304  0.3079  0.0985  0.0710
 4190TIP3    H134129   1.838   6.335   0.380  0.6345  0.9690 -0.5564
 4190TIP3    H234130   1.887   6.330   0.237  2.6265 -1.5589  0.1420
 4191TIP3   OH234131   0.099   0.962   7.944 -0.5031 -0.2410 -0.1645
 4191TIP3    H134132   0.136   0.874   7.947 -0.9294 -0.3967  1.0346
 4191TIP3    H234133   0.004   0.949   7.949 -0.5359  0.3018  1.1063
 4192TIP3   OH234134   4.939   4.809   6.588 -0.6432  0.6411 -0.1085
 4192TIP3    H134135   4.863   4.808   6.646 -0.5297 -0.2653  0.0378
 4192TIP3    H234136   4.964   4.901   6.583 -0.7188  0.7503  1.2078
 4193TIP3   OH234137   5.198   2.903   1.192 -0.5523 -0.0260  0.2909
 4193TIP3    H134138   5.110   2.925   1.222  0.6953  1.8584  2.9272
 4193TIP3    H234139   5.208   2.951   1.110 -2.0511 -0.5532 -0.2325
 4194TIP3   OH234140   3.078   2.589   5.571 -0.3333 -0.1342  0.5003
 4194TIP3    H134141   3.017   2.655   5.605 -0.1016  0.0992  0.4601
 4194TIP3    H234142   3.108   2.542   5.648 -0.6365 -0.3148  0.5126
 4195TIP3   OH234143   3.121   0.771   2.017 -0.2274  0.2637  0.0496
 4195TIP3    H134144   3.064   0.705   2.056  0.1712  0.2446  0.5969
 4195TIP3    H234145   3.104   0.763   1.923  0.4700 -1.2424  0.0137
 4196TIP3   OH234146   0.979   6.802   1.535  0.2931  0.1920 -0.4191
 4196TIP3    H134147   1.016   6.722   1.497  2.0433  0.6673  0.2293
 4196TIP3    H234148   0.899   6.817   1.483  0.2535 -1.6065 -0.9689
 4197TIP3   OH234149   2.036   5.560   0.242  0.1671  0.1292 -0.3566
 4197TIP3    H134150   2.063   5.475   0.208  0.4412  0.3417 -0.6620
 4197TIP3    H234151   2.003   5.608   0.166 -1.2481 -0.1832  0.0169
 4198TIP3   OH234152   0.065   1.195   2.022  0.4552  0.5099 -0.0118
 4198TIP3    H134153   0.119   1.215   2.098  0.1406  2.0139 -0.1569
 4198TIP3    H234154  -0.010   1.254   2.029  0.0156  0.1002 -1.0587
 4199TIP3   OH234155   5.853   3.231   8.076  0.1995 -0.3561 -0.0847
 4199TIP3    H134156   5.815   3.181   8.005 -0.2427 -0.1393 -0.0077
 4199TIP3    H234157   5.941   3.254   8.045  0.6438 -1.6977  0.1396
 4200TIP3   OH234158   0.326   3.719   1.148 -0.0848 -0.0181 -0.2055
 4200TIP3    H134159   0.380   3.651   1.187  0.8727  0.7092 -0.2284
 4200TIP3    H234160   0.374   3.746   1.069  0.3226  1.6983  0.5916
 4201TIP3   OH234161   6.870   5.459   7.832  0.5442 -0.0902  0.0268
 4201TIP3    H134162   6.962   5.459   7.805  0.7871  0.3574  0.8242
 4201TIP3    H234163   6.822   5.487   7.754  0.9403 -1.6251 -0.8103
 4202TIP3   OH234164   6.594   6.617   1.081  0.0195 -0.0498  0.2773
 4202TIP3    H134165   6.508   6.574   1.076 -0.0892  0.2808 -1.1290
 4202TIP3    H234166   6.587   6.675   1.156 -1.3981  0.7635 -0.4359
 4203TIP3   OH234167   2.608   2.800   1.123  0.2006 -0.0749  0.3152
 4203TIP3    H134168   2.612   2.715   1.165  1.7502  0.1021  0.5997
 4203TIP3    H234169   2.603   2.780   1.029 -0.9546 -0.4688  0.4557
 4204TIP3   OH234170   4.875   5.214   8.185  0.0194 -0.0793 -0.4847
 4204TIP3    H134171   4.935   5.209   8.112 -0.9582 -2.4713 -1.2089
 4204TIP3    H234172   4.816   5.140   8.174 -1.4348  0.6403  1.6269
 4205TIP3   OH234173   6.314   1.677   0.151 -0.7058 -0.0094 -0.2318
 4205TIP3    H134174   6.389   1.620   0.167 -0.6035  0.1089 -0.2873
 4205TIP3    H234175   6.240   1.618   0.137 -0.4197 -0.1480 -1.2347
 4206TIP3   OH234176   4.543   1.139   7.826  0.0363 -0.1759 -0.2217
 4206TIP3    H134177   4.575   1.228   7.839 -0.7625  0.0440  0.2721
 4206TIP3    H234178   4.572   1.116   7.738  0.0362  0.6567 -0.4441
 4207TIP3   OH234179   1.293   3.932   7.246 -0.1199 -0.3957 -0.2012
 4207TIP3    H134180   1.213   3.959   7.291 -0.6365 -1.3378 -0.5271
 4207TIP3    H234181   1.293   3.837   7.252  0.3376 -0.4794 -1.2978
 4208TIP3   OH234182   3.475   0.771   1.087  0.6114  0.6151 -0.0534
 4208TIP3    H134183   3.496   0.823   1.009  0.7967  1.4585  0.5570
 4208TIP3    H234184   3.521   0.688   1.072  2.1760  1.4418 -0.0013
 4209TIP3   OH234185   4.847   2.168   1.072  0.2822 -0.0028 -0.0545
 4209TIP3    H134186   4.918   2.233   1.069  1.6685 -1.4551 -0.2448
 4209TIP3    H234187   4.809   2.170   0.984 -0.8050  1.6837  0.4148
 4210TIP3   OH234188   1.545   4.975   7.877 -0.3280  0.2101 -0.0796
 4210TIP3    H134189   1.461   5.012   7.906 -0.2357 -0.0685  0.5670
 4210TIP3    H234190   1.609   5.013   7.938 -0.0623 -0.0362 -0.2065
 4211TIP3   OH234191   6.307   3.840   8.202 -0.4326  0.0309  0.1884
 4211TIP3    H134192   6.256   3.866   8.125  0.8215 -0.8061 -0.9729
 4211TIP3    H234193   6.392   3.816   8.167  0.6592  0.9774  2.0179
 4212TIP3   OH234194   1.783   3.385   7.312 -0.2822 -0.1056 -0.4875
 4212TIP3    H134195   1.722   3.337   7.255  1.0660  0.1419 -2.2171
 4212TIP3    H234196   1.849   3.419   7.253  1.7314 -0.6103  1.3486
 4213TIP3   OH234197   1.085   4.606   7.760  0.3809 -0.1853 -0.2622
 4213TIP3    H134198   1.019   4.564   7.814 -0.4720 -0.1109 -1.2097
 4213TIP3    H234199   1.040   4.623   7.677  0.6961  2.5473  0.0447
 4214TIP3   OH234200   5.716   1.730   0.210 -0.5255 -0.3832 -0.1005
 4214TIP3    H134201   5.790   1.779   0.247 -0.2490 -1.1517  0.3912
 4214TIP3    H234202   5.708   1.762   0.120 -0.6789  0.9253  0.3491
 4215TIP3   OH234203   6.007   1.486   7.564 -0.8081 -0.4792 -0.4254
 4215TIP3    H134204   5.936   1.548   7.577 -0.5342 -0.1453 -0.5114
 4215TIP3    H234205   6.035   1.464   7.653  0.0279  0.6090 -0.3943
 4216TIP3   OH234206   3.222   3.437   1.935 -0.3819  0.4460  0.5243
 4216TIP3    H134207   3.271   3.355   1.943 -1.5231 -0.4130 -0.8265
 4216TIP3    H234208   3.281   3.504   1.971  0.2214 -1.0539  2.5305
 4217TIP3   OH234209   2.486   4.009   6.866  0.3711 -0.2671  0.0214
 4217TIP3    H134210   2.435   4.088   6.849 -0.8110 -0.6673  1.5152
 4217TIP3    H234211   2.464   3.951   6.793  0.1003  0.2242 -0.2994
 4218TIP3   OH234212   4.223   0.170   2.657 -0.2526 -0.5778  0.1350
 4218TIP3    H134213   4.309   0.136   2.631 -0.2866 -1.3385  0.9946
 4218TIP3    H234214   4.181   0.097   2.703 -0.8612  0.1936  0.8234
 4219TIP3   OH234215   4.723   4.983   8.127 -0.2355  0.0150  0.1884
 4219TIP3    H134216   4.808   4.972   8.170 -0.9966  1.3261  2.1546
 4219TIP3    H234217   4.712   4.903   8.075  2.2063 -0.1473 -0.1929
 4220TIP3   OH234218   0.259   3.149   7.920  0.3244 -0.2025  0.0436
 4220TIP3    H134219   0.192   3.107   7.974  1.0345 -1.3994  0.0432
 4220TIP3    H234220   0.260   3.240   7.948 -0.7618 -0.3416  0.5762
 4221TIP3   OH234221   6.121   3.738   1.225 -0.5838 -0.2580  0.3144
 4221TIP3    H134222   6.113   3.772   1.137  0.8611 -0.9359 -0.1059
 4221TIP3    H234223   6.060   3.791   1.277 -0.1764  1.3047 -0.7401
 4222TIP3   OH234224   5.864   0.927   2.216  0.0118 -0.0156  0.1088
 4222TIP3    H134225   5.870   0.985   2.140  0.7964 -0.3360 -0.0921
 4222TIP3    H234226   5.872   0.986   2.292  2.2252  0.0564 -0.0978
 4223TIP3   OH234227   3.721   5.910   6.634 -0.2409  0.0764  0.2892
 4223TIP3    H134228   3.679   5.992   6.608 -1.2161 -0.2567  0.7321
 4223TIP3    H234229   3.651   5.844   6.627  0.4062 -0.6398  0.3618
 4224TIP3   OH234230   0.273   2.350   0.706  0.1533  0.3541 -0.2871
 4224TIP3    H134231   0.190   2.352   0.754 -0.2407  2.3507 -0.9297
 4224TIP3    H234232   0.292   2.257   0.694 -1.1061 -0.1753  1.3509
 4225TIP3   OH234233   5.781   0.216   6.556 -0.2368  0.0928 -0.0187
 4225TIP3    H134234   5.775   0.123   6.575 -1.3190  0.1581  0.0328
 4225TIP3    H234235   5.709   0.255   6.604 -0.5152  0.8065 -0.9759
 4226TIP3   OH234236   2.683   1.382   6.856 -0.1611  0.0407 -0.5263
 4226TIP3    H134237   2.696   1.304   6.909  2.1569 -0.9053 -2.3039
 4226TIP3    H234238   2.601   1.367   6.810 -0.5526 -0.5782  0.3477
 4227TIP3   OH234239   1.129   2.239   0.623 -0.5189  0.0590 -0.2888
 4227TIP3    H134240   1.155   2.224   0.533 -1.1052 -0.2000 -0.4197
 4227TIP3    H234241   1.128   2.334   0.632  1.9828  0.1062  0.1850
 4228TIP3   OH234242   2.329   2.327   0.658 -0.4588  0.1032  0.9366
 4228TIP3    H134243   2.394   2.353   0.723  0.6806  1.3253 -0.6183
 4228TIP3    H234244   2.380   2.302   0.580 -1.7924 -0.7693  0.2877
 4229TIP3   OH234245   3.531   1.997   1.364 -0.3001  0.9888 -0.4515
 4229TIP3    H134246   3.485   1.916   1.339  0.1414  0.9629 -1.2169
 4229TIP3    H234247   3.560   2.034   1.280  1.4458  0.7920  0.0329
 4230TIP3   OH234248   1.036   1.839   0.639 -0.1531  1.2223  0.6488
 4230TIP3    H134249   1.022   1.907   0.706  0.3469  0.3767  1.6321
 4230TIP3    H234250   1.038   1.757   0.688 -3.4053  0.1401 -0.7549
 4231TIP3   OH234251   2.113   0.321   0.774  0.0542  0.1031  0.0787
 4231TIP3    H134252   2.115   0.389   0.841 -1.8654 -0.3552  0.6709
 4231TIP3    H234253   2.176   0.256   0.805  0.1781  0.5194  0.7384
 4232TIP3   OH234254   0.597   6.120   6.932 -0.2073  0.5817 -0.3503
 4232TIP3    H134255   0.507   6.147   6.911 -0.7682 -0.9648 -0.0533
 4232TIP3    H234256   0.635   6.098   6.847 -0.5707 -0.0935 -0.3429
 4233TIP3   OH234257   2.608   0.772   1.715  0.6112 -1.1898 -0.2211
 4233TIP3    H134258   2.560   0.694   1.687 -0.9136 -1.1191  1.9521
 4233TIP3    H234259   2.670   0.740   1.780 -0.7044 -0.5264  1.4183
 4234TIP3   OH234260   0.738   0.709   0.078 -0.4728 -0.4511 -0.0263
 4234TIP3    H134261   0.831   0.702   0.100 -0.8126 -0.5656  1.4894
 4234TIP3    H234262   0.694   0.649   0.138 -1.6489  0.5472  0.1605
 4235TIP3   OH234263   3.984   4.600   1.671  0.2190  0.0212  0.1746
 4235TIP3    H134264   4.053   4.656   1.705  0.6785 -0.2189 -0.3491
 4235TIP3    H234265   3.905   4.627   1.718  0.7250  0.0876  0.9938
 4236TIP3   OH234266   5.423   4.220   7.459 -0.8215  0.5831 -0.0407
 4236TIP3    H134267   5.445   4.189   7.372 -0.8115  2.1657 -0.6236
 4236TIP3    H234268   5.504   4.211   7.510 -1.2354 -1.8904  0.3323
 4237TIP3   OH234269   4.441   1.617   7.678 -0.0747 -0.1599  0.3054
 4237TIP3    H134270   4.386   1.555   7.726  0.1227 -0.4949  0.1026
 4237TIP3    H234271   4.469   1.569   7.600  1.7227 -0.5348  1.1286
 4238TIP3   OH234272   4.355   0.896   6.998  0.0101  0.3902  0.0706
 4238TIP3    H134273   4.397   0.977   7.028  0.5350 -0.3861  1.5026
 4238TIP3    H234274   4.425   0.847   6.955 -0.4404  0.9110 -1.3347
 4239TIP3   OH234275   2.568   0.884   0.632 -0.4648  0.0957 -0.1391
 4239TIP3    H134276   2.496   0.857   0.575 -0.1586 -0.6876 -0.1576
 4239TIP3    H234277   2.571   0.818   0.701  0.4419 -0.0562 -0.3120
 4240TIP3   OH234278   3.276   1.118   6.883  0.2636  0.6987  0.7314
 4240TIP3    H134279   3.211   1.134   6.815 -1.4853 -3.7959  1.0145
 4240TIP3    H234280   3.225   1.116   6.964  1.1382 -0.5430  1.2683
 4241TIP3   OH234281   1.601   4.730   1.480 -0.1525  0.0560 -0.7766
 4241TIP3    H134282   1.559   4.649   1.506 -0.2970  0.0971 -0.8814
 4241TIP3    H234283   1.692   4.720   1.508 -0.3242  0.1350 -0.1683
 4242TIP3   OH234284   3.972   5.195   7.063  0.1267  0.2367  0.3381
 4242TIP3    H134285   3.966   5.101   7.078 -1.5900  0.0935 -1.0676
 4242TIP3    H234286   3.882   5.227   7.070  0.1807  1.2330 -2.2916
 4243TIP3   OH234287   0.936   3.606   8.120 -0.0467  0.2109 -0.5950
 4243TIP3    H134288   0.919   3.651   8.202  1.0083  1.4984 -1.0352
 4243TIP3    H234289   0.857   3.555   8.103 -1.1173  1.5588  0.1575
 4244TIP3   OH234290   2.473   5.510   0.891 -0.1708 -0.6404  0.5458
 4244TIP3    H134291   2.519   5.571   0.833  0.8230 -1.7883  0.0733
 4244TIP3    H234292   2.386   5.503   0.853  0.6003 -1.7494 -1.1892
 4245TIP3   OH234293   3.323   0.046   0.581 -0.5820  0.9347  0.7227
 4245TIP3    H134294   3.401   0.009   0.538  0.0746  1.6449  1.2739
 4245TIP3    H234295   3.279  -0.030   0.619  0.4189  0.6139  1.3006
 4246TIP3   OH234296   4.840   4.986   1.462  0.5681 -0.2840 -0.0919
 4246TIP3    H134297   4.849   5.049   1.533 -1.2185 -1.1605  0.9825
 4246TIP3    H234298   4.774   5.023   1.404  1.2848 -0.0541 -0.7848
 4247TIP3   OH234299   2.567   3.844   1.795  0.2932  0.0897  0.6075
 4247TIP3    H134300   2.662   3.832   1.790  0.4664 -0.7098  3.4659
 4247TIP3    H234301   2.554   3.938   1.786  1.0752  0.0129 -2.0539
 4248TIP3   OH234302   0.408   0.884   0.150 -0.5515 -0.3189  0.7686
 4248TIP3    H134303   0.357   0.825   0.205 -1.3502 -0.3703 -0.0026
 4248TIP3    H234304   0.459   0.936   0.212 -2.6221  0.7637  1.6873
 4249TIP3   OH234305   4.351   1.898   2.118 -0.4473  0.2898 -0.1109
 4249TIP3    H134306   4.420   1.951   2.156 -0.3882 -0.0474  0.2595
 4249TIP3    H234307   4.356   1.814   2.165 -1.0158  0.2149 -0.1750
 4250TIP3   OH234308   1.996   5.651   1.791  0.2779  0.1937  0.0858
 4250TIP3    H134309   2.048   5.625   1.715  0.9029  1.8078 -0.0921
 4250TIP3    H234310   2.036   5.605   1.865  0.7947 -0.0213 -0.3257
 4251TIP3   OH234311   6.390   5.449   0.444 -0.2584 -0.2578 -0.0150
 4251TIP3    H134312   6.320   5.454   0.508  0.0740 -0.3764  0.3626
 4251TIP3    H234313   6.438   5.369   0.465  0.8501  0.5364  0.6524
 4252TIP3   OH234314   5.836   6.862   7.004 -0.3872  0.3397  0.1136
 4252TIP3    H134315   5.881   6.791   6.959  1.4026  0.5681  1.4258
 4252TIP3    H234316   5.773   6.895   6.940  0.9246 -0.3629 -1.6200
 4253TIP3   OH234317   3.844   3.543   0.678  0.6200  0.1313 -0.0269
 4253TIP3    H134318   3.902   3.598   0.731  0.7187 -0.7400  0.7869
 4253TIP3    H234319   3.764   3.535   0.729  1.7433 -3.1483  1.5287
 4254TIP3   OH234320   3.773   4.785   8.218  0.4832  0.5907  0.4683
 4254TIP3    H134321   3.779   4.690   8.214  0.7449  0.6323 -0.3814
 4254TIP3    H234322   3.776   4.806   8.312 -1.1535 -0.3247  0.7699
 4255TIP3   OH234323   4.522   2.868   1.354 -0.5960 -0.0159  0.5001
 4255TIP3    H134324   4.437   2.826   1.371 -0.5103 -0.8550 -0.9690
 4255TIP3    H234325   4.511   2.911   1.269  0.1963  0.5992  0.6964
 4256TIP3   OH234326   2.947   3.928   7.634 -0.2992  0.4140 -0.0776
 4256TIP3    H134327   2.892   3.885   7.568 -0.0008  1.4572 -1.0231
 4256TIP3    H234328   3.037   3.905   7.610 -0.2518 -0.7141  1.0625
 4257TIP3   OH234329   1.492   6.221   1.427 -0.4679 -0.7887 -0.4080
 4257TIP3    H134330   1.451   6.307   1.436 -1.5984 -1.3736  0.2930
 4257TIP3    H234331   1.550   6.229   1.350 -1.8869  0.0819 -1.4300
 4258TIP3   OH234332   0.449   0.897   7.077  0.5982  0.0882  0.0729
 4258TIP3    H134333   0.421   0.852   7.156  1.9204 -0.5836  0.1870
 4258TIP3    H234334   0.382   0.964   7.062 -0.0504 -0.2516  1.3416
 4259TIP3   OH234335   6.243   5.175   7.562  0.0564  0.5314 -0.2525
 4259TIP3    H134336   6.177   5.234   7.598  0.4272  1.3648 -0.9293
 4259TIP3    H234337   6.196   5.123   7.497  0.0800  1.1759 -0.7870
 4260TIP3   OH234338   1.876   1.569   6.905  0.1564  0.3866 -0.5595
 4260TIP3    H134339   1.881   1.573   7.000  1.2795 -1.1359 -0.5250
 4260TIP3    H234340   1.785   1.546   6.886  0.2783 -0.8148  0.2238
 4261TIP3   OH234341   2.287   5.757   6.760 -0.1322 -0.1674  0.2188
 4261TIP3    H134342   2.244   5.751   6.674  0.8859 -2.4856 -0.2176
 4261TIP3    H234343   2.265   5.674   6.803  2.4341 -0.7285  0.6372
 4262TIP3   OH234344   6.674   3.983   0.775  0.4182  0.4202 -0.2055
 4262TIP3    H134345   6.585   4.018   0.774  0.7785  1.4187  0.8997
 4262TIP3    H234346   6.721   4.036   0.711  0.7915  1.5069  0.9540
 4263TIP3   OH234347   0.611   5.918   1.616  0.0458  0.1948  0.0608
 4263TIP3    H134348   0.645   6.001   1.650 -0.5600  0.1717  0.7624
 4263TIP3    H234349   0.673   5.892   1.548 -0.8577  2.2600 -1.6496
 4264TIP3   OH234350   0.771   1.978   1.375  0.1236 -0.0009 -0.4520
 4264TIP3    H134351   0.860   1.949   1.354 -0.4814 -1.7126 -0.7705
 4264TIP3    H234352   0.745   1.924   1.449 -1.1883 -0.5637 -1.2965
 4265TIP3   OH234353   5.051   6.882   7.715  0.3055  0.1387  0.1894
 4265TIP3    H134354   5.012   6.969   7.720 -3.0752 -1.1740 -0.5499
 4265TIP3    H234355   5.111   6.887   7.641 -1.6131  1.2841 -1.3816
 4266TIP3   OH234356   3.254   3.435   7.322  0.5392  1.5231  0.6284
 4266TIP3    H134357   3.302   3.476   7.394  1.6108  1.9427 -0.2816
 4266TIP3    H234358   3.304   3.356   7.302  0.5989  1.7110 -0.0159
 4267TIP3   OH234359   2.569   1.605   1.398 -0.8836 -0.1125 -0.1839
 4267TIP3    H134360   2.483   1.645   1.386 -0.4756  1.1502  0.8110
 4267TIP3    H234361   2.570   1.531   1.337 -1.9968  0.8959 -1.4889
 4268TIP3   OH234362   1.212   2.578   7.921 -0.0877 -0.3282 -0.3696
 4268TIP3    H134363   1.229   2.521   7.846 -0.9751  0.1723 -0.9798
 4268TIP3    H234364   1.139   2.634   7.892  0.6250  0.9804  0.2660
 4269TIP3   OH234365   4.548   6.263   7.607  0.4309  0.4230  0.0315
 4269TIP3    H134366   4.480   6.308   7.557 -0.0607  1.6921  1.7528
 4269TIP3    H234367   4.602   6.333   7.643  1.2069 -0.4664  0.6641
 4270TIP3   OH234368   5.058   0.255   0.806 -0.3093  0.3889 -0.2211
 4270TIP3    H134369   5.148   0.285   0.794 -0.4866  0.6141 -1.0568
 4270TIP3    H234370   5.025   0.240   0.717 -1.0373  0.1299  0.0812
 4271TIP3   OH234371   2.292   4.898   2.094 -0.4624 -0.1538 -0.2944
 4271TIP3    H134372   2.282   4.972   2.034 -0.6081  0.1187  0.0619
 4271TIP3    H234373   2.385   4.896   2.115 -0.6423  0.7207  0.6814
 4272TIP3   OH234374   6.541   1.559   0.196 -0.0309  0.2617 -0.1594
 4272TIP3    H134375   6.577   1.478   0.232 -0.6365 -0.0020 -0.1443
 4272TIP3    H234376   6.606   1.587   0.131  0.5718  0.2021  0.4051
 4273TIP3   OH234377   3.832   4.157   0.249  0.5624 -0.2322  0.5353
 4273TIP3    H134378   3.756   4.137   0.303  0.4009 -0.0679  0.3717
 4273TIP3    H234379   3.848   4.076   0.200 -1.8754  0.7946 -2.3000
 4274TIP3   OH234380   4.424   2.551   1.742  0.2782 -0.2354  0.3348
 4274TIP3    H134381   4.393   2.545   1.652 -0.3985 -0.3199  0.5679
 4274TIP3    H234382   4.462   2.639   1.749  1.2487 -0.5934 -0.3110
 4275TIP3   OH234383   6.566   0.284   7.061 -0.1935 -0.3933  0.1893
 4275TIP3    H134384   6.649   0.285   7.013 -0.2776 -0.9839  0.0256
 4275TIP3    H234385   6.549   0.376   7.081 -0.2325 -0.1130 -1.0621
 4276TIP3   OH234386   3.460   1.956   8.217  0.6222  0.0703 -0.1179
 4276TIP3    H134387   3.555   1.945   8.221  0.5082 -0.6766  0.8953
 4276TIP3    H234388   3.425   1.891   8.278 -0.4991  0.8839  0.1538
 4277TIP3   OH234389   3.631   3.581   7.314 -0.1451  0.5615 -0.1970
 4277TIP3    H134390   3.646   3.589   7.220  0.5077 -1.6501 -0.3390
 4277TIP3    H234391   3.574   3.655   7.336 -1.7745  0.1512 -2.6608
 4278TIP3   OH234392   6.071   0.018   0.664 -0.8201  0.0683  0.5661
 4278TIP3    H134393   6.012   0.024   0.589  1.7080  1.3000 -1.4528
 4278TIP3    H234394   6.128  -0.056   0.644  0.2045  0.7200  0.9978
 4279TIP3   OH234395   3.928   0.038   2.485  0.1397  0.5210  0.6594
 4279TIP3    H134396   3.838   0.063   2.502 -0.1152  0.4039 -0.4401
 4279TIP3    H234397   3.969   0.032   2.572 -0.6741  1.4165  1.1141
 4280TIP3   OH234398   5.809   3.753   0.592  0.2885  0.4000  0.3662
 4280TIP3    H134399   5.864   3.755   0.670  1.8222  0.0221 -0.6491
 4280TIP3    H234400   5.811   3.662   0.563 -0.1155  0.5654 -0.2068
 4281TIP3   OH234401   1.573   0.267   8.165  0.6227 -0.2757 -0.4955
 4281TIP3    H134402   1.643   0.332   8.175  0.4028 -0.3396  1.8774
 4281TIP3    H234403   1.510   0.288   8.234 -0.6328 -1.5595 -1.2035
 4282TIP3   OH234404   4.324   5.174   1.703 -0.2248  0.9127  1.0979
 4282TIP3    H134405   4.322   5.089   1.747 -0.5801  1.6318  2.5188
 4282TIP3    H234406   4.412   5.180   1.666 -0.1957 -0.0639  1.0025
 4283TIP3   OH234407   0.183   1.505   7.047  0.2963  0.2913 -0.8212
 4283TIP3    H134408   0.106   1.450   7.063  1.3679 -1.4846 -1.4874
 4283TIP3    H234409   0.238   1.492   7.124  0.0624  1.3787 -0.4526
 4284TIP3   OH234410   0.560   6.477   1.206 -0.0187 -0.3990  0.3224
 4284TIP3    H134411   0.571   6.572   1.201  1.0531 -0.6030 -2.5701
 4284TIP3    H234412   0.470   6.462   1.178  0.6177 -0.3350 -1.9448
 4285TIP3   OH234413   4.163   6.353   0.169  0.2880  0.1858  0.1443
 4285TIP3    H134414   4.102   6.291   0.130 -0.0101  0.9749 -0.6699
 4285TIP3    H234415   4.247   6.307   0.171 -0.0691 -0.4627  0.1358
 4286TIP3   OH234416   5.193   1.165   0.644 -0.3960  0.7880 -0.2308
 4286TIP3    H134417   5.245   1.205   0.575 -0.5638  0.6256 -0.4505
 4286TIP3    H234418   5.208   1.221   0.721 -0.0872  0.8743 -0.3548
 4287TIP3   OH234419   5.695   4.110   0.976  0.0075  0.4840  0.1235
 4287TIP3    H134420   5.739   4.138   1.056 -0.2588 -0.2324  0.5290
 4287TIP3    H234421   5.622   4.056   1.006  0.0523  0.0000 -0.6101
 4288TIP3   OH234422   3.550   5.713   6.712 -0.2162 -0.0240 -0.8537
 4288TIP3    H134423   3.523   5.630   6.750  0.5860 -0.2270 -0.7213
 4288TIP3    H234424   3.495   5.778   6.757  1.3180 -0.1408  1.3955
 4289TIP3   OH234425   0.824   4.513   1.515 -0.5607  0.0740 -0.1483
 4289TIP3    H134426   0.816   4.475   1.427 -0.2805 -2.3075  0.7633
 4289TIP3    H234427   0.913   4.491   1.542 -0.2391  1.8203  0.3197
 4290TIP3   OH234428   3.748   1.978   7.184  0.0878  0.0137  0.1551
 4290TIP3    H134429   3.709   1.999   7.100 -0.4500 -1.0788  0.1160
 4290TIP3    H234430   3.681   2.000   7.248 -0.3861 -1.2842  0.1292
 4291TIP3   OH234431   1.009   3.615   6.390 -0.7221 -0.6042 -0.3242
 4291TIP3    H134432   1.076   3.657   6.445 -1.0667  0.3375 -0.6283
 4291TIP3    H234433   1.053   3.601   6.306 -0.2183 -1.9804  0.1250
 4292TIP3   OH234434   3.358   0.243   0.896 -0.3113 -0.5821  0.0196
 4292TIP3    H134435   3.432   0.193   0.863 -1.2539 -2.3885  0.4934
 4292TIP3    H234436   3.344   0.312   0.830  1.7950 -0.1386 -0.0234
 4293TIP3   OH234437   6.451   2.561   1.523  0.2201  0.3834 -0.1349
 4293TIP3    H134438   6.375   2.606   1.561  1.3453  1.8801  0.4044
 4293TIP3    H234439   6.504   2.536   1.599  0.5814 -0.1142 -0.5451
 4294TIP3   OH234440   3.287   2.363   5.914 -0.1153  0.2537 -0.1316
 4294TIP3    H134441   3.247   2.328   5.834 -0.2391  2.4806 -1.0913
 4294TIP3    H234442   3.372   2.321   5.919 -1.5232 -2.8310  0.7069
 4295TIP3   OH234443   4.528   1.118   7.502 -0.1619 -0.9270 -0.5337
 4295TIP3    H134444   4.548   1.093   7.411  0.7433  1.9912 -1.2471
 4295TIP3    H234445   4.444   1.164   7.496  0.3682  0.1326 -0.0901
 4296TIP3   OH234446   5.480   3.407   1.689  0.2882 -0.2345  0.2369
 4296TIP3    H134447   5.460   3.497   1.714  0.3092  0.6453 -2.5891
 4296TIP3    H234448   5.444   3.398   1.601  1.2225 -2.6573  0.0363
 4297TIP3   OH234449   0.102   4.228   0.149 -0.3521 -0.4057  0.2874
 4297TIP3    H134450   0.076   4.162   0.212  1.0777  0.1794  1.5495
 4297TIP3    H234451   0.116   4.180   0.068 -1.2995 -1.3125  0.6395
 4298TIP3   OH234452   4.643   5.875   2.012 -0.6644  0.3663  0.3341
 4298TIP3    H134453   4.640   5.961   1.971 -1.8201  0.2245  0.0783
 4298TIP3    H234454   4.676   5.892   2.100  0.8107  0.8143 -0.2714
 4299TIP3   OH234455   5.659   4.091   7.586 -0.3469  0.3247  0.2336
 4299TIP3    H134456   5.744   4.131   7.570 -1.2116  2.7609  1.2255
 4299TIP3    H234457   5.662   4.063   7.677 -0.3967 -0.1542  0.0898
 4300TIP3   OH234458   2.862   0.285   2.549 -0.0807  0.0663  0.3937
 4300TIP3    H134459   2.948   0.244   2.537 -0.2659  0.2372 -2.0125
 4300TIP3    H234460   2.869   0.331   2.633  1.4161 -1.6837  1.3051
 4301TIP3   OH234461   1.467   6.482   7.586 -0.4532 -0.3107  0.2622
 4301TIP3    H134462   1.470   6.553   7.650  2.1957  1.0074 -1.1324
 4301TIP3    H234463   1.531   6.418   7.618 -2.1433 -1.6968  1.0180
 4302TIP3   OH234464   3.091   1.673   2.396 -0.6174  0.4173 -0.4353
 4302TIP3    H134465   3.160   1.696   2.334  0.9381 -1.5795  0.4429
 4302TIP3    H234466   3.076   1.579   2.382 -1.6061  0.3469  0.8668
 4303TIP3   OH234467   6.029   1.205   0.204 -0.0731  0.4432 -0.7258
 4303TIP3    H134468   5.956   1.233   0.260 -0.3124  1.0676 -1.3332
 4303TIP3    H234469   6.052   1.118   0.236 -1.1902  0.1725 -0.6137
 4304TIP3   OH234470   1.480   2.305   0.293 -0.2228  0.2364 -0.0228
 4304TIP3    H134471   1.447   2.375   0.237 -1.2645  0.2285  0.5470
 4304TIP3    H234472   1.482   2.228   0.236 -0.5301  0.4010 -0.2633
 4305TIP3   OH234473   6.439   6.480   2.437  0.0182  0.0668  0.0352
 4305TIP3    H134474   6.398   6.449   2.518  1.4218 -1.1811  0.3082
 4305TIP3    H234475   6.457   6.573   2.454  0.1710 -0.1388  1.1181
 4306TIP3   OH234476   5.945   3.398   0.094  0.2664 -0.1901 -0.1430
 4306TIP3    H134477   5.901   3.358   0.019 -0.2031 -0.6597  0.3724
 4306TIP3    H234478   5.878   3.398   0.163  0.5312  0.6954  0.1281
 4307TIP3   OH234479   3.520   4.635   0.003  0.2444 -0.1297  0.1873
 4307TIP3    H134480   3.439   4.672  -0.031 -0.2345 -0.1379  1.2786
 4307TIP3    H234481   3.499   4.544   0.023  1.8816 -1.7102 -4.1389
 4308TIP3   OH234482   6.350   6.326   7.832  0.1608  0.3710  0.4130
 4308TIP3    H134483   6.323   6.416   7.813  0.7238  0.4139 -0.2415
 4308TIP3    H234484   6.344   6.318   7.927 -1.2948  0.6394  0.3602
 4309TIP3   OH234485   4.546   4.840   2.111  0.0548  0.1023  0.1857
 4309TIP3    H134486   4.558   4.932   2.086 -2.1147 -0.1249 -2.1025
 4309TIP3    H234487   4.600   4.791   2.050  0.3257 -0.2193  0.6738
 4310TIP3   OH234488   3.762   4.570   6.612  0.5330 -0.0056 -0.1007
 4310TIP3    H134489   3.784   4.628   6.540 -3.1051  1.9929  0.1607
 4310TIP3    H234490   3.735   4.488   6.570 -1.0354  0.9573 -1.0828
 4311TIP3   OH234491   5.120   3.103   7.949 -0.0823  0.1872 -0.3191
 4311TIP3    H134492   5.130   3.045   8.025  4.1648  1.0995  0.0998
 4311TIP3    H234493   5.099   3.044   7.877 -0.6600 -1.1950  0.9115
 4312TIP3   OH234494   0.837   6.168   1.264 -0.0569 -0.2991  0.7531
 4312TIP3    H134495   0.850   6.086   1.216 -0.8379  0.2793 -0.4863
 4312TIP3    H234496   0.925   6.203   1.276  0.2258 -0.9710  0.6780
 4313TIP3   OH234497   0.359   5.593   6.658 -0.1689 -0.1994  0.5257
 4313TIP3    H134498   0.328   5.564   6.744  0.6241 -2.2513  0.1877
 4313TIP3    H234499   0.363   5.512   6.606  0.4946  0.8163 -1.0802
 4314TIP3   OH234500   0.841   0.642   7.556 -0.3732 -0.2494  0.1721
 4314TIP3    H134501   0.865   0.729   7.588 -0.2448 -0.3395  0.3197
 4314TIP3    H234502   0.848   0.586   7.633 -0.7999 -0.3251  0.1611
 4315TIP3   OH234503   6.682   6.817   8.223 -0.3626  0.5497  0.3412
 4315TIP3    H134504   6.683   6.891   8.284  1.2224  0.7216  0.1476
 4315TIP3    H234505   6.591   6.810   8.195 -0.6778  1.9644  0.9232
 4316TIP3   OH234506   5.494   0.357   8.151 -0.1411 -0.6062  0.0801
 4316TIP3    H134507   5.507   0.264   8.132  0.7814 -0.3660 -0.4973
 4316TIP3    H234508   5.559   0.376   8.219 -0.6296 -0.4753  0.5197
 4317TIP3   OH234509   5.576   1.722   0.747 -0.1936  0.1445 -0.7222
 4317TIP3    H134510   5.604   1.649   0.693  0.9253 -0.6916  0.8790
 4317TIP3    H234511   5.531   1.682   0.822  3.4383  0.6263  2.0230
 4318TIP3   OH234512   0.032   1.064   7.713 -1.0968 -0.0411  0.0695
 4318TIP3    H134513  -0.038   1.003   7.734  0.2731 -1.0994  1.8544
 4318TIP3    H234514   0.072   1.085   7.798 -0.8843  2.5943 -0.5797
 4319TIP3   OH234515   2.018   1.016   1.221 -0.2024 -0.2362 -0.2212
 4319TIP3    H134516   2.069   1.076   1.276 -0.4369  0.0012 -0.2621
 4319TIP3    H234517   1.928   1.046   1.229 -0.6396 -1.8205  1.3940
 4320TIP3   OH234518   5.809   1.674   7.563  0.0781 -0.2260  0.2670
 4320TIP3    H134519   5.812   1.769   7.569 -0.0287 -0.3006  1.8375
 4320TIP3    H234520   5.724   1.655   7.523 -0.3038  0.3034  0.8196
 4321TIP3   OH234521   6.859   3.652   1.987  0.0095 -0.1545  0.0926
 4321TIP3    H134522   6.841   3.642   2.080  1.2162  0.0259  0.3575
 4321TIP3    H234523   6.908   3.734   1.980  0.9093 -0.7292 -0.5569
 4322TIP3   OH234524   2.858   6.280   2.247  0.2483  0.3087  0.1995
 4322TIP3    H134525   2.797   6.314   2.181 -1.2543 -0.3304  1.2276
 4322TIP3    H234526   2.854   6.344   2.318  1.5893  0.8019 -0.1455
 4323TIP3   OH234527   2.599   2.760   8.190 -0.8110 -0.0701  0.3178
 4323TIP3    H134528   2.672   2.775   8.250 -0.0158  1.9451 -1.0301
 4323TIP3    H234529   2.628   2.687   8.135 -0.2143  0.0800  0.4210
 4324TIP3   OH234530   3.046   2.485   4.550 -0.2061 -0.6679 -0.8131
 4324TIP3    H134531   3.130   2.517   4.584 -0.1986 -1.4803 -0.0486
 4324TIP3    H234532   3.005   2.441   4.624 -1.1721 -0.5716 -1.2719
 4325TIP3   OH234533   5.081   3.474   2.013  0.0334 -0.4846 -0.2528
 4325TIP3    H134534   5.071   3.530   1.937 -1.6668 -1.1909 -0.5953
 4325TIP3    H234535   5.153   3.415   1.990  1.9713  1.5862  0.1901
 4326TIP3   OH234536   1.938   1.210   0.970 -0.2932 -0.0959  0.4256
 4326TIP3    H134537   1.895   1.285   0.929  0.2316  0.1305  0.2836
 4326TIP3    H234538   1.866   1.156   1.003 -0.6935  0.1112 -0.1033
 4327TIP3   OH234539   5.314   0.200   1.754 -0.3646  0.3173  0.1333
 4327TIP3    H134540   5.356   0.209   1.840 -0.2569  0.6535  0.0487
 4327TIP3    H234541   5.368   0.136   1.708 -1.1185 -0.7696  0.7354
 4328TIP3   OH234542   6.613   0.436   1.961 -0.2414  0.8183  0.5268
 4328TIP3    H134543   6.601   0.349   1.923 -0.3238  1.2877 -0.5340
 4328TIP3    H234544   6.546   0.441   2.029 -1.4352  0.7319 -0.6179
 4329TIP3   OH234545   5.615   6.457   1.881  0.0533 -0.1876 -0.7091
 4329TIP3    H134546   5.598   6.387   1.818 -0.4545 -0.7572  0.0443
 4329TIP3    H234547   5.547   6.446   1.948 -0.0076  0.9966 -0.5499
 4330TIP3   OH234548   5.718   2.377   0.207  0.2687 -0.4488 -0.3870
 4330TIP3    H134549   5.733   2.461   0.252  1.1263  0.2146 -1.8380
 4330TIP3    H234550   5.625   2.360   0.219  0.3617 -0.0671  1.2029
 4331TIP3   OH234551   3.749   2.319   2.682  0.1231 -0.0041  0.0025
 4331TIP3    H134552   3.665   2.335   2.640  0.3659  0.8984 -0.1517
 4331TIP3    H234553   3.764   2.396   2.737  0.4468 -0.5508  0.7009
 4332TIP3   OH234554   0.017   3.952   0.141  0.3898 -0.4618  0.2004
 4332TIP3    H134555  -0.053   3.970   0.079  0.6883  1.6863  0.4114
 4332TIP3    H234556   0.060   3.873   0.107 -0.9368 -0.7169 -0.9630
 4333TIP3   OH234557   3.181   6.360   2.468  0.1959 -0.1020  0.0558
 4333TIP3    H134558   3.199   6.399   2.383 -2.4518  0.1403 -0.4835
 4333TIP3    H234559   3.215   6.424   2.531  1.6366  0.0058 -0.7955
 4334TIP3   OH234560   2.348   2.040   8.019  0.7000 -0.1197  0.0393
 4334TIP3    H134561   2.300   2.048   8.101 -0.9638 -0.3626 -0.8803
 4334TIP3    H234562   2.432   2.083   8.037  0.2061  0.2317  1.7218
 4335TIP3   OH234563   5.419   0.246   2.005  0.0733  0.3686  0.1208
 4335TIP3    H134564   5.359   0.282   2.071  0.0762  0.8340 -0.1249
 4335TIP3    H234565   5.499   0.298   2.015 -0.3149  1.2210 -1.0131
 4336TIP3   OH234566   0.071   0.581   6.304  0.2612 -0.1034 -0.5860
 4336TIP3    H134567   0.086   0.497   6.260  0.9682 -0.1396 -0.2823
 4336TIP3    H234568  -0.025   0.589   6.306  0.1692  0.5370 -3.2971
 4337TIP3   OH234569   4.862   6.294   7.970 -0.7904 -0.3099 -0.0690
 4337TIP3    H134570   4.887   6.354   8.040 -1.3544  0.6896 -0.7058
 4337TIP3    H234571   4.808   6.228   8.013  0.0833 -0.5557  0.6919
 4338TIP3   OH234572   5.946   1.657   2.406 -0.0554 -0.1640 -0.0761
 4338TIP3    H134573   5.959   1.576   2.357  0.3036 -0.4636  0.5058
 4338TIP3    H234574   6.034   1.694   2.413 -0.5208  1.9195 -3.0546
 4339TIP3   OH234575   2.044   0.021   7.718 -0.2642 -0.4239  0.0136
 4339TIP3    H134576   2.088   0.078   7.655 -1.0558  0.6608  0.4092
 4339TIP3    H234577   2.065   0.059   7.803 -0.4299 -1.0068  0.3213
 4340TIP3   OH234578   0.209   3.044   7.340 -0.0442 -0.3177 -0.2792
 4340TIP3    H134579   0.147   3.093   7.286 -0.9146 -0.9942  0.0803
 4340TIP3    H234580   0.248   2.981   7.280  0.3322  0.1333 -0.5155
 4341TIP3   OH234581   0.104   5.549   0.812 -0.8083 -0.1097  0.1917
 4341TIP3    H134582   0.158   5.628   0.821 -1.3419  0.1754  0.9986
 4341TIP3    H234583   0.103   5.532   0.718 -0.5039  0.7162  0.0266
 4342TIP3   OH234584   0.439   4.091   7.862  0.2701  0.2759  0.0301
 4342TIP3    H134585   0.477   4.025   7.921  1.5183  0.0746 -0.9707
 4342TIP3    H234586   0.412   4.162   7.920  0.6595 -0.2947  0.9281
 4343TIP3   OH234587   1.870   3.574   0.259 -0.5493  0.2366 -0.3499
 4343TIP3    H134588   1.811   3.641   0.292 -0.1950  0.6519 -0.5592
 4343TIP3    H234589   1.857   3.499   0.318  1.2233  1.4787  1.7986
 4344TIP3   OH234590   0.024   4.106   6.392 -0.5463 -0.2342 -0.1864
 4344TIP3    H134591   0.081   4.089   6.317 -0.3528  1.2746 -0.4214
 4344TIP3    H234592   0.062   4.183   6.433 -1.2915 -0.3844  0.8262
 4345TIP3   OH234593   3.926   3.656   7.422 -0.1152  0.3575 -0.0931
 4345TIP3    H134594   3.856   3.626   7.365  0.1757  1.8002 -1.2608
 4345TIP3    H234595   3.994   3.589   7.414 -0.9636 -0.5736  0.3171
 4346TIP3   OH234596   0.871   5.861   5.838 -0.6193  0.1396 -0.2814
 4346TIP3    H134597   0.882   5.767   5.848 -1.0221 -0.1190 -1.9188
 4346TIP3    H234598   0.806   5.870   5.768  1.0174  1.6068 -1.7285
 4347TIP3   OH234599   2.834   5.223   0.507 -0.2752  0.2216 -0.5404
 4347TIP3    H134600   2.900   5.268   0.559 -0.7059  1.7830 -1.2759
 4347TIP3    H234601   2.790   5.164   0.568 -1.6822  2.9285  1.2841
 4348TIP3   OH234602   1.006   2.219   2.362 -0.3335 -0.1148 -0.9067
 4348TIP3    H134603   1.100   2.225   2.343 -0.6863 -0.1476 -2.9223
 4348TIP3    H234604   0.973   2.308   2.350 -0.5611 -0.0803 -0.0880
 4349TIP3   OH234605   1.199   4.739   1.543 -0.2072  0.5315 -0.2703
 4349TIP3    H134606   1.274   4.782   1.585 -0.0507 -1.5696  1.7700
 4349TIP3    H234607   1.221   4.739   1.450  1.9173  0.7512  0.1793
 4350TIP3   OH234608   6.088   5.946   1.280  1.1731  0.2069  0.2412
 4350TIP3    H134609   6.110   5.901   1.361  1.3364  1.8295  1.1336
 4350TIP3    H234610   6.159   6.010   1.267  0.4268  0.9312 -0.4104
 4351TIP3   OH234611   2.631   1.390   6.121  0.0950  0.5523  0.3777
 4351TIP3    H134612   2.579   1.465   6.092 -2.2338 -0.8656  0.6343
 4351TIP3    H234613   2.660   1.348   6.040  0.7348  1.2486  0.2302
 4352TIP3   OH234614   5.666   1.033   1.142 -0.6948  0.6892  0.4971
 4352TIP3    H134615   5.690   1.125   1.144  0.2745  0.4426  1.0196
 4352TIP3    H234616   5.703   1.000   1.060 -2.0148  1.0028 -0.2409
 4353TIP3   OH234617   3.631   1.632   8.259  0.1944 -0.0999 -0.1356
 4353TIP3    H134618   3.673   1.684   8.190 -0.4697  0.3913 -0.1771
 4353TIP3    H234619   3.630   1.689   8.336 -2.6575  0.9101 -0.8027
 4354TIP3   OH234620   3.006   2.105   1.625 -0.1058  0.5040 -0.5421
 4354TIP3    H134621   3.090   2.147   1.643 -0.8829  1.5110  0.9964
 4354TIP3    H234622   3.024   2.011   1.634  0.9988  0.6589 -0.9592
 4355TIP3   OH234623   7.006   4.457   2.915 -0.4315  0.0638  0.3379
 4355TIP3    H134624   6.958   4.540   2.922  1.0757  1.0461 -0.2631
 4355TIP3    H234625   7.098   4.484   2.911  0.0895 -1.6566  0.0733
 4356TIP3   OH234626   4.009   5.754   6.896  0.0205  0.4494  0.0303
 4356TIP3    H134627   3.980   5.810   6.967  0.5971  1.5459 -0.5607
 4356TIP3    H234628   4.091   5.794   6.866  1.7816 -2.0526  1.1295
 4357TIP3   OH234629   2.394   0.840   0.089  0.0073 -0.3547  0.3120
 4357TIP3    H134630   2.365   0.918   0.137  3.8434  0.9595  0.7963
 4357TIP3    H234631   2.413   0.871   0.001  2.2724 -0.5006  0.7090
 4358TIP3   OH234632   2.277   6.339   7.891 -0.0490  0.4222 -0.5862
 4358TIP3    H134633   2.367   6.309   7.876  0.2898  1.2451 -0.2067
 4358TIP3    H234634   2.224   6.281   7.835  0.8908  1.3156 -2.5050
 4359TIP3   OH234635   4.543   0.169   7.969 -1.2541  0.2864  0.0700
 4359TIP3    H134636   4.476   0.156   7.901 -0.3076  1.2119 -1.0983
 4359TIP3    H234637   4.494   0.174   8.051 -2.6566  1.2274 -0.7877
 4360TIP3   OH234638   3.561   4.718   6.696  0.3979  0.0257 -0.0050
 4360TIP3    H134639   3.615   4.644   6.667 -0.7876 -0.4056 -1.1606
 4360TIP3    H234640   3.554   4.774   6.619 -1.7318 -0.4982 -0.2481
 4361TIP3   OH234641   6.576   2.175   0.989  0.0842 -0.1278 -0.6976
 4361TIP3    H134642   6.553   2.105   1.050  0.3369 -0.6696 -1.2157
 4361TIP3    H234643   6.515   2.246   1.009 -0.5255 -0.6987 -0.5336
 4362TIP3   OH234644   0.369   3.335   1.086  0.2339  0.4303 -0.0758
 4362TIP3    H134645   0.278   3.361   1.099 -0.2683 -1.0215 -0.4903
 4362TIP3    H234646   0.417   3.380   1.155 -1.0946 -0.3463  1.4035
 4363TIP3   OH234647   1.209   6.049   0.420 -0.0135 -0.1683  0.4531
 4363TIP3    H134648   1.273   5.979   0.432 -0.6998 -1.0911 -1.0745
 4363TIP3    H234649   1.262   6.124   0.393  0.4546 -1.0000 -1.0746
 4364TIP3   OH234650   6.888   0.397   1.633 -0.1758  0.4968  0.2219
 4364TIP3    H134651   6.963   0.456   1.637 -1.1340  1.7373  0.4003
 4364TIP3    H234652   6.828   0.431   1.699 -0.1303 -1.6111  1.4288
 4365TIP3   OH234653   3.961   0.706   8.099 -0.4881  0.2183  0.2412
 4365TIP3    H134654   3.991   0.623   8.136 -0.2066  0.9941  1.8511
 4365TIP3    H234655   3.879   0.724   8.145 -0.5072  0.8539 -0.0408
 4366TIP3   OH234656   4.194   2.876   0.517  0.6823 -0.1870 -0.4059
 4366TIP3    H134657   4.241   2.952   0.552 -0.6552 -0.6725  2.7898
 4366TIP3    H234658   4.227   2.802   0.569 -1.2740 -1.0431 -0.3139
 4367TIP3   OH234659   4.947   4.572   7.745 -0.1268 -0.3351 -0.1210
 4367TIP3    H134660   4.968   4.484   7.776 -1.5712 -0.5786  0.1965
 4367TIP3    H234661   5.009   4.587   7.673  0.5468 -1.3464  0.2275
 4368TIP3   OH234662   2.391   0.894   7.245  0.1002  0.2290 -0.2953
 4368TIP3    H134663   2.352   0.946   7.315 -1.0890 -0.1175 -0.6616
 4368TIP3    H234664   2.328   0.823   7.231 -0.0654  0.6907 -2.1891
 4369TIP3   OH234665   0.858   4.202   0.810 -0.1570  0.1650  0.2729
 4369TIP3    H134666   0.900   4.152   0.881  0.7146  0.2977 -0.1363
 4369TIP3    H234667   0.870   4.294   0.835  0.4539  0.2218 -0.2042
 4370TIP3   OH234668   6.185   5.830   6.484  0.0345  0.0902 -0.4414
 4370TIP3    H134669   6.217   5.766   6.547  3.4152  1.3730 -0.6479
 4370TIP3    H234670   6.133   5.891   6.536 -0.4823 -0.9817  0.3399
 4371TIP3   OH234671   3.629   2.986   0.479 -0.0523  0.1644 -0.5958
 4371TIP3    H134672   3.648   2.902   0.521  0.6037 -0.1838 -1.5688
 4371TIP3    H234673   3.715   3.024   0.462 -0.3501  1.2240  0.1999
 4372TIP3   OH234674   0.537   0.149   0.812  0.0308  0.3643 -0.4781
 4372TIP3    H134675   0.528   0.098   0.732 -0.4061 -0.2210 -0.0606
 4372TIP3    H234676   0.452   0.140   0.856  0.6767 -0.3590  0.6582
 4373TIP3   OH234677   0.538   5.957   1.309  0.1680  0.1135 -0.2231
 4373TIP3    H134678   0.487   5.969   1.229  0.7654 -0.6648 -0.7352
 4373TIP3    H234679   0.611   6.018   1.301  0.6671 -0.5268 -0.6597
 4374TIP3   OH234680   3.169   2.388   7.792  0.2159 -0.0722  0.0239
 4374TIP3    H134681   3.137   2.328   7.858  1.9577 -2.2327 -0.9455
 4374TIP3    H234682   3.257   2.413   7.822  0.3615  0.2515 -0.6336
 4375TIP3   OH234683   5.105   5.300   2.246 -0.0930 -0.0500  0.0128
 4375TIP3    H134684   5.037   5.234   2.259 -0.5960  0.1460 -1.4207
 4375TIP3    H234685   5.156   5.298   2.327 -1.1311 -0.9795  0.6806
 4376TIP3   OH234686   0.967   5.567   1.589  0.1130  0.0404  0.3692
 4376TIP3    H134687   0.968   5.473   1.604  1.0533 -0.0203  0.0095
 4376TIP3    H234688   0.909   5.579   1.514 -0.8250 -0.1327  1.0450
 4377TIP3   OH234689   4.822   0.844   0.772 -0.5688 -0.6477  0.1661
 4377TIP3    H134690   4.748   0.809   0.822  0.4780 -1.7360  0.9855
 4377TIP3    H234691   4.899   0.802   0.809  0.5967  1.2322  0.0175
 4378TIP3   OH234692   4.787   3.126   7.305 -0.0185 -0.4326  0.0811
 4378TIP3    H134693   4.720   3.113   7.238 -0.0518 -0.1763  0.0643
 4378TIP3    H234694   4.772   3.214   7.338  0.2483 -0.4081  0.1450
 4379TIP3   OH234695   1.808   1.757   0.103  0.6352  0.3970 -0.4608
 4379TIP3    H134696   1.856   1.836   0.125  0.9499 -0.2299  1.2618
 4379TIP3    H234697   1.821   1.699   0.178 -4.4767  0.9447  1.2390
 4380TIP3   OH234698   3.816   0.306   0.940  0.1586 -0.1056 -0.3678
 4380TIP3    H134699   3.902   0.275   0.967  0.0831  0.6591  0.8980
 4380TIP3    H234700   3.756   0.270   1.006 -0.3016  0.4020 -0.4984
 4381TIP3   OH234701   5.659   6.321   1.249  0.4209  0.0540 -0.0287
 4381TIP3    H134702   5.674   6.406   1.206  1.6070  0.7360  1.6252
 4381TIP3    H234703   5.733   6.267   1.220  0.5749  0.1339  0.2100
 4382TIP3   OH234704   5.595   4.841   7.335 -0.9862 -0.0222 -0.3409
 4382TIP3    H134705   5.642   4.924   7.325 -1.9969  1.1648  3.1339
 4382TIP3    H234706   5.503   4.863   7.319 -1.0923 -0.8188 -0.8420
 4383TIP3   OH234707   1.099   4.329   7.211  0.4922  0.0628 -0.3718
 4383TIP3    H134708   1.173   4.277   7.180  0.9372  0.0637  0.6588
 4383TIP3    H234709   1.139   4.405   7.253 -0.1121  0.3635 -0.3259
 4384TIP3   OH234710   5.050   3.514   0.072  0.4030 -0.4220 -0.5311
 4384TIP3    H134711   5.051   3.514   0.168 -1.6253 -0.9236 -0.4463
 4384TIP3    H234712   5.139   3.537   0.046  1.5116 -2.1641  1.4613
 4385TIP3   OH234713   5.642   0.440   1.956  0.2258 -0.0266  0.2039
 4385TIP3    H134714   5.586   0.461   1.881 -0.0149 -0.1109  0.3596
 4385TIP3    H234715   5.669   0.526   1.990 -1.2421  0.0798  1.2022
 4386TIP3   OH234716   0.469   2.308   7.672  0.4271  0.3781  0.6548
 4386TIP3    H134717   0.501   2.279   7.758 -0.1947 -0.0572  0.7488
 4386TIP3    H234718   0.478   2.231   7.616  0.9966  0.7147  0.2821
 4387TIP3   OH234719   2.650   2.213   0.011  0.0616  0.1341 -0.2825
 4387TIP3    H134720   2.595   2.249   0.080 -2.1212 -1.7942 -0.8973
 4387TIP3    H234721   2.677   2.127   0.045  0.5871 -0.0125 -1.0383
 4388TIP3   OH234722   5.032   0.845   2.354  0.3472 -0.1402 -1.0161
 4388TIP3    H134723   4.985   0.861   2.272 -0.5750  0.1330 -0.4485
 4388TIP3    H234724   4.965   0.816   2.415  1.0249 -0.3249 -0.3408
 4389TIP3   OH234725   3.298   2.454   6.584  0.1613  0.0951  0.3535
 4389TIP3    H134726   3.276   2.477   6.493 -2.3079  1.1297  1.1329
 4389TIP3    H234727   3.238   2.383   6.606  0.7878 -0.1962  1.1786
 4390TIP3   OH234728   3.539   5.499   1.929 -0.7164  0.3866 -1.0111
 4390TIP3    H134729   3.467   5.466   1.876 -0.5144 -0.2932 -0.8690
 4390TIP3    H234730   3.609   5.434   1.918 -0.5087  0.4814 -0.2888
 4391TIP3   OH234731   6.604   2.681   7.449  0.4467 -0.1441  0.0032
 4391TIP3    H134732   6.553   2.634   7.384  2.3460 -1.2867 -0.7173
 4391TIP3    H234733   6.549   2.756   7.472 -0.6961 -0.2401 -2.1697
 4392TIP3   OH234734   3.762   1.288   6.296 -0.2783  0.2185 -0.4151
 4392TIP3    H134735   3.693   1.235   6.254 -1.6539  1.4599  0.1815
 4392TIP3    H234736   3.769   1.252   6.385 -1.1119  0.9049 -0.0559
 4393TIP3   OH234737   3.348   3.526   0.896  0.2481 -0.0234 -0.4901
 4393TIP3    H134738   3.330   3.432   0.899  1.2475 -0.2518 -1.1359
 4393TIP3    H234739   3.379   3.542   0.807  0.0014  0.9412 -0.4160
 4394TIP3   OH234740   0.175   0.740   0.930 -0.1817  0.1916 -0.0308
 4394TIP3    H134741   0.243   0.680   0.958 -0.1820 -0.0569 -0.5558
 4394TIP3    H234742   0.123   0.690   0.867 -1.0804  0.2459  0.6323
 4395TIP3   OH234743   5.728   4.597   1.249  0.2327 -0.0273  0.2936
 4395TIP3    H134744   5.704   4.507   1.227  1.4276 -0.1013 -0.8234
 4395TIP3    H234745   5.700   4.608   1.340 -0.3169 -1.3779  0.3087
 4396TIP3   OH234746   3.412   0.903   0.333 -0.0100 -0.0504 -0.1250
 4396TIP3    H134747   3.321   0.879   0.312 -0.2672 -0.5494  1.4343
 4396TIP3    H234748   3.406   0.992   0.367 -0.1338 -0.5752  1.2820
 4397TIP3   OH234749   1.512   4.680   8.020 -0.0520 -0.1236  0.1413
 4397TIP3    H134750   1.547   4.729   7.946  0.1045 -0.3417  0.0703
 4397TIP3    H234751   1.421   4.662   7.996  0.4220 -1.5551 -0.7134
 4398TIP3   OH234752   3.723   4.242   8.303  0.3883 -0.2955  0.0947
 4398TIP3    H134753   3.736   4.336   8.320 -2.0002  0.2608 -0.7812
 4398TIP3    H234754   3.742   4.200   8.386 -1.5461  1.3260  1.4609
 4399TIP3   OH234755   4.458   2.234   1.017 -0.4058 -0.3353  0.8251
 4399TIP3    H134756   4.391   2.230   0.949 -0.0121 -0.3027  0.4281
 4399TIP3    H234757   4.451   2.322   1.053  0.1541  0.0554  0.0176
 4400TIP3   OH234758   1.354   3.812   7.702 -0.3806  0.5003  0.0997
 4400TIP3    H134759   1.428   3.774   7.654 -0.7717 -1.0988  0.6876
 4400TIP3    H234760   1.328   3.743   7.763 -1.2319  1.7084  1.1464
 4401TIP3   OH234761   1.677   5.260   6.410  0.1325  0.1115  0.1066
 4401TIP3    H134762   1.635   5.190   6.361  1.2276  0.6323 -1.6704
 4401TIP3    H234763   1.608   5.294   6.468 -1.3098 -0.3556 -1.2725
 4402TIP3   OH234764   0.375   0.330   0.576  0.0618  0.2454 -0.4011
 4402TIP3    H134765   0.436   0.358   0.645 -0.7995  1.2276 -0.0096
 4402TIP3    H234766   0.431   0.293   0.508  1.0352  0.4584  0.2679
 4403TIP3   OH234767   1.475   3.135   6.444  0.3470 -0.3517  0.0736
 4403TIP3    H134768   1.479   3.211   6.385 -1.2836 -1.2718 -1.3077
 4403TIP3    H234769   1.394   3.091   6.420  1.6568 -3.0230  0.2425
 4404TIP3   OH234770   5.337   5.211   7.392 -0.1453  0.2585  0.0886
 4404TIP3    H134771   5.352   5.205   7.486 -1.4770 -0.3314  0.2863
 4404TIP3    H234772   5.376   5.294   7.366 -0.7881  0.9915  1.3875
 4405TIP3   OH234773   3.193   2.004   2.319 -0.0530  0.1985  0.1590
 4405TIP3    H134774   3.167   2.008   2.411  0.7479 -0.4463  0.4314
 4405TIP3    H234775   3.251   1.928   2.314  1.1997  1.1609 -0.5433
 4406TIP3   OH234776   4.046   1.481   7.378  0.1351  0.3807  0.3697
 4406TIP3    H134777   4.012   1.570   7.364 -0.4278  0.1088  0.0042
 4406TIP3    H234778   3.978   1.423   7.344  2.1644 -0.1684 -3.2536
 4407TIP3   OH234779   3.075   0.892   6.654  0.8025  0.0228  0.2560
 4407TIP3    H134780   3.064   0.807   6.697 -0.0983 -0.2145 -0.4028
 4407TIP3    H234781   3.135   0.874   6.582 -0.3305 -0.3540 -0.6274
 4408TIP3   OH234782   5.581   3.924   0.617  0.2327  1.0760 -0.0088
 4408TIP3    H134783   5.655   3.873   0.584  1.1407  1.4678  1.3361
 4408TIP3    H234784   5.617   4.012   0.632 -0.4330  1.2050  0.9133
 4409TIP3   OH234785   3.545   2.386   7.057  0.6612 -0.1018  0.3110
 4409TIP3    H134786   3.628   2.368   7.101  0.5627 -1.9520 -0.1896
 4409TIP3    H234787   3.483   2.323   7.094 -0.5515  1.2150  0.6491
 4410TIP3   OH234788   2.795   4.892   0.268 -0.3410 -0.1499 -0.2281
 4410TIP3    H134789   2.735   4.830   0.310 -1.0986  0.9071  0.3063
 4410TIP3    H234790   2.849   4.838   0.211 -0.2778 -1.4351  0.9948
 4411TIP3   OH234791   2.740   1.258   5.922 -0.0157 -0.3636  0.9536
 4411TIP3    H134792   2.812   1.266   5.860  0.5458  1.1267  1.7402
 4411TIP3    H234793   2.706   1.170   5.908 -0.0722 -0.0096 -1.6118
 4412TIP3   OH234794   1.636   6.982   1.162 -0.2898  0.1322  1.0552
 4412TIP3    H134795   1.729   7.006   1.159 -0.4026  0.4931  0.1008
 4412TIP3    H234796   1.635   6.888   1.148 -0.1384  0.3249 -0.3717
 4413TIP3   OH234797   1.502   6.873   8.193  0.1117 -0.2780  0.2758
 4413TIP3    H134798   1.525   6.852   8.103  0.6368  0.4259  0.2437
 4413TIP3    H234799   1.409   6.896   8.189 -0.1171 -1.1706  0.0815
 4414TIP3   OH234800   1.247   5.611   1.512 -0.4415 -0.0683  0.2755
 4414TIP3    H134801   1.273   5.522   1.487 -0.8939  0.2388 -1.4216
 4414TIP3    H234802   1.154   5.604   1.530 -0.0689 -0.3436  2.3326
 4415TIP3   OH234803   2.675   1.604   0.435  0.2848 -0.4529 -0.6100
 4415TIP3    H134804   2.746   1.609   0.499 -0.8740 -0.1350  0.6941
 4415TIP3    H234805   2.653   1.695   0.416 -1.2596 -0.4871  0.7579
 4416TIP3   OH234806   4.813   0.590   1.945  0.1475 -0.1714  0.1420
 4416TIP3    H134807   4.905   0.613   1.955  0.5504 -0.8489 -1.6374
 4416TIP3    H234808   4.766   0.668   1.974  1.3196  0.6645 -0.1113
 4417TIP3   OH234809   3.396   0.276   2.656 -0.0507 -0.0573 -0.2558
 4417TIP3    H134810   3.465   0.313   2.601  1.4905  0.4760  1.9183
 4417TIP3    H234811   3.323   0.260   2.595  1.2794  1.1541 -2.2932
 4418TIP3   OH234812   5.390   6.885   6.832  0.3369  0.1411 -0.1422
 4418TIP3    H134813   5.333   6.828   6.780  0.2659 -0.5724  0.6922
 4418TIP3    H234814   5.337   6.963   6.848 -0.7408 -0.8397  1.2997
 4419TIP3   OH234815   6.262   0.342   1.978  0.6516 -0.2775 -0.3341
 4419TIP3    H134816   6.284   0.297   2.060 -0.8775 -1.5314 -0.5650
 4419TIP3    H234817   6.249   0.271   1.915  0.0527  0.5907 -1.2066
 4420TIP3   OH234818   4.665   4.489   1.475  0.0543 -0.1166 -0.1813
 4420TIP3    H134819   4.574   4.512   1.457  0.0817 -0.8262 -1.3796
 4420TIP3    H234820   4.672   4.488   1.570 -1.0938  0.2915 -0.0806
 4421TIP3   OH234821   3.738   4.216   7.017  0.5164 -0.3816 -0.3757
 4421TIP3    H134822   3.827   4.229   6.983  0.0952 -0.2400 -1.4657
 4421TIP3    H234823   3.749   4.212   7.112  1.4571  1.6396 -0.3386
 4422TIP3   OH234824   4.615   4.743   0.034 -0.1307  0.0615 -0.7950
 4422TIP3    H134825   4.585   4.779  -0.049  0.4181 -0.6392 -1.3066
 4422TIP3    H234826   4.599   4.649   0.027 -2.5030  0.2407  0.9191
 4423TIP3   OH234827   3.542   4.938   0.563 -0.3760 -0.3230  0.3925
 4423TIP3    H134828   3.556   5.031   0.577  1.2997 -0.3123 -0.9382
 4423TIP3    H234829   3.481   4.912   0.631 -2.4431  2.1280 -0.3574
 4424TIP3   OH234830   5.910   0.482   7.219 -0.3731  0.1297  0.2561
 4424TIP3    H134831   5.960   0.564   7.223 -0.9133  0.4879 -0.2075
 4424TIP3    H234832   5.851   0.486   7.295  2.0674 -1.5003  2.3980
 4425TIP3   OH234833   1.844   5.783   0.273  0.5296 -0.0084  0.3352
 4425TIP3    H134834   1.928   5.818   0.305 -0.2478  2.4402 -0.0796
 4425TIP3    H234835   1.794   5.861   0.248 -1.2023 -1.4985 -1.1265
 4426TIP3   OH234836   1.427   4.827   6.453  0.0344  0.2943  0.1937
 4426TIP3    H134837   1.336   4.795   6.449  0.1233  0.1363 -0.7075
 4426TIP3    H234838   1.480   4.748   6.444  0.2533  0.5851 -1.2715
 4427TIP3   OH234839   0.067   2.919   6.920  0.0413  0.0195  0.1315
 4427TIP3    H134840   0.097   2.869   6.844 -2.6215 -0.2400 -0.8444
 4427TIP3    H234841   0.075   2.858   6.993  0.1093 -0.6518 -0.4233
 4428TIP3   OH234842   3.881   6.745   2.333  0.2218 -0.4593 -0.8601
 4428TIP3    H134843   3.944   6.680   2.366 -1.3381 -2.5393 -1.7489
 4428TIP3    H234844   3.821   6.760   2.406  1.5180  1.3255 -0.1000
 4429TIP3   OH234845   2.772   5.069   7.697 -0.0251 -0.4285  0.0470
 4429TIP3    H134846   2.747   5.032   7.782  0.9352  0.3524  0.6900
 4429TIP3    H234847   2.867   5.079   7.702 -0.0391  0.2566 -0.8646
 4430TIP3   OH234848   5.843   1.790   7.185 -0.5118  0.0822  0.2854
 4430TIP3    H134849   5.898   1.867   7.168  0.2607 -0.4875  0.1327
 4430TIP3    H234850   5.802   1.771   7.101 -0.1484 -0.0906  0.1434
 4431TIP3   OH234851   4.127   6.504   1.586 -0.3477  0.3863 -0.7423
 4431TIP3    H134852   4.216   6.495   1.621 -1.0767 -0.3014  1.0470
 4431TIP3    H234853   4.129   6.457   1.502  0.4699 -1.4546  0.2449
 4432TIP3   OH234854   0.222   1.009   0.460 -0.0675  0.3664  0.2284
 4432TIP3    H134855   0.146   1.055   0.496  0.2272  1.2878 -0.2949
 4432TIP3    H234856   0.238   1.052   0.376  1.3066  0.4798  0.5337
 4433TIP3   OH234857   1.034   1.355   0.660  0.2196 -0.2363 -0.1418
 4433TIP3    H134858   1.038   1.363   0.565 -0.6782 -0.2219 -0.1857
 4433TIP3    H234859   0.952   1.309   0.677  0.8089 -1.0416  0.5867
 4434TIP3   OH234860   0.505   4.493   0.408  0.3646  0.0111 -0.2816
 4434TIP3    H134861   0.440   4.435   0.368  1.0337  0.5785 -2.2922
 4434TIP3    H234862   0.452   4.560   0.451 -0.4341  0.2289 -1.5359
 4435TIP3   OH234863   6.232   5.858   7.423 -0.0023 -0.0084 -0.0402
 4435TIP3    H134864   6.326   5.849   7.440 -0.2130 -1.3140  0.5984
 4435TIP3    H234865   6.197   5.770   7.437 -1.4134  0.5714  0.2384
 4436TIP3   OH234866   3.854   0.776   7.436  0.7606  0.4421 -0.1279
 4436TIP3    H134867   3.936   0.805   7.475  0.5741 -0.3305  0.8941
 4436TIP3    H234868   3.787   0.797   7.502  0.4028 -0.6581 -0.1100
 4437TIP3   OH234869   3.697   5.378   0.985 -0.0682 -0.0676  0.2422
 4437TIP3    H134870   3.758   5.449   1.008  0.1707  0.0143 -0.6163
 4437TIP3    H234871   3.631   5.420   0.930 -0.0103 -0.4773 -0.1440
 4438TIP3   OH234872   3.293   0.906   1.359 -0.2582 -0.5424 -0.2170
 4438TIP3    H134873   3.276   0.818   1.392 -3.0167 -0.4574 -1.1443
 4438TIP3    H234874   3.388   0.912   1.354  0.0708 -2.6621  1.9146
 4439TIP3   OH234875   0.498   4.564   7.909 -0.1336 -0.0207 -0.4962
 4439TIP3    H134876   0.423   4.518   7.947  0.9904 -1.6317 -0.0847
 4439TIP3    H234877   0.461   4.626   7.847 -1.7675 -1.1404 -0.6800
 4440TIP3   OH234878   5.141   6.725   7.268 -0.0464 -0.7564  0.2514
 4440TIP3    H134879   5.090   6.649   7.295 -1.3762 -0.4652 -1.3044
 4440TIP3    H234880   5.223   6.688   7.235 -0.6594 -1.5272 -0.4397
 4441TIP3   OH234881   2.838   5.573   7.979  0.3744  0.2043 -0.1409
 4441TIP3    H134882   2.882   5.493   8.009  0.1419 -0.3312 -1.1614
 4441TIP3    H234883   2.856   5.576   7.885  0.4338  1.4051 -0.1027
 4442TIP3   OH234884   3.738   6.132   2.725 -0.3929  0.0383  0.5535
 4442TIP3    H134885   3.718   6.039   2.719 -0.6701  0.1485 -0.4158
 4442TIP3    H234886   3.666   6.168   2.778 -2.1555  0.2077 -1.7893
 4443TIP3   OH234887   3.590   0.553   7.855 -0.1460 -0.5475 -0.2917
 4443TIP3    H134888   3.627   0.577   7.940 -0.5510  1.2639 -0.5865
 4443TIP3    H234889   3.524   0.486   7.876  0.0129 -0.3943  0.7750
 4444TIP3   OH234890   4.223   2.120   1.151 -0.4944 -0.2859  1.1550
 4444TIP3    H134891   4.299   2.142   1.097 -1.0725  0.2917  0.5528
 4444TIP3    H234892   4.151   2.169   1.112 -0.6822  1.2804  3.2937
 4445TIP3   OH234893   2.642   0.723   6.568 -0.6363 -0.3965 -0.0793
 4445TIP3    H134894   2.562   0.772   6.585  0.0403  0.8265 -0.3195
 4445TIP3    H234895   2.655   0.670   6.646 -0.0805  1.6516  1.2972
 4446TIP3   OH234896   6.696   0.886   1.437 -0.1759 -0.1583 -0.0850
 4446TIP3    H134897   6.694   0.815   1.501 -1.5079 -0.9115 -0.9137
 4446TIP3    H234898   6.724   0.844   1.356  1.1786  0.7210 -0.0995
 4447TIP3   OH234899   0.800   0.191   7.138  0.1345  0.0412  0.4920
 4447TIP3    H134900   0.732   0.253   7.166  1.1206  1.4355 -0.0553
 4447TIP3    H234901   0.779   0.172   7.047  1.4170  1.9170 -0.2684
 4448TIP3   OH234902   5.481   3.018   6.890  0.6526  0.0234 -0.0688
 4448TIP3    H134903   5.494   2.954   6.819 -1.1737  0.0457 -0.4774
 4448TIP3    H234904   5.568   3.053   6.907  1.5235 -1.7767 -0.6011
 4449TIP3   OH234905   6.326   1.451   0.414 -0.2206 -0.1210 -0.1398
 4449TIP3    H134906   6.374   1.532   0.429  1.2126 -0.6829 -1.4644
 4449TIP3    H234907   6.238   1.469   0.447  0.7275  1.1029  1.9564
 4450TIP3   OH234908   4.396   0.219   0.840  0.2394  1.0830  0.1566
 4450TIP3    H134909   4.408   0.154   0.908  0.0671 -0.2029 -1.0114
 4450TIP3    H234910   4.302   0.219   0.823  0.4589  0.2538 -1.1538
 4451TIP3   OH234911   4.844   1.811   6.703  0.0817 -0.0603 -0.4541
 4451TIP3    H134912   4.762   1.847   6.669 -0.6769  1.1003  2.3147
 4451TIP3    H234913   4.822   1.721   6.727 -0.7324  0.5364  1.1797
 4452TIP3   OH234914   4.641   3.102   1.489 -0.1906  0.4410  0.0788
 4452TIP3    H134915   4.614   3.144   1.571  1.0233  0.1614  0.6353
 4452TIP3    H234916   4.558   3.080   1.446 -0.8853 -0.3027  1.6774
 4453TIP3   OH234917   6.139   6.924   1.760 -0.4193 -0.0472  0.0939
 4453TIP3    H134918   6.063   6.939   1.816  1.6394 -0.1839  3.1957
 4453TIP3    H234919   6.204   6.988   1.791  0.6779  0.3087 -2.6658
 4454TIP3   OH234920   1.576   1.577   7.779 -0.3988 -0.6729  0.2866
 4454TIP3    H134921   1.578   1.574   7.683 -2.3747 -1.0093  0.2056
 4454TIP3    H234922   1.641   1.643   7.803  0.4274 -0.8783 -1.2553
 4455TIP3   OH234923   4.009   2.198   0.777 -0.2113 -0.1934  0.4148
 4455TIP3    H134924   3.956   2.270   0.809  1.5108  0.9125  0.9341
 4455TIP3    H234925   3.977   2.182   0.688 -0.6485  1.2043  0.2944
 4456TIP3   OH234926   6.024   0.579   6.811 -0.0181 -0.0425  0.4844
 4456TIP3    H134927   5.967   0.552   6.882 -2.2981 -1.4137 -1.7009
 4456TIP3    H234928   6.090   0.510   6.806 -1.5540 -1.5245 -0.4623
 4457TIP3   OH234929   6.070   1.126   1.050  0.5021  0.2239  0.0942
 4457TIP3    H134930   6.137   1.137   0.982  2.5821 -1.2330  1.7804
 4457TIP3    H234931   6.104   1.055   1.105 -1.1854  1.2205  2.5412
 4458TIP3   OH234932   1.962   5.589   7.543 -0.1986 -0.3438 -0.2973
 4458TIP3    H134933   1.952   5.505   7.588 -0.2928  0.2384  0.8074
 4458TIP3    H234934   2.044   5.625   7.575 -0.1810  0.0164 -0.7254
 4459TIP3   OH234935   0.275   0.594   7.496 -0.4122  0.0703  0.0285
 4459TIP3    H134936   0.360   0.565   7.528 -1.2110 -0.5529  1.6649
 4459TIP3    H234937   0.231   0.513   7.468 -1.4720  0.0194  1.7309
 4460TIP3   OH234938   3.276   2.100   6.416  0.2908  0.0418  0.4521
 4460TIP3    H134939   3.345   2.127   6.477 -1.0033 -1.0356  2.5252
 4460TIP3    H234940   3.249   2.180   6.372  1.6567  0.7677  0.9040
 4461TIP3   OH234941   0.294   0.956   1.090  0.6382  0.2441  0.2221
 4461TIP3    H134942   0.309   0.978   1.182  0.2826 -0.4491  0.4513
 4461TIP3    H234943   0.381   0.936   1.056  0.7591  0.4219  0.4233
 4462TIP3   OH234944   4.606   5.376   6.211 -0.7153  0.6711  0.0994
 4462TIP3    H134945   4.529   5.325   6.235 -0.9975  1.8567  1.8633
 4462TIP3    H234946   4.648   5.398   6.294  0.7567  1.2326 -0.7506
 4463TIP3   OH234947   5.556   2.868   1.083  0.1371  0.1539  0.0297
 4463TIP3    H134948   5.620   2.797   1.088 -1.1196 -0.9255  2.3733
 4463TIP3    H234949   5.485   2.833   1.031  0.4519  0.5260 -0.6628
 4464TIP3   OH234950   4.357   2.074   7.045 -0.2173  0.2950  0.2196
 4464TIP3    H134951   4.322   2.001   6.994 -1.0136  0.3577  0.6667
 4464TIP3    H234952   4.373   2.143   6.980 -1.4232  0.4493  0.0774
 4465TIP3   OH234953   2.271   6.577   2.277  0.5428 -0.3606 -0.4501
 4465TIP3    H134954   2.213   6.520   2.328 -0.9167  0.3207 -1.3024
 4465TIP3    H234955   2.240   6.666   2.296  1.5164  0.0411 -0.6880
 4466TIP3   OH234956   3.223   1.320   0.929  0.4040  0.3657  0.3772
 4466TIP3    H134957   3.182   1.233   0.925 -3.0133  1.8669 -1.2137
 4466TIP3    H234958   3.234   1.336   1.022 -0.7960 -0.9867  0.8005
 4467TIP3   OH234959   2.470   6.107   8.207 -0.3538  0.2569 -0.0142
 4467TIP3    H134960   2.396   6.135   8.261 -0.3868  2.6598 -1.1651
 4467TIP3    H234961   2.519   6.187   8.191  2.2176 -1.1871  0.2315
 4468TIP3   OH234962   3.345   0.442   0.710 -0.9362 -1.2040 -0.6444
 4468TIP3    H134963   3.280   0.430   0.641 -0.8086  0.4700 -1.1111
 4468TIP3    H234964   3.304   0.504   0.771  0.8768  1.5869 -2.0122
 4469TIP3   OH234965   3.897   3.665   1.081 -0.1037  0.3168 -0.0746
 4469TIP3    H134966   3.927   3.575   1.087  1.1770  0.5799 -1.7036
 4469TIP3    H234967   3.975   3.718   1.099 -0.8520  1.1388  0.9555
 4470TIP3   OH234968   6.198   6.240   6.870  0.0799  0.2756 -0.3106
 4470TIP3    H134969   6.177   6.333   6.859 -1.0065  0.1314  0.3995
 4470TIP3    H234970   6.259   6.221   6.799 -0.2319  1.3588 -0.8952
 4471TIP3   OH234971   6.663   0.662   2.340 -0.0164  0.8572  0.1982
 4471TIP3    H134972   6.569   0.644   2.345  0.1258 -0.3213 -0.8218
 4471TIP3    H234973   6.680   0.680   2.248  0.8265  0.6623  0.3040
 4472TIP3   OH234974   2.978   3.816   8.026  0.4362  0.6480  0.7639
 4472TIP3    H134975   3.071   3.838   8.024  0.3537  1.3048  2.6265
 4472TIP3    H234976   2.938   3.880   7.967  0.9870  1.3930  1.1807
 4473TIP3   OH234977   2.459   6.422   0.264  0.4446  0.1895  0.1931
 4473TIP3    H134978   2.446   6.392   0.354  1.9028 -0.9947  0.0476
 4473TIP3    H234979   2.553   6.440   0.258 -0.0278  2.8996 -0.3465
 4474TIP3   OH234980   1.222   6.432   6.544  0.3788  0.2105 -0.1538
 4474TIP3    H134981   1.259   6.482   6.471 -1.3889  1.3234 -0.3299
 4474TIP3    H234982   1.200   6.347   6.506 -0.7282  0.8528 -1.0096
 4475TIP3   OH234983   2.586   3.465   6.523 -0.0442  0.0372  0.6788
 4475TIP3    H134984   2.514   3.412   6.555 -1.6563  1.9315  0.4045
 4475TIP3    H234985   2.602   3.529   6.593  1.0657 -0.0543  0.5336
 4476TIP3   OH234986   6.786   2.440   0.199 -0.3762 -0.3884 -0.0728
 4476TIP3    H134987   6.834   2.358   0.212 -1.0479 -0.7539  0.1283
 4476TIP3    H234988   6.850   2.508   0.217  0.3871 -0.8537 -0.9086
 4477TIP3   OH234989   2.734   2.144   1.583 -0.6511  0.2892 -0.5949
 4477TIP3    H134990   2.696   2.075   1.637 -0.2305  0.0498 -0.6039
 4477TIP3    H234991   2.822   2.114   1.564  0.0444  1.4504  0.5580
 4478TIP3   OH234992   3.529   4.423   7.169 -0.1860  0.5698 -0.1548
 4478TIP3    H134993   3.567   4.445   7.084 -0.9375  0.0159 -0.6623
 4478TIP3    H234994   3.602   4.427   7.231  0.3000  1.3413 -0.7604
 4479TIP3   OH234995   0.289   1.201   2.190 -0.2398  0.1748 -0.7984
 4479TIP3    H134996   0.363   1.260   2.199 -0.4822  0.3830 -0.0627
 4479TIP3    H234997   0.304   1.134   2.257 -0.0836 -0.4676 -1.4714
 4480TIP3   OH234998   1.180   1.901   0.167 -0.0423  0.0319  0.0125
 4480TIP3    H134999   1.178   1.827   0.227 -0.8538  0.3916  0.4461
 4480TIP3    H235000   1.088   1.924   0.154  0.2134  1.4117  0.4547
 4481TIP3   OH235001   4.565   4.826   7.765  0.1767 -0.3035 -0.4228
 4481TIP3    H135002   4.501   4.834   7.836 -0.5230 -0.3199 -1.0293
 4481TIP3    H235003   4.605   4.740   7.778  1.7749  0.6259  1.3130
 4482TIP3   OH235004   3.972   4.004   1.368  0.2570  0.5210 -0.7978
 4482TIP3    H135005   4.043   3.984   1.306  2.8408  0.1257  2.0376
 4482TIP3    H235006   3.907   3.936   1.353  1.1002  0.0202 -2.5450
 4483TIP3   OH235007   2.840   3.673   2.464  0.1731  0.0399 -0.0225
 4483TIP3    H135008   2.900   3.721   2.521  0.2499  1.0874 -0.9484
 4483TIP3    H235009   2.775   3.738   2.437 -0.6469 -0.7700 -0.0503
 4484TIP3   OH235010   0.038   3.443   6.746  0.0480  0.3653  0.1135
 4484TIP3    H135011  -0.051   3.472   6.725  0.3075  2.3180  1.4484
 4484TIP3    H235012   0.025   3.368   6.804 -0.7901  1.4767  1.4283
 4485TIP3   OH235013   6.532   2.705   7.013  0.4881 -0.3139 -0.6480
 4485TIP3    H135014   6.623   2.730   6.995  1.2042 -2.4803 -0.2575
 4485TIP3    H235015   6.496   2.682   6.928  1.0967 -1.8376 -0.5177
 4486TIP3   OH235016   5.636   2.604   8.255  0.2542  0.2583  0.5985
 4486TIP3    H135017   5.578   2.622   8.329  1.0861  0.7998  1.1401
 4486TIP3    H235018   5.616   2.514   8.230 -1.5131  0.7409  0.1162
 4487TIP3   OH235019   2.939   0.301   0.002  0.0171  0.1894  0.0465
 4487TIP3    H135020   2.920   0.207   0.007 -0.2174  0.2406  0.1220
 4487TIP3    H235021   2.855   0.343   0.020 -0.2353  0.4172 -1.5456
 4488TIP3   OH235022   5.850   6.135   6.965 -0.1028 -0.1237  0.2522
 4488TIP3    H135023   5.841   6.230   6.954  2.0564 -0.0198 -1.2495
 4488TIP3    H235024   5.813   6.099   6.884  0.9156 -0.4197 -0.0874
 4489TIP3   OH235025   0.398   0.200   2.307  0.0194 -0.3076  0.1874
 4489TIP3    H135026   0.486   0.196   2.269 -0.1182 -1.6587 -0.0440
 4489TIP3    H235027   0.397   0.282   2.357  1.0210  0.2786 -0.7253
 4490TIP3   OH235028   5.286   1.033   7.402 -0.2373 -0.1586 -0.1617
 4490TIP3    H135029   5.370   1.079   7.411  0.2842 -1.1262  0.1105
 4490TIP3    H235030   5.276   1.020   7.308  0.1496 -0.4382 -0.1687
 4491TIP3   OH235031   0.628   5.571   7.215  0.7126 -0.1297 -0.0143
 4491TIP3    H135032   0.675   5.651   7.239  0.7156  0.1982 -1.0787
 4491TIP3    H235033   0.632   5.516   7.293 -0.2876  1.3731  1.1546
 4492TIP3   OH235034   3.141   6.345   1.907 -0.1420 -0.2206 -0.1371
 4492TIP3    H135035   3.139   6.383   1.819 -0.6908  0.1944  0.0503
 4492TIP3    H235036   3.051   6.318   1.923 -0.2231  0.4829  0.6330
 4493TIP3   OH235037   5.318   5.289   8.090 -0.1618 -0.1365  0.3369
 4493TIP3    H135038   5.277   5.215   8.135  0.4392 -0.3408  0.5592
 4493TIP3    H235039   5.367   5.250   8.019 -0.3157  0.1048  0.0955
 4494TIP3   OH235040   2.007   2.766   8.147  0.0106 -0.0826 -0.1484
 4494TIP3    H135041   2.068   2.741   8.217  0.2020  1.8516  0.4231
 4494TIP3    H235042   2.023   2.859   8.134 -2.1549  0.2655 -0.6759
 4495TIP3   OH235043   0.854   4.407   6.627  0.1158  0.2752  0.1991
 4495TIP3    H135044   0.909   4.335   6.659  1.6000  1.4192  0.2946
 4495TIP3    H235045   0.806   4.369   6.553 -1.2566 -1.6031  1.9363
 4496TIP3   OH235046   6.963   0.193   6.839 -0.1647 -0.2233 -0.1958
 4496TIP3    H135047   6.977   0.272   6.787 -0.9478  2.0669  2.7895
 4496TIP3    H235048   7.051   0.158   6.852  0.3720  0.9881 -0.4098
 4497TIP3   OH235049   0.650   4.744   1.596 -0.7936 -0.8759  0.6578
 4497TIP3    H135050   0.704   4.667   1.578 -1.0295 -0.7049 -1.0137
 4497TIP3    H235051   0.561   4.716   1.571 -1.2369 -0.6949  1.9798
 4498TIP3   OH235052   4.329   1.221   8.273 -0.2679  0.2358 -0.1636
 4498TIP3    H135053   4.371   1.294   8.227  0.7266  0.7602  1.4873
 4498TIP3    H235054   4.265   1.262   8.330  0.9977 -0.0559  1.5245
 4499TIP3   OH235055   6.312   3.883   0.750 -0.1686  0.2378 -0.0877
 4499TIP3    H135056   6.256   3.940   0.697 -0.4991  0.0055  0.0064
 4499TIP3    H235057   6.360   3.943   0.807 -0.4050  0.4344 -0.0930
 4500TIP3   OH235058   3.396   4.315   7.905  0.4041 -0.0755 -0.5611
 4500TIP3    H135059   3.333   4.337   7.836  0.8646  0.4016 -0.8399
 4500TIP3    H235060   3.350   4.337   7.986 -0.8191 -2.3204 -0.5802
 4501TIP3   OH235061   3.875   2.384   2.366  0.1081 -0.1376  0.6997
 4501TIP3    H135062   3.880   2.467   2.414  0.3058  0.4951 -0.3883
 4501TIP3    H235063   3.965   2.355   2.359  0.1231 -0.0168  0.3627
 4502TIP3   OH235064   5.653   6.099   1.830 -0.1592 -0.0051  0.2530
 4502TIP3    H135065   5.717   6.028   1.838 -1.6024 -1.4792 -0.6915
 4502TIP3    H235066   5.663   6.129   1.740  0.9672  1.5786  0.8589
 4503TIP3   OH235067   1.771   0.749   8.176 -0.0081 -0.5105  0.1916
 4503TIP3    H135068   1.733   0.678   8.228 -1.1361  0.0593  0.1760
 4503TIP3    H235069   1.697   0.788   8.130  0.2372  1.8140  1.5585
 4504TIP3   OH235070   5.273   0.910   0.548  0.2326  0.4106  0.0629
 4504TIP3    H135071   5.247   1.002   0.558 -0.1952  0.2427  0.4980
 4504TIP3    H235072   5.339   0.896   0.616  0.2018  0.3517  0.0802
 4505TIP3   OH235073   2.310   6.612   7.876  0.0626  0.4292  1.0383
 4505TIP3    H135074   2.272   6.524   7.878 -2.5345  1.4753  1.8948
 4505TIP3    H235075   2.313   6.636   7.783  1.5407 -0.8003  0.7282
 4506TIP3   OH235076   0.806   3.963   7.871  1.3824  0.2808  0.1211
 4506TIP3    H135077   0.747   3.909   7.925  1.8191 -0.4865 -0.1665
 4506TIP3    H235078   0.866   3.901   7.831  1.3691  0.8959 -0.8863
 4507TIP3   OH235079   2.407   3.480   0.693  0.3237  0.3690 -0.3813
 4507TIP3    H135080   2.351   3.402   0.685  1.7721 -0.6143 -1.3146
 4507TIP3    H235081   2.467   3.459   0.764  0.1716  1.0162 -0.0529
 4508TIP3   OH235082   4.103   6.544   6.685 -0.2295 -0.6055  0.1295
 4508TIP3    H135083   4.113   6.612   6.751  0.4289 -0.8333  0.2752
 4508TIP3    H235084   4.193   6.521   6.661 -0.4339 -1.6476  0.3133
 4509TIP3   OH235085   4.547   5.646   1.839  0.8752  0.0798 -0.4273
 4509TIP3    H135086   4.580   5.734   1.858  1.0932 -0.1207  0.1389
 4509TIP3    H235087   4.473   5.635   1.899  0.0442  0.3473 -1.3669
 4510TIP3   OH235088   1.312   2.052   8.058 -0.0764 -0.3801 -0.1273
 4510TIP3    H135089   1.399   2.072   8.022 -0.9958  3.5845 -0.6372
 4510TIP3    H235090   1.255   2.048   7.981 -0.8702  0.5797  0.3894
 4511TIP3   OH235091   0.048   1.927   1.291  0.0584 -0.0031 -0.3322
 4511TIP3    H135092   0.111   1.996   1.270  0.5636 -1.1602 -3.0009
 4511TIP3    H235093  -0.038   1.965   1.273  0.1689  0.6204  0.4160
 4512TIP3   OH235094   3.192   1.147   2.103  0.1327 -0.7421 -0.1076
 4512TIP3    H135095   3.210   1.054   2.119 -0.4488 -1.0151 -0.9862
 4512TIP3    H235096   3.171   1.152   2.010  0.5753  0.3454 -0.1591
 4513TIP3   OH235097   1.494   3.184   7.693  0.1092  0.0144 -0.1276
 4513TIP3    H135098   1.514   3.245   7.623 -0.2914 -0.7284 -0.9086
 4513TIP3    H235099   1.411   3.144   7.667 -0.2272 -0.0222  0.9459
 4514TIP3   OH235100   6.801   3.523   6.677  0.1629  1.0786 -0.0169
 4514TIP3    H135101   6.770   3.602   6.633 -0.7558 -0.4340 -2.3062
 4514TIP3    H235102   6.756   3.452   6.632  2.4455 -0.8759  0.5627
 4515TIP3   OH235103   4.539   4.408   1.965  0.0729 -0.1660  0.0339
 4515TIP3    H135104   4.474   4.400   2.035  1.5992  2.2146  1.8872
 4515TIP3    H235105   4.487   4.410   1.885 -2.0208  0.1752  1.3179
 4516TIP3   OH235106   6.619   3.272   7.099  0.2500 -0.5349 -0.2366
 4516TIP3    H135107   6.681   3.320   7.044 -0.6434 -0.8071 -1.5064
 4516TIP3    H235108   6.653   3.183   7.100  0.9166 -0.2896  0.6541
 4517TIP3   OH235109   4.123   2.590   1.048 -0.5040  0.2389 -0.1821
 4517TIP3    H135110   4.055   2.647   1.013 -0.1071  1.3136  0.7205
 4517TIP3    H235111   4.198   2.601   0.989 -0.4873  0.5188 -0.1081
 4518TIP3   OH235112   5.828   5.270   1.176 -0.2869 -0.6310 -0.4026
 4518TIP3    H135113   5.853   5.237   1.090 -0.1353 -1.7118  0.0277
 4518TIP3    H235114   5.910   5.302   1.214 -0.4988  0.6115 -0.9636
 4519TIP3   OH235115   1.439   1.857   2.330 -0.4463  0.3716 -0.2023
 4519TIP3    H135116   1.388   1.846   2.411 -0.8792 -0.0405 -0.5218
 4519TIP3    H235117   1.528   1.873   2.360 -0.9464  2.3749  0.4095
 4520TIP3   OH235118   4.846   0.094   8.028 -0.1179  0.5008 -0.0158
 4520TIP3    H135119   4.875   0.004   8.016  0.3621  0.8108 -1.3647
 4520TIP3    H235120   4.752   0.092   8.013 -0.7051 -0.2729  3.0338
 4521TIP3   OH235121   3.007   4.226   7.605 -0.4896  0.2140  0.1929
 4521TIP3    H135122   2.940   4.270   7.552 -0.6077  2.5593  2.1460
 4521TIP3    H235123   2.964   4.146   7.635 -0.7471 -0.7068 -2.3370
 4522TIP3   OH235124   6.952   1.912   0.348  0.0784  0.6574  0.0805
 4522TIP3    H135125   6.900   1.845   0.303 -0.1115 -0.7545  2.2262
 4522TIP3    H235126   7.042   1.883   0.336 -0.0205 -0.2628  1.3014
 4523TIP3   OH235127   1.317   6.452   6.258  0.7496 -0.3844 -0.2002
 4523TIP3    H135128   1.249   6.473   6.194  0.5456 -0.4162  0.0042
 4523TIP3    H235129   1.398   6.484   6.219  0.5302  0.2308 -0.1676
 4524TIP3   OH235130   6.192   0.363   6.820 -0.0682 -0.2080 -0.6106
 4524TIP3    H135131   6.109   0.315   6.819  0.1565 -0.6400  0.5878
 4524TIP3    H235132   6.256   0.299   6.850  0.1865  0.8780  1.3267
 4525TIP3   OH235133   3.500   1.517   1.247 -0.4078  0.0594 -0.3793
 4525TIP3    H135134   3.467   1.579   1.312  0.7118 -0.6125  0.8857
 4525TIP3    H235135   3.538   1.572   1.178  0.6593  0.8042  0.7679
 4526TIP3   OH235136   1.585   5.062   7.467  0.0082 -0.3235 -0.1843
 4526TIP3    H135137   1.573   5.026   7.554  0.5419 -0.0285  0.0135
 4526TIP3    H235138   1.635   4.995   7.420  2.3598  0.7311  0.6367
 4527TIP3   OH235139   3.413   5.167   7.355 -0.5534  0.0184 -0.2483
 4527TIP3    H135140   3.451   5.244   7.397 -1.0602 -0.5048  1.2446
 4527TIP3    H235141   3.449   5.167   7.266  1.1900  0.7547  0.4145
 4528TIP3   OH235142   2.527   3.886   6.142 -0.5200  0.2913 -0.4848
 4528TIP3    H135143   2.570   3.805   6.170  1.9379  1.8727  0.6147
 4528TIP3    H235144   2.498   3.868   6.052  0.2895 -1.6599 -0.4004
 4529TIP3   OH235145   6.860   0.710   7.069 -0.2318 -0.5219  0.4059
 4529TIP3    H135146   6.885   0.797   7.039  0.8031 -0.9216  0.0674
 4529TIP3    H235147   6.770   0.720   7.100 -0.2727  0.5677 -0.0314
 4530TIP3   OH235148   4.180   6.226   2.646 -0.1501  0.5806 -0.1440
 4530TIP3    H135149   4.114   6.167   2.683  1.5039 -1.0064  0.4152
 4530TIP3    H235150   4.264   6.186   2.670  1.0255  2.2295 -1.3126
 4531TIP3   OH235151   3.325   3.309   0.166  0.6058  0.0981 -0.2899
 4531TIP3    H135152   3.335   3.296   0.072 -0.0371 -2.0076 -0.1013
 4531TIP3    H235153   3.349   3.226   0.205  0.1224  0.6964  1.3674
 4532TIP3   OH235154   2.627   0.642   0.114 -0.4127 -0.1197 -0.1430
 4532TIP3    H135155   2.653   0.605   0.030 -0.4824  1.2772 -0.8075
 4532TIP3    H235156   2.553   0.699   0.093 -1.9173 -1.4697  1.2229
 4533TIP3   OH235157   0.777   5.367   6.345 -0.2990 -0.0241  0.4532
 4533TIP3    H135158   0.863   5.325   6.344 -0.7262 -0.9178  0.3874
 4533TIP3    H235159   0.796   5.460   6.357  0.8305  0.1701 -2.2229
 4534TIP3   OH235160   1.698   2.094   7.626  0.5328 -0.6901 -0.0943
 4534TIP3    H135161   1.730   2.114   7.538 -2.0296 -0.6611 -1.0943
 4534TIP3    H235162   1.685   2.179   7.668  0.5383 -0.6625 -0.1497
 4535TIP3   OH235163   3.496   5.401   1.217 -0.2924  0.2723 -0.0439
 4535TIP3    H135164   3.407   5.364   1.220 -0.2032  0.1004  1.8197
 4535TIP3    H235165   3.553   5.324   1.209 -0.2740  0.3595 -0.8663
 4536TIP3   OH235166   3.037   0.660   7.844 -0.3725  0.0122 -0.5795
 4536TIP3    H135167   3.071   0.650   7.755  0.5561 -1.8455 -0.0547
 4536TIP3    H235168   3.107   0.705   7.891  0.5606 -1.9907  0.0025
 4537TIP3   OH235169   0.616   3.683   7.102 -0.5526  0.4335 -0.1347
 4537TIP3    H135170   0.543   3.679   7.165  0.5110  1.7496  1.2516
 4537TIP3    H235171   0.575   3.711   7.020 -1.6868  0.6063  0.4695
 4538TIP3   OH235172   0.871   1.069   6.361  0.0620 -0.2275 -0.2463
 4538TIP3    H135173   0.872   1.077   6.265  0.9474  2.0468 -0.0931
 4538TIP3    H235174   0.779   1.077   6.385  0.0868  2.3313 -0.7514
 4539TIP3   OH235175   0.235   1.428   0.656  0.4360  0.3683 -0.1316
 4539TIP3    H135176   0.207   1.474   0.736  0.5547 -1.0952  0.7922
 4539TIP3    H235177   0.322   1.463   0.638  0.8912 -0.0707  1.0685
 4540TIP3   OH235178   4.180   3.588   1.250 -0.4492 -0.6090  0.2343
 4540TIP3    H135179   4.142   3.615   1.334 -2.0149 -0.2888 -0.5637
 4540TIP3    H235180   4.257   3.536   1.276 -0.5833 -0.0770  1.8554
 4541TIP3   OH235181   5.096   0.469   2.327 -0.9477  0.1399  0.4662
 4541TIP3    H135182   5.102   0.536   2.396 -2.1162  1.8713 -1.0333
 4541TIP3    H235183   5.014   0.423   2.345 -1.3099  0.6671  0.1759
 4542TIP3   OH235184   6.940   2.025   7.591 -0.4840 -0.1747  0.0512
 4542TIP3    H135185   6.911   2.056   7.677  1.1581  0.2610  0.4872
 4542TIP3    H235186   7.020   2.074   7.574  2.2036 -3.8785  0.6724
 4543TIP3   OH235187   3.146   0.125   7.104 -0.1843 -0.1740  0.3034
 4543TIP3    H135188   3.078   0.123   7.172 -1.3595 -1.0993 -0.8460
 4543TIP3    H235189   3.153   0.217   7.080 -1.0161 -0.0521  0.4834
 4544TIP3   OH235190   2.990   6.861   1.427 -0.0801  0.3492 -0.2161
 4544TIP3    H135191   2.927   6.896   1.489 -1.0702  1.5911 -1.8535
 4544TIP3    H235192   2.947   6.784   1.390 -0.6961  1.1987 -1.3358
 4545TIP3   OH235193   0.061   0.397   6.677  0.1222  0.1243 -1.0355
 4545TIP3    H135194   0.075   0.488   6.653 -1.6954  0.3836 -1.2795
 4545TIP3    H235195   0.146   0.367   6.709  0.2719  2.4969  1.0851
 4546TIP3   OH235196   3.150   6.967   7.413 -0.3104  0.0732 -0.0514
 4546TIP3    H135197   3.079   7.030   7.400 -0.8169 -0.6000 -0.5976
 4546TIP3    H235198   3.230   7.019   7.402 -0.7113  0.7314  0.0604
 4547TIP3   OH235199   4.880   2.122   7.747 -0.1835  0.5492  0.0740
 4547TIP3    H135200   4.940   2.062   7.701 -2.3905 -1.8810  0.1414
 4547TIP3    H235201   4.903   2.209   7.714  3.1379 -0.2603 -0.0964
 4548TIP3   OH235202   0.550   6.227   7.605  0.3967  0.6032  0.2717
 4548TIP3    H135203   0.596   6.227   7.689  0.2262  1.4736  0.3812
 4548TIP3    H235204   0.568   6.314   7.568 -1.2673  1.0248  0.3873
 4549TIP3   OH235205   6.570   5.297   7.270 -0.0027  0.0839 -0.3371
 4549TIP3    H135206   6.520   5.229   7.224 -1.0126  0.4926  0.1225
 4549TIP3    H235207   6.603   5.354   7.201  0.0670 -0.3568 -0.6689
 4550TIP3   OH235208   2.491   6.315   0.544 -0.1258  0.1147  0.2638
 4550TIP3    H135209   2.587   6.319   0.547 -0.1303  0.7090 -0.2012
 4550TIP3    H235210   2.464   6.341   0.632  0.1602 -1.4866  0.8613
 4551TIP3   OH235211   1.980   4.706   7.777 -0.0947 -0.0165  0.1735
 4551TIP3    H135212   1.994   4.712   7.872 -1.1583  2.7059  0.2665
 4551TIP3    H235213   2.056   4.752   7.740  0.9269 -2.0756 -0.4258
 4552TIP3   OH235214   3.790   2.610   8.172  0.1021 -0.6841  0.0468
 4552TIP3    H135215   3.812   2.517   8.162 -1.3295 -1.2318  1.5161
 4552TIP3    H235216   3.694   2.611   8.177  0.1302  0.8036  0.6160
 4553TIP3   OH235217   2.496   0.875   1.946  0.1020  0.5056  0.1903
 4553TIP3    H135218   2.568   0.925   1.985  0.0994  1.1662 -0.6141
 4553TIP3    H235219   2.516   0.873   1.852 -0.3840 -0.2144  0.0941
 4554TIP3   OH235220   4.841   6.175   2.791  0.1022 -0.0799  0.2381
 4554TIP3    H135221   4.771   6.238   2.808  0.3710 -0.2395  2.1861
 4554TIP3    H235222   4.918   6.213   2.833 -0.0553 -2.2892  2.7786
 4555TIP3   OH235223   6.179   4.051   2.192 -0.0623 -0.5054  0.4804
 4555TIP3    H135224   6.097   4.067   2.145  0.1299 -0.9672 -0.0315
 4555TIP3    H235225   6.172   3.959   2.219  0.3369 -0.5859  0.3174
 4556TIP3   OH235226   3.973   6.118   0.094 -0.2525 -0.3484  0.1477
 4556TIP3    H135227   3.961   6.066   0.014  0.4339 -0.4613  0.1147
 4556TIP3    H235228   3.909   6.081   0.156 -1.6079  0.4971 -0.6895
 4557TIP3   OH235229   1.526   2.186   7.008 -0.0031  0.0173  0.5273
 4557TIP3    H135230   1.605   2.228   7.044  1.6279 -2.9577  0.7193
 4557TIP3    H235231   1.477   2.158   7.086 -0.0034 -0.2938  0.4145
 4558TIP3   OH235232   5.780   5.807   6.205 -0.2717 -0.7955 -0.0179
 4558TIP3    H135233   5.875   5.817   6.202 -0.4095  0.6632  0.1406
 4558TIP3    H235234   5.747   5.866   6.138 -1.1454 -0.0830  1.0086
 4559TIP3   OH235235   0.330   5.397   0.396  0.2060 -0.2698  0.5720
 4559TIP3    H135236   0.297   5.332   0.335 -0.8253 -0.2303  1.0651
 4559TIP3    H235237   0.256   5.456   0.411  1.2439  1.3345 -0.2501
 4560TIP3   OH235238   1.860   1.992   1.577  0.3279  0.2265  0.0774
 4560TIP3    H135239   1.831   1.901   1.566  2.1267 -0.7498  2.6191
 4560TIP3    H235240   1.843   2.032   1.491 -0.6021 -2.4488 -1.1170
 4561TIP3   OH235241   1.812   1.584   8.149 -0.2461  0.4108  0.9317
 4561TIP3    H135242   1.718   1.585   8.127 -0.5021 -3.5089  1.0498
 4561TIP3    H235243   1.849   1.520   8.089  2.0699  0.7001  1.9636
 4562TIP3   OH235244   2.254   1.399   8.149  0.0837  0.2620  0.2883
 4562TIP3    H135245   2.260   1.488   8.114  0.6572 -0.0354 -0.3967
 4562TIP3    H235246   2.295   1.345   8.082  1.0477 -0.3503  1.3481
 4563TIP3   OH235247   5.055   4.732   7.295 -0.3669  0.1460  1.0411
 4563TIP3    H135248   4.959   4.741   7.297 -0.3634  0.2411  0.8251
 4563TIP3    H235249   5.077   4.735   7.202 -0.2424 -0.7589  1.0320
 4564TIP3   OH235250   0.423   3.303   6.545  0.6153 -0.2365  0.3691
 4564TIP3    H135251   0.364   3.241   6.503  0.3191  0.3625 -0.1070
 4564TIP3    H235252   0.507   3.290   6.501  0.0896  1.0224 -1.0819
 4565TIP3   OH235253   1.113   6.242   1.232  0.4870 -0.3548 -0.1984
 4565TIP3    H135254   1.208   6.246   1.216  0.6769 -2.3584  0.2016
 4565TIP3    H235255   1.082   6.176   1.170 -0.1309 -1.9903  1.7895
 4566TIP3   OH235256   4.869   2.747   0.730 -0.7819  0.1341  0.1213
 4566TIP3    H135257   4.868   2.704   0.816 -0.8708  0.4562  0.2804
 4566TIP3    H235258   4.789   2.715   0.687 -1.6148  1.2539  0.7911
 4567TIP3   OH235259   5.206   0.153   0.205 -0.6742  0.2843 -0.1656
 4567TIP3    H135260   5.181   0.120   0.119 -0.2940 -1.6886  0.4342
 4567TIP3    H235261   5.262   0.228   0.187 -1.1726  0.3320 -1.6151
 4568TIP3   OH235262   1.216   2.952   0.179  0.6476 -0.2471 -0.4126
 4568TIP3    H135263   1.166   2.973   0.258  0.2679  0.0091 -0.7173
 4568TIP3    H235264   1.152   2.915   0.119  0.7848  0.2340 -0.8668
 4569TIP3   OH235265   4.321   5.408   7.454  0.0624 -0.3260 -0.2997
 4569TIP3    H135266   4.258   5.407   7.526  0.3255  0.6873 -0.0558
 4569TIP3    H235267   4.406   5.398   7.496  0.2939  1.1492 -0.3679
 4570TIP3   OH235268   3.866   4.732   7.754 -0.0784  0.2965 -0.0534
 4570TIP3    H135269   3.779   4.692   7.750  0.0809  0.0470 -1.2837
 4570TIP3    H235270   3.902   4.703   7.838 -0.5619 -0.9084 -0.2446
 4571TIP3   OH235271   5.312   0.793   2.180  0.5720 -0.2718  0.1122
 4571TIP3    H135272   5.405   0.811   2.197  0.4296 -0.5074  1.2484
 4571TIP3    H235273   5.266   0.838   2.251 -0.1759 -0.3124 -0.3394
 4572TIP3   OH235274   5.555   4.380   1.179 -0.4889  0.2549 -0.4269
 4572TIP3    H135275   5.530   4.449   1.118 -0.5978  1.1144  0.5547
 4572TIP3    H235276   5.487   4.383   1.247 -0.0949 -0.3327 -0.0013
 4573TIP3   OH235277   4.735   1.161   2.707  0.2096 -0.5714  1.1594
 4573TIP3    H135278   4.784   1.204   2.778  0.6447  0.8050  0.0787
 4573TIP3    H235279   4.650   1.205   2.708 -0.4780 -1.8429  1.9848
 4574TIP3   OH235280   4.116   1.005   7.446  0.1158 -0.1633  0.1381
 4574TIP3    H135281   4.138   1.091   7.410 -0.0120  0.6017  1.7893
 4574TIP3    H235282   4.102   1.021   7.539  0.2459 -2.0182  0.5147
 4575TIP3   OH235283   2.607   1.860   8.172  0.1320 -0.0682 -0.2888
 4575TIP3    H135284   2.688   1.824   8.135  0.1008  1.1479 -1.6119
 4575TIP3    H235285   2.633   1.896   8.257  0.5639 -1.4014  0.1669
 4576TIP3   OH235286   3.133   1.282   1.423 -0.6320 -0.0093 -0.3393
 4576TIP3    H135287   3.148   1.189   1.439  1.2907  0.2276 -0.4546
 4576TIP3    H235288   3.168   1.297   1.335 -0.3220  0.9206 -0.0748
 4577TIP3   OH235289   2.118   1.848   0.506 -0.1402 -0.7436 -0.3264
 4577TIP3    H135290   2.101   1.783   0.438 -0.1591  0.2298 -1.2699
 4577TIP3    H235291   2.087   1.807   0.587 -2.7590 -0.8484 -1.2931
 4578TIP3   OH235292   6.053   5.595   1.516 -0.1208  0.1919  0.0300
 4578TIP3    H135293   6.051   5.505   1.548  1.7435  0.0885 -0.0450
 4578TIP3    H235294   5.994   5.595   1.441  1.4559 -1.5455 -1.3004
 4579TIP3   OH235295   0.355   6.258   7.879  0.3972  0.8026  0.1540
 4579TIP3    H135296   0.340   6.170   7.843 -2.6189  1.2377  0.0833
 4579TIP3    H235297   0.364   6.314   7.802 -0.1788  0.8990  0.1542
 4580TIP3   OH235298   3.837   4.479   0.314 -0.4512  0.5125  0.1701
 4580TIP3    H135299   3.846   4.496   0.408  0.4305 -0.0909  0.1999
 4580TIP3    H235300   3.921   4.442   0.288 -0.0121  2.3574 -1.2420
 4581TIP3   OH235301   0.840   2.758   0.560 -0.0332 -0.5540 -0.2035
 4581TIP3    H135302   0.799   2.836   0.523 -0.5744 -0.8028 -0.1270
 4581TIP3    H235303   0.836   2.772   0.654 -0.7692 -0.9981 -0.1670
 4582TIP3   OH235304   1.987   4.711   7.491  0.1384  0.0567  0.2854
 4582TIP3    H135305   1.941   4.671   7.565 -0.3276 -1.4898 -0.7929
 4582TIP3    H235306   2.076   4.678   7.497 -0.2745 -1.3269 -0.6706
 4583TIP3   OH235307   3.941   2.793   2.586  0.8916  0.3381 -0.2837
 4583TIP3    H135308   3.876   2.821   2.521  1.4724  2.8597  0.1014
 4583TIP3    H235309   3.926   2.851   2.661  0.7245 -1.9988  1.6239
 4584TIP3   OH235310   2.061   4.916   0.675 -0.4999  0.5002  0.6891
 4584TIP3    H135311   1.969   4.939   0.662 -0.8898 -0.1407  2.0930
 4584TIP3    H235312   2.102   4.930   0.589 -1.3115  3.3772  0.6774
 4585TIP3   OH235313   2.994   4.230   0.150 -0.3213 -0.1574  0.3372
 4585TIP3    H135314   2.964   4.203   0.062 -1.3453  1.9222 -0.0199
 4585TIP3    H235315   2.946   4.172   0.210 -1.4155 -0.0875 -0.4231
 4586TIP3   OH235316   6.313   6.393   7.131 -0.2620  0.3145 -0.1789
 4586TIP3    H135317   6.354   6.307   7.140  0.5757  0.8943  2.9964
 4586TIP3    H235318   6.219   6.376   7.137 -0.0680 -0.3674  2.0769
 4587TIP3   OH235319   5.011   6.050   1.076 -0.2849 -0.1105  0.0193
 4587TIP3    H135320   5.027   5.986   1.008 -1.6575  1.3642 -1.8089
 4587TIP3    H235321   4.921   6.079   1.061 -0.3420  0.8912  1.9467
 4588TIP3   OH235322   3.818   3.468   8.088  0.5531 -0.4518 -0.0581
 4588TIP3    H135323   3.723   3.478   8.099  0.6135  1.1841 -0.6932
 4588TIP3    H235324   3.835   3.376   8.108 -0.7512 -0.1605  2.9716
 4589TIP3   OH235325   6.541   0.235   1.776 -0.2689  0.0179 -0.1460
 4589TIP3    H135326   6.536   0.285   1.694 -0.3708 -0.3948 -0.3977
 4589TIP3    H235327   6.613   0.173   1.761  0.9242  1.1335  0.7612
 4590TIP3   OH235328   5.554   5.992   0.241  0.6467  0.2100  0.0365
 4590TIP3    H135329   5.592   6.064   0.292  0.7288  0.3712 -0.2482
 4590TIP3    H235330   5.626   5.930   0.231  0.4976 -0.0451  0.5234
 4591TIP3   OH235331   0.985   0.439   0.031 -0.5742 -0.0927  0.1083
 4591TIP3    H135332   0.972   0.533   0.014  0.6333  0.3886  1.6026
 4591TIP3    H235333   0.904   0.398   0.002 -1.7549  1.6129  0.8349
 4592TIP3   OH235334   1.457   0.130   7.918 -0.1570  1.0389 -0.1702
 4592TIP3    H135335   1.532   0.145   7.975 -0.8350  1.6009  0.6165
 4592TIP3    H235336   1.417   0.217   7.908 -0.8585  0.7071 -0.3155
 4593TIP3   OH235337   4.253   4.813   1.487 -0.4230 -0.5333 -0.0169
 4593TIP3    H135338   4.193   4.856   1.548  0.0065 -1.1153  0.8222
 4593TIP3    H235339   4.277   4.882   1.425  1.0187  0.7767  1.8652
 4594TIP3   OH235340   2.403   2.421   8.051 -0.1695  0.4162 -0.9023
 4594TIP3    H135341   2.423   2.441   8.142  2.6260  2.0197 -1.7623
 4594TIP3    H235342   2.309   2.440   8.042 -0.9843 -1.6173  1.9998
 4595TIP3   OH235343   4.809   2.928   1.786  0.2543 -0.1891 -0.2974
 4595TIP3    H135344   4.744   2.908   1.719 -0.6849 -0.9075  0.7986
 4595TIP3    H235345   4.772   3.002   1.835  1.0963  0.5655 -0.7702
 4596TIP3   OH235346   3.700   1.041   1.929 -0.0896  0.3254  0.3688
 4596TIP3    H135347   3.654   0.976   1.983  1.2184  1.2339  2.7057
 4596TIP3    H235348   3.643   1.117   1.930  0.6294  0.8821  1.8754
 4597TIP3   OH235349   6.750   2.118   0.787 -0.5523 -0.3668 -0.7253
 4597TIP3    H135350   6.729   2.025   0.776  1.0575 -0.7812 -0.5644
 4597TIP3    H235351   6.709   2.142   0.870 -0.7500 -0.9995 -0.6291
 4598TIP3   OH235352   5.918   3.718   8.259  0.5571 -0.2276  0.3213
 4598TIP3    H135353   5.854   3.655   8.225  0.3612  0.0733  0.1272
 4598TIP3    H235354   5.883   3.804   8.234 -0.3576  0.1041  2.5352
 4599TIP3   OH235355   5.207   5.810   2.244 -0.6504 -0.3295  0.5670
 4599TIP3    H135356   5.137   5.746   2.234  0.5155 -1.4052 -1.5696
 4599TIP3    H235357   5.193   5.849   2.330 -2.0855 -2.6565  1.4780
 4600TIP3   OH235358   5.821   1.280   7.171 -0.3867 -0.0423 -0.3247
 4600TIP3    H135359   5.814   1.373   7.193  0.5678 -0.4349  1.8492
 4600TIP3    H235360   5.814   1.278   7.075 -2.4937  2.0460 -0.3248
 4601TIP3   OH235361   1.647   1.816   7.362  0.6574 -0.4723  0.2288
 4601TIP3    H135362   1.566   1.844   7.405 -0.1216 -1.2745 -0.6542
 4601TIP3    H235363   1.691   1.897   7.338 -0.0431 -0.0137  0.4556
 4602TIP3   OH235364   2.064   5.868   8.145  0.3252  0.0902  0.2872
 4602TIP3    H135365   2.055   5.930   8.072 -1.7073  0.2189  0.5666
 4602TIP3    H235366   2.157   5.847   8.148  1.0240  2.6824 -0.1914
 4603TIP3   OH235367   3.497   4.650   0.341 -0.0022 -0.3081  0.3066
 4603TIP3    H135368   3.473   4.728   0.291 -1.3070 -1.3150 -0.7030
 4603TIP3    H235369   3.583   4.671   0.378 -0.0108  1.3297 -0.5096
 4604TIP3   OH235370   2.952   3.599   6.603 -0.3836 -0.0626  1.3129
 4604TIP3    H135371   3.012   3.569   6.534  0.8128  0.2466  2.1750
 4604TIP3    H235372   2.997   3.674   6.642 -1.8776  0.9109  1.2634
 4605TIP3   OH235373   2.069   1.955   2.421  0.2229 -0.1767  0.0759
 4605TIP3    H135374   2.003   1.892   2.393  0.4166 -0.4540  0.2328
 4605TIP3    H235375   2.027   2.005   2.491  0.0886 -0.1702 -0.0094
 4606TIP3   OH235376   0.980   4.866   1.068 -0.1535  0.1903 -0.0726
 4606TIP3    H135377   0.903   4.858   1.012  0.7334  0.0297 -1.2932
 4606TIP3    H235378   0.967   4.949   1.115 -0.6624  0.5824 -0.8872
 4607TIP3   OH235379   5.517   4.906   0.124  0.1335  0.2851  0.1115
 4607TIP3    H135380   5.498   4.813   0.126 -1.0569  0.4594 -1.4758
 4607TIP3    H235381   5.565   4.920   0.043  0.4866  1.0334  0.4334
 4608TIP3   OH235382   5.962   1.755   1.819 -0.1008 -0.2196 -0.1571
 4608TIP3    H135383   6.042   1.778   1.773 -0.0401 -2.5305 -1.3492
 4608TIP3    H235384   5.985   1.676   1.870 -1.3525 -0.3473  0.2577
 4609TIP3   OH235385   3.272   2.985   7.280 -0.3853  0.2226  0.6475
 4609TIP3    H135386   3.241   3.076   7.277  1.1936  0.8215  1.4115
 4609TIP3    H235387   3.199   2.934   7.244 -2.3515  1.4945  2.5537
 4610TIP3   OH235388   6.444   4.092   0.869  0.2660 -0.2399 -0.8323
 4610TIP3    H135389   6.474   4.181   0.849  0.2710 -0.3537 -1.3605
 4610TIP3    H235390   6.401   4.099   0.954  0.4023  0.2367 -0.8009
 4611TIP3   OH235391   6.714   0.592   2.611 -0.0319 -0.4680  0.4518
 4611TIP3    H135392   6.686   0.658   2.673  0.7285 -1.0433  1.4527
 4611TIP3    H235393   6.672   0.616   2.528 -1.0670  0.3128  1.1823
 4612TIP3   OH235394   5.044   2.928   0.152  0.6687  0.7265 -0.8192
 4612TIP3    H135395   5.134   2.951   0.173  0.3048  0.8932  0.6727
 4612TIP3    H235396   5.045   2.833   0.140  1.2255  0.8577 -1.8568
 4613TIP3   OH235397   1.739   3.129   0.289 -0.2180  0.2355  0.5037
 4613TIP3    H135398   1.789   3.140   0.369 -1.8852  2.7345  1.3150
 4613TIP3    H235399   1.647   3.128   0.318 -0.8774  1.4926 -1.3548
 4614TIP3   OH235400   3.999   4.504   2.158 -0.5693 -0.1950  0.1591
 4614TIP3    H135401   4.026   4.426   2.108  1.5149 -0.1841  1.1376
 4614TIP3    H235402   3.925   4.539   2.109  1.4546 -0.0376 -3.1317
 4615TIP3   OH235403   1.650   4.265   0.479 -0.0345  0.1092 -0.7095
 4615TIP3    H135404   1.640   4.255   0.385  1.7028 -1.3205 -0.7904
 4615TIP3    H235405   1.740   4.238   0.497 -0.4422 -0.0297  1.4071
 4616TIP3   OH235406   6.273   2.393   7.045  0.3211  0.0197  0.0727
 4616TIP3    H135407   6.216   2.318   7.029  0.0241 -0.5406  3.1941
 4616TIP3    H235408   6.359   2.365   7.015  0.0895 -1.3433  0.6389
 4617TIP3   OH235409   3.278   4.481   1.154  0.4950 -0.5735 -0.5335
 4617TIP3    H135410   3.233   4.447   1.231 -1.5096  2.9926  0.0748
 4617TIP3    H235411   3.348   4.536   1.189  0.3708  0.0731 -1.2738
 4618TIP3   OH235412   0.990   2.376   7.194 -0.2566 -0.1041 -0.4079
 4618TIP3    H135413   0.927   2.396   7.125 -2.3094 -2.1257  0.7225
 4618TIP3    H235414   0.951   2.412   7.274  2.1361  2.3277 -0.1922
 4619TIP3   OH235415   3.293   4.704   8.165 -0.1540 -0.3435 -0.0304
 4619TIP3    H135416   3.240   4.666   8.094  1.7990  0.6981 -2.1646
 4619TIP3    H235417   3.249   4.786   8.186 -0.7808 -0.6846  0.0241
 4620TIP3   OH235418   1.048   6.447   6.156  0.1937 -0.0420  0.0026
 4620TIP3    H135419   0.991   6.512   6.197  1.1155  0.4650  0.5154
 4620TIP3    H235420   0.997   6.413   6.083 -0.1430  1.6034 -0.5813
 4621TIP3   OH235421   3.644   6.162   6.568 -0.0918 -0.1904 -0.2945
 4621TIP3    H135422   3.627   6.236   6.627  1.4318  0.9254 -1.1846
 4621TIP3    H235423   3.599   6.187   6.487 -1.9989 -1.6168  0.2421
 4622TIP3   OH235424   2.081   4.023   0.080 -0.0909  0.2381 -0.4737
 4622TIP3    H135425   2.017   4.000   0.013 -0.6639  1.8573 -0.5417
 4622TIP3    H235426   2.102   3.941   0.124 -2.0324 -0.3690 -0.6186
 4623TIP3   OH235427   5.376   0.650   2.769 -0.1986 -0.7480 -0.4166
 4623TIP3    H135428   5.368   0.561   2.736  0.2836 -0.4324 -1.4283
 4623TIP3    H235429   5.304   0.698   2.727 -0.0724 -0.5240 -0.3818
 4624TIP3   OH235430   1.401   0.600   2.294 -0.0331 -0.2955 -0.5535
 4624TIP3    H135431   1.467   0.602   2.363 -0.7608  1.8812  0.1506
 4624TIP3    H235432   1.321   0.572   2.338 -0.1531 -0.4482 -0.8655
 4625TIP3   OH235433   2.527   1.001   8.196  0.4246  0.0595  0.4467
 4625TIP3    H135434   2.569   0.975   8.114 -0.5399 -0.9838  0.2738
 4625TIP3    H235435   2.599   1.007   8.258  1.1030  0.3586 -0.3433
 4626TIP3   OH235436   6.818   3.232   1.471 -0.1805 -0.2223 -0.2345
 4626TIP3    H135437   6.911   3.221   1.450 -0.2594  1.4686 -1.6761
 4626TIP3    H235438   6.774   3.232   1.387 -0.9824  3.0336  0.0796
 4627TIP3   OH235439   2.895   6.207   0.891 -0.3911 -0.1580 -0.1068
 4627TIP3    H135440   2.909   6.134   0.830  1.2476  0.0568 -0.0250
 4627TIP3    H235441   2.800   6.208   0.906 -0.7147 -0.8270 -1.8897
 4628TIP3   OH235442   0.281   0.539   7.091 -0.4210 -0.5433 -0.4914
 4628TIP3    H135443   0.367   0.520   7.053 -0.1042  2.0316 -1.2360
 4628TIP3    H235444   0.254   0.621   7.050 -2.7251 -0.6882  0.5957
 4629TIP3   OH235445   3.450   5.445   0.330 -0.0594  0.3827  0.6933
 4629TIP3    H135446   3.391   5.379   0.292  0.6091 -1.0456  2.0177
 4629TIP3    H235447   3.464   5.507   0.259  0.7596 -1.9065 -1.3114
 4630TIP3   OH235448   4.462   4.416   1.699  0.3415  0.5376 -1.1072
 4630TIP3    H135449   4.394   4.368   1.747  0.3029  0.9790 -0.7151
 4630TIP3    H235450   4.417   4.451   1.622  0.1338  0.7838 -0.8761
 4631TIP3   OH235451   5.572   5.803   0.933  0.3270 -0.3150 -0.4003
 4631TIP3    H135452   5.523   5.732   0.891  1.2109 -1.4656  0.4485
 4631TIP3    H235453   5.505   5.864   0.964 -0.4019 -0.1078 -2.2364
 4632TIP3   OH235454   4.998   6.051   2.031  0.3843 -0.6470  0.2703
 4632TIP3    H135455   5.052   6.121   2.067  0.6177 -0.5389 -0.2828
 4632TIP3    H235456   5.058   5.978   2.018  0.2547 -0.7622  0.3162
 4633TIP3   OH235457   5.385   4.267   1.840 -0.0458  1.0084 -0.4309
 4633TIP3    H135458   5.396   4.261   1.934  0.3150  0.8862 -0.4803
 4633TIP3    H235459   5.472   4.287   1.806 -0.2038  1.2208 -0.7239
 4634TIP3   OH235460   3.305   1.338   2.267  0.4260  0.3280 -0.2383
 4634TIP3    H135461   3.225   1.378   2.301  0.8045 -0.0237  1.0962
 4634TIP3    H235462   3.274   1.274   2.203 -0.2418  1.7589 -1.4037
 4635TIP3   OH235463   4.355   2.179   7.698  0.0145 -0.7703 -0.1509
 4635TIP3    H135464   4.315   2.094   7.683  0.9253 -1.4047  0.8963
 4635TIP3    H235465   4.357   2.188   7.793 -0.3122  0.5541 -0.2441
 4636TIP3   OH235466   6.574   5.698   6.841  0.2247 -0.5303  0.4590
 4636TIP3    H135467   6.600   5.681   6.932  0.8066  1.8664  0.8052
 4636TIP3    H235468   6.650   5.744   6.803 -0.7712  0.2596 -0.6375
 4637TIP3   OH235469   2.398   3.359   7.279  0.0382  0.6593  0.1006
 4637TIP3    H135470   2.327   3.403   7.326 -2.0808  0.5873 -2.7792
 4637TIP3    H235471   2.436   3.427   7.224  0.5742  0.1521 -0.1681
 4638TIP3   OH235472   5.634   4.856   0.403 -0.0462  0.2379  0.2118
 4638TIP3    H135473   5.545   4.856   0.368  0.5268 -0.7486 -1.3678
 4638TIP3    H235474   5.637   4.781   0.463 -0.3847  0.5207  0.5847
 4639TIP3   OH235475   3.792   3.179   0.870  0.0876  0.1136 -0.1068
 4639TIP3    H135476   3.863   3.240   0.886 -0.1974  0.2561  0.6527
 4639TIP3    H235477   3.712   3.230   0.882 -0.2140 -0.8839  2.8811
 4640TIP3   OH235478   6.836   3.018   8.260 -0.0580  0.2803 -0.3711
 4640TIP3    H135479   6.775   2.970   8.316 -0.4869  0.0478 -1.0205
 4640TIP3    H235480   6.854   3.099   8.309  0.6150 -0.4860  0.6960
 4641TIP3   OH235481   6.014   0.821   1.544  0.1072 -0.3767  0.1690
 4641TIP3    H135482   5.919   0.833   1.544  0.1405 -0.0131  1.1746
 4641TIP3    H235483   6.041   0.842   1.634  1.3435  1.1372 -0.5242
 4642TIP3   OH235484   4.952   1.460   7.902  0.3307 -0.4459 -0.1520
 4642TIP3    H135485   4.919   1.535   7.950 -0.0678 -0.3070 -0.6363
 4642TIP3    H235486   5.038   1.488   7.869  0.2871 -0.2873 -0.1308
 4643TIP3   OH235487   6.027   1.299   1.725 -0.6876 -0.3237 -0.0142
 4643TIP3    H135488   5.951   1.262   1.681 -0.9218  1.1200 -0.9102
 4643TIP3    H235489   6.014   1.394   1.719  0.6311 -0.0605  0.8093
 4644TIP3   OH235490   2.257   6.466   7.150 -0.0182 -0.7620 -0.2314
 4644TIP3    H135491   2.302   6.537   7.196 -3.0367 -0.6820  3.0328
 4644TIP3    H235492   2.221   6.508   7.071  1.1333  0.4013 -0.1834
 4645TIP3   OH235493   5.018   6.190   0.703 -0.6332 -0.4991 -0.0762
 4645TIP3    H135494   4.994   6.273   0.663 -0.5849 -0.5134 -0.1343
 4645TIP3    H235495   5.055   6.138   0.632 -0.4238 -0.4747  0.0141
 4646TIP3   OH235496   6.095   0.867   1.834  0.0926  0.5336 -0.2786
 4646TIP3    H135497   6.038   0.932   1.875  1.2585  0.9548  0.7214
 4646TIP3    H235498   6.053   0.783   1.853 -0.7515  0.8978 -0.4821
 4647TIP3   OH235499   2.597   1.091   7.688  0.0394 -0.5349 -0.6228
 4647TIP3    H135500   2.535   1.064   7.621  0.1718  0.3611 -1.1204
 4647TIP3    H235501   2.585   1.185   7.696  0.7466 -0.4745 -0.1249
 4648TIP3   OH235502   6.505   4.814   0.114 -0.0495 -0.4383  0.0078
 4648TIP3    H135503   6.590   4.787   0.149 -1.2314 -0.4723  3.1551
 4648TIP3    H235504   6.447   4.740   0.131 -1.2931  0.5763  0.3287
 4649TIP3   OH235505   3.691   2.886   6.239  0.1935  0.6467  0.5921
 4649TIP3    H135506   3.597   2.882   6.218  0.5100 -0.3428 -0.7761
 4649TIP3    H235507   3.718   2.973   6.210 -0.2018  0.7626  0.5572
 4650TIP3   OH235508   5.229   5.066   8.239  0.4021  0.3095 -0.0509
 4650TIP3    H135509   5.281   5.062   8.319  3.0377 -0.1430 -1.6776
 4650TIP3    H235510   5.253   4.988   8.190 -1.4069  0.3978 -1.1923
 4651TIP3   OH235511   1.648   6.285   2.253  0.2197 -0.1857 -0.1622
 4651TIP3    H135512   1.739   6.261   2.271 -0.0763 -0.5359  0.9503
 4651TIP3    H235513   1.647   6.307   2.160  1.6460  0.7807  0.0228
 4652TIP3   OH235514   1.899   6.788   7.284  0.2349 -0.1785 -0.0661
 4652TIP3    H135515   1.824   6.760   7.231  0.1240  1.5774 -0.9085
 4652TIP3    H235516   1.876   6.761   7.373 -0.7929 -0.8249 -0.5028
 4653TIP3   OH235517   2.296   3.878   7.696 -0.7120  0.4176  0.0509
 4653TIP3    H135518   2.390   3.867   7.708 -0.6273  0.3739 -0.6599
 4653TIP3    H235519   2.277   3.837   7.612 -1.1124  1.8446 -0.5704
 4654TIP3   OH235520   5.719   5.508   0.410 -0.7922 -0.2200 -0.2299
 4654TIP3    H135521   5.633   5.479   0.380 -1.0325 -0.6150  0.7812
 4654TIP3    H235522   5.765   5.427   0.432 -2.0358  0.0135  4.1766
 4655TIP3   OH235523   6.218   5.193   8.194  0.2144  0.8147 -0.1591
 4655TIP3    H135524   6.187   5.156   8.111  1.9148  0.8147 -0.8295
 4655TIP3    H235525   6.159   5.156   8.260 -0.2721 -0.3382 -1.1957
 4656TIP3   OH235526   5.305   3.995   1.643  0.9541  0.0132  0.1863
 4656TIP3    H135527   5.288   3.961   1.555  0.7190  0.5914  0.0063
 4656TIP3    H235528   5.390   3.956   1.667  1.6664  0.8762 -0.8192
 4657TIP3   OH235529   1.605   1.680   0.684 -0.1200  0.4547  0.3531
 4657TIP3    H135530   1.519   1.694   0.722  0.3927 -0.2638  1.8921
 4657TIP3    H235531   1.666   1.691   0.758  1.0710  0.6041 -0.6103
 4658TIP3   OH235532   5.831   3.979   0.443  0.5034  0.3495 -0.4191
 4658TIP3    H135533   5.849   3.899   0.493  1.1466  0.4272 -0.5247
 4658TIP3    H235534   5.898   3.981   0.374 -0.0759  0.4966 -0.9918
 4659TIP3   OH235535   6.507   0.879   0.423 -0.4663  0.7935 -0.4103
 4659TIP3    H135536   6.461   0.795   0.423  0.9290 -0.0126  0.2796
 4659TIP3    H235537   6.593   0.859   0.385  0.8294  1.3181  2.0330
 4660TIP3   OH235538   3.364   3.780   8.095  0.1514 -0.0705  0.3620
 4660TIP3    H135539   3.449   3.760   8.134  0.1109  0.7183  0.8748
 4660TIP3    H235540   3.367   3.873   8.076  0.7415 -0.6763 -3.0365
 4661TIP3   OH235541   2.907   5.725   0.898  0.0760  0.0495 -0.0030
 4661TIP3    H135542   2.959   5.649   0.870 -0.8496 -0.6220  0.0459
 4661TIP3    H235543   2.926   5.792   0.832 -0.1775 -0.6969 -0.8511
 4662TIP3   OH235544   5.603   4.547   7.611  0.1417  0.6112  0.5855
 4662TIP3    H135545   5.640   4.481   7.669  2.7549 -0.4578 -2.0146
 4662TIP3    H235546   5.615   4.630   7.657  1.0493 -0.2901  2.0402
 4663TIP3   OH235547   1.250   0.408   0.213  0.4967 -0.4909  0.0524
 4663TIP3    H135548   1.224   0.368   0.296 -1.5216  0.2413 -0.1866
 4663TIP3    H235549   1.170   0.411   0.161  1.0594  1.7118 -0.8176
 4664TIP3   OH235550   3.519   1.563   2.542  0.0434  0.5501 -0.2455
 4664TIP3    H135551   3.524   1.470   2.521  0.2898  0.5280 -0.0950
 4664TIP3    H235552   3.440   1.572   2.595 -0.2249  0.5009 -0.6304
 4665TIP3   OH235553   4.885   2.917   6.848  0.0658 -0.1823 -0.8307
 4665TIP3    H135554   4.931   2.844   6.808 -2.1926 -0.9412 -2.2328
 4665TIP3    H235555   4.886   2.986   6.782 -0.8741 -0.2587 -0.9388
 4666TIP3   OH235556   5.806   5.958   0.907  0.2966  0.1950  0.1447
 4666TIP3    H135557   5.721   5.916   0.897  1.0200 -1.5610  1.1148
 4666TIP3    H235558   5.837   5.971   0.817  0.3428 -1.9999 -0.1937
 4667TIP3   OH235559   5.016   5.437   2.720 -0.1923  0.1800 -0.5855
 4667TIP3    H135560   5.101   5.474   2.695  0.6329 -0.3028  1.2954
 4667TIP3    H235561   5.036   5.345   2.741 -1.0923  0.1668  0.2539
 4668TIP3   OH235562   3.247   6.974   0.920 -0.3700  0.2476  0.2651
 4668TIP3    H135563   3.306   7.033   0.873  0.5043 -0.2012  0.7773
 4668TIP3    H235564   3.202   7.031   0.982 -1.4647  0.8275 -1.0025
 4669TIP3   OH235565   2.758   1.615   6.992  0.0823 -0.0904 -0.1331
 4669TIP3    H135566   2.757   1.530   6.948  0.8393  0.0552 -0.4623
 4669TIP3    H235567   2.669   1.628   7.023 -0.1510 -0.7923 -0.4925
 4670TIP3   OH235568   6.009   6.886   7.625  0.4702 -0.0963 -0.3730
 4670TIP3    H135569   6.091   6.914   7.665  0.7733 -0.0347 -1.0263
 4670TIP3    H235570   6.030   6.871   7.533  0.1267 -1.6621 -0.2358
 4671TIP3   OH235571   6.584   3.860   2.625 -0.4156 -0.6912  0.4778
 4671TIP3    H135572   6.489   3.868   2.616 -0.1218  0.4218 -3.3095
 4671TIP3    H235573   6.618   3.943   2.592  1.8950 -2.4730 -2.0680
 4672TIP3   OH235574   5.553   5.755   1.500  0.0494 -0.3998 -0.1109
 4672TIP3    H135575   5.600   5.819   1.447 -2.2235 -0.6138 -2.5942
 4672TIP3    H235576   5.466   5.793   1.512 -0.7403 -2.1284  0.0003
 4673TIP3   OH235577   5.027   5.877   0.153  1.1482  0.0166  0.6015
 4673TIP3    H135578   5.114   5.899   0.122  1.1796  0.5465  1.0386
 4673TIP3    H235579   5.009   5.942   0.221 -0.1294  0.7729 -0.4148
 4674TIP3   OH235580   2.083   2.561   0.715  1.3381 -0.2388  0.4675
 4674TIP3    H135581   2.145   2.603   0.774 -0.0435  0.2250  1.6341
 4674TIP3    H235582   2.032   2.634   0.678  0.3053 -0.7159  0.9151
 4675TIP3   OH235583   4.990   3.520   8.102 -0.2101 -0.0006 -0.1538
 4675TIP3    H135584   4.989   3.428   8.076 -1.3103  0.2580 -1.0712
 4675TIP3    H235585   4.986   3.518   8.198  0.8432 -0.9120 -0.1106
 4676TIP3   OH235586   6.893   5.141   6.612  0.1686 -0.0612  0.8728
 4676TIP3    H135587   6.875   5.185   6.695 -0.5439 -1.5861  1.5694
 4676TIP3    H235588   6.808   5.107   6.584  0.4629  0.1716 -0.3305
 4677TIP3   OH235589   3.612   1.241   6.999 -0.1689 -0.0421 -0.5904
 4677TIP3    H135590   3.660   1.213   6.922 -1.8134 -0.4922 -1.5100
 4677TIP3    H235591   3.602   1.162   7.051  0.8418  0.2379  0.0484
 4678TIP3   OH235592   5.466   2.266   7.787 -0.4475 -0.4708 -0.2266
 4678TIP3    H135593   5.555   2.232   7.797  0.2548  1.4867  0.6973
 4678TIP3    H235594   5.467   2.349   7.834 -2.8407 -0.4885 -0.0368
 4679TIP3   OH235595   3.094   5.313   7.461 -0.2358 -0.3905 -0.0178
 4679TIP3    H135596   3.012   5.361   7.452  0.1438  0.2557 -0.0993
 4679TIP3    H235597   3.160   5.380   7.478  0.3086 -0.8838 -0.1193
 4680TIP3   OH235598   6.901   4.936   7.461  0.0628 -0.5466  0.5125
 4680TIP3    H135599   6.891   4.907   7.552  1.3266  0.9381  1.1741
 4680TIP3    H235600   6.815   4.971   7.437  0.0914  0.3244  1.6253
 4681TIP3   OH235601   0.035   6.705   7.007 -0.1379 -0.6296  0.6145
 4681TIP3    H135602  -0.024   6.721   7.081 -1.8055  0.5289 -0.8624
 4681TIP3    H235603   0.001   6.626   6.965  0.6396 -1.1339  0.9162
 4682TIP3   OH235604   1.966   1.008   7.817 -0.5501 -0.0846  0.3723
 4682TIP3    H135605   1.926   0.924   7.795  0.5242 -0.2045 -1.2870
 4682TIP3    H235606   1.893   1.064   7.841 -1.4774 -0.9792 -0.2831
 4683TIP3   OH235607   2.713   3.010   7.128 -0.1243 -0.9870 -0.4822
 4683TIP3    H135608   2.670   2.949   7.188 -0.0490 -0.5496  0.0287
 4683TIP3    H235609   2.654   3.016   7.053 -1.7472  0.7469  0.8318
 4684TIP3   OH235610   5.049   2.731   0.500 -0.3521 -0.1965  0.4380
 4684TIP3    H135611   4.987   2.739   0.573 -0.7235  3.7837 -0.0675
 4684TIP3    H235612   5.002   2.679   0.435 -1.7097 -0.3017  1.4545
 4685TIP3   OH235613   1.494   1.891   7.585 -0.2360 -0.0551 -0.0664
 4685TIP3    H135614   1.509   1.828   7.655 -0.4834  0.4104  0.4115
 4685TIP3    H235615   1.540   1.970   7.613  0.1025 -0.0268 -0.6775
 4686TIP3   OH235616   3.137   5.875   7.517 -0.1251 -0.2151  0.1961
 4686TIP3    H135617   3.156   5.945   7.454 -2.5099 -2.0999 -2.9458
 4686TIP3    H235618   3.053   5.901   7.556 -2.2512 -2.0793 -2.6765
 4687TIP3   OH235619   2.869   4.123   1.904 -0.3660 -0.0370  0.5572
 4687TIP3    H135620   2.932   4.129   1.975 -0.0868  1.1120  0.2393
 4687TIP3    H235621   2.912   4.068   1.838  0.6083  1.2438  0.0750
 4688TIP3   OH235622   4.935   3.707   6.746 -0.2907 -0.1897  0.4557
 4688TIP3    H135623   4.949   3.798   6.771  0.8039 -0.1382 -0.2394
 4688TIP3    H235624   4.869   3.711   6.676  0.2306  0.1520 -0.0301
 4689TIP3   OH235625   1.435   6.494   1.392 -0.0771 -0.5411 -0.2845
 4689TIP3    H135626   1.445   6.588   1.406 -0.1059 -0.5538 -0.1736
 4689TIP3    H235627   1.467   6.479   1.303 -0.9506 -0.2742 -0.6609
 4690TIP3   OH235628   1.809   6.716   8.070 -0.5194 -0.3839  0.1385
 4690TIP3    H135629   1.869   6.673   8.131 -0.8096 -0.0299  0.6858
 4690TIP3    H235630   1.735   6.655   8.063 -0.6108 -0.3025  0.3639
 4691TIP3   OH235631   1.100   3.153   7.246 -0.4281 -0.0300 -0.2689
 4691TIP3    H135632   1.114   3.058   7.238  1.7434  0.3029 -1.0665
 4691TIP3    H235633   1.057   3.164   7.331 -0.9969 -1.7349 -0.2937
 4692TIP3   OH235634   5.756   3.522   6.472 -0.3797  0.4219  0.5211
 4692TIP3    H135635   5.762   3.572   6.554 -0.9261  0.7019  0.3964
 4692TIP3    H235636   5.803   3.441   6.489 -1.3445  0.0393  1.4526
 4693TIP3   OH235637   2.990   3.271   8.235 -0.1739  0.2212  1.1021
 4693TIP3    H135638   3.017   3.358   8.204 -1.3827  0.5725  1.0012
 4693TIP3    H235639   3.068   3.217   8.223  0.3311  1.0821  0.3243
 4694TIP3   OH235640   1.079   3.273   1.464 -0.4280  0.2947  0.0292
 4694TIP3    H135641   1.170   3.299   1.477 -0.9421  3.5758 -1.8975
 4694TIP3    H235642   1.035   3.299   1.545  0.1279 -0.5644  0.6386
 4695TIP3   OH235643   1.823   4.109   6.963 -0.7998  0.0836 -0.4080
 4695TIP3    H135644   1.772   4.189   6.966 -1.6668 -0.4738  1.2863
 4695TIP3    H235645   1.867   4.106   7.048 -0.6237 -1.1193 -0.5236
 4696TIP3   OH235646   2.847   1.267   6.458 -0.0717 -0.6176 -0.1420
 4696TIP3    H135647   2.801   1.183   6.470  0.2443 -0.7627  0.0865
 4696TIP3    H235648   2.929   1.243   6.416 -0.1795 -0.3644 -0.4977
 4697TIP3   OH235649   3.830   6.965   0.948  0.1162 -0.1540  0.2636
 4697TIP3    H135650   3.912   6.958   0.997 -0.1035  0.4235  0.7290
 4697TIP3    H235651   3.776   7.025   1.000 -0.0740  0.5932 -0.7585
 4698TIP3   OH235652   3.994   3.368   0.204 -0.2093 -0.0325  0.1097
 4698TIP3    H135653   3.937   3.411   0.140 -1.1391 -1.6408 -0.2218
 4698TIP3    H235654   4.010   3.434   0.271 -0.1480  1.3416 -1.2112
 4699TIP3   OH235655   4.260   6.938   7.458  0.3321  0.0652  0.3435
 4699TIP3    H135656   4.198   6.952   7.386 -0.0872  0.7309  0.8210
 4699TIP3    H235657   4.346   6.957   7.420  0.1183  0.3836  0.0119
 4700TIP3   OH235658   5.641   6.413   7.228  0.1247  0.0579  0.4418
 4700TIP3    H135659   5.640   6.324   7.193 -0.5440 -0.5871  2.0293
 4700TIP3    H235660   5.551   6.429   7.256  0.2199  1.2801  0.1134
 4701TIP3   OH235661   1.966   6.106   0.069 -0.8582 -0.1660  0.9788
 4701TIP3    H135662   2.011   6.032   0.028 -2.5105 -1.6954  1.7710
 4701TIP3    H235663   2.029   6.177   0.065  0.5628 -1.4147 -0.4301
 4702TIP3   OH235664   2.171   2.548   8.075  0.1797 -0.0105 -0.2929
 4702TIP3    H135665   2.113   2.474   8.060 -0.0257  0.3185 -1.2193
 4702TIP3    H235666   2.138   2.589   8.155 -1.9563  1.1377 -1.6502
 4703TIP3   OH235667   6.818   4.807   1.086  0.3426  0.2059 -0.4569
 4703TIP3    H135668   6.813   4.765   1.000  0.3818 -0.7589 -0.0049
 4703TIP3    H235669   6.747   4.871   1.086 -0.5473 -0.7707 -0.6876
 4704TIP3   OH235670   3.881   5.090   7.371 -0.6107 -0.1252 -0.8404
 4704TIP3    H135671   3.849   5.012   7.326 -0.0401 -2.2101  2.0939
 4704TIP3    H235672   3.857   5.077   7.462 -1.1063  3.5485 -0.3061
 4705TIP3   OH235673   6.079   3.051   1.196 -0.1286 -0.1310  0.3457
 4705TIP3    H135674   6.050   3.057   1.105 -0.0885 -0.1220  0.3337
 4705TIP3    H235675   6.171   3.025   1.190 -1.0071 -3.7745  0.4179
 4706TIP3   OH235676   2.498   2.583   1.739 -0.2482  1.1899 -0.0487
 4706TIP3    H135677   2.424   2.559   1.683 -0.2437  0.7653  0.1229
 4706TIP3    H235678   2.487   2.677   1.755 -1.4484  0.8861  1.0156
 4707TIP3   OH235679   2.637   1.447   2.653 -0.2600  0.4709  0.7080
 4707TIP3    H135680   2.726   1.482   2.658 -0.1693  0.2294  0.7871
 4707TIP3    H235681   2.589   1.512   2.601 -0.2406  1.0108  1.3467
 4708TIP3   OH235682   5.394   5.588   1.331 -0.4105  0.1216 -0.4009
 4708TIP3    H135683   5.430   5.503   1.307  2.0758  0.7385  0.9177
 4708TIP3    H235684   5.461   5.629   1.385 -0.8209  3.5842 -2.2261
 4709TIP3   OH235685   5.575   6.761   0.147  0.4071 -0.1624  0.5473
 4709TIP3    H135686   5.563   6.842   0.097  2.7402  0.4573  0.8638
 4709TIP3    H235687   5.646   6.715   0.103 -0.5866 -1.8700  0.6379
 4710TIP3   OH235688   6.604   5.903   2.094  0.3536  0.1596  0.3004
 4710TIP3    H135689   6.548   5.945   2.029  1.6157 -0.7875 -1.4834
 4710TIP3    H235690   6.670   5.969   2.116  1.5261 -0.3473 -1.4755
 4711TIP3   OH235691   1.600   2.817   7.282 -0.2664 -0.2938  0.5075
 4711TIP3    H135692   1.641   2.816   7.368 -1.0161 -2.8762  0.9243
 4711TIP3    H235693   1.534   2.885   7.288  0.4381  0.3264  1.5900
 4712TIP3   OH235694   5.572   2.329   7.072  0.2230  0.2665  0.5178
 4712TIP3    H135695   5.584   2.419   7.042 -0.6850 -0.0514 -0.8691
 4712TIP3    H235696   5.477   2.317   7.077  0.3316 -0.4683  1.2018
 4713TIP3   OH235697   2.811   3.600   8.062  0.3905 -0.0085  0.2411
 4713TIP3    H135698   2.876   3.668   8.045 -0.2178  0.1453 -1.7156
 4713TIP3    H235699   2.798   3.558   7.977 -0.7224 -1.2484  0.9900
 4714TIP3   OH235700   0.105   2.741   7.111  0.3350 -0.3475 -0.1782
 4714TIP3    H135701   0.054   2.736   7.192 -2.1037 -0.5195 -1.6148
 4714TIP3    H235702   0.159   2.662   7.111 -0.7744 -1.1282  0.5811
 4715TIP3   OH235703   5.473   2.462   0.812 -0.5399  0.5774 -0.3234
 4715TIP3    H135704   5.456   2.443   0.719  1.1509  3.4161 -1.3232
 4715TIP3    H235705   5.548   2.407   0.835 -1.8599 -1.2418 -0.1107
 4716TIP3   OH235706   5.683   4.989   1.201  0.0940  0.6749  0.1871
 4716TIP3    H135707   5.721   5.002   1.114 -0.1085  2.6034  0.3521
 4716TIP3    H235708   5.614   4.924   1.187 -0.4695  1.5364 -1.2709
 4717TIP3   OH235709   4.777   3.443   2.005  0.0167 -0.2522 -0.1192
 4717TIP3    H135710   4.759   3.390   2.083 -0.0014  2.2143  1.6733
 4717TIP3    H235711   4.868   3.471   2.015 -0.5514  1.6932  0.1333
 4718TIP3   OH235712   6.248   6.688   7.227  0.5385 -0.4441 -0.4021
 4718TIP3    H135713   6.184   6.752   7.194  0.2079 -0.4031  0.3067
 4718TIP3    H235714   6.215   6.604   7.195 -0.1220 -0.4733  0.3194
 4719TIP3   OH235715   4.209   3.509   0.609 -0.5394  0.2679 -0.4394
 4719TIP3    H135716   4.287   3.529   0.660  1.7003 -1.3426 -2.9561
 4719TIP3    H235717   4.187   3.419   0.632 -1.6995  0.6797  0.1924
 4720TIP3   OH235718   4.079   4.283   7.348  0.0443  0.0218  0.1182
 4720TIP3    H135719   4.016   4.306   7.280  1.3163  1.5866 -0.6050
 4720TIP3    H235720   4.033   4.219   7.402 -2.1353  1.0328 -0.3963
 4721TIP3   OH235721   5.412   0.660   2.452  0.0963 -0.1329  0.0226
 4721TIP3    H135722   5.497   0.619   2.438  0.0711 -0.5916  1.1023
 4721TIP3    H235723   5.354   0.617   2.389  0.3511 -0.8749  0.2816
 4722TIP3   OH235724   5.665   5.043   7.847 -0.5193 -0.0432  0.1331
 4722TIP3    H135725   5.640   5.134   7.864 -1.5453 -0.3309  0.2478
 4722TIP3    H235726   5.622   5.021   7.765  1.9815  0.4073 -1.3881
 4723TIP3   OH235727   0.476   5.829   6.611  0.1448 -0.0509 -0.3766
 4723TIP3    H135728   0.546   5.821   6.546  1.0349 -1.1222  0.6654
 4723TIP3    H235729   0.440   5.741   6.619 -2.4913  0.7423 -2.0481
 4724TIP3   OH235730   0.701   0.084   8.202 -0.2991  0.1679  0.3542
 4724TIP3    H135731   0.745  -0.001   8.192 -0.0069  0.2637  0.8017
 4724TIP3    H235732   0.611   0.062   8.227 -0.8808 -0.0660 -1.7658
 4725TIP3   OH235733   1.594   2.186   6.216 -1.3512 -0.4576  0.3839
 4725TIP3    H135734   1.611   2.278   6.238 -2.6574  0.8321 -3.2858
 4725TIP3    H235735   1.508   2.187   6.174 -1.7240 -3.5205  0.8362
 4726TIP3   OH235736   6.370   0.704   2.222  0.4101 -0.3631  0.5818
 4726TIP3    H135737   6.381   0.612   2.195  1.8363 -0.5050  1.5274
 4726TIP3    H235738   6.421   0.754   2.157  1.0798 -0.4131  1.0556
 4727TIP3   OH235739   3.524   4.124   0.703  0.1387  0.2256 -0.1277
 4727TIP3    H135740   3.475   4.045   0.722 -0.1797  0.7986  1.6544
 4727TIP3    H235741   3.519   4.176   0.784  1.4603  1.4677 -0.7827
 4728TIP3   OH235742   0.760   2.618   8.228  0.4698 -0.6019  0.6811
 4728TIP3    H135743   0.710   2.694   8.199 -0.6914 -0.7452  2.2202
 4728TIP3    H235744   0.848   2.634   8.195  0.3385  1.5706  1.2493
 4729TIP3   OH235745   3.106   2.571   1.697 -0.0720  0.1635  0.3833
 4729TIP3    H135746   3.031   2.520   1.668  0.0348 -0.1756  0.6933
 4729TIP3    H235747   3.167   2.506   1.733 -0.1988  0.5655  1.3507
 4730TIP3   OH235748   1.933   1.732   2.356  0.2103 -0.4348 -0.2045
 4730TIP3    H135749   1.970   1.676   2.288  0.8984 -0.5115  0.2110
 4730TIP3    H235750   1.905   1.671   2.425 -1.8122 -0.4611 -1.0027
 4731TIP3   OH235751   4.830   3.268   0.747 -0.4660  0.7638 -0.0510
 4731TIP3    H135752   4.913   3.278   0.793  0.1135 -2.7512 -0.0151
 4731TIP3    H235753   4.847   3.298   0.658  0.8179  0.2755  0.0147
 4732TIP3   OH235754   5.704   4.636   0.043 -0.0979 -0.1662 -0.4087
 4732TIP3    H135755   5.707   4.544   0.067 -1.1039 -0.7738 -2.3367
 4732TIP3    H235756   5.637   4.640  -0.026 -0.1426  2.0232 -0.3122
 4733TIP3   OH235757   2.942   2.504   2.229  0.1573  0.1543  0.6362
 4733TIP3    H135758   2.854   2.474   2.203  0.4652  0.8228 -1.3050
 4733TIP3    H235759   2.934   2.599   2.234  0.6184  0.1717  1.1078
 4734TIP3   OH235760   3.665   1.591   0.492 -0.2776  0.1024 -0.1492
 4734TIP3    H135761   3.718   1.587   0.571 -0.6139  1.8751  0.2175
 4734TIP3    H235762   3.682   1.678   0.456 -0.5117 -0.4870 -1.7737
 4735TIP3   OH235763   1.773   5.307   0.886 -0.1797 -0.1030  0.1873
 4735TIP3    H135764   1.725   5.226   0.870 -0.1578 -0.1455  0.3379
 4735TIP3    H235765   1.803   5.334   0.799  0.9528 -0.9656  0.2697
 4736TIP3   OH235766   4.751   3.734   6.256  0.4078  0.0684 -0.0650
 4736TIP3    H135767   4.796   3.665   6.208  1.0611  2.2925 -2.9219
 4736TIP3    H235768   4.815   3.766   6.320  1.2179  0.1021 -0.8824
 4737TIP3   OH235769   2.524   3.089   5.979 -0.0507 -0.3403 -0.7647
 4737TIP3    H135770   2.584   3.131   5.917  1.8356 -0.7033  0.7173
 4737TIP3    H235771   2.577   3.022   6.023 -2.0354 -1.9190 -0.6010
 4738TIP3   OH235772   0.895   2.467   2.398 -0.0684  0.4726  0.5817
 4738TIP3    H135773   0.890   2.487   2.491  0.5589  0.6989  0.5744
 4738TIP3    H235774   0.975   2.511   2.368  2.6210 -3.5821  0.9937
 4739TIP3   OH235775   6.949   3.896   1.925 -0.0702  0.0863  0.6612
 4739TIP3    H135776   6.934   3.868   1.835  1.4698  0.4237  0.2739
 4739TIP3    H235777   6.946   3.992   1.921  1.5634  0.1538  0.6526
 4740TIP3   OH235778   2.510   4.529   1.711  0.6971 -0.2477 -0.6162
 4740TIP3    H135779   2.440   4.550   1.650 -0.6364 -0.6496  0.7036
 4740TIP3    H235780   2.473   4.460   1.767  1.0963  1.4416  1.9047
 4741TIP3   OH235781   5.847   1.806   8.278 -0.1382 -0.1452  0.6069
 4741TIP3    H135782   5.923   1.863   8.285  0.0537 -0.5982  3.2486
 4741TIP3    H235783   5.882   1.724   8.242  0.6483 -0.3610  1.8220
 4742TIP3   OH235784   4.903   3.260   8.039  0.4941 -0.2468 -0.0056
 4742TIP3    H135785   4.917   3.212   8.120  0.6041  1.1548  0.8501
 4742TIP3    H235786   4.972   3.230   7.980 -0.0580 -1.8528  0.1184
 4743TIP3   OH235787   6.588   1.918   8.187  0.9793 -0.1539 -0.3875
 4743TIP3    H135788   6.683   1.924   8.177  1.0995 -2.0685 -0.7964
 4743TIP3    H235789   6.563   1.842   8.134 -1.3584  2.6236 -3.6834
 4744TIP3   OH235790   6.142   0.486   7.703 -0.1695 -0.0728 -0.2359
 4744TIP3    H135791   6.121   0.430   7.628  1.2161 -1.2344  0.1862
 4744TIP3    H235792   6.229   0.521   7.683 -0.5790  1.1129 -0.0032
 4745TIP3   OH235793   2.140   3.874   1.544  0.2728  0.3118  0.0836
 4745TIP3    H135794   2.052   3.911   1.544 -0.0143 -0.3702  0.6151
 4745TIP3    H235795   2.190   3.932   1.603 -0.7003 -1.3216  2.6612
 4746TIP3   OH235796   5.410   2.286   1.597  0.5565  0.0496 -0.4119
 4746TIP3    H135797   5.341   2.346   1.568  0.1561 -1.1934 -2.1376
 4746TIP3    H235798   5.491   2.333   1.581  0.2124  0.4781 -0.9337
 4747TIP3   OH235799   5.529   5.203   1.241 -0.1421 -0.3891  0.0212
 4747TIP3    H135800   5.512   5.207   1.335  0.7133  0.2268  0.1504
 4747TIP3    H235801   5.611   5.155   1.233  0.2734  0.3672 -0.3523
 4748TIP3   OH235802   5.499   2.982   7.782 -0.0380 -0.3689 -0.3910
 4748TIP3    H135803   5.453   3.014   7.704 -1.0398  0.3069  0.4416
 4748TIP3    H235804   5.433   2.930   7.828 -0.7023  2.2472  1.8429
 4749TIP3   OH235805   5.367   3.612   1.467 -0.5699  0.1661  0.1876
 4749TIP3    H135806   5.459   3.638   1.463 -0.3890 -0.5107 -0.1459
 4749TIP3    H235807   5.320   3.692   1.490  0.3539  0.0020  2.9112
 4750TIP3   OH235808   4.952   6.532   1.479  0.2296  0.0137  0.3131
 4750TIP3    H135809   4.906   6.490   1.552  0.9989 -3.1425 -0.8418
 4750TIP3    H235810   5.037   6.487   1.475  0.0151 -0.3405 -2.8095
 4751TIP3   OH235811   2.655   2.549   7.999 -0.6951  0.1888 -0.1543
 4751TIP3    H135812   2.586   2.483   8.007 -0.2719 -0.0680  2.0253
 4751TIP3    H235813   2.736   2.499   8.000 -0.4036  0.5446 -1.9724
 4752TIP3   OH235814   3.965   5.111   7.928  0.5907 -0.3124 -0.0788
 4752TIP3    H135815   3.990   5.031   7.973 -0.4373 -0.1426  0.8173
 4752TIP3    H235816   4.049   5.152   7.903  1.1255 -1.8297 -0.9021
 4753TIP3   OH235817   4.388   5.574   0.643 -0.3257  0.0860  0.0503
 4753TIP3    H135818   4.416   5.536   0.560  0.1460  0.0287  0.2277
 4753TIP3    H235819   4.360   5.499   0.696 -1.3450  0.2010 -0.3218
 4754TIP3   OH235820   0.987   6.926   0.116  1.1148  0.5996  0.5674
 4754TIP3    H135821   0.965   7.017   0.133 -2.2172 -0.4351  2.8045
 4754TIP3    H235822   0.932   6.901   0.042  0.7114 -0.0259  1.0739
 4755TIP3   OH235823   2.635   4.464   0.212  0.2658 -0.4203 -0.3552
 4755TIP3    H135824   2.629   4.381   0.164  1.2612 -0.9371  0.3738
 4755TIP3    H235825   2.703   4.449   0.277  0.0502  0.7909  0.1778
 4756TIP3   OH235826   3.118   4.531   1.408  0.2749 -0.3593  0.0318
 4756TIP3    H135827   3.183   4.557   1.473  1.8510  0.3430 -1.7556
 4756TIP3    H235828   3.062   4.609   1.398  1.0524  0.1286 -0.6332
 4757TIP3   OH235829   3.388   5.304   2.137  0.3626 -0.0962  0.1804
 4757TIP3    H135830   3.327   5.377   2.144  0.4445  0.0328 -0.3835
 4757TIP3    H235831   3.341   5.230   2.175  1.0721  0.6809  2.7529
 4758TIP3   OH235832   4.956   5.222   1.991 -0.0999  0.2051  0.0749
 4758TIP3    H135833   4.984   5.141   2.035 -0.5363 -0.0096 -0.0347
 4758TIP3    H235834   5.013   5.290   2.027  0.8135 -0.2736 -0.4165
 4759TIP3   OH235835   6.785   3.159   0.672  0.1375 -0.1658 -0.5198
 4759TIP3    H135836   6.830   3.079   0.644  1.7711  1.2877 -2.3184
 4759TIP3    H235837   6.772   3.208   0.591 -2.2566  0.7471  0.3347
 4760TIP3   OH235838   5.216   3.579   2.388 -0.4076  0.7227  0.0423
 4760TIP3    H135839   5.287   3.515   2.389  0.5206  1.7209  1.4259
 4760TIP3    H235840   5.242   3.645   2.452 -2.5456  1.1736  0.5211
 4761TIP3   OH235841   2.767   1.023   6.529 -0.2056  0.2126 -0.2631
 4761TIP3    H135842   2.736   0.970   6.602 -0.2072 -0.1163 -0.5015
 4761TIP3    H235843   2.830   0.968   6.483  0.7360  0.8696  0.2020
 4762TIP3   OH235844   6.632   5.788   1.587  0.8308  0.1302  0.1834
 4762TIP3    H135845   6.704   5.754   1.534  0.7008  0.5508 -0.2693
 4762TIP3    H235846   6.634   5.734   1.667  0.3026 -1.3117 -0.7239
 4763TIP3   OH235847   3.722   6.873   0.087 -0.0081 -0.2649 -0.1552
 4763TIP3    H135848   3.680   6.871   0.173 -1.0618  0.2886 -0.6474
 4763TIP3    H235849   3.673   6.809   0.035 -1.1367  1.3069 -1.1125
 4764TIP3   OH235850   6.780   2.760   0.279 -0.8228  0.1407 -0.1044
 4764TIP3    H135851   6.780   2.825   0.349 -0.3315 -0.2918  0.3104
 4764TIP3    H235852   6.854   2.703   0.299 -0.2535  0.3967 -1.3540
 4765TIP3   OH235853   6.903   1.774   6.915 -0.6599 -0.3806  0.5755
 4765TIP3    H135854   6.818   1.803   6.882 -0.0038  2.5704  1.1913
 4765TIP3    H235855   6.885   1.738   7.002 -1.3844 -0.6313  0.3240
 4766TIP3   OH235856   3.095   0.058   1.965 -0.3082 -0.1415  0.1894
 4766TIP3    H135857   3.125  -0.030   1.986 -0.1977 -0.1698 -0.0772
 4766TIP3    H235858   3.125   0.072   1.875 -1.9862 -0.5879 -0.4890
 4767TIP3   OH235859   5.388   6.815   2.293  0.1443 -0.4155 -0.0574
 4767TIP3    H135860   5.417   6.729   2.323  0.3801  0.2575  1.7611
 4767TIP3    H235861   5.394   6.810   2.197  3.7229 -1.2323  0.0686
 4768TIP3   OH235862   1.788   0.343   1.389 -0.2881 -0.1767  0.1472
 4768TIP3    H135863   1.734   0.417   1.416 -1.0946 -0.3862 -0.8550
 4768TIP3    H235864   1.770   0.332   1.296  0.8084 -0.8227 -0.0153
 4769TIP3   OH235865   0.111   0.802   7.368  0.0377  0.3089  0.3797
 4769TIP3    H135866   0.178   0.752   7.414  0.0267 -0.9485 -0.9273
 4769TIP3    H235867   0.058   0.737   7.323  0.9171  1.4683 -2.6106
 4770TIP3   OH235868   0.958   5.309   1.668 -0.8757  0.2928  0.3998
 4770TIP3    H135869   0.864   5.289   1.672 -0.6962 -1.1598 -1.4490
 4770TIP3    H235870   0.999   5.235   1.714 -0.5582 -0.0431 -0.4102
 4771TIP3   OH235871   1.827   3.712   2.276 -0.8025 -0.4915  0.1500
 4771TIP3    H135872   1.778   3.705   2.194  0.0349 -1.7984 -0.2797
 4771TIP3    H235873   1.790   3.644   2.332 -1.6148  0.6346  1.0164
 4772TIP3   OH235874   4.473   1.676   2.940  0.5460 -0.1767  0.1713
 4772TIP3    H135875   4.489   1.585   2.965 -0.0761 -0.6328 -1.0198
 4772TIP3    H235876   4.510   1.684   2.852 -1.1118  0.1441 -0.5390
 4773TIP3   OH235877   5.894   6.537   1.916  0.2841  0.3849 -0.3395
 4773TIP3    H135878   5.807   6.498   1.926  0.6194 -0.3735 -0.3320
 4773TIP3    H235879   5.879   6.615   1.862 -0.3209 -0.0446 -0.8074
 4774TIP3   OH235880   2.411   3.046   7.928  0.1687 -0.3268  0.0729
 4774TIP3    H135881   2.465   3.126   7.932 -0.5313  0.2133 -0.9410
 4774TIP3    H235882   2.470   2.980   7.891  0.3011  0.1224 -0.5387
 4775TIP3   OH235883   4.853   0.815   1.149 -0.3453  0.7040  0.0159
 4775TIP3    H135884   4.881   0.755   1.080  0.7923 -1.7396  2.4134
 4775TIP3    H235885   4.763   0.791   1.167  0.4229 -1.2203  1.7048
 4776TIP3   OH235886   2.320   4.323   6.069 -0.3177 -0.0874  0.1363
 4776TIP3    H135887   2.397   4.268   6.082  0.4099  0.6337 -0.9694
 4776TIP3    H235888   2.253   4.263   6.035 -0.0643 -0.5998  0.5241
 4777TIP3   OH235889   3.110   3.262   2.522  0.3921 -0.0674 -0.0786
 4777TIP3    H135890   3.059   3.331   2.480  1.6903 -0.0170 -1.6565
 4777TIP3    H235891   3.140   3.301   2.604 -0.5037  0.5547 -0.0300
 4778TIP3   OH235892   2.005   1.335   0.548  0.4871  0.4289  0.4519
 4778TIP3    H135893   2.064   1.398   0.507  2.2969  0.0025  2.2416
 4778TIP3    H235894   1.974   1.380   0.627  0.9290 -0.5200  1.1699
 4779TIP3   OH235895   3.036   0.179   2.209 -0.2802 -0.0528  0.2596
 4779TIP3    H135896   3.066   0.150   2.123  0.3408  2.0777 -0.3102
 4779TIP3    H235897   2.947   0.145   2.216 -1.4672  2.0467 -2.5259
 4780TIP3   OH235898   5.695   4.969   1.926 -0.2931  0.5628 -0.0601
 4780TIP3    H135899   5.725   4.904   1.990 -2.9446  0.0832  0.8059
 4780TIP3    H235900   5.749   4.952   1.848  2.5937  0.7374  1.7398
 4781TIP3   OH235901   0.016   2.345   7.092  0.1003  0.1941  0.0644
 4781TIP3    H135902   0.018   2.345   6.996  0.7572 -2.4558  0.0040
 4781TIP3    H235903   0.104   2.374   7.118  0.8419 -1.6461 -0.2412
 4782TIP3   OH235904   6.552   0.176   2.522 -0.3807 -0.3314  0.6008
 4782TIP3    H135905   6.620   0.236   2.491 -0.7717  0.0559  0.4831
 4782TIP3    H235906   6.471   0.209   2.483 -1.1419  0.9838  3.0610
 4783TIP3   OH235907   6.605   3.188   0.394  0.1215 -0.1122 -0.2231
 4783TIP3    H135908   6.604   3.110   0.338 -1.1317 -0.9824  0.9563
 4783TIP3    H235909   6.512   3.211   0.404  0.3298  0.1472  1.2997
 4784TIP3   OH235910   2.597   4.148   7.120 -0.1309 -0.3398 -0.2070
 4784TIP3    H135911   2.594   4.236   7.158  0.0923 -0.1512 -0.6126
 4784TIP3    H235912   2.580   4.089   7.193 -0.2285  0.0394  0.0785
 4785TIP3   OH235913   4.703   1.715   0.958 -0.1643  0.1600 -0.1885
 4785TIP3    H135914   4.795   1.731   0.934 -0.3353  0.5059 -0.6256
 4785TIP3    H235915   4.677   1.793   1.007 -0.0760 -0.1665  0.3925
 4786TIP3   OH235916   1.835   3.837   0.091 -0.8253  0.0630  0.2660
 4786TIP3    H135917   1.781   3.892   0.034 -0.3801 -0.3700 -0.5830
 4786TIP3    H235918   1.811   3.865   0.179 -0.9616  1.2920 -0.1327
 4787TIP3   OH235919   4.351   6.668   7.553 -0.1012  0.7984  0.3886
 4787TIP3    H135920   4.443   6.648   7.572 -0.5696 -2.6489 -0.3008
 4787TIP3    H235921   4.350   6.762   7.538  3.2695  1.0102  0.6720
 4788TIP3   OH235922   3.982   1.919   1.812 -0.5300 -0.3003 -0.2156
 4788TIP3    H135923   4.040   1.880   1.748  1.1166  0.8325  0.5219
 4788TIP3    H235924   4.022   1.899   1.897 -0.7618  1.1798  0.2682
 4789TIP3   OH235925   3.768   1.881   1.419 -0.4032 -0.0338  0.0328
 4789TIP3    H135926   3.772   1.847   1.508 -1.8250  0.6780  0.3972
 4789TIP3    H235927   3.685   1.927   1.415  0.6406  1.8686 -0.9817
 4790TIP3   OH235928   6.724   6.697   6.784 -0.2359 -0.4965 -0.0275
 4790TIP3    H135929   6.756   6.769   6.839 -1.4950 -0.3632  0.5702
 4790TIP3    H235930   6.673   6.741   6.716  0.4716 -0.7338 -0.7369
 4791TIP3   OH235931   6.089   0.103   2.170 -0.5124 -0.1454 -0.5612
 4791TIP3    H135932   6.074   0.103   2.265  1.2575 -0.0014 -0.2633
 4791TIP3    H235933   6.183   0.111   2.160 -0.6721 -0.1216 -2.3553
 4792TIP3   OH235934   6.090   1.536   6.506  0.7472  0.3743 -0.2492
 4792TIP3    H135935   6.068   1.628   6.495 -0.1141  0.1808 -0.2366
 4792TIP3    H235936   6.076   1.519   6.599  0.4334  0.1181 -0.3408
 4793TIP3   OH235937   2.797   3.460   7.323 -0.2603  0.2009  0.1735
 4793TIP3    H135938   2.853   3.471   7.400  1.2793 -0.3568 -0.8172
 4793TIP3    H235939   2.780   3.366   7.319 -1.6470  0.4088  0.6887
 4794TIP3   OH235940   5.939   2.687   1.322  0.0346  0.5785 -0.3765
 4794TIP3    H135941   5.915   2.696   1.230 -0.4913 -0.0103 -0.3088
 4794TIP3    H235942   6.020   2.637   1.322  0.7167  1.6483 -0.5631
 4795TIP3   OH235943   1.166   2.327   1.285  0.4980 -0.2373  0.2438
 4795TIP3    H135944   1.253   2.329   1.324  0.3531  0.5804  0.5378
 4795TIP3    H235945   1.109   2.369   1.350  0.1726  0.7637 -0.6514
 4796TIP3   OH235946   1.218   6.329   0.732 -0.4080 -0.2899  0.7838
 4796TIP3    H135947   1.313   6.338   0.725 -0.4967 -0.4711 -1.4781
 4796TIP3    H235948   1.203   6.235   0.725 -0.7390 -0.3634  2.1313
 4797TIP3   OH235949   3.473   0.591   1.506  0.8363 -0.3401  0.5184
 4797TIP3    H135950   3.401   0.591   1.569 -0.1621 -1.3703 -0.5494
 4797TIP3    H235951   3.443   0.531   1.437  1.4965  1.3639 -1.3306
 4798TIP3   OH235952   6.729   1.362   7.343  0.1776  0.1184 -0.3002
 4798TIP3    H135953   6.685   1.406   7.270 -0.7843  0.0873  0.2410
 4798TIP3    H235954   6.659   1.319   7.391  1.1705 -2.8162 -1.2912
 4799TIP3   OH235955   5.194   0.381   6.724  0.2071 -0.4397  0.0737
 4799TIP3    H135956   5.261   0.449   6.735  0.5652 -0.6725 -0.5753
 4799TIP3    H235957   5.194   0.363   6.630  0.3221 -1.5459  0.2772
 4800TIP3   OH235958   3.428   4.353   7.578  1.1472 -0.2534  0.2992
 4800TIP3    H135959   3.487   4.427   7.594  1.0683  0.1928 -1.3392
 4800TIP3    H235960   3.472   4.302   7.510 -0.3734  0.1588 -1.0490
 4801TIP3   OH235961   2.042   2.630   7.744  0.6298 -0.4199 -0.0675
 4801TIP3    H135962   1.999   2.674   7.818  0.3898  0.5685 -0.7697
 4801TIP3    H235963   1.989   2.552   7.728  0.9831 -0.9305  1.1170
 4802TIP3   OH235964   3.652   3.938   7.678 -0.7370  0.2946 -0.1523
 4802TIP3    H135965   3.580   3.999   7.696  0.2104  1.1070  1.0799
 4802TIP3    H235966   3.705   3.940   7.757 -0.3445 -1.7120 -0.3260
 4803TIP3   OH235967   1.399   2.043   2.669 -0.1413  0.0727  0.0308
 4803TIP3    H135968   1.330   2.099   2.634  0.9238  0.0561 -2.2896
 4803TIP3    H235969   1.357   1.958   2.683 -0.9972  0.5555  0.4591
 4804TIP3   OH235970   0.726   2.462   0.754 -0.2267 -0.7107  0.1916
 4804TIP3    H135971   0.688   2.390   0.703  1.1746 -1.1852 -0.2269
 4804TIP3    H235972   0.703   2.541   0.705 -0.5386 -0.9931 -0.1235
 4805TIP3   OH235973   1.444   2.741   8.090  0.1058 -0.0585  0.2095
 4805TIP3    H135974   1.474   2.776   8.006 -0.5427  0.4879  0.1998
 4805TIP3    H235975   1.451   2.646   8.080  0.9920  0.0268 -0.0973
 4806TIP3   OH235976   3.419   1.414   0.765 -0.6929  0.3440 -0.2554
 4806TIP3    H135977   3.360   1.396   0.838 -0.9180  0.4499 -0.4085
 4806TIP3    H235978   3.501   1.441   0.806  0.1830 -2.4438  0.0521
 4807TIP3   OH235979   0.738   2.541   1.661  0.1305 -0.5086  1.0947
 4807TIP3    H135980   0.722   2.561   1.568  0.9861  0.2886  1.0985
 4807TIP3    H235981   0.819   2.588   1.681  0.3460 -1.2715  2.0602
 4808TIP3   OH235982   3.943   6.135   7.693 -0.3008  0.4822  0.3863
 4808TIP3    H135983   3.976   6.047   7.714  0.1591  0.3413 -0.8605
 4808TIP3    H235984   3.858   6.140   7.739 -0.3061 -0.5849  0.5225
 4809TIP3   OH235985   0.798   6.309   1.852 -0.0339 -0.2100  0.3164
 4809TIP3    H135986   0.805   6.242   1.921 -2.2914 -0.4826  0.3584
 4809TIP3    H235987   0.843   6.385   1.888  0.3229 -0.8879  1.3667
 4810TIP3   OH235988   5.047   5.796   7.489 -0.1126 -0.4587  0.1619
 4810TIP3    H135989   4.962   5.767   7.519  1.3739 -3.9324  1.5340
 4810TIP3    H235990   5.082   5.849   7.561  0.3201 -2.1983  1.2789
 4811TIP3   OH235991   2.610   2.108   0.794  0.1349  0.1055 -0.0666
 4811TIP3    H135992   2.651   2.024   0.816 -1.8272 -0.5940  1.2124
 4811TIP3    H235993   2.606   2.155   0.877 -0.5296  0.6507 -0.4042
 4812TIP3   OH235994   1.641   1.110   7.609  0.4050 -0.0625  0.1203
 4812TIP3    H135995   1.628   1.015   7.614 -1.5262  0.1705  0.6452
 4812TIP3    H235996   1.694   1.131   7.686 -0.4928 -0.5532  0.8931
 4813TIP3   OH235997   3.479   4.131   7.727  0.4484 -0.8189  0.6363
 4813TIP3    H135998   3.484   4.173   7.813  0.3231 -0.1051  0.3063
 4813TIP3    H235999   3.474   4.204   7.665 -0.9760 -1.3380  0.1070
 4814TIP3   OH236000   0.448   3.771   6.888  0.1333  0.1139 -0.2006
 4814TIP3    H136001   0.456   3.799   6.796  1.3672 -0.6862 -0.3663
 4814TIP3    H236002   0.355   3.755   6.900 -0.0531  0.2730 -1.3162
 4815TIP3   OH236003   6.581   1.320   7.082  0.4970  0.1296  0.1756
 4815TIP3    H136004   6.670   1.284   7.078 -0.3956 -2.1090 -1.7293
 4815TIP3    H236005   6.580   1.390   7.018  1.2108  1.0898  1.1760
 4816TIP3   OH236006   0.798   2.955   7.949 -0.3147 -0.1549 -0.6861
 4816TIP3    H136007   0.873   2.992   7.996 -1.1716  0.3780  0.2897
 4816TIP3    H236008   0.721   2.985   7.997 -1.1753 -0.6678 -1.6851
 4817TIP3   OH236009   0.843   2.877   7.649 -0.3371  0.0961  0.1017
 4817TIP3    H136010   0.765   2.873   7.593 -1.9263 -0.4666  2.2478
 4817TIP3    H236011   0.827   2.950   7.708  0.5003 -0.3802  0.9438
 4818TIP3   OH236012   5.252   2.098   1.516  0.3419  0.4358 -0.1352
 4818TIP3    H136013   5.320   2.155   1.551  0.6458  1.4216 -2.1664
 4818TIP3    H236014   5.268   2.096   1.421 -0.8088 -1.5323 -0.3447
 4819TIP3   OH236015   3.298   1.344   1.183 -0.1487  0.6601 -0.3827
 4819TIP3    H136016   3.335   1.404   1.248 -0.7297  1.6306 -0.9099
 4819TIP3    H236017   3.373   1.320   1.128  0.1536  0.6483  0.0313
 4820TIP3   OH236018   0.819   3.308   6.100 -0.2714 -0.4781  0.2880
 4820TIP3    H136019   0.753   3.360   6.052  0.0481  1.6397  1.9781
 4820TIP3    H236020   0.855   3.369   6.164  3.9562 -1.2948 -1.0236
 4821TIP3   OH236021   5.923   0.311   0.052 -0.5585  0.6767  0.1495
 4821TIP3    H136022   5.855   0.374   0.027 -0.7597  0.3066 -0.2432
 4821TIP3    H236023   5.995   0.365   0.083 -0.8539  1.0904  0.1256
 4822TIP3   OH236024   2.479   3.025   7.419 -0.2507  0.0020  0.2534
 4822TIP3    H136025   2.399   3.045   7.371 -0.4382  1.6909  1.1851
 4822TIP3    H236026   2.549   3.048   7.358 -0.4738 -0.2946 -0.1186
 4823TIP3   OH236027   5.620   3.362   7.620  0.0296  0.0824 -0.1161
 4823TIP3    H136028   5.645   3.400   7.536  1.0597 -0.3635 -0.0254
 4823TIP3    H236029   5.691   3.301   7.641  0.8589  1.6366  2.0454
 4824TIP3   OH236030   2.146   6.587   6.343  0.0998  0.1079  0.7128
 4824TIP3    H136031   2.098   6.587   6.260 -1.8863 -1.2237  1.7670
 4824TIP3    H236032   2.171   6.678   6.356 -2.1001  0.8793  0.0199
 4825TIP3   OH236033   0.879   3.652   1.096  0.0049  0.5179  0.0356
 4825TIP3    H136034   0.877   3.740   1.133 -0.8544 -0.4389  2.5252
 4825TIP3    H236035   0.925   3.599   1.163  0.4995 -0.9380 -1.3765
 4826TIP3   OH236036   0.552   6.415   6.384 -0.1343 -0.2265 -0.1462
 4826TIP3    H136037   0.536   6.354   6.312  1.4813  1.1200 -1.7355
 4826TIP3    H236038   0.465   6.451   6.405 -0.6150 -0.4826 -1.5813
 4827TIP3   OH236039   2.678   6.144   6.995  0.7141  0.2577 -0.4495
 4827TIP3    H136040   2.740   6.194   7.047  1.8483 -0.2122 -1.3078
 4827TIP3    H236041   2.625   6.210   6.950 -0.4559  0.6741  1.4184
 4828TIP3   OH236042   1.227   3.560   0.284  0.9246  0.2169  0.1816
 4828TIP3    H136043   1.254   3.547   0.375 -0.0876  1.6155  0.7177
 4828TIP3    H236044   1.260   3.647   0.261  0.7855  0.0635 -0.6489
 4829TIP3   OH236045   3.418   5.095   1.562  0.6520  0.3888 -0.1456
 4829TIP3    H136046   3.348   5.048   1.518 -0.1935  2.2936 -0.9401
 4829TIP3    H236047   3.416   5.062   1.652 -1.5428  0.6896 -0.0395
 4830TIP3   OH236048   4.202   6.169   1.466 -0.4209 -0.5817 -0.2294
 4830TIP3    H136049   4.238   6.206   1.547  0.6387 -0.2104 -0.8517
 4830TIP3    H236050   4.265   6.102   1.440 -0.9113 -0.9073 -0.5856
 4831TIP3   OH236051   0.353   0.323   6.460 -0.1922  0.6397  0.1835
 4831TIP3    H136052   0.291   0.286   6.523  1.0685 -1.6647  0.1800
 4831TIP3    H236053   0.437   0.325   6.507 -0.0361  2.8805 -0.0912
 4832TIP3   OH236054   2.431   3.813   6.713 -0.1999  0.5329 -0.7211
 4832TIP3    H136055   2.367   3.746   6.691 -1.7454  1.4101  0.8397
 4832TIP3    H236056   2.493   3.812   6.640 -1.5259 -0.9101 -1.8988
 4833TIP3   OH236057   2.116   2.099   1.285  0.6204 -0.1882 -0.4181
 4833TIP3    H136058   2.185   2.093   1.219  0.3056  0.8373 -0.8539
 4833TIP3    H236059   2.068   2.178   1.262 -0.7282 -0.8969 -0.1491
 4834TIP3   OH236060   0.285   2.363   1.736  0.4264  0.5005 -0.2206
 4834TIP3    H136061   0.374   2.361   1.772  0.3843 -0.5898 -0.1431
 4834TIP3    H236062   0.233   2.407   1.803  0.1808 -2.1947  1.5322
 4835TIP3   OH236063   5.360   4.809   7.621 -0.1928  0.4533 -0.5104
 4835TIP3    H136064   5.343   4.716   7.607  0.5566  0.3573 -0.7999
 4835TIP3    H236065   5.323   4.852   7.543  1.0875  0.2189 -1.2709
 4836TIP3   OH236066   2.054   2.967   6.926  0.2289 -0.5145 -0.6430
 4836TIP3    H136067   2.048   2.872   6.912  0.8219 -0.5948 -0.3702
 4836TIP3    H236068   1.964   2.998   6.915 -0.2237 -1.3022  0.5680
 4837TIP3   OH236069   0.753   0.493   7.173 -0.0559  0.1395  0.2405
 4837TIP3    H136070   0.701   0.498   7.253  2.8675  0.3251  2.2744
 4837TIP3    H236071   0.710   0.555   7.113 -1.8667  0.6236  1.9266
 4838TIP3   OH236072   5.444   6.972   2.511 -0.0995  0.1261  0.0620
 4838TIP3    H136073   5.474   6.927   2.432 -2.0650 -1.7180  0.3034
 4838TIP3    H236074   5.516   6.960   2.574  0.5225 -0.3486 -0.7192
 4839TIP3   OH236075   4.789   1.724   1.347  0.0847  0.0281 -0.4675
 4839TIP3    H136076   4.736   1.650   1.377  0.1304  1.2283  3.1361
 4839TIP3    H236077   4.735   1.801   1.367  1.1630  1.0894 -1.5032
 4840TIP3   OH236078   0.179   1.617   0.366 -0.1003  0.2676  0.1722
 4840TIP3    H136079   0.115   1.582   0.305  0.6282 -0.4904 -0.1844
 4840TIP3    H236080   0.208   1.541   0.417 -1.0496  0.9598  1.8215
 4841TIP3   OH236081   2.718   3.207   8.230  0.9664 -0.1580  0.0025
 4841TIP3    H136082   2.683   3.277   8.174  0.9739  1.4291  1.8629
 4841TIP3    H236083   2.807   3.236   8.251  1.0005 -0.7673  0.7223
 4842TIP3   OH236084   6.154   0.305   0.440 -0.1740  0.1198 -0.4122
 4842TIP3    H136085   6.247   0.317   0.460 -0.1059  2.1318 -1.6551
 4842TIP3    H236086   6.140   0.211   0.450  1.8290 -0.1558  0.4343
 4843TIP3   OH236087   1.747   5.312   8.028 -0.7968 -0.5851 -0.0355
 4843TIP3    H136088   1.823   5.328   8.085 -0.4194  0.4518 -0.7956
 4843TIP3    H236089   1.712   5.228   8.058 -0.7334  0.0178  1.8470
 4844TIP3   OH236090   4.583   1.980   7.367 -0.1498  0.6559 -0.3008
 4844TIP3    H136091   4.511   1.919   7.377  0.9576 -0.4711  1.4299
 4844TIP3    H236092   4.622   1.959   7.282  1.4074 -2.5318  1.0370
 4845TIP3   OH236093   2.949   6.496   7.643  0.0102  0.1657 -0.4608
 4845TIP3    H136094   3.029   6.518   7.692 -0.3564  0.5017 -0.0016
 4845TIP3    H236095   2.932   6.573   7.589 -0.7381  0.6604  0.4365
 4846TIP3   OH236096   2.333   0.928   1.313  0.4384  0.0472 -0.0062
 4846TIP3    H136097   2.251   0.881   1.326 -0.4321  1.2770 -0.8085
 4846TIP3    H236098   2.388   0.902   1.387  0.3075 -2.7905 -0.7888
 4847TIP3   OH236099   6.040   4.374   2.198  0.6202 -0.6977  0.0747
 4847TIP3    H136100   6.094   4.341   2.126  0.5440 -0.7737  0.0518
 4847TIP3    H236101   6.006   4.457   2.166  2.2749  0.3086  0.8283
 4848TIP3   OH236102   1.265   4.086   8.137  0.1171  0.0791  0.5826
 4848TIP3    H136103   1.267   4.156   8.071 -1.8691 -0.2580  0.1167
 4848TIP3    H236104   1.222   4.125   8.213  0.1199 -0.2736  0.7675
 4849TIP3   OH236105   2.948   4.907   1.103  0.0186 -0.0364 -0.8802
 4849TIP3    H136106   2.889   4.912   1.178  0.3305  1.2686 -0.7001
 4849TIP3    H236107   2.930   4.987   1.053 -0.4206 -1.0248 -2.3858
 4850TIP3   OH236108   4.619   3.525   7.711  0.2866  0.5835 -0.7329
 4850TIP3    H136109   4.693   3.562   7.758  1.1518 -1.2296 -0.5789
 4850TIP3    H236110   4.570   3.477   7.778 -0.2805  0.6549 -1.0877
 4851TIP3   OH236111   3.590   2.893   8.251 -0.3864  0.6879  0.4845
 4851TIP3    H136112   3.536   2.828   8.296 -0.5200  1.1057  0.9323
 4851TIP3    H236113   3.543   2.909   8.169 -0.5320  0.4710  0.5221
 4852TIP3   OH236114   5.852   4.474   0.648 -0.2287  0.0396  0.3725
 4852TIP3    H136115   5.879   4.446   0.735  0.7235  0.2964  0.1661
 4852TIP3    H236116   5.888   4.408   0.589 -2.8791 -1.5003  0.3088
 4853TIP3   OH236117   5.061   2.902   7.776  0.5565  0.4801 -0.3170
 4853TIP3    H136118   5.094   2.879   7.689  0.5087 -0.0774 -0.1892
 4853TIP3    H236119   4.973   2.937   7.759  0.1566 -0.5391 -0.4112
 4854TIP3   OH236120   4.897   4.682   0.692 -0.0964  0.0280 -0.5001
 4854TIP3    H136121   4.855   4.759   0.731 -1.2607  0.0687 -1.7576
 4854TIP3    H236122   4.917   4.707   0.602 -0.6382 -1.1724 -0.9825
 4855TIP3   OH236123   2.075   3.296   1.347  0.1747 -0.2096 -0.5084
 4855TIP3    H136124   2.111   3.367   1.400 -0.2416  1.1787 -2.0284
 4855TIP3    H236125   2.119   3.304   1.263 -0.8904 -0.8929 -1.1460
 4856TIP3   OH236126   2.485   2.343   0.201  0.1146 -0.1051 -0.1247
 4856TIP3    H136127   2.480   2.417   0.141 -0.0460 -1.0939 -1.3661
 4856TIP3    H236128   2.404   2.346   0.251  0.6156  1.2110  0.6619
 4857TIP3   OH236129   1.180   1.469   0.176 -0.1220  0.1210 -0.0058
 4857TIP3    H136130   1.254   1.519   0.142  0.1234  0.5373  1.0768
 4857TIP3    H236131   1.107   1.494   0.120  0.4584  0.0146 -0.8362
 4858TIP3   OH236132   5.227   6.137   0.546 -0.4968 -0.1457 -0.1799
 4858TIP3    H136133   5.267   6.224   0.544 -0.9315  0.0496 -0.6191
 4858TIP3    H236134   5.277   6.086   0.482 -0.5810 -0.0687 -0.3065
 4859TIP3   OH236135   4.510   5.412   1.652 -0.4096  0.2339 -0.2174
 4859TIP3    H136136   4.527   5.499   1.689 -0.5095 -0.7949  2.4545
 4859TIP3    H236137   4.597   5.378   1.631 -0.3934  1.0730 -1.6253
 4860TIP3   OH236138   4.974   2.055   2.600  0.3979  0.2650 -0.1961
 4860TIP3    H136139   5.055   2.104   2.585  0.8730  0.0060  1.3703
 4860TIP3    H236140   4.984   1.976   2.547  1.0497  0.3753 -0.2470
 4861TIP3   OH236141   2.800   6.654   8.039 -0.2532  0.0750 -0.1608
 4861TIP3    H136142   2.805   6.699   7.954  1.7284 -1.6180 -1.0344
 4861TIP3    H236143   2.707   6.642   8.054 -0.7455  2.2224 -1.0617
 4862TIP3   OH236144   0.640   6.791   0.262 -0.3949  0.6176  0.3639
 4862TIP3    H136145   0.657   6.718   0.203 -0.6609  0.4576  0.4865
 4862TIP3    H236146   0.695   6.773   0.338 -0.5304  0.4979  0.4333
 4863TIP3   OH236147   2.784   3.398   1.608 -0.7226 -0.7860 -0.0245
 4863TIP3    H136148   2.767   3.305   1.621 -3.9562 -0.3709 -0.4595
 4863TIP3    H236149   2.813   3.429   1.694  1.8810 -2.3531 -0.2192
 4864TIP3   OH236150   2.829   2.680   7.613 -0.7244 -0.1348 -0.1411
 4864TIP3    H136151   2.866   2.592   7.622  0.9986  0.4026 -1.5007
 4864TIP3    H236152   2.838   2.719   7.700  0.7337 -0.4914 -0.1118
 4865TIP3   OH236153   3.789   6.340   0.180 -0.4701 -0.0892  0.3383
 4865TIP3    H136154   3.720   6.281   0.148 -1.0737 -0.3187  1.9897
 4865TIP3    H236155   3.845   6.284   0.232  1.8300 -0.2066 -2.0606
 4866TIP3   OH236156   1.591   6.319   6.808 -0.5297  0.2072  0.4462
 4866TIP3    H136157   1.595   6.261   6.733  2.1003 -2.6648  2.5314
 4866TIP3    H236158   1.676   6.365   6.807 -1.3303  1.7641  0.5456
 4867TIP3   OH236159   3.657   1.844   2.787 -0.0855 -0.0184  0.8289
 4867TIP3    H136160   3.637   1.883   2.872 -0.1077  1.1500  0.3038
 4867TIP3    H236161   3.664   1.918   2.727 -1.4296 -0.8964 -0.4889
 4868TIP3   OH236162   0.143   2.669   1.071 -0.3388 -0.2493  0.1238
 4868TIP3    H136163   0.134   2.717   1.154 -1.4325 -0.0129 -0.1186
 4868TIP3    H236164   0.236   2.679   1.048 -0.1655  0.2391  0.9817
 4869TIP3   OH236165   4.785   1.478   1.763  0.2118  0.6780  0.5945
 4869TIP3    H136166   4.810   1.563   1.799 -0.7662  0.8565  0.9040
 4869TIP3    H236167   4.858   1.420   1.785  0.0511  0.9978  2.0906
 4870TIP3   OH236168   6.955   2.456   1.782 -0.4457 -0.2812  0.0681
 4870TIP3    H136169   6.908   2.493   1.857  0.1782 -0.0920  0.3665
 4870TIP3    H236170   6.904   2.377   1.759 -1.1463  0.1461  0.1197
 4871TIP3   OH236171   1.668   5.546   0.186 -0.5236 -0.2363  0.1073
 4871TIP3    H136172   1.704   5.506   0.265  1.4903  1.7442  0.2770
 4871TIP3    H236173   1.741   5.594   0.148 -2.5298  2.5267 -0.5502
 4872TIP3   OH236174   1.265   4.244   7.508 -0.3982 -0.3965 -0.1042
 4872TIP3    H136175   1.174   4.258   7.481 -0.5177  0.1343  0.5433
 4872TIP3    H236176   1.303   4.332   7.509  0.0998 -0.6073 -0.2847
 4873TIP3   OH236177   2.226   5.853   7.366 -0.1078  0.1012  1.0655
 4873TIP3    H136178   2.145   5.836   7.317  1.6959 -2.6077 -1.3342
 4873TIP3    H236179   2.235   5.949   7.363 -1.3284  0.2651 -2.0392
 4874TIP3   OH236180   1.968   5.328   0.620 -0.3248  0.1432 -0.2760
 4874TIP3    H136181   2.044   5.271   0.609 -0.0785  0.9430 -3.6378
 4874TIP3    H236182   1.893   5.270   0.612 -0.0768 -0.0703 -1.0740
 4875TIP3   OH236183   2.789   5.052   2.094  0.1130  0.6868  0.0666
 4875TIP3    H136184   2.741   4.986   2.145 -0.8956  0.6967 -0.8554
 4875TIP3    H236185   2.789   5.130   2.149 -1.6616  0.9428 -0.2434
 4876TIP3   OH236186   1.547   3.534   7.419  0.2098  0.7085 -0.3336
 4876TIP3    H136187   1.504   3.606   7.373  0.2979  0.4096 -0.8914
 4876TIP3    H236188   1.611   3.501   7.356 -1.1365 -1.0996 -0.8371
 4877TIP3   OH236189   4.870   5.915   1.548 -0.1232 -0.5412  0.0372
 4877TIP3    H136190   4.809   5.841   1.556  0.7243 -1.3284 -0.4942
 4877TIP3    H236191   4.888   5.920   1.454 -1.3713  1.3686 -0.1407
 4878TIP3   OH236192   3.524   2.212   2.168  0.0000 -1.1728 -0.0324
 4878TIP3    H136193   3.479   2.208   2.252 -0.6175  0.4031 -0.2547
 4878TIP3    H236194   3.580   2.290   2.174 -1.4995  0.1303 -1.7197
 4879TIP3   OH236195   1.861   3.680   6.872  0.2497 -0.1726  0.3797
 4879TIP3    H136196   1.949   3.709   6.898 -0.6211  1.3032  1.9603
 4879TIP3    H236197   1.832   3.747   6.809  0.4485 -0.9584 -0.5597
 4880TIP3   OH236198   4.118   1.546   6.880  0.3386  0.5814 -0.3700
 4880TIP3    H136199   4.050   1.538   6.813  1.7618  1.3828 -2.0068
 4880TIP3    H236200   4.191   1.495   6.846  0.7384  0.0985  1.1418
 4881TIP3   OH236201   6.241   4.974   0.381 -0.2888  0.6073  0.0362
 4881TIP3    H136202   6.156   4.937   0.359 -1.3830  2.2950  1.1915
 4881TIP3    H236203   6.282   4.992   0.296 -0.6709 -1.0370 -0.5295
 4882TIP3   OH236204   5.683   0.647   2.355  0.1083  0.5033 -0.1491
 4882TIP3    H136205   5.737   0.598   2.293 -2.1253 -1.0223 -1.0187
 4882TIP3    H236206   5.681   0.592   2.434 -1.2100 -0.1460 -0.6043
 4883TIP3   OH236207   0.409   0.795   7.325  0.2658  0.1228  0.2572
 4883TIP3    H136208   0.387   0.712   7.367  0.0954 -0.0337 -0.1314
 4883TIP3    H236209   0.394   0.861   7.392 -0.8559 -0.0298  0.1722
 4884TIP3   OH236210   0.780   4.367   6.931  0.3331 -0.5764  0.2876
 4884TIP3    H136211   0.756   4.353   7.023  1.0876  0.9925  0.7515
 4884TIP3    H236212   0.801   4.279   6.899  0.7253 -1.0791  1.8185
 4885TIP3   OH236213   6.883   5.575   1.170 -0.6125 -0.0177 -0.0131
 4885TIP3    H136214   6.868   5.592   1.077 -1.5573  0.8122  0.2703
 4885TIP3    H236215   6.932   5.652   1.200 -0.9810  0.0858  0.3335
 4886TIP3   OH236216   1.157   5.073   2.291  0.4643 -0.2259 -0.1552
 4886TIP3    H136217   1.079   5.098   2.241  0.9158 -1.7186 -1.7000
 4886TIP3    H236218   1.127   5.066   2.382 -0.5294  1.9554 -0.2624
 4887TIP3   OH236219   1.031   5.014   1.699 -0.5679  0.1430  0.2275
 4887TIP3    H136220   1.104   5.025   1.759 -0.9189  0.5809  0.5800
 4887TIP3    H236221   0.978   4.944   1.738 -0.2365 -0.3204 -0.1357
 4888TIP3   OH236222   5.590   0.830   1.304 -0.1881 -0.5801  0.1561
 4888TIP3    H136223   5.672   0.781   1.312  0.4106  0.3863  0.1242
 4888TIP3    H236224   5.608   0.898   1.239 -1.1541 -0.6186 -0.1725
 4889TIP3   OH236225   5.359   3.411   2.177 -0.1511 -0.4512  0.1372
 4889TIP3    H136226   5.302   3.487   2.165  1.3750  0.6363 -0.5001
 4889TIP3    H236227   5.333   3.351   2.107 -0.1957  0.2474 -0.4679
 4890TIP3   OH236228   1.745   4.050   7.632 -0.2760  0.0147  0.3858
 4890TIP3    H136229   1.668   4.086   7.588 -1.4265 -1.0584  1.4134
 4890TIP3    H236230   1.750   3.960   7.600 -0.1874 -0.2881  1.2206
 4891TIP3   OH236231   3.871   1.972   2.571  0.2864 -0.1392 -0.4533
 4891TIP3    H136232   3.926   2.031   2.624  0.0121 -1.1876  1.0659
 4891TIP3    H236233   3.788   2.020   2.561  0.0912 -0.1964  0.6975
 4892TIP3   OH236234   4.633   2.188   0.061  0.0116  0.2132  0.4652
 4892TIP3    H136235   4.667   2.186  -0.028  2.6629  0.8878  1.3589
 4892TIP3    H236236   4.581   2.269   0.065  0.5231  0.5893 -0.2658
 4893TIP3   OH236237   1.117   6.100   2.177  0.8190 -0.3161 -0.0616
 4893TIP3    H136238   1.046   6.035   2.178 -2.2508  2.7524  0.6729
 4893TIP3    H236239   1.157   6.092   2.264 -1.3175  0.4243  1.0761
 4894TIP3   OH236240   6.640   1.237   0.721  0.1394  0.2730 -0.0404
 4894TIP3    H136241   6.710   1.191   0.769  0.2818  0.5425  0.0128
 4894TIP3    H236242   6.566   1.176   0.723  0.9860 -0.8893 -1.8508
 4895TIP3   OH236243   3.916   5.675   1.531 -0.4878  0.2544 -0.8910
 4895TIP3    H136244   4.009   5.696   1.541 -0.2459 -0.5251 -1.4495
 4895TIP3    H236245   3.887   5.655   1.620  0.2972 -1.1745 -0.9311
 4896TIP3   OH236246   3.705   1.214   7.905  0.6277  0.0870  0.0607
 4896TIP3    H136247   3.715   1.181   7.994  0.8897 -1.2331 -0.4412
 4896TIP3    H236248   3.631   1.165   7.869  1.2287 -0.2097 -0.8122
 4897TIP3   OH236249   1.518   2.797   7.552  0.4920  0.1476  0.0773
 4897TIP3    H136250   1.453   2.730   7.530  1.0437 -0.2030 -0.5409
 4897TIP3    H236251   1.491   2.874   7.502 -1.2942  1.0876  2.3037
 4898TIP3   OH236252   2.487   3.670   2.032  0.4716 -0.0195 -0.2833
 4898TIP3    H136253   2.516   3.720   1.956 -0.2894 -1.2542 -1.4366
 4898TIP3    H236254   2.556   3.683   2.097  1.4413  0.5887 -1.3933
 4899TIP3   OH236255   0.967   3.160   5.892 -0.4087 -0.7509  0.1583
 4899TIP3    H136256   1.059   3.177   5.910 -0.2416 -1.3948 -0.0691
 4899TIP3    H236257   0.920   3.223   5.946  0.1921  1.7028 -1.9609
 4900TIP3   OH236258   4.170   3.405   7.089  0.2986 -0.4714  0.0547
 4900TIP3    H136259   4.099   3.459   7.055  1.1537  0.4418 -0.3292
 4900TIP3    H236260   4.207   3.457   7.161  1.1833 -0.4901 -0.3746
 4901TIP3   OH236261   1.285   1.545   7.049  0.1697  0.0073  0.0372
 4901TIP3    H136262   1.366   1.541   7.101 -0.8268 -1.0081  1.6340
 4901TIP3    H236263   1.217   1.518   7.111 -1.5211  1.6049 -1.0303
 4902TIP3   OH236264   0.596   3.278   0.202  0.0283  0.2461  0.2978
 4902TIP3    H136265   0.608   3.287   0.297  1.6338 -0.1629  0.1537
 4902TIP3    H236266   0.502   3.268   0.191 -0.0969 -0.6417  1.9314
 4903TIP3   OH236267   4.576   3.978   0.878  0.6465  0.6063 -0.4763
 4903TIP3    H136268   4.543   4.047   0.935  0.3106  0.9600 -1.0794
 4903TIP3    H236269   4.670   3.990   0.876  0.5348  1.4860 -1.1102
 4904TIP3   OH236270   3.520   1.134   6.249  0.2436 -0.0961  0.3113
 4904TIP3    H136271   3.440   1.162   6.205  0.3721 -0.2304 -0.0132
 4904TIP3    H236272   3.491   1.091   6.329 -0.0974 -1.8395 -0.7186
 4905TIP3   OH236273   2.939   4.062   0.893  0.0914  0.6469 -0.0538
 4905TIP3    H136274   2.890   4.000   0.947  1.0518  0.3443  0.4800
 4905TIP3    H236275   2.898   4.055   0.806  0.1746 -0.7361 -0.0006
 4906TIP3   OH236276   6.315   5.004   0.118 -0.1743 -0.1054 -0.5124
 4906TIP3    H136277   6.322   5.044   0.031  1.5744  0.4570 -0.1496
 4906TIP3    H236278   6.374   4.929   0.115 -0.3116 -0.2453  0.1104
 4907TIP3   OH236279   2.507   4.813   6.629  0.0859  0.4436  0.1358
 4907TIP3    H136280   2.540   4.864   6.554 -0.5812 -1.5550 -1.6166
 4907TIP3    H236281   2.415   4.839   6.636  0.4382  1.5116  1.0823
 4908TIP3   OH236282   5.960   6.682   1.213  0.7795 -0.0690 -0.2890
 4908TIP3    H136283   5.881   6.636   1.185  1.0385 -0.2246 -0.7674
 4908TIP3    H236284   5.999   6.626   1.280 -0.6050  0.9697  1.4998
 4909TIP3   OH236285   6.944   0.225   6.529  0.6934 -0.0433  0.2087
 4909TIP3    H136286   6.978   0.301   6.577 -0.6999 -0.3175  1.6996
 4909TIP3    H236287   7.021   0.170   6.515  1.3916  0.7501  0.8011
 4910TIP3   OH236288   2.526   1.513   6.585  0.2684 -0.1040  0.8301
 4910TIP3    H136289   2.539   1.420   6.565  0.3580  0.0136  0.3331
 4910TIP3    H236290   2.435   1.519   6.613 -0.2081 -0.0862 -0.6716
 4911TIP3   OH236291   4.503   1.282   0.182 -0.9585  0.1193  0.0224
 4911TIP3    H136292   4.499   1.377   0.175 -0.2918  0.1168 -0.5190
 4911TIP3    H236293   4.438   1.251   0.119 -0.6797  0.2118 -0.3151
 4912TIP3   OH236294   2.998   3.653   0.637 -0.2786 -0.1620 -0.4648
 4912TIP3    H136295   2.925   3.604   0.599 -0.8316 -0.5058  0.9724
 4912TIP3    H236296   2.961   3.693   0.716  0.8419  0.4427 -0.2349
 4913TIP3   OH236297   3.425   2.602   6.806  0.9927 -0.2428  0.1057
 4913TIP3    H136298   3.383   2.522   6.838  0.6047  0.7938  2.4391
 4913TIP3    H236299   3.352   2.662   6.790  1.2731 -0.3601 -1.7666
 4914TIP3   OH236300   0.816   5.843   1.445  0.2975  0.3226 -0.0656
 4914TIP3    H136301   0.805   5.750   1.466  6.2524 -0.9496 -0.9330
 4914TIP3    H236302   0.830   5.844   1.350 -1.5508  2.5412 -0.4124
 4915TIP3   OH236303   1.455   6.116   6.942 -0.2063  0.3078  0.5203
 4915TIP3    H136304   1.370   6.154   6.964  0.3787  0.9790  1.7517
 4915TIP3    H236305   1.506   6.190   6.906 -0.2467 -0.1684 -0.5477
 4916TIP3   OH236306   3.159   0.063   7.955 -0.6727 -0.1869 -0.3700
 4916TIP3    H136307   3.162   0.156   7.932 -1.3114 -0.2043 -0.5199
 4916TIP3    H236308   3.247   0.031   7.932 -0.9827 -0.0067 -1.9270
 4917TIP3   OH236309   1.912   1.759   1.089  0.1029 -0.0989 -0.7515
 4917TIP3    H136310   1.819   1.739   1.077 -0.2471  0.1786  1.1246
 4917TIP3    H236311   1.938   1.804   1.009 -1.8135  1.2751 -0.6723
 4918TIP3   OH236312   2.710   4.423   7.698  0.3239 -0.2924 -0.6454
 4918TIP3    H136313   2.669   4.428   7.612  1.4772 -1.2434 -1.2863
 4918TIP3    H236314   2.753   4.508   7.710 -0.9569  0.3409 -0.3921
 4919TIP3   OH236315   1.988   5.976   7.691 -0.1504  0.6157  0.1723
 4919TIP3    H136316   2.073   5.952   7.727 -1.7274 -0.4185  3.6133
 4919TIP3    H236317   1.965   5.903   7.633  0.2740 -0.3817  1.2154
 4920TIP3   OH236318   4.076   1.223   6.775 -0.7399  0.5767  0.0077
 4920TIP3    H136319   4.060   1.156   6.708 -1.5214  0.8942 -0.1459
 4920TIP3    H236320   4.000   1.281   6.769 -0.3552  1.1535  0.5281
 4921TIP3   OH236321   6.233   6.933   1.277 -0.2011 -0.1826 -0.4804
 4921TIP3    H136322   6.230   7.023   1.310 -0.4870 -0.4377  0.1987
 4921TIP3    H236323   6.181   6.936   1.196  0.5489  0.4545 -0.9527
 4922TIP3   OH236324   2.137   4.701   1.216 -0.0044 -0.5083 -0.7780
 4922TIP3    H136325   2.184   4.668   1.293 -0.6472  0.0024 -0.1475
 4922TIP3    H236326   2.148   4.796   1.220  0.2776 -0.5034 -1.5356
 4923TIP3   OH236327   4.776   3.719   0.674  0.7726  1.2825  0.1670
 4923TIP3    H136328   4.865   3.714   0.638  0.9905  0.7118  0.7553
 4923TIP3    H236329   4.785   3.779   0.748  0.1643  3.0828 -1.1565
 4924TIP3   OH236330   1.676   5.034   1.353 -0.1240  0.4849 -0.0310
 4924TIP3    H136331   1.648   4.986   1.431  1.0087  0.8659  0.6380
 4924TIP3    H236332   1.662   5.126   1.376 -0.9477  0.5510 -0.7609
 4925TIP3   OH236333   2.344   0.472   2.276  0.5880  0.2564  0.0922
 4925TIP3    H136334   2.286   0.407   2.237  0.4745  0.1032  0.5138
 4925TIP3    H236335   2.371   0.434   2.360  0.9163  0.5341  0.1160
 4926TIP3   OH236336   5.105   1.238   1.136 -0.2640  0.5071 -0.3308
 4926TIP3    H136337   5.135   1.198   1.218 -0.1689  1.1685 -0.0389
 4926TIP3    H236338   5.015   1.208   1.125  0.0362 -0.3673 -0.4907
 4927TIP3   OH236339   6.527   0.393   1.551 -0.1391 -0.0602  0.6268
 4927TIP3    H136340   6.467   0.464   1.573  0.7432  0.7687  0.4228
 4927TIP3    H236341   6.611   0.436   1.535  0.4345 -1.1561  0.5626
 4928TIP3   OH236342   6.167   1.556   0.979 -0.4925 -0.3605 -0.5776
 4928TIP3    H136343   6.144   1.590   0.892  0.6956 -0.3582 -0.9060
 4928TIP3    H236344   6.237   1.493   0.961 -0.5129 -0.6514  0.3464
 4929TIP3   OH236345   2.098   2.113   0.970 -0.3497 -0.3726 -0.0337
 4929TIP3    H136346   2.110   2.208   0.972 -1.1537 -0.2240 -1.2437
 4929TIP3    H236347   2.182   2.077   0.998  0.1979  0.6879 -0.2885
 4930TIP3   OH236348   5.087   1.060   0.222  0.6140  0.0856 -0.3224
 4930TIP3    H136349   5.055   1.143   0.185 -0.8179 -0.7512 -1.0349
 4930TIP3    H236350   5.027   1.042   0.294  1.3393  0.0008  0.2665
 4931TIP3   OH236351   2.147   0.680   7.422 -0.0870  0.5568  0.0198
 4931TIP3    H136352   2.139   0.688   7.327  3.2283  0.6924 -0.3870
 4931TIP3    H236353   2.183   0.593   7.436 -0.7013  0.4743  1.1984
 4932TIP3   OH236354   1.773   3.725   1.579 -0.3475  0.2591  0.1818
 4932TIP3    H136355   1.759   3.795   1.643 -1.5024 -0.5404  0.8369
 4932TIP3    H236356   1.798   3.650   1.632 -1.3656 -0.4261 -0.2820
 4933TIP3   OH236357   4.277   5.971   7.590 -0.3619 -0.0354 -0.2460
 4933TIP3    H136358   4.228   5.980   7.672  0.4904  0.2945  0.2400
 4933TIP3    H236359   4.347   5.908   7.610  0.9941  1.4295 -0.1493
 4934TIP3   OH236360   6.105   0.537   1.144 -0.4011  0.3876  0.2395
 4934TIP3    H136361   6.123   0.626   1.175  1.2019 -0.0958  0.7885
 4934TIP3    H236362   6.120   0.541   1.050  2.8117  0.0382  0.6429
 4935TIP3   OH236363   5.135   4.639   7.552  1.1438  0.0508 -0.2594
 4935TIP3    H136364   5.211   4.581   7.546  0.3873 -0.8480 -2.0783
 4935TIP3    H236365   5.114   4.660   7.461  0.7685  2.4138  0.3097
 4936TIP3   OH236366   2.643   0.355   1.535 -0.5107 -0.3286  0.5108
 4936TIP3    H136367   2.678   0.313   1.613  1.9039  2.7580  1.2961
 4936TIP3    H236368   2.575   0.414   1.567 -1.3078 -0.9089 -0.0780
 4937TIP3   OH236369   2.567   5.302   2.615  0.2677 -0.2143 -0.3549
 4937TIP3    H136370   2.519   5.219   2.620 -0.1498  0.0660  0.5196
 4937TIP3    H236371   2.640   5.291   2.677  0.3820 -0.0360 -0.4568
 4938TIP3   OH236372   0.721   4.945   7.964  0.2738  0.2150  0.0772
 4938TIP3    H136373   0.721   4.853   7.938  0.1602  0.4781 -0.9067
 4938TIP3    H236374   0.647   4.953   8.024 -0.5247 -0.0794 -0.8375
 4939TIP3   OH236375   0.551   2.924   7.245 -0.1459  0.2583 -0.1433
 4939TIP3    H136376   0.636   2.900   7.209  0.3414  0.2147  0.9799
 4939TIP3    H236377   0.565   2.927   7.340 -1.1470  1.2041  0.0039
 4940TIP3   OH236378   2.067   4.411   6.565 -0.2914  0.2333 -1.1286
 4940TIP3    H136379   2.111   4.327   6.553  0.1960  0.2561  0.3117
 4940TIP3    H236380   2.134   4.469   6.600 -1.2975  0.4430  0.5491
 4941TIP3   OH236381   0.727   2.470   5.890 -0.0077 -0.2305  0.1674
 4941TIP3    H136382   0.712   2.381   5.857 -0.2758 -0.6794  1.4412
 4941TIP3    H236383   0.798   2.504   5.836  1.2668 -1.8591  0.7356
 4942TIP3   OH236384   1.028   1.792   2.298 -0.1367 -0.6760  0.3125
 4942TIP3    H136385   1.043   1.698   2.302  0.3466 -0.6508 -0.7280
 4942TIP3    H236386   1.068   1.820   2.216 -2.5697  0.0007 -0.7461
 4943TIP3   OH236387   2.575   5.160   1.051 -0.0371  0.1764  0.1876
 4943TIP3    H136388   2.525   5.146   0.971  0.3468 -1.3101  0.1881
 4943TIP3    H236389   2.540   5.097   1.114  0.9504 -0.0165  0.5785
 4944TIP3   OH236390   1.577   6.915   0.143  0.1658 -0.1619  0.9829
 4944TIP3    H136391   1.556   6.903   0.051  1.2038 -0.6070  0.7929
 4944TIP3    H236392   1.524   6.991   0.169  1.9931  1.8260 -0.7366
 4945TIP3   OH236393   0.456   6.302   0.945  0.2144 -0.1779 -0.6466
 4945TIP3    H136394   0.417   6.388   0.965  0.2665 -0.4314  0.6297
 4945TIP3    H236395   0.382   6.248   0.918  0.0570  0.0363 -0.6478
 4946TIP3   OH236396   6.459   5.813   2.748 -0.1820 -0.1826 -0.6377
 4946TIP3    H136397   6.411   5.822   2.830 -1.6621 -0.9363 -1.3742
 4946TIP3    H236398   6.392   5.794   2.683  1.0428 -0.4339 -1.8821
 4947TIP3   OH236399   0.159   3.935   7.047 -0.3700 -0.4170 -0.2559
 4947TIP3    H136400   0.073   3.976   7.059  0.0841  0.5100 -0.1403
 4947TIP3    H236401   0.187   3.963   6.960  1.8532  3.1915  1.4120
 4948TIP3   OH236402   3.548   4.040   6.831 -0.0810 -0.3239 -0.2423
 4948TIP3    H136403   3.531   4.096   6.756  0.9341  0.4548  0.0890
 4948TIP3    H236404   3.642   4.048   6.846 -0.3216 -0.2044  1.3207
 4949TIP3   OH236405   1.726   5.576   1.465 -0.2705  0.1502 -0.3229
 4949TIP3    H136406   1.812   5.616   1.462  0.6478 -1.6004  0.9625
 4949TIP3    H236407   1.673   5.637   1.517  0.4008  0.8504 -0.4386
 4950TIP3   OH236408   2.177   2.823   1.412  0.2637 -0.1320 -0.3482
 4950TIP3    H136409   2.253   2.795   1.462 -1.4535 -1.0207  1.9153
 4950TIP3    H236410   2.169   2.917   1.430 -0.0497 -0.3493  0.6790
 4951TIP3   OH236411   4.992   5.502   0.546 -0.6729  0.0723 -0.4978
 4951TIP3    H136412   5.015   5.429   0.488 -0.3023  1.7018 -2.5080
 4951TIP3    H236413   5.076   5.540   0.571 -0.8809  0.1126  0.1543
 4952TIP3   OH236414   3.964   4.353   1.536 -0.4537  0.0461  0.1649
 4952TIP3    H136415   3.997   4.435   1.574 -0.9369 -0.5774  2.0441
 4952TIP3    H236416   3.907   4.381   1.465  0.9121  1.2651 -0.4983
 4953TIP3   OH236417   1.889   2.683   1.271 -0.2282  0.2907  0.0540
 4953TIP3    H136418   1.958   2.642   1.218 -0.9735  0.3962 -1.0211
 4953TIP3    H236419   1.930   2.697   1.357  0.9171 -0.1320 -0.4070
 4954TIP3   OH236420   1.926   1.628   1.553 -0.6536 -0.3622 -0.2065
 4954TIP3    H136421   1.944   1.622   1.459 -1.0481  1.4673 -0.4320
 4954TIP3    H236422   1.844   1.677   1.560  0.0370  0.6935  1.1070
 4955TIP3   OH236423   3.739   2.581   7.854  0.0513  0.1990 -0.1805
 4955TIP3    H136424   3.675   2.512   7.874  1.2531 -0.7580  0.4342
 4955TIP3    H236425   3.685   2.655   7.824 -1.4099 -0.2880  1.1000
 4956TIP3   OH236426   5.118   4.261   7.471 -0.3508  0.0019  0.0644
 4956TIP3    H136427   5.151   4.300   7.552  1.1197 -2.1141  0.5761
 4956TIP3    H236428   5.190   4.272   7.408 -0.5659 -0.3837 -0.2568
 4957TIP3   OH236429   5.172   3.862   1.449 -0.1245 -0.2568 -0.4527
 4957TIP3    H136430   5.142   3.780   1.408 -0.4142  0.4434 -1.6937
 4957TIP3    H236431   5.091   3.905   1.477  0.0941 -1.8927  3.4330
 4958TIP3   OH236432   3.453   3.161   8.201  0.1599 -0.1313 -0.1200
 4958TIP3    H136433   3.515   3.115   8.144 -1.7920 -1.2128 -1.4932
 4958TIP3    H236434   3.386   3.095   8.222 -1.1361  1.2701  0.3478
 4959TIP3   OH236435   0.070   4.171   1.189  0.0193 -0.2212 -0.1963
 4959TIP3    H136436   0.143   4.223   1.224 -0.2126  0.8744 -1.2953
 4959TIP3    H236437   0.016   4.152   1.266  1.1431 -0.5426  0.5402
 4960TIP3   OH236438   3.478   0.721   0.681  0.0757  0.1798  0.2998
 4960TIP3    H136439   3.412   0.779   0.718  1.6443  0.9970  1.9852
 4960TIP3    H236440   3.436   0.634   0.681 -0.8692  0.5950  1.6950
 4961TIP3   OH236441   1.279   3.585   7.066  0.1218  0.2083  0.1576
 4961TIP3    H136442   1.212   3.608   7.002  0.0349  1.1159  0.5547
 4961TIP3    H236443   1.361   3.617   7.028  0.1122  0.4779  0.3613
 4962TIP3   OH236444   6.047   5.372   0.569 -0.0239 -0.2885  0.4355
 4962TIP3    H136445   5.966   5.327   0.592  0.6908 -1.3123  1.0439
 4962TIP3    H236446   6.044   5.380   0.474 -1.1353  0.2967  0.4995
 4963TIP3   OH236447   1.000   3.324   6.422 -0.2773  0.4226  0.3063
 4963TIP3    H136448   1.092   3.307   6.403 -0.5199  0.3207 -0.8457
 4963TIP3    H236449   0.972   3.382   6.351 -0.9134  1.0616  1.0664
 4964TIP3   OH236450   5.033   1.768   7.004  0.5291 -0.5592  0.2627
 4964TIP3    H136451   5.061   1.688   6.960  0.5137 -1.0777  1.1856
 4964TIP3    H236452   4.956   1.742   7.055  0.6911 -0.0164  0.7876
 4965TIP3   OH236453   0.403   3.572   0.283  0.6060  0.2751  0.0348
 4965TIP3    H136454   0.464   3.569   0.210  0.3149  2.5227 -0.3884
 4965TIP3    H236455   0.451   3.618   0.352 -0.4203  1.7730 -0.1917
 4966TIP3   OH236456   2.882   6.518   7.315 -0.0841 -0.5117  0.1438
 4966TIP3    H136457   2.789   6.540   7.310  0.2112  1.0568  1.1475
 4966TIP3    H236458   2.891   6.474   7.399  0.1687 -0.1797  0.2910
 4967TIP3   OH236459   1.500   0.329   0.991 -0.4603 -0.1950  0.3551
 4967TIP3    H136460   1.573   0.288   0.946 -2.4920 -1.7452 -1.7505
 4967TIP3    H236461   1.488   0.276   1.071 -0.5260 -1.2261 -0.3174
 4968TIP3   OH236462   1.597   5.088   8.142 -0.4569  0.5848 -0.6659
 4968TIP3    H136463   1.618   4.997   8.164  0.4155  0.2712 -2.5109
 4968TIP3    H236464   1.553   5.122   8.219  1.8376 -0.4996  1.2721
 4969TIP3   OH236465   5.378   6.530   0.946 -0.4963  0.1659 -0.3447
 4969TIP3    H136466   5.452   6.474   0.925  1.0281  1.4208  1.3933
 4969TIP3    H236467   5.302   6.471   0.942  1.0388 -2.1753  1.7047
 4970TIP3   OH236468   0.988   2.077   6.906 -0.6897  0.0830  1.1359
 4970TIP3    H136469   0.965   2.051   6.817 -0.6451 -4.1166  2.1719
 4970TIP3    H236470   1.077   2.113   6.898 -0.7972  0.0485 -0.5367
 4971TIP3   OH236471   6.366   0.317   0.034  0.0136 -0.0210  0.1287
 4971TIP3    H136472   6.393   0.292   0.123 -0.8667  1.1140  0.7485
 4971TIP3    H236473   6.428   0.272  -0.024  2.1069  1.0895  1.3886
 4972TIP3   OH236474   2.962   0.238   0.730 -0.1381  0.7132 -0.1556
 4972TIP3    H136475   2.904   0.166   0.707  1.3495 -0.9001  0.8605
 4972TIP3    H236476   3.032   0.197   0.780  1.2856  2.7440 -0.3605
 4973TIP3   OH236477   0.060   2.321   6.370 -0.2323 -0.1348  0.3122
 4973TIP3    H136478  -0.016   2.268   6.392 -0.7273 -0.0902 -1.1707
 4973TIP3    H236479   0.133   2.260   6.369 -0.8111 -0.8538 -1.4806
 4974TIP3   OH236480   0.925   6.221   0.795 -0.0236 -0.2895  0.7394
 4974TIP3    H136481   0.967   6.184   0.717  1.0017 -0.8282  1.5198
 4974TIP3    H236482   0.834   6.238   0.768  0.2353 -0.7503 -0.4720
 4975TIP3   OH236483   6.221   4.344   0.422 -0.3123 -0.3733  0.2493
 4975TIP3    H136484   6.198   4.283   0.492  0.4368 -0.6399  0.2706
 4975TIP3    H236485   6.276   4.409   0.464 -0.8097  0.1217  0.1472
 4976TIP3   OH236486   3.905   5.375   7.642 -0.1651  0.0636  0.2466
 4976TIP3    H136487   3.848   5.418   7.578 -1.1641 -1.8035 -0.1907
 4976TIP3    H236488   3.854   5.299   7.672  1.8715 -1.4069  0.2034
 4977TIP3   OH236489   6.686   2.363   2.587  0.3561 -0.3930 -0.1700
 4977TIP3    H136490   6.710   2.284   2.539  1.1012  0.2522 -0.8975
 4977TIP3    H236491   6.677   2.430   2.519  3.5480  1.0723  0.7094
 4978TIP3   OH236492   0.930   6.097   7.605  0.7290 -0.4140  0.5318
 4978TIP3    H136493   0.999   6.162   7.592  0.8276 -0.1793  2.0218
 4978TIP3    H236494   0.889   6.088   7.519  2.1077  0.0098 -0.2011
 4979TIP3   OH236495   2.824   1.144   2.268  0.0352 -0.6872  0.0322
 4979TIP3    H136496   2.772   1.196   2.329  0.0134  0.4070 -0.8708
 4979TIP3    H236497   2.870   1.210   2.215  0.4918 -1.6105 -0.7435
 4980TIP3   OH236498   2.882   6.089   0.089 -0.6443  0.4721  0.2537
 4980TIP3    H136499   2.900   6.008   0.137  0.9665 -0.1813 -1.3697
 4980TIP3    H236500   2.833   6.061   0.012 -0.5279  1.1229 -0.0614
 4981TIP3   OH236501   2.394   3.531   1.316  0.6207 -0.3014  0.2264
 4981TIP3    H136502   2.441   3.501   1.239 -0.3140 -2.9635  0.6017
 4981TIP3    H236503   2.410   3.464   1.383 -0.8068  0.5164  1.4686
 4982TIP3   OH236504   5.844   1.830   7.905 -0.0612 -0.4330 -0.5469
 4982TIP3    H136505   5.803   1.895   7.962 -1.1012 -1.8197  0.3491
 4982TIP3    H236506   5.838   1.868   7.818 -1.0186  0.5035 -0.1019
 4983TIP3   OH236507   2.928   2.182   0.919 -0.1435 -0.0925 -0.4653
 4983TIP3    H136508   2.971   2.121   0.859 -0.1708  0.9695 -1.5931
 4983TIP3    H236509   2.914   2.131   0.999 -1.4920 -2.0237 -1.8434
 4984TIP3   OH236510   2.331   5.851   7.078  0.0041 -0.2313 -0.4286
 4984TIP3    H136511   2.339   5.873   6.985 -1.0415  3.2525  0.1359
 4984TIP3    H236512   2.408   5.892   7.118 -0.8381  0.5029  0.4895
 4985TIP3   OH236513   1.008   0.725   0.139  0.2074 -0.3088  0.5809
 4985TIP3    H136514   1.023   0.640   0.181  1.6871 -0.2739  0.1766
 4985TIP3    H236515   1.096   0.760   0.126 -0.2786  0.2535 -1.3629
 4986TIP3   OH236516   6.876   5.483   1.778  0.0545  0.0302  0.2416
 4986TIP3    H136517   6.827   5.473   1.860 -1.8484  0.6158 -0.7571
 4986TIP3    H236518   6.935   5.408   1.775 -2.3039 -1.9498  0.5542
 4987TIP3   OH236519   5.859   5.829   1.519  0.1537  0.0287  0.6579
 4987TIP3    H136520   5.870   5.870   1.433  2.3880 -0.9066  0.4328
 4987TIP3    H236521   5.889   5.739   1.506  0.9146 -0.0125  2.5080
 4988TIP3   OH236522   3.509   2.144   3.032  0.0901 -0.0981 -0.3935
 4988TIP3    H136523   3.451   2.201   3.082  3.3031  2.2200  1.0102
 4988TIP3    H236524   3.457   2.118   2.956 -2.8384  1.5072  0.8947
 4989TIP3   OH236525   1.253   0.041   0.405 -0.8877 -0.3793 -0.3145
 4989TIP3    H136526   1.198   0.076   0.476 -1.1028 -1.2573 -0.0288
 4989TIP3    H236527   1.292   0.118   0.364 -3.9582  0.5146 -1.8914
 4990TIP3   OH236528   2.546   5.229   7.974 -0.1811  0.0573 -0.6642
 4990TIP3    H136529   2.562   5.294   7.905 -1.5112  0.8307 -0.2806
 4990TIP3    H236530   2.555   5.278   8.056  0.0657 -0.5437 -0.3317
 4991TIP3   OH236531   1.407   6.557   0.860  0.0403  0.0570  0.0645
 4991TIP3    H136532   1.373   6.644   0.883  1.0808  0.4899  0.0371
 4991TIP3    H236533   1.329   6.506   0.838 -0.5290  1.2799 -0.9215
 4992TIP3   OH236534   6.613   6.320   7.850  0.0511  0.5770  0.4605
 4992TIP3    H136535   6.528   6.326   7.806  0.1513 -0.0246  0.1790
 4992TIP3    H236536   6.610   6.388   7.917 -0.6839  0.5068  0.5019
 4993TIP3   OH236537   0.073   5.494   0.555  0.0648 -0.3705  0.0967
 4993TIP3    H136538  -0.007   5.447   0.530  0.4764 -1.1966  0.2933
 4993TIP3    H236539   0.085   5.559   0.487 -0.4368 -0.6550 -0.2699
 4994TIP3   OH236540   4.234   1.067   1.302  0.2035 -0.0486 -0.2311
 4994TIP3    H136541   4.143   1.044   1.320  0.3945 -2.6028 -2.0203
 4994TIP3    H236542   4.278   1.057   1.387 -0.9680 -0.0106  0.3977
 4995TIP3   OH236543   0.772   0.304   7.842  0.2655  0.3196  0.5268
 4995TIP3    H136544   0.842   0.243   7.867  0.2095 -0.4294 -1.0619
 4995TIP3    H236545   0.710   0.301   7.915  1.5705  0.5343  1.6816
 4996TIP3   OH236546   5.550   0.775   0.712  0.2533 -0.0799  0.3650
 4996TIP3    H136547   5.540   0.687   0.747 -2.3544 -0.3641 -0.8282
 4996TIP3    H236548   5.564   0.762   0.618  0.4894  0.7495  0.2746
 4997TIP3   OH236549   2.535   1.245   0.199  0.4271 -0.0414  0.2976
 4997TIP3    H136550   2.569   1.212   0.282  1.4514  1.2806  0.4478
 4997TIP3    H236551   2.610   1.240   0.139 -0.3648 -1.2123 -0.6507
 4998TIP3   OH236552   4.097   2.907   6.788  0.2178  0.5528  0.2041
 4998TIP3    H136553   4.050   2.979   6.745  0.9039  1.7754  1.4356
 4998TIP3    H236554   4.176   2.948   6.824  2.0058 -1.3200 -1.3239
 4999TIP3   OH236555   6.057   6.452   1.725  0.1032 -0.0569 -0.3129
 4999TIP3    H136556   6.009   6.442   1.643  0.5175 -2.4415 -0.3150
 4999TIP3    H236557   5.989   6.467   1.791 -0.2766  1.1586 -0.9505
 5000TIP3   OH236558   1.241   5.084   1.882 -0.4382 -0.4127 -0.2508
 5000TIP3    H136559   1.169   5.140   1.911  0.6757  0.2540  1.3671
 5000TIP3    H236560   1.291   5.140   1.822 -0.8504 -0.6418 -0.8220
 5001TIP3   OH236561   3.172   5.704   0.312 -0.6735  0.1845 -0.4625
 5001TIP3    H136562   3.096   5.758   0.291 -1.1280  0.1191  0.9041
 5001TIP3    H236563   3.168   5.631   0.250 -2.7734 -0.7833  0.7144
 5002TIP3   OH236564   0.338   4.088   6.521 -0.0493 -0.0301  0.7854
 5002TIP3    H136565   0.318   4.179   6.542  1.6663  0.7652 -0.7443
 5002TIP3    H236566   0.284   4.068   6.444  1.1851  0.4731 -0.2505
 5003TIP3   OH236567   0.858   5.631   6.922 -0.4108  0.1681 -0.1426
 5003TIP3    H136568   0.933   5.589   6.965 -0.5478 -0.7458 -0.7889
 5003TIP3    H236569   0.866   5.723   6.947  1.7052  0.3673 -1.2519
 5004TIP3   OH236570   5.585   5.464   7.119 -0.4415 -0.0185  0.6195
 5004TIP3    H136571   5.620   5.549   7.094 -1.0799  0.0219 -0.1792
 5004TIP3    H236572   5.654   5.402   7.097 -0.1511  0.2427  0.7905
 5005TIP3   OH236573   2.352   2.498   7.590  0.3238  0.6006  0.1128
 5005TIP3    H136574   2.336   2.438   7.517  0.9288 -1.0485  1.2491
 5005TIP3    H236575   2.435   2.540   7.569  0.4354  0.2231 -0.2187
 5006TIP3   OH236576   0.037   0.622   1.585 -0.1357 -0.1147 -0.5750
 5006TIP3    H136577   0.040   0.691   1.651  0.0855 -0.6395 -0.0309
 5006TIP3    H236578   0.048   0.669   1.502 -4.1520  1.0578 -0.6751
 5007TIP3   OH236579   3.236   2.801   7.021 -0.0427 -0.6051 -1.1912
 5007TIP3    H136580   3.212   2.776   6.932  1.4909 -1.9563 -1.2729
 5007TIP3    H236581   3.331   2.814   7.017 -0.1491  0.7265 -0.0562
 5008TIP3   OH236582   3.165   2.397   0.674 -0.4998  0.2957  0.1523
 5008TIP3    H136583   3.211   2.379   0.756  2.0192  0.8136 -1.0439
 5008TIP3    H236584   3.096   2.331   0.670  0.5006 -0.9298  1.7966
 5009TIP3   OH236585   6.634   6.646   1.459 -0.4475 -0.0837 -0.4435
 5009TIP3    H136586   6.552   6.681   1.425 -1.0861 -0.7820  0.3706
 5009TIP3    H236587   6.619   6.633   1.552  0.5982 -0.1951 -0.2759
 5010TIP3   OH236588   5.666   6.165   0.408 -0.4049  0.3397  0.0104
 5010TIP3    H136589   5.721   6.090   0.432  0.0326  1.0290  1.2546
 5010TIP3    H236590   5.716   6.241   0.437  1.1335  1.5212 -4.7704
 5011TIP3   OH236591   1.036   1.824   6.330  0.1587  0.2535 -0.1850
 5011TIP3    H136592   1.040   1.766   6.253 -2.1448 -1.8723  1.1173
 5011TIP3    H236593   1.082   1.775   6.398  2.6110  2.3356 -0.2262
 5012TIP3   OH236594   2.790   6.320   0.532  0.0780 -0.0003  0.7527
 5012TIP3    H136595   2.818   6.349   0.619  0.4415  1.4225  0.1760
 5012TIP3    H236596   2.843   6.371   0.471 -1.0737 -0.0472 -0.3270
 5013TIP3   OH236597   4.351   5.967   6.974 -0.3467  0.1646 -0.1438
 5013TIP3    H136598   4.305   6.044   7.008  0.1111 -0.7573  2.9582
 5013TIP3    H236599   4.390   5.928   7.052  3.1380 -0.8137 -2.1985
 5014TIP3   OH236600   3.148   4.716   6.731 -0.1889  0.8291  0.6312
 5014TIP3    H136601   3.103   4.795   6.703 -0.8398 -0.2386 -1.6192
 5014TIP3    H236602   3.079   4.650   6.738  0.7544 -0.4903 -1.4941
 5015TIP3   OH236603   0.007   6.866   0.015 -0.1122  0.5775 -0.0893
 5015TIP3    H136604   0.076   6.800   0.009  1.1874  1.6829  1.8889
 5015TIP3    H236605  -0.032   6.852   0.101  0.3857  2.5605  0.4853
 5016TIP3   OH236606   1.626   2.384   1.903 -0.1511  0.1623  0.5557
 5016TIP3    H136607   1.636   2.465   1.853 -1.3698  0.9484  1.5064
 5016TIP3    H236608   1.627   2.412   1.995 -1.6535 -0.7133  0.8858
 5017TIP3   OH236609   5.998   3.324   7.410  0.4686 -0.3748  0.2826
 5017TIP3    H136610   5.975   3.417   7.398 -0.6605 -0.8128 -1.1649
 5017TIP3    H236611   6.089   3.326   7.440  1.8949  1.1153 -3.5723
 5018TIP3   OH236612   3.635   6.997   0.515  0.7656  0.8450 -0.2007
 5018TIP3    H136613   3.710   6.943   0.543  0.8810  1.6689  1.1772
 5018TIP3    H236614   3.612   6.963   0.429  0.1405 -2.1503  1.0047
 5019TIP3   OH236615   4.335   4.855   1.000  0.2918 -0.2256  0.3794
 5019TIP3    H136616   4.352   4.768   1.035 -1.8184 -0.5335  0.7469
 5019TIP3    H236617   4.257   4.844   0.945 -0.9613  1.6962  1.6634
 5020TIP3   OH236618   6.114   3.788   7.907  0.2438  0.3675 -0.3794
 5020TIP3    H136619   6.097   3.758   7.996  1.8726 -0.4209 -0.2968
 5020TIP3    H236620   6.103   3.710   7.853 -2.4626  1.1811 -1.1806
 5021TIP3   OH236621   6.440   1.691   7.357  0.2671 -0.2967 -0.2210
 5021TIP3    H136622   6.363   1.747   7.343  0.6186  0.0891 -0.6343
 5021TIP3    H236623   6.420   1.645   7.438 -1.1099 -1.3955 -1.1304
 5022TIP3   OH236624   5.367   5.905   7.960 -0.6720 -0.1507 -0.0288
 5022TIP3    H136625   5.399   5.837   8.019 -0.2047 -1.3060 -1.5416
 5022TIP3    H236626   5.445   5.936   7.915 -0.9693  0.9745  0.2046
 5023TIP3   OH236627   2.778   2.661   6.672  0.1837 -0.0420  0.0676
 5023TIP3    H136628   2.711   2.703   6.725  0.9545  1.8494 -0.3797
 5023TIP3    H236629   2.748   2.672   6.582  0.5998 -0.0506 -0.0758
 5024TIP3   OH236630   5.526   6.883   0.929  0.2921 -0.1470  0.0852
 5024TIP3    H136631   5.479   6.946   0.983 -0.7885  0.1155 -1.1048
 5024TIP3    H236632   5.575   6.830   0.991 -1.9878 -0.7803  1.4619
 5025TIP3   OH236633   2.163   0.920   7.562  0.0181  0.2315  0.1043
 5025TIP3    H136634   2.076   0.954   7.541  1.0385  2.9209 -0.1688
 5025TIP3    H236635   2.177   0.849   7.499 -0.5315  2.2623 -2.4911
 5026TIP3   OH236636   0.614   0.673   0.416  0.2160  0.1455 -0.0185
 5026TIP3    H136637   0.604   0.598   0.358 -1.2188 -0.4735  0.9692
 5026TIP3    H236638   0.690   0.721   0.381  1.3740 -1.9069 -0.4808
 5027TIP3   OH236639   0.927   1.840   7.053 -0.0149  0.4007  0.0411
 5027TIP3    H136640   0.996   1.780   7.028 -0.2594  0.6916 -1.4333
 5027TIP3    H236641   0.950   1.923   7.010 -0.8540  0.7267  0.1943
 5028TIP3   OH236642   0.645   3.667   8.170  0.2589 -0.7800 -0.1187
 5028TIP3    H136643   0.637   3.638   8.261  0.3599 -0.9812 -0.1729
 5028TIP3    H236644   0.702   3.744   8.175  0.8324 -1.2004 -0.0852
 5029TIP3   OH236645   0.170   1.167   0.223 -0.1066 -0.2499  0.7894
 5029TIP3    H136646   0.255   1.207   0.206 -0.5033  1.5704  2.7020
 5029TIP3    H236647   0.158   1.104   0.151  2.0765  0.6277 -0.4349
 5030TIP3   OH236648   1.584   1.424   0.322 -0.5476 -0.1896 -0.3777
 5030TIP3    H136649   1.509   1.366   0.334  0.6796 -1.9177 -0.6788
 5030TIP3    H236650   1.596   1.430   0.228 -1.5561  1.8245 -0.4250
 5031TIP3   OH236651   5.925   0.335   1.085 -0.1048 -0.4981  0.0250
 5031TIP3    H136652   6.001   0.390   1.105 -1.1202  1.8443 -2.0838
 5031TIP3    H236653   5.953   0.281   1.011 -0.3076  0.1105 -0.5161
 5032TIP3   OH236654   5.618   3.145   6.518  0.2083  0.6304  0.0901
 5032TIP3    H136655   5.613   3.175   6.427  0.3336  1.9765  0.5071
 5032TIP3    H236656   5.535   3.099   6.532  0.0173  0.7547 -0.5784
 5033TIP3   OH236657   0.810   4.335   6.358  0.0666 -0.3322  0.2570
 5033TIP3    H136658   0.737   4.285   6.321  1.2475 -1.7015 -0.3162
 5033TIP3    H236659   0.826   4.404   6.293 -1.4657  0.7638  0.9721
 5034TIP3   OH236660   5.986   4.924   1.133  0.3539  0.4561  0.6483
 5034TIP3    H136661   5.970   4.963   1.219 -0.6563 -1.2335  1.2876
 5034TIP3    H236662   6.081   4.908   1.132  0.6036  1.8219  0.8247
 5035TIP3   OH236663   6.566   6.261   0.701  0.2732 -0.1773 -0.4726
 5035TIP3    H136664   6.596   6.190   0.758 -1.8806 -0.7409  0.0364
 5035TIP3    H236665   6.484   6.230   0.665 -2.2153  2.9773  1.8252
 5036TIP3   OH236666   0.831   4.536   6.182  0.5851  0.9281 -0.3919
 5036TIP3    H136667   0.908   4.545   6.127  0.3389  0.2449 -0.8644
 5036TIP3    H236668   0.848   4.593   6.257  2.1308 -0.1642  0.1475
 5037TIP3   OH236669   2.584   3.509   8.174  0.6656  0.2641  0.3532
 5037TIP3    H136670   2.533   3.552   8.105 -0.9839  0.7236  1.7962
 5037TIP3    H236671   2.674   3.539   8.160 -0.0318  2.2335 -0.1775
 5038TIP3   OH236672   2.706   2.943   6.122 -0.2838 -0.2431  0.4086
 5038TIP3    H136673   2.713   2.946   6.217  0.4071  1.6475  0.3361
 5038TIP3    H236674   2.753   2.864   6.097  1.5492  0.4376  1.5033
 5039TIP3   OH236675   6.477   0.460   2.225 -0.2382  0.1941  0.2191
 5039TIP3    H136676   6.568   0.458   2.255  0.3761  1.2992 -1.4994
 5039TIP3    H236677   6.430   0.408   2.291  1.1748  1.7278  2.5784
 5040TIP3   OH236678   1.733   5.703   1.849 -0.4993  0.1980  0.3065
 5040TIP3    H136679   1.675   5.646   1.900 -0.3437  0.6645  1.0229
 5040TIP3    H236680   1.820   5.667   1.863 -0.5434 -0.1734 -0.3255
 5041TIP3   OH236681   2.546   5.315   1.821 -0.3111 -0.1989  1.0332
 5041TIP3    H136682   2.611   5.385   1.829 -1.5879  1.0178  1.2966
 5041TIP3    H236683   2.595   5.235   1.837  1.8969  0.2557 -2.2789
 5042TIP3   OH236684   0.478   0.205   1.980  0.1091 -0.0739  0.0000
 5042TIP3    H136685   0.482   0.300   1.975  1.9496 -0.0195  1.5174
 5042TIP3    H236686   0.536   0.182   2.053 -0.6338 -2.3343 -0.0415
 5043TIP3   OH236687   5.584   0.859   2.247  0.2579  0.2724 -0.0472
 5043TIP3    H136688   5.661   0.910   2.222  0.0172  1.1855  1.0100
 5043TIP3    H236689   5.620   0.775   2.276  0.7741  0.3179 -0.5443
 5044TIP3   OH236690   0.478   2.609   7.549  0.2794 -0.2774 -0.4044
 5044TIP3    H136691   0.524   2.601   7.633 -1.4642  1.0860  0.7647
 5044TIP3    H236692   0.481   2.522   7.511  1.4330 -0.8418  0.9091
 5045TIP3   OH236693   3.195   2.748   6.753  0.3664  0.4833 -0.2888
 5045TIP3    H136694   3.160   2.660   6.740 -2.3017  1.3660  0.3208
 5045TIP3    H236695   3.181   2.792   6.670  2.0430  0.2674 -0.7132
 5046TIP3   OH236696   4.883   0.584   7.408  0.1213  0.1309 -0.1698
 5046TIP3    H136697   4.930   0.665   7.429 -2.6196  1.8289 -0.0992
 5046TIP3    H236698   4.855   0.549   7.492 -1.4306  0.9168 -0.3238
 5047TIP3   OH236699   6.246   0.958   7.400 -0.0946  0.0618 -0.5152
 5047TIP3    H136700   6.279   0.876   7.362  1.1698 -0.6686  1.9772
 5047TIP3    H236701   6.156   0.964   7.368 -0.3344 -2.4580 -0.5777
 5048TIP3   OH236702   5.856   4.428   7.154 -0.6584 -0.6947  0.3347
 5048TIP3    H136703   5.815   4.432   7.240 -0.3059 -0.5387  0.4928
 5048TIP3    H236704   5.912   4.350   7.158  0.9372  0.4455  0.9391
 5049TIP3   OH236705   5.019   2.068   8.094  0.0633  0.4233  0.2269
 5049TIP3    H136706   5.081   2.068   8.166  1.1343  1.3538 -0.6713
 5049TIP3    H236707   5.062   2.116   8.024 -1.4899  0.7139 -0.5848
 5050TIP3   OH236708   3.913   4.421   7.600  0.5123 -0.1845 -0.0126
 5050TIP3    H136709   3.829   4.441   7.641  0.8326 -1.1372  1.1765
 5050TIP3    H236710   3.915   4.326   7.593  0.7530 -0.0771 -1.6966
 5051TIP3   OH236711   5.501   4.804   1.138  0.0654 -0.8747 -0.2084
 5051TIP3    H136712   5.521   4.717   1.103 -0.7325 -0.4226 -1.8779
 5051TIP3    H236713   5.409   4.798   1.166  0.6404 -1.1830  1.8004
 5052TIP3   OH236714   0.730   2.290   1.980 -0.1197  0.2717 -0.2962
 5052TIP3    H136715   0.795   2.233   2.021  1.4350  2.0378 -0.1326
 5052TIP3    H236716   0.661   2.299   2.046 -0.3424 -1.2714 -0.2824
 5053TIP3   OH236717   6.767   2.471   1.996  0.0514 -0.0220  0.0750
 5053TIP3    H136718   6.705   2.405   1.967  1.1157 -1.9676  1.9241
 5053TIP3    H236719   6.713   2.549   2.010 -1.2173 -0.3884 -2.3093
 5054TIP3   OH236720   5.047   3.654   1.331 -0.1026 -0.3481 -0.2178
 5054TIP3    H136721   5.055   3.666   1.236 -0.2723  3.0242  0.0841
 5054TIP3    H236722   4.959   3.617   1.342  0.1801 -1.4322 -1.3849
 5055TIP3   OH236723   3.207   0.319   0.510  0.3143  0.0430  0.0184
 5055TIP3    H136724   3.227   0.228   0.531 -2.5858 -0.3088  1.8790
 5055TIP3    H236725   3.148   0.314   0.435  0.5300  0.4234 -0.1800
 5056TIP3   OH236726   2.062   6.298   0.940  0.7270 -0.0850  0.0688
 5056TIP3    H136727   2.042   6.317   1.031  0.1419 -1.4762  0.2661
 5056TIP3    H236728   1.984   6.324   0.892  0.7825  0.0539  0.0549
 5057TIP3   OH236729   1.124   6.294   0.067 -0.2144  0.0217  0.3254
 5057TIP3    H136730   1.179   6.313   0.143  1.1825 -0.2469 -0.5739
 5057TIP3    H236731   1.179   6.238   0.012 -0.8984  0.8631 -1.2543
 5058TIP3   OH236732   2.387   2.329   7.349 -0.0997 -0.8169 -0.1911
 5058TIP3    H136733   2.291   2.325   7.350 -0.1302 -0.3132 -0.5173
 5058TIP3    H236734   2.413   2.276   7.274 -0.2326  0.6215 -1.2984
 5059TIP3   OH236735   1.373   0.786   0.112  0.4961 -0.1898  0.1370
 5059TIP3    H136736   1.469   0.784   0.104  0.4755  0.2828 -0.2857
 5059TIP3    H236737   1.355   0.743   0.195  0.8996 -2.8249 -1.0345
 5060TIP3   OH236738   3.437   0.022   7.326  0.6627  0.2729 -0.1896
 5060TIP3    H136739   3.471  -0.051   7.379  3.3490  0.5909 -1.3015
 5060TIP3    H236740   3.410  -0.019   7.244  2.1809  0.4484 -0.8180
 5061TIP3   OH236741   5.772   2.983   7.490 -0.2008  0.1981 -0.1703
 5061TIP3    H136742   5.851   2.930   7.482 -0.4804  0.0484 -2.5852
 5061TIP3    H236743   5.700   2.920   7.482 -0.6225  0.3392  1.9472
 5062TIP3   OH236744   0.318   1.396   0.995  0.1935  0.2782  0.0808
 5062TIP3    H136745   0.329   1.486   1.027 -0.3761  0.9060 -1.3763
 5062TIP3    H236746   0.375   1.392   0.918  0.3503 -0.6836  0.2398
 5063TIP3   OH236747   6.442   6.011   1.903  0.2018  0.1775  0.2050
 5063TIP3    H136748   6.353   5.976   1.900  0.2937 -0.2289  1.7716
 5063TIP3    H236749   6.471   6.009   1.812 -0.1084 -3.0279  0.0690
 5064TIP3   OH236750   3.333   4.119   1.156  0.0470 -0.6217  0.1491
 5064TIP3    H136751   3.274   4.189   1.131 -1.3080 -1.4919  0.7626
 5064TIP3    H236752   3.344   4.067   1.077  0.2709 -0.2664 -0.0551
 5065TIP3   OH236753   3.308   0.341   1.912  0.1888  0.1492  0.1587
 5065TIP3    H136754   3.308   0.291   1.993 -0.7937  0.4842  0.3844
 5065TIP3    H236755   3.325   0.431   1.939  1.4047  0.0282 -0.1839
 5066TIP3   OH236756   2.468   1.603   2.067  0.0951  0.1606  0.4901
 5066TIP3    H136757   2.483   1.510   2.086 -2.2326 -0.3303  0.1262
 5066TIP3    H236758   2.374   1.611   2.054  0.4837  2.1398 -1.9549
 5067TIP3   OH236759   5.681   6.662   0.809  0.7751 -0.1091  0.1305
 5067TIP3    H136760   5.636   6.620   0.736 -0.4141  0.1440  0.6958
 5067TIP3    H236761   5.644   6.750   0.813  2.1625  0.4997 -0.0980
 5068TIP3   OH236762   3.165   2.727   0.978 -0.0975  0.0693 -0.5561
 5068TIP3    H136763   3.157   2.784   0.901 -0.3516 -2.2731 -2.3983
 5068TIP3    H236764   3.128   2.778   1.050 -0.6220  2.0691 -2.1545
 5069TIP3   OH236765   4.719   6.111   1.661  0.0281 -0.2198 -0.4914
 5069TIP3    H136766   4.794   6.071   1.618 -1.0507 -0.5238 -2.1514
 5069TIP3    H236767   4.653   6.042   1.666 -1.9571  1.2271 -3.6428
 5070TIP3   OH236768   5.194   6.046   8.090  0.2493 -1.3896 -0.0273
 5070TIP3    H136769   5.269   5.995   8.059  0.0387 -1.8913  0.2795
 5070TIP3    H236770   5.231   6.131   8.114  0.3553 -0.8130 -2.0684
 5071TIP3   OH236771   6.381   2.129   7.111 -0.5545  0.0196 -0.0420
 5071TIP3    H136772   6.468   2.092   7.124  0.2606  1.6997 -0.4958
 5071TIP3    H236773   6.350   2.092   7.028 -0.7726 -1.4440  0.6635
 5072TIP3   OH236774   6.795   1.112   1.542 -0.2316  0.5821  0.1315
 5072TIP3    H136775   6.756   1.043   1.488 -0.8862  0.7052  0.4376
 5072TIP3    H236776   6.763   1.094   1.630 -0.4974  1.3476  0.1922
 5073TIP3   OH236777   6.763   2.161   5.898 -0.5943  0.1085 -0.1714
 5073TIP3    H136778   6.691   2.211   5.937 -0.7236  0.3546 -0.7133
 5073TIP3    H236779   6.720   2.088   5.853 -0.4316 -0.2865  0.3062
 5074TIP3   OH236780   4.751   1.211   7.611 -0.2053  0.6349  0.1333
 5074TIP3    H136781   4.679   1.211   7.547 -0.5299  0.4984  0.4930
 5074TIP3    H236782   4.750   1.299   7.649 -0.0964  0.6752  0.0422
 5075TIP3   OH236783   2.968   1.037   3.040 -0.2662  0.0778  0.3855
 5075TIP3    H136784   2.967   1.093   3.118  2.2888  0.1933  0.4221
 5075TIP3    H236785   2.981   1.098   2.967  1.5609 -0.3243  0.3317
 5076TIP3   OH236786   6.532   0.770   2.710  0.1881 -0.3971 -0.2082
 5076TIP3    H136787   6.527   0.842   2.773  0.1430 -1.2846  0.8119
 5076TIP3    H236788   6.484   0.803   2.634 -0.7784  0.2428  0.6500
 5077TIP3   OH236789   0.684   3.009   6.616  0.2387  0.4627  0.4986
 5077TIP3    H136790   0.649   3.092   6.585  1.7066  1.0520  0.3468
 5077TIP3    H236791   0.647   2.943   6.556  1.5279  1.3712 -1.4112
 5078TIP3   OH236792   5.230   4.955   7.833 -0.9219  0.2331  0.2982
 5078TIP3    H136793   5.220   5.045   7.800  1.0003  0.3959  0.0271
 5078TIP3    H236794   5.300   4.918   7.779  0.1340 -0.5456  2.1367
 5079TIP3   OH236795   3.619   3.426   0.912 -0.1944 -0.0969 -0.3361
 5079TIP3    H136796   3.641   3.476   0.990 -1.6413 -0.1390  0.1383
 5079TIP3    H236797   3.573   3.488   0.855 -0.4358 -0.4255 -0.5114
 5080TIP3   OH236798   2.841   4.588   0.606 -0.8629 -0.0706  0.3817
 5080TIP3    H136799   2.928   4.614   0.638  0.8588 -3.5527 -0.9566
 5080TIP3    H236800   2.794   4.560   0.685 -0.1255  0.2360  0.9399
 5081TIP3   OH236801   2.986   4.743   0.126  0.4290  0.0073  0.0589
 5081TIP3    H136802   3.075   4.775   0.144  0.8599 -1.7717  1.4773
 5081TIP3    H236803   2.998   4.650   0.108 -1.0656 -0.0552 -0.7813
 5082TIP3   OH236804   0.494   2.319   7.082  0.6467  0.2945 -0.0173
 5082TIP3    H136805   0.526   2.402   7.118 -1.2390  0.4665  1.4743
 5082TIP3    H236806   0.475   2.337   6.990  0.4972  1.4599  0.2339
 5083TIP3   OH236807   3.124   5.285   0.984  0.1275 -0.0233  0.0910
 5083TIP3    H136808   3.036   5.247   0.973 -0.2890  1.3038 -1.4550
 5083TIP3    H236809   3.136   5.289   1.079 -1.2525 -0.7231  0.3285
 5084TIP3   OH236810   4.857   3.810   0.972  0.2115 -0.4961 -0.4340
 5084TIP3    H136811   4.849   3.901   0.944  0.8983 -0.2104  0.2579
 5084TIP3    H236812   4.950   3.798   0.991 -0.1202 -0.8217  1.1657
 5085TIP3   OH236813   4.980   6.043   0.407  0.2187 -0.8005 -0.0298
 5085TIP3    H136814   5.058   5.995   0.433  0.2667 -0.9175 -0.3964
 5085TIP3    H236815   5.013   6.123   0.366  0.1551 -1.2627 -0.9858
 5086TIP3   OH236816   0.600   4.486   1.185  0.2453  0.2697 -0.3144
 5086TIP3    H136817   0.694   4.503   1.178  0.1580  0.6085 -0.6816
 5086TIP3    H236818   0.594   4.391   1.200  0.6717  0.3395  0.3399
 5087TIP3   OH236819   0.320   2.633   6.035  0.2363 -0.9721  0.4957
 5087TIP3    H136820   0.274   2.579   5.972 -1.3308  1.5390 -0.6471
 5087TIP3    H236821   0.252   2.682   6.080  1.5249 -0.4565  1.9887
 5088TIP3   OH236822   2.131   6.371   2.404  0.2064  0.2715 -0.3139
 5088TIP3    H136823   2.151   6.293   2.352  0.1990 -0.3612  0.5991
 5088TIP3    H236824   2.037   6.365   2.420 -0.0125  1.1006 -1.2153
 5089TIP3   OH236825   1.936   6.503   2.152 -0.4522  0.1417  0.6282
 5089TIP3    H136826   1.997   6.560   2.105  0.1940 -0.8232  0.2648
 5089TIP3    H236827   1.849   6.531   2.122 -0.2844  2.0483  1.7370
 5090TIP3   OH236828   3.218   5.892   2.689 -0.0305 -0.0833 -0.1006
 5090TIP3    H136829   3.294   5.885   2.746 -1.4459  1.1122  2.0579
 5090TIP3    H236830   3.159   5.823   2.719 -1.0383  0.9362  0.3213
 5091TIP3   OH236831   4.361   2.271   1.847 -0.0544 -0.4068  0.0147
 5091TIP3    H136832   4.380   2.360   1.815 -0.1931 -0.2587  0.3387
 5091TIP3    H236833   4.270   2.256   1.821 -0.5901  0.2158  1.4508
 5092TIP3   OH236834   3.863   6.438   7.872  0.0947 -0.7057  0.0834
 5092TIP3    H136835   3.782   6.430   7.822  0.4421 -1.5980 -0.3617
 5092TIP3    H236836   3.892   6.528   7.859 -1.4205 -0.0287  1.1842
 5093TIP3   OH236837   0.459   0.611   2.329  0.3665  0.7253 -0.2570
 5093TIP3    H136838   0.377   0.644   2.293 -0.9868 -0.1859  1.8080
 5093TIP3    H236839   0.435   0.532   2.376  2.8677 -1.0334 -1.6624
 5094TIP3   OH236840   3.135   6.467   0.636  0.3955  0.7760  0.1273
 5094TIP3    H136841   3.212   6.456   0.581  0.7053  0.5333  0.6040
 5094TIP3    H236842   3.170   6.488   0.723 -0.0424 -0.0646  0.5192
 5095TIP3   OH236843   4.086   2.475   7.241  0.0933 -0.1763  0.1170
 5095TIP3    H136844   4.017   2.524   7.286  1.6053  1.8820  0.3019
 5095TIP3    H236845   4.082   2.387   7.279 -2.4235 -0.1549  0.0772
 5096TIP3   OH236846   0.553   2.371   1.750  0.3711 -0.1513  0.0735
 5096TIP3    H136847   0.598   2.296   1.788 -0.2036 -1.5041 -1.7630
 5096TIP3    H236848   0.621   2.417   1.700  0.5782  0.1539  0.6364
 5097TIP3   OH236849   3.513   4.594   2.797 -0.0910  0.3923 -0.0934
 5097TIP3    H136850   3.421   4.571   2.788 -0.2719  1.0380  0.1053
 5097TIP3    H236851   3.558   4.539   2.732 -0.7028  0.7150 -0.7973
 5098TIP3   OH236852   2.831   2.808   1.255 -0.1235  0.9798  0.0303
 5098TIP3    H136853   2.766   2.805   1.185 -0.3485  0.2153  0.2603
 5098TIP3    H236854   2.897   2.869   1.224  1.3791 -1.6184 -2.2709
 5099TIP3   OH236855   0.989   2.556   1.435 -0.0788 -0.0995 -0.4195
 5099TIP3    H136856   0.977   2.609   1.513  0.9699  0.8721 -0.8786
 5099TIP3    H236857   1.063   2.597   1.390 -0.1449 -1.1225 -1.5072
 5100TIP3   OH236858   3.688   5.287   7.345  0.0231  0.1289 -0.0606
 5100TIP3    H136859   3.769   5.239   7.359  2.1394  3.3138 -0.1468
 5100TIP3    H236860   3.669   5.275   7.252  2.8470  2.5016 -1.1023
 5101TIP3   OH236861   5.586   4.609   2.407  0.3342 -0.5045  0.4802
 5101TIP3    H136862   5.606   4.551   2.480 -3.2909 -0.3668  1.7830
 5101TIP3    H236863   5.574   4.550   2.332 -0.9096 -1.2393  1.2280
 5102TIP3   OH236864   4.729   1.957   0.733 -0.1307  0.4721  0.0649
 5102TIP3    H136865   4.686   1.990   0.654  0.7368  0.5091 -0.4122
 5102TIP3    H236866   4.689   2.005   0.805 -0.4320  0.9571 -0.4208
 5103TIP3   OH236867   6.695   2.835   7.766  0.1653 -0.7081 -0.0446
 5103TIP3    H136868   6.604   2.862   7.780  0.1891 -0.9952  0.7128
 5103TIP3    H236869   6.745   2.889   7.828  0.1942 -2.6070  1.6840
 5104TIP3   OH236870   4.835   4.065   0.853  0.2001  0.4767 -0.7739
 5104TIP3    H136871   4.905   4.120   0.889  0.6174 -0.3223 -0.3395
 5104TIP3    H236872   4.832   4.088   0.760 -0.1997  1.8285 -0.4585
 5105TIP3   OH236873   4.607   1.924   7.112 -0.2630  0.3198 -0.3178
 5105TIP3    H136874   4.613   1.853   7.049 -1.4375 -0.2707  0.2085
 5105TIP3    H236875   4.526   1.970   7.089  0.7294  1.8371 -0.9807
 5106TIP3   OH236876   4.935   5.881   1.276  0.5677  0.2969 -0.8363
 5106TIP3    H136877   5.029   5.896   1.273  0.6019  1.7360  2.5233
 5106TIP3    H236878   4.896   5.961   1.241  0.6818  1.0364  0.6352
 5107TIP3   OH236879   3.983   1.520   2.209  0.0140 -0.4180  0.2099
 5107TIP3    H136880   4.076   1.509   2.193 -0.0878 -1.7779  0.4263
 5107TIP3    H236881   3.952   1.575   2.137  0.9830  0.1018  0.1763
 5108TIP3   OH236882   3.315   2.061   0.443 -0.1663  0.5095  0.2061
 5108TIP3    H136883   3.391   2.053   0.385 -0.1632  2.1103 -0.0528
 5108TIP3    H236884   3.255   1.993   0.412  1.1436 -0.7936  0.4314
 5109TIP3   OH236885   6.746   5.160   7.788  0.3096 -0.2676 -0.4136
 5109TIP3    H136886   6.721   5.133   7.699 -0.2956 -1.7772  0.1852
 5109TIP3    H236887   6.774   5.251   7.778 -1.3091  0.1347 -1.8839
 5110TIP3   OH236888   3.623   4.907   1.731  0.2224 -0.4061  0.1340
 5110TIP3    H136889   3.654   4.996   1.747  0.1138 -0.1836 -0.8604
 5110TIP3    H236890   3.695   4.851   1.761  0.8697  0.0583 -0.5333
 5111TIP3   OH236891   0.972   0.047   2.562 -0.4778  0.6800  0.0381
 5111TIP3    H136892   0.912  -0.028   2.557 -1.2356  1.3141 -0.6648
 5111TIP3    H236893   0.929   0.116   2.511 -0.0706  1.7791  1.1132
 5112TIP3   OH236894   5.807   5.292   8.134 -0.0390  0.5208 -0.3796
 5112TIP3    H136895   5.748   5.241   8.190  0.2034  0.1284 -0.4804
 5112TIP3    H236896   5.766   5.287   8.047 -0.2908  0.9352 -0.2895
 5113TIP3   OH236897   5.336   2.798   2.561  0.1163 -0.5652 -0.1745
 5113TIP3    H136898   5.284   2.863   2.513 -0.2049 -2.0504 -1.9752
 5113TIP3    H236899   5.294   2.791   2.646  0.3496  1.7792  0.1792
 5114TIP3   OH236900   3.054   2.078   0.262 -0.5435  0.1135 -0.5542
 5114TIP3    H136901   3.086   1.992   0.289 -0.9455 -0.1242 -0.8060
 5114TIP3    H236902   2.991   2.102   0.330  0.7052  0.9347  0.3595
 5115TIP3   OH236903   0.086   1.941   7.001 -0.2710 -0.0886  0.0428
 5115TIP3    H136904   0.011   1.899   6.959  0.8299  0.1006 -2.2422
 5115TIP3    H236905   0.114   2.009   6.939 -0.6435  2.6575  2.6251
 5116TIP3   OH236906   1.868   2.782   0.654  0.3976 -0.8671 -0.3689
 5116TIP3    H136907   1.925   2.769   0.578  0.5151  0.2100 -0.4873
 5116TIP3    H236908   1.845   2.875   0.650 -0.7284 -1.1131  0.1291
 5117TIP3   OH236909   5.780   0.963   7.478  0.0343 -0.6766 -0.1603
 5117TIP3    H136910   5.778   0.931   7.568 -0.9903 -0.3021 -0.0346
 5117TIP3    H236911   5.798   1.057   7.486 -2.9604  0.0079 -0.0988
 5118TIP3   OH236912   3.362   1.907   1.643  0.1009  0.1868  0.0702
 5118TIP3    H136913   3.302   1.960   1.591  1.5072  1.1726 -0.6027
 5118TIP3    H236914   3.326   1.912   1.732 -1.3842 -0.1257 -0.4815
 5119TIP3   OH236915   6.842   6.965   0.668  0.6676 -0.0265 -0.4379
 5119TIP3    H136916   6.838   6.876   0.633  1.9334 -0.2591 -0.0286
 5119TIP3    H236917   6.934   6.989   0.664  0.4185  1.0796 -0.0477
 5120TIP3   OH236918   0.516   1.860   7.775 -0.3408  0.6948  0.0307
 5120TIP3    H136919   0.458   1.854   7.699 -0.8733  1.0959  0.4027
 5120TIP3    H236920   0.572   1.782   7.768 -0.2341  0.8367 -0.8898
 5121TIP3   OH236921   5.197   1.404   1.751  0.4774 -0.2466 -0.8761
 5121TIP3    H136922   5.191   1.418   1.656  1.3911  0.1570 -0.8873
 5121TIP3    H236923   5.193   1.492   1.788  0.6969 -0.3572 -0.5846
 5122TIP3   OH236924   5.316   6.718   0.328  0.0168  0.0930  0.1132
 5122TIP3    H136925   5.279   6.785   0.386 -1.8106  0.9160 -1.8494
 5122TIP3    H236926   5.388   6.762   0.283 -1.6324  1.0961 -1.7007
 5123TIP3   OH236927   1.161   0.813   0.419  0.1312 -0.4217  0.3002
 5123TIP3    H136928   1.251   0.781   0.421 -0.3567 -1.8228  0.9739
 5123TIP3    H236929   1.163   0.893   0.472  0.9931 -0.3576  0.1881
 5124TIP3   OH236930   1.756   6.752   1.461 -0.1421 -0.3522 -0.0397
 5124TIP3    H136931   1.728   6.680   1.404  2.5857 -2.1863  0.7181
 5124TIP3    H236932   1.804   6.812   1.403 -1.2359  0.1620 -0.4295
 5125TIP3   OH236933   2.418   2.611   1.438 -0.6975  0.5573  0.1805
 5125TIP3    H136934   2.477   2.537   1.456 -2.8357 -1.3234 -0.1820
 5125TIP3    H236935   2.425   2.624   1.344 -1.0467  0.1540  0.0959
 5126TIP3   OH236936   4.111   1.436   6.417  0.1868  0.1672 -0.2556
 5126TIP3    H136937   4.072   1.457   6.332  0.6622  2.8290  0.1045
 5126TIP3    H236938   4.202   1.413   6.396 -0.2729 -1.4281 -0.6377
 5127TIP3   OH236939   6.486   4.757   8.137  0.0673 -0.0048 -0.2952
 5127TIP3    H136940   6.390   4.749   8.141 -0.1473  0.4811 -2.7838
 5127TIP3    H236941   6.506   4.825   8.201 -1.7432  2.5113 -2.1461
 5128TIP3   OH236942   6.782   3.606   1.551  0.1659  0.0852 -0.5634
 5128TIP3    H136943   6.697   3.571   1.575  0.7410  0.2470  1.9248
 5128TIP3    H236944   6.808   3.555   1.474 -2.0121 -0.1476 -1.2101
 5129TIP3   OH236945   2.436   4.724   2.835  0.4279  0.2402 -0.2947
 5129TIP3    H136946   2.509   4.771   2.794  0.1575 -0.5796 -1.8101
 5129TIP3    H236947   2.370   4.792   2.852  1.0789  0.8062  0.0295
 5130TIP3   OH236948   3.146   0.289   2.535 -0.4996  0.6850  0.0645
 5130TIP3    H136949   3.150   0.337   2.452  1.9241  1.2279  0.4140
 5130TIP3    H236950   3.116   0.355   2.599  1.5413  1.4696  0.2971
 5131TIP3   OH236951   5.319   1.396   2.139 -0.4337 -0.8051  0.2083
 5131TIP3    H136952   5.413   1.398   2.122 -0.6114 -1.6569 -1.0686
 5131TIP3    H236953   5.311   1.403   2.234  0.9213 -0.7823  0.3392
 5132TIP3   OH236954   6.106   6.558   0.525 -0.3125 -0.2097 -0.7128
 5132TIP3    H136955   6.057   6.635   0.554 -0.6201 -0.1433 -1.3853
 5132TIP3    H236956   6.045   6.512   0.467 -0.6822 -1.7693  0.8400
 5133TIP3   OH236957   3.556   0.269   0.580 -0.3661  0.3166  0.3459
 5133TIP3    H136958   3.594   0.182   0.568 -1.3096  0.0202 -0.6116
 5133TIP3    H236959   3.486   0.256   0.643 -3.1081 -0.4746 -2.6064
 5134TIP3   OH236960   1.803   2.615   7.252  0.0942  0.1515  0.0735
 5134TIP3    H136961   1.751   2.535   7.255  0.0515  0.1925  0.5513
 5134TIP3    H236962   1.738   2.685   7.257 -0.0554  0.2961 -2.3998
 5135TIP3   OH236963   3.716   4.998   7.898  0.6283  0.2567  0.2116
 5135TIP3    H136964   3.795   5.051   7.910 -0.4368  1.9311  0.1238
 5135TIP3    H236965   3.728   4.924   7.958  2.4022  0.2850 -0.0468
 5136TIP3   OH236966   3.103   3.214   7.211  0.0194 -0.2302  0.6235
 5136TIP3    H136967   3.019   3.181   7.242  0.0335 -1.2252 -0.3468
 5136TIP3    H236968   3.103   3.307   7.236 -1.3142 -0.2334  0.7121
 5137TIP3   OH236969   2.723   2.378   0.982  0.1599  0.1689 -0.2087
 5137TIP3    H136970   2.782   2.310   0.951  0.8196  1.6537 -2.4644
 5137TIP3    H236971   2.776   2.429   1.043 -0.1850 -0.9868  1.1021
 5138TIP3   OH236972   5.127   1.544   0.799  0.1511  0.0362 -0.9584
 5138TIP3    H136973   5.080   1.568   0.719  2.1216  0.0393 -2.1960
 5138TIP3    H236974   5.109   1.451   0.810 -0.9672  0.2590 -0.7938
 5139TIP3   OH236975   5.781   2.798   7.948 -0.2051  0.6237  0.2167
 5139TIP3    H136976   5.778   2.892   7.931 -0.2504  0.6597  0.4210
 5139TIP3    H236977   5.691   2.775   7.971 -0.3992  0.3550 -0.7423
 5140TIP3   OH236978   0.861   5.910   1.133  0.2491 -0.2431 -0.1393
 5140TIP3    H136979   0.779   5.890   1.087  0.3052  0.6718 -0.6751
 5140TIP3    H236980   0.916   5.950   1.066  1.2198 -1.0191  0.1660
 5141TIP3   OH236981   4.079   0.149   1.911  0.3777  0.0702 -0.2594
 5141TIP3    H136982   4.109   0.239   1.904 -0.2236  0.2226 -0.9670
 5141TIP3    H236983   4.152   0.102   1.952  0.3722  1.0327  0.9048
 5142TIP3   OH236984   0.143   1.741   0.883 -0.5820 -0.9574 -0.5736
 5142TIP3    H136985   0.112   1.767   0.797 -2.1224 -5.0674 -1.5132
 5142TIP3    H236986   0.076   1.772   0.944 -1.0385 -0.5892 -1.2547
 5143TIP3   OH236987   3.671   6.160   7.775  0.3254 -0.0107 -0.3932
 5143TIP3    H136988   3.645   6.125   7.861  0.4704  0.6200 -0.0873
 5143TIP3    H236989   3.631   6.247   7.772  0.1750 -0.1003 -1.0430
 5144TIP3   OH236990   2.859   4.446   7.125 -0.1984 -0.3111 -0.6233
 5144TIP3    H136991   2.888   4.378   7.186 -0.4877 -0.9570 -1.1933
 5144TIP3    H236992   2.937   4.468   7.074 -0.5695 -1.7828 -1.9046
 5145TIP3   OH236993   4.009   1.311   7.683 -0.5295  0.0124  0.3963
 5145TIP3    H136994   4.059   1.322   7.602 -0.2349 -2.1060  0.2244
 5145TIP3    H236995   3.922   1.346   7.663  0.0080  0.9936 -0.2911
 5146TIP3   OH236996   6.676   2.937   1.078  0.1162 -0.3226  0.7286
 5146TIP3    H136997   6.622   2.869   1.117  0.3772 -0.8545  0.1792
 5146TIP3    H236998   6.707   2.899   0.996  0.6444  0.2874  0.6378
 5147TIP3   OH236999   5.388   5.151   0.191  0.2267 -0.0312  0.3072
 5147TIP3    H137000   5.417   5.061   0.203 -0.5910 -0.1267  1.8175
 5147TIP3    H237001   5.325   5.166   0.261  0.0697  1.6093 -0.1294
 5148TIP3   OH237002   2.421   1.151   6.898  0.3218  0.2003 -0.7391
 5148TIP3    H137003   2.492   1.093   6.926 -0.8074 -1.5713 -1.4129
 5148TIP3    H237004   2.396   1.119   6.811 -2.5707 -0.5246  0.2307
 5149TIP3   OH237005   2.599   3.600   7.629 -0.1894 -0.1558  0.0648
 5149TIP3    H137006   2.590   3.621   7.536 -0.7941 -1.7282 -0.2630
 5149TIP3    H237007   2.510   3.575   7.656  0.4148 -2.1138  0.4077
 5150TIP3   OH237008   5.600   5.805   7.105 -0.7683 -0.0043 -0.1814
 5150TIP3    H137009   5.628   5.804   7.014 -4.0888  2.5203 -1.4358
 5150TIP3    H237010   5.676   5.775   7.154  0.7967 -2.7148 -3.7957
 5151TIP3   OH237011   5.027   1.981   7.575  0.1155  0.0847  0.0168
 5151TIP3    H137012   5.117   1.951   7.561  0.6342  1.4660  0.2651
 5151TIP3    H237013   4.989   1.984   7.487  0.1347 -0.9866 -0.0437
 5152TIP3   OH237014   3.633   6.300   2.111 -0.0457  0.5059  0.4802
 5152TIP3    H137015   3.614   6.233   2.177  0.0709 -2.0715 -1.9093
 5152TIP3    H237016   3.548   6.319   2.072  0.3797 -1.4266 -1.5807
 5153TIP3   OH237017   5.121   5.217   1.344  0.5800  0.2566 -0.4584
 5153TIP3    H137018   5.178   5.220   1.420 -0.2964  0.0956  0.2150
 5153TIP3    H237019   5.061   5.144   1.361 -3.6847  3.7472  1.6993
 5154TIP3   OH237020   5.261   6.451   2.614 -0.4892 -0.3754 -0.1372
 5154TIP3    H137021   5.239   6.416   2.700  0.0159 -1.7131 -0.5355
 5154TIP3    H237022   5.353   6.477   2.622 -0.6412  0.1716 -0.0783
 5155TIP3   OH237023   1.266   6.913   2.231  0.1580 -0.0474  0.7275
 5155TIP3    H137024   1.196   6.857   2.263 -0.1860 -0.7461 -1.1285
 5155TIP3    H237025   1.324   6.853   2.184  0.4964  0.9553 -0.1545
 5156TIP3   OH237026   0.827   4.010   1.904  0.7513  0.4649  0.1293
 5156TIP3    H137027   0.862   4.098   1.886  2.5045  0.2453  2.1849
 5156TIP3    H237028   0.872   3.981   1.983  0.5875 -2.5332 -0.7528
 5157TIP3   OH237029   0.910   1.430   7.463  0.5282  0.0175  0.5160
 5157TIP3    H137030   0.840   1.459   7.405  1.4609 -0.7709 -1.0566
 5157TIP3    H237031   0.864   1.388   7.536 -0.6835  1.5835  0.7052
 5158TIP3   OH237032   0.429   2.913   2.209  0.0243 -0.7878  0.0597
 5158TIP3    H137033   0.440   2.916   2.304  1.8700  0.2286 -0.1596
 5158TIP3    H237034   0.373   2.988   2.189 -1.8098 -1.9622  0.4539
 5159TIP3   OH237035   5.486   5.622   7.726  0.1758  0.2057  0.6004
 5159TIP3    H137036   5.557   5.625   7.790 -0.0941  1.2339  0.8625
 5159TIP3    H237037   5.462   5.713   7.712 -0.6964 -0.0930  0.0630
 5160TIP3   OH237038   0.429   1.879   1.222  0.0560  0.1218 -0.2293
 5160TIP3    H137039   0.388   1.966   1.226 -3.0743 -1.2450  0.4494
 5160TIP3    H237040   0.445   1.857   1.314  1.6133  0.2386 -0.4395
 5161TIP3   OH237041   3.645   1.854   0.463  0.2288 -0.0265 -0.3204
 5161TIP3    H137042   3.590   1.919   0.419 -0.4791  1.1091  2.0548
 5161TIP3    H237043   3.733   1.890   0.457  0.2961 -0.3729 -1.5999
 5162TIP3   OH237044   4.835   3.988   0.506 -0.0618  0.0871  0.6945
 5162TIP3    H137045   4.772   3.988   0.434  0.0263 -0.6575  0.6147
 5162TIP3    H237046   4.827   3.901   0.545  1.5760 -0.3429  0.1215
 5163TIP3   OH237047   5.284   5.337   0.776 -0.0649  0.3431 -0.2918
 5163TIP3    H137048   5.210   5.276   0.782 -0.3397  0.7299  0.3390
 5163TIP3    H237049   5.360   5.284   0.800 -0.3660  0.3503  0.7202
 5164TIP3   OH237050   6.330   2.084   1.992  0.3265  0.0814 -0.0377
 5164TIP3    H137051   6.261   2.044   1.939  0.6138  0.3494 -0.6267
 5164TIP3    H237052   6.296   2.170   2.015 -0.5988 -0.7436  1.8497
 5165TIP3   OH237053   4.842   1.179   1.581 -0.3495  0.1731  0.2679
 5165TIP3    H137054   4.785   1.121   1.531 -0.6220 -2.1637  3.0265
 5165TIP3    H237055   4.820   1.267   1.551 -1.9392 -0.9480 -2.1215
 5166TIP3   OH237056   5.731   0.486   1.249 -0.0642  0.3556  0.0548
 5166TIP3    H137057   5.685   0.404   1.230 -0.8479  0.7095  0.3448
 5166TIP3    H237058   5.733   0.533   1.166 -0.3944  0.4150  0.0796
 5167TIP3   OH237059   3.174   5.170   7.978  0.6222 -0.4065 -0.6659
 5167TIP3    H137060   3.254   5.119   7.993  1.9953  1.2692 -1.8725
 5167TIP3    H237061   3.114   5.141   8.046  2.2509 -1.7448  0.2801
 5168TIP3   OH237062   6.269   6.561   1.883  0.7727  0.5116 -0.5119
 5168TIP3    H137063   6.354   6.516   1.880  0.7646  0.5185 -1.1322
 5168TIP3    H237064   6.217   6.518   1.815 -0.1863 -0.3783  0.7374
 5169TIP3   OH237065   2.867   6.529   0.732 -0.2113  0.3932  0.1206
 5169TIP3    H137066   2.952   6.572   0.734  0.6421 -1.0242 -1.9277
 5169TIP3    H237067   2.870   6.465   0.802  0.3569  0.4604  0.1582
 5170TIP3   OH237068   4.356   2.967   1.641  0.6322  0.5559  0.1010
 5170TIP3    H137069   4.437   3.001   1.679  0.8429 -2.8350  3.2337
 5170TIP3    H237070   4.383   2.887   1.596 -0.7868  0.2898 -0.3221
 5171TIP3   OH237071   4.511   4.173   1.054  0.3312 -0.1580 -0.3025
 5171TIP3    H137072   4.440   4.121   1.091  0.1017  0.7134  0.5261
 5171TIP3    H237073   4.469   4.255   1.028  0.8850  0.0418 -0.5760
 5172TIP3   OH237074   5.269   4.104   0.698  0.5077 -0.3753 -0.3075
 5172TIP3    H137075   5.182   4.139   0.678  1.1342  1.8300  0.5524
 5172TIP3    H237076   5.253   4.028   0.753 -0.8877  0.3646  0.3528
 5173TIP3   OH237077   4.629   3.280   2.183  0.3623 -0.6346 -0.0824
 5173TIP3    H137078   4.571   3.356   2.172  1.3142  0.0816 -0.3840
 5173TIP3    H237079   4.603   3.240   2.265  0.2254  0.3896  0.3854
 5174TIP3   OH237080   6.985   1.323   7.415 -0.1922 -0.0737 -0.2563
 5174TIP3    H137081   6.894   1.312   7.388  0.1557 -0.7627 -1.2052
 5174TIP3    H237082   7.018   1.234   7.426  0.5953  0.1464 -0.7514
 5175TIP3   OH237083   4.938   2.567   2.101 -0.0814 -0.2431  0.4108
 5175TIP3    H137084   4.870   2.502   2.116  0.0282 -0.8964 -1.6808
 5175TIP3    H237085   4.890   2.650   2.089 -0.2229  0.1322  2.9712
 5176TIP3   OH237086   5.224   6.780   1.975  0.9198 -0.0157 -0.0251
 5176TIP3    H137087   5.261   6.764   1.888  1.4147  0.0134  0.1780
 5176TIP3    H237088   5.253   6.868   1.998  2.0301 -0.5707  0.7818
 5177TIP3   OH237089   2.979   3.422   0.181  0.3416 -0.1871  0.2407
 5177TIP3    H137090   2.948   3.342   0.139 -0.8950 -0.4854  1.6127
 5177TIP3    H237091   2.901   3.477   0.186  0.9635  0.7149  0.1844
 5178TIP3   OH237092   1.502   1.951   6.447 -0.4561  0.2516 -0.7588
 5178TIP3    H137093   1.489   1.896   6.525  1.1955 -0.0101 -0.6412
 5178TIP3    H237094   1.560   2.021   6.477  0.0192  0.2665 -1.7134
 5179TIP3   OH237095   4.821   6.310   1.287 -0.0268 -0.1098 -0.2102
 5179TIP3    H137096   4.782   6.306   1.375  0.5796 -2.1023  0.0139
 5179TIP3    H237097   4.757   6.267   1.231  0.3580 -0.3763 -0.4448
 5180TIP3   OH237098   6.171   4.458   7.225 -0.5438 -0.5899  0.0400
 5180TIP3    H137099   6.132   4.373   7.205 -0.9291 -0.0826 -1.4420
 5180TIP3    H237100   6.114   4.496   7.292 -1.9022 -0.3904 -1.1953
 5181TIP3   OH237101   3.543   4.830   1.054 -0.3333  0.0581 -0.1242
 5181TIP3    H137102   3.543   4.926   1.050  0.7101  0.0738  0.0050
 5181TIP3    H237103   3.519   4.810   1.145 -1.1560  0.1675 -0.3030
 5182TIP3   OH237104   0.503   0.696   7.714  0.4311 -0.1943  0.3848
 5182TIP3    H137105   0.414   0.733   7.714  0.5222  0.3130 -3.1200
 5182TIP3    H237106   0.552   0.753   7.773 -0.6755  2.0665 -0.7568
 5183TIP3   OH237107   0.656   2.500   1.396  0.4429 -0.0321  1.2342
 5183TIP3    H137108   0.741   2.456   1.400 -0.3180 -1.5459  1.5089
 5183TIP3    H237109   0.597   2.435   1.358 -0.9833  0.3370  2.6857
 5184TIP3   OH237110   0.692   3.888   0.577  0.1443  0.2911  0.3280
 5184TIP3    H137111   0.704   3.971   0.530 -2.3157  1.9595  2.3636
 5184TIP3    H237112   0.664   3.914   0.665  1.9756 -2.7142  1.9596
 5185TIP3   OH237113   4.135   1.002   1.751  0.3598 -0.2906 -0.3072
 5185TIP3    H137114   4.149   1.074   1.811  0.8441 -0.9954  0.4477
 5185TIP3    H237115   4.053   1.023   1.706  1.3706  1.5768 -1.3694
 5186TIP3   OH237116   5.829   2.314   8.256 -0.6015  0.3220 -0.1130
 5186TIP3    H137117   5.818   2.357   8.341 -1.2685 -0.1143  0.0288
 5186TIP3    H237118   5.804   2.223   8.271 -0.8122  0.2599 -0.7927
 5187TIP3   OH237119   0.556   4.489   7.498  0.3565  0.0407 -0.0390
 5187TIP3    H137120   0.573   4.439   7.418  0.7903  0.0800  0.0211
 5187TIP3    H237121   0.555   4.424   7.567 -0.8179 -0.0923 -0.1654
 5188TIP3   OH237122   1.150   3.430   8.075  0.5574  0.8650 -0.5642
 5188TIP3    H137123   1.082   3.497   8.078 -0.4851  0.2278 -4.2598
 5188TIP3    H237124   1.186   3.427   8.164 -3.4441  2.0259  1.3222
 5189TIP3   OH237125   3.092   3.676   1.516  0.7469  0.1740 -0.3559
 5189TIP3    H137126   3.107   3.601   1.458  0.5945 -0.6387  0.6301
 5189TIP3    H237127   3.088   3.638   1.603 -0.5898  1.1791  0.0462
 5190TIP3   OH237128   3.033   1.128   5.976  0.2175  0.2089  0.4822
 5190TIP3    H137129   3.025   1.179   6.056 -0.8880  0.4969  0.2111
 5190TIP3    H237130   3.126   1.108   5.969  0.1260 -1.4037  2.7989
 5191TIP3   OH237131   0.371   3.084   0.519  0.1366  0.4406  0.0124
 5191TIP3    H137132   0.355   3.172   0.553 -1.6634  0.8050 -1.6036
 5191TIP3    H237133   0.375   3.095   0.424 -0.3126 -1.2328 -0.2339
 5192TIP3   OH237134   6.343   6.469   0.999  0.6807  0.3417  0.7488
 5192TIP3    H137135   6.257   6.487   1.035 -0.0605 -2.4911  0.6028
 5192TIP3    H237136   6.334   6.485   0.905  0.4825  0.5102  0.7954
 5193TIP3   OH237137   1.696   0.388   7.049 -0.3000  0.5126  0.1293
 5193TIP3    H137138   1.624   0.396   6.987 -0.4279 -1.2930 -0.0080
 5193TIP3    H237139   1.764   0.341   7.001 -0.8069 -1.9152  1.6068
 5194TIP3   OH237140   4.300   0.156   8.086  0.0977  0.0153  0.0380
 5194TIP3    H137141   4.330   0.085   8.144  0.5284  0.9421  0.9844
 5194TIP3    H237142   4.209   0.132   8.066 -0.5912  0.3751  2.3347
 5195TIP3   OH237143   3.282   4.153   0.147  0.7157 -0.7443  0.0815
 5195TIP3    H137144   3.299   4.141   0.240  1.1715  1.7205  0.3876
 5195TIP3    H237145   3.190   4.129   0.136 -0.0656  1.1933  1.7045
 5196TIP3   OH237146   6.663   6.466   8.074  0.3779  0.2912  0.6502
 5196TIP3    H137147   6.571   6.478   8.094 -0.3419 -0.2406 -1.9119
 5196TIP3    H237148   6.687   6.544   8.024  0.6769 -0.5215 -0.5339
 5197TIP3   OH237149   1.785   4.240   6.256  0.2391 -0.8405  0.2817
 5197TIP3    H137150   1.785   4.294   6.336 -1.3643 -0.2539 -0.0823
 5197TIP3    H237151   1.875   4.246   6.223  0.2280  1.2494  0.5151
 5198TIP3   OH237152   4.650   0.328   2.148  0.3977  0.3420  0.2107
 5198TIP3    H137153   4.743   0.346   2.135  0.9601 -0.9288  2.0265
 5198TIP3    H237154   4.642   0.309   2.242 -0.9624 -3.2322 -0.4724
 5199TIP3   OH237155   0.850   5.267   6.015 -0.9072  0.5379  0.1658
 5199TIP3    H137156   0.921   5.295   6.074 -0.8896 -0.7495  0.7791
 5199TIP3    H237157   0.770   5.297   6.058 -0.8474  0.2500  0.4849
 5200TIP3   OH237158   1.641   0.108   7.360 -0.0586 -0.4885  0.2728
 5200TIP3    H137159   1.732   0.129   7.379  0.0255 -0.8540  0.2829
 5200TIP3    H237160   1.593   0.188   7.381  0.2307 -0.3714  0.4949
 5201TIP3   OH237161   1.540   3.327   0.034 -0.2099 -0.2482  0.3916
 5201TIP3    H137162   1.559   3.387   0.107 -0.7304 -1.0771  1.2199
 5201TIP3    H237163   1.464   3.277   0.063  0.4919 -1.6389 -0.0851
 5202TIP3   OH237164   0.517   0.029   0.295 -0.4318 -0.0590  0.1589
 5202TIP3    H137165   0.480   0.042   0.208  0.3741  0.4757 -0.1204
 5202TIP3    H237166   0.580  -0.042   0.284 -1.3500 -0.9553  0.6249
 5203TIP3   OH237167   4.853   1.068   1.835  0.0578  0.1793 -0.0475
 5203TIP3    H137168   4.858   1.109   1.748 -1.3882 -1.0789 -0.7798
 5203TIP3    H237169   4.881   1.136   1.895  1.2975  1.0332 -1.5115
 5204TIP3   OH237170   6.907   4.657   1.638 -0.2014 -0.0793 -0.3770
 5204TIP3    H137171   6.952   4.596   1.580  1.3462  1.3257 -0.7236
 5204TIP3    H237172   6.964   4.734   1.641 -0.4198  0.0658  2.7269
 5205TIP3   OH237173   4.351   5.141   1.050 -0.2015 -0.2586  0.2886
 5205TIP3    H137174   4.304   5.182   0.978 -0.1819 -0.3817  0.2062
 5205TIP3    H237175   4.369   5.052   1.020  0.6307 -0.0227  0.0680
 5206TIP3   OH237176   1.498   5.098   7.028  0.0892  0.3357 -0.5808
 5206TIP3    H137177   1.570   5.098   6.966  0.7039  2.0894  0.0722
 5206TIP3    H237178   1.508   5.016   7.077  0.3893 -0.4172 -1.8568
 5207TIP3   OH237179   4.141   5.176   1.294  0.0556 -0.2125  0.1412
 5207TIP3    H137180   4.107   5.165   1.206  2.0569  1.3770 -0.9096
 5207TIP3    H237181   4.072   5.223   1.341 -0.2922  0.5908 -1.1399
 5208TIP3   OH237182   5.732   2.643   0.276  0.0489  1.0018 -0.0585
 5208TIP3    H137183   5.735   2.724   0.326 -1.8549  0.7478  0.5329
 5208TIP3    H237184   5.654   2.651   0.221 -1.2600 -1.1257  1.3408
 5209TIP3   OH237185   4.408   2.577   7.809 -0.3112 -0.6480  0.2723
 5209TIP3    H137186   4.404   2.625   7.892  1.0547 -1.7949  1.0387
 5209TIP3    H237187   4.444   2.492   7.832 -0.2044 -1.1073 -1.4659
 5210TIP3   OH237188   3.588   3.348   7.841  0.2003  0.0426  0.1118
 5210TIP3    H137189   3.622   3.420   7.894  0.7144 -0.2597  0.1980
 5210TIP3    H237190   3.615   3.369   7.752  0.9331 -0.3747  0.2278
 5211TIP3   OH237191   6.829   0.009   2.233 -0.0827 -0.3737  0.5097
 5211TIP3    H137192   6.868  -0.050   2.169 -1.4796  0.7125 -1.4623
 5211TIP3    H237193   6.888   0.006   2.309  2.6072 -0.4394 -1.4560
 5212TIP3   OH237194   6.712   0.112   0.446  0.5162  0.1497  0.8581
 5212TIP3    H137195   6.797   0.155   0.438  2.0613 -2.9475 -1.0611
 5212TIP3    H237196   6.724   0.046   0.515  0.1601 -1.2309 -0.3468
 5213TIP3   OH237197   3.582   0.496   1.957  0.3651  0.1022  0.3713
 5213TIP3    H137198   3.622   0.580   1.934  0.8119  0.1175  1.1904
 5213TIP3    H237199   3.497   0.520   1.994  0.3248  0.1663  0.2414
 5214TIP3   OH237200   3.821   3.462   1.929 -0.5865  0.0567  0.5574
 5214TIP3    H137201   3.910   3.428   1.933 -0.2710  0.1684 -2.7839
 5214TIP3    H237202   3.829   3.549   1.890 -2.0807  0.5571  1.2741
 5215TIP3   OH237203   3.963   1.465   6.656 -0.3179 -0.2731 -0.2631
 5215TIP3    H137204   4.028   1.471   6.586  0.2671  1.2126  0.3732
 5215TIP3    H237205   3.902   1.397   6.626  0.5970 -0.5280 -1.6361
 5216TIP3   OH237206   6.360   5.419   7.117 -0.9798  0.1324 -0.3011
 5216TIP3    H137207   6.340   5.326   7.122 -1.0420  0.0907 -1.2538
 5216TIP3    H237208   6.286   5.462   7.161  0.5178 -0.3692  3.0584
 5217TIP3   OH237209   0.756   5.402   7.797 -0.6562  0.0578  0.0289
 5217TIP3    H137210   0.804   5.467   7.848  1.5002 -0.7188 -0.8643
 5217TIP3    H237211   0.707   5.453   7.732  0.6836  0.8590 -0.4002
 5218TIP3   OH237212   5.691   0.318   0.461  0.6404  0.5068 -0.1321
 5218TIP3    H137213   5.642   0.302   0.542 -0.1853  0.4619 -0.6299
 5218TIP3    H237214   5.766   0.372   0.488 -0.8390  2.4528  0.3367
 5219TIP3   OH237215   2.528   6.233   7.905  0.1340 -0.4426  0.1645
 5219TIP3    H137216   2.538   6.138   7.895 -1.7349 -0.6000 -0.4538
 5219TIP3    H237217   2.577   6.253   7.985  1.1402 -1.7998 -0.0697
 5220TIP3   OH237218   6.525   3.826   7.747  0.4142  0.2043 -0.1928
 5220TIP3    H137219   6.575   3.769   7.805  1.2528  0.8858 -0.2396
 5220TIP3    H237220   6.563   3.811   7.661 -1.4718 -1.5684 -0.8218
 5221TIP3   OH237221   0.826   1.468   0.222  0.4846 -0.2906  0.5313
 5221TIP3    H137222   0.844   1.374   0.230 -0.8203 -0.5543  0.5204
 5221TIP3    H237223   0.850   1.505   0.307  1.7269 -0.5005  0.2834
 5222TIP3   OH237224   0.834   1.858   0.438  0.2355  0.1824 -0.3581
 5222TIP3    H137225   0.843   1.947   0.406 -2.0358  0.4219 -0.5428
 5222TIP3    H237226   0.913   1.842   0.489  1.7092  1.5039 -2.0780
 5223TIP3   OH237227   4.371   5.673   1.127 -0.4207 -0.3190 -0.2632
 5223TIP3    H137228   4.462   5.644   1.120 -0.2744  0.2347 -0.6742
 5223TIP3    H237229   4.373   5.767   1.109 -0.9587 -0.1220  0.6026
 5224TIP3   OH237230   6.319   2.185   6.040 -0.2328 -0.0207  0.0426
 5224TIP3    H137231   6.253   2.251   6.061 -0.7433  0.8503 -3.6559
 5224TIP3    H237232   6.402   2.234   6.039 -0.4486  0.3688 -1.4740
 5225TIP3   OH237233   6.448   0.990   1.873  0.4352 -0.0508  0.3555
 5225TIP3    H137234   6.387   1.064   1.875  1.4052  0.8045 -0.4820
 5225TIP3    H237235   6.392   0.913   1.885 -0.5604  0.8147  1.6934
 5226TIP3   OH237236   5.973   5.046   0.559  0.5748 -0.0659  0.1969
 5226TIP3    H137237   6.017   4.984   0.617  0.2926 -0.1047  0.3670
 5226TIP3    H237238   5.978   5.005   0.473  0.9486 -0.0325  0.2003
 5227TIP3   OH237239   2.306   2.279   6.352 -0.3770  0.0250 -0.4704
 5227TIP3    H137240   2.211   2.289   6.362 -0.3703 -1.1240  1.2743
 5227TIP3    H237241   2.323   2.187   6.372  1.0837  0.1483 -1.0024
 5228TIP3   OH237242   6.263   6.886   2.261 -0.0339  0.2416  0.4825
 5228TIP3    H137243   6.262   6.904   2.355 -1.8226 -1.4014  0.8365
 5228TIP3    H237244   6.179   6.842   2.244  1.0201 -1.1346 -1.5433
 5229TIP3   OH237245   0.192   5.019   6.241  0.2870  0.1068 -0.4701
 5229TIP3    H137246   0.242   5.087   6.196  0.6164 -0.5779 -1.1511
 5229TIP3    H237247   0.185   4.948   6.178 -2.3587  0.5040 -0.7399
 5230TIP3   OH237248   0.900   2.072   0.733  0.1621 -0.0944 -0.4174
 5230TIP3    H137249   0.989   2.107   0.730  0.5202 -0.8447  0.7900
 5230TIP3    H237250   0.857   2.109   0.655  1.8318 -0.5789 -1.6291
 5231TIP3   OH237251   3.932   1.672   1.015  0.6796 -0.0456 -0.1984
 5231TIP3    H137252   3.930   1.591   1.066 -0.5145  0.4677  0.6010
 5231TIP3    H237253   3.924   1.742   1.080  2.0632  0.7593 -0.8370
 5232TIP3   OH237254   3.828   4.980   0.880  0.2045 -0.3472 -0.1570
 5232TIP3    H137255   3.854   5.009   0.793  0.7148  1.5208  0.5804
 5232TIP3    H237256   3.743   5.021   0.894  1.7171  2.4814  1.5996
 5233TIP3   OH237257   1.586   0.509   1.513 -0.2254 -0.3986  0.0044
 5233TIP3    H137258   1.527   0.532   1.441  0.4870  1.4346 -0.0598
 5233TIP3    H237259   1.529   0.484   1.585 -1.1745  1.9096  0.1412
 5234TIP3   OH237260   2.263   1.279   7.378 -0.2649  0.0041  0.1349
 5234TIP3    H137261   2.239   1.229   7.300 -1.9351  0.3862  0.3723
 5234TIP3    H237262   2.257   1.371   7.352  0.3209  0.1243  0.3981
 5235TIP3   OH237263   6.632   5.775   7.838 -0.2965 -0.0426  0.2215
 5235TIP3    H137264   6.571   5.771   7.764 -0.3918 -1.2480  0.3469
 5235TIP3    H237265   6.606   5.854   7.885 -0.3300  0.6556 -0.9428
 5236TIP3   OH237266   2.834   5.808   0.133  0.6711 -0.5930  0.0489
 5236TIP3    H137267   2.740   5.789   0.134  0.4252  0.5670 -0.0329
 5236TIP3    H237268   2.857   5.823   0.224  0.3268  1.1846 -0.1371
 5237TIP3   OH237269   3.696   2.500   1.277  0.2215  0.0844 -0.2221
 5237TIP3    H137270   3.791   2.490   1.269  0.4776  2.8820 -2.4719
 5237TIP3    H237271   3.684   2.588   1.314 -1.4644  0.0484 -0.5704
 5238TIP3   OH237272   2.488   4.624   8.305 -0.1410  0.4567 -0.6188
 5238TIP3    H137273   2.520   4.566   8.373  1.3143  0.7604 -1.0249
 5238TIP3    H237274   2.502   4.575   8.224 -1.2753  0.3548 -0.7735
 5239TIP3   OH237275   4.480   6.731   6.902 -0.0083 -0.1381 -0.0291
 5239TIP3    H137276   4.505   6.639   6.894  0.7299  0.1891 -2.3003
 5239TIP3    H237277   4.544   6.778   6.848 -1.2494  1.5478 -0.1144
 5240TIP3   OH237278   5.521   6.353   0.806  0.0307 -0.0939  0.6767
 5240TIP3    H137279   5.536   6.406   0.728  0.3393  0.4690  1.1137
 5240TIP3    H237280   5.543   6.264   0.778  1.8790  0.3422  0.5893
 5241TIP3   OH237281   5.217   2.118   7.787  0.4526  0.5952  0.2215
 5241TIP3    H137282   5.310   2.142   7.789  1.0522 -1.4268 -0.6659
 5241TIP3    H237283   5.172   2.197   7.756  1.9983  1.2830 -0.3621
 5242TIP3   OH237284   3.649   3.143   7.355 -0.0325  0.2334  0.4270
 5242TIP3    H137285   3.712   3.076   7.381 -0.8838 -1.2101 -1.0640
 5242TIP3    H237286   3.564   3.107   7.379 -0.6071  0.1634 -1.5193
 5243TIP3   OH237287   0.397   0.087   1.742 -0.2740 -0.3621  0.4362
 5243TIP3    H137288   0.423   0.112   1.831  0.4721 -0.1801  0.1726
 5243TIP3    H237289   0.355   0.165   1.707  0.5941  0.0077  0.1855
 5244TIP3   OH237290   5.682   5.109   2.458 -0.1734 -0.3045  0.8503
 5244TIP3    H137291   5.777   5.116   2.464 -0.0737 -0.0732 -0.5478
 5244TIP3    H237292   5.665   5.017   2.439 -0.1454 -0.1543  0.0662
 5245TIP3   OH237293   6.991   4.534   7.150 -0.0704  0.0266  0.2178
 5245TIP3    H137294   6.965   4.606   7.094  0.3923 -0.7087 -0.9755
 5245TIP3    H237295   6.945   4.458   7.115  1.6929 -0.8060 -0.3921
 5246TIP3   OH237296   4.420   6.837   2.338 -0.7556  0.0602  0.5021
 5246TIP3    H137297   4.439   6.903   2.405  0.4976 -0.7262  0.9555
 5246TIP3    H237298   4.503   6.792   2.324 -1.5463 -1.3651  0.1349
 5247TIP3   OH237299   2.106   6.713   1.408 -0.3632 -0.3523 -0.1235
 5247TIP3    H137300   2.071   6.626   1.391 -0.7467  0.0956 -1.9424
 5247TIP3    H237301   2.035   6.772   1.380 -0.2571  0.5571  1.4157
 5248TIP3   OH237302   3.719   2.225   8.037  0.0262 -0.6265 -0.0692
 5248TIP3    H137303   3.681   2.280   7.969  0.6025 -0.8192 -0.5546
 5248TIP3    H237304   3.813   2.228   8.021  0.7039  2.7537  3.2313
 5249TIP3   OH237305   3.938   5.892   2.512  0.2606  0.4544  0.0174
 5249TIP3    H137306   3.846   5.894   2.485  0.0204 -1.1146  0.6162
 5249TIP3    H237307   3.940   5.947   2.591 -0.5920 -1.0212  1.1216
 5250TIP3   OH237308   4.121   5.548   6.425  0.1901 -0.0273  0.0865
 5250TIP3    H137309   4.087   5.468   6.464  0.3461 -0.0956  0.0846
 5250TIP3    H237310   4.049   5.611   6.431  0.4632  0.1993  1.1894
 5251TIP3   OH237311   2.903   3.159   1.374 -0.3851 -0.3189 -0.2208
 5251TIP3    H137312   2.881   3.076   1.418  0.4198 -0.6714 -0.4611
 5251TIP3    H237313   2.820   3.189   1.336  0.0842 -3.5860 -4.5212
 5252TIP3   OH237314   1.042   3.464   0.876 -0.1185  0.2158 -0.2388
 5252TIP3    H137315   1.129   3.468   0.915 -0.5159 -0.6806  0.7999
 5252TIP3    H237316   0.986   3.512   0.937 -0.2080  1.7046 -1.4278
 5253TIP3   OH237317   3.716   2.761   1.311 -0.1508 -0.1865 -0.1949
 5253TIP3    H137318   3.692   2.802   1.228 -0.6153 -1.2993 -0.6350
 5253TIP3    H237319   3.742   2.834   1.368  2.9231  0.4297 -2.1516
 5254TIP3   OH237320   4.317   4.375   2.105  0.4652  0.7439  0.3554
 5254TIP3    H137321   4.380   4.382   2.177  0.1640 -0.9716  0.8342
 5254TIP3    H237322   4.266   4.456   2.110 -0.5851  0.0266  3.1214
 5255TIP3   OH237323   3.924   2.851   0.210  0.1590 -0.2429  0.9132
 5255TIP3    H137324   3.926   2.908   0.287 -2.4500 -1.2898  1.8331
 5255TIP3    H237325   3.862   2.782   0.232 -0.1271 -0.9906 -1.8693
 5256TIP3   OH237326   6.000   4.281   1.308 -0.3424 -0.1936  0.5152
 5256TIP3    H137327   6.079   4.273   1.362  0.3473  0.1985 -0.4033
 5256TIP3    H237328   6.004   4.204   1.251 -1.0116 -0.5490  0.9384
 5257TIP3   OH237329   2.077   1.353   6.490  0.3084 -0.0402  0.3653
 5257TIP3    H137330   2.006   1.400   6.446  0.6074  0.7252  0.6801
 5257TIP3    H237331   2.039   1.326   6.574  0.4679  0.5980  0.6443
 5258TIP3   OH237332   4.598   6.528   7.326 -0.9964  0.2683 -0.0752
 5258TIP3    H137333   4.611   6.511   7.420  1.4270  1.1848 -0.1704
 5258TIP3    H237334   4.565   6.617   7.323  0.5160  0.8570 -0.1074
 5259TIP3   OH237335   6.199   5.818   1.501  0.1701 -0.3682 -0.3412
 5259TIP3    H137336   6.275   5.773   1.464  2.4833  0.3641  3.0162
 5259TIP3    H237337   6.140   5.748   1.529  0.4845 -1.0173 -1.2606
 5260TIP3   OH237338   1.846   0.351   0.683  1.3748  0.4478 -0.2566
 5260TIP3    H137339   1.932   0.358   0.724  0.7250  1.1527  1.0390
 5260TIP3    H237340   1.812   0.441   0.682  0.2752  0.0439  0.0872
 5261TIP3   OH237341   5.057   6.262   1.859  0.1184 -0.6575  0.0069
 5261TIP3    H137342   5.046   6.169   1.879  1.2526 -1.3204 -2.1479
 5261TIP3    H237343   5.136   6.287   1.907 -0.9726 -0.3792  1.7387
 5262TIP3   OH237344   2.964   6.792   7.522 -0.0631 -0.4049  0.6078
 5262TIP3    H137345   3.035   6.856   7.520 -0.8642  0.4648 -0.9200
 5262TIP3    H237346   2.936   6.791   7.614  0.3568  0.9952  0.7776
 5263TIP3   OH237347   4.596   4.054   7.164  0.0051  0.2704  0.5116
 5263TIP3    H137348   4.523   4.053   7.226  0.5754  0.4437  1.1955
 5263TIP3    H237349   4.631   3.965   7.167  0.7756  0.5942  1.3387
 5264TIP3   OH237350   5.137   4.770   0.086 -0.1636  0.3587 -0.1012
 5264TIP3    H137351   5.064   4.710   0.101  0.2945 -0.2285 -0.1777
 5264TIP3    H237352   5.190   4.727   0.019  0.0162  0.9924 -0.3743
 5265TIP3   OH237353   2.231   6.801   0.696  0.3375 -0.3699  0.3165
 5265TIP3    H137354   2.233   6.856   0.775 -1.0921 -1.8996  1.4950
 5265TIP3    H237355   2.161   6.839   0.642  0.1107 -0.3816  0.6020
 5266TIP3   OH237356   2.493   0.432   0.277  0.0409 -0.0581 -0.1168
 5266TIP3    H137357   2.559   0.485   0.232  0.9245 -0.9473  0.1069
 5266TIP3    H237358   2.457   0.375   0.209  0.9029 -0.9369  0.1514
 5267TIP3   OH237359   4.361   0.231   0.294  0.1693  0.2566  0.0952
 5267TIP3    H137360   4.414   0.258   0.369  1.2221  1.5323 -1.0495
 5267TIP3    H237361   4.326   0.314   0.259 -2.9984 -0.5351  1.0396
 5268TIP3   OH237362   0.380   1.153   7.077 -0.2103 -0.2494 -0.2399
 5268TIP3    H137363   0.299   1.118   7.115  0.0672 -1.2558 -0.5350
 5268TIP3    H237364   0.374   1.247   7.088 -1.0622 -0.3813  0.4628
 5269TIP3   OH237365   1.034   4.625   0.482 -0.8875 -0.8760 -0.0625
 5269TIP3    H137366   1.081   4.613   0.399 -3.1349 -0.2534 -1.4974
 5269TIP3    H237367   0.950   4.664   0.457 -0.7573  1.5575  2.7320
 5270TIP3   OH237368   4.285   2.670   0.662  0.0903 -0.2602 -0.4306
 5270TIP3    H137369   4.279   2.574   0.665 -0.1375 -0.2343 -0.0479
 5270TIP3    H237370   4.297   2.696   0.753  2.0513 -0.0396 -0.7209
 5271TIP3   OH237371   1.691   2.078   0.043 -0.0423  0.3920  0.0687
 5271TIP3    H137372   1.610   2.061   0.092 -0.6260  1.2328 -0.5861
 5271TIP3    H237373   1.677   2.164   0.003  1.7966  1.2802  1.2132
 5272TIP3   OH237374   0.195   5.298   7.116  0.5836  0.2030 -0.2605
 5272TIP3    H137375   0.218   5.210   7.087  0.0509 -0.5412  1.4541
 5272TIP3    H237376   0.103   5.292   7.141  0.7380  1.0562  0.5637
 5273TIP3   OH237377   4.693   2.479   1.842  0.2120  0.1231  0.3854
 5273TIP3    H137378   4.615   2.507   1.794  1.2967  1.8731 -0.4794
 5273TIP3    H237379   4.672   2.496   1.934 -0.5651  0.1888  0.2042
 5274TIP3   OH237380   3.901   2.326   7.675 -0.2161 -0.3642 -0.1495
 5274TIP3    H137381   3.828   2.331   7.612 -0.4570 -2.3307 -0.0891
 5274TIP3    H237382   3.950   2.407   7.662 -2.0093  0.6814 -0.6935
 5275TIP3   OH237383   6.796   4.441   2.001 -0.0949  0.4208 -0.2191
 5275TIP3    H137384   6.717   4.475   2.044  0.1615  0.5374  0.1712
 5275TIP3    H237385   6.768   4.419   1.913 -0.3399  1.3968 -0.3945
 5276TIP3   OH237386   4.359   2.647   8.086 -0.3071  0.1074 -0.2421
 5276TIP3    H137387   4.265   2.661   8.088 -0.3655 -0.3309  0.1211
 5276TIP3    H237388   4.388   2.660   8.176  0.0826  0.8892 -0.4648
 5277TIP3   OH237389   2.935   7.013   6.900 -0.1832 -0.1380  0.0940
 5277TIP3    H137390   2.980   7.002   6.817  0.5901 -1.2663  0.6363
 5277TIP3    H237391   3.004   7.007   6.966 -1.1382 -2.5505  0.9855
 5278TIP3   OH237392   3.944   5.737   7.718 -0.0817  0.0474  0.5974
 5278TIP3    H137393   3.848   5.730   7.718 -0.2912  2.1636 -0.3469
 5278TIP3    H237394   3.968   5.738   7.811 -0.8109 -1.8979  0.8438
 5279TIP3   OH237395   1.837   3.065   0.852 -0.1298 -0.0246  0.1636
 5279TIP3    H137396   1.847   3.030   0.940  0.6942 -0.4054 -0.0728
 5279TIP3    H237397   1.756   3.025   0.820 -0.4969  0.2034  0.7806
 5280TIP3   OH237398   4.120   3.642   1.523 -0.1521  0.1129  0.4328
 5280TIP3    H137399   4.120   3.572   1.588 -0.3019 -2.1294 -1.8128
 5280TIP3    H237400   4.044   3.695   1.545 -2.6400 -2.8929 -0.0702
 5281TIP3   OH237401   3.177   1.693   0.784 -0.4237  0.1574  0.0061
 5281TIP3    H137402   3.266   1.659   0.792 -0.4470  0.0166 -0.3344
 5281TIP3    H237403   3.124   1.617   0.760 -0.4210  0.4810 -1.0850
 5282TIP3   OH237404   4.206   1.459   1.429  0.4863  0.2996  0.2381
 5282TIP3    H137405   4.260   1.427   1.356 -0.8225  0.0546 -0.6641
 5282TIP3    H237406   4.166   1.380   1.465 -0.1867  0.5886  0.1328
 5283TIP3   OH237407   2.618   2.737   0.711  0.8369  0.1112  0.7946
 5283TIP3    H137408   2.695   2.698   0.752  2.0452 -0.4800 -1.8893
 5283TIP3    H237409   2.619   2.828   0.741  2.4772  0.0704  0.9290
 5284TIP3   OH237410   2.555   0.922   1.164 -0.0292  0.2405 -0.2555
 5284TIP3    H137411   2.466   0.913   1.196 -0.2289 -1.7071 -1.2114
 5284TIP3    H237412   2.596   0.986   1.222 -1.4531 -0.3502  1.4525
 5285TIP3   OH237413   4.750   0.087   1.740 -0.5018  0.2454 -0.5071
 5285TIP3    H137414   4.681   0.107   1.676  1.0216  2.0518 -1.7025
 5285TIP3    H237415   4.827   0.066   1.687  0.3996  0.2746  0.7386
 5286TIP3   OH237416   0.949   2.241   7.806  0.2092 -0.1035  0.0539
 5286TIP3    H137417   0.880   2.175   7.805 -1.0047  1.1149 -1.7643
 5286TIP3    H237418   0.957   2.270   7.715  3.6446 -0.6841  0.0450
 5287TIP3   OH237419   3.126   0.983   7.596 -0.5592  0.2257 -0.1525
 5287TIP3    H137420   3.115   1.011   7.687  2.6339  0.4382  0.2869
 5287TIP3    H237421   3.113   0.888   7.599 -0.1570  0.1835  0.6117
 5288TIP3   OH237422   0.850   3.163   0.815  0.2601  0.0596 -0.0459
 5288TIP3    H137423   0.913   3.117   0.759  0.7930  0.2509  0.3889
 5288TIP3    H237424   0.765   3.141   0.778  0.5470 -0.7148 -0.2578
 5289TIP3   OH237425   2.192   0.394   0.485 -1.0136 -0.2763  0.2852
 5289TIP3    H137426   2.267   0.445   0.516 -1.1896 -0.3088  0.7745
 5289TIP3    H237427   2.231   0.316   0.446 -0.6675  0.8243 -1.6942
 5290TIP3   OH237428   0.897   5.015   8.154  0.4859 -0.3960 -0.2359
 5290TIP3    H137429   0.988   4.994   8.136  0.4244  0.3626 -1.6038
 5290TIP3    H237430   0.853   5.005   8.070 -0.7840 -1.1084  0.4724
 5291TIP3   OH237431   0.522   4.200   2.517 -0.1857 -0.5447  0.3348
 5291TIP3    H137432   0.590   4.151   2.563  0.2972 -1.5399 -1.3416
 5291TIP3    H237433   0.569   4.275   2.479 -0.7541  0.7897  2.1439
 5292TIP3   OH237434   6.571   5.269   2.561  0.3918 -0.2538  0.1381
 5292TIP3    H137435   6.643   5.238   2.506  1.8824  0.0942  1.8169
 5292TIP3    H237436   6.572   5.364   2.551 -2.1377 -0.3604 -2.5103
 5293TIP3   OH237437   4.618   2.318   1.495  0.0073  0.1618 -0.3577
 5293TIP3    H137438   4.622   2.282   1.583 -0.1150  1.8638  0.3930
 5293TIP3    H237439   4.530   2.297   1.464 -0.3702  0.5377  0.4080
 5294TIP3   OH237440   2.457   4.149   6.582  0.4320  0.6596 -0.2899
 5294TIP3    H137441   2.471   4.065   6.539  0.2012  0.1736  0.5662
 5294TIP3    H237442   2.521   4.151   6.653 -1.3238 -0.0021  1.3921
 5295TIP3   OH237443   5.797   6.247   0.943  0.7829 -0.1024  0.1770
 5295TIP3    H137444   5.802   6.152   0.929  0.5467  0.0743 -1.2768
 5295TIP3    H237445   5.703   6.267   0.936  0.6919  0.1140  1.5868
 5296TIP3   OH237446   5.339   6.404   7.238  0.0924  0.0044  0.3239
 5296TIP3    H137447   5.336   6.323   7.186 -2.9157 -0.4097  0.9357
 5296TIP3    H237448   5.381   6.378   7.320 -1.0393 -1.0630  0.6067
 5297TIP3   OH237449   0.088   3.034   0.514  0.1104  0.3078 -0.4947
 5297TIP3    H137450   0.052   3.062   0.430  2.9054 -0.1684 -1.9487
 5297TIP3    H237451   0.157   3.097   0.533 -0.6815  0.6175  1.7136
 5298TIP3   OH237452   2.015   5.101   8.166  0.4988 -0.5672 -0.1401
 5298TIP3    H137453   2.057   5.018   8.190  1.3069  0.2553  1.3934
 5298TIP3    H237454   2.088   5.160   8.146 -0.0847 -0.5021 -2.3820
 5299TIP3   OH237455   1.284   4.773   7.894 -0.3902 -0.0230 -0.3040
 5299TIP3    H137456   1.250   4.859   7.919 -0.2553  0.0823 -0.4832
 5299TIP3    H237457   1.221   4.740   7.830  0.0873  0.3719 -0.9844
 5300TIP3   OH237458   1.098   2.833   7.569  0.4346  0.2836 -0.0287
 5300TIP3    H137459   1.144   2.913   7.594  0.5764 -0.1375  1.1476
 5300TIP3    H237460   1.005   2.855   7.579  0.3805  0.8279 -1.4461
 5301TIP3   OH237461   0.471   5.898   0.923  0.2047  0.4840 -0.0549
 5301TIP3    H137462   0.519   5.975   0.953  1.4917 -0.5500  0.6106
 5301TIP3    H237463   0.513   5.824   0.967 -1.8026 -0.5103  0.3235
 5302TIP3   OH237464   5.619   0.039   0.608 -0.4622 -0.7079  0.2806
 5302TIP3    H137465   5.609  -0.038   0.552 -0.0208 -1.1113  0.7393
 5302TIP3    H237466   5.537   0.086   0.600 -0.0640 -0.2392 -1.4619
 5303TIP3   OH237467   6.218   6.060   0.914 -0.3259  0.5333 -0.5312
 5303TIP3    H137468   6.173   6.139   0.886  2.7442  1.9675 -1.8077
 5303TIP3    H237469   6.286   6.090   0.974 -0.2324 -1.3789  0.4077
 5304TIP3   OH237470   2.569   6.015   7.556 -0.3270  0.4681 -0.0332
 5304TIP3    H137471   2.483   6.056   7.547 -0.7336 -0.1105  0.9616
 5304TIP3    H237472   2.556   5.925   7.524 -0.0017  0.4772 -0.1950
 5305TIP3   OH237473   1.059   2.325   1.602  0.8624 -0.1014 -0.0835
 5305TIP3    H137474   0.989   2.264   1.583 -0.8148  0.5200  3.3229
 5305TIP3    H237475   1.035   2.405   1.555  0.3834 -0.5192 -0.5604
 5306TIP3   OH237476   5.095   0.508   7.736  0.0915  0.6153  0.1560
 5306TIP3    H137477   5.126   0.430   7.690 -0.1400  0.3917  0.3752
 5306TIP3    H237478   4.999   0.504   7.727 -0.1160 -0.3927  2.1415
 5307TIP3   OH237479   3.501   3.915   0.989 -0.2282  0.1529 -0.7793
 5307TIP3    H137480   3.510   3.832   1.037 -0.5538  0.7459  0.3612
 5307TIP3    H237481   3.561   3.906   0.915 -0.4854 -1.2182 -0.8555
 5308TIP3   OH237482   2.692   1.009   2.082 -0.7165 -0.1159 -0.2448
 5308TIP3    H137483   2.764   0.962   2.040 -0.1939  0.5507 -0.1108
 5308TIP3    H237484   2.732   1.051   2.157 -1.4690 -0.5844  0.4341
 5309TIP3   OH237485   2.298   4.803   0.922  0.7148 -0.0349  0.3913
 5309TIP3    H137486   2.381   4.822   0.877  1.4631 -2.4446  0.5851
 5309TIP3    H237487   2.242   4.879   0.903  4.0330  3.5238  3.2137
 5310TIP3   OH237488   1.943   4.082   1.639  0.2996  0.4549 -0.2097
 5310TIP3    H137489   1.976   4.118   1.721  0.6422 -0.4798  0.0680
 5310TIP3    H237490   1.849   4.071   1.654  0.1092  1.5952 -0.4451
 5311TIP3   OH237491   5.373   2.828   1.737 -0.2098 -0.2114 -0.1115
 5311TIP3    H137492   5.351   2.783   1.656 -1.4430 -0.2861  0.2539
 5311TIP3    H237493   5.311   2.794   1.801 -1.7381  2.5743  0.0270
 5312TIP3   OH237494   5.651   1.577   2.416  0.6528 -0.4013 -0.2486
 5312TIP3    H137495   5.717   1.516   2.381  2.0466 -0.4320  2.1576
 5312TIP3    H237496   5.568   1.530   2.407  1.3861 -1.7116 -0.5385
 5313TIP3   OH237497   5.687   4.141   1.620  0.3868 -0.2503 -0.1506
 5313TIP3    H137498   5.692   4.088   1.541  1.6325 -0.3489 -0.0249
 5313TIP3    H237499   5.771   4.187   1.623  0.4570 -0.4347  1.2469
 5314TIP3   OH237500   4.617   1.038   1.460 -0.5612  0.6632 -0.6042
 5314TIP3    H137501   4.643   0.950   1.484  0.7770  0.9230 -1.0403
 5314TIP3    H237502   4.542   1.026   1.402  0.0521 -0.2142 -1.2241
 5315TIP3   OH237503   5.186   5.349   0.291  0.4744 -0.1141 -0.2854
 5315TIP3    H137504   5.111   5.341   0.232  0.8288 -0.1431 -0.7321
 5315TIP3    H237505   5.159   5.301   0.369 -0.3709  0.7088 -0.0441
 5316TIP3   OH237506   3.532   5.135   0.165 -0.0557  0.3052 -0.2945
 5316TIP3    H137507   3.464   5.202   0.160  1.0954  1.4806 -0.5699
 5316TIP3    H237508   3.603   5.168   0.110  1.3765 -0.1421  1.1987
 5317TIP3   OH237509   6.349   6.320   1.363  0.4100 -0.1918 -0.5822
 5317TIP3    H137510   6.374   6.233   1.333  2.1854  0.4619 -1.1407
 5317TIP3    H237511   6.360   6.317   1.458  0.2050 -0.6471 -0.5702
 5318TIP3   OH237512   4.030   6.472   0.413  0.0230  0.3282  0.1004
 5318TIP3    H137513   4.052   6.439   0.326 -2.4251  0.0359 -0.4800
 5318TIP3    H237514   3.992   6.558   0.397  0.0316  0.4931  0.9369
 5319TIP3   OH237515   1.859   2.707   7.930 -0.2571 -0.2063 -0.0005
 5319TIP3    H137516   1.799   2.781   7.928 -0.6191 -0.5016 -1.8394
 5319TIP3    H237517   1.916   2.724   8.005  0.8729  2.9059 -1.4135
 5320TIP3   OH237518   2.893   5.978   7.666  0.4674  0.3155  0.1288
 5320TIP3    H137519   2.930   5.918   7.730 -1.4200 -0.7220  0.3054
 5320TIP3    H237520   2.907   6.065   7.704  0.5989 -0.1975  1.2962
 5321TIP3   OH237521   4.973   5.361   0.127 -0.2466  0.1948 -0.0411
 5321TIP3    H137522   4.944   5.449   0.102 -0.5022  0.1388  0.0544
 5321TIP3    H237523   4.941   5.304   0.057 -2.6205 -0.2393  1.3031
 5322TIP3   OH237524   3.123   6.024   8.200  0.0378 -0.1583  0.0524
 5322TIP3    H137525   3.075   6.072   8.267  0.6086 -1.2201  1.2794
 5322TIP3    H237526   3.066   5.950   8.179  0.6790 -0.8961  0.8203
 5323TIP3   OH237527   1.962   4.464   1.777  0.1696 -0.8288 -0.1986
 5323TIP3    H137528   1.978   4.479   1.684  1.1355 -0.5855 -0.0032
 5323TIP3    H237529   1.961   4.368   1.785  2.5629 -0.9091 -0.0946
 5324TIP3   OH237530   0.586   4.142   6.295 -0.4450 -0.1450  0.7390
 5324TIP3    H137531   0.509   4.200   6.288 -0.5959 -0.3330  0.8440
 5324TIP3    H237532   0.554   4.057   6.266 -0.6643 -0.5729  2.1585
 5325TIP3   OH237533   6.143   5.608   0.079  0.0584  0.0980  0.3265
 5325TIP3    H137534   6.070   5.551   0.101  0.4017 -1.0571 -1.3243
 5325TIP3    H237535   6.203   5.552   0.029  0.5259  1.8465 -1.1712
 5326TIP3   OH237536   1.744   2.848   0.120  0.3588  0.3222 -0.5211
 5326TIP3    H137537   1.732   2.781   0.188  0.8773 -0.9383 -1.6119
 5326TIP3    H237538   1.738   2.931   0.167 -1.6308 -0.4250  0.6784
 5327TIP3   OH237539   0.395   6.303   6.172 -0.4640 -0.3808 -0.2329
 5327TIP3    H137540   0.441   6.237   6.120  0.1288 -0.9728  1.0136
 5327TIP3    H237541   0.309   6.266   6.188  0.1862 -1.3143  1.2738
 5328TIP3   OH237542   3.339   5.866   1.206 -0.1145  0.5384 -0.1577
 5328TIP3    H137543   3.408   5.890   1.269  1.2530 -1.1783 -0.9191
 5328TIP3    H237544   3.275   5.819   1.259 -0.5896  1.8808  0.5047
 5329TIP3   OH237545   4.948   2.229   0.152  0.2276  0.2187  0.0680
 5329TIP3    H137546   4.868   2.238   0.100  0.2912  0.9341  0.0817
 5329TIP3    H237547   4.957   2.135   0.166 -0.7440  0.1460  0.2775
 5330TIP3   OH237548   4.962   2.865   2.535 -0.3802 -0.6180  0.0180
 5330TIP3    H137549   4.881   2.815   2.525 -1.2984  1.1059 -1.7016
 5330TIP3    H237550   4.934   2.950   2.568  0.5333  0.4066 -1.6870
 5331TIP3   OH237551   3.171   5.068   6.842 -0.0188  0.3592  0.0783
 5331TIP3    H137552   3.089   5.018   6.839  0.6394 -0.7452 -0.3855
 5331TIP3    H237553   3.171   5.109   6.928 -0.6898 -0.2967  0.4035
 5332TIP3   OH237554   2.210   4.879   6.630  0.5323  0.0879 -0.2423
 5332TIP3    H137555   2.244   4.947   6.689 -0.8864  0.9423 -0.3533
 5332TIP3    H237556   2.146   4.832   6.683  0.4060 -0.1722 -0.6255
 5333TIP3   OH237557   6.446   2.272   7.938 -0.3331 -0.1589  0.0908
 5333TIP3    H137558   6.417   2.251   8.027  1.8022  0.0389  0.8918
 5333TIP3    H237559   6.498   2.352   7.947  0.6566 -0.6148 -1.1589
 5334TIP3   OH237560   6.452   1.089   7.313 -0.2343 -0.4564  0.1212
 5334TIP3    H137561   6.377   1.056   7.362 -0.3435  0.7601  0.8167
 5334TIP3    H237562   6.446   1.184   7.320  1.7265 -0.3245  0.7415
 5335TIP3   OH237563   5.313   2.788   7.885 -0.2441 -0.5110  0.1760
 5335TIP3    H137564   5.228   2.829   7.904 -0.3654 -0.1972 -0.9665
 5335TIP3    H237565   5.311   2.774   7.790  1.3264  0.2807  0.0049
 5336TIP3   OH237566   2.861   1.898   7.245 -0.3874 -0.2044  0.3340
 5336TIP3    H137567   2.774   1.892   7.207 -1.5189 -0.3564  2.7599
 5336TIP3    H237568   2.917   1.850   7.185 -2.3067 -1.6660 -0.3817
 5337TIP3   OH237569   1.589   3.336   7.080 -0.3742  0.3330 -0.1547
 5337TIP3    H137570   1.499   3.323   7.109 -1.2188 -0.3459 -2.7332
 5337TIP3    H237571   1.581   3.353   6.986  2.1137  1.7625 -0.1918
 5338TIP3   OH237572   0.572   0.290   0.406  0.1434 -0.5773  0.2302
 5338TIP3    H137573   0.651   0.315   0.453 -0.2247 -0.1390  0.6326
 5338TIP3    H237574   0.591   0.204   0.369  0.4051 -0.9804  1.2704
 5339TIP3   OH237575   5.781   3.528   6.988 -0.1902 -0.1247  0.0167
 5339TIP3    H137576   5.738   3.444   7.006 -0.2974 -0.1015 -0.1301
 5339TIP3    H237577   5.722   3.572   6.926  0.1363 -0.1720 -0.3280
 5340TIP3   OH237578   1.918   2.128   2.049 -0.1656 -0.6131  0.0880
 5340TIP3    H137579   1.924   2.204   2.107 -0.0450 -1.7602  1.6435
 5340TIP3    H237580   1.853   2.153   1.983 -0.9566  0.4219  1.2091
 5341TIP3   OH237581   0.768   3.315   7.089  0.0819  0.3050 -0.2352
 5341TIP3    H137582   0.722   3.348   7.166  1.8152  1.1151  0.5167
 5341TIP3    H237583   0.699   3.292   7.027 -1.3087  1.4131  0.8384
 5342TIP3   OH237584   2.287   4.548   6.988  0.6852 -0.4611  0.1718
 5342TIP3    H137585   2.266   4.482   7.054  0.3604 -0.3834  0.1466
 5342TIP3    H237586   2.237   4.625   7.014  1.0051 -0.2453  0.1578
 5343TIP3   OH237587   2.773   6.997   6.604  0.0646 -0.3591 -0.1005
 5343TIP3    H137588   2.720   7.075   6.585  1.3261  0.3053 -1.1232
 5343TIP3    H237589   2.772   6.989   6.699  0.6950  1.5186  0.1098
 5344TIP3   OH237590   6.839   6.837   1.386 -0.5322  0.1031  0.6923
 5344TIP3    H137591   6.924   6.794   1.380 -1.1905 -1.3238  1.0267
 5344TIP3    H237592   6.777   6.765   1.402 -1.7615  1.1332  0.7396
 5345TIP3   OH237593   4.580   0.452   7.791  0.1863  0.0760 -0.0670
 5345TIP3    H137594   4.540   0.366   7.780  0.0124  0.2089 -0.4951
 5345TIP3    H237595   4.536   0.507   7.726  0.0919  0.5592  0.4012
 5346TIP3   OH237596   6.823   4.070   7.387  0.6513  0.6471  0.2710
 5346TIP3    H137597   6.746   4.125   7.398  0.8514  0.8478  0.6801
 5346TIP3    H237598   6.850   4.085   7.296  0.5577  1.0300  0.3044
 5347TIP3   OH237599   0.091   6.631   8.038  0.2946  0.0292  0.5478
 5347TIP3    H137600   0.130   6.618   8.125  0.8112 -2.8125 -0.0325
 5347TIP3    H237601  -0.000   6.604   8.048 -0.0741  1.2130  0.5407
 5348TIP3   OH237602   3.928   2.463   6.216  0.4445 -0.2956  0.4441
 5348TIP3    H137603   3.846   2.510   6.233  1.6874  1.4371  2.0447
 5348TIP3    H237604   3.982   2.481   6.293  2.3631 -1.3610 -0.5856
 5349TIP3   OH237605   6.503   2.003   6.522 -0.3594 -0.0101  0.1776
 5349TIP3    H137606   6.467   2.049   6.446  0.6765 -0.8828 -0.8996
 5349TIP3    H237607   6.579   1.956   6.487  0.4475 -0.0453  1.8770
 5350TIP3   OH237608   4.191   1.855   6.910  0.3456 -0.2198  0.1517
 5350TIP3    H137609   4.100   1.846   6.883  0.0797 -0.1731  1.0183
 5350TIP3    H237610   4.220   1.765   6.926  0.7318 -0.3179 -0.9674
 5351TIP3   OH237611   5.627   4.379   1.758  0.0882  0.0005  0.6415
 5351TIP3    H137612   5.620   4.436   1.681 -1.1840  1.3168  1.6824
 5351TIP3    H237613   5.659   4.295   1.723 -0.7883  0.4467 -1.3589
 5352TIP3   OH237614   6.077   6.284   0.933 -0.5101 -0.2861  0.0657
 5352TIP3    H137615   6.110   6.373   0.944 -1.2181 -0.2711  3.4628
 5352TIP3    H237616   5.996   6.294   0.884 -1.5839  1.3145  1.9814
 5353TIP3   OH237617   5.068   3.976   0.360 -0.0784 -0.2286  0.0958
 5353TIP3    H137618   4.990   3.987   0.414 -0.1278  0.6110 -0.1268
 5353TIP3    H237619   5.034   3.967   0.270  0.0186 -1.2554  0.1575
 5354TIP3   OH237620   1.374   4.770   0.454  0.4267 -0.1427  0.3478
 5354TIP3    H137621   1.466   4.791   0.471  0.0976  0.4775  1.5055
 5354TIP3    H237622   1.365   4.678   0.478  0.7884 -0.2754 -0.0065
 5355TIP3   OH237623   0.853   2.026   1.820 -0.2845 -1.1622  0.1850
 5355TIP3    H137624   0.761   2.018   1.844 -0.2234  0.9117  1.3649
 5355TIP3    H237625   0.897   2.050   1.902  0.7026  1.4021 -0.9726
 5356TIP3   OH237626   3.734   5.246   0.687 -0.2788  0.4416  0.3149
 5356TIP3    H137627   3.820   5.205   0.691 -0.0992  0.8349  0.6165
 5356TIP3    H237628   3.749   5.328   0.639 -0.0247  1.5848  2.2534
 5357TIP3   OH237629   1.677   3.177   8.150  0.7715  0.3124 -0.6822
 5357TIP3    H137630   1.595   3.194   8.197  1.1903 -0.1929  0.2674
 5357TIP3    H237631   1.745   3.212   8.208  1.2459  0.5387 -1.3652
 5358TIP3   OH237632   6.363   1.726   2.222  0.5388 -0.5849 -0.6144
 5358TIP3    H137633   6.346   1.752   2.313  0.1039 -1.0346 -0.5669
 5358TIP3    H237634   6.332   1.636   2.217  1.7116 -0.9803 -0.8836
 5359TIP3   OH237635   2.572   2.312   7.017  0.0945 -0.1570  0.3248
 5359TIP3    H137636   2.624   2.262   6.953  1.3707  0.3555  0.9365
 5359TIP3    H237637   2.582   2.403   6.990 -0.7681 -0.0619  0.2757
 5360TIP3   OH237638   2.815   3.286   6.566  0.3119  0.4339 -0.0782
 5360TIP3    H137639   2.800   3.369   6.610 -1.7610  0.2167 -0.2970
 5360TIP3    H237640   2.895   3.300   6.515 -0.2869  2.4871 -0.5523
 5361TIP3   OH237641   2.964   6.020   7.221 -0.3071 -0.2309  0.5946
 5361TIP3    H137642   3.050   6.059   7.235 -0.3723 -0.1543  0.7788
 5361TIP3    H237643   2.906   6.095   7.205 -0.0255 -0.3478 -1.2683
 5362TIP3   OH237644   4.299   2.431   2.686 -0.2992  0.8574  0.0133
 5362TIP3    H137645   4.378   2.397   2.728 -0.5782 -0.6479 -0.6235
 5362TIP3    H237646   4.258   2.485   2.754  0.7732  0.9002  0.6639
 5363TIP3   OH237647   3.361   3.897   6.716  0.0220  0.0192  0.0724
 5363TIP3    H137648   3.426   3.942   6.771 -0.6293 -0.1457  1.0024
 5363TIP3    H237649   3.393   3.806   6.713 -2.0688 -1.0849  3.8150
 5364TIP3   OH237650   4.292   6.235   0.796 -0.4560  0.1372 -0.2105
 5364TIP3    H137651   4.348   6.178   0.743  2.4875  2.8906 -0.3921
 5364TIP3    H237652   4.245   6.287   0.731  0.9465  1.4967 -0.1998
 5365TIP3   OH237653   2.240   3.683   7.938  0.2688 -0.1809  0.1634
 5365TIP3    H137654   2.234   3.775   7.914 -1.5185 -0.9479 -2.7122
 5365TIP3    H237655   2.198   3.678   8.024 -1.7372  1.3531 -0.6642
 5366TIP3   OH237656   5.334   3.750   2.145 -0.0399 -0.0035 -0.3682
 5366TIP3    H137657   5.259   3.755   2.204  1.1124  0.1727  1.1294
 5366TIP3    H237658   5.314   3.814   2.076 -0.8092  0.7913  0.5615
 5367TIP3   OH237659   2.352   3.066   0.664 -0.4638 -0.5019 -0.1892
 5367TIP3    H137660   2.390   3.105   0.743 -1.5067  1.1741 -0.4703
 5367TIP3    H237661   2.257   3.070   0.678 -0.7822  1.6048 -2.2465
 5368TIP3   OH237662   4.041   4.625   6.597 -0.0755 -0.4469  0.2574
 5368TIP3    H137663   3.956   4.587   6.576 -0.5403  0.8729 -0.3120
 5368TIP3    H237664   4.059   4.685   6.526  0.4055  0.7856  1.3739
 5369TIP3   OH237665   5.815   1.741   0.984 -0.3699  0.1409 -0.1117
 5369TIP3    H137666   5.777   1.805   1.044 -0.7122 -1.0385  0.9793
 5369TIP3    H237667   5.759   1.664   0.992 -0.5291 -0.0043 -2.0987
 5370TIP3   OH237668   2.099   0.857   6.756  0.2813 -0.4741  0.5514
 5370TIP3    H137669   2.031   0.790   6.743 -0.0283  0.1990 -1.9046
 5370TIP3    H237670   2.051   0.940   6.751  0.7996 -0.0077  2.5785
 5371TIP3   OH237671   3.940   2.782   0.518  0.3634 -0.6052 -0.3204
 5371TIP3    H137672   4.025   2.820   0.500  0.6559 -0.5865  1.0039
 5371TIP3    H237673   3.904   2.834   0.589  0.0222 -1.7116  0.3536
 5372TIP3   OH237674   4.763   1.201   0.421  0.0513 -0.0500 -0.4574
 5372TIP3    H137675   4.822   1.153   0.479 -0.3850 -1.7406 -1.3529
 5372TIP3    H237676   4.675   1.169   0.445 -0.1110 -1.0558 -2.2209
 5373TIP3   OH237677   1.282   0.511   0.667 -0.6131  0.0586  0.1214
 5373TIP3    H137678   1.266   0.446   0.735  0.5613 -0.0260  0.3348
 5373TIP3    H237679   1.219   0.581   0.685 -1.5492 -0.7666  0.1897
 5374TIP3   OH237680   2.833   1.534   1.592  0.0838  0.4680  0.0988
 5374TIP3    H137681   2.741   1.538   1.615 -0.0162 -1.2639  0.1717
 5374TIP3    H237682   2.879   1.558   1.672 -0.3068 -0.0537  0.4883
 5375TIP3   OH237683   4.818   1.215   6.962 -0.3333 -0.0886 -0.7045
 5375TIP3    H137684   4.903   1.188   6.996 -1.2364 -4.5318 -1.4228
 5375TIP3    H237685   4.826   1.206   6.867 -1.3859  0.2399 -0.8385
 5376TIP3   OH237686   5.187   1.788   7.800 -0.9131  0.5985  0.2353
 5376TIP3    H137687   5.197   1.834   7.717 -1.1650 -0.1051 -0.1922
 5376TIP3    H237688   5.153   1.855   7.861  2.6345  2.1140  0.7828
 5377TIP3   OH237689   5.369   0.132   0.595  0.3501  0.5855  0.1103
 5377TIP3    H137690   5.367   0.227   0.604 -0.5758  0.5767  0.0597
 5377TIP3    H237691   5.320   0.099   0.670 -1.4405  0.2620 -1.1303
 5378TIP3   OH237692   4.750   6.101   0.295  0.3251 -0.5283  0.7731
 5378TIP3    H137693   4.715   6.152   0.368  1.4361  0.4338  0.6531
 5378TIP3    H237694   4.835   6.069   0.327  1.4780  1.0621 -0.5432
 5379TIP3   OH237695   1.168   2.908   2.065 -0.4387 -0.1661  0.2778
 5379TIP3    H137696   1.093   2.957   2.098 -1.8824 -2.0092 -0.1131
 5379TIP3    H237697   1.152   2.818   2.092  1.4496 -0.6802 -0.1756
 5380TIP3   OH237698   1.459   5.945   1.365 -0.4444  0.2371  0.2118
 5380TIP3    H137699   1.396   5.899   1.421 -0.2101  0.8865  1.0212
 5380TIP3    H237700   1.470   6.030   1.406  1.3004 -0.0141  0.3326
 5381TIP3   OH237701   3.178   3.143   8.057 -0.7169  0.0642  0.0262
 5381TIP3    H137702   3.179   3.234   8.027 -2.2913 -0.4983 -2.0129
 5381TIP3    H237703   3.243   3.099   8.002 -1.6294 -0.4583 -0.6644
 5382TIP3   OH237704   6.904   2.194   0.223 -0.2306  0.5177  1.0873
 5382TIP3    H137705   6.956   2.177   0.145 -2.0746 -1.1684  0.1522
 5382TIP3    H237706   6.891   2.108   0.263 -4.6256  0.2854 -0.3326
 5383TIP3   OH237707   2.039   0.402   7.356 -0.2345  0.2798 -0.1515
 5383TIP3    H137708   1.956   0.431   7.320 -0.1299  0.5191 -0.2038
 5383TIP3    H237709   2.016   0.359   7.439 -0.1915  2.8237  1.2855
 5384TIP3   OH237710   2.606   6.075   1.223  0.6510 -0.6467  0.4021
 5384TIP3    H137711   2.677   6.063   1.286 -0.3175 -3.2051  1.1516
 5384TIP3    H237712   2.527   6.052   1.272 -0.4406 -0.1346 -1.0476
 5385TIP3   OH237713   1.079   3.518   0.597  0.0690 -0.2606  0.5057
 5385TIP3    H137714   1.169   3.531   0.567 -0.5857  0.6168 -1.2369
 5385TIP3    H237715   1.087   3.503   0.691  2.1397 -1.6431  0.1911
 5386TIP3   OH237716   3.355   5.583   8.001 -1.0426  0.1633  0.1899
 5386TIP3    H137717   3.370   5.508   7.942 -0.5202 -0.3458  0.9509
 5386TIP3    H237718   3.263   5.577   8.024 -0.9287 -0.4604  0.5110
 5387TIP3   OH237719   6.707   5.568   8.042  0.4156  0.5576 -0.4961
 5387TIP3    H137720   6.679   5.627   7.971  0.5151 -1.8198 -2.6816
 5387TIP3    H237721   6.754   5.498   7.996 -0.6656 -1.8049  1.8086
 5388TIP3   OH237722   0.069   3.621   1.041 -0.3957 -0.2115 -0.3129
 5388TIP3    H137723   0.134   3.663   1.098 -1.4884 -1.1751  1.7729
 5388TIP3    H237724   0.046   3.689   0.977 -0.5473  1.6742  1.6132
 5389TIP3   OH237725   6.778   4.969   0.023  0.1022  0.3789 -0.1987
 5389TIP3    H137726   6.754   4.948  -0.068  0.7056  1.4797 -0.6348
 5389TIP3    H237727   6.731   4.905   0.076 -0.7674  0.1176 -1.2541
 5390TIP3   OH237728   4.380   2.827   1.999 -0.5338  0.4682  0.1110
 5390TIP3    H137729   4.401   2.755   1.940  0.4710  0.8781 -0.0497
 5390TIP3    H237730   4.333   2.787   2.071 -0.5473 -0.2486 -0.2905
 5391TIP3   OH237731   5.375   3.138   0.486 -0.3355 -0.1027 -0.1225
 5391TIP3    H137732   5.347   3.179   0.568 -0.4403 -1.0859  0.3418
 5391TIP3    H237733   5.299   3.089   0.456 -0.1135 -0.2163 -0.5049
 5392TIP3   OH237734   4.891   3.538   7.140 -0.5382 -0.2835  0.3303
 5392TIP3    H137735   4.967   3.509   7.192  0.6857  0.4230 -0.9807
 5392TIP3    H237736   4.922   3.617   7.095 -0.9679 -1.6409 -2.6316
 5393TIP3   OH237737   2.251   1.511   6.640 -0.5406 -0.3512 -0.0669
 5393TIP3    H137738   2.226   1.515   6.733 -1.7128  0.4240 -0.3983
 5393TIP3    H237739   2.185   1.454   6.600 -0.0143 -0.7177 -0.4202
 5394TIP3   OH237740   5.619   1.421   0.840  0.0215  0.2940 -0.7954
 5394TIP3    H137741   5.585   1.331   0.837  0.2417 -0.0397  2.5731
 5394TIP3    H237742   5.697   1.419   0.784  1.9845 -2.6439  1.7247
 5395TIP3   OH237743   3.260   3.559   7.071 -0.4904 -0.4283  0.2242
 5395TIP3    H137744   3.339   3.589   7.028 -0.8669 -2.6615 -2.2777
 5395TIP3    H237745   3.289   3.525   7.155  0.9260  0.2526  0.0312
 5396TIP3   OH237746   5.080   4.941   2.040  0.2480 -0.8505  0.6894
 5396TIP3    H137747   5.035   4.931   2.123  0.5819  0.1884  1.0109
 5396TIP3    H237748   5.149   4.874   2.041  1.0103 -0.0805  1.7764
 5397TIP3   OH237749   3.215   2.759   7.632  0.0974 -0.2727 -0.4891
 5397TIP3    H137750   3.220   2.666   7.652 -1.0574 -0.0931  0.8525
 5397TIP3    H237751   3.247   2.803   7.711 -0.2860  0.4594 -0.7251
 5398TIP3   OH237752   1.467   2.309   2.191 -0.2189 -0.8483  0.0232
 5398TIP3    H137753   1.555   2.346   2.189  0.1290 -1.4304  2.1710
 5398TIP3    H237754   1.410   2.382   2.168  0.6473  0.2970  1.3265
 5399TIP3   OH237755   2.123   2.894   7.625  0.2562  0.0527  0.3402
 5399TIP3    H137756   2.124   2.963   7.558  1.8240 -0.2415  0.0242
 5399TIP3    H237757   2.127   2.942   7.708 -0.5223  0.3828  0.1999
 5400TIP3   OH237758   0.718   3.550   0.634  0.4870 -0.0708  0.3375
 5400TIP3    H137759   0.722   3.578   0.725  1.3333  0.7737  0.0570
 5400TIP3    H237760   0.778   3.476   0.628 -1.6803 -2.0030  1.0589
 5401TIP3   OH237761   6.793   4.029   7.941  0.7186  0.1300 -0.3612
 5401TIP3    H137762   6.784   4.010   7.848 -0.0985 -0.1475 -0.2361
 5401TIP3    H237763   6.861   3.969   7.971 -0.1325 -0.9341 -0.4751
 5402TIP3   OH237764   6.367   0.179   2.156 -0.3462 -0.4443  0.5585
 5402TIP3    H137765   6.367   0.234   2.234 -0.0398  0.5855 -0.1307
 5402TIP3    H237766   6.459   0.160   2.140 -0.2681  0.5349 -0.3171
 5403TIP3   OH237767   4.806   4.910   0.181 -0.3118  0.3334  0.3264
 5403TIP3    H137768   4.748   4.844   0.144 -1.0889  1.0357  0.2708
 5403TIP3    H237769   4.867   4.931   0.111  0.5672 -1.0214  0.6540
 5404TIP3   OH237770   3.621   0.188   1.472  0.0739  0.1818  0.4658
 5404TIP3    H137771   3.533   0.170   1.505 -0.7374  0.3791 -1.4439
 5404TIP3    H237772   3.657   0.102   1.450 -1.2494  0.2407 -2.4542
 5405TIP3   OH237773   5.117   5.981   7.704 -0.0197  0.8981  0.2421
 5405TIP3    H137774   5.073   5.984   7.790  0.1306  1.1084  0.3131
 5405TIP3    H237775   5.059   6.031   7.646 -0.0951  0.8002  0.2324
 5406TIP3   OH237776   1.124   2.169   8.218  0.5782  0.2659  0.3690
 5406TIP3    H137777   1.173   2.139   8.141  1.6104  0.2319  1.0191
 5406TIP3    H237778   1.091   2.089   8.259 -0.0350  0.2888 -0.0742
 5407TIP3   OH237779   1.223   3.752   1.130 -0.1689 -0.2494 -0.1200
 5407TIP3    H137780   1.173   3.750   1.048 -3.1213  0.8838  1.5015
 5407TIP3    H237781   1.216   3.842   1.160  0.3646 -0.7630  1.6509
 5408TIP3   OH237782   6.371   4.224   2.108 -0.2086 -0.6065 -0.6542
 5408TIP3    H137783   6.406   4.229   2.197 -0.4605  0.0509 -0.5850
 5408TIP3    H237784   6.308   4.151   2.112  0.5432 -1.2662 -0.5755
 5409TIP3   OH237785   4.301   2.257   2.130 -0.0915 -0.7337 -0.1402
 5409TIP3    H137786   4.353   2.251   2.050  1.9701  2.3776  0.7599
 5409TIP3    H237787   4.351   2.209   2.196  0.1871 -0.1561  0.0796
 5410TIP3   OH237788   4.318   1.585   2.553  0.1237  0.2556  0.1127
 5410TIP3    H137789   4.316   1.665   2.605  2.2447  0.2248  0.3294
 5410TIP3    H237790   4.255   1.527   2.595 -0.6806  1.4299  0.5793
 5411TIP3   OH237791   2.336   5.762   1.770 -0.2628 -0.1059  0.7347
 5411TIP3    H137792   2.325   5.672   1.800 -2.4753 -0.8909 -2.0201
 5411TIP3    H237793   2.430   5.778   1.775  0.2023 -2.6119  1.1782
 5412TIP3   OH237794   6.779   4.005   6.731  0.4444 -0.0313 -0.5852
 5412TIP3    H137795   6.833   4.076   6.695 -0.2007  1.2945  0.9448
 5412TIP3    H237796   6.689   4.036   6.721  0.1976 -0.1500  1.0218
 5413TIP3   OH237797   1.564   3.929   6.581  0.7794  0.0332  0.5492
 5413TIP3    H137798   1.646   3.930   6.629  1.1145 -2.0289  0.0895
 5413TIP3    H237799   1.590   3.944   6.490  0.4701  0.7537  0.5671
 5414TIP3   OH237800   1.258   6.981   1.194  0.4409 -0.3169 -0.2114
 5414TIP3    H137801   1.339   7.001   1.147  0.2540 -0.2870 -0.5237
 5414TIP3    H237802   1.191   6.982   1.126  0.5410 -3.0337 -0.4830
 5415TIP3   OH237803   6.951   6.613   7.538 -0.1882  0.2652  0.0765
 5415TIP3    H137804   6.914   6.544   7.594  0.2599 -0.4523 -0.4891
 5415TIP3    H237805   6.932   6.694   7.584  1.6608 -0.3885  2.1667
 5416TIP3   OH237806   3.801   6.668   8.096 -0.0769 -0.0492 -0.3440
 5416TIP3    H137807   3.795   6.629   8.008 -1.7900  0.2830 -0.4003
 5416TIP3    H237808   3.715   6.653   8.135  0.3037  0.7934  0.8666
 5417TIP3   OH237809   1.121   5.361   1.204  0.0279  0.3603  0.3893
 5417TIP3    H137810   1.036   5.321   1.217 -0.1450  1.5524  3.7326
 5417TIP3    H237811   1.102   5.444   1.160 -0.6568  0.9489  1.7547
 5418TIP3   OH237812   6.148   0.687   0.168 -0.2903  0.0269  0.4116
 5418TIP3    H137813   6.239   0.657   0.170  0.2491  1.1123 -2.3856
 5418TIP3    H237814   6.100   0.614   0.128 -0.3277  0.0949  0.3325
 5419TIP3   OH237815   6.988   2.450   1.309  0.4878 -0.3879 -0.0666
 5419TIP3    H137816   7.031   2.462   1.394  1.3754 -1.1955 -0.3881
 5419TIP3    H237817   6.935   2.530   1.298  0.5371 -0.1666  1.1271
 5420TIP3   OH237818   3.982   4.859   8.063 -0.2688 -0.4881 -0.1985
 5420TIP3    H137819   3.915   4.862   8.131  0.2699  1.6664  0.3108
 5420TIP3    H237820   4.048   4.799   8.098 -2.4757 -3.9037 -1.3728
 5421TIP3   OH237821   2.979   3.882   6.516 -0.0091  0.9276  0.4605
 5421TIP3    H137822   2.976   3.818   6.445  1.1305  0.8169  0.4972
 5421TIP3    H237823   2.970   3.967   6.472  2.9324  1.0219 -0.1205
 5422TIP3   OH237824   4.963   1.221   8.024 -0.0184 -0.4001  0.3105
 5422TIP3    H137825   4.874   1.186   8.021  0.3185 -1.3818  1.3972
 5422TIP3    H237826   4.967   1.281   7.949 -1.5631 -0.3900  0.1986
 5423TIP3   OH237827   0.962   6.031   1.593 -0.4906  0.2059  1.0544
 5423TIP3    H137828   0.926   6.119   1.588 -2.6127 -0.6658 -1.4155
 5423TIP3    H237829   0.909   5.980   1.532  1.7096 -2.4326  1.1430
 5424TIP3   OH237830   3.384   0.628   8.118  0.1545 -0.0483  0.1371
 5424TIP3    H137831   3.400   0.581   8.200  0.7653 -1.4511 -0.7451
 5424TIP3    H237832   3.462   0.681   8.105  0.5550 -0.6723 -0.0739
 5425TIP3   OH237833   1.958   3.511   7.118 -0.4964 -0.1137  0.0829
 5425TIP3    H137834   2.003   3.430   7.095 -0.5078  0.3651 -1.8104
 5425TIP3    H237835   1.925   3.544   7.034 -1.5727  1.2016  0.9927
 5426TIP3   OH237836   0.748   6.971   1.496 -0.2621 -0.1750  0.8329
 5426TIP3    H137837   0.653   6.959   1.493 -0.4148  1.0280 -1.0519
 5426TIP3    H237838   0.763   7.021   1.577 -1.3016  0.0165  0.9202
 5427TIP3   OH237839   5.962   6.226   1.462  0.1077 -0.3359  0.0967
 5427TIP3    H137840   5.993   6.163   1.527  0.9314  0.9691  0.9903
 5427TIP3    H237841   6.010   6.202   1.382  0.4860 -0.7753  0.4481
 5428TIP3   OH237842   1.139   1.416   7.255  0.0073  0.0404 -0.6920
 5428TIP3    H137843   1.093   1.354   7.199 -0.2239  0.8162 -1.3947
 5428TIP3    H237844   1.082   1.426   7.332 -0.8473  0.7148 -1.3862
 5429TIP3   OH237845   6.171   1.877   7.356 -0.5865  0.0035 -0.0494
 5429TIP3    H137846   6.152   1.784   7.362  1.3661 -0.4215  0.3019
 5429TIP3    H237847   6.106   1.911   7.294 -2.1110 -1.3191  0.7526
 5430TIP3   OH237848   0.240   1.787   0.014  1.0081  0.3198 -0.2547
 5430TIP3    H137849   0.184   1.807  -0.062 -1.0872  0.4639  1.2235
 5430TIP3    H237850   0.282   1.704  -0.009 -1.0757 -0.6499 -0.8339
 5431TIP3   OH237851   4.484   4.038   1.610  0.1768  0.2993 -0.1242
 5431TIP3    H137852   4.425   3.974   1.570 -0.0962  1.0422 -0.9505
 5431TIP3    H237853   4.510   4.095   1.537  3.2491 -0.9767 -0.1999
 5432TIP3   OH237854   1.148   5.911   8.075 -0.1423 -0.2255 -0.3141
 5432TIP3    H137855   1.140   5.928   7.981  0.5670 -0.8475 -0.4913
 5432TIP3    H237856   1.112   5.990   8.116  0.2146  0.3667 -1.1115
 5433TIP3   OH237857   0.296   4.194   0.534  0.5379  0.1721  0.1999
 5433TIP3    H137858   0.248   4.262   0.583  0.2267  1.3376 -1.6414
 5433TIP3    H237859   0.307   4.231   0.447  1.6990 -1.5659 -0.4300
 5434TIP3   OH237860   6.184   3.001   8.031 -0.2090  0.3401  0.8477
 5434TIP3    H137861   6.255   3.025   7.971 -0.6131 -0.3652  0.0795
 5434TIP3    H237862   6.207   3.045   8.113  1.0906  0.1610  0.5982
 5435TIP3   OH237863   1.468   0.718   8.174  0.5587 -0.5348 -0.5664
 5435TIP3    H137864   1.456   0.743   8.082 -0.6455 -1.2907 -0.6385
 5435TIP3    H237865   1.401   0.766   8.221  0.4755 -0.9659 -0.2382
 5436TIP3   OH237866   5.863   0.027   7.219  0.2344  0.7191  0.2294
 5436TIP3    H137867   5.854  -0.045   7.157  1.0208  0.0926  0.8145
 5436TIP3    H237868   5.896   0.100   7.167  1.8390 -0.0813  0.0642
 5437TIP3   OH237869   0.377   0.392   2.494  0.6932  0.0257  0.2343
 5437TIP3    H137870   0.426   0.364   2.572 -0.2525 -2.1128  0.1150
 5437TIP3    H237871   0.296   0.430   2.529  0.3210 -0.8280  0.3282
 5438TIP3   OH237872   1.831   0.653   1.570  0.2361  0.4821 -0.5948
 5438TIP3    H137873   1.754   0.599   1.554 -0.3031  1.1933 -0.4807
 5438TIP3    H237874   1.832   0.666   1.665  0.7067  0.1715 -0.5573
 5439TIP3   OH237875   2.103   3.290   7.073 -0.1224  0.0333 -0.3696
 5439TIP3    H137876   2.116   3.196   7.065  1.1465  0.1083  0.5134
 5439TIP3    H237877   2.187   3.328   7.044 -0.4406  0.8665 -0.2313
 5440TIP3   OH237878   2.815   4.740   7.309 -0.3233  0.1571  0.5062
 5440TIP3    H137879   2.888   4.700   7.262 -1.8848 -0.4835 -1.5601
 5440TIP3    H237880   2.848   4.825   7.338  1.2616 -0.1509 -0.3029
 5441TIP3   OH237881   0.807   3.792   7.541 -0.0406  0.2797 -0.2621
 5441TIP3    H137882   0.770   3.722   7.487  2.9589 -1.6490 -0.0711
 5441TIP3    H237883   0.824   3.864   7.480 -0.7557 -0.1642 -1.0002
 5442TIP3   OH237884   2.530   4.166   6.130 -0.2919  0.0982  0.5112
 5442TIP3    H137885   2.598   4.193   6.191 -0.6241 -0.4320  1.1344
 5442TIP3    H237886   2.527   4.070   6.138  0.4306 -0.0959 -1.1694
 5443TIP3   OH237887   1.276   3.937   6.625  0.1319 -0.2670  0.0918
 5443TIP3    H137888   1.359   3.894   6.645  0.6390  1.5057  2.2525
 5443TIP3    H237889   1.232   3.946   6.710  0.6637  4.4530  0.1361
 5444TIP3   OH237890   2.343   6.305   2.126  0.0984 -0.4575  0.2108
 5444TIP3    H137891   2.432   6.339   2.115 -0.0845 -0.4435 -1.5075
 5444TIP3    H237892   2.304   6.362   2.191  0.2254  1.8902 -1.6146
 5445TIP3   OH237893   5.047   5.283   7.994 -0.4567  0.3121 -0.2000
 5445TIP3    H137894   5.038   5.357   7.934 -0.6214 -0.0276 -0.6002
 5445TIP3    H237895   5.124   5.236   7.962 -0.4198  0.2495 -0.0164
 5446TIP3   OH237896   6.972   1.056   1.153 -0.3398 -0.3090 -0.3217
 5446TIP3    H137897   6.995   1.038   1.244  3.5326  2.3286 -0.5552
 5446TIP3    H237898   6.958   1.151   1.150 -1.0522 -0.4219 -2.3804
 5447TIP3   OH237899   4.272   3.345   8.043  0.1804  0.6642  0.3475
 5447TIP3    H137900   4.256   3.305   8.129  0.1713  0.2951  0.1766
 5447TIP3    H237901   4.261   3.272   7.981 -1.8444  1.3150 -0.1456
 5448TIP3   OH237902   2.862   5.297   1.413  0.3267 -0.6173 -0.2224
 5448TIP3    H137903   2.793   5.328   1.354  1.5967  1.5835 -0.7004
 5448TIP3    H237904   2.818   5.239   1.474 -1.5287 -0.9570 -1.7899
 5449TIP3   OH237905   3.225   4.037   0.921 -0.1430 -0.4504 -0.2563
 5449TIP3    H137906   3.248   3.945   0.908  0.4087 -0.1601 -1.5571
 5449TIP3    H237907   3.130   4.038   0.927 -0.0742 -1.2821  1.5192
 5450TIP3   OH237908   2.365   5.576   7.172  0.8931 -0.1467 -0.2202
 5450TIP3    H137909   2.325   5.658   7.145 -1.4146 -1.2484 -0.4001
 5450TIP3    H237910   2.451   5.577   7.129  0.8392  2.0355 -0.3957
 5451TIP3   OH237911   1.757   0.048   8.243  0.6196  0.0444 -0.2447
 5451TIP3    H137912   1.725  -0.005   8.315  1.3152  0.8265  0.6671
 5451TIP3    H237913   1.679   0.073   8.194  0.2496 -1.4273 -0.4348
 5452TIP3   OH237914   2.571   2.174   8.056 -0.2469 -0.5007  0.1137
 5452TIP3    H137915   2.520   2.251   8.033 -0.2462 -0.8302 -1.0363
 5452TIP3    H237916   2.601   2.191   8.145  1.1940  1.5918 -0.7017
 5453TIP3   OH237917   3.810   5.285   1.515  0.2212  0.0780  0.8744
 5453TIP3    H137918   3.897   5.272   1.552 -0.5667 -1.4516  2.3336
 5453TIP3    H237919   3.816   5.254   1.425  1.0891 -0.3779  1.0875
 5454TIP3   OH237920   0.004   6.611   1.382  0.1107 -0.1977 -0.3030
 5454TIP3    H137921  -0.048   6.571   1.452  0.4401 -0.0674  0.0192
 5454TIP3    H237922  -0.021   6.562   1.303 -0.9388  0.2459 -0.2740
 5455TIP3   OH237923   2.813   1.000   0.696  0.1150 -0.3784 -0.3206
 5455TIP3    H137924   2.805   0.975   0.788 -1.1414 -0.9435 -0.5584
 5455TIP3    H237925   2.733   0.966   0.655  0.9104 -0.6285 -1.7302
 5456TIP3   OH237926   3.029   3.674   1.199  0.0848 -0.0597 -0.0839
 5456TIP3    H137927   3.028   3.767   1.176  0.3616 -0.5548 -2.4256
 5456TIP3    H237928   3.016   3.672   1.293  0.2298  2.3554  0.0516
 5457TIP3   OH237929   4.535   0.847   7.932 -0.5595  0.3400 -0.2619
 5457TIP3    H137930   4.494   0.931   7.911 -1.5505 -0.0438  0.0777
 5457TIP3    H237931   4.462   0.790   7.956  0.1663 -0.4113  0.2223
 5458TIP3   OH237932   5.423   2.414   0.521 -0.1732 -0.0818 -0.5765
 5458TIP3    H137933   5.403   2.344   0.459  1.4340 -0.2021 -1.0091
 5458TIP3    H237934   5.403   2.494   0.472 -1.3266 -0.2084 -0.3340
 5459TIP3   OH237935   3.755   2.808   2.363  0.2609  0.3457 -0.4324
 5459TIP3    H137936   3.679   2.755   2.340 -0.1836  0.9187 -0.3048
 5459TIP3    H237937   3.752   2.883   2.303  0.0913  0.9402  0.3021
 5460TIP3   OH237938   3.469   2.650   1.021 -0.2805 -0.2328 -0.1277
 5460TIP3    H137939   3.388   2.699   1.030 -0.6114 -0.7273 -0.4015
 5460TIP3    H237940   3.460   2.575   1.081 -0.1138 -0.3996 -0.3058
 5461TIP3   OH237941   2.438   5.651   1.211 -0.1540 -0.2786  0.0265
 5461TIP3    H137942   2.503   5.644   1.142  0.5362 -0.4662  0.6872
 5461TIP3    H237943   2.377   5.719   1.180  1.4556  1.3447  0.2657
 5462TIP3   OH237944   1.237   1.314   7.977 -0.3769 -0.7756 -0.0426
 5462TIP3    H137945   1.308   1.286   7.920 -0.3432  0.2232 -0.5179
 5462TIP3    H237946   1.280   1.369   8.043 -0.7144 -0.0799 -0.3964
 5463TIP3   OH237947   2.410   3.009   6.413 -0.3088  0.6179  0.0445
 5463TIP3    H137948   2.450   3.079   6.362 -2.3893  1.4822 -0.5426
 5463TIP3    H237949   2.374   2.949   6.347 -1.0005  0.5223  0.4930
 5464TIP3   OH237950   2.993   0.972   1.070  0.2798 -0.0490 -0.0464
 5464TIP3    H137951   3.079   1.010   1.054 -0.3894  1.3665 -0.4443
 5464TIP3    H237952   3.007   0.908   1.140  1.2898  1.6906  1.4350
 5465TIP3   OH237953   5.698   4.351   7.772 -0.3449  0.4259 -0.0583
 5465TIP3    H137954   5.643   4.277   7.797  1.0604 -0.3514  0.9343
 5465TIP3    H237955   5.781   4.310   7.747  1.2049  1.6927  2.5303
 5466TIP3   OH237956   1.254   2.167   1.063  0.5668 -0.9587  0.1043
 5466TIP3    H137957   1.342   2.204   1.065  1.0277 -2.0601  0.7310
 5466TIP3    H237958   1.207   2.213   1.133 -0.0836  1.2639 -1.6534
 5467TIP3   OH237959   5.811   6.234   2.047  0.1656 -0.1019  0.1268
 5467TIP3    H137960   5.878   6.166   2.058  1.0415  0.9812  1.9969
 5467TIP3    H237961   5.745   6.193   1.991  1.2644 -2.0319  0.1246
 5468TIP3   OH237962   5.340   3.965   0.366  0.0778 -0.1497 -0.7181
 5468TIP3    H137963   5.358   3.957   0.460  0.8450  0.0180 -0.8399
 5468TIP3    H237964   5.245   3.965   0.359 -0.0240 -2.1298 -0.1006
 5469TIP3   OH237965   6.959   0.346   8.183  0.6388  0.2354  0.2841
 5469TIP3    H137966   6.920   0.282   8.242 -0.0579 -0.0120 -0.4240
 5469TIP3    H237967   6.887   0.404   8.159  1.4565  1.8869  1.6455
 5470TIP3   OH237968   6.464   6.094   0.382 -0.2205  0.6909  0.2705
 5470TIP3    H137969   6.404   6.089   0.308  0.0339 -0.6539  0.1365
 5470TIP3    H237970   6.511   6.011   0.381 -0.5081  0.4559  2.1935
 5471TIP3   OH237971   0.903   3.210   0.314  0.0473  0.5287  0.0856
 5471TIP3    H137972   0.917   3.251   0.399 -0.3246 -2.0604  1.5165
 5471TIP3    H237973   0.912   3.281   0.250  0.9679  2.4362  2.2212
 5472TIP3   OH237974   3.729   2.302   7.474 -0.4852  0.7968  0.2368
 5472TIP3    H137975   3.643   2.340   7.455 -0.1092  0.5749 -2.1606
 5472TIP3    H237976   3.772   2.295   7.389 -0.2026 -4.2318  0.4621
 5473TIP3   OH237977   6.857   6.100   7.183 -0.2287 -0.1026 -0.9304
 5473TIP3    H137978   6.918   6.163   7.221 -1.7236  1.5592 -1.1833
 5473TIP3    H237979   6.853   6.123   7.090  1.1341 -2.2475 -1.5981
 5474TIP3   OH237980   5.961   4.127   7.374  0.1188 -0.4393 -0.0571
 5474TIP3    H137981   5.982   4.160   7.287 -0.8344  0.1585 -0.0724
 5474TIP3    H237982   6.043   4.091   7.407  0.6196 -0.1546 -0.9733
 5475TIP3   OH237983   2.753   3.000   7.519  0.1320  0.2990 -0.8968
 5475TIP3    H137984   2.731   3.061   7.589  0.3230 -1.2662  0.5948
 5475TIP3    H237985   2.675   2.945   7.509  0.2662  0.2235 -1.6234
 5476TIP3   OH237986   5.310   6.442   1.630  0.2818 -0.6254 -0.4371
 5476TIP3    H137987   5.373   6.416   1.563  0.2301  0.1116 -0.7824
 5476TIP3    H237988   5.230   6.395   1.607  0.6172 -1.3498 -0.1572
 5477TIP3   OH237989   2.125   3.198   0.128 -0.0410  0.2334  0.1506
 5477TIP3    H137990   2.186   3.198   0.054 -0.6670  0.5513 -0.3753
 5477TIP3    H237991   2.093   3.108   0.132 -0.6508  0.4093 -0.5202
 5478TIP3   OH237992   3.324   2.427   1.517 -0.3533 -0.0141  0.0922
 5478TIP3    H137993   3.413   2.397   1.499 -0.5370  0.8245 -2.9198
 5478TIP3    H237994   3.327   2.521   1.498 -1.5645  0.3321  1.4703
 5479TIP3   OH237995   5.406   2.425   8.119  0.2161 -0.1157  0.3116
 5479TIP3    H137996   5.318   2.433   8.083  0.4412  4.3558  0.2152
 5479TIP3    H237997   5.464   2.438   8.044  0.9635 -1.1195  0.6866
 5480TIP3   OH237998   1.820   0.630   0.671 -0.0784 -0.1422  0.0289
 5480TIP3    H137999   1.915   0.645   0.673 -0.2087  0.8321 -0.4364
 5480TIP3    H238000   1.783   0.709   0.710 -0.7330 -0.0222 -0.8103
 5481TIP3   OH238001   6.149   6.328   2.053 -0.2165  0.1145  0.8870
 5481TIP3    H138002   6.110   6.241   2.042  1.8190 -0.7575  0.1108
 5481TIP3    H238003   6.228   6.312   2.104  0.6484  1.3740 -0.0112
 5482TIP3   OH238004   1.088   2.588   0.918  0.1353 -0.2711 -0.0091
 5482TIP3    H138005   1.089   2.684   0.925  1.7395 -0.2577  0.0570
 5482TIP3    H238006   1.149   2.559   0.986  0.4771 -1.2716 -0.7248
 5483TIP3   OH238007   1.511   3.949   1.290 -0.6368 -0.3511 -1.1242
 5483TIP3    H138008   1.562   3.981   1.364  0.0324 -1.4758 -1.0901
 5483TIP3    H238009   1.510   4.023   1.228  1.1310 -0.3459 -1.1837
 5484TIP3   OH238010   2.298   6.930   0.368 -0.3743 -0.2067  0.3421
 5484TIP3    H138011   2.388   6.962   0.364 -0.6199  0.4039 -0.6821
 5484TIP3    H238012   2.304   6.841   0.333 -0.2317 -0.0102 -0.1451
 5485TIP3   OH238013   6.603   6.191   1.625 -0.3204  0.5232  0.5640
 5485TIP3    H138014   6.645   6.181   1.540  0.9739 -0.5375  1.2834
 5485TIP3    H238015   6.532   6.127   1.625 -1.3707  1.6531 -0.2984
 5486TIP3   OH238016   3.340   4.444   8.130 -0.3902 -0.1248  0.4605
 5486TIP3    H138017   3.399   4.421   8.202  0.6555  1.0353  0.0097
 5486TIP3    H238018   3.311   4.533   8.149  0.6942  0.6002 -1.0005
 5487TIP3   OH238019   6.742   2.348   7.554 -0.1324 -0.5034 -0.0959
 5487TIP3    H138020   6.805   2.292   7.599 -0.2403 -0.9615 -0.5062
 5487TIP3    H238021   6.775   2.353   7.464 -0.5935 -0.6150 -0.2720
 5488TIP3   OH238022   5.855   5.603   2.428  0.2075  0.5117 -0.1783
 5488TIP3    H138023   5.806   5.573   2.504  1.6860 -0.9044  0.2656
 5488TIP3    H238024   5.920   5.664   2.463  0.7421  0.0346 -0.3194
 5489TIP3   OH238025   1.492   3.273   0.621 -0.0775  0.4605 -0.0828
 5489TIP3    H138026   1.513   3.190   0.662 -0.8278 -1.1811 -2.7426
 5489TIP3    H238027   1.576   3.318   0.611  0.3642 -0.0653  1.1621
 5490TIP3   OH238028   6.242   6.947   2.533 -0.4673  0.2888 -0.4978
 5490TIP3    H138029   6.329   6.909   2.536 -0.9531 -0.8494  0.1492
 5490TIP3    H238030   6.236   7.000   2.612 -1.3300 -2.0113  1.1080
 5491TIP3   OH238031   4.498   6.974   0.958 -0.5107  0.1220  0.2943
 5491TIP3    H138032   4.527   7.051   1.008  2.5283  0.4682 -1.7752
 5491TIP3    H238033   4.537   6.900   1.003 -0.0159  0.1747 -0.0518
 5492TIP3   OH238034   5.140   6.620   2.413  0.0986  0.2222  0.0621
 5492TIP3    H138035   5.172   6.695   2.462 -1.1035  0.2670  0.8246
 5492TIP3    H238036   5.159   6.544   2.469 -0.1554  0.1362  0.0338
 5493TIP3   OH238037   3.495   6.631   1.654 -0.7058 -0.3199 -0.1278
 5493TIP3    H138038   3.487   6.537   1.667  1.2484 -0.6521 -0.9410
 5493TIP3    H238039   3.588   6.650   1.667 -0.7131  1.1761 -1.7447
 5494TIP3   OH238040   4.889   1.474   7.606 -0.3575  0.4206 -0.0976
 5494TIP3    H138041   4.950   1.448   7.676  1.6348  0.5684 -1.6976
 5494TIP3    H238042   4.853   1.558   7.636 -0.2126  0.0554  1.1477
 5495TIP3   OH238043   6.577   3.284   1.588 -0.2536 -0.0299  0.3994
 5495TIP3    H138044   6.667   3.258   1.571 -0.1854  0.4270  0.0414
 5495TIP3    H238045   6.555   3.344   1.517 -1.1083 -0.7634  0.0178
 5496TIP3   OH238046   6.179   5.523   6.842 -0.1136 -0.8786  0.0682
 5496TIP3    H138047   6.209   5.434   6.823  0.8530 -0.3975 -0.8046
 5496TIP3    H238048   6.243   5.579   6.799  0.0013  0.2743  1.6520
 5497TIP3   OH238049   2.205   1.643   0.686  0.1662 -0.1300 -0.3349
 5497TIP3    H138050   2.145   1.618   0.756  0.8714  0.0355  0.3285
 5497TIP3    H238051   2.282   1.678   0.730  0.7128 -0.2227 -1.1830
 5498TIP3   OH238052   0.095   6.241   7.170 -0.0893 -0.3860  0.1969
 5498TIP3    H138053   0.140   6.211   7.092 -0.4813 -0.3412 -0.0506
 5498TIP3    H238054   0.105   6.337   7.168 -5.4794  0.5960 -3.3810
 5499TIP3   OH238055   5.762   3.076   7.869  0.1941  0.0612 -0.2943
 5499TIP3    H138056   5.676   3.039   7.845 -0.3068  0.7800  0.3485
 5499TIP3    H238057   5.790   3.122   7.790 -0.1659  0.0952 -0.4075
 5500TIP3   OH238058   2.441   1.802   0.996 -0.1838  0.3174  0.4682
 5500TIP3    H138059   2.442   1.789   0.901 -0.7667 -0.3329  0.5401
 5500TIP3    H238060   2.392   1.727   1.029 -0.3216  0.7483  1.2498
 5501TIP3   OH238061   4.572   5.230   1.915 -0.1855  0.3977  0.0297
 5501TIP3    H138062   4.522   5.288   1.857  0.3044  1.5726  0.7554
 5501TIP3    H238063   4.645   5.199   1.861 -0.0667  1.0107 -0.1728
 5502TIP3   OH238064   3.128   0.632   7.339 -0.1236  0.1497  0.9707
 5502TIP3    H138065   3.181   0.642   7.260  3.8216  0.5380  3.3635
 5502TIP3    H238066   3.072   0.709   7.340 -0.6577 -0.1199 -1.5989
 5503TIP3   OH238067   4.211   5.085   0.777 -0.2311 -0.3357 -0.5838
 5503TIP3    H138068   4.148   5.116   0.711 -1.3332  2.4598  1.5479
 5503TIP3    H238069   4.170   5.007   0.814 -1.7625  0.5278 -0.3380
 5504TIP3   OH238070   2.355   5.081   7.834  0.2698  0.2926 -0.0862
 5504TIP3    H138071   2.360   5.065   7.739  0.9090 -0.8008  0.1174
 5504TIP3    H238072   2.446   5.094   7.860  0.0437  1.1649  0.3003
 5505TIP3   OH238073   6.693   3.836   7.460  0.3463 -0.0444 -0.0492
 5505TIP3    H138074   6.659   3.923   7.438 -3.7994 -1.5883 -0.5735
 5505TIP3    H238075   6.753   3.815   7.388  1.0909  2.1273 -0.1413
 5506TIP3   OH238076   6.810   3.342   8.060  0.0676 -0.1291  0.2689
 5506TIP3    H138077   6.745   3.324   8.128  0.5735 -1.3142  0.4703
 5506TIP3    H238078   6.758   3.353   7.980 -0.4339 -0.2538  0.5712
 5507TIP3   OH238079   1.936   6.906   1.307  0.4252 -0.5750 -0.1531
 5507TIP3    H138080   1.949   7.001   1.317  1.3247 -0.6196 -0.7353
 5507TIP3    H238081   1.952   6.890   1.214 -2.9171 -0.8569 -0.8063
 5508TIP3   OH238082   2.377   3.752   0.636  0.7055  0.1558  0.2674
 5508TIP3    H138083   2.371   3.662   0.669  1.3871  0.2984  0.7938
 5508TIP3    H238084   2.417   3.801   0.708 -0.8044  1.1484  0.4700
 5509TIP3   OH238085   2.880   2.745   7.867  0.4613 -0.1877  0.7297
 5509TIP3    H138086   2.944   2.681   7.897  2.2727  1.6672  1.0434
 5509TIP3    H238087   2.916   2.830   7.894 -2.2745  0.9493  1.1517
 5510TIP3   OH238088   6.569   1.414   1.249 -0.5149 -0.3447 -0.3914
 5510TIP3    H138089   6.552   1.346   1.185  1.1272 -0.9812 -0.1959
 5510TIP3    H238090   6.662   1.436   1.237 -0.1550 -0.4864  1.7375
 5511TIP3   OH238091   0.247   5.487   1.471 -0.3556 -0.2525 -0.1879
 5511TIP3    H138092   0.234   5.540   1.392 -3.4609 -0.6940 -0.0671
 5511TIP3    H238093   0.238   5.548   1.543 -0.3682 -0.3552 -0.1022
 5512TIP3   OH238094   0.045   3.126   1.339  0.5490 -0.2416 -0.2472
 5512TIP3    H138095   0.079   3.041   1.311  0.7520  0.4205 -2.2407
 5512TIP3    H238096   0.049   3.180   1.259 -1.8267  0.9247  0.3378
 5513TIP3   OH238097   5.859   5.213   0.786  0.3026 -0.5378  0.5204
 5513TIP3    H138098   5.863   5.160   0.707 -0.2007 -1.2860  0.9893
 5513TIP3    H238099   5.813   5.159   0.849  0.6183  0.0874  1.3036
 5514TIP3   OH238100   3.281   0.735   6.476 -0.1651 -0.1285  0.3695
 5514TIP3    H138101   3.310   0.727   6.385 -1.1909  0.9777 -0.0792
 5514TIP3    H238102   3.347   0.687   6.526  0.3623 -0.8586 -0.9556
 5515TIP3   OH238103   5.660   0.166   7.433  0.2570  0.2540 -0.1126
 5515TIP3    H138104   5.694   0.081   7.459 -1.1805  0.0276  1.1034
 5515TIP3    H238105   5.699   0.228   7.495  1.0784  0.4740 -0.8227
 5516TIP3   OH238106   0.963   4.942   0.443  0.4814  0.2255 -0.1428
 5516TIP3    H138107   0.914   4.992   0.378  2.5163 -0.7654 -2.6149
 5516TIP3    H238108   0.915   4.859   0.450  0.5410  0.1300 -0.8081
 5517TIP3   OH238109   5.619   2.167   1.419  0.3156  0.4354 -0.1471
 5517TIP3    H138110   5.621   2.250   1.468  1.8158 -0.3643  1.2610
 5517TIP3    H238111   5.707   2.133   1.427 -0.0275 -0.8736 -1.5214
 5518TIP3   OH238112   3.405   0.744   7.773  0.1651  0.4276  0.0193
 5518TIP3    H138113   3.338   0.756   7.840  0.0674  0.5419 -0.0989
 5518TIP3    H238114   3.460   0.673   7.806 -0.8666 -0.6826 -0.5736
 5519TIP3   OH238115   2.932   0.818   7.315  0.3220 -0.1411  0.1792
 5519TIP3    H138116   2.863   0.836   7.251  2.3130  1.4451 -1.6693
 5519TIP3    H238117   2.913   0.877   7.388  1.2546  2.5577 -1.6025
 5520TIP3   OH238118   2.311   3.070   6.903 -0.0367  0.4262  0.1087
 5520TIP3    H138119   2.322   3.159   6.871  0.5355 -0.4672 -2.4001
 5520TIP3    H238120   2.216   3.056   6.905 -0.0952  0.7156 -0.6056
 5521TIP3   OH238121   5.094   4.906   1.758  0.3576  0.0691  0.1609
 5521TIP3    H138122   5.118   4.994   1.729  1.6317 -0.1149  0.5835
 5521TIP3    H238123   5.072   4.917   1.851 -2.1433  0.3793 -0.4005
 5522TIP3   OH238124   3.417   3.063   1.524 -0.1229 -0.0906  0.3140
 5522TIP3    H138125   3.464   3.103   1.450 -0.3838 -0.3735 -0.0026
 5522TIP3    H238126   3.333   3.037   1.488  0.0742 -1.0146  0.4936
 5523TIP3   OH238127   5.090   1.037   0.906  0.2879  0.0705 -0.1529
 5523TIP3    H138128   5.064   1.128   0.895 -0.7368 -0.2748 -0.6871
 5523TIP3    H238129   5.138   1.015   0.826 -1.0509 -0.3780 -0.8566
 5524TIP3   OH238130   1.013   0.487   8.037  0.0519  0.1013  0.6877
 5524TIP3    H138131   0.961   0.484   7.956  1.2583 -1.1641 -0.0704
 5524TIP3    H238132   0.990   0.572   8.076 -1.5395  0.1780 -0.2950
 5525TIP3   OH238133   4.109   4.078   8.188  0.1605  0.7349  0.2294
 5525TIP3    H138134   4.122   4.147   8.253  2.5135  0.6187 -0.0309
 5525TIP3    H238135   4.187   4.023   8.196  0.9003  1.0916 -3.0840
 5526TIP3   OH238136   3.453   0.312   7.945 -0.1545  0.2063 -0.0734
 5526TIP3    H138137   3.383   0.288   7.885 -0.3975 -0.9163  0.6394
 5526TIP3    H238138   3.432   0.266   8.026  1.0094  0.4490  0.3815
 5527TIP3   OH238139   5.925   1.055   1.893 -0.3417  0.3901 -0.4411
 5527TIP3    H138140   5.913   1.142   1.932 -1.8119 -0.1237  0.3420
 5527TIP3    H238141   5.932   1.072   1.799  0.9863  1.4644 -0.1828
 5528TIP3   OH238142   1.283   2.161   7.471 -0.4112 -0.1314 -0.3772
 5528TIP3    H138143   1.295   2.208   7.388  2.2394  1.4969  0.7886
 5528TIP3    H238144   1.342   2.085   7.463 -0.3922 -0.1451 -0.1099
 5529TIP3   OH238145   1.402   0.492   8.043 -0.2512 -0.5528 -0.2564
 5529TIP3    H138146   1.346   0.444   8.105 -1.3412  0.2255 -0.5972
 5529TIP3    H238147   1.452   0.552   8.097 -1.8341  0.7481 -0.1527
 5530TIP3   OH238148   6.139   0.230   8.188 -0.0183  0.2417 -0.0797
 5530TIP3    H138149   6.072   0.245   8.254 -0.3722 -1.1952 -0.0930
 5530TIP3    H238150   6.216   0.278   8.221 -1.0303  1.9716 -0.1137
 5531TIP3   OH238151   3.020   2.363   5.765  0.4534 -0.1704 -0.2577
 5531TIP3    H138152   2.998   2.380   5.857  0.1156 -2.3951  0.1166
 5531TIP3    H238153   2.962   2.422   5.716 -1.6175 -1.1311  0.8962
 5532TIP3   OH238154   3.622   5.610   7.690 -0.0395 -0.0093  0.0943
 5532TIP3    H138155   3.543   5.560   7.713  0.7313 -1.2563  0.1506
 5532TIP3    H238156   3.653   5.570   7.609  0.9717 -0.0763  0.4998
 5533TIP3   OH238157   0.817   2.158   1.077  0.0913 -0.2750 -0.3666
 5533TIP3    H138158   0.815   2.241   1.029 -2.9501 -0.0747 -0.1201
 5533TIP3    H238159   0.787   2.181   1.165  0.2659 -1.4656  0.0222
 5534TIP3   OH238160   4.473   5.312   1.249  0.2436 -0.7693 -0.6271
 5534TIP3    H138161   4.445   5.252   1.181  0.3246  0.4674 -1.7937
 5534TIP3    H238162   4.398   5.318   1.308 -1.1011  0.5757 -2.3557
 5535TIP3   OH238163   5.373   4.119   0.955  0.2733  0.6608 -0.3251
 5535TIP3    H138164   5.336   4.128   0.867 -2.3422  0.5795  0.6764
 5535TIP3    H238165   5.354   4.028   0.980  2.3110  0.2242 -0.1811
 5536TIP3   OH238166   6.615   1.896   0.163  0.5609  0.0591  0.4525
 5536TIP3    H138167   6.693   1.848   0.192  2.2666  0.9992 -2.1889
 5536TIP3    H238168   6.608   1.875   0.070 -2.8868 -0.5989  0.7359
 5537TIP3   OH238169   0.920   2.107   2.071 -0.3709  0.1058  0.8627
 5537TIP3    H138170   1.014   2.108   2.088 -0.1241  0.6067 -0.4700
 5537TIP3    H238171   0.881   2.075   2.153  0.9406  0.0089  1.4620
 5538TIP3   OH238172   2.963   0.001   0.225 -0.0952  0.0455 -0.4355
 5538TIP3    H138173   2.955   0.038   0.313  1.6484  1.7303 -0.9142
 5538TIP3    H238174   2.975  -0.093   0.239  0.1321  0.2835  1.1156
 5539TIP3   OH238175   1.129   1.096   6.487 -0.1105  0.1365 -0.1050
 5539TIP3    H138176   1.037   1.080   6.465 -0.3090 -0.6782  1.1953
 5539TIP3    H238177   1.174   1.014   6.463  0.1635  0.2869 -0.1149
 5540TIP3   OH238178   3.412   6.379   7.982 -0.5025  0.0676 -0.0114
 5540TIP3    H138179   3.329   6.334   7.964  0.1088 -0.6894 -1.0383
 5540TIP3    H238180   3.425   6.368   8.076 -0.3551 -2.0048 -0.2158
 5541TIP3   OH238181   6.585   1.340   7.938  0.4558  0.8010  0.4414
 5541TIP3    H138182   6.597   1.358   8.031 -1.0423 -1.0078  1.0538
 5541TIP3    H238183   6.658   1.284   7.913  0.8230  1.2378  0.5134
 5542TIP3   OH238184   1.594   3.101   1.226  0.2759 -0.4796 -0.4760
 5542TIP3    H138185   1.533   3.073   1.158 -1.3251 -0.4978  0.9266
 5542TIP3    H238186   1.677   3.058   1.202 -0.1043 -0.1031 -2.6468
 5543TIP3   OH238187   2.943   0.108   7.290  0.3612  0.0634  0.1944
 5543TIP3    H138188   2.911   0.021   7.266 -1.0554  0.5144  0.4085
 5543TIP3    H238189   2.871   0.167   7.269 -0.1563  0.7675  3.4989
 5544TIP3   OH238190   1.823   1.176   7.269  0.0333  0.1843 -0.3117
 5544TIP3    H138191   1.745   1.224   7.240  1.8834  2.2203 -2.3297
 5544TIP3    H238192   1.888   1.192   7.200  2.7260 -0.0954  1.9746
 5545TIP3   OH238193   5.998   5.925   7.331 -0.5635  0.3907 -0.2136
 5545TIP3    H138194   6.022   6.011   7.298 -1.6318  1.3494  1.3796
 5545TIP3    H238195   6.079   5.889   7.367  0.0935  0.2957 -1.7263
 5546TIP3   OH238196   6.772   4.106   0.561  0.3074 -0.6642  0.1424
 5546TIP3    H138197   6.855   4.102   0.608 -0.2444 -1.4035  1.1026
 5546TIP3    H238198   6.777   4.187   0.509  0.9290  0.1988  1.4988
 5547TIP3   OH238199   0.330   5.001   6.538  0.1009 -0.0756 -0.0591
 5547TIP3    H138200   0.345   4.913   6.572  1.2054 -0.2388 -0.9018
 5547TIP3    H238201   0.261   4.991   6.472  0.9476 -0.5302 -0.9113
 5548TIP3   OH238202   2.670   5.675   1.031  0.1136  0.9203 -0.0297
 5548TIP3    H138203   2.751   5.663   0.982  0.1071  0.6310  0.0231
 5548TIP3    H238204   2.610   5.716   0.968 -1.1222 -2.7762 -1.5867
 5549TIP3   OH238205   4.325   3.854   1.408 -0.4938  0.4692 -0.0167
 5549TIP3    H138206   4.298   3.913   1.337  0.7165  0.2422 -0.6870
 5549TIP3    H238207   4.260   3.783   1.405 -0.4825  0.4812 -0.8727
 5550TIP3   OH238208   6.190   2.095   7.702 -0.0125 -0.2589 -0.4298
 5550TIP3    H138209   6.228   2.067   7.785  0.9606 -0.3561 -0.9025
 5550TIP3    H238210   6.108   2.138   7.727 -1.1158 -2.6666  0.4058
 5551TIP3   OH238211   4.689   0.199   7.722  0.6487  0.2304  0.0406
 5551TIP3    H138212   4.656   0.172   7.808 -2.1969 -1.1147 -1.3279
 5551TIP3    H238213   4.686   0.295   7.725  0.0054  0.1981  1.2492
 5552TIP3   OH238214   3.671   6.193   0.615 -0.3843  0.6397 -0.4668
 5552TIP3    H138215   3.600   6.217   0.556 -0.1385 -0.4907 -1.2695
 5552TIP3    H238216   3.722   6.128   0.565  2.5969  3.0702 -0.9260
 5553TIP3   OH238217   2.649   4.882   2.273  0.4249  0.5465  0.0367
 5553TIP3    H138218   2.574   4.902   2.329  0.2939 -0.4778  0.2450
 5553TIP3    H238219   2.666   4.789   2.288  1.1668  0.5536 -0.6987
 5554TIP3   OH238220   2.302   6.647   0.240  0.0296  0.1285  0.2420
 5554TIP3    H138221   2.334   6.574   0.187  2.8631  1.3719  0.0366
 5554TIP3    H238222   2.319   6.620   0.331  1.7290  0.6856  0.1439
 5555TIP3   OH238223   0.817   2.472   0.156 -0.0419 -0.1011  0.7530
 5555TIP3    H138224   0.794   2.502   0.068  0.4612  2.8479  1.5128
 5555TIP3    H238225   0.906   2.437   0.147 -0.4152 -0.8720 -0.0771
 5556TIP3   OH238226   2.099   4.929   7.650 -0.4002 -0.2115 -0.0582
 5556TIP3    H138227   2.053   4.974   7.579 -0.8656  1.7872  1.4114
 5556TIP3    H238228   2.192   4.934   7.625 -0.5549  0.4339 -0.5291
 5557TIP3   OH238229   0.823   1.189   0.714 -0.2834 -0.0158 -0.3326
 5557TIP3    H138230   0.758   1.234   0.768  0.8158 -0.0055  1.0495
 5557TIP3    H238231   0.776   1.114   0.677 -1.4879  0.8873 -0.7032
 5558TIP3   OH238232   0.979   2.887   1.235  0.3879 -0.2566 -0.4386
 5558TIP3    H138233   1.041   2.834   1.284  1.7976  0.7722 -1.0310
 5558TIP3    H238234   1.031   2.962   1.203 -0.9990  0.3038 -1.5111
 5559TIP3   OH238235   1.645   5.624   6.714 -0.3134 -0.0188 -0.2841
 5559TIP3    H138236   1.626   5.550   6.656  0.5447 -1.2421  0.9342
 5559TIP3    H238237   1.575   5.622   6.779  0.6267 -0.8566  0.7438
 5560TIP3   OH238238   1.036   2.776   7.831 -0.5404  0.3508 -0.2494
 5560TIP3    H138239   1.089   2.793   7.753 -1.1226 -0.1692 -0.7651
 5560TIP3    H238240   0.945   2.785   7.801 -0.8753 -2.4219 -0.2909
 5561TIP3   OH238241   5.991   1.250   8.225 -0.3676 -0.1894  0.0958
 5561TIP3    H138242   6.022   1.236   8.315  2.6552 -1.2728 -0.9979
 5561TIP3    H238243   5.912   1.303   8.235 -0.7282 -1.1168  3.4280
 5562TIP3   OH238244   4.925   3.263   0.197 -0.4814  0.5430  0.1962
 5562TIP3    H138245   4.989   3.321   0.238 -0.8096  2.3301 -1.6441
 5562TIP3    H238246   4.865   3.239   0.267  0.5282  1.2307  1.3310
 5563TIP3   OH238247   1.510   5.622   0.980 -0.2972 -0.6200  0.1105
 5563TIP3    H138248   1.537   5.707   1.016  1.8594 -0.3189 -1.9631
 5563TIP3    H238249   1.500   5.566   1.056  1.2078  0.7319  1.3870
 5564TIP3   OH238250   1.185   0.090   7.519  0.1561 -0.0032  0.1664
 5564TIP3    H138251   1.271   0.050   7.531  0.1997 -0.4215 -1.3632
 5564TIP3    H238252   1.122   0.023   7.546  0.2449 -0.9707 -1.8758
 5565TIP3   OH238253   4.827   6.668   7.915 -0.2437 -0.0003  0.5602
 5565TIP3    H138254   4.755   6.727   7.895 -0.7058 -0.5885  0.4390
 5565TIP3    H238255   4.814   6.593   7.856  0.4538 -0.1253  0.5526
 5566TIP3   OH238256   5.493   5.888   2.193  0.0267  0.5693  0.0276
 5566TIP3    H138257   5.538   5.895   2.278  1.4038  2.3698 -0.7554
 5566TIP3    H238258   5.413   5.841   2.212  0.4991  0.5294  2.2583
 5567TIP3   OH238259   3.373   5.688   2.055  0.1004 -0.2813 -0.3872
 5567TIP3    H138260   3.401   5.778   2.039  1.9192 -0.3175  2.1228
 5567TIP3    H238261   3.443   5.634   2.019 -1.5535 -0.8410 -3.0007
 5568TIP3   OH238262   1.480   0.996   2.168  0.4978 -0.4167  0.3403
 5568TIP3    H138263   1.538   1.045   2.225 -0.4858 -1.0582  1.9690
 5568TIP3    H238264   1.405   0.974   2.223  0.1111 -2.2330 -0.8138
 5569TIP3   OH238265   0.044   4.868   1.614  0.1437  0.9526 -0.4244
 5569TIP3    H138266   0.010   4.943   1.564 -0.7308 -0.2269 -1.6603
 5569TIP3    H238267   0.132   4.855   1.579 -0.6715 -0.2388 -2.1976
 5570TIP3   OH238268   3.575   3.472   0.136 -0.0632 -0.1356 -0.2931
 5570TIP3    H138269   3.611   3.472   0.047  0.1208 -2.7292 -0.2748
 5570TIP3    H238270   3.505   3.407   0.134 -0.9905  0.7524  1.1501
 5571TIP3   OH238271   0.921   4.031   8.195  0.0300  0.6056  0.1181
 5571TIP3    H138272   0.946   4.019   8.103 -0.2956  1.4522 -0.0824
 5571TIP3    H238273   0.972   4.106   8.225  0.1656  0.3096  0.6473
 5572TIP3   OH238274   4.830   6.606   6.680  0.7271 -0.1934 -0.7625
 5572TIP3    H138275   4.861   6.677   6.624  1.3909 -0.1896 -0.3996
 5572TIP3    H238276   4.823   6.645   6.767  2.0043 -0.7972 -0.3721
 5573TIP3   OH238277   6.752   2.487   7.895 -0.1827 -0.0570 -0.3321
 5573TIP3    H138278   6.684   2.477   7.962  0.4586 -0.4192  0.2660
 5573TIP3    H238279   6.805   2.560   7.925  0.2136 -0.3342 -0.3564
 5574TIP3   OH238280   5.447   5.792   2.539  0.3252  0.0865 -0.6187
 5574TIP3    H138281   5.366   5.842   2.549  1.0318  1.0336  0.6482
 5574TIP3    H238282   5.420   5.701   2.549 -0.5292  0.4231  0.4125
 5575TIP3   OH238283   2.489   3.365   1.498  0.5542 -0.6338  0.0512
 5575TIP3    H138284   2.562   3.376   1.559  1.4467  1.0642 -1.2091
 5575TIP3    H238285   2.530   3.326   1.420 -0.0905 -0.6477 -0.2868
 5576TIP3   OH238286   1.375   1.897   8.273 -0.0142  0.0972 -0.6711
 5576TIP3    H138287   1.384   1.952   8.196 -0.7163  1.4436  0.1792
 5576TIP3    H238288   1.280   1.894   8.290  0.1628  0.2145  0.4060
 5577TIP3   OH238289   3.006   0.360   1.872  0.1981 -0.6977  0.1793
 5577TIP3    H138290   3.095   0.334   1.895  1.1130  1.1256 -1.0205
 5577TIP3    H238291   2.975   0.408   1.949  0.3864 -1.0239  0.4616
 5578TIP3   OH238292   6.079   0.170   1.297  0.3239 -0.4298 -0.0879
 5578TIP3    H138293   6.097   0.219   1.377 -0.1182 -1.0520  0.4014
 5578TIP3    H238294   6.007   0.218   1.255 -0.3772 -0.8596  0.5881
 5579TIP3   OH238295   0.662   3.073   1.481 -0.6023  0.1568  0.0481
 5579TIP3    H138296   0.585   3.107   1.436 -0.1284  0.4744 -0.5483
 5579TIP3    H238297   0.705   3.151   1.517  0.8912  0.3354 -1.9647
 5580TIP3   OH238298   4.151   4.318   0.936 -0.2266 -0.2873  0.2046
 5580TIP3    H138299   4.218   4.310   0.868 -1.3293 -1.4771 -0.7911
 5580TIP3    H238300   4.073   4.278   0.898 -1.9882  2.4164  0.7259
 5581TIP3   OH238301   0.920   4.404   7.926  0.1251  0.2384  0.3366
 5581TIP3    H138302   0.990   4.350   7.888  0.0552  1.2288 -1.3192
 5581TIP3    H238303   0.841   4.351   7.913  0.2066  0.2540 -0.3019
 5582TIP3   OH238304   1.593   4.515   2.343  0.4636  0.2722 -0.5077
 5582TIP3    H138305   1.589   4.456   2.268 -0.7758  1.1104 -1.1308
 5582TIP3    H238306   1.508   4.505   2.386  0.8749  0.3660  0.3578
 5583TIP3   OH238307   4.226   1.936   7.672  0.0307  0.6553  0.0149
 5583TIP3    H138308   4.137   1.910   7.696  0.3295 -1.7259 -1.1304
 5583TIP3    H238309   4.282   1.884   7.731  0.6866  1.6355  0.2770
 5584TIP3   OH238310   2.424   4.544   0.919  0.2540  0.0802 -0.1398
 5584TIP3    H138311   2.498   4.604   0.932 -0.7416  0.9037  2.1249
 5584TIP3    H238312   2.347   4.599   0.928 -0.6790 -1.3289  0.7796
 5585TIP3   OH238313   0.902   5.776   8.180 -0.5560  0.7285  0.1978
 5585TIP3    H138314   0.961   5.702   8.166 -1.3501  0.1949 -0.4546
 5585TIP3    H238315   0.937   5.847   8.127  0.7906  1.1728  1.6152
 5586TIP3   OH238316   4.684   5.145   1.259  0.0023  0.2593 -0.0627
 5586TIP3    H138317   4.766   5.194   1.257  0.1066  0.0495 -1.3366
 5586TIP3    H238318   4.617   5.211   1.241 -0.0235  0.2390 -0.0422
 5587TIP3   OH238319   0.675   0.688   1.432  0.3954  0.2128 -0.4440
 5587TIP3    H138320   0.642   0.694   1.522 -2.0121 -1.0499 -1.1514
 5587TIP3    H238321   0.727   0.607   1.431  1.6815  0.9971  0.1149
 5588TIP3   OH238322   3.743   2.102   2.027  0.2572 -0.8526 -0.1473
 5588TIP3    H138323   3.679   2.157   2.073 -0.6187 -0.6637 -1.5277
 5588TIP3    H238324   3.811   2.085   2.092 -0.4314  0.2302  0.9051
 5589TIP3   OH238325   1.875   2.265   0.348  0.4921 -0.3176 -0.5707
 5589TIP3    H138326   1.873   2.359   0.367 -0.9213 -0.4763  0.1497
 5589TIP3    H238327   1.783   2.238   0.351  0.9325 -1.8339 -0.2545
 5590TIP3   OH238328   5.329   5.152   0.469 -0.3294  0.2337  0.5604
 5590TIP3    H138329   5.308   5.220   0.533  0.4910  2.2310 -1.1876
 5590TIP3    H238330   5.345   5.073   0.522 -1.5991  1.2875  2.6254
 5591TIP3   OH238331   3.155   0.635   1.394 -0.1119  0.8268  0.3785
 5591TIP3    H138332   3.128   0.566   1.456  0.1012  0.4555  0.0595
 5591TIP3    H238333   3.212   0.591   1.332 -0.7954  1.0638 -0.4488
 5592TIP3   OH238334   3.795   1.099   0.879 -0.7368 -0.3337 -0.3424
 5592TIP3    H138335   3.843   1.041   0.821  1.0416  1.2073 -0.5207
 5592TIP3    H238336   3.704   1.089   0.854 -0.2580 -1.5145 -1.7299
 5593TIP3   OH238337   2.435   1.068   0.838  0.5297  0.0090 -0.0973
 5593TIP3    H138338   2.339   1.063   0.838  0.5996 -2.0154  0.3127
 5593TIP3    H238339   2.460   1.040   0.750  0.7933 -1.7988  0.5221
 5594TIP3   OH238340   6.644   4.813   2.219  0.5900  0.1851  0.2408
 5594TIP3    H138341   6.675   4.881   2.278  1.1569 -0.9670  1.3204
 5594TIP3    H238342   6.668   4.731   2.262  0.5124 -0.7053 -1.3260
 5595TIP3   OH238343   0.204   4.783   7.087  0.1713 -0.4352 -0.0601
 5595TIP3    H138344   0.118   4.795   7.045  0.1811 -1.1434 -0.2877
 5595TIP3    H238345   0.192   4.817   7.176 -0.0711  0.3552 -0.3881
 5596TIP3   OH238346   5.630   0.319   7.199 -0.2018  0.1038  0.0465
 5596TIP3    H138347   5.668   0.273   7.274  1.1187 -0.4126 -0.8858
 5596TIP3    H238348   5.585   0.394   7.236 -0.9261 -0.9849  1.4793
 5597TIP3   OH238349   6.736   5.961   8.093  0.0693  0.5399 -0.0633
 5597TIP3    H138350   6.723   6.041   8.144 -0.9927  0.0788  0.4316
 5597TIP3    H238351   6.726   5.989   8.002  0.3069  1.0723  0.0685
 5598TIP3   OH238352   4.802   1.395   2.492 -0.4399  0.2176  0.1168
 5598TIP3    H138353   4.714   1.364   2.516  0.5064 -0.9001  2.4524
 5598TIP3    H238354   4.813   1.368   2.401 -1.6604 -1.6622  0.4756
 5599TIP3   OH238355   1.445   3.912   1.627 -0.3928  0.0200  0.5168
 5599TIP3    H138356   1.429   3.944   1.716  0.1743 -0.0138  0.6342
 5599TIP3    H238357   1.396   3.830   1.622 -1.0223  0.3946  0.5546
 5600TIP3   OH238358   3.161   5.119   2.898 -0.5837  0.0974  0.1917
 5600TIP3    H138359   3.227   5.103   2.831  0.6599 -0.3261  1.4671
 5600TIP3    H238360   3.186   5.203   2.937 -1.3880  0.4223  0.0428
 5601TIP3   OH238361   3.038   2.375   6.456 -0.1260 -0.8244 -0.2742
 5601TIP3    H138362   3.014   2.467   6.443 -0.2802 -0.8865 -0.4323
 5601TIP3    H238363   2.988   2.348   6.534  1.1211 -0.3336  0.7213
 5602TIP3   OH238364   3.665   2.004   6.902  0.3273 -0.0260  0.0427
 5602TIP3    H138365   3.598   1.938   6.919 -0.5481  0.6055 -0.8679
 5602TIP3    H238366   3.668   2.011   6.807  1.0066  0.6474  0.1032
 5603TIP3   OH238367   0.077   0.114   1.596  0.4255 -0.7044 -0.1509
 5603TIP3    H138368   0.062   0.041   1.656  0.4005 -1.6433 -1.2747
 5603TIP3    H238369   0.118   0.181   1.650  0.4063 -1.5273  0.9126
 5604TIP3   OH238370   6.601   2.510   0.523  0.4189 -0.3186  0.2215
 5604TIP3    H138371   6.592   2.598   0.559  1.3257 -0.9837  2.1967
 5604TIP3    H238372   6.547   2.511   0.444 -1.0940  1.4318  1.2018
 5605TIP3   OH238373   3.196   4.923   0.197 -0.1960  0.2751 -0.0752
 5605TIP3    H138374   3.284   4.906   0.232 -0.9698 -0.4699  1.6305
 5605TIP3    H238375   3.157   4.985   0.259 -1.4390 -0.6695  0.1189
 5606TIP3   OH238376   2.457   2.043   7.334  0.5427  0.2948 -0.2001
 5606TIP3    H138377   2.514   2.013   7.263  0.0458 -1.7078  0.1786
 5606TIP3    H238378   2.491   1.999   7.412 -0.1745  0.8356  0.4274
 5607TIP3   OH238379   5.739   1.513   6.847  0.4338  0.1620  0.2212
 5607TIP3    H138380   5.732   1.418   6.848  0.3867  0.1685  0.4678
 5607TIP3    H238381   5.827   1.530   6.811  0.1760  0.0390 -0.4783
 5608TIP3   OH238382   4.907   5.731   0.413 -0.1688 -0.2670  0.2072
 5608TIP3    H138383   4.946   5.747   0.327 -1.2572 -0.8487 -0.4173
 5608TIP3    H238384   4.908   5.636   0.422 -0.6869 -0.2412  0.5426
 5609TIP3   OH238385   6.160   5.605   6.231 -0.0225 -0.0224  0.5039
 5609TIP3    H138386   6.144   5.639   6.319 -0.6371  0.5338  0.1888
 5609TIP3    H238387   6.074   5.573   6.202  0.1062  0.0968 -0.0194
 5610TIP3   OH238388   4.165   6.793   2.457  0.2494  0.1409 -0.3740
 5610TIP3    H138389   4.162   6.698   2.468 -1.4204  0.0395 -1.4320
 5610TIP3    H238390   4.255   6.811   2.429  0.6112 -1.1090 -0.0642
 5611TIP3   OH238391   4.635   4.980   7.337 -0.2653  0.0109  0.1920
 5611TIP3    H138392   4.559   5.011   7.288 -1.1260 -1.3732  0.5853
 5611TIP3    H238393   4.620   5.011   7.427  0.1089  0.5198  0.0821
 5612TIP3   OH238394   6.684   0.394   7.914 -0.2959  0.2117 -0.1229
 5612TIP3    H138395   6.643   0.312   7.940  0.6785 -0.1841  0.2103
 5612TIP3    H238396   6.613   0.459   7.919 -1.3489 -0.7779 -1.4526
 5613TIP3   OH238397   4.680   3.009   8.188 -0.3441 -0.1256  0.0226
 5613TIP3    H138398   4.696   2.943   8.121 -0.5628 -0.8808  0.6870
 5613TIP3    H238399   4.764   3.054   8.198 -0.0310 -0.6765 -0.0617
 5614TIP3   OH238400   4.056   2.244   1.938 -0.3356  0.0259 -0.6005
 5614TIP3    H138401   4.053   2.340   1.941  0.7890  0.0599  0.4779
 5614TIP3    H238402   4.056   2.217   2.030  1.9454 -0.8609 -0.7958
 5615TIP3   OH238403   5.530   1.267   0.445 -0.0369 -0.4321 -0.3586
 5615TIP3    H138404   5.446   1.246   0.405 -0.2336 -0.9147  0.2949
 5615TIP3    H238405   5.595   1.234   0.383 -0.3244  0.1203 -0.9576
 5616TIP3   OH238406   6.327   6.828   0.638 -0.4579 -0.0403  0.1478
 5616TIP3    H138407   6.396   6.765   0.615 -1.0901 -0.3911 -0.8320
 5616TIP3    H238408   6.343   6.903   0.580  0.5951  0.9583  1.6466
 5617TIP3   OH238409   0.647   4.741   0.150 -0.4717  0.6607 -0.4464
 5617TIP3    H138410   0.642   4.661   0.097  0.5454 -0.2704  0.7969
 5617TIP3    H238411   0.559   4.778   0.146 -0.9121 -0.4115 -1.2014
 5618TIP3   OH238412   2.941   0.946   7.892  0.4224  0.4424 -0.5058
 5618TIP3    H138413   2.970   0.905   7.973 -0.1629 -0.6143 -0.8209
 5618TIP3    H238414   2.852   0.915   7.879  0.6949  0.1363 -1.8430
 5619TIP3   OH238415   6.557   6.410   7.565  0.1278 -0.3112  0.3716
 5619TIP3    H138416   6.617   6.485   7.566 -1.0702  0.6818 -0.3991
 5619TIP3    H238417   6.476   6.444   7.527 -1.4670 -1.2261  2.7558
 5620TIP3   OH238418   0.132   6.771   7.426 -0.0724 -0.2725 -0.2206
 5620TIP3    H138419   0.081   6.703   7.469  3.1150 -1.5949  1.8907
 5620TIP3    H238420   0.164   6.825   7.498  0.1617  1.5115 -1.5905
 5621TIP3   OH238421   6.636   5.455   1.548 -0.3787  0.5924  0.0493
 5621TIP3    H138422   6.665   5.540   1.582  1.2712 -0.5798  1.8429
 5621TIP3    H238423   6.711   5.423   1.497 -0.2018 -0.5413  0.9597
 5622TIP3   OH238424   1.724   5.212   0.079 -0.0996  0.7829  0.6982
 5622TIP3    H138425   1.775   5.263   0.016 -0.5207 -0.5741 -0.7932
 5622TIP3    H238426   1.771   5.128   0.086 -0.3562  0.7078  1.7957
 5623TIP3   OH238427   2.396   3.671   1.633 -0.7111 -0.8567  0.2839
 5623TIP3    H138428   2.401   3.595   1.691  1.2071 -0.9633  0.0514
 5623TIP3    H238429   2.455   3.735   1.673 -0.1972 -0.5266 -0.9681
 5624TIP3   OH238430   6.855   3.109   7.570  0.4050  0.3457  0.7803
 5624TIP3    H138431   6.820   3.116   7.659  0.4114 -2.3802  1.0745
 5624TIP3    H238432   6.933   3.055   7.579  0.8760  0.7119 -0.7928
 5625TIP3   OH238433   1.490   3.689   6.900 -0.1127 -0.6754  0.1918
 5625TIP3    H138434   1.544   3.757   6.939 -0.3481 -0.6212  0.4265
 5625TIP3    H238435   1.451   3.729   6.823 -1.0132 -0.2257  0.8521
 5626TIP3   OH238436   1.993   3.045   1.254 -0.0163  0.1969 -0.1606
 5626TIP3    H138437   1.993   3.140   1.267 -3.9702  0.1954  0.8872
 5626TIP3    H238438   2.043   3.011   1.328  0.0226  1.3586  0.3702
 5627TIP3   OH238439   1.702   3.607   0.573  0.3580 -0.4818 -0.1807
 5627TIP3    H138440   1.684   3.648   0.657 -0.5081 -1.2348  0.0183
 5627TIP3    H238441   1.649   3.657   0.510 -0.7538 -1.3151  0.0724
 5628TIP3   OH238442   3.104   4.257   1.093 -0.4500  0.1507 -0.0160
 5628TIP3    H138443   3.059   4.192   1.039  0.3964 -1.5465  1.2294
 5628TIP3    H238444   3.045   4.273   1.166 -1.0541  1.5282 -0.7597
 5629TIP3   OH238445   1.934   3.461   7.548 -0.5846 -0.0129 -0.4378
 5629TIP3    H138446   1.853   3.455   7.497  0.0119  0.0143 -1.4066
 5629TIP3    H238447   1.993   3.397   7.507 -0.3348 -0.5265  0.6901
 5630TIP3   OH238448   3.367   3.416   2.163  0.1500 -0.7065  0.5715
 5630TIP3    H138449   3.454   3.418   2.204 -0.3470 -0.0204  1.6359
 5630TIP3    H238450   3.336   3.506   2.168 -0.5482 -0.9035  0.0027
 5631TIP3   OH238451   6.522   4.668   7.885  0.1099 -0.1590  0.1887
 5631TIP3    H138452   6.526   4.681   7.979  0.4666  0.3995  0.1008
 5631TIP3    H238453   6.457   4.732   7.855 -0.3667 -0.6733  0.1127
 5632TIP3   OH238454   6.626   6.326   0.430 -0.0757  0.1441  0.4094
 5632TIP3    H138455   6.549   6.313   0.375  0.7225  1.6998 -1.1480
 5632TIP3    H238456   6.610   6.270   0.506 -0.4933 -3.4057 -2.0527
 5633TIP3   OH238457   4.791   5.382   1.622  0.1184 -0.3467 -0.7960
 5633TIP3    H138458   4.835   5.405   1.540  0.0899  0.7114 -0.5355
 5633TIP3    H238459   4.833   5.301   1.650  1.3297  0.1914 -0.9842
 5634TIP3   OH238460   0.033   5.372   1.020 -0.1137  0.0670  0.8541
 5634TIP3    H138461  -0.032   5.435   0.989 -1.5881 -0.7957  2.0376
 5634TIP3    H238462   0.109   5.385   0.963 -0.8361  2.0071  0.2615
 5635TIP3   OH238463   5.509   0.408   7.833  0.1635  0.0512 -0.2624
 5635TIP3    H138464   5.430   0.355   7.825 -0.0222  0.2485  0.2295
 5635TIP3    H238465   5.578   0.344   7.854 -0.0147 -0.0289  0.0926
 5636TIP3   OH238466   6.237   2.500   7.829  0.0164  0.2827  0.3860
 5636TIP3    H138467   6.229   2.488   7.924 -2.4720  0.1467  0.1991
 5636TIP3    H238468   6.183   2.576   7.809  0.4386  0.2627 -0.9629
 5637TIP3   OH238469   4.899   0.506   0.765  0.2446 -0.2788  0.5334
 5637TIP3    H138470   4.877   0.427   0.815 -2.5303  0.3533  0.4684
 5637TIP3    H238471   4.856   0.493   0.680  1.0603  0.6374 -0.0395
 5638TIP3   OH238472   0.536   3.856   7.680 -0.5075 -0.3867 -0.2310
 5638TIP3    H138473   0.544   3.761   7.690  0.1935 -0.3119  0.0098
 5638TIP3    H238474   0.625   3.889   7.697 -0.6782  0.2846 -0.6059
 5639TIP3   OH238475   1.031   3.815   1.784 -0.0782 -0.0503  0.0362
 5639TIP3    H138476   1.031   3.744   1.849  1.3665  0.3287  0.4904
 5639TIP3    H238477   0.974   3.882   1.821  0.5041  0.0390  0.7866
 5640TIP3   OH238478   6.063   2.972   7.800  0.1106  0.8619  0.3936
 5640TIP3    H138479   6.104   2.968   7.887  1.7941 -1.8769 -0.3749
 5640TIP3    H238480   5.969   2.965   7.817  0.5024 -1.8129  1.9964
 5641TIP3   OH238481   2.701   2.992   0.833  0.1138  0.1062 -0.3511
 5641TIP3    H138482   2.788   3.021   0.861 -0.9148  3.0699  0.1085
 5641TIP3    H238483   2.673   3.058   0.770 -1.3456 -1.4664 -1.4273
 5642TIP3   OH238484   4.060   3.262   7.501  0.1471 -0.8294  0.6833
 5642TIP3    H138485   4.143   3.216   7.510 -0.4277 -2.3541 -1.0491
 5642TIP3    H238486   3.994   3.196   7.525 -0.8275 -1.8034 -3.8498
 5643TIP3   OH238487   5.750   5.106   1.448  0.2373  0.7575  0.1610
 5643TIP3    H138488   5.686   5.176   1.455 -0.5099  0.0736  0.2787
 5643TIP3    H238489   5.746   5.079   1.356 -1.5605 -1.0345  0.7040
 5644TIP3   OH238490   2.795   6.641   2.057 -0.5019  0.1000 -0.0223
 5644TIP3    H138491   2.716   6.690   2.079 -0.6645  0.1771 -0.7744
 5644TIP3    H238492   2.796   6.637   1.962 -0.7303 -1.7450  0.0181
 5645TIP3   OH238493   7.010   2.605   0.275 -0.2995 -0.7400  0.1228
 5645TIP3    H138494   7.060   2.579   0.352 -0.1662  0.4868  0.4715
 5645TIP3    H238495   7.075   2.649   0.219 -1.0677  1.5732  0.9195
 5646TIP3   OH238496   6.567   5.028   0.294  0.2539 -0.1488  0.3249
 5646TIP3    H138497   6.652   4.994   0.321  0.8204  0.5447 -0.5518
 5646TIP3    H238498   6.546   4.980   0.214 -0.2960 -0.4644  0.6444
 5647TIP3   OH238499   4.808   4.680   8.102 -0.2036 -0.0128  0.4353
 5647TIP3    H138500   4.895   4.680   8.061 -0.6301 -2.3011 -0.6360
 5647TIP3    H238501   4.823   4.643   8.189 -0.1644 -1.0285  0.0105
 5648TIP3   OH238502   0.402   5.989   0.156  0.2151  0.0222  0.5430
 5648TIP3    H138503   0.400   6.043   0.235  1.9528 -2.6871  2.6285
 5648TIP3    H238504   0.428   5.902   0.187  0.1935 -1.3928 -2.9482
 5649TIP3   OH238505   2.313   6.245   1.835  0.0618 -0.2578 -0.1070
 5649TIP3    H138506   2.299   6.285   1.921  0.1737 -1.8742  0.7094
 5649TIP3    H238507   2.297   6.315   1.773 -2.3618  0.4225  1.1241
 5650TIP3   OH238508   2.285   4.824   6.363  0.4714  0.1997 -0.1351
 5650TIP3    H138509   2.278   4.845   6.457 -0.6757 -1.0699  0.0867
 5650TIP3    H238510   2.356   4.760   6.358  1.2017  1.0064 -0.2775
 5651TIP3   OH238511   2.202   4.446   6.255 -0.8899  0.1769 -0.4441
 5651TIP3    H138512   2.201   4.444   6.159 -0.1085  3.0013 -0.5900
 5651TIP3    H238513   2.289   4.415   6.279 -0.1953  1.7369 -0.8216
 5652TIP3   OH238514   3.263   2.868   8.180 -0.2360  0.3715  0.1574
 5652TIP3    H138515   3.171   2.882   8.202 -0.0211 -1.3528  2.3588
 5652TIP3    H238516   3.264   2.785   8.132  0.0786  0.9732 -0.9201
 5653TIP3   OH238517   1.478   3.803   0.463  0.2398  0.2698 -0.2932
 5653TIP3    H138518   1.392   3.802   0.505  0.1531 -1.9520 -0.3914
 5653TIP3    H238519   1.464   3.852   0.382 -1.3656 -1.2648 -1.0210
 5654TIP3   OH238520   4.582   0.955   7.276 -0.0426  0.2961 -0.6632
 5654TIP3    H138521   4.593   0.865   7.307  0.1289  0.6707  0.3972
 5654TIP3    H238522   4.572   0.946   7.181 -0.9713 -0.9209 -0.4807
 5655TIP3   OH238523   6.021   1.258   0.636 -0.5637 -0.2050 -0.1900
 5655TIP3    H138524   6.095   1.253   0.576  0.2649 -2.7554  0.9214
 5655TIP3    H238525   6.054   1.304   0.713 -1.2469  1.8755 -1.0716
 5656TIP3   OH238526   6.853   0.520   0.377  0.4913  0.0493 -0.7693
 5656TIP3    H138527   6.893   0.603   0.352 -0.8603  0.8527 -0.3683
 5656TIP3    H238528   6.815   0.536   0.463 -0.7710 -0.6284 -1.1797
 5657TIP3   OH238529   2.524   3.575   0.419 -0.3891  0.7290  0.0020
 5657TIP3    H138530   2.516   3.605   0.329 -0.9076 -1.2971 -0.6745
 5657TIP3    H238531   2.458   3.625   0.467 -0.1426  1.7911 -0.7412
 5658TIP3   OH238532   0.092   2.196   8.001  0.0769 -0.0865  0.2045
 5658TIP3    H138533   0.117   2.105   8.013 -0.2870 -0.0624  1.2569
 5658TIP3    H238534   0.156   2.245   8.053 -1.7219  0.0121  2.4985
 5659TIP3   OH238535   3.684   1.190   8.193 -0.0585  0.1806 -0.2262
 5659TIP3    H138536   3.707   1.142   8.274  0.5331  0.8593  0.0178
 5659TIP3    H238537   3.652   1.274   8.224  1.8310  1.1409 -0.7136
 5660TIP3   OH238538   3.433   4.377   0.078  0.4592 -0.0310  0.1713
 5660TIP3    H138539   3.370   4.306   0.084  1.2637 -0.7110  0.8953
 5660TIP3    H238540   3.487   4.368   0.157  0.5649  1.3982  0.2908
 5661TIP3   OH238541   1.919   0.506   0.295 -0.3953 -0.7957  0.2305
 5661TIP3    H138542   1.976   0.484   0.369  0.4687 -0.3437 -0.2828
 5661TIP3    H238543   1.918   0.426   0.242  2.4607  0.1362 -1.4504
 5662TIP3   OH238544   6.007   5.308   7.586 -0.1399 -0.1608 -0.1970
 5662TIP3    H138545   5.956   5.367   7.642  0.6843 -0.5645  0.9985
 5662TIP3    H238546   5.942   5.246   7.552 -0.8246  0.7179 -0.5544
 5663TIP3   OH238547   6.325   2.840   1.367  0.2107  0.0205  0.1968
 5663TIP3    H138548   6.342   2.933   1.380 -0.2815  0.7650 -3.5270
 5663TIP3    H238549   6.254   2.820   1.428 -0.9994  2.5896 -0.2446
 5664TIP3   OH238550   0.633   3.216   6.406  0.2350  0.7153  0.0296
 5664TIP3    H138551   0.673   3.156   6.342  0.8519  1.3795 -0.2197
 5664TIP3    H238552   0.686   3.295   6.401  1.4774  0.1602  2.7288
 5665TIP3   OH238553   0.846   1.072   1.025 -0.0633  0.1698 -0.5715
 5665TIP3    H138554   0.917   1.009   1.031  0.6125  0.9659  0.0993
 5665TIP3    H238555   0.848   1.103   0.934  0.5580  0.3145 -0.5079
 5666TIP3   OH238556   6.146   2.866   7.535 -0.3239  0.1675  0.5272
 5666TIP3    H138557   6.113   2.930   7.598 -0.8101 -0.6185  1.0928
 5666TIP3    H238558   6.069   2.814   7.510  0.0818 -0.2915  0.1941
 5667TIP3   OH238559   0.759   3.890   6.779  0.6564  0.3444 -0.2827
 5667TIP3    H138560   0.778   3.797   6.773  0.9717  0.3708  0.3261
 5667TIP3    H238561   0.689   3.904   6.715 -0.5932 -0.6326  0.8276
 5668TIP3   OH238562   2.067   6.119   8.023 -0.7526 -0.1875 -0.0745
 5668TIP3    H138563   2.153   6.122   7.983 -0.6021 -1.4461  0.1295
 5668TIP3    H238564   2.013   6.178   7.970  0.4198  1.2736  0.3001
 5669TIP3   OH238565   4.498   0.108   1.431  0.2118 -0.2560  0.0037
 5669TIP3    H138566   4.535   0.170   1.494  0.2632 -0.2969  0.0139
 5669TIP3    H238567   4.574   0.065   1.392  0.1514 -1.1581  0.8372
 5670TIP3   OH238568   3.088   5.597   1.584 -0.2762 -0.4664 -0.0930
 5670TIP3    H138569   3.142   5.520   1.567 -1.7789 -1.0276 -3.0316
 5670TIP3    H238570   3.123   5.664   1.526 -0.9775  0.0328  0.0463
 5671TIP3   OH238571   6.556   2.463   1.289  0.1683 -0.1584  0.5063
 5671TIP3    H138572   6.524   2.464   1.379  2.1207  0.0001  1.2470
 5671TIP3    H238573   6.541   2.552   1.258 -2.6682 -0.7833 -0.2100
 5672TIP3   OH238574   4.823   6.809   7.498 -0.1923  0.1024 -0.1017
 5672TIP3    H138575   4.779   6.743   7.552 -0.4820 -0.5829 -1.1271
 5672TIP3    H238576   4.890   6.759   7.450  0.2234  0.7325 -0.1851
 5673TIP3   OH238577   4.491   2.353   7.945  0.5131 -0.2631  0.1559
 5673TIP3    H138578   4.495   2.387   8.034  1.7678  0.6694 -0.2278
 5673TIP3    H238579   4.578   2.318   7.928  0.1567 -0.8459 -0.5481
 5674TIP3   OH238580   1.359   1.641   7.924  0.3596 -0.5909  0.5536
 5674TIP3    H138581   1.399   1.670   8.006 -1.3764  0.4634  1.0747
 5674TIP3    H238582   1.430   1.599   7.876  2.3550  2.0618  0.9977
 5675TIP3   OH238583   3.103   5.459   7.957  0.5742  0.0788 -0.2361
 5675TIP3    H138584   3.142   5.374   7.975 -0.0575 -0.0304  0.7243
 5675TIP3    H238585   3.091   5.461   7.862  0.5420 -0.9293 -0.2661
 5676TIP3   OH238586   6.181   6.161   8.027 -0.1063 -0.4290  0.5270
 5676TIP3    H138587   6.179   6.072   7.992  0.8032 -0.9230  1.6705
 5676TIP3    H238588   6.125   6.211   7.968  0.2407 -1.5193 -0.7806
 5677TIP3   OH238589   1.049   2.019   1.351  0.1711  0.2842 -0.1085
 5677TIP3    H138590   1.069   2.107   1.382  1.8824  0.1294 -0.7142
 5677TIP3    H238591   1.073   2.019   1.259 -0.7854 -0.5372 -0.3863
 5678TIP3   OH238592   6.568   0.766   1.716 -0.0738  0.1024 -0.6202
 5678TIP3    H138593   6.478   0.746   1.690 -0.6497 -0.4582  1.5983
 5678TIP3    H238594   6.570   0.861   1.725  0.3859  0.4329 -3.2961
 5679TIP3   OH238595   2.472   3.970   8.198  0.1445  0.1358  0.0922
 5679TIP3    H138596   2.532   3.929   8.135 -0.2376 -1.4461  0.7191
 5679TIP3    H238597   2.516   3.960   8.282 -0.5521 -0.1418  0.4246
 5680TIP3   OH238598   3.402   5.037   8.043  0.1278 -0.5119  0.1800
 5680TIP3    H138599   3.352   4.977   8.098  1.9029 -0.1385  2.3202
 5680TIP3    H238600   3.492   5.029   8.073  0.5480  2.7390  0.1504
 5681TIP3   OH238601   3.773   6.689   1.818 -0.7953  0.2378  0.2178
 5681TIP3    H138602   3.818   6.608   1.794 -2.1285 -0.8220  1.1206
 5681TIP3    H238603   3.838   6.738   1.868 -0.1511 -0.5745  0.2083
 5682TIP3   OH238604   0.976   6.727   1.191 -0.3905  0.2237  0.0216
 5682TIP3    H138605   1.054   6.672   1.188 -0.3433  0.3257 -1.0750
 5682TIP3    H238606   0.903   6.665   1.196 -0.2928  0.0943 -0.1563
 5683TIP3   OH238607   0.659   4.695   7.649  0.0917 -0.6183 -0.0109
 5683TIP3    H138608   0.628   4.625   7.591  1.7028 -0.2897 -1.3648
 5683TIP3    H238609   0.580   4.737   7.681 -0.9040 -0.6503 -2.2327
 5684TIP3   OH238610   3.580   0.403   7.136 -0.4166  0.0801  0.3888
 5684TIP3    H138611   3.661   0.353   7.130 -1.6817 -1.9148 -1.6027
 5684TIP3    H238612   3.556   0.399   7.228 -0.8127 -3.7458  0.2682
 5685TIP3   OH238613   2.959   6.922   0.477  0.2504  0.5739 -0.4141
 5685TIP3    H138614   3.008   6.944   0.556 -0.1110  0.8152 -0.2569
 5685TIP3    H238615   2.958   6.826   0.476  0.9295  0.5586 -0.5504
 5686TIP3   OH238616   0.801   6.242   8.287 -0.0539  0.0951 -0.3257
 5686TIP3    H138617   0.808   6.150   8.314 -3.1686 -0.3319 -0.6966
 5686TIP3    H238618   0.750   6.240   8.206  0.4363  2.1471 -0.7555
 5687TIP3   OH238619   3.040   4.885   2.008  0.0878 -0.1528  0.2708
 5687TIP3    H138620   3.101   4.937   2.060 -0.1743  0.3985  0.0343
 5687TIP3    H238621   2.954   4.925   2.025 -0.0217 -0.0651 -0.4586
 5688TIP3   OH238622   1.905   5.147   7.167 -0.1655  0.0976  0.6967
 5688TIP3    H138623   1.838   5.159   7.099 -0.6313 -0.9950  0.9353
 5688TIP3    H238624   1.940   5.235   7.182 -1.4760  0.6802  0.4811
 5689TIP3   OH238625   0.980   6.168   7.176  0.7814  0.1173 -0.7407
 5689TIP3    H138626   0.966   6.254   7.136 -0.9672 -1.0035 -2.7653
 5689TIP3    H238627   0.919   6.164   7.249  1.5268  0.9120 -0.0623
 5690TIP3   OH238628   3.456   6.131   1.829  0.6918  0.4528 -0.6119
 5690TIP3    H138629   3.398   6.114   1.903  1.5968  1.9400  0.4952
 5690TIP3    H238630   3.499   6.048   1.812  1.7118  0.4528  1.6570
 5691TIP3   OH238631   5.508   2.070   1.777  0.2193  0.0169 -0.0172
 5691TIP3    H138632   5.549   2.092   1.693  0.4310  0.6866  0.2542
 5691TIP3    H238633   5.423   2.113   1.774  0.4557  0.5225  0.3377
 5692TIP3   OH238634   5.930   2.749   7.452  0.4748  0.0762  0.4147
 5692TIP3    H138635   5.923   2.746   7.357 -1.7247  1.9936  0.4430
 5692TIP3    H238636   5.887   2.669   7.482  1.8492 -0.9270 -0.1501
 5693TIP3   OH238637   4.610   3.054   0.133  0.3215  0.1282 -0.0492
 5693TIP3    H138638   4.631   3.032   0.042  1.0031 -0.8194  0.3196
 5693TIP3    H238639   4.623   3.149   0.139 -0.3142  0.2936 -1.0808
 5694TIP3   OH238640   2.900   2.638   7.044 -0.1290 -0.2216 -0.0666
 5694TIP3    H138641   2.939   2.555   7.018  0.9022  0.5449 -1.0046
 5694TIP3    H238642   2.818   2.642   6.995 -1.1350 -1.5108  1.3894
 5695TIP3   OH238643   2.095   2.401   0.919 -0.2280  0.4204  0.1162
 5695TIP3    H138644   2.062   2.416   0.831 -1.5926  1.3310  0.7474
 5695TIP3    H238645   2.178   2.449   0.923 -0.0670  0.2161 -0.7207
 5696TIP3   OH238646   3.331   4.620   0.552 -0.2893 -0.7031  0.6173
 5696TIP3    H138647   3.360   4.656   0.468  0.6727  0.1278  1.2728
 5696TIP3    H238648   3.403   4.562   0.579 -1.1613 -1.9888  0.2857
 5697TIP3   OH238649   0.536   6.134   2.069  0.1206  0.0972  0.4995
 5697TIP3    H138650   0.474   6.102   2.003 -0.4443  0.8900  0.6303
 5697TIP3    H238651   0.605   6.068   2.071 -1.1800 -1.3062  1.0270
 5698TIP3   OH238652   5.259   2.239   7.375 -0.3400 -0.4059  0.2207
 5698TIP3    H138653   5.274   2.166   7.436  0.8156 -0.6371 -0.3190
 5698TIP3    H238654   5.344   2.254   7.334 -0.1558  2.1737  1.3165
 5699TIP3   OH238655   3.327   2.751   7.867 -0.2739 -0.0002  0.8297
 5699TIP3    H138656   3.402   2.725   7.813 -0.9468 -0.1981 -0.0438
 5699TIP3    H238657   3.328   2.847   7.864 -1.9898  0.0302 -2.0407
 5700TIP3   OH238658   3.930   1.654   1.969 -0.2728  0.0806 -0.1197
 5700TIP3    H138659   4.022   1.654   1.941  0.3832  1.1886  1.8570
 5700TIP3    H238660   3.893   1.731   1.927 -0.4191 -0.5510 -1.1896
 5701TIP3   OH238661   4.917   4.309   1.635 -0.1625  0.1784 -0.2325
 5701TIP3    H138662   5.007   4.301   1.667 -0.3809  0.9749  0.6244
 5701TIP3    H238663   4.884   4.219   1.633  1.0642 -0.2766 -1.8307
 5702TIP3   OH238664   5.549   6.070   0.795  0.6007 -0.1151  0.3297
 5702TIP3    H138665   5.467   6.021   0.785 -1.5509  3.5110 -1.5554
 5702TIP3    H238666   5.544   6.105   0.884 -0.3290  0.7489 -0.0498
 5703TIP3   OH238667   2.662   3.751   1.283 -0.6200  0.3393 -0.1061
 5703TIP3    H138668   2.600   3.760   1.211  0.5156  1.6694 -0.9645
 5703TIP3    H238669   2.622   3.799   1.355 -1.5020 -0.5249  0.0036
 5704TIP3   OH238670   3.972   2.303   1.358 -0.4821  0.3450  0.6349
 5704TIP3    H138671   4.019   2.378   1.394 -0.2204 -0.2891  1.6461
 5704TIP3    H238672   4.013   2.288   1.273 -0.9170  1.6864  0.1478
 5705TIP3   OH238673   5.627   4.566   6.600 -0.2369 -0.2037 -0.4355
 5705TIP3    H138674   5.654   4.616   6.524 -0.0714 -1.5353 -1.2866
 5705TIP3    H238675   5.708   4.550   6.649 -0.0759 -0.7708 -0.8762
 5706TIP3   OH238676   6.694   3.589   7.610 -0.0863  0.5255  0.2932
 5706TIP3    H138677   6.694   3.656   7.541 -3.1331  2.2006  1.6907
 5706TIP3    H238678   6.755   3.622   7.675 -0.2791  1.0777  0.2013
 5707TIP3   OH238679   4.741   6.418   1.063  0.0234  0.0617 -0.2633
 5707TIP3    H138680   4.712   6.333   1.028  0.3359 -0.0630 -0.2207
 5707TIP3    H238681   4.786   6.396   1.144 -1.7561  0.4448  0.8819
 5708TIP3   OH238682   3.801   4.742   1.856  0.1042 -0.1770 -0.4000
 5708TIP3    H138683   3.784   4.686   1.932 -0.8368 -0.9387 -1.1408
 5708TIP3    H238684   3.878   4.793   1.881 -1.2478  0.9473  1.7847
 5709TIP3   OH238685   5.949   4.025   7.844  0.1068  0.2469  0.2561
 5709TIP3    H138686   5.979   4.088   7.778  1.1509 -0.6056 -0.1047
 5709TIP3    H238687   6.017   3.958   7.847 -0.8013 -0.6858  0.8945
 5710TIP3   OH238688   1.847   6.472   7.225  0.0938  0.3544  0.2949
 5710TIP3    H138689   1.756   6.482   7.199  0.6135  1.4714 -1.2274
 5710TIP3    H238690   1.858   6.531   7.299 -0.0919  1.3544 -0.4453
 5711TIP3   OH238691   0.126   3.638   7.953  0.3355 -0.0597  0.4880
 5711TIP3    H138692   0.166   3.551   7.944 -0.8055 -0.5544  0.1104
 5711TIP3    H238693   0.200   3.699   7.945  1.2800 -1.0105  1.6748
 5712TIP3   OH238694   1.574   2.152   1.605 -0.0389 -0.1086 -0.3846
 5712TIP3    H138695   1.562   2.098   1.527  0.3668  1.5066 -1.6182
 5712TIP3    H238696   1.487   2.190   1.620  0.4286  1.6284 -1.6878
 5713TIP3   OH238697   6.002   4.577   7.406  0.3696 -0.1940 -0.1832
 5713TIP3    H138698   5.941   4.649   7.423  1.5352  1.0880 -1.0571
 5713TIP3    H238699   6.034   4.551   7.492  2.3927  2.6699  0.1023
 5714TIP3   OH238700   6.353   0.616   7.606  0.5626  0.6188  0.2230
 5714TIP3    H138701   6.382   0.704   7.629 -0.5875  0.9725  0.3826
 5714TIP3    H238702   6.314   0.625   7.520  0.5258  0.2403  0.1968
 5715TIP3   OH238703   6.335   0.864   2.490 -0.0442  0.1299  0.5742
 5715TIP3    H138704   6.339   0.823   2.404 -1.1229  0.6519  0.2476
 5715TIP3    H238705   6.337   0.958   2.471  0.7843  0.2463  1.1970
 5716TIP3   OH238706   4.515   3.036   7.359 -0.5098 -0.0516 -0.1034
 5716TIP3    H138707   4.473   3.022   7.274 -1.1319  4.1422 -0.7359
 5716TIP3    H238708   4.449   3.085   7.410  1.5234  1.7173  0.9881
 5717TIP3   OH238709   6.268   4.578   0.749  0.3926  0.0478 -0.2410
 5717TIP3    H138710   6.177   4.601   0.766  0.1953 -1.2387  0.5821
 5717TIP3    H238711   6.277   4.489   0.782  1.8180 -0.0437 -0.7964
 5718TIP3   OH238712   0.135   3.246   7.130 -0.1438  0.0774  0.4906
 5718TIP3    H138713   0.120   3.201   7.047 -1.6384 -1.6748  1.6165
 5718TIP3    H238714   0.058   3.303   7.140 -0.4721 -0.4657  1.1117
 5719TIP3   OH238715   4.422   1.710   2.328 -0.6803 -0.2875 -0.1057
 5719TIP3    H138716   4.460   1.793   2.358  1.2683 -0.6349 -1.3818
 5719TIP3    H238717   4.414   1.657   2.408  0.6790  0.1782  0.3762
 5720TIP3   OH238718   0.291   0.035   0.926  0.1607  0.1923 -0.0892
 5720TIP3    H138719   0.202   0.066   0.914 -0.2701 -1.3304 -1.1902
 5720TIP3    H238720   0.286  -0.028   0.997  0.4140  0.3284  0.0495
 5721TIP3   OH238721   5.541   1.159   1.884 -0.0825 -0.0953  0.6258
 5721TIP3    H138722   5.493   1.096   1.938 -1.4422  1.7236  1.6223
 5721TIP3    H238723   5.477   1.189   1.820  0.7317 -0.1319 -0.2279
 5722TIP3   OH238724   5.731   1.888   2.379  0.1827 -0.2102  0.0913
 5722TIP3    H138725   5.683   1.968   2.363 -1.2159 -1.3065 -1.5896
 5722TIP3    H238726   5.806   1.893   2.320 -1.7809 -1.5865 -2.7463
 5723TIP3   OH238727   4.770   6.166   7.486  0.2286  0.0337  0.3426
 5723TIP3    H138728   4.689   6.206   7.516 -0.0853  0.1527 -0.6283
 5723TIP3    H238729   4.831   6.240   7.478  0.3386 -0.0092  0.7375
 5724TIP3   OH238730   2.345   1.361   1.737 -0.1579 -0.2452 -0.1821
 5724TIP3    H138731   2.326   1.424   1.807 -0.5829  0.0457 -0.5552
 5724TIP3    H238732   2.418   1.400   1.689 -0.5499  0.0629 -0.5331
 5725TIP3   OH238733   3.344   4.058   8.198 -0.0012  0.1952 -0.5378
 5725TIP3    H138734   3.273   4.050   8.134 -0.8057 -1.1931  0.4759
 5725TIP3    H238735   3.300   4.078   8.281  0.7651 -0.6763  0.1102
 5726TIP3   OH238736   4.489   1.150   1.962  0.4691  0.0162 -0.4155
 5726TIP3    H138737   4.508   1.237   1.999  0.1572  0.4210 -1.1947
 5726TIP3    H238738   4.482   1.165   1.868  1.4203 -1.0463 -0.6616
 5727TIP3   OH238739   2.686   0.790   6.232  0.2901 -0.0311  0.0571
 5727TIP3    H138740   2.755   0.786   6.298 -0.9508 -0.0071  1.4138
 5727TIP3    H238741   2.717   0.855   6.169  1.9498 -0.7616  0.0702
 5728TIP3   OH238742   3.916   5.944   1.605  0.2792 -0.3505  0.5875
 5728TIP3    H138743   3.880   5.860   1.577  0.1875 -1.1816  2.9339
 5728TIP3    H238744   3.996   5.954   1.553  0.0930 -1.7005 -0.0081
 5729TIP3   OH238745   2.539   4.699   7.673 -0.3488  0.1562 -0.1434
 5729TIP3    H138746   2.632   4.676   7.666 -0.8923 -2.3145 -0.2409
 5729TIP3    H238747   2.515   4.726   7.585  0.5394  2.2325  0.1799
 5730TIP3   OH238748   3.216   1.790   7.322  0.0868  0.0765  0.4876
 5730TIP3    H138749   3.142   1.762   7.269 -0.8476  1.1846  1.1737
 5730TIP3    H238750   3.288   1.733   7.294 -0.8186 -0.5229 -0.7134
 5731TIP3   OH238751   1.581   5.557   0.732  0.3336 -0.0714  0.1148
 5731TIP3    H138752   1.570   5.588   0.822 -2.6663  0.6703 -0.4147
 5731TIP3    H238753   1.659   5.602   0.701  1.2226 -0.0550  2.1934
 5732TIP3   OH238754   1.999   1.210   7.078 -0.1651 -0.0220 -0.0360
 5732TIP3    H138755   2.074   1.164   7.116 -0.1481 -0.2279 -0.3158
 5732TIP3    H238756   1.967   1.152   7.009  0.0921  0.5433 -0.6520
 5733TIP3   OH238757   3.811   1.160   2.797 -1.2732 -0.5724 -0.0096
 5733TIP3    H138758   3.809   1.068   2.822  1.6465 -1.0394 -1.0380
 5733TIP3    H238759   3.904   1.182   2.796 -1.8757  2.3213 -0.1252
 5734TIP3   OH238760   3.143   0.948   0.255  0.5188 -0.5607  0.4757
 5734TIP3    H138761   3.168   0.871   0.204 -1.2503  0.7994 -2.7758
 5734TIP3    H238762   3.056   0.927   0.289 -1.3758  0.9078 -3.0149
 5735TIP3   OH238763   3.490   3.572   0.678  0.3468 -0.2186  0.0972
 5735TIP3    H138764   3.528   3.516   0.611 -0.1852  0.2082 -0.5678
 5735TIP3    H238765   3.421   3.621   0.633 -0.3227 -0.2549  1.0509
 5736TIP3   OH238766   6.394   4.784   1.286 -0.7821 -0.2471 -0.0859
 5736TIP3    H138767   6.461   4.771   1.353 -1.6121 -1.3086  0.5500
 5736TIP3    H238768   6.315   4.744   1.322 -0.9759 -1.8474 -2.1550
 5737TIP3   OH238769   2.063   2.274   1.627 -0.4086  0.0766 -0.0294
 5737TIP3    H138770   2.116   2.354   1.634  2.2906 -1.5450 -0.2870
 5737TIP3    H238771   2.065   2.237   1.715 -0.9729 -0.1152 -0.0936
 5738TIP3   OH238772   1.061   6.855   7.352  0.5727  0.0898 -0.5068
 5738TIP3    H138773   0.985   6.914   7.357  0.6654  0.1609  0.1159
 5738TIP3    H238774   1.091   6.847   7.443  0.4353 -1.0787 -0.5412
 5739TIP3   OH238775   4.055   4.305   0.307  0.0371  0.2383 -0.2891
 5739TIP3    H138776   4.104   4.269   0.381 -0.7610  0.8027  0.5373
 5739TIP3    H238777   3.970   4.262   0.311  0.3974 -0.6713 -1.6582
 5740TIP3   OH238778   6.270   4.205   1.390 -0.2804 -0.6899 -0.0034
 5740TIP3    H138779   6.306   4.120   1.365  1.1047 -0.2240  0.3135
 5740TIP3    H238780   6.319   4.230   1.468 -1.8901 -0.3826  0.9560
 5741TIP3   OH238781   0.677   6.462   1.466 -0.5419 -0.4659 -0.0926
 5741TIP3    H138782   0.651   6.541   1.513 -0.2391 -0.2559 -0.2731
 5741TIP3    H238783   0.659   6.481   1.374 -1.1509 -0.8842 -0.0665
 5742TIP3   OH238784   4.284   3.869   0.161  0.1136  0.0681  0.0106
 5742TIP3    H138785   4.350   3.842   0.225 -0.3744  0.0532  0.5055
 5742TIP3    H238786   4.202   3.870   0.209 -0.2182  0.3125 -0.5509
 5743TIP3   OH238787   3.542   4.480   0.687  0.4842  0.0809  0.2513
 5743TIP3    H138788   3.538   4.397   0.734  1.0968  0.0208  0.2109
 5743TIP3    H238789   3.487   4.540   0.738 -0.0511 -0.3752  0.2187
 5744TIP3   OH238790   6.985   0.806   0.441  0.4408  0.2714 -0.5153
 5744TIP3    H138791   7.078   0.821   0.423  0.4502 -0.1725 -0.8449
 5744TIP3    H238792   6.983   0.781   0.533  0.5180  1.3926 -0.1838
 5745TIP3   OH238793   6.006   2.079   7.452 -0.2584  0.2680  1.1676
 5745TIP3    H138794   6.072   2.014   7.478 -0.1603 -0.7010 -1.3005
 5745TIP3    H238795   6.039   2.161   7.490  1.0734 -0.6106  2.0247
 5746TIP3   OH238796   5.961   3.897   1.392 -0.5957 -0.1286  0.3878
 5746TIP3    H138797   5.869   3.917   1.410 -0.2968  1.3074  0.3771
 5746TIP3    H238798   6.003   3.897   1.478  0.2354  3.7291  0.1465
 5747TIP3   OH238799   3.458   1.227   1.608  0.4558  0.3767  0.7288
 5747TIP3    H138800   3.460   1.181   1.525 -0.2936  1.8698 -0.1506
 5747TIP3    H238801   3.456   1.158   1.674 -1.4331 -0.8805 -0.5579
 5748TIP3   OH238802   3.103   4.791   7.772 -0.3234 -0.6050 -0.2281
 5748TIP3    H138803   3.107   4.723   7.704 -0.8610  0.5315 -1.4292
 5748TIP3    H238804   3.151   4.865   7.735  0.6514 -0.4467  1.2483
 5749TIP3   OH238805   4.613   3.321   0.503  0.2444 -0.4803 -0.1766
 5749TIP3    H138806   4.534   3.343   0.453  0.3903 -1.2722 -0.7769
 5749TIP3    H238807   4.600   3.230   0.530  0.3318 -0.1748  0.9357
 5750TIP3   OH238808   6.642   1.520   6.819 -0.3892  0.1712 -0.0810
 5750TIP3    H138809   6.712   1.463   6.786 -0.8670  0.0138 -0.8410
 5750TIP3    H238810   6.650   1.600   6.767 -0.5945  0.2634  0.0299
 5751TIP3   OH238811   1.723   6.214   0.975  0.2224 -0.8226  0.1783
 5751TIP3    H138812   1.726   6.224   1.070 -1.6885 -0.4324  0.2256
 5751TIP3    H238813   1.655   6.148   0.960 -1.0310  0.6804 -0.9963
 5752TIP3   OH238814   1.839   0.731   6.945 -0.4642  0.0479 -0.0543
 5752TIP3    H138815   1.767   0.791   6.926  0.3877  0.6929 -1.3478
 5752TIP3    H238816   1.861   0.693   6.861 -0.5590 -1.6278  0.6543
 5753TIP3   OH238817   2.928   0.445   7.231 -0.4118 -0.2176  0.2799
 5753TIP3    H138818   2.887   0.513   7.178 -0.4029  0.8564  1.5975
 5753TIP3    H238819   3.002   0.489   7.274  0.2927 -1.3515  0.2824
 5754TIP3   OH238820   6.106   4.769   0.606 -0.3904  0.2464  0.1216
 5754TIP3    H138821   6.137   4.720   0.530  0.6008  2.5133 -1.0073
 5754TIP3    H238822   6.179   4.766   0.668 -0.5513 -0.1535  0.2977
 5755TIP3   OH238823   2.465   2.798   6.632 -0.0729  0.0897  0.7604
 5755TIP3    H138824   2.498   2.737   6.566  1.7919  0.0062  1.7016
 5755TIP3    H238825   2.423   2.868   6.582 -0.5101 -0.9739 -0.4088
 5756TIP3   OH238826   1.601   1.995   1.376 -0.1663  0.4277 -0.3981
 5756TIP3    H138827   1.540   1.939   1.328 -0.1696  0.3457 -0.2978
 5756TIP3    H238828   1.679   1.999   1.320 -0.5446  1.1646 -0.9039
 5757TIP3   OH238829   2.908   0.987   1.903 -0.6749  0.8048  0.2443
 5757TIP3    H138830   2.980   0.960   1.846 -0.7010 -0.0169  0.5899
 5757TIP3    H238831   2.939   1.069   1.942  0.0484  0.5031  0.3296
 5758TIP3   OH238832   6.444   3.625   0.784  0.2631  0.3719  0.5443
 5758TIP3    H138833   6.532   3.647   0.816  1.0817 -0.5152 -1.0012
 5758TIP3    H238834   6.398   3.709   0.779  0.6647  0.7332  2.3223
 5759TIP3   OH238835   5.396   3.784   0.137  0.3775 -0.4599  0.3419
 5759TIP3    H138836   5.358   3.845   0.201 -1.7929 -0.1522 -1.1025
 5759TIP3    H238837   5.419   3.839   0.062 -2.9998 -1.3787 -1.6004
 5760TIP3   OH238838   0.043   2.463   8.290  0.4106 -0.7061 -0.4524
 5760TIP3    H138839   0.087   2.420   8.363 -1.4343 -0.0639  1.1280
 5760TIP3    H238840  -0.007   2.394   8.247 -0.1953 -0.7005  0.2352
 5761TIP3   OH238841   4.100   3.732   6.268 -0.0634  0.0840 -0.2319
 5761TIP3    H138842   4.181   3.732   6.217  1.1256 -0.0949  1.5526
 5761TIP3    H238843   4.036   3.686   6.213  1.9512 -2.8357 -0.3689
 5762TIP3   OH238844   2.316   3.599   7.654 -0.5948  0.1357 -0.4805
 5762TIP3    H138845   2.279   3.512   7.638 -1.4116  0.3325  0.2920
 5762TIP3    H238846   2.258   3.639   7.718  0.8852  0.5065  0.6867
 5763TIP3   OH238847   1.840   2.891   7.450  0.2464  0.3621  0.1319
 5763TIP3    H138848   1.874   2.892   7.540  2.7642  1.4477 -0.7267
 5763TIP3    H238849   1.917   2.876   7.396 -1.1575  0.0888 -1.8873
 5764TIP3   OH238850   6.941   4.413   0.525  0.6805  0.5079 -0.3185
 5764TIP3    H138851   6.859   4.437   0.481 -0.4413 -1.5662  0.5276
 5764TIP3    H238852   6.918   4.406   0.617  2.3538  1.9751  0.2713
 5765TIP3   OH238853   5.467   0.622   0.938  0.0624 -0.4008  0.3212
 5765TIP3    H138854   5.447   0.579   1.021  1.1286  0.1758  0.8844
 5765TIP3    H238855   5.411   0.700   0.937 -0.3164 -0.6674  0.2551
 5766TIP3   OH238856   6.893   3.596   8.115 -1.0348  0.2294 -0.0619
 5766TIP3    H138857   6.853   3.509   8.115 -1.7847  0.5627  0.7623
 5766TIP3    H238858   6.976   3.583   8.162 -1.9024  0.2645  1.5655
 5767TIP3   OH238859   4.492   0.482   0.849  0.0852 -0.0746  0.1762
 5767TIP3    H138860   4.428   0.539   0.808 -0.0907  0.5131  1.2369
 5767TIP3    H238861   4.452   0.395   0.847 -0.3086  0.1116 -0.0650
 5768TIP3   OH238862   2.585   2.237   6.136  0.0489  0.3661 -0.4838
 5768TIP3    H138863   2.681   2.247   6.131  0.5797  0.6065  4.8753
 5768TIP3    H238864   2.571   2.146   6.162 -1.1824  0.5046 -0.5993
 5769TIP3   OH238865   6.247   6.237   1.782 -0.0811  0.5475 -0.4609
 5769TIP3    H138866   6.175   6.299   1.768 -0.1871  0.7376  0.8008
 5769TIP3    H238867   6.273   6.251   1.873 -0.0145 -1.1717 -0.1789
 5770TIP3   OH238868   4.159   0.989   2.090  0.1541 -0.2788  0.5155
 5770TIP3    H138869   4.151   1.065   2.148  0.0679 -0.1200  0.2969
 5770TIP3    H238870   4.245   0.952   2.111 -0.2141 -0.6968  1.3100
 5771TIP3   OH238871   4.373   0.168   7.770  0.2701 -0.9699  0.0101
 5771TIP3    H138872   4.296   0.113   7.754 -0.7723  0.6418 -0.7961
 5771TIP3    H238873   4.383   0.219   7.690  1.1854  0.0092  0.7269
 5772TIP3   OH238874   4.563   4.777   1.408 -0.4675 -0.6921  0.4444
 5772TIP3    H138875   4.635   4.748   1.352 -0.5862  1.7891 -1.1330
 5772TIP3    H238876   4.485   4.739   1.368 -0.6478  1.7384 -1.7256
 5773TIP3   OH238877   3.114   3.499   8.141  0.0321 -0.0980 -0.1893
 5773TIP3    H138878   3.130   3.574   8.199 -0.1273  0.6318 -1.0745
 5773TIP3    H238879   3.187   3.500   8.079  0.6883 -1.4097  0.5137
 5774TIP3   OH238880   1.408   6.812   7.314 -0.2754  0.0103  0.2397
 5774TIP3    H138881   1.367   6.867   7.381 -0.7026  0.4003 -0.3299
 5774TIP3    H238882   1.496   6.795   7.348 -0.2755  0.7028  0.6241
 5775TIP3   OH238883   1.616   5.914   6.847  0.1490 -0.2402 -0.2651
 5775TIP3    H138884   1.542   5.968   6.876 -0.6015 -0.5885 -1.5017
 5775TIP3    H238885   1.671   5.908   6.925 -0.6437  0.8091  0.4202
 5776TIP3   OH238886   4.224   0.653   8.305  0.0587 -0.4270  0.0591
 5776TIP3    H138887   4.256   0.573   8.346  1.1842 -0.0434 -0.0320
 5776TIP3    H238888   4.136   0.631   8.274 -0.0696 -1.2899  0.9918
 5777TIP3   OH238889   0.089   5.239   1.766  0.0913 -0.0899  0.0715
 5777TIP3    H138890   0.067   5.238   1.673 -0.8509 -0.4385  0.2896
 5777TIP3    H238891   0.178   5.206   1.770 -0.4229 -1.6590 -0.5743
 5778TIP3   OH238892   3.878   3.088   0.363 -0.0493 -0.0514  0.8857
 5778TIP3    H138893   3.881   3.145   0.439  0.3322  1.2142 -0.0392
 5778TIP3    H238894   3.942   3.125   0.302 -0.8446 -0.6050 -0.3343
 5779TIP3   OH238895   2.793   5.434   1.811 -0.2718 -0.1839 -0.6812
 5779TIP3    H138896   2.831   5.495   1.874 -0.4832  0.2592 -0.9812
 5779TIP3    H238897   2.867   5.406   1.757  0.3398 -2.1797  1.0361
 5780TIP3   OH238898   4.468   5.921   8.285  0.1657  0.1279  0.2959
 5780TIP3    H138899   4.491   5.921   8.192  0.3437  1.1344  0.3318
 5780TIP3    H238900   4.549   5.897   8.329  0.2512  0.2959  0.2305
 5781TIP3   OH238901   0.123   1.050   8.282 -0.3276 -0.0928  0.2709
 5781TIP3    H138902   0.118   0.958   8.256 -1.1917  0.1588 -0.4901
 5781TIP3    H238903   0.178   1.091   8.215 -2.3437  0.5045 -1.0947
 5782TIP3   OH238904   6.767   5.009   7.031 -0.1418  0.6990 -0.3772
 5782TIP3    H138905   6.771   5.071   7.104 -0.5829  1.2790 -0.8389
 5782TIP3    H238906   6.768   5.064   6.953 -2.1487  0.2490 -0.7799
 5783TIP3   OH238907   5.506   3.429   6.833  0.2250 -0.2255  0.5721
 5783TIP3    H138908   5.466   3.416   6.747  0.1401 -2.5697  0.9038
 5783TIP3    H238909   5.591   3.386   6.827  0.7893  0.7584  1.2709
 5784TIP3   OH238910   3.606   0.158   0.126  0.1039  0.5587 -0.4413
 5784TIP3    H138911   3.577   0.229   0.183  0.0839 -0.5671  1.0267
 5784TIP3    H238912   3.557   0.082   0.156 -0.4217  0.0449 -2.4588
 5785TIP3   OH238913   4.748   5.633   7.811  0.1220 -0.0011  0.0523
 5785TIP3    H138914   4.764   5.549   7.853  0.7618  0.0764 -0.0155
 5785TIP3    H238915   4.763   5.698   7.880 -1.8602  0.0131  0.5136
 5786TIP3   OH238916   3.634   1.807   0.148  0.8172 -0.1211  0.3643
 5786TIP3    H138917   3.561   1.862   0.176 -0.7583 -1.1002 -1.6291
 5786TIP3    H238918   3.711   1.846   0.191 -0.5119  2.3635  0.6462
 5787TIP3   OH238919   1.511   4.695   6.790  0.0498 -0.7852  0.1006
 5787TIP3    H138920   1.543   4.674   6.703  0.4097  0.4720 -0.0927
 5787TIP3    H238921   1.585   4.739   6.833  0.1356 -2.0451  1.3165
 5788TIP3   OH238922   4.849   3.051   7.701  0.5454  0.3562  0.3623
 5788TIP3    H138923   4.771   3.070   7.753 -0.2087 -0.2405 -0.5118
 5788TIP3    H238924   4.878   3.137   7.669  0.6903  0.6612  1.2976
 5789TIP3   OH238925   3.108   1.154   6.636  0.0204 -0.0735  0.1627
 5789TIP3    H138926   3.142   1.173   6.549  2.1985  0.3001  1.0073
 5789TIP3    H238927   3.071   1.066   6.630 -1.1270  0.4906 -1.4358
 5790TIP3   OH238928   5.396   5.908   1.119  0.1414 -0.3801  0.2858
 5790TIP3    H138929   5.301   5.896   1.117  0.1792 -0.8847  1.0228
 5790TIP3    H238930   5.424   5.860   1.197  1.2373 -2.0702 -1.0722
 5791TIP3   OH238931   3.779   0.087   1.833  0.0794  0.0465 -0.3272
 5791TIP3    H138932   3.731   0.022   1.781 -1.7702  1.1274 -0.0506
 5791TIP3    H238933   3.713   0.127   1.889  1.5859  0.6456  1.0966
 5792TIP3   OH238934   2.380   0.309   2.498  0.0264 -0.0120 -0.5803
 5792TIP3    H138935   2.324   0.304   2.576  2.6106  0.5537  1.4689
 5792TIP3    H238936   2.371   0.224   2.456 -2.4431  0.1283 -0.4698
 5793TIP3   OH238937   2.601   4.518   7.121  0.5730 -0.2181  0.0630
 5793TIP3    H138938   2.696   4.521   7.136  0.5892 -0.4834  0.0204
 5793TIP3    H238939   2.590   4.549   7.031  0.6052 -0.0361  0.1209
 5794TIP3   OH238940   3.393   6.986   2.069  0.5783  0.9638  0.1550
 5794TIP3    H138941   3.326   6.918   2.081 -0.4753  2.2875  2.4098
 5794TIP3    H238942   3.464   6.942   2.022 -0.0820 -1.7038  1.4752
 5795TIP3   OH238943   6.389   3.848   7.159 -0.1462 -0.0688 -0.5863
 5795TIP3    H138944   6.301   3.822   7.131 -0.4407  1.0679 -0.7681
 5795TIP3    H238945   6.447   3.780   7.123 -0.8426 -0.2820 -1.3299
 5796TIP3   OH238946   2.940   6.437   1.434 -0.0306 -0.4945  0.1431
 5796TIP3    H138947   2.927   6.512   1.376  2.7712  0.5242  0.6840
 5796TIP3    H238948   2.974   6.369   1.376 -0.4894 -0.6386  0.0354
 5797TIP3   OH238949   6.907   1.617   1.777  0.0724  0.2724  0.2713
 5797TIP3    H138950   6.851   1.581   1.846 -0.1247  0.6491  0.3106
 5797TIP3    H238951   6.868   1.584   1.695  1.3031 -1.6023  0.3799
 5798TIP3   OH238952   6.120   1.070   7.651 -0.0023 -0.1278  0.8130
 5798TIP3    H138953   6.193   1.129   7.674 -0.5808  1.1631 -0.5013
 5798TIP3    H238954   6.156   1.013   7.584  0.1027 -0.2036  0.9332
 5799TIP3   OH238955   6.639   2.236   0.483  0.6196 -0.4820  0.0300
 5799TIP3    H138956   6.657   2.266   0.394 -2.0771 -0.9364 -0.7491
 5799TIP3    H238957   6.676   2.305   0.539  0.5920  0.8298 -1.4942
 5800TIP3   OH238958   2.259   5.437   1.037 -0.1464 -0.4440  0.4529
 5800TIP3    H138959   2.341   5.486   1.035 -0.3679 -0.0659  0.6061
 5800TIP3    H238960   2.281   5.355   1.080  0.3913 -0.7894 -0.4547
 5801TIP3   OH238961   5.904   4.301   1.640  0.0078 -0.7427  0.3205
 5801TIP3    H138962   5.960   4.293   1.717 -0.2606 -2.3090  0.3886
 5801TIP3    H238963   5.923   4.388   1.605  3.8733 -1.8048 -0.7089
 5802TIP3   OH238964   2.090   6.269   7.242 -0.3780 -0.4020  0.3088
 5802TIP3    H138965   2.005   6.313   7.244  0.2295  0.8560 -0.1796
 5802TIP3    H238966   2.146   6.329   7.192  0.9261 -0.9696  1.0556
 5803TIP3   OH238967   2.876   3.364   5.936  0.2898  0.0981 -0.0230
 5803TIP3    H138968   2.860   3.361   6.030 -1.8509 -1.2139 -0.3467
 5803TIP3    H238969   2.936   3.292   5.919 -0.0790 -0.2771  0.2441
 5804TIP3   OH238970   2.261   4.342   0.018 -0.2221 -0.2094 -0.7956
 5804TIP3    H138971   2.298   4.324   0.104 -0.5393  0.7852 -0.4426
 5804TIP3    H238972   2.319   4.295  -0.043  1.3472  0.9074 -0.2315
 5805TIP3   OH238973   6.810   1.352   0.534 -0.0413 -0.6082  0.1227
 5805TIP3    H138974   6.774   1.360   0.446  1.5342 -0.5283 -0.5307
 5805TIP3    H238975   6.741   1.306   0.583 -1.4636  0.4562 -0.7906
 5806TIP3   OH238976   4.516   3.343   7.875  0.1178 -0.2270 -0.1096
 5806TIP3    H138977   4.601   3.328   7.918 -0.2668  0.0830  0.7880
 5806TIP3    H238978   4.455   3.355   7.947 -0.2091  2.3261 -0.6889
 5807TIP3   OH238979   0.325   6.489   0.666  0.1764  0.1159  0.0265
 5807TIP3    H138980   0.369   6.473   0.750  2.0656 -0.8158 -1.0704
 5807TIP3    H238981   0.392   6.529   0.611 -0.8234  0.1016 -1.2466
 5808TIP3   OH238982   0.667   5.182   7.112  0.7160 -0.0128 -0.7024
 5808TIP3    H138983   0.692   5.244   7.180 -1.1805  0.1491 -0.0661
 5808TIP3    H238984   0.588   5.139   7.148 -0.7604  0.5657 -3.0548
 5809TIP3   OH238985   1.035   6.678   0.590 -0.1865 -0.0417 -0.0763
 5809TIP3    H138986   1.032   6.583   0.580  1.0579 -0.1687  0.4631
 5809TIP3    H238987   1.031   6.712   0.501  1.3256 -0.7032 -0.4289
 5810TIP3   OH238988   1.323   3.575   0.829 -0.2213  0.1332 -0.5375
 5810TIP3    H138989   1.321   3.517   0.906  2.6200 -2.2581 -2.0712
 5810TIP3    H238990   1.379   3.648   0.856 -1.3303  0.6640  0.4270
 5811TIP3   OH238991   1.589   6.650   0.056  0.1896  0.7074  0.7034
 5811TIP3    H138992   1.558   6.676  -0.030 -0.1388  1.2003  0.9701
 5811TIP3    H238993   1.581   6.729   0.110  1.0427  0.6006  1.0102
 5812TIP3   OH238994   1.314   6.070   0.757  0.3556  0.3092 -0.3560
 5812TIP3    H138995   1.321   5.988   0.805 -1.3292  0.2563 -0.1490
 5812TIP3    H238996   1.293   6.044   0.667 -2.4741  0.5017  0.1754
 5813TIP3   OH238997   5.209   4.798   0.353 -0.2890 -0.2230 -0.2303
 5813TIP3    H138998   5.294   4.754   0.351  0.7478  1.5340  1.4008
 5813TIP3    H238999   5.193   4.823   0.262  1.5732  0.4892 -0.4068
 5814TIP3   OH239000   0.494   0.262   1.446 -0.3000 -0.1859  0.2911
 5814TIP3    H139001   0.477   0.201   1.374 -1.7610  0.9114 -0.3654
 5814TIP3    H239002   0.439   0.338   1.426  1.7870  1.5758  0.8069
 5815TIP3   OH239003   0.942   3.648   1.968  0.3015  0.1516  1.0644
 5815TIP3    H139004   0.878   3.701   2.016 -0.8819 -0.4330  0.1787
 5815TIP3    H239005   0.992   3.604   2.036  0.4384  1.3795  1.7968
 5816TIP3   OH239006   3.084   4.314   8.076 -0.2881 -0.0168  0.3019
 5816TIP3    H139007   3.016   4.315   8.143  0.8991  1.1672  1.5359
 5816TIP3    H239008   3.157   4.362   8.114  1.2483 -1.1951 -0.9973
 5817TIP3   OH239009   2.693   3.664   0.788  0.2234 -0.2934 -0.1798
 5817TIP3    H139010   2.653   3.577   0.784 -0.1841 -0.0930 -0.4861
 5817TIP3    H239011   2.641   3.711   0.852  1.4870 -0.7965  1.2909
 5818TIP3   OH239012   6.614   1.342   7.614  0.5605 -0.1963  0.6870
 5818TIP3    H139013   6.681   1.410   7.608  0.8082 -0.2698  2.2013
 5818TIP3    H239014   6.544   1.381   7.666 -0.9208  0.1064 -1.4109
 5819TIP3   OH239015   0.823   1.281   7.166  0.2627  0.0262 -0.0299
 5819TIP3    H139016   0.883   1.232   7.222  0.1248  2.5831  2.6274
 5819TIP3    H239017   0.782   1.215   7.110  2.1559 -2.4075  1.2817
 5820TIP3   OH239018   0.417   1.886   8.048  0.6740 -0.1167 -0.0814
 5820TIP3    H139019   0.492   1.857   8.099  0.1314 -1.8149 -0.1860
 5820TIP3    H239020   0.442   1.870   7.957  0.8620  1.0250 -0.2504
 5821TIP3   OH239021   5.728   0.627   1.027  0.0114 -0.0387 -0.2023
 5821TIP3    H139022   5.733   0.723   1.021  0.7907 -0.1523 -3.4326
 5821TIP3    H239023   5.652   0.604   0.973 -0.2224 -1.2506  0.6173
 5822TIP3   OH239024   0.260   4.239   2.440  0.1863  0.1857 -0.4056
 5822TIP3    H139025   0.322   4.194   2.497 -0.7319  0.0730  0.5356
 5822TIP3    H239026   0.313   4.307   2.397  0.6796  1.1931  1.6169
 5823TIP3   OH239027   6.298   1.078   0.885 -0.3867 -0.2702 -0.6946
 5823TIP3    H139028   6.343   1.162   0.888 -0.2646 -0.3500 -0.3261
 5823TIP3    H239029   6.292   1.058   0.791 -1.6236  0.7912 -0.8697
 5824TIP3   OH239030   2.447   0.545   6.939  0.3486  0.1611 -0.2565
 5824TIP3    H139031   2.370   0.492   6.917 -0.0318  0.0468  1.2344
 5824TIP3    H239032   2.498   0.489   6.999  0.7420  0.8856  0.0955
 5825TIP3   OH239033   1.278   4.704   1.293 -0.4477 -0.3831 -0.3663
 5825TIP3    H139034   1.321   4.618   1.297 -0.6882 -0.5172 -0.6634
 5825TIP3    H239035   1.312   4.743   1.212  0.8542  0.4377  0.5315
 5826TIP3   OH239036   0.344   1.869   1.502 -0.8530 -0.4590  0.2993
 5826TIP3    H139037   0.415   1.932   1.513 -0.2882 -1.1802  0.9066
 5826TIP3    H239038   0.290   1.881   1.581 -0.7666 -0.7012  0.3960
 5827TIP3   OH239039   3.242   1.714   2.148  0.1652 -0.3191  0.6119
 5827TIP3    H139040   3.243   1.792   2.092 -0.4992  0.5151  1.7247
 5827TIP3    H239041   3.333   1.686   2.151  0.2555 -0.2508 -0.6912
 5828TIP3   OH239042   4.088   5.204   2.470  0.3889  0.1703  0.0361
 5828TIP3    H139043   4.170   5.159   2.450  0.3142  0.1895 -0.3075
 5828TIP3    H239044   4.114   5.277   2.527  0.5218 -0.2464  0.5250
 5829TIP3   OH239045   5.530   6.955   7.230  0.0597 -0.3654  0.5352
 5829TIP3    H139046   5.471   7.006   7.175 -0.3352 -1.8695 -0.4866
 5829TIP3    H239047   5.594   7.019   7.262 -0.6518  0.8353 -0.3552
 5830TIP3   OH239048   5.789   4.658   0.953  0.0182  0.1271  0.2765
 5830TIP3    H139049   5.796   4.707   0.871  0.2217  0.7676  0.6745
 5830TIP3    H239050   5.875   4.619   0.965  0.1892  0.5730  0.5191
 5831TIP3   OH239051   2.643   4.985   7.960 -0.2885 -0.1149  0.4531
 5831TIP3    H139052   2.603   5.071   7.977 -1.5817 -0.7630  0.8517
 5831TIP3    H239053   2.689   4.964   8.042 -3.0954 -1.4073  1.8331
 5832TIP3   OH239054   6.111   2.469   1.300 -0.1776  0.0708  0.1733
 5832TIP3    H139055   6.118   2.483   1.205  1.1668 -2.5683 -0.2035
 5832TIP3    H239056   6.036   2.410   1.310 -0.5161  0.5970  0.8003
 5833TIP3   OH239057   3.525   6.491   2.379  0.1684  0.2538 -0.3506
 5833TIP3    H139058   3.523   6.553   2.452  0.6462  0.4704 -0.5125
 5833TIP3    H239059   3.450   6.515   2.325 -0.5089 -0.2543  0.3392
 5834TIP3   OH239060   4.839   1.147   6.695  0.7009  0.8169  0.2106
 5834TIP3    H139061   4.908   1.167   6.632  0.3717 -1.4541 -0.9832
 5834TIP3    H239062   4.758   1.176   6.653  0.5456 -0.1181 -0.1518
 5835TIP3   OH239063   4.658   0.025   0.728 -0.9729 -0.0004  0.4264
 5835TIP3    H139064   4.617   0.004   0.812 -1.2015  1.6320  0.7574
 5835TIP3    H239065   4.692   0.114   0.740  1.7216 -0.8747 -0.2024
 5836TIP3   OH239066   4.000   2.889   7.129 -0.8541  0.1768 -0.2017
 5836TIP3    H139067   4.086   2.859   7.101 -1.1370 -1.9516  0.9590
 5836TIP3    H239068   3.975   2.956   7.065  1.9108  1.3616 -0.1516
 5837TIP3   OH239069   4.243   1.102   7.866 -0.4918 -0.0467  0.4462
 5837TIP3    H139070   4.331   1.096   7.828 -0.7876  0.2778 -0.3039
 5837TIP3    H239071   4.255   1.076   7.957  0.3311 -0.3050  0.2762
 5838TIP3   OH239072   4.650   6.411   7.082 -0.5138  0.3986 -0.2835
 5838TIP3    H139073   4.634   6.450   7.168 -1.2209 -0.8420  0.1664
 5838TIP3    H239074   4.742   6.383   7.084 -0.3867  0.8300 -0.1247
 5839TIP3   OH239075   3.984   2.120   7.039 -0.2427 -0.2270 -0.3050
 5839TIP3    H139076   4.028   2.066   7.105  0.4227 -0.9885 -1.3362
 5839TIP3    H239077   3.898   2.080   7.029 -0.7321  0.5106  0.8200
 5840TIP3   OH239078   6.502   4.800   7.356 -0.3888 -0.0103 -0.0372
 5840TIP3    H139079   6.463   4.842   7.279 -0.6758  0.2175  0.2262
 5840TIP3    H239080   6.531   4.715   7.325  2.1306  1.1447 -1.1377
 5841TIP3   OH239081   1.250   3.433   0.033 -0.4229 -0.6347  0.1821
 5841TIP3    H139082   1.258   3.357   0.090 -1.5032 -0.5562  0.4537
 5841TIP3    H239083   1.268   3.508   0.090 -1.7961 -0.5355  0.5209
 5842TIP3   OH239084   4.162   0.573   2.940  0.1756 -0.6531 -0.0980
 5842TIP3    H139085   4.166   0.481   2.912  0.7300 -0.2011 -1.5813
 5842TIP3    H239086   4.251   0.594   2.967  0.3493 -0.2230 -0.9516
 5843TIP3   OH239087   6.052   0.009   8.056  0.2593  0.0008 -0.1618
 5843TIP3    H139088   6.061  -0.069   8.111  2.1254 -0.9069 -1.6318
 5843TIP3    H239089   6.091   0.079   8.107 -0.9578 -0.0910  0.9627
 5844TIP3   OH239090   3.026   5.292   1.627 -0.2863 -0.0307  0.0491
 5844TIP3    H139091   2.999   5.290   1.535 -0.8807  0.7593  0.1879
 5844TIP3    H239092   3.052   5.202   1.647 -0.6169 -0.3131 -0.7553
 5845TIP3   OH239093   0.197   4.580   0.876  0.0789  0.6859 -0.0880
 5845TIP3    H139094   0.172   4.562   0.966  0.2226  1.5326  0.1232
 5845TIP3    H239095   0.273   4.638   0.883  0.3050  0.4859 -0.7535
 5846TIP3   OH239096   4.537   1.466   1.654 -0.5195  0.2468  0.7743
 5846TIP3    H139097   4.629   1.457   1.679  0.2161  3.6208 -0.2115
 5846TIP3    H239098   4.512   1.553   1.686 -2.1561  1.0343 -2.2740
 5847TIP3   OH239099   1.708   6.503   0.921  0.5067 -0.6002  0.1419
 5847TIP3    H139100   1.657   6.432   0.883  0.2239  0.0114 -0.6451
 5847TIP3    H239101   1.791   6.463   0.946  1.3492 -0.7289 -2.6111
 5848TIP3   OH239102   5.955   0.216   6.772  0.0635 -0.0054  0.3543
 5848TIP3    H139103   5.904   0.262   6.705  1.3503  1.8018  0.5209
 5848TIP3    H239104   5.909   0.235   6.854  0.5232  0.9461  0.4075
 5849TIP3   OH239105   4.342   2.252   2.903  0.4484  0.0100  0.6167
 5849TIP3    H139106   4.250   2.273   2.919  0.0084 -2.2904  1.5215
 5849TIP3    H239107   4.388   2.288   2.979  0.5375  2.2675 -0.4345
 5850TIP3   OH239108   1.591   6.729   1.097 -0.7005  0.3014 -0.0490
 5850TIP3    H139109   1.592   6.662   1.029  0.5732  0.6683 -0.4262
 5850TIP3    H239110   1.601   6.680   1.179  0.6654  0.0250 -0.3504
 5851TIP3   OH239111   1.851   5.928   1.237  0.4957  0.4077  0.2977
 5851TIP3    H139112   1.855   5.846   1.188  1.1412  0.0510  0.9330
 5851TIP3    H239113   1.916   5.918   1.307 -0.9826  0.5777  1.7416
 5852TIP3   OH239114   5.860   5.265   0.413 -0.2774 -0.1721 -0.4792
 5852TIP3    H139115   5.817   5.221   0.339  0.6129 -1.2438 -0.3870
 5852TIP3    H239116   5.886   5.193   0.471  2.8447  0.2746 -1.1700
 5853TIP3   OH239117   4.065   1.580   7.877 -0.6798  0.6588  0.1397
 5853TIP3    H139118   4.014   1.595   7.956 -1.7416  1.9831 -0.7419
 5853TIP3    H239119   4.000   1.582   7.806  0.4344  1.0617 -0.8995
 5854TIP3   OH239120   4.699   5.488   2.081 -0.1313 -0.2235  0.2238
 5854TIP3    H139121   4.635   5.551   2.048  0.9188  0.6560 -0.1941
 5854TIP3    H239122   4.683   5.409   2.029 -0.5087  0.1690 -0.2750
 5855TIP3   OH239123   5.023   1.543   6.833 -0.2433 -0.5041 -0.3427
 5855TIP3    H139124   4.938   1.536   6.789  0.9593 -2.1372 -2.5893
 5855TIP3    H239125   5.066   1.460   6.816  1.3121 -0.2683  1.9501
 5856TIP3   OH239126   2.267   6.143   1.537 -0.4215  0.0438 -0.0478
 5856TIP3    H139127   2.359   6.122   1.553 -0.0188  1.5157 -0.2521
 5856TIP3    H239128   2.232   6.164   1.623 -0.0293  1.3809 -0.1900
 5857TIP3   OH239129   5.009   0.582   2.594 -0.1845  0.3964  0.3562
 5857TIP3    H139130   4.940   0.635   2.554  0.2044 -0.2748 -1.3019
 5857TIP3    H239131   4.967   0.499   2.616 -0.1463  0.3678  0.3223
 5858TIP3   OH239132   2.090   2.880   0.504  0.4120 -0.0883 -0.1348
 5858TIP3    H139133   2.125   2.956   0.456 -0.9203 -0.3520 -1.6186
 5858TIP3    H239134   2.075   2.913   0.592  1.4849  0.8758 -0.2783
 5859TIP3   OH239135   5.820   6.623   7.206 -0.2437 -0.2060 -0.3603
 5859TIP3    H139136   5.751   6.556   7.205 -1.3335  0.8158  1.2980
 5859TIP3    H239137   5.795   6.684   7.137 -2.2890  1.2888  1.5480
 5860TIP3   OH239138   6.006   5.032   0.017  0.4939 -0.6717  0.1777
 5860TIP3    H139139   6.046   4.947  -0.002  1.0612 -0.3376 -0.1439
 5860TIP3    H239140   5.931   5.037  -0.042 -0.0400 -1.3003  0.7808
 5861TIP3   OH239141   3.291   4.460   7.304 -0.4047 -0.3243  0.2913
 5861TIP3    H139142   3.363   4.441   7.243  0.7865  0.0147  1.5440
 5861TIP3    H239143   3.289   4.385   7.363 -0.0875  0.3315  1.1582
 5862TIP3   OH239144   1.392   2.227   1.893  0.0531  0.2342 -0.7102
 5862TIP3    H139145   1.454   2.300   1.899  1.7748 -1.1364 -0.9883
 5862TIP3    H239146   1.437   2.153   1.935 -1.7034 -0.6488 -0.2724
 5863TIP3   OH239147   6.221   5.764   0.288  0.5571  0.4789  1.0272
 5863TIP3    H139148   6.233   5.705   0.362 -0.7613 -1.2880 -0.0833
 5863TIP3    H239149   6.220   5.706   0.212  0.3961  2.0789 -0.2277
 5864TIP3   OH239150   1.927   5.123   7.778  0.6571  0.5575  0.5707
 5864TIP3    H139151   1.976   5.058   7.728  2.8118  1.9424  0.7460
 5864TIP3    H239152   1.890   5.074   7.851  0.2970 -0.8635 -0.5240
 5865TIP3   OH239153   3.620   5.750   0.832 -0.3289  0.5564  0.1832
 5865TIP3    H139154   3.548   5.717   0.780  0.2286  0.7185 -0.7259
 5865TIP3    H239155   3.600   5.725   0.922 -1.6302  0.8264 -0.0229
 5866TIP3   OH239156   6.397   6.269   6.667 -0.0901 -0.2112  0.2327
 5866TIP3    H139157   6.452   6.209   6.615  0.5815 -0.0515  0.7398
 5866TIP3    H239158   6.385   6.345   6.610  2.2283  0.7839  0.9603
 5867TIP3   OH239159   6.188   3.067   0.017  0.5601 -0.4702 -0.2755
 5867TIP3    H139160   6.095   3.054   0.004  0.7721 -1.9962 -0.4783
 5867TIP3    H239161   6.194   3.115   0.100 -0.4400  1.0942 -1.0799
 5868TIP3   OH239162   6.147   0.964   0.249 -0.6661  0.0759  0.3541
 5868TIP3    H139163   6.155   0.873   0.276 -2.9395 -0.2483  0.1039
 5868TIP3    H239164   6.145   0.961   0.154  1.1423  0.6247  0.2528
 5869TIP3   OH239165   2.226   5.504   0.688 -0.6291 -0.6195  0.5777
 5869TIP3    H139166   2.172   5.426   0.673 -1.2493 -0.0372 -0.2624
 5869TIP3    H239167   2.163   5.572   0.712 -0.7351  0.9246 -3.4457
 5870TIP3   OH239168   3.152   4.046   7.990 -0.1153 -0.0708  0.1545
 5870TIP3    H139169   3.169   4.026   7.898  0.5582 -1.1837  0.4948
 5870TIP3    H239170   3.111   4.132   7.989 -1.3597 -0.6489 -1.2791
 5871TIP3   OH239171   6.385   2.712   6.674 -0.4016  0.0553 -0.0851
 5871TIP3    H139172   6.461   2.765   6.650  0.3927 -0.7386  0.5896
 5871TIP3    H239173   6.327   2.718   6.598  0.4398  0.5072 -0.7109
 5872TIP3   OH239174   2.458   0.296   2.921  0.1048 -0.5003 -0.3432
 5872TIP3    H139175   2.514   0.283   2.845 -0.3176 -0.3868 -0.6792
 5872TIP3    H239176   2.431   0.387   2.915  0.3986 -0.3748  0.1748
 5873TIP3   OH239177   2.882   0.850   1.576  0.3290 -0.4563 -0.5386
 5873TIP3    H139178   2.809   0.894   1.619  2.5528  2.0491  0.9489
 5873TIP3    H239179   2.844   0.815   1.495 -2.1682  2.2069 -0.6834
 5874TIP3   OH239180   5.018   4.343   2.314  0.1866  0.2526 -0.2889
 5874TIP3    H139181   5.109   4.368   2.295 -0.1698  1.0658 -0.9646
 5874TIP3    H239182   5.026   4.269   2.374  1.3142 -0.7347 -1.6037
 5875TIP3   OH239183   6.480   5.007   8.212  0.2906  0.3507  0.6872
 5875TIP3    H139184   6.500   5.061   8.136  0.7787  0.7993  1.1300
 5875TIP3    H239185   6.487   5.066   8.287 -0.4293 -0.0244  1.0681
 5876TIP3   OH239186   4.283   2.179   1.413  0.3068 -0.1498 -0.0323
 5876TIP3    H139187   4.277   2.167   1.318 -1.3718  0.4004 -0.0217
 5876TIP3    H239188   4.237   2.261   1.430  0.5039 -0.2840  1.2804
 5877TIP3   OH239189   0.978   2.700   8.097 -0.2054  0.2508 -0.0492
 5877TIP3    H139190   1.059   2.649   8.089  0.0976  0.4407  1.6028
 5877TIP3    H239191   0.979   2.757   8.019  1.4309  0.4933  0.0987
 5878TIP3   OH239192   2.706   0.360   1.259  0.3035 -0.1755 -0.0091
 5878TIP3    H139193   2.795   0.394   1.247 -0.5521  2.2901  0.0891
 5878TIP3    H239194   2.691   0.364   1.354 -0.5198  1.1887 -0.1743
 5879TIP3   OH239195   5.474   5.112   1.530  0.0235  0.0997 -0.1154
 5879TIP3    H139196   5.512   5.152   1.609  1.3835 -2.1850  0.4954
 5879TIP3    H239197   5.532   5.038   1.511 -2.2175 -1.4910 -1.2394
 5880TIP3   OH239198   1.351   2.165   7.205 -0.1081 -0.4316  0.1956
 5880TIP3    H139199   1.322   2.256   7.193 -0.5896 -0.3627  1.6219
 5880TIP3    H239200   1.272   2.112   7.190  0.0778 -0.5896 -0.2376
 5881TIP3   OH239201   3.896   3.272   0.589 -0.8018 -0.2134  0.4694
 5881TIP3    H139202   3.868   3.363   0.599 -1.6683 -0.7129  3.6817
 5881TIP3    H239203   3.974   3.264   0.645  0.7340 -0.9565 -1.6326
 5882TIP3   OH239204   1.242   1.494   7.624 -0.3622 -0.3819 -0.1926
 5882TIP3    H139205   1.241   1.563   7.557  1.7186 -0.9238 -0.8478
 5882TIP3    H239206   1.295   1.531   7.695  0.7308 -1.2502 -0.5329
 5883TIP3   OH239207   0.980   2.355   6.712 -0.0396  0.4083  0.5315
 5883TIP3    H139208   0.998   2.364   6.619  0.0425  0.4199  0.5493
 5883TIP3    H239209   1.045   2.293   6.745 -1.2409 -1.0798  0.2154
 5884TIP3   OH239210   3.905   6.377   7.532 -0.0769  0.2232 -0.5548
 5884TIP3    H139211   3.989   6.358   7.490  0.0802  0.6874 -0.4596
 5884TIP3    H239212   3.904   6.320   7.609 -0.1522 -0.2755 -0.9195
 5885TIP3   OH239213   4.870   2.008   7.366  0.8389  0.6108 -0.5935
 5885TIP3    H139214   4.778   2.032   7.360  0.8505  0.7296 -0.3324
 5885TIP3    H239215   4.917   2.087   7.339  0.8640  0.5469 -0.7366
 5886TIP3   OH239216   3.627   6.710   7.732  0.7898  0.6488  0.0178
 5886TIP3    H139217   3.607   6.627   7.775 -0.8940  1.5851  1.1695
 5886TIP3    H239218   3.710   6.738   7.769  0.0501  0.7481  1.6852
 5887TIP3   OH239219   4.244   6.860   0.946  0.2921 -0.0421  0.2262
 5887TIP3    H139220   4.328   6.906   0.950 -0.4829  1.5184 -0.5629
 5887TIP3    H239221   4.230   6.842   0.853 -0.7702  0.8257  0.1797
 5888TIP3   OH239222   0.185   2.797   1.340 -0.0725 -0.2301  0.2810
 5888TIP3    H139223   0.280   2.786   1.331 -0.2398 -1.2773 -0.4885
 5888TIP3    H239224   0.167   2.783   1.433  0.5906  0.6044  0.5438
 5889TIP3   OH239225   4.444   4.899   2.673 -0.1770 -0.4801  0.4861
 5889TIP3    H139226   4.519   4.925   2.726  1.8282 -2.2409 -1.2618
 5889TIP3    H239227   4.481   4.886   2.585 -2.8256 -0.1086 -0.7651
 5890TIP3   OH239228   2.510   2.474   0.820  0.5508 -0.7254  0.1475
 5890TIP3    H139229   2.574   2.423   0.869  0.0957 -0.1917  1.3455
 5890TIP3    H239230   2.558   2.552   0.791  0.9625 -1.3002 -0.7424
 5891TIP3   OH239231   6.869   2.847   0.907 -0.5662  0.2382 -0.5934
 5891TIP3    H139232   6.912   2.907   0.968 -1.0826 -0.0799  0.0934
 5891TIP3    H239233   6.934   2.833   0.838 -0.0751  0.8128 -0.2599
 5892TIP3   OH239234   5.781   1.973   7.671 -0.1429  0.2540 -0.7459
 5892TIP3    H139235   5.830   2.004   7.595 -0.3991  0.1667 -0.9487
 5892TIP3    H239236   5.757   2.053   7.718  0.0546  0.3061 -0.7308
 5893TIP3   OH239237   5.266   2.485   1.095 -0.0943  0.0473 -0.6176
 5893TIP3    H139238   5.310   2.543   1.033  0.1063  1.8984  1.1463
 5893TIP3    H239239   5.300   2.398   1.075  1.4737  0.8784 -1.7651
 5894TIP3   OH239240   5.739   0.941   1.552 -0.0854  0.2370  0.1291
 5894TIP3    H139241   5.718   0.877   1.484 -1.4814  0.7799  0.0232
 5894TIP3    H239242   5.765   0.888   1.627  0.2836 -0.4057 -0.4456
 5895TIP3   OH239243   5.855   4.115   2.333  0.3154  0.0783 -0.5207
 5895TIP3    H139244   5.930   4.162   2.296 -0.0815  1.7266  0.6890
 5895TIP3    H239245   5.888   4.026   2.346  2.3796  0.9653  0.7887
 5896TIP3   OH239246   5.879   3.841   2.308 -0.2847 -0.1166 -0.3977
 5896TIP3    H139247   5.903   3.795   2.227  1.6709 -1.7169  0.9737
 5896TIP3    H239248   5.827   3.777   2.356  2.5194 -1.1260  1.5670
 5897TIP3   OH239249   1.497   3.499   7.692 -0.7285 -0.2293 -0.0090
 5897TIP3    H139250   1.562   3.545   7.744 -0.8703  0.8012 -0.7220
 5897TIP3    H239251   1.517   3.522   7.601 -0.9445 -1.4004 -0.3836
 5898TIP3   OH239252   4.089   4.859   0.865  0.3433 -0.1614 -0.0595
 5898TIP3    H139253   4.007   4.902   0.890  0.2936  0.7260 -1.6507
 5898TIP3    H239254   4.065   4.804   0.790  0.4822 -2.7580  1.6793
 5899TIP3   OH239255   1.691   6.316   1.980 -0.3493 -0.2976  0.3526
 5899TIP3    H139256   1.785   6.300   1.976 -0.6683 -2.2152 -0.7212
 5899TIP3    H239257   1.658   6.286   1.896 -1.9366  0.4320  0.6704
 5900TIP3   OH239258   5.830   4.238   0.496 -0.4309 -0.2645 -0.0489
 5900TIP3    H139259   5.820   4.149   0.462 -0.6334 -0.0512 -0.5620
 5900TIP3    H239260   5.747   4.256   0.540 -0.1468 -0.5624  0.6149
 5901TIP3   OH239261   6.427   3.109   1.118  0.2760  0.5009  0.4412
 5901TIP3    H139262   6.515   3.076   1.099 -0.1249 -0.6043  0.4507
 5901TIP3    H239263   6.425   3.119   1.213 -0.2418 -1.3863  0.6561
 5902TIP3   OH239264   1.345   2.788   0.753 -0.2334 -0.3645 -0.4224
 5902TIP3    H139265   1.341   2.698   0.721  0.5795 -0.3163 -0.6817
 5902TIP3    H239266   1.254   2.811   0.772 -0.3028 -1.8160  1.2898
 5903TIP3   OH239267   3.231   5.118   1.832 -0.5696 -0.4994 -0.5286
 5903TIP3    H139268   3.171   5.051   1.800 -2.0107 -0.1619  1.3480
 5903TIP3    H239269   3.177   5.196   1.842  1.1318  1.1555 -2.9793
 5904TIP3   OH239270   4.624   2.791   1.615  0.0356  0.3023  0.4778
 5904TIP3    H139271   4.623   2.848   1.538 -0.3302  1.6942  1.4893
 5904TIP3    H239272   4.572   2.714   1.589  1.3594 -0.0716 -1.2391
 5905TIP3   OH239273   6.898   6.321   8.047 -0.2469 -0.5068 -0.7261
 5905TIP3    H139274   6.805   6.344   8.051 -0.6788 -2.2528  0.7500
 5905TIP3    H239275   6.925   6.317   8.139  1.7273  1.4665 -1.1533
 5906TIP3   OH239276   2.910   6.356   6.500 -0.2871  1.4787  0.4223
 5906TIP3    H139277   2.843   6.362   6.431 -0.0124 -1.8957 -0.3448
 5906TIP3    H239278   2.887   6.276   6.548  2.9528  0.2801  0.2702
 5907TIP3   OH239279   3.261   6.783   1.361 -0.0394 -0.1111  0.1030
 5907TIP3    H139280   3.178   6.792   1.408 -0.1439  0.3717 -0.1632
 5907TIP3    H239281   3.312   6.859   1.390 -0.3263  0.5296 -0.9987
 5908TIP3   OH239282   6.587   5.309   0.727 -0.6327 -0.6509  0.2080
 5908TIP3    H139283   6.663   5.260   0.696  0.1549 -0.2469  1.4445
 5908TIP3    H239284   6.588   5.299   0.822 -2.0733 -0.5532  0.2586
 5909TIP3   OH239285   3.685   4.336   7.886 -0.3232 -0.3251  0.1342
 5909TIP3    H139286   3.607   4.297   7.927 -0.4998  1.6444  1.8349
 5909TIP3    H239287   3.744   4.353   7.959  0.6758  0.4782 -0.8298
 5910TIP3   OH239288   1.264   1.851   0.458 -0.0443  0.0013  0.5417
 5910TIP3    H139289   1.260   1.766   0.415 -2.0752  0.7662 -0.9597
 5910TIP3    H239290   1.176   1.864   0.495  0.3934  1.2073  1.2233
 5911TIP3   OH239291   3.930   2.138   2.226 -0.3397  0.2485  0.2890
 5911TIP3    H139292   3.910   2.232   2.216  2.9254  1.0256 -0.0099
 5911TIP3    H239293   3.942   2.126   2.320 -0.6362  0.1382  0.3145
 5912TIP3   OH239294   6.132   0.613   2.067 -0.2787 -0.5533 -0.3848
 5912TIP3    H139295   6.140   0.538   2.008  0.2028  0.0432 -1.0942
 5912TIP3    H239296   6.222   0.645   2.077 -0.2798 -0.9471  1.0880
 5913TIP3   OH239297   5.578   1.486   1.108  0.1373  0.2184 -0.6676
 5913TIP3    H139298   5.517   1.545   1.063  1.4991  0.0245 -2.9019
 5913TIP3    H239299   5.626   1.542   1.168  0.2885  1.0745 -1.5721
 5914TIP3   OH239300   0.811   1.189   0.261 -0.0875  0.0358  0.0413
 5914TIP3    H139301   0.741   1.204   0.324 -0.7395 -1.5970 -0.2419
 5914TIP3    H239302   0.769   1.141   0.190  0.3628  2.7387 -2.2269
 5915TIP3   OH239303   6.479   1.143   0.244 -0.5582  0.4855  0.4892
 5915TIP3    H139304   6.475   1.052   0.270 -2.7525  0.3458 -0.1021
 5915TIP3    H239305   6.457   1.142   0.150 -1.0353  1.6386  0.5707
 5916TIP3   OH239306   6.849   5.941   7.770  0.5022 -0.3380  0.2255
 5916TIP3    H139307   6.798   5.865   7.798  0.6016 -0.0778  1.1361
 5916TIP3    H239308   6.847   5.937   7.674  0.5935 -1.5491  0.2551
 5917TIP3   OH239309   1.398   2.375   8.122 -0.1606 -0.3493  0.4932
 5917TIP3    H139310   1.387   2.282   8.099  1.2321 -0.8591  1.7879
 5917TIP3    H239311   1.339   2.421   8.061 -0.3743 -2.0129 -0.6291
 5918TIP3   OH239312   6.321   1.806   1.731 -0.3880 -0.0368  0.5260
 5918TIP3    H139313   6.269   1.884   1.752 -0.8780 -0.9190  2.8180
 5918TIP3    H239314   6.258   1.743   1.696 -0.1476  0.2117 -0.4039
 5919TIP3   OH239315   4.367   5.254   0.364 -0.0776 -0.4851  0.5323
 5919TIP3    H139316   4.433   5.287   0.426  1.0051 -0.3963 -0.6145
 5919TIP3    H239317   4.400   5.281   0.278 -0.7092 -1.9550 -0.2124
 5920TIP3   OH239318   3.920   1.903   3.212  0.2125  0.3264  0.0923
 5920TIP3    H139319   3.945   1.825   3.261 -0.1355  0.0553 -0.1517
 5920TIP3    H239320   3.986   1.910   3.143  0.8152  0.8206  0.7045
 5921TIP3   OH239321   3.340   1.680   1.474  0.0849 -0.4791 -0.2485
 5921TIP3    H139322   3.365   1.748   1.537 -1.3106 -0.1494 -0.0079
 5921TIP3    H239323   3.305   1.609   1.528  1.2069 -1.2550 -0.5215
 5922TIP3   OH239324   4.293   4.647   2.122 -0.3934 -0.1237 -0.1428
 5922TIP3    H139325   4.367   4.680   2.071  0.3370  0.2019  1.0633
 5922TIP3    H239326   4.253   4.726   2.159 -0.0437 -0.4124  0.9021
 5923TIP3   OH239327   2.563   2.694   7.600  0.6670 -0.9372  0.0805
 5923TIP3    H139328   2.657   2.678   7.609  0.9167  1.1946  1.8021
 5923TIP3    H239329   2.534   2.722   7.686 -1.4127 -0.7465 -0.6190
 5924TIP3   OH239330   6.678   6.509   0.057 -0.1419 -0.8948 -0.5935
 5924TIP3    H139331   6.654   6.418   0.077 -1.5604 -0.5113 -0.4469
 5924TIP3    H239332   6.709   6.506  -0.034 -0.0008 -1.5630 -0.5265
 5925TIP3   OH239333   4.648   5.046   7.605  0.1160 -0.3036  0.1759
 5925TIP3    H139334   4.602   5.005   7.679  0.4391 -1.5778 -0.3120
 5925TIP3    H239335   4.741   5.034   7.624  0.2217 -2.2128 -1.2327
 5926TIP3   OH239336   1.373   4.380   0.827  0.3081 -0.0327 -0.4214
 5926TIP3    H139337   1.447   4.423   0.869 -0.0888  2.2156 -1.8450
 5926TIP3    H239338   1.330   4.449   0.777 -1.6953 -1.6605 -1.1148
 5927TIP3   OH239339   3.491   3.083   0.238  0.1609 -0.0861  1.1123
 5927TIP3    H139340   3.485   3.007   0.181 -0.9957 -1.3787  2.8631
 5927TIP3    H239341   3.550   3.057   0.308 -1.0053  0.2211  2.2616
 5928TIP3   OH239342   4.219   1.667   7.111 -0.0071  0.1164 -0.7225
 5928TIP3    H139343   4.163   1.616   7.052 -0.5776 -1.2607  0.9124
 5928TIP3    H239344   4.185   1.756   7.106 -1.1150 -0.3203 -1.1935
 5929TIP3   OH239345   4.268   4.803   2.482 -0.2033 -0.4722 -0.6080
 5929TIP3    H139346   4.279   4.819   2.576 -0.7945 -0.4948 -0.5286
 5929TIP3    H239347   4.345   4.843   2.441  0.0086 -0.3774 -0.1226
 5930TIP3   OH239348   0.523   1.846   0.478 -0.3970  0.0951 -0.6227
 5930TIP3    H139349   0.455   1.897   0.521 -1.0051 -0.6782 -0.6371
 5930TIP3    H239350   0.560   1.905   0.413 -1.3715  0.3931 -0.9288
 5931TIP3   OH239351   5.485   3.449   7.101  0.1626 -0.9319  0.0384
 5931TIP3    H139352   5.483   3.474   7.009 -0.5876 -0.4874  0.1632
 5931TIP3    H239353   5.541   3.372   7.104 -0.7453 -1.6643 -0.9741
 5932TIP3   OH239354   3.407   2.648   6.418 -0.2009 -0.1379  0.6479
 5932TIP3    H139355   3.345   2.715   6.388 -0.3197 -0.6371 -0.2543
 5932TIP3    H239356   3.486   2.697   6.439 -0.9401  0.5270  1.9601
 5933TIP3   OH239357   0.646   6.653   7.696 -0.1456  0.1109  0.7967
 5933TIP3    H139358   0.654   6.748   7.686 -1.1875  0.1234 -0.2015
 5933TIP3    H239359   0.553   6.636   7.679  0.3105 -1.2463 -0.5014
 5934TIP3   OH239360   1.087   1.119   7.162 -0.0865  0.2339  0.0062
 5934TIP3    H139361   1.097   1.050   7.228 -0.7859 -0.3723 -0.5085
 5934TIP3    H239362   1.175   1.130   7.125 -0.3556 -2.0374 -1.5144
 5935TIP3   OH239363   1.330   3.195   0.146 -0.4393  0.3349 -0.5482
 5935TIP3    H139364   1.298   3.105   0.137 -0.2780  0.3463 -1.2694
 5935TIP3    H239365   1.385   3.193   0.224 -0.9435 -0.0422 -0.1938
 5936TIP3   OH239366   2.180   2.530   1.641  0.0468  0.5866  0.0345
 5936TIP3    H139367   2.235   2.543   1.564 -1.4282  0.6397 -1.0507
 5936TIP3    H239368   2.160   2.618   1.672  0.4938  0.5682  0.3947
 5937TIP3   OH239369   3.879   4.786   1.486 -0.2697  0.1899 -0.5774
 5937TIP3    H139370   3.911   4.709   1.532 -2.5835  0.0638  0.9730
 5937TIP3    H239371   3.905   4.772   1.395  4.7007  0.5683  0.5210
 5938TIP3   OH239372   5.417   5.727   0.627  0.0221  0.7805 -0.4320
 5938TIP3    H139373   5.506   5.691   0.633 -1.0021 -2.5296 -2.4346
 5938TIP3    H239374   5.424   5.813   0.668  4.1321  0.6995 -0.4662
 5939TIP3   OH239375   0.444   4.075   1.508  0.0608  0.6298 -0.6150
 5939TIP3    H139376   0.392   4.023   1.568  0.9130  0.0329 -0.3795
 5939TIP3    H239377   0.410   4.164   1.518 -0.3227  0.4024  0.1768
 5940TIP3   OH239378   5.245   5.213   7.733  0.0613  0.2690  0.4496
 5940TIP3    H139379   5.324   5.261   7.711 -1.1631  1.0032 -2.9050
 5940TIP3    H239380   5.184   5.280   7.765 -0.7775  0.6044 -1.7268
 5941TIP3   OH239381   0.279   0.256   6.788 -0.0480 -0.1903 -0.3731
 5941TIP3    H139382   0.351   0.300   6.833  0.5860  0.3708 -1.8690
 5941TIP3    H239383   0.296   0.163   6.799  1.9449 -0.1301 -2.1433
 5942TIP3   OH239384   3.426   6.711   1.917 -0.1158  0.4579  0.0942
 5942TIP3    H139385   3.501   6.669   1.960 -3.4894 -2.2429  4.2434
 5942TIP3    H239386   3.428   6.678   1.827  2.4517 -1.2379  0.6700
 5943TIP3   OH239387   5.987   0.012   2.446  0.0013 -0.3172 -0.0277
 5943TIP3    H139388   6.071  -0.024   2.476  1.0764  0.6704 -1.7005
 5943TIP3    H239389   5.999   0.107   2.447 -1.3362 -0.1270  0.3068
 5944TIP3   OH239390   5.406   5.840   8.271  0.0062  0.1906 -0.2900
 5944TIP3    H139391   5.501   5.850   8.279 -0.0026  2.0400 -1.8603
 5944TIP3    H239392   5.393   5.745   8.265  1.6609 -0.1365  0.6990
 5945TIP3   OH239393   6.964   4.619   8.024 -0.2796 -0.1250 -0.1299
 5945TIP3    H139394   6.886   4.596   7.973  0.1291 -1.9396  0.0080
 5945TIP3    H239395   7.025   4.547   8.010  2.1875  2.0976 -1.7329
 5946TIP3   OH239396   6.306   6.529   2.196 -0.4375  0.2577  0.8341
 5946TIP3    H139397   6.335   6.493   2.280  1.2101  2.4639  1.3177
 5946TIP3    H239398   6.386   6.538   2.145 -1.2181  0.3819 -0.4162
 5947TIP3   OH239399   0.115   6.032   0.313  0.0077 -0.3765 -0.1357
 5947TIP3    H139400   0.127   6.037   0.218 -0.4267 -0.7721 -0.2149
 5947TIP3    H239401   0.156   5.949   0.338  0.0547 -0.3092  0.0140
 5948TIP3   OH239402   1.142   3.938   6.888  0.0658 -0.2122 -0.8022
 5948TIP3    H139403   1.094   3.856   6.900 -0.0237 -0.2097 -1.1397
 5948TIP3    H239404   1.106   3.997   6.955  1.1868 -0.9028  0.4754
 5949TIP3   OH239405   1.295   3.790   0.161 -0.0934  0.0111  0.1372
 5949TIP3    H139406   1.351   3.861   0.192  0.8299 -0.3636 -0.6035
 5949TIP3    H239407   1.206   3.818   0.183  0.4218  0.1205  2.3891
 5950TIP3   OH239408   0.617   2.397   8.138  0.1949 -0.0325  0.5146
 5950TIP3    H139409   0.674   2.473   8.135  0.2817 -0.1043 -2.0673
 5950TIP3    H239410   0.675   2.323   8.153  0.6697  0.0167 -0.9739
 5951TIP3   OH239411   5.423   1.054   0.897 -0.1192  0.8060  0.4091
 5951TIP3    H139412   5.497   1.059   0.837  0.0709 -0.0505  0.5604
 5951TIP3    H239413   5.461   1.028   0.981 -0.6819 -0.4426  0.2917
 5952TIP3   OH239414   2.670   5.637   1.353  0.5124  0.1037 -0.7036
 5952TIP3    H139415   2.726   5.659   1.278  0.9375 -2.2831 -1.1867
 5952TIP3    H239416   2.581   5.641   1.318  0.5837  0.8041 -0.8160
 5953TIP3   OH239417   2.828   0.054   8.296  0.3213 -0.1413 -0.0293
 5953TIP3    H139418   2.868  -0.000   8.228  1.2474 -0.2397  0.5742
 5953TIP3    H239419   2.883   0.040   8.373  0.1251  1.0683  0.3488
 5954TIP3   OH239420   2.082   3.495   0.916 -0.1918 -0.0683  0.0229
 5954TIP3    H139421   2.115   3.582   0.940 -0.6741  0.4431 -1.1337
 5954TIP3    H239422   2.127   3.435   0.976  0.1767  0.9690  0.8024
 5955TIP3   OH239423   6.984   5.195   8.040  0.3088  0.1005  0.9386
 5955TIP3    H139424   6.979   5.210   7.946  1.6873  2.3329  1.1688
 5955TIP3    H239425   6.955   5.277   8.079  2.9794  0.4514  2.4032
 5956TIP3   OH239426   1.903   4.497   2.170  0.0045  0.2302 -0.1389
 5956TIP3    H139427   1.931   4.553   2.097 -1.6122  0.6881 -0.4422
 5956TIP3    H239428   1.867   4.420   2.128 -0.5952  0.3323  0.1857
 5957TIP3   OH239429   6.155   3.460   1.673 -0.9932  0.3665  0.3661
 5957TIP3    H139430   6.196   3.512   1.604 -1.4366 -0.0220 -0.1935
 5957TIP3    H239431   6.106   3.392   1.627  0.0605 -0.9464  1.0846
 5958TIP3   OH239432   6.102   3.347   8.027 -0.2346  0.3165  0.0865
 5958TIP3    H139433   6.156   3.383   8.097 -1.4925  1.4643  0.5103
 5958TIP3    H239434   6.109   3.411   7.956 -0.9632  0.4284  0.1107
 5959TIP3   OH239435   1.238   1.239   0.812 -0.0990 -0.4498 -0.2014
 5959TIP3    H139436   1.167   1.272   0.757 -0.0197 -1.1015 -0.7146
 5959TIP3    H239437   1.317   1.253   0.758  0.3208  1.2227  0.7696
 5960TIP3   OH239438   5.090   1.991   1.089  0.1660  0.2018 -0.1255
 5960TIP3    H139439   5.158   2.055   1.067  3.2346 -2.5757  0.4596
 5960TIP3    H239440   5.040   2.032   1.160  0.4259  2.7941 -1.3173
 5961TIP3   OH239441   4.659   3.134   7.026 -0.1329  0.2626  0.1796
 5961TIP3    H139442   4.583   3.079   7.044  0.0557 -0.3940 -0.8943
 5961TIP3    H239443   4.690   3.104   6.941  1.0402  0.8469  0.3774
 5962TIP3   OH239444   0.120   6.533   2.080  0.7384 -0.1157 -0.1850
 5962TIP3    H139445   0.161   6.448   2.096 -0.6564 -0.6712  0.6184
 5962TIP3    H239446   0.146   6.587   2.155  2.0900  0.3810 -0.9766
 5963TIP3   OH239447   6.137   2.021   1.812 -1.0527 -0.0881 -0.7908
 5963TIP3    H139448   6.178   2.099   1.774 -1.4290  0.8097  0.5889
 5963TIP3    H239449   6.043   2.041   1.812 -1.1646 -0.5980 -0.5323
 5964TIP3   OH239450   4.340   1.815   2.718  0.1012 -0.6243  0.0181
 5964TIP3    H139451   4.302   1.903   2.713 -0.9016 -1.1092 -1.8654
 5964TIP3    H239452   4.283   1.768   2.779  0.5476 -0.0278  0.9120
 5965TIP3   OH239453   5.257   0.227   1.223  0.5188  0.5146  0.4089
 5965TIP3    H139454   5.226   0.139   1.203  1.0765  0.3063  0.4354
 5965TIP3    H239455   5.273   0.226   1.318  0.8105  0.5543  0.3595
 5966TIP3   OH239456   3.472   5.555   2.723 -0.0168  0.0138 -0.2951
 5966TIP3    H139457   3.565   5.564   2.702 -0.1088 -1.1030 -1.3473
 5966TIP3    H239458   3.470   5.503   2.804  0.2837  1.2178  0.5029
 5967TIP3   OH239459   1.622   2.409   7.312 -0.4545  0.0960  0.0354
 5967TIP3    H139460   1.528   2.415   7.293 -0.5074  1.4368  0.6293
 5967TIP3    H239461   1.626   2.384   7.404 -0.2306  0.8748  0.2378
 5968TIP3   OH239462   4.271   6.680   0.734  0.1177  0.3756 -0.2618
 5968TIP3    H139463   4.342   6.647   0.789  0.4119 -0.7028 -1.2636
 5968TIP3    H239464   4.220   6.602   0.711 -1.1175  1.0626  0.0289
 5969TIP3   OH239465   5.989   5.997   2.807  0.6520  0.4393  0.1242
 5969TIP3    H139466   5.907   6.019   2.762  0.5863  2.4634  1.1284
 5969TIP3    H239467   6.053   5.984   2.737  0.3103  2.4658 -0.6246
 5970TIP3   OH239468   2.844   2.142   0.431  0.0702 -0.0033  0.3429
 5970TIP3    H139469   2.754   2.112   0.414  0.0547  0.8543 -1.3213
 5970TIP3    H239470   2.834   2.207   0.500 -0.6722  0.4200 -0.1402
 5971TIP3   OH239471   2.178   6.601   2.019  0.7991 -0.4658 -0.1962
 5971TIP3    H139472   2.252   6.583   2.077  1.0167  3.3131  0.9805
 5971TIP3    H239473   2.218   6.638   1.940  0.3519  3.0706  1.0460
 5972TIP3   OH239474   2.841   6.347   1.885 -0.1979  0.0063  0.6372
 5972TIP3    H139475   2.746   6.355   1.895 -0.1643  1.7005 -0.1208
 5972TIP3    H239476   2.859   6.382   1.798  1.0883 -0.6631  0.6156
 5973TIP3   OH239477   0.819   4.740   6.905 -0.2953 -0.5769  0.0168
 5973TIP3    H139478   0.896   4.695   6.941  0.7432  0.9083 -0.2817
 5973TIP3    H239479   0.816   4.823   6.951 -1.0737 -0.1519 -0.7790
 5974TIP3   OH239480   5.511   4.669   1.880  0.5673 -0.4069  0.0894
 5974TIP3    H139481   5.434   4.712   1.843  0.4167  0.3458  1.2393
 5974TIP3    H239482   5.569   4.657   1.806 -0.6909 -1.0881 -0.8310
 5975TIP3   OH239483   5.895   1.700   0.690  0.1352  0.4383  0.3666
 5975TIP3    H139484   5.885   1.725   0.781 -1.3855  2.9394 -0.3871
 5975TIP3    H239485   5.869   1.608   0.687  0.6894  0.1632  2.4894
 5976TIP3   OH239486   4.918   2.293   1.928 -0.0147  0.2125 -0.2023
 5976TIP3    H139487   4.858   2.367   1.929  1.3099  1.3133 -0.1303
 5976TIP3    H239488   4.991   2.321   1.874  0.5131 -1.0551 -0.1941
 5977TIP3   OH239489   2.871   2.347   0.599 -0.0769 -0.3509 -0.4929
 5977TIP3    H139490   2.845   2.334   0.690 -2.0872 -0.9371 -1.1098
 5977TIP3    H239491   2.863   2.441   0.585 -2.4201 -0.5253 -0.7562
 5978TIP3   OH239492   1.211   6.703   0.084 -0.9022  0.2520  0.5596
 5978TIP3    H139493   1.131   6.675   0.128  0.2110  0.6410  2.9832
 5978TIP3    H239494   1.276   6.709   0.154  0.7017  2.0356 -0.9758
 5979TIP3   OH239495   0.064   5.181   7.761  0.2807  0.3325  0.5446
 5979TIP3    H139496   0.159   5.172   7.768  0.2560  0.3933  1.0471
 5979TIP3    H239497   0.035   5.100   7.719  0.3962 -0.4624  1.9202
 5980TIP3   OH239498   1.846   4.585   6.974  0.1286  0.1729 -0.6549
 5980TIP3    H139499   1.808   4.632   7.049  2.0050  0.5368  0.1490
 5980TIP3    H239500   1.771   4.553   6.924 -1.2386  2.5488 -0.2833
 5981TIP3   OH239501   1.312   0.359   7.822  0.0518 -0.5702  0.0780
 5981TIP3    H139502   1.336   0.419   7.892 -0.3199 -0.2521 -0.0655
 5981TIP3    H239503   1.376   0.377   7.752 -0.2759 -0.0880 -0.1032
 5982TIP3   OH239504   1.549   4.121   0.743 -0.8470  0.7210  0.0065
 5982TIP3    H139505   1.516   4.139   0.654 -2.1460 -0.3276  0.2376
 5982TIP3    H239506   1.642   4.140   0.738 -0.1377 -2.4924 -2.5698
 5983TIP3   OH239507   4.857   1.012   8.270  0.0672 -0.0846  0.1827
 5983TIP3    H139508   4.790   1.020   8.202  1.0940 -1.0269 -0.9936
 5983TIP3    H239509   4.836   1.080   8.333 -1.2893  0.4197 -0.7723
 5984TIP3   OH239510   5.961   0.008   1.959  0.2486  0.4233 -0.2292
 5984TIP3    H139511   6.011   0.062   2.020 -1.2502 -0.5611  1.9711
 5984TIP3    H239512   5.879   0.055   1.946 -0.2331 -0.3113  0.0841
 5985TIP3   OH239513   0.545   0.256   8.027  0.4433 -0.5063  0.1517
 5985TIP3    H139514   0.482   0.235   7.958  0.8788 -2.9081  0.4128
 5985TIP3    H239515   0.529   0.190   8.094  0.3776  1.4657  2.1821
 5986TIP3   OH239516   6.241   2.465   6.712  0.0499  0.2148 -0.0666
 5986TIP3    H139517   6.312   2.412   6.674  0.3678  1.8748 -1.9403
 5986TIP3    H239518   6.286   2.540   6.752 -0.5563  0.4255  0.2349
 5987TIP3   OH239519   4.539   3.911   7.467 -0.4259  0.0550  0.2737
 5987TIP3    H139520   4.577   3.944   7.548  0.7238  0.0739 -0.2553
 5987TIP3    H239521   4.460   3.865   7.494 -0.8561  1.3365  1.2447
 5988TIP3   OH239522   5.441   4.317   1.423 -0.4714  0.4844 -0.1058
 5988TIP3    H139523   5.468   4.379   1.491  1.1566 -1.2595  0.9265
 5988TIP3    H239524   5.452   4.231   1.463 -2.5627 -0.5245 -1.5277
 5989TIP3   OH239525   4.183   0.929   2.786  0.1104 -0.0935  0.0787
 5989TIP3    H139526   4.142   1.008   2.751  0.7859  0.1292 -0.2360
 5989TIP3    H239527   4.166   0.932   2.880  2.6801  2.0534  0.5954
 5990TIP3   OH239528   6.753   0.173   0.816 -0.3274  0.3563  0.3213
 5990TIP3    H139529   6.748   0.133   0.902  3.8228 -0.8509  0.2369
 5990TIP3    H239530   6.774   0.101   0.757 -0.9654  1.4778 -1.3394
 5991TIP3   OH239531   3.030   2.948   7.487  0.1243 -0.2808 -0.1795
 5991TIP3    H139532   2.935   2.938   7.483  0.1329 -1.0070  1.0000
 5991TIP3    H239533   3.065   2.864   7.458  0.3923 -0.1983 -0.1007
 5992TIP3   OH239534   3.766   3.454   1.650 -0.2461 -0.1423 -0.2753
 5992TIP3    H139535   3.764   3.446   1.745 -0.6986  0.8106 -0.1845
 5992TIP3    H239536   3.708   3.528   1.632  1.4074  0.9979 -1.1330
 5993TIP3   OH239537   2.552   6.676   0.946 -0.1348  0.1227 -0.3882
 5993TIP3    H139538   2.532   6.737   1.016 -0.8004  1.3499 -1.5904
 5993TIP3    H239539   2.565   6.731   0.869 -2.5385 -1.2707 -1.9503
 5994TIP3   OH239540   0.608   5.406   1.216  0.1665 -0.1506 -0.0369
 5994TIP3    H139541   0.518   5.427   1.189 -0.2583 -0.6379  0.9375
 5994TIP3    H239542   0.607   5.311   1.231  0.8639 -0.1712 -0.0926
 5995TIP3   OH239543   2.845   6.084   2.011  0.7986 -0.3129 -0.0346
 5995TIP3    H139544   2.886   6.158   1.967 -0.8878  0.5114 -0.2970
 5995TIP3    H239545   2.844   6.015   1.944 -0.2222  0.3844 -0.7711
 5996TIP3   OH239546   6.047   2.689   7.768  0.1322 -0.3628 -0.1256
 5996TIP3    H139547   6.072   2.696   7.676  0.3793 -0.7929 -0.0955
 5996TIP3    H239548   6.008   2.774   7.789  0.3553 -0.1530 -0.5427
 5997TIP3   OH239549   2.576   7.000   0.393 -0.2376  0.7319 -0.1374
 5997TIP3    H139550   2.592   6.915   0.432 -1.1112 -0.4345 -2.1406
 5997TIP3    H239551   2.613   6.993   0.305 -1.5677  1.9213 -0.8351
 5998TIP3   OH239552   1.320   3.031   1.394  0.5377  0.1550 -0.1668
 5998TIP3    H139553   1.278   3.094   1.452  0.6591 -0.0279  0.1196
 5998TIP3    H239554   1.407   3.068   1.377  0.2405  0.5723 -0.8212
 5999TIP3   OH239555   2.792   0.232   1.775 -0.1583  0.2825  0.3280
 5999TIP3    H139556   2.727   0.243   1.844  0.2800  0.2591  0.7567
 5999TIP3    H239557   2.867   0.285   1.805  0.8038 -1.3133  0.8670
 6000TIP3   OH239558   3.331   3.103   0.481  0.1271 -0.2849  0.2294
 6000TIP3    H139559   3.375   3.061   0.407 -0.9893 -0.2568 -0.4773
 6000TIP3    H239560   3.245   3.127   0.447  1.0025  3.5453  0.2768
 6001TIP3   OH239561   0.059   2.872   0.735 -0.1310 -0.0919  0.3947
 6001TIP3    H139562   0.134   2.895   0.789  0.0044  0.3707  0.0145
 6001TIP3    H239563   0.061   2.934   0.662 -0.8616 -0.0934  0.3608
 6002TIP3   OH239564   5.186   4.582   8.097 -0.1468 -0.1647  0.0993
 6002TIP3    H139565   5.135   4.501   8.099 -1.1766  0.4558  1.9246
 6002TIP3    H239566   5.126   4.647   8.060  0.5331 -0.1407 -0.9752
 6003TIP3   OH239567   6.472   6.154   6.442  0.1348  0.0655 -0.0484
 6003TIP3    H139568   6.517   6.104   6.374  0.2378  0.5034 -0.3048
 6003TIP3    H239569   6.444   6.234   6.398  0.7960  0.6565  0.5856
 6004TIP3   OH239570   6.354   1.475   8.204  0.4193  0.2843  0.1763
 6004TIP3    H139571   6.443   1.440   8.196  0.0573 -0.7663  0.6328
 6004TIP3    H239572   6.322   1.440   8.286  0.4825  2.7394  1.3430
 6005TIP3   OH239573   2.823   4.831   0.837  0.2387  0.2119  0.1441
 6005TIP3    H139574   2.876   4.868   0.907 -0.5277 -0.0485  0.8733
 6005TIP3    H239575   2.788   4.750   0.873 -1.9737  1.1603  0.2901
 6006TIP3   OH239576   0.320   5.062   1.021 -0.3664  0.4843  0.2742
 6006TIP3    H139577   0.241   5.032   0.976 -0.5368 -0.2611  1.0510
 6006TIP3    H239578   0.337   5.149   0.985  0.1992 -0.5446 -2.0962
 6007TIP3   OH239579   6.470   4.151   0.495  0.3616  0.2187 -0.1150
 6007TIP3    H139580   6.551   4.202   0.495  0.4905  0.0155 -0.4658
 6007TIP3    H239581   6.499   4.060   0.501  0.1401  0.1701  0.2870
 6008TIP3   OH239582   6.035   3.870   7.264  1.0191 -0.1771 -0.2846
 6008TIP3    H139583   5.965   3.810   7.238 -2.0403  2.8283  0.2777
 6008TIP3    H239584   6.054   3.920   7.185  0.6140  0.7323  0.1767
 6009TIP3   OH239585   2.356   3.385   6.657  0.0826 -0.6827 -0.1566
 6009TIP3    H139586   2.306   3.308   6.629  0.0630 -0.4916 -0.6537
 6009TIP3    H239587   2.298   3.459   6.637  0.4896 -0.4733 -0.5728
 6010TIP3   OH239588   1.421   1.051   0.225  0.3856  0.3715  1.0263
 6010TIP3    H139589   1.509   1.014   0.233  0.2341  0.3302  3.1409
 6010TIP3    H239590   1.369   0.981   0.185  1.2967  0.4329 -0.3357
 6011TIP3   OH239591   2.172   5.238   7.411 -0.1986 -0.2271  0.3550
 6011TIP3    H139592   2.183   5.253   7.318 -1.2802  0.1472  0.2732
 6011TIP3    H239593   2.206   5.318   7.453  0.1229 -0.3231  0.2841
 6012TIP3   OH239594   5.874   5.476   2.184  0.1125 -0.2040  0.2291
 6012TIP3    H139595   5.871   5.539   2.256  0.0383 -0.3119  0.3195
 6012TIP3    H239596   5.917   5.399   2.221 -0.3699 -0.4403  0.2949
 6013TIP3   OH239597   3.969   2.227   0.236  0.0279 -0.2498  0.2403
 6013TIP3    H139598   3.953   2.198   0.326 -0.1301  0.8406  0.5708
 6013TIP3    H239599   4.064   2.218   0.225  0.1259  0.1504  0.7132
 6014TIP3   OH239600   0.310   1.860   2.126  0.2002  0.5570 -0.3733
 6014TIP3    H139601   0.394   1.891   2.160  0.1874 -0.8371  1.0260
 6014TIP3    H239602   0.245   1.908   2.177  0.1829 -1.2752  1.4491
 6015TIP3   OH239603   5.328   6.203   7.045  0.5043  0.3452  0.2881
 6015TIP3    H139604   5.262   6.189   6.978  0.6511 -0.1871  0.2497
 6015TIP3    H239605   5.376   6.120   7.050 -0.2056 -0.0071  1.8225
 6016TIP3   OH239606   1.385   6.490   6.875  0.4580  0.1072 -0.1333
 6016TIP3    H139607   1.412   6.579   6.897  1.5936 -0.5974  1.5602
 6016TIP3    H239608   1.467   6.439   6.878 -0.1518 -0.9965 -1.1641
 6017TIP3   OH239609   1.936   4.260   8.103 -0.3068  0.1766  0.6089
 6017TIP3    H139610   1.998   4.318   8.146 -0.8458  0.8056  0.5508
 6017TIP3    H239611   1.962   4.259   8.011 -0.1371  0.1180  0.6584
 6018TIP3   OH239612   2.523   4.756   1.286  0.1399  0.0364  0.3753
 6018TIP3    H139613   2.496   4.666   1.305  0.0901 -0.0890 -0.2765
 6018TIP3    H239614   2.513   4.801   1.370  1.3766 -0.8519  1.0439
 6019TIP3   OH239615   1.575   3.934   7.202  0.3414 -0.4679 -0.4963
 6019TIP3    H139616   1.484   3.963   7.201  0.1380 -1.0888 -0.4946
 6019TIP3    H239617   1.591   3.907   7.292  0.5424 -0.3275 -0.4884
 6020TIP3   OH239618   6.914   1.736   7.570 -0.4194  0.0248 -0.2005
 6020TIP3    H139619   7.001   1.734   7.530  0.9412 -1.1831  2.5477
 6020TIP3    H239620   6.900   1.827   7.594 -0.4499  0.4224 -1.6155
 6021TIP3   OH239621   2.734   1.007   0.083 -0.1263 -0.1851 -0.0812
 6021TIP3    H139622   2.823   0.976   0.096 -0.8019 -1.5658  1.7547
 6021TIP3    H239623   2.687   0.979   0.162 -1.8071  1.9583 -0.2210
 6022TIP3   OH239624   6.717   1.879   0.685  0.1153 -0.2836 -0.1022
 6022TIP3    H139625   6.708   1.901   0.592 -0.0046  0.2159  0.0278
 6022TIP3    H239626   6.763   1.795   0.685  0.6126 -0.0149 -0.5923
 6023TIP3   OH239627   0.406   2.520   2.205  0.1327  0.0666 -0.2478
 6023TIP3    H139628   0.484   2.571   2.183 -1.1582  2.9968  1.3033
 6023TIP3    H239629   0.355   2.519   2.124  0.7649  0.1405 -0.6535
 6024TIP3   OH239630   4.304   0.366   0.022 -1.0129 -0.2650  0.2271
 6024TIP3    H139631   4.381   0.324  -0.017 -1.4346 -0.3158 -0.5797
 6024TIP3    H239632   4.243   0.295   0.037 -1.3840 -0.0647 -0.3067
 6025TIP3   OH239633   0.681   3.441   7.412 -0.4139  0.3253  0.0928
 6025TIP3    H139634   0.624   3.414   7.341 -1.4408 -1.0964  1.3858
 6025TIP3    H239635   0.637   3.515   7.453  0.9390  2.1764 -1.6263
 6026TIP3   OH239636   1.879   5.018   0.195 -0.5397  0.6022  0.0165
 6026TIP3    H139637   1.869   5.101   0.242 -1.1452  1.7130 -1.9370
 6026TIP3    H239638   1.973   5.014   0.174 -0.5284  0.8809  0.0007
 6027TIP3   OH239639   6.051   4.685   2.463 -0.4735  0.3079  0.1478
 6027TIP3    H139640   6.060   4.590   2.460  0.3241  0.4003 -0.9392
 6027TIP3    H239641   6.122   4.714   2.521 -0.1186  0.3098 -0.2888
 6028TIP3   OH239642   5.949   4.587   1.840 -0.0065 -0.3954 -0.2052
 6028TIP3    H139643   5.956   4.619   1.930  0.4862  0.5236 -0.5629
 6028TIP3    H239644   5.978   4.496   1.845 -0.9423 -0.6609  0.7356
 6029TIP3   OH239645   0.522   1.946   7.161  0.5289  0.5224  0.0491
 6029TIP3    H139646   0.583   1.900   7.219  0.9732 -1.5688 -1.9174
 6029TIP3    H239647   0.574   2.015   7.120  2.0471 -1.7975 -2.2962
 6030TIP3   OH239648   5.357   3.856   0.750 -0.3936  0.3215 -0.0510
 6030TIP3    H139649   5.440   3.872   0.705 -0.5179 -1.0699 -0.8691
 6030TIP3    H239650   5.322   3.778   0.706 -1.7801  0.4542  0.7697
 6031TIP3   OH239651   1.638   4.423   8.062  0.3958  0.4551  0.3552
 6031TIP3    H139652   1.707   4.420   7.996 -0.7120  1.2477 -0.9002
 6031TIP3    H239653   1.616   4.516   8.069 -0.2069  0.2673  1.0980
 6032TIP3   OH239654   3.951   1.389   0.277 -0.1742 -0.6360  0.2103
 6032TIP3    H139655   3.930   1.467   0.329  0.5849 -0.3078  0.0414
 6032TIP3    H239656   3.885   1.325   0.303 -0.8048  0.0536  0.3691
 6033TIP3   OH239657   3.936   6.043   0.552 -0.3259 -0.2461  0.1759
 6033TIP3    H139658   4.021   6.024   0.514 -0.7422  0.3192 -1.1042
 6033TIP3    H239659   3.924   5.976   0.619  0.0749 -1.8777 -1.3046
 6034TIP3   OH239660   5.339   3.874   8.182 -0.9399 -0.2609  0.4638
 6034TIP3    H139661   5.388   3.943   8.226 -0.8251 -0.3700  0.5080
 6034TIP3    H239662   5.405   3.808   8.160 -0.6871  0.5604 -1.4487
 6035TIP3   OH239663   3.503   1.161   1.044 -0.2852  0.8531  0.3813
 6035TIP3    H139664   3.532   1.158   0.953  0.5587 -1.4706  0.6609
 6035TIP3    H239665   3.581   1.188   1.093 -0.5328  1.3744  0.4936
 6036TIP3   OH239666   5.625   6.606   6.903  0.6207 -0.1027  0.0848
 6036TIP3    H139667   5.588   6.518   6.916  1.5818 -0.6003 -0.3956
 6036TIP3    H239668   5.560   6.665   6.940 -1.0329 -0.8831 -1.3951
 6037TIP3   OH239669   0.827   5.757   7.675 -0.4508 -0.1920 -0.0259
 6037TIP3    H139670   0.759   5.823   7.667 -0.6411 -0.5294 -1.2448
 6037TIP3    H239671   0.828   5.736   7.769 -0.6770  1.2067  0.3218
 6038TIP3   OH239672   2.273   1.143   7.136 -0.1307  0.4204 -0.2121
 6038TIP3    H139673   2.280   1.049   7.146 -0.8907  0.4537  0.8556
 6038TIP3    H239674   2.312   1.162   7.051  0.4814 -0.7889 -0.2113
 6039TIP3   OH239675   2.483   6.711   2.524  0.1573  0.0057 -0.1956
 6039TIP3    H139676   2.440   6.763   2.591 -2.0156 -0.5804 -1.0686
 6039TIP3    H239677   2.485   6.767   2.447  0.3683 -0.2125 -0.3510
 6040TIP3   OH239678   5.539   1.243   2.591  0.2974 -0.8089  0.5028
 6040TIP3    H139679   5.634   1.249   2.590  0.3031 -0.7862  0.8914
 6040TIP3    H239680   5.513   1.250   2.500  0.6254 -0.0477  0.4571
 6041TIP3   OH239681   6.055   2.360   7.448 -0.2457 -0.3545 -0.4959
 6041TIP3    H139682   6.133   2.408   7.476 -0.2999 -1.1972  1.2396
 6041TIP3    H239683   5.982   2.412   7.481 -0.3763 -0.3349 -0.8147
 6042TIP3   OH239684   6.212   4.448   2.405  0.1229 -0.2063  0.1162
 6042TIP3    H139685   6.163   4.432   2.486 -1.2052 -0.0792 -0.6336
 6042TIP3    H239686   6.158   4.410   2.336  0.5025  0.9976 -0.8817
 6043TIP3   OH239687   5.809   6.416   6.969  0.4676 -0.2770 -0.3551
 6043TIP3    H139688   5.728   6.467   6.959  0.5248 -0.0576  0.2911
 6043TIP3    H239689   5.879   6.479   6.957  0.5390 -0.2184  0.3472
 6044TIP3   OH239690   3.950   0.819   2.047 -0.2989  0.4069  0.1094
 6044TIP3    H139691   4.024   0.881   2.050 -0.1175  0.2576 -0.9765
 6044TIP3    H239692   3.936   0.795   2.139  0.7008  0.7968  0.3812
 6045TIP3   OH239693   0.658   3.395   5.911 -0.4036 -0.1622  0.2967
 6045TIP3    H139694   0.733   3.404   5.853 -1.3157 -0.7822 -1.0352
 6045TIP3    H239695   0.583   3.381   5.852 -1.5222  0.1532  1.5847
 6046TIP3   OH239696   2.599   4.844   7.031 -0.1704  0.4246 -0.2588
 6046TIP3    H139697   2.606   4.922   7.086  0.6717  0.4545 -0.4005
 6046TIP3    H239698   2.588   4.772   7.094 -3.1586  0.8326 -0.1703
 6047TIP3   OH239699   3.703   6.853   2.154 -0.1405  0.1228  0.0208
 6047TIP3    H139700   3.761   6.827   2.226 -1.7969  0.0709  1.4116
 6047TIP3    H239701   3.679   6.770   2.112 -0.5320 -0.0420  0.5442
 6048TIP3   OH239702   4.701   1.684   0.610 -0.1930  0.4178 -0.4076
 6048TIP3    H139703   4.666   1.742   0.677 -1.0695 -1.8746  1.2385
 6048TIP3    H239704   4.708   1.739   0.532 -2.6173  2.2969  0.5605
 6049TIP3   OH239705   0.827   4.376   7.239 -0.2099 -0.2497  0.0102
 6049TIP3    H139706   0.799   4.289   7.268 -0.6879 -0.3395 -0.6830
 6049TIP3    H239707   0.923   4.374   7.245 -0.2266 -0.7706  0.1484
 6050TIP3   OH239708   6.313   3.659   0.315 -0.5541 -0.0814 -0.0798
 6050TIP3    H139709   6.245   3.700   0.262 -0.8700 -1.8004 -1.0978
 6050TIP3    H239710   6.266   3.618   0.387 -0.5850 -1.0293 -0.6270
 6051TIP3   OH239711   3.923   1.459   0.640  0.8871  0.3310 -0.3481
 6051TIP3    H139712   3.904   1.429   0.729 -0.7288  0.0595 -0.7478
 6051TIP3    H239713   3.920   1.380   0.587  0.5127  0.6599 -0.8253
 6052TIP3   OH239714   4.266   1.845   7.397  0.4217 -0.1161 -0.0070
 6052TIP3    H139715   4.250   1.751   7.401 -0.3746 -0.1071 -1.8857
 6052TIP3    H239716   4.214   1.881   7.469 -0.0587 -1.0278  0.1196
 6053TIP3   OH239717   0.595   2.244   7.321  0.4558 -0.5977 -0.1400
 6053TIP3    H139718   0.522   2.201   7.365 -0.0918  1.0978  0.6985
 6053TIP3    H239719   0.566   2.252   7.230 -0.5209  0.2119  0.2157
 6054TIP3   OH239720   3.874   1.633   7.645  0.4251 -0.1159 -0.9643
 6054TIP3    H139721   3.784   1.615   7.672  0.8324 -0.4582  0.2102
 6054TIP3    H239722   3.875   1.616   7.551 -0.4581 -1.2563 -0.7843
 6055TIP3   OH239723   0.014   1.424   0.299  0.2035 -0.3071  0.4489
 6055TIP3    H139724   0.044   1.343   0.340  0.4538 -0.1849  0.5116
 6055TIP3    H239725  -0.043   1.396   0.228 -0.9991 -0.5074  1.4512
 6056TIP3   OH239726   4.897   6.396   7.521  0.2682  0.1716  0.2706
 6056TIP3    H139727   4.971   6.457   7.516  0.3682  0.0018 -0.5133
 6056TIP3    H239728   4.829   6.443   7.568  1.0081  0.1925  1.3475
 6057TIP3   OH239729   1.026   3.928   7.347  0.0927 -0.5003 -0.1305
 6057TIP3    H139730   0.969   3.851   7.346 -2.2812  1.1350  0.4893
 6057TIP3    H239731   1.009   3.971   7.263  1.4135 -0.6366 -0.4809
 6058TIP3   OH239732   0.448   1.009   1.341 -0.1081 -0.2355 -0.7081
 6058TIP3    H139733   0.412   1.098   1.343 -1.2131 -0.6809  0.4202
 6058TIP3    H239734   0.541   1.021   1.320 -0.0304  1.2637  0.3449
 6059TIP3   OH239735   6.177   4.188   7.715  0.3658 -0.2240  0.1913
 6059TIP3    H139736   6.199   4.246   7.787  1.3268 -0.4765  0.1192
 6059TIP3    H239737   6.204   4.101   7.745  0.2594 -0.4137 -0.2489
 6060TIP3   OH239738   6.706   5.464   7.623  0.8056  0.3325 -0.2894
 6060TIP3    H139739   6.641   5.407   7.582  0.3006 -0.2899  1.2906
 6060TIP3    H239740   6.760   5.495   7.551  0.8873 -1.8757 -1.2508
 6061TIP3   OH239741   1.234   3.791   8.200  0.3276 -0.0299 -0.3698
 6061TIP3    H139742   1.251   3.795   8.295 -1.5487  1.9746 -0.0364
 6061TIP3    H239743   1.152   3.743   8.193  0.8120 -0.7777 -1.0769
 6062TIP3   OH239744   1.996   6.613   0.850  0.1043  0.0100  0.3277
 6062TIP3    H139745   1.921   6.665   0.822  0.3102  0.9302  1.3939
 6062TIP3    H239746   2.020   6.562   0.773 -1.4656 -0.1387 -0.0909
 6063TIP3   OH239747   0.282   4.786   0.647  1.1297 -0.3864 -0.0853
 6063TIP3    H139748   0.296   4.696   0.676  0.1239 -0.6430 -0.3665
 6063TIP3    H239749   0.296   4.785   0.553 -0.6029 -0.6453 -0.3736
 6064TIP3   OH239750   5.012   1.680   1.563 -0.1582 -0.0435  0.1253
 6064TIP3    H139751   4.953   1.717   1.498  1.6548  0.0738 -1.5388
 6064TIP3    H239752   4.987   1.588   1.569 -1.2998  0.2714  0.3875
 6065TIP3   OH239753   2.755   1.812   1.542 -0.1245  0.1298  0.1111
 6065TIP3    H139754   2.739   1.723   1.511  1.2072 -0.0311 -0.1840
 6065TIP3    H239755   2.704   1.868   1.483  0.2929 -0.3395 -0.7055
 6066TIP3   OH239756   1.215   0.992   7.909  0.2501 -0.9320 -0.2122
 6066TIP3    H139757   1.119   0.992   7.908  0.1934  1.3342 -1.1842
 6066TIP3    H239758   1.239   1.084   7.910  2.4502 -1.4476 -0.0844
 6067TIP3   OH239759   4.751   3.551   1.767 -0.2435 -0.1331  0.2122
 6067TIP3    H139760   4.836   3.595   1.761 -0.7441  0.8327  0.0141
 6067TIP3    H239761   4.742   3.529   1.860  0.5059 -0.8604  0.1352
 6068TIP3   OH239762   5.010   1.803   8.047  0.1462  0.6324  0.0520
 6068TIP3    H139763   4.995   1.897   8.063 -1.6384  0.5150 -0.7098
 6068TIP3    H239764   4.926   1.762   8.068  0.4605 -0.6144 -1.0458
 6069TIP3   OH239765   0.962   3.643   1.448  0.4801  0.0097 -0.2956
 6069TIP3    H139766   1.021   3.623   1.520  0.0334 -0.5473 -0.0775
 6069TIP3    H239767   0.975   3.571   1.386  0.0231 -0.1237 -0.2411
 6070TIP3   OH239768   4.504   4.798   6.980 -0.1552 -0.7020  0.0905
 6070TIP3    H139769   4.443   4.863   6.945 -3.0740 -2.1745  1.9771
 6070TIP3    H239770   4.502   4.812   7.075  2.6934 -0.7218  0.2482
 6071TIP3   OH239771   2.693   1.109   0.355  0.0875  0.4543 -0.6825
 6071TIP3    H139772   2.698   1.015   0.372  0.1343  0.6634  0.5545
 6071TIP3    H239773   2.756   1.148   0.416 -0.0480  1.2964 -1.0716
 6072TIP3   OH239774   0.777   6.543   6.505 -0.3490 -0.6481  0.4157
 6072TIP3    H139775   0.699   6.491   6.484 -1.4538  1.3554 -0.7265
 6072TIP3    H239776   0.802   6.583   6.421  0.4743  0.6409  1.2531
 6073TIP3   OH239777   4.285   3.086   1.899 -0.0385 -0.4419 -0.4801
 6073TIP3    H139778   4.285   3.047   1.812  3.0717 -0.0171 -0.7870
 6073TIP3    H239779   4.340   3.027   1.951  1.4143  1.3383  0.0935
 6074TIP3   OH239780   0.572   0.746   1.693  0.0099 -0.1311 -0.1957
 6074TIP3    H139781   0.484   0.742   1.730  0.1773  1.9809  0.5641
 6074TIP3    H239782   0.629   0.758   1.769  0.6971  0.9804 -0.8596
 6075TIP3   OH239783   1.716   4.000   6.348 -0.2205 -0.1001  0.6002
 6075TIP3    H139784   1.808   3.982   6.328 -0.5092 -0.2970 -0.6504
 6075TIP3    H239785   1.704   4.093   6.327 -0.8277 -0.6016 -1.4603
 6076TIP3   OH239786   0.110   0.782   1.394 -0.0040 -0.6247 -0.7621
 6076TIP3    H139787   0.083   0.871   1.415 -1.5330 -1.4053  0.8746
 6076TIP3    H239788   0.206   0.784   1.396 -0.0164  0.6141  1.0194
 6077TIP3   OH239789   0.490   5.526   6.978 -0.0452  0.4285 -0.8250
 6077TIP3    H139790   0.526   5.594   6.921 -0.1268  0.5655 -0.7137
 6077TIP3    H239791   0.522   5.549   7.065 -1.5124  1.3337 -0.4922
 6078TIP3   OH239792   0.861   6.362   6.668 -0.0546  0.3937  0.8116
 6078TIP3    H139793   0.792   6.300   6.644  0.0021  0.2485  1.0150
 6078TIP3    H239794   0.846   6.438   6.611 -0.0101  0.1196  0.4328
 6079TIP3   OH239795   2.845   4.097   0.620 -0.8524  0.0439 -0.0290
 6079TIP3    H139796   2.859   4.126   0.530 -1.4751  0.5441  0.0281
 6079TIP3    H239797   2.774   4.033   0.614  0.5340 -1.5364 -0.1590
 6080TIP3   OH239798   3.956   4.979   1.926 -0.3103  0.5129  0.3530
 6080TIP3    H139799   3.870   5.017   1.911 -0.5565 -0.6411 -1.5308
 6080TIP3    H239800   3.979   5.005   2.015 -1.9366  2.0995  0.3610
 6081TIP3   OH239801   0.799   6.773   2.263  0.1738  1.1228  0.4496
 6081TIP3    H139802   0.782   6.772   2.357 -0.3005  1.6662  0.3818
 6081TIP3    H239803   0.786   6.865   2.238  1.5293  1.2274  0.0659
 6082TIP3   OH239804   3.879   6.390   1.414  1.1944 -0.2033  0.2054
 6082TIP3    H139805   3.971   6.411   1.399  0.8643  1.3407  0.1843
 6082TIP3    H239806   3.860   6.321   1.350  2.0278  0.2768 -0.5822
 6083TIP3   OH239807   5.380   1.021   8.029 -0.6161  0.4508 -0.0132
 6083TIP3    H139808   5.318   0.982   7.968 -0.6617 -0.2470  0.4642
 6083TIP3    H239809   5.362   1.115   8.026 -1.0529  0.3516 -0.5814
 6084TIP3   OH239810   3.896   6.670   2.705  0.2820  0.1392  0.3059
 6084TIP3    H139811   3.850   6.586   2.713  0.8786 -0.4005 -1.4430
 6084TIP3    H239812   3.843   6.721   2.645  0.8763  0.2893 -0.1066
 6085TIP3   OH239813   6.113   3.577   7.400  0.1423  0.4664  0.0382
 6085TIP3    H139814   6.204   3.599   7.416  0.7508 -1.4043 -0.6391
 6085TIP3    H239815   6.073   3.573   7.487  0.9894  0.1728  0.4197
 6086TIP3   OH239816   0.698   1.820   6.892 -0.0045 -0.4998 -0.0528
 6086TIP3    H139817   0.743   1.742   6.924  0.0352  0.1505  1.5505
 6086TIP3    H239818   0.721   1.889   6.955  2.5223  1.6753 -3.0595
 6087TIP3   OH239819   6.190   1.240   1.317 -0.0398 -0.0386 -0.1919
 6087TIP3    H139820   6.109   1.207   1.356  0.1003  0.2874  0.3979
 6087TIP3    H239821   6.183   1.218   1.224 -1.3446  1.0245 -0.3792
 6088TIP3   OH239822   0.435   2.962   1.157  0.1746  0.3538 -0.3107
 6088TIP3    H139823   0.447   3.002   1.243 -0.3002 -0.1152 -0.0248
 6088TIP3    H239824   0.465   2.872   1.168 -0.1652  0.2100 -0.5577
 6089TIP3   OH239825   3.651   1.915   3.080 -0.0142  0.1055 -0.0123
 6089TIP3    H139826   3.610   1.996   3.111 -1.1199  0.4530 -2.2402
 6089TIP3    H239827   3.742   1.922   3.109  0.2041  2.6954 -1.0786
 6090TIP3   OH239828   2.650   6.016   0.724  0.3740 -0.3706 -0.2385
 6090TIP3    H139829   2.743   6.004   0.707  0.2501 -0.6535 -0.7565
 6090TIP3    H239830   2.645   6.053   0.812  1.0486  1.0799 -0.7878
 6091TIP3   OH239831   2.299   2.723   7.883 -0.0254 -0.3277 -0.1244
 6091TIP3    H139832   2.388   2.753   7.899 -0.3402  0.4853  0.1643
 6091TIP3    H239833   2.277   2.667   7.957  0.8848 -2.0709 -1.1057
 6092TIP3   OH239834   5.950   1.886   2.149 -0.0719 -0.2742  0.1767
 6092TIP3    H139835   5.955   1.819   2.082 -0.1036  0.9225 -1.0661
 6092TIP3    H239836   5.898   1.956   2.110  0.5544  0.7847  1.1493
 6093TIP3   OH239837   2.698   6.869   1.386  0.0476  0.1278 -0.0461
 6093TIP3    H139838   2.704   6.775   1.368 -1.3269  0.1119 -0.5374
 6093TIP3    H239839   2.697   6.909   1.299 -1.1218  0.4580  0.1031
 6094TIP3   OH239840   3.777   2.685   0.950  0.2975  0.6085 -0.2024
 6094TIP3    H139841   3.776   2.776   0.976 -1.5629  0.8849 -1.0170
 6094TIP3    H239842   3.686   2.655   0.963  0.8213 -1.0742 -0.0997
 6095TIP3   OH239843   6.428   2.097   0.207  0.1908  0.4469 -0.2136
 6095TIP3    H139844   6.484   2.026   0.175  1.8384  1.4909  0.2027
 6095TIP3    H239845   6.400   2.143   0.129 -0.8753 -0.6248 -0.4851
 6096TIP3   OH239846   4.167   4.250   0.078 -0.0540 -0.8089 -0.0723
 6096TIP3    H139847   4.115   4.265   0.157  0.2011 -0.9859  0.1326
 6096TIP3    H239848   4.254   4.229   0.111 -0.0752 -1.4061 -0.3856
 6097TIP3   OH239849   0.598   2.132   0.845 -0.5140 -0.2072 -0.3029
 6097TIP3    H139850   0.568   2.197   0.909  0.5300  1.0483 -1.0394
 6097TIP3    H239851   0.621   2.184   0.768  1.6410 -1.3005 -0.4564
 6098TIP3   OH239852   5.741   1.291   0.169 -0.2777 -0.4556  0.0643
 6098TIP3    H139853   5.657   1.288   0.122  0.7101  0.0445 -1.8394
 6098TIP3    H239854   5.753   1.203   0.203 -0.7304 -1.0362 -1.2321
 6099TIP3   OH239855   5.187   0.001   8.000  0.7093  0.7910  0.8612
 6099TIP3    H139856   5.102  -0.031   7.970  1.4295  0.1696 -0.6153
 6099TIP3    H239857   5.223  -0.071   8.053  0.3839  1.0115  1.3949
 6100TIP3   OH239858   3.184   2.920   0.707 -0.6269 -0.5210 -0.3278
 6100TIP3    H139859   3.145   2.848   0.657  1.9367 -1.2504 -1.4823
 6100TIP3    H239860   3.241   2.964   0.644 -1.0984  1.7145  0.7227
 6101TIP3   OH239861   3.343   3.628   1.156 -0.0383  0.3265  0.0579
 6101TIP3    H139862   3.256   3.668   1.158  0.9704  2.7706 -1.0236
 6101TIP3    H239863   3.354   3.598   1.066  0.0476 -0.5288  0.3375
 6102TIP3   OH239864   2.243   0.298   2.722 -0.3917  0.2809 -0.0152
 6102TIP3    H139865   2.268   0.310   2.814 -0.7867  1.6358 -0.0695
 6102TIP3    H239866   2.189   0.219   2.723 -0.4385  0.3101  0.9308
 6103TIP3   OH239867   4.807   5.384   7.469 -0.1560  0.0067  0.1609
 6103TIP3    H139868   4.823   5.302   7.516 -0.6301  1.4268  3.0230
 6103TIP3    H239869   4.888   5.399   7.419  0.4380 -1.5731  0.6039
 6104TIP3   OH239870   2.224   1.855   6.877 -0.1361  0.1279  0.0189
 6104TIP3    H139871   2.260   1.847   6.789  1.4960  1.2122  0.5376
 6104TIP3    H239872   2.131   1.872   6.864  0.4730  2.7333 -1.6359
 6105TIP3   OH239873   6.841   1.690   0.235 -0.4120 -0.0683  0.4293
 6105TIP3    H139874   6.794   1.644   0.166  0.3317  0.1344 -0.2228
 6105TIP3    H239875   6.906   1.627   0.265 -0.9364 -0.2681  1.1760
 6106TIP3   OH239876   5.709   1.952   1.171 -0.5690 -0.4409  0.3981
 6106TIP3    H139877   5.744   1.952   1.260  1.4373 -1.2160 -0.3276
 6106TIP3    H239878   5.614   1.954   1.182 -0.3495  0.9260  2.5052
 6107TIP3   OH239879   6.565   4.331   0.768  0.3620 -0.5125 -0.1440
 6107TIP3    H139880   6.528   4.363   0.686 -1.5208 -0.4430  0.6950
 6107TIP3    H239881   6.556   4.404   0.829 -1.3616 -1.6194  1.0111
 6108TIP3   OH239882   3.763   3.848   6.843  0.1195  0.1228 -0.3650
 6108TIP3    H139883   3.718   3.767   6.817 -0.8571  0.7588 -0.7084
 6108TIP3    H239884   3.768   3.842   6.938  0.3108 -0.4732 -0.4067
 6109TIP3   OH239885   5.465   1.082   7.733  0.6456  0.1537  0.0446
 6109TIP3    H139886   5.427   1.168   7.752  0.0466  0.1464 -1.0463
 6109TIP3    H239887   5.396   1.019   7.752  0.8987 -0.0460  0.3136
 6110TIP3   OH239888   0.395   6.549   1.634  0.2110 -0.0583 -0.5537
 6110TIP3    H139889   0.479   6.582   1.665  0.3253 -0.5285 -0.3522
 6110TIP3    H239890   0.336   6.557   1.710  0.4092 -0.9124 -0.2936
 6111TIP3   OH239891   4.597   4.433   0.597 -0.1959 -0.3261  0.5959
 6111TIP3    H139892   4.639   4.395   0.520  1.1125  0.6382  0.8138
 6111TIP3    H239893   4.653   4.407   0.670 -0.2035  0.6153  0.9439
 6112TIP3   OH239894   6.751   1.819   1.957  0.1970 -0.1118 -0.2370
 6112TIP3    H139895   6.676   1.852   2.007  0.4615  0.0115  0.0825
 6112TIP3    H239896   6.761   1.728   1.986 -0.6527 -0.5487 -1.2602
 6113TIP3   OH239897   4.117   5.055   6.566  0.2822  0.5104 -0.0403
 6113TIP3    H139898   4.201   5.073   6.608  1.2671 -0.2176 -1.5944
 6113TIP3    H239899   4.134   4.977   6.514 -1.4405  0.2330 -0.2206
 6114TIP3   OH239900   3.205   2.715   0.278  0.5427 -0.3686 -0.0958
 6114TIP3    H139901   3.215   2.630   0.320  2.1699 -1.0502 -1.7310
 6114TIP3    H239902   3.151   2.766   0.339 -0.1780 -2.4256  1.0909
 6115TIP3   OH239903   6.649   1.968   0.434  0.2824  0.6024 -0.0400
 6115TIP3    H139904   6.633   2.060   0.455 -0.5696  0.8785 -1.7073
 6115TIP3    H239905   6.621   1.959   0.343 -0.9276 -1.6289  0.4781
 6116TIP3   OH239906   0.645   5.742   6.403 -0.3140  0.3592  0.0972
 6116TIP3    H139907   0.717   5.681   6.385  0.1453  0.6865  0.8116
 6116TIP3    H239908   0.636   5.792   6.322 -1.0796 -1.0293 -0.7155
 6117TIP3   OH239909   2.973   0.933   0.489  0.3248  0.1649 -0.0763
 6117TIP3    H139910   2.929   0.951   0.572  1.4083  0.1700  0.5170
 6117TIP3    H239911   2.922   0.862   0.450  0.6832 -0.9293  1.3333
 6118TIP3   OH239912   4.201   4.500   7.514 -0.1198 -0.2631 -0.0003
 6118TIP3    H139913   4.261   4.541   7.452 -2.1224  1.7666 -0.7314
 6118TIP3    H239914   4.194   4.409   7.484  0.5749  0.1463 -1.4970
 6119TIP3   OH239915   1.564   4.136   1.514 -0.2598  0.1398 -0.3916
 6119TIP3    H139916   1.507   4.190   1.569 -2.4975  0.3485 -2.7103
 6119TIP3    H239917   1.573   4.054   1.562 -1.1083  0.7323  0.8452
 6120TIP3   OH239918   2.115   6.628   7.659  0.2137 -0.0540 -0.1994
 6120TIP3    H139919   2.194   6.683   7.667  0.6366 -0.5501 -0.8819
 6120TIP3    H239920   2.133   6.572   7.584  0.2582 -1.8964  1.1200
 6121TIP3   OH239921   3.829   5.291   6.765  0.1287  0.2864 -0.6806
 6121TIP3    H139922   3.748   5.323   6.805  0.1851 -0.9913  0.5351
 6121TIP3    H239923   3.827   5.196   6.778  1.8553  0.2270 -0.5487
 6122TIP3   OH239924   6.808   0.334   7.002 -0.1879  0.6955 -0.6048
 6122TIP3    H139925   6.840   0.424   6.990  1.1032  0.5178  1.0701
 6122TIP3    H239926   6.875   0.279   6.963  0.4019  0.4034  0.7483
 6123TIP3   OH239927   4.319   1.421   1.987 -0.0148  0.4641 -0.1207
 6123TIP3    H139928   4.400   1.430   1.936 -0.8300  0.5497 -1.4172
 6123TIP3    H239929   4.348   1.378   2.068  0.8459 -2.6831 -1.9303
 6124TIP3   OH239930   2.095   3.545   1.490 -0.2615 -0.4475 -0.0533
 6124TIP3    H139931   2.008   3.555   1.529  0.2241 -0.2576  1.0029
 6124TIP3    H239932   2.135   3.473   1.539  0.6321  0.2821  0.3078
 6125TIP3   OH239933   1.825   0.314   7.501  0.0964  0.1491  0.0440
 6125TIP3    H139934   1.831   0.307   7.596  3.6444  1.3252  0.0583
 6125TIP3    H239935   1.859   0.231   7.468 -0.1831  0.1267 -0.1977
 6126TIP3   OH239936   6.753   6.533   2.013  0.0783 -0.4888 -0.6190
 6126TIP3    H139937   6.675   6.580   2.040 -1.4874 -3.1702 -0.0634
 6126TIP3    H239938   6.761   6.461   2.076  1.3884 -1.8839 -2.2460
 6127TIP3   OH239939   4.231   0.747   7.467 -0.4480 -0.5115 -0.1361
 6127TIP3    H139940   4.202   0.837   7.484 -1.8274 -0.8978 -0.3320
 6127TIP3    H239941   4.256   0.747   7.375 -0.9262 -0.4401 -0.2703
 6128TIP3   OH239942   6.314   4.612   0.125 -0.4525  0.0825 -1.0224
 6128TIP3    H139943   6.280   4.630   0.213 -1.5083  1.1650 -1.6117
 6128TIP3    H239944   6.253   4.548   0.089  0.6145 -1.2060 -0.5980
 6129TIP3   OH239945   4.854   1.471   0.360 -0.2442 -0.5378  0.5583
 6129TIP3    H139946   4.806   1.499   0.281  1.0762  1.8326  0.5043
 6129TIP3    H239947   4.798   1.404   0.399 -3.0390  1.2199 -0.1396
 6130TIP3   OH239948   3.252   6.859   6.523  0.2607  0.0314 -0.6510
 6130TIP3    H139949   3.313   6.872   6.596  0.3814  1.7623 -1.0210
 6130TIP3    H239950   3.266   6.767   6.497  0.7576 -0.3949  0.9868
 6131TIP3   OH239951   3.741   2.933   1.067  0.7793 -0.0098  0.5866
 6131TIP3    H139952   3.816   2.989   1.047 -0.9626  2.3661  0.3009
 6131TIP3    H239953   3.677   2.954   0.999  0.4468 -3.3334 -0.2719
 6132TIP3   OH239954   1.646   3.750   6.228  0.4514 -0.1920 -0.7495
 6132TIP3    H139955   1.624   3.750   6.135 -0.3873  0.9334 -0.5627
 6132TIP3    H239956   1.685   3.836   6.244 -1.0328  0.3210  0.2983
 6133TIP3   OH239957   6.138   3.649   6.242  0.1692 -0.8046  0.0167
 6133TIP3    H139958   6.103   3.634   6.329 -1.1324 -0.9414 -0.5128
 6133TIP3    H239959   6.097   3.581   6.188 -0.4275  0.3753 -1.0503
 6134TIP3   OH239960   3.938   2.838   8.106 -0.4962  0.0557 -0.3758
 6134TIP3    H139961   3.920   2.915   8.160 -0.0024 -1.2814  1.8361
 6134TIP3    H239962   3.879   2.771   8.139  0.1800 -0.9752 -1.1847
 6135TIP3   OH239963   5.504   1.199   2.291 -0.2458 -0.0388  0.0060
 6135TIP3    H139964   5.531   1.113   2.257  0.5701  0.1640  0.1239
 6135TIP3    H239965   5.545   1.262   2.232 -0.5436  0.2787  0.1354
 6136TIP3   OH239966   2.677   2.190   7.366 -0.2852  0.2934 -0.1979
 6136TIP3    H139967   2.584   2.180   7.387 -0.2631 -1.0035 -0.6655
 6136TIP3    H239968   2.723   2.161   7.444 -0.2475  2.0452  0.4837
 6137TIP3   OH239969   0.244   5.178   7.431 -0.4472  0.0777 -0.3608
 6137TIP3    H139970   0.287   5.209   7.351  0.3176  0.1750  0.0790
 6137TIP3    H239971   0.280   5.233   7.501 -1.8097  0.6383 -0.0550
 6138TIP3   OH239972   1.679   4.761   7.716  0.0087 -0.4624  1.0741
 6138TIP3    H139973   1.633   4.837   7.750 -0.7432  0.8758 -2.5287
 6138TIP3    H239974   1.771   4.788   7.712 -0.3555  0.6077 -0.8801
 6139TIP3   OH239975   6.425   5.697   1.384 -0.3619  0.0381 -0.8321
 6139TIP3    H139976   6.437   5.606   1.357  3.8840 -0.1636  0.8954
 6139TIP3    H239977   6.489   5.746   1.331  0.5817  1.2475  1.3006
 6140TIP3   OH239978   2.089   2.926   0.136 -0.2170  0.5757  0.0937
 6140TIP3    H139979   2.168   2.873   0.125  0.1386  1.4950 -2.2095
 6140TIP3    H239980   2.019   2.862   0.147  0.6217 -0.2779  0.6647
 6141TIP3   OH239981   5.459   3.855   1.315  0.2441  0.4015  0.1201
 6141TIP3    H139982   5.446   3.830   1.224  0.6591 -0.8501  0.3856
 6141TIP3    H239983   5.372   3.878   1.347  0.0312  0.4144 -0.4707
 6142TIP3   OH239984   1.315   6.498   1.932 -0.3605  0.6546 -0.2338
 6142TIP3    H139985   1.331   6.406   1.915  0.8165  0.5292  1.3073
 6142TIP3    H239986   1.293   6.535   1.847  0.0167 -0.8762 -1.0285
 6143TIP3   OH239987   6.888   3.238   0.081  0.8255 -0.0441  0.1562
 6143TIP3    H139988   6.810   3.289   0.103  0.8533 -0.7030  1.9452
 6143TIP3    H239989   6.952   3.304   0.052  0.4760  0.8193  1.2704
 6144TIP3   OH239990   0.818   0.845   0.324  0.0805 -0.1774 -0.0531
 6144TIP3    H139991   0.903   0.830   0.281  0.1760 -0.1016  0.1091
 6144TIP3    H239992   0.777   0.915   0.272  1.1229  1.4854  1.2530
 6145TIP3   OH239993   1.496   2.956   2.087 -0.0447 -0.5578  0.3490
 6145TIP3    H139994   1.507   2.861   2.081 -0.3942 -0.5712 -0.0712
 6145TIP3    H239995   1.516   2.988   1.999  4.0718  0.1729  1.3464
 6146TIP3   OH239996   2.431   1.864   2.180 -0.4004 -0.6878  0.7294
 6146TIP3    H139997   2.475   1.786   2.146 -1.8653 -1.3063  0.1543
 6146TIP3    H239998   2.410   1.841   2.270  1.4890  0.0937  1.4278
 6147TIP3   OH239999   3.033   1.544   8.273  0.0949 -0.3043  0.2594
 6147TIP3    H140000   3.094   1.602   8.228 -1.5785  0.8688 -0.6030
 6147TIP3    H240001   2.991   1.494   8.203  0.4600 -1.5500  0.8887
 6148TIP3   OH240002   3.448   5.351   7.869 -0.9782 -0.2181 -0.7065
 6148TIP3    H140003   3.465   5.258   7.884  0.1090  0.1613  0.6775
 6148TIP3    H240004   3.469   5.365   7.777  3.7561 -0.4497  0.0514
 6149TIP3   OH240005   6.747   3.184   1.197 -0.4341 -0.3172  0.5527
 6149TIP3    H140006   6.759   3.233   1.116 -2.4533  0.3410  0.5962
 6149TIP3    H240007   6.753   3.092   1.170 -3.1961 -0.2061 -0.8373
 6150TIP3   OH240008   5.682   1.208   7.993 -0.2694  0.0384 -0.0266
 6150TIP3    H140009   5.761   1.169   7.955 -0.5597  0.7528 -1.4370
 6150TIP3    H240010   5.643   1.139   8.046  1.2379 -0.3635  0.6194
 6151TIP3   OH240011   2.612   5.903   0.467 -0.4609 -0.3508  0.5909
 6151TIP3    H140012   2.644   5.963   0.399 -0.7175  1.1562  1.7585
 6151TIP3    H240013   2.609   5.956   0.546 -0.9686 -1.8569  1.6118
 6152TIP3   OH240014   3.641   4.534   7.398 -0.4991  0.4283 -0.2352
 6152TIP3    H140015   3.568   4.590   7.424 -0.3132  2.5513 -3.6656
 6152TIP3    H240016   3.719   4.584   7.422 -0.2279 -0.1861  0.1825
 6153TIP3   OH240017   3.346   0.344   0.231  0.1244 -0.4537  0.1769
 6153TIP3    H140018   3.259   0.315   0.203 -1.1286  1.4891  1.7742
 6153TIP3    H240019   3.341   0.344   0.326  1.1531  1.6981  0.2676
 6154TIP3   OH240020   1.288   4.222   1.661 -0.0531 -0.3827  0.1411
 6154TIP3    H140021   1.215   4.191   1.714 -0.3147 -1.2002 -0.6584
 6154TIP3    H240022   1.311   4.307   1.697 -2.0442  0.3442 -0.2080
 6155TIP3   OH240023   1.815   0.022   0.574  0.2129  0.3948 -0.0865
 6155TIP3    H140024   1.896   0.042   0.527  1.7160 -2.7317  0.8882
 6155TIP3    H240025   1.772  -0.044   0.520 -0.1152 -0.2186  0.9006
 6156TIP3   OH240026   6.575   6.850   6.572 -0.1222  0.1499 -0.6754
 6156TIP3    H140027   6.653   6.904   6.575  0.3434 -0.5522  1.4397
 6156TIP3    H240028   6.517   6.895   6.511  1.4011  1.3952 -1.2667
 6157TIP3   OH240029   1.802   2.015   0.462  0.2794  0.6956  0.1161
 6157TIP3    H140030   1.718   1.977   0.488  0.6824 -0.9947 -0.8499
 6157TIP3    H240031   1.833   2.062   0.539 -0.5071 -0.5724  1.2443
 6158TIP3   OH240032   4.120   6.966   0.333 -0.0204  0.4922  0.0919
 6158TIP3    H140033   4.183   6.970   0.261 -0.2745 -0.0436 -0.1702
 6158TIP3    H240034   4.174   6.949   0.410  0.0812 -1.0592 -0.2876
 6159TIP3   OH240035   5.131   2.396   0.480  0.9443 -0.2626 -0.1518
 6159TIP3    H140036   5.107   2.480   0.520  0.0916  0.0175 -1.2317
 6159TIP3    H240037   5.135   2.335   0.554  1.0379  0.5969  0.5724
 6160TIP3   OH240038   2.837   1.446   0.200  0.0428 -0.1670 -0.0252
 6160TIP3    H140039   2.896   1.449   0.124 -0.9861  0.3238 -0.8367
 6160TIP3    H240040   2.750   1.464   0.163 -0.2755  1.6904  1.4697
 6161TIP3   OH240041   2.228   1.553   7.309  0.4949  0.3812 -0.0506
 6161TIP3    H140042   2.147   1.601   7.291  0.7308  0.2541 -1.5138
 6161TIP3    H240043   2.298   1.609   7.275  0.7582 -1.0558 -1.9920
 6162TIP3   OH240044   0.745   0.933   1.308 -0.1634  0.0353  0.2495
 6162TIP3    H140045   0.786   0.924   1.222 -0.2939  0.9485  0.0771
 6162TIP3    H240046   0.744   0.845   1.344 -1.7087 -0.6955 -1.4138
 6163TIP3   OH240047   6.867   0.896   7.811 -0.4954  0.1586  0.4616
 6163TIP3    H140048   6.786   0.851   7.838  0.0955 -2.0650 -1.2262
 6163TIP3    H240049   6.922   0.827   7.775  1.8385  1.7748  0.7406
 6164TIP3   OH240050   5.007   3.766   7.030 -0.0895 -0.0417 -0.0435
 6164TIP3    H140051   4.983   3.818   6.952 -1.4131  1.5303  1.3217
 6164TIP3    H240052   5.029   3.832   7.096  1.6241 -1.3627  0.7518
 6165TIP3   OH240053   3.759   2.538   2.838  0.3675 -0.4687 -0.5584
 6165TIP3    H140054   3.772   2.565   2.929 -1.1951 -1.8544  0.1485
 6165TIP3    H240055   3.700   2.604   2.802  0.2919 -0.3785 -0.2786
 6166TIP3   OH240056   4.377   0.852   2.215  0.2006  0.0832 -0.0286
 6166TIP3    H140057   4.454   0.840   2.160  0.9366  0.4628  0.8836
 6166TIP3    H240058   4.379   0.778   2.276  0.9805  1.0966  1.2574
 6167TIP3   OH240059   6.658   5.840   0.629 -0.9309 -0.5752  0.1725
 6167TIP3    H140060   6.609   5.772   0.675 -2.0787 -0.7916 -1.3012
 6167TIP3    H240061   6.642   5.822   0.536 -0.7147  1.3200 -0.2598
 6168TIP3   OH240062   0.136   5.671   0.265  0.2029  0.0258  0.3526
 6168TIP3    H140063   0.072   5.742   0.262  0.9649  0.7117 -0.1078
 6168TIP3    H240064   0.208   5.706   0.318  0.8514 -0.1699 -0.3829
 6169TIP3   OH240065   3.305   1.334   8.012 -0.2844  0.1625  1.1636
 6169TIP3    H140066   3.243   1.367   7.947  1.0796 -0.6932 -0.6691
 6169TIP3    H240067   3.375   1.399   8.013 -0.1221 -0.0167  1.5244
 6170TIP3   OH240068   6.318   1.925   8.290 -0.3613  0.0865  0.5732
 6170TIP3    H140069   6.298   1.851   8.348 -2.0299 -0.4935 -0.6626
 6170TIP3    H240070   6.408   1.909   8.262 -0.9351 -1.9791 -0.3091
 6171TIP3   OH240071   6.871   3.074   0.333  0.1026 -0.1771  0.1552
 6171TIP3    H140072   6.802   3.128   0.372  0.0646  0.0520 -0.2231
 6171TIP3    H240073   6.862   3.088   0.239  1.1599  0.4937  0.1286
 6172TIP3   OH240074   2.630   4.677   1.018 -0.1257 -0.2254 -0.1498
 6172TIP3    H140075   2.626   4.698   1.112 -1.4685  0.5192 -0.3424
 6172TIP3    H240076   2.688   4.602   1.013  1.4537  0.8470  1.0810
 6173TIP3   OH240077   6.344   1.515   7.861 -0.2930  0.2525  0.1665
 6173TIP3    H140078   6.259   1.548   7.891 -1.5356 -1.1170 -1.5904
 6173TIP3    H240079   6.338   1.420   7.871  0.4403  0.0196 -1.3005
 6174TIP3   OH240080   0.622   3.237   0.476 -0.4369  0.6818 -0.2502
 6174TIP3    H140081   0.592   3.186   0.551 -1.4212 -0.2670 -1.2386
 6174TIP3    H240082   0.687   3.297   0.512 -0.4203 -0.1735  1.2398
 6175TIP3   OH240083   0.076   5.789   1.496  0.0908 -0.1952 -0.3576
 6175TIP3    H140084   0.147   5.757   1.551  2.1450  0.4424 -2.4572
 6175TIP3    H240085   0.099   5.880   1.477 -2.0436  0.4837 -0.0453
 6176TIP3   OH240086   0.230   6.205   1.839  1.2722 -0.3241 -0.3849
 6176TIP3    H140087   0.289   6.130   1.847 -0.3345 -1.5241  1.2381
 6176TIP3    H240088   0.195   6.217   1.928 -0.7644  0.4308 -1.2302
 6177TIP3   OH240089   5.232   4.723   2.111  0.0952  0.0018  0.4395
 6177TIP3    H140090   5.189   4.687   2.188 -2.3267  0.2974 -0.6866
 6177TIP3    H240091   5.243   4.648   2.052 -0.5071  0.2288  0.0287
 6178TIP3   OH240092   2.766   1.014   6.088  0.2291 -0.3766  0.3203
 6178TIP3    H140093   2.852   1.011   6.045  0.0861  2.1612 -0.2795
 6178TIP3    H240094   2.775   1.080   6.156 -1.6507  1.1508 -0.8071
 6179TIP3   OH240095   2.723   4.344   1.857  0.0927  0.1884 -0.1927
 6179TIP3    H140096   2.782   4.269   1.862  0.5733  0.5641 -0.1985
 6179TIP3    H240097   2.674   4.341   1.940 -0.6098 -0.7102 -0.6215
 6180TIP3   OH240098   3.441   5.697   1.730  0.1347 -0.1170  0.0657
 6180TIP3    H140099   3.391   5.714   1.810 -1.7511  0.2786 -1.1385
 6180TIP3    H240100   3.410   5.612   1.699 -0.0628  0.2799 -0.8761
 6181TIP3   OH240101   6.075   5.956   6.922 -0.1377 -0.6282 -0.2328
 6181TIP3    H140102   6.056   5.863   6.907 -1.5399 -0.3299 -0.4404
 6181TIP3    H240103   5.997   5.989   6.967  1.5440 -0.1784  2.5504
 6182TIP3   OH240104   2.658   1.480   0.013  0.5624  0.3869  0.0597
 6182TIP3    H140105   2.586   1.542   0.002  1.7451  1.9768  0.8596
 6182TIP3    H240106   2.637   1.408  -0.046 -0.9047  1.5035 -0.8528
 6183TIP3   OH240107   2.828   1.475   2.214  0.0655 -0.2643  0.4291
 6183TIP3    H140108   2.822   1.543   2.280 -2.0732  2.1313 -1.9894
 6183TIP3    H240109   2.742   1.431   2.217 -0.4112  0.4666 -1.2256
 6184TIP3   OH240110   6.847   2.873   0.560 -0.6621  0.3938 -0.1108
 6184TIP3    H140111   6.910   2.806   0.588 -1.9281  0.5185  3.5564
 6184TIP3    H240112   6.902   2.943   0.525  1.0220 -0.6455  0.2965
 6185TIP3   OH240113   5.759   1.996   7.347  0.4146 -0.5913 -0.0604
 6185TIP3    H140114   5.787   1.912   7.311  2.6287 -0.0284  0.1942
 6185TIP3    H240115   5.840   2.046   7.358 -0.8879  2.0239 -1.2605
 6186TIP3   OH240116   3.492   2.029   0.241  0.1053  0.6022  0.3758
 6186TIP3    H140117   3.570   2.077   0.216 -0.0256 -0.3444 -2.1418
 6186TIP3    H240118   3.420   2.078   0.200 -0.3577  0.0379  0.5054
 6187TIP3   OH240119   0.603   3.120   0.718  0.2770 -0.4860 -0.0347
 6187TIP3    H140120   0.568   3.032   0.702  2.4906 -1.7128  1.3959
 6187TIP3    H240121   0.552   3.153   0.792 -1.2292 -0.1063 -1.1932
 6188TIP3   OH240122   2.371   1.778   6.660  0.4186 -0.0329 -0.5576
 6188TIP3    H140123   2.420   1.785   6.741 -0.9318  0.2689  0.2593
 6188TIP3    H240124   2.433   1.801   6.592  1.7906 -1.0444  0.3055
 6189TIP3   OH240125   5.315   6.140   1.771 -0.3138  0.5800  0.5467
 6189TIP3    H140126   5.243   6.077   1.775  0.0257  0.2484  2.2004
 6189TIP3    H240127   5.390   6.088   1.742 -0.0902  0.2534  1.6712
 6190TIP3   OH240128   1.055   1.365   1.523 -0.1076  0.1855  0.0499
 6190TIP3    H140129   1.065   1.453   1.486  2.6289  0.0658  0.3490
 6190TIP3    H240130   0.966   1.340   1.498 -0.4064  2.3810 -1.4533
 6191TIP3   OH240131   6.540   2.395   1.746  0.4165 -0.0641  0.1486
 6191TIP3    H140132   6.556   2.337   1.820  1.0435  0.2734  0.2774
 6191TIP3    H240133   6.584   2.477   1.769  0.3904  0.1311 -0.4782
 6192TIP3   OH240134   4.468   1.445   0.534  1.1042  0.0516 -0.2838
 6192TIP3    H140135   4.407   1.426   0.606  1.3498 -0.3355 -0.1759
 6192TIP3    H240136   4.479   1.361   0.489  1.7832  0.0541 -0.1304
 6193TIP3   OH240137   1.691   2.621   1.776 -0.1254 -0.1618 -0.0643
 6193TIP3    H140138   1.710   2.696   1.831 -1.0712 -1.3403  1.9856
 6193TIP3    H240139   1.692   2.656   1.687  0.1057  2.1246  0.7671
 6194TIP3   OH240140   3.521   4.318   0.932 -0.0711  0.3018 -0.3392
 6194TIP3    H140141   3.564   4.249   0.983  0.1212  0.9181  0.3580
 6194TIP3    H240142   3.558   4.400   0.967  0.4732  0.7380 -1.8426
 6195TIP3   OH240143   3.852   2.111   0.998  0.4714 -0.3930  0.0660
 6195TIP3    H140144   3.911   2.123   0.924  0.4318 -0.7234 -0.0183
 6195TIP3    H240145   3.772   2.077   0.960 -0.8019  2.5886 -0.2149
 6196TIP3   OH240146   0.403   5.165   1.750  0.3097  0.4865 -0.3005
 6196TIP3    H140147   0.414   5.116   1.832  3.0659  0.5872 -0.4983
 6196TIP3    H240148   0.489   5.160   1.708 -1.1624 -0.1024 -3.5403
 6197TIP3   OH240149   6.788   0.718   8.106  0.0212 -0.0856  0.0445
 6197TIP3    H140150   6.772   0.729   8.012  0.1653 -1.2092 -0.1222
 6197TIP3    H240151   6.751   0.633   8.127 -0.4751  0.3796  1.1290
 6198TIP3   OH240152   4.479   5.736   6.808 -0.2983  0.8079 -0.2363
 6198TIP3    H140153   4.546   5.688   6.758 -1.9229 -0.6285 -1.1328
 6198TIP3    H240154   4.528   5.778   6.879  1.4702 -0.7079 -0.4723
 6199TIP3   OH240155   5.836   3.771   7.107  0.3640  0.1631  0.1327
 6199TIP3    H140156   5.793   3.686   7.104  0.1056  0.2664  0.7234
 6199TIP3    H240157   5.841   3.799   7.015 -2.0364  0.7496  0.1132
 6200TIP3   OH240158   5.107   6.569   0.422 -0.2581  0.2006  0.0650
 6200TIP3    H140159   5.057   6.649   0.440  0.1300  0.5087 -0.2423
 6200TIP3    H240160   5.194   6.599   0.398  0.6264 -0.3764  2.2692
 6201TIP3   OH240161   4.856   1.765   7.662  0.0307  0.3246 -0.8043
 6201TIP3    H140162   4.792   1.792   7.727 -1.0665 -0.3395 -1.5595
 6201TIP3    H240163   4.899   1.846   7.635  0.2197  0.6533  0.4258
 6202TIP3   OH240164   0.101   3.820   7.278  0.0972  0.1353 -0.2126
 6202TIP3    H140165   0.009   3.812   7.253 -0.4235 -0.2723  1.6547
 6202TIP3    H240166   0.139   3.878   7.213 -2.0172  2.1343  0.2139
 6203TIP3   OH240167   3.887   5.058   6.398 -0.2017 -1.0055 -0.3944
 6203TIP3    H140168   3.806   5.107   6.412 -0.1360 -0.8202 -0.6697
 6203TIP3    H240169   3.944   5.086   6.469 -0.1778 -0.7122 -0.5296
 6204TIP3   OH240170   6.127   6.776   0.839  0.5935  0.4158 -0.2697
 6204TIP3    H140171   6.092   6.865   0.845 -0.0158  0.3519 -2.3985
 6204TIP3    H240172   6.205   6.784   0.785 -1.2773 -0.7370 -3.3840
 6205TIP3   OH240173   6.926   0.048   7.160 -0.0020 -0.2307 -0.3193
 6205TIP3    H140174   6.991   0.073   7.094 -1.4341  1.3259 -1.2361
 6205TIP3    H240175   6.908   0.129   7.208 -1.2311 -0.6225 -0.0672
 6206TIP3   OH240176   5.009   4.485   0.496  0.1455  0.1476  0.2117
 6206TIP3    H140177   4.984   4.543   0.424 -1.7932 -0.6088  0.2131
 6206TIP3    H240178   4.941   4.499   0.562 -0.9489 -2.7396 -0.1528
 6207TIP3   OH240179   6.801   5.134   0.873  0.4731  0.0992 -0.6025
 6207TIP3    H140180   6.882   5.125   0.924 -0.3032  0.8724  0.8140
 6207TIP3    H240181   6.731   5.135   0.938 -0.4601  3.1582 -1.4733
 6208TIP3   OH240182   5.141   3.096   0.952  0.6003 -0.5773 -0.5559
 6208TIP3    H140183   5.057   3.073   0.991  0.9220 -2.0598 -0.6635
 6208TIP3    H240184   5.168   3.017   0.905  2.9661 -0.8357  1.0662
 6209TIP3   OH240185   6.098   1.614   7.329 -0.2298  0.1547 -0.2075
 6209TIP3    H140186   6.039   1.557   7.378  1.1249  0.0217  1.3566
 6209TIP3    H240187   6.155   1.554   7.281  1.2755  0.1175  1.5349
 6210TIP3   OH240188   6.815   1.610   0.994 -0.7059 -0.1176  0.9178
 6210TIP3    H140189   6.822   1.609   0.899  0.2124  0.5186  0.9598
 6210TIP3    H240190   6.903   1.634   1.024 -1.3875  1.3535  1.8684
 6211TIP3   OH240191   2.504   2.602   2.239 -0.3726 -0.6469  0.0022
 6211TIP3    H140192   2.454   2.530   2.278 -0.2879 -0.7454 -0.0681
 6211TIP3    H240193   2.594   2.588   2.270 -0.7119  0.6328  1.7217
 6212TIP3   OH240194   1.982   6.040   0.377  0.2746  0.2892 -0.3063
 6212TIP3    H140195   1.916   6.001   0.435  0.6515  1.6784  1.1169
 6212TIP3    H240196   1.947   6.127   0.356  1.3270  0.7748 -0.1024
 6213TIP3   OH240197   2.915   0.020   7.663 -0.7820 -0.0261  0.1690
 6213TIP3    H140198   2.910   0.109   7.698 -0.8654 -0.1418  0.4522
 6213TIP3    H240199   2.911  -0.036   7.740  0.9394 -0.2367  0.1472
 6214TIP3   OH240200   0.913   6.433   7.098  0.0754 -0.4391 -0.0410
 6214TIP3    H140201   0.956   6.461   7.179 -1.4736 -0.6074  0.8928
 6214TIP3    H240202   0.825   6.471   7.104  0.0330 -0.1833 -1.8241
 6215TIP3   OH240203   0.136   5.583   7.513  0.3000 -0.3743 -0.0438
 6215TIP3    H140204   0.171   5.672   7.520 -1.1573  0.3868 -1.5849
 6215TIP3    H240205   0.193   5.540   7.449  1.3609 -0.7846  1.1304
 6216TIP3   OH240206   4.759   4.323   1.051  0.1671 -0.6662 -0.1496
 6216TIP3    H140207   4.679   4.271   1.065  0.1092 -0.7284 -0.6935
 6216TIP3    H240208   4.801   4.325   1.137  1.0508 -3.0868 -0.4270
 6217TIP3   OH240209   3.198   5.406   1.231  0.6121  0.1180  0.4670
 6217TIP3    H140210   3.233   5.446   1.310 -0.7655  0.2009  1.0683
 6217TIP3    H240211   3.141   5.473   1.193  2.6641  0.7756 -1.6551
 6218TIP3   OH240212   0.036   3.878   2.184  0.1518 -0.1871  0.9795
 6218TIP3    H140213  -0.048   3.881   2.230 -0.8196 -1.1315 -0.6561
 6218TIP3    H240214   0.013   3.882   2.092  1.7347 -2.8020  0.3789
 6219TIP3   OH240215   6.483   1.908   6.038  0.0828  0.8408 -0.3325
 6219TIP3    H140216   6.446   1.832   5.993 -0.5073  0.5727  0.5580
 6219TIP3    H240217   6.428   1.982   6.010 -0.9940  0.4954  0.7380
 6220TIP3   OH240218   0.565   4.859   1.239 -0.0058  0.4483 -0.1600
 6220TIP3    H140219   0.591   4.886   1.327 -2.6897 -0.7155  1.1175
 6220TIP3    H240220   0.614   4.778   1.223  0.1509  0.4184  0.4579
 6221TIP3   OH240221   5.623   5.211   0.025 -0.0880  0.1999  0.4833
 6221TIP3    H140222   5.532   5.182   0.030 -0.2163  0.7273  1.8967
 6221TIP3    H240223   5.624   5.294   0.074  0.7629  1.2489 -1.2161
 6222TIP3   OH240224   0.005   0.256   0.378  0.3242  0.1251 -0.5692
 6222TIP3    H140225   0.059   0.275   0.455  0.3026 -0.5912 -0.3703
 6222TIP3    H240226  -0.041   0.338   0.361  0.3346  0.3004  0.1772
 6223TIP3   OH240227   0.052   0.164   7.667  0.6274 -0.4185 -0.0078
 6223TIP3    H140228   0.037   0.190   7.758 -2.0658 -0.4119 -0.3710
 6223TIP3    H240229  -0.035   0.145   7.633  1.5318 -0.1857 -2.6808
 6224TIP3   OH240230   2.945   6.631   0.484  0.0924 -0.1193 -0.2986
 6224TIP3    H140231   3.006   6.573   0.530 -1.4281 -1.6302 -0.0902
 6224TIP3    H240232   2.866   6.631   0.538 -0.3598  1.2640 -0.8990
 6225TIP3   OH240233   3.206   6.814   2.042  0.1167 -0.0991 -0.2261
 6225TIP3    H140234   3.145   6.746   2.070 -1.4529  0.5194 -1.9331
 6225TIP3    H240235   3.262   6.771   1.977 -1.7442  0.4271 -2.3287
 6226TIP3   OH240236   2.842   5.800   7.105  0.2383  0.3870  0.2248
 6226TIP3    H140237   2.904   5.727   7.100  0.6318  0.8235 -2.3268
 6226TIP3    H240238   2.889   5.868   7.154  1.1449  0.0924 -0.2158
 6227TIP3   OH240239   6.045   3.712   6.480 -0.1728 -0.4391 -0.4116
 6227TIP3    H140240   5.969   3.709   6.538  0.5030 -1.3579  0.4810
 6227TIP3    H240241   6.083   3.798   6.494  0.3558 -0.8755  1.0624
 6228TIP3   OH240242   5.128   3.781   0.996  0.0795  0.2341  0.2289
 6228TIP3    H140243   5.172   3.783   0.910 -1.3869 -1.6791 -0.6293
 6228TIP3    H240244   5.189   3.734   1.053  0.5477  0.4537 -0.0856
 6229TIP3   OH240245   6.779   5.755   7.353 -0.9117  0.1954  0.0099
 6229TIP3    H140246   6.819   5.823   7.407 -0.8718  0.7216 -0.6607
 6229TIP3    H240247   6.835   5.679   7.364  0.1054  0.8217 -0.6529
 6230TIP3   OH240248   3.616   5.766   7.455  0.1053 -0.2121  0.2174
 6230TIP3    H140249   3.546   5.739   7.513 -2.5478  1.5784 -1.9106
 6230TIP3    H240250   3.661   5.685   7.432 -1.3044 -1.4472  1.6046
 6231TIP3   OH240251   6.164   0.841   6.919 -0.4458 -0.2522 -0.3189
 6231TIP3    H140252   6.113   0.797   6.851 -1.1051 -0.5217  0.3256
 6231TIP3    H240253   6.098   0.873   6.980  0.0678  1.0749 -0.4399
 6232TIP3   OH240254   6.659   1.575   7.825  0.5364 -0.0458 -0.4671
 6232TIP3    H140255   6.596   1.510   7.857  1.1454 -0.8702 -0.9146
 6232TIP3    H240256   6.744   1.536   7.843  0.9127 -0.5024 -2.9494
 6233TIP3   OH240257   4.217   2.104   0.228 -0.0225 -0.1780 -0.6047
 6233TIP3    H140258   4.251   2.016   0.211  0.3006  0.4883 -3.9952
 6233TIP3    H240259   4.287   2.147   0.278  0.5562 -1.2845 -0.4315
 6234TIP3   OH240260   5.682   0.211   7.871 -0.4324  0.4778  0.3334
 6234TIP3    H140261   5.682   0.131   7.818 -1.5219  0.7197 -0.0630
 6234TIP3    H240262   5.718   0.184   7.956 -1.3245 -0.5646  0.4016
 6235TIP3   OH240263   2.389   4.935   1.140  0.3725  0.2224 -0.0355
 6235TIP3    H140264   2.410   4.862   1.199 -2.6437  0.2805  1.3202
 6235TIP3    H240265   2.368   4.893   1.057  0.6230 -0.2434  0.1287
 6236TIP3   OH240266   6.283   5.443   0.763  0.3021 -0.0935  0.5689
 6236TIP3    H140267   6.216   5.375   0.766  0.5788 -0.3322  1.6429
 6236TIP3    H240268   6.364   5.397   0.785  0.5001  0.5602  1.2396
 6237TIP3   OH240269   5.490   6.307   7.462  0.2044 -0.6665 -0.2672
 6237TIP3    H140270   5.568   6.362   7.461 -0.4744  0.3289  0.2984
 6237TIP3    H240271   5.511   6.235   7.521  0.2448  0.2878  0.9057
 6238TIP3   OH240272   0.654   1.101   7.041  0.1953  0.3728  0.0341
 6238TIP3    H140273   0.559   1.116   7.032  0.1113 -0.8943 -1.6923
 6238TIP3    H240274   0.662   1.043   7.117 -0.1965  2.0432  1.4236
 6239TIP3   OH240275   6.841   5.651   1.440 -0.1819 -0.4445 -0.1213
 6239TIP3    H140276   6.850   5.570   1.391 -0.6600  0.0080 -0.9719
 6239TIP3    H240277   6.927   5.665   1.480  0.3495 -0.5875 -1.1919
 6240TIP3   OH240278   4.341   5.397   7.995 -0.3041  0.2437 -0.5596
 6240TIP3    H140279   4.255   5.429   8.022 -0.3442  0.1929 -0.6279
 6240TIP3    H240280   4.330   5.303   7.984  0.0780  0.0385  0.6750
 6241TIP3   OH240281   0.286   6.554   1.384  0.6658  0.0195  0.1173
 6241TIP3    H140282   0.335   6.561   1.466 -0.0675  0.0897  0.5576
 6241TIP3    H240283   0.201   6.594   1.403  0.9596  1.2718 -1.0863
 6242TIP3   OH240284   5.073   6.211   7.448  0.1564 -0.0634 -0.0157
 6242TIP3    H140285   5.011   6.272   7.487 -0.8617 -0.6735 -0.6234
 6242TIP3    H240286   5.150   6.215   7.504 -0.2696  1.0386  0.5073
 6243TIP3   OH240287   5.119   5.791   0.946  0.1542  0.1088 -0.0465
 6243TIP3    H140288   5.025   5.807   0.952  0.4406  1.4923  1.8137
 6243TIP3    H240289   5.130   5.703   0.983 -0.4407 -0.3309 -0.8708
 6244TIP3   OH240290   2.638   2.482   7.304 -0.3212 -0.3681  0.2725
 6244TIP3    H140291   2.652   2.403   7.253  1.0193 -0.3647  0.6180
 6244TIP3    H240292   2.605   2.451   7.389 -0.3648 -0.5085  0.2040
 6245TIP3   OH240293   4.116   0.603   1.377 -0.3059 -0.4942  0.7349
 6245TIP3    H140294   4.101   0.559   1.293 -0.6059  0.5403  0.2211
 6245TIP3    H240295   4.031   0.642   1.398 -0.3714 -1.1772  1.7934
 6246TIP3   OH240296   4.938   0.069   7.480 -0.2486  0.0502 -0.1592
 6246TIP3    H140297   4.887  -0.012   7.489 -1.2840  0.6953 -0.0557
 6246TIP3    H240298   4.874   0.134   7.450  0.2192  1.2199  1.2885
 6247TIP3   OH240299   4.283   4.978   1.970  0.0250 -0.1418 -0.5909
 6247TIP3    H140300   4.314   4.895   1.935  0.7040  0.3243 -1.1115
 6247TIP3    H240301   4.219   4.953   2.037  0.3133 -1.0819 -0.6497
 6248TIP3   OH240302   5.409   0.550   0.409 -0.1983 -0.3753 -0.7250
 6248TIP3    H140303   5.421   0.644   0.416  2.7898 -0.7705  1.2599
 6248TIP3    H240304   5.440   0.528   0.321  1.2985  0.2870 -0.3896
 6249TIP3   OH240305   1.363   4.712   7.110 -0.3505 -0.5615  0.6007
 6249TIP3    H140306   1.356   4.788   7.052 -3.4392 -0.5152  0.8700
 6249TIP3    H240307   1.397   4.642   7.055  1.0241  0.5806 -0.0550
 6250TIP3   OH240308   4.237   5.480   6.725  0.5363  0.3834  0.1381
 6250TIP3    H140309   4.262   5.410   6.784  1.0035 -0.7826 -1.3872
 6250TIP3    H240310   4.142   5.474   6.718  0.4967  0.4246  0.6287
 6251TIP3   OH240311   5.023   5.065   6.566 -0.6243 -0.3347  0.1912
 6251TIP3    H140312   5.073   5.123   6.508 -1.4345 -0.9070 -1.1300
 6251TIP3    H240313   4.990   5.123   6.635 -1.0005  0.7039 -0.8177
 6252TIP3   OH240314   0.711   4.190   8.272 -0.0960 -0.1901  0.0174
 6252TIP3    H140315   0.791   4.138   8.272 -0.9370 -1.5940 -1.3098
 6252TIP3    H240316   0.737   4.275   8.236  0.5894 -1.0429 -1.6199
 6253TIP3   OH240317   6.659   3.056   8.050 -0.0990  0.8323  0.2264
 6253TIP3    H140318   6.609   3.034   8.129 -1.1376  0.2476 -0.5589
 6253TIP3    H240319   6.743   3.089   8.082 -0.5695  0.7675  1.5690
 6254TIP3   OH240320   1.022   6.894   0.403  0.2345 -0.3108 -0.8220
 6254TIP3    H140321   0.995   6.851   0.322 -1.6893 -0.0223 -0.3843
 6254TIP3    H240322   1.093   6.954   0.376  1.7746 -2.4044 -1.7230
 6255TIP3   OH240323   5.289   3.650   7.113  0.7621  0.0338 -0.5440
 6255TIP3    H140324   5.352   3.578   7.111  0.9579 -0.0897  3.1660
 6255TIP3    H240325   5.214   3.614   7.161  0.2198  1.8258  0.0158
 6256TIP3   OH240326   2.271   0.195   1.481 -0.2919 -0.7279  0.3119
 6256TIP3    H140327   2.284   0.252   1.557 -0.1199  0.1779 -0.3728
 6256TIP3    H240328   2.306   0.110   1.508  1.4038  0.0315  0.6405
 6257TIP3   OH240329   4.719   4.815   6.789  0.2384  0.2269 -0.3603
 6257TIP3    H140330   4.653   4.793   6.854  1.3040 -1.8257  0.0915
 6257TIP3    H240331   4.759   4.896   6.823 -1.0616  0.7288  0.0536
 6258TIP3   OH240332   0.268   6.934   7.224  0.1661 -0.2857  0.1649
 6258TIP3    H140333   0.239   6.885   7.301  1.8229  0.1983  1.1520
 6258TIP3    H240334   0.306   6.868   7.166 -1.7641 -0.7563 -0.6143
 6259TIP3   OH240335   0.212   1.875   0.277 -0.0541  0.5157 -0.7898
 6259TIP3    H140336   0.253   1.878   0.191  0.5963 -0.1336 -0.5125
 6259TIP3    H240337   0.233   1.788   0.310 -0.5712  0.6424 -0.1012
 6260TIP3   OH240338   2.067   2.628   7.385  0.0311  0.2239 -0.3600
 6260TIP3    H140339   2.080   2.703   7.327 -1.3108 -0.3721 -1.4739
 6260TIP3    H240340   1.977   2.600   7.369 -0.9583  0.9214  3.0999
 6261TIP3   OH240341   1.704   6.070   0.138 -0.4092 -0.6515  0.4342
 6261TIP3    H140342   1.780   6.059   0.080 -0.8166 -0.2752 -0.1871
 6261TIP3    H240343   1.725   6.148   0.189 -0.2467 -0.7142  0.4632
 6262TIP3   OH240344   4.379   3.516   0.811 -0.2943 -0.0321  0.5008
 6262TIP3    H140345   4.450   3.453   0.818  0.7855  1.1841  0.9816
 6262TIP3    H240346   4.416   3.598   0.844 -1.8642  0.6910  0.5876
 6263TIP3   OH240347   3.711   2.974   1.880 -0.0788  0.4224  0.2575
 6263TIP3    H140348   3.693   2.932   1.796  0.9283 -0.7833  0.6181
 6263TIP3    H240349   3.652   2.931   1.942 -1.0890  1.5687  0.1279
 6264TIP3   OH240350   4.785   1.649   8.044  0.1980 -0.2632  0.1239
 6264TIP3    H140351   4.757   1.581   8.105 -0.9291  0.2894  0.2462
 6264TIP3    H240352   4.705   1.675   7.998  0.9408 -0.3472 -1.2815
 6265TIP3   OH240353   1.149   6.721   6.933 -0.1770  0.3478 -0.9296
 6265TIP3    H140354   1.068   6.720   6.985 -0.4997  1.2080 -1.4040
 6265TIP3    H240355   1.152   6.808   6.895  0.6309  0.0924 -1.4739
 6266TIP3   OH240356   3.005   2.888   0.415 -0.4314  0.0599  0.7236
 6266TIP3    H140357   2.948   2.812   0.429  1.4960 -1.0358  3.8568
 6266TIP3    H240358   2.954   2.962   0.448 -0.9179 -0.5411  1.3703
 6267TIP3   OH240359   2.664   0.838   0.353 -0.2278 -0.1503  0.6485
 6267TIP3    H140360   2.618   0.773   0.301  0.5425  0.9066 -1.4552
 6267TIP3    H240361   2.719   0.786   0.412 -0.3354 -1.3964 -0.2995
 6268TIP3   OH240362   0.766   6.073   0.359  0.6828 -0.4185 -0.2235
 6268TIP3    H140363   0.764   5.990   0.311  0.3393 -0.0619 -0.8411
 6268TIP3    H240364   0.677   6.108   0.352  0.2910 -0.9398  1.7461
 6269TIP3   OH240365   6.646   0.869   7.245  0.3698 -0.5445 -0.0685
 6269TIP3    H140366   6.586   0.933   7.284  0.4186  0.5662 -1.7178
 6269TIP3    H240367   6.659   0.900   7.156  1.3955 -2.1950 -0.5339
 6270TIP3   OH240368   1.674   5.801   7.737  0.1361 -0.8385 -0.2807
 6270TIP3    H140369   1.656   5.711   7.764  0.9937 -0.7609  0.6133
 6270TIP3    H240370   1.700   5.794   7.645 -0.2438 -1.4476 -0.3460
 6271TIP3   OH240371   3.945   6.439   8.296 -0.3536  0.3721  0.1205
 6271TIP3    H140372   3.894   6.399   8.367  0.4426  0.6598  0.8666
 6271TIP3    H240373   3.904   6.406   8.216 -0.5248 -0.8988  0.7138
 6272TIP3   OH240374   3.948   4.489   7.177 -0.5352  0.5008 -0.2966
 6272TIP3    H140375   3.966   4.494   7.083 -0.5534  1.3669 -0.2651
 6272TIP3    H240376   3.863   4.445   7.183 -0.5284  0.4297 -0.6841
 6273TIP3   OH240377   4.885   2.113   2.117  0.3212 -0.1518 -0.3172
 6273TIP3    H140378   4.901   2.187   2.059  0.6588  0.7060  0.8431
 6273TIP3    H240379   4.970   2.093   2.155  0.3501 -1.5033 -1.0084
 6274TIP3   OH240380   6.854   0.714   1.293  0.0445 -0.1971  0.1921
 6274TIP3    H140381   6.949   0.701   1.285  0.2760  0.7852  1.1118
 6274TIP3    H240382   6.825   0.736   1.204  0.8779  0.6760  0.1270
 6275TIP3   OH240383   5.423   1.832   8.118 -0.3989  0.1615 -0.2370
 6275TIP3    H140384   5.469   1.915   8.130 -2.0435  0.9712  0.9496
 6275TIP3    H240385   5.452   1.799   8.033  2.3853  0.5506  0.4711
 6276TIP3   OH240386   1.822   0.371   1.118 -0.2818 -0.5861  0.6168
 6276TIP3    H140387   1.790   0.305   1.057  0.6694  0.7916 -1.4782
 6276TIP3    H240388   1.780   0.452   1.089  2.8263  0.7625 -0.4749
 6277TIP3   OH240389   5.425   6.329   0.424 -0.1467 -0.0748 -0.0425
 6277TIP3    H140390   5.490   6.258   0.423 -2.0696 -1.9546 -1.1385
 6277TIP3    H240391   5.392   6.332   0.334 -2.5599 -0.2247  0.7686
 6278TIP3   OH240392   6.192   1.793   2.443  0.4155  0.4151 -0.1238
 6278TIP3    H140393   6.171   1.863   2.381 -1.3490  1.3631  1.4416
 6278TIP3    H240394   6.270   1.823   2.489 -0.4440  1.5146  0.6801
 6279TIP3   OH240395   6.757   6.949   6.940 -0.2637  0.2270  0.1334
 6279TIP3    H140396   6.814   6.938   7.017 -1.5750 -2.4781  0.8396
 6279TIP3    H240397   6.815   6.980   6.871  1.4950  0.2121  1.5394
 6280TIP3   OH240398   4.483   1.195   0.435 -0.7322  0.1096  0.0942
 6280TIP3    H140399   4.456   1.108   0.405  0.0294 -0.1942  0.2808
 6280TIP3    H240400   4.513   1.239   0.355  1.2516 -0.6844  0.3522
 6281TIP3   OH240401   4.725   0.903   7.556 -0.3929 -0.0620  0.1199
 6281TIP3    H140402   4.664   0.876   7.487 -1.0522  0.1146  0.6262
 6281TIP3    H240403   4.714   0.998   7.561  0.3719  0.0484 -0.1974
 6282TIP3   OH240404   4.598   1.480   1.370 -0.2985  0.3020  0.1155
 6282TIP3    H140405   4.560   1.489   1.458  0.5894  0.7458  0.4731
 6282TIP3    H240406   4.691   1.464   1.386 -0.3551 -1.0238 -0.7314
 6283TIP3   OH240407   5.082   2.285   1.317  0.1941 -0.0736 -0.2284
 6283TIP3    H140408   5.094   2.291   1.223  0.2955  0.4363 -0.1863
 6283TIP3    H240409   5.054   2.195   1.332 -1.2154  0.2168 -0.9072
 6284TIP3   OH240410   1.722   5.208   0.592 -0.1792 -0.2314 -0.3165
 6284TIP3    H140411   1.627   5.205   0.604 -0.4280  0.1501 -1.9374
 6284TIP3    H240412   1.750   5.117   0.594 -0.2765 -0.2750  1.9927
 6285TIP3   OH240413   0.152   5.560   1.223  0.0505 -0.5116  0.1942
 6285TIP3    H140414   0.103   5.629   1.269 -0.6178 -1.5092  1.0532
 6285TIP3    H240415   0.087   5.518   1.167  0.7670  0.4131 -1.3708
 6286TIP3   OH240416   3.045   1.922   0.819 -0.3965  0.2217 -0.0421
 6286TIP3    H140417   3.109   1.986   0.790  0.0655 -0.2190 -0.0167
 6286TIP3    H240418   3.083   1.837   0.794 -1.8164  0.0182 -1.7342
 6287TIP3   OH240419   6.699   5.658   2.062  0.0958 -0.6646 -0.0023
 6287TIP3    H140420   6.749   5.615   2.132  0.3186 -0.0621  0.2223
 6287TIP3    H240421   6.683   5.746   2.096 -0.3062 -0.5574 -0.4716
 6288TIP3   OH240422   2.883   6.093   6.603  0.3009  0.4748  0.1496
 6288TIP3    H140423   2.958   6.040   6.575  0.2951  1.1457 -1.2114
 6288TIP3    H240424   2.839   6.039   6.668  0.6926 -0.9068 -0.6893
 6289TIP3   OH240425   4.848   2.330   0.467  0.6375  0.3800 -0.1407
 6289TIP3    H140426   4.929   2.294   0.430  0.3838 -0.0436 -0.2944
 6289TIP3    H240427   4.780   2.269   0.438  0.2303  0.8646 -0.2085
 6290TIP3   OH240428   6.746   4.670   0.843  0.1589 -0.0545 -0.3473
 6290TIP3    H140429   6.747   4.577   0.821 -0.4496 -0.3127  0.6675
 6290TIP3    H240430   6.664   4.703   0.807 -0.2029 -0.1899  0.3240
 6291TIP3   OH240431   6.704   3.364   1.827  0.2392  0.4659 -0.4392
 6291TIP3    H140432   6.641   3.412   1.881 -0.1461  0.3999 -0.8278
 6291TIP3    H240433   6.652   3.329   1.754  0.4141 -0.9147  0.0552
 6292TIP3   OH240434   3.880   3.444   7.694 -0.1257 -0.0732 -0.3261
 6292TIP3    H140435   3.876   3.536   7.720 -0.5950  0.2586 -1.5365
 6292TIP3    H240436   3.852   3.443   7.603  1.4405 -1.2163 -0.8377
 6293TIP3   OH240437   6.899   4.179   2.064  0.5968 -0.0614 -0.2241
 6293TIP3    H140438   6.883   4.153   2.155 -1.7276 -0.8731 -0.7875
 6293TIP3    H240439   6.849   4.260   2.053  0.3607 -0.2941 -0.9290
 6294TIP3   OH240440   2.237   4.548   6.703  0.4180  0.1721  0.2407
 6294TIP3    H140441   2.316   4.531   6.652  0.2089 -1.5153  0.4127
 6294TIP3    H240442   2.268   4.558   6.793  0.3783 -1.4482  0.4581
 6295TIP3   OH240443   4.789   0.376   0.499 -0.4785  0.0141  0.0545
 6295TIP3    H140444   4.841   0.357   0.421  1.0870  1.4298  0.6777
 6295TIP3    H240445   4.713   0.423   0.467  0.2480  0.7540 -0.6309
 6296TIP3   OH240446   2.727   1.180   7.048 -0.2239 -0.1385 -0.0166
 6296TIP3    H140447   2.788   1.160   6.977 -0.2408 -1.4658  0.3286
 6296TIP3    H240448   2.771   1.149   7.127 -0.3771  0.9681  0.5275
 6297TIP3   OH240449   3.076   3.204   0.323 -0.0644 -0.5204 -0.3370
 6297TIP3    H140450   3.039   3.188   0.410 -0.1182 -0.5278 -0.3616
 6297TIP3    H240451   3.049   3.294   0.302  0.1249 -0.4431 -0.2560
 6298TIP3   OH240452   3.741   1.955   8.178  0.1604 -0.6856 -0.2104
 6298TIP3    H140453   3.733   2.040   8.134 -0.2014 -0.6836 -0.1434
 6298TIP3    H240454   3.743   1.891   8.107  2.2319 -0.5264 -0.3717
 6299TIP3   OH240455   1.180   1.056   0.519 -0.1702 -0.4947 -0.5911
 6299TIP3    H140456   1.167   1.130   0.459 -1.6326  0.0222  0.3219
 6299TIP3    H240457   1.245   1.087   0.582 -1.3953  0.3730  0.2942
 6300TIP3   OH240458   3.672   3.802   7.144 -0.1912  0.3929  0.8710
 6300TIP3    H140459   3.757   3.845   7.129 -1.0086  2.0893  0.9086
 6300TIP3    H240460   3.642   3.837   7.228 -1.8534  1.4182 -0.0990
 6301TIP3   OH240461   2.189   1.803   7.754 -0.4722  0.1505  0.5018
 6301TIP3    H140462   2.174   1.735   7.819 -1.0713 -0.3260 -0.1157
 6301TIP3    H240463   2.181   1.758   7.670  1.9416  0.3961  0.0742
 6302TIP3   OH240464   4.079   1.787   6.549  0.2095  0.5245 -0.5949
 6302TIP3    H140465   4.088   1.696   6.522  1.9808  0.9475 -1.5872
 6302TIP3    H240466   4.040   1.782   6.637 -0.1923 -1.1456 -0.8312
 6303TIP3   OH240467   2.695   3.343   1.978  0.7478  0.1749  0.4861
 6303TIP3    H140468   2.713   3.429   1.939  1.6001 -0.2170 -0.0330
 6303TIP3    H240469   2.782   3.304   1.989  0.4042 -0.3712  1.2933
 6304TIP3   OH240470   4.770   5.392   0.318  0.1709  0.3144  0.4625
 6304TIP3    H140471   4.801   5.346   0.240 -0.6566  1.1266 -0.3603
 6304TIP3    H240472   4.794   5.333   0.391 -2.0956 -2.1775 -0.6246
 6305TIP3   OH240473   6.453   0.544   7.933 -0.3321  0.0285  0.5380
 6305TIP3    H140474   6.426   0.568   8.021  0.1507 -0.5533  0.8574
 6305TIP3    H240475   6.411   0.459   7.918  0.0121 -0.1236  0.4201
 6306TIP3   OH240476   2.217   0.962   0.678 -0.6080 -0.1628 -0.7498
 6306TIP3    H140477   2.216   0.869   0.659  0.2600 -0.6346  1.2852
 6306TIP3    H240478   2.159   0.973   0.754 -0.4068  0.9000 -0.7248
 6307TIP3   OH240479   4.992   3.143   2.321 -0.6617 -0.0923  0.2585
 6307TIP3    H140480   4.933   3.150   2.397 -0.4525  2.0918  0.2623
 6307TIP3    H240481   4.955   3.071   2.270 -2.4868  0.2573  1.0002
 6308TIP3   OH240482   5.305   3.978   7.564 -0.5962 -0.1038  0.1349
 6308TIP3    H140483   5.320   4.071   7.551  1.9933 -0.3937  0.5283
 6308TIP3    H240484   5.376   3.935   7.514  0.1889 -1.7168  2.4678
 6309TIP3   OH240485   1.533   2.726   2.450  0.3453  0.4405 -0.0642
 6309TIP3    H140486   1.567   2.680   2.527  1.7155  1.9439  0.2871
 6309TIP3    H240487   1.610   2.748   2.398 -0.5230 -0.1818 -1.7016
 6310TIP3   OH240488   5.562   5.312   6.259 -0.0417 -0.0649  0.2414
 6310TIP3    H140489   5.607   5.329   6.342 -1.7188 -1.6151  1.5758
 6310TIP3    H240490   5.513   5.392   6.241  0.0293  0.1547  0.9873
 6311TIP3   OH240491   3.940   4.256   8.038  0.0767  0.1633  0.4569
 6311TIP3    H140492   4.005   4.190   8.062  0.7251  0.6892  0.1528
 6311TIP3    H240493   3.953   4.270   7.945 -0.8344 -0.1139  0.2745
 6312TIP3   OH240494   2.003   3.396   6.755  0.5204  0.2176 -0.7061
 6312TIP3    H140495   1.945   3.412   6.829  0.1928 -2.6673 -0.2334
 6312TIP3    H240496   2.091   3.391   6.793  0.2796 -1.9280 -0.3336
 6313TIP3   OH240497   4.759   5.952   7.636 -0.4625 -0.0678  0.1777
 6313TIP3    H140498   4.821   5.944   7.708  0.1366  1.0510 -0.1948
 6313TIP3    H240499   4.779   6.036   7.596 -0.4723 -0.8423 -1.5725
 6314TIP3   OH240500   1.381   1.647   0.109 -0.0534 -0.0011 -0.2038
 6314TIP3    H140501   1.470   1.643   0.146  0.1793 -0.5912 -0.8058
 6314TIP3    H240502   1.380   1.728   0.059 -0.0947  0.3764  0.4061
 6315TIP3   OH240503   3.900   4.691   7.421  0.2493 -0.1927  0.3687
 6315TIP3    H140504   3.935   4.630   7.356 -0.1987  0.6405 -0.6963
 6315TIP3    H240505   3.858   4.760   7.369 -0.7236  0.1585  1.5616
 6316TIP3   OH240506   3.992   1.666   8.123  0.1807 -0.3857  0.0207
 6316TIP3    H140507   3.979   1.606   8.197  0.5160 -0.2209  0.2171
 6316TIP3    H240508   4.041   1.740   8.160  1.9440 -1.1130 -0.7211
 6317TIP3   OH240509   3.730   6.677   1.469 -0.3385 -0.3304  0.1585
 6317TIP3    H140510   3.644   6.687   1.429 -0.0477  1.9552 -0.0041
 6317TIP3    H240511   3.761   6.592   1.438 -1.7068 -0.3012 -1.4114
 6318TIP3   OH240512   1.194   2.060   7.757 -0.4416  0.3722  0.2223
 6318TIP3    H140513   1.258   2.130   7.746 -0.3527  0.2411 -0.1196
 6318TIP3    H240514   1.109   2.102   7.744 -0.3253  0.0700 -2.0250
 6319TIP3   OH240515   3.181   6.597   1.124 -0.3520  0.3192 -0.2825
 6319TIP3    H140516   3.234   6.589   1.045 -1.3750  0.4323 -0.9923
 6319TIP3    H240517   3.231   6.656   1.181  1.8657 -2.0563  0.4419
 6320TIP3   OH240518   3.002   3.465   7.531  0.6412 -0.5821  0.4208
 6320TIP3    H140519   3.069   3.531   7.511  1.5336 -1.4127  0.5772
 6320TIP3    H240520   3.052   3.384   7.543 -0.4578 -1.3564 -0.0886
 6321TIP3   OH240521   4.203   2.389   7.594 -0.2000 -0.4561  0.3687
 6321TIP3    H140522   4.260   2.312   7.598 -0.2903 -0.4798  1.3897
 6321TIP3    H240523   4.168   2.398   7.683  2.0218  2.4498  1.1200
 6322TIP3   OH240524   1.853   4.953   7.975 -0.2159  0.2334 -0.2638
 6322TIP3    H140525   1.834   4.864   8.005  1.1795 -0.5985 -1.6630
 6322TIP3    H240526   1.906   4.991   8.045 -0.5155 -0.1600  0.1853
 6323TIP3   OH240527   3.011   4.310   0.735  0.4801 -0.2992 -0.0422
 6323TIP3    H140528   3.045   4.231   0.693  0.3229 -0.9214  0.9701
 6323TIP3    H240529   3.088   4.363   0.752  0.7529 -0.8285  0.4463
 6324TIP3   OH240530   0.848   0.433   1.405 -0.5204 -0.3524 -0.3685
 6324TIP3    H140531   0.839   0.345   1.368  0.3507 -0.6343  0.0452
 6324TIP3    H240532   0.852   0.418   1.500 -1.1467  0.2092 -0.2529
 6325TIP3   OH240533   2.579   6.347   8.163 -0.3312 -0.2834 -0.0293
 6325TIP3    H140534   2.655   6.370   8.217  0.4478 -1.6934 -0.4735
 6325TIP3    H240535   2.541   6.432   8.138  1.5930  0.4960 -0.4835
 6326TIP3   OH240536   3.491   6.978   2.690  0.5573 -0.3648 -0.1393
 6326TIP3    H140537   3.417   6.920   2.679 -1.2509  1.5899  0.9777
 6326TIP3    H240538   3.465   7.037   2.761  2.7597  1.0481 -0.3982
 6327TIP3   OH240539   6.740   3.822   0.517 -0.2706  0.5524 -0.2877
 6327TIP3    H140540   6.762   3.915   0.517 -1.4842  0.8489 -0.5530
 6327TIP3    H240541   6.662   3.815   0.573  0.4326 -0.4692  0.6140
 6328TIP3   OH240542   2.655   1.744   6.757  0.3914 -0.2661  0.0809
 6328TIP3    H140543   2.697   1.697   6.829  2.8158  0.3969 -0.8132
 6328TIP3    H240544   2.633   1.830   6.792  1.3211 -0.0394  0.1183
 6329TIP3   OH240545   4.951   1.591   2.240 -1.0378 -0.5692 -0.3169
 6329TIP3    H140546   4.877   1.618   2.186 -0.1073  2.7086 -0.1449
 6329TIP3    H240547   4.918   1.597   2.330 -0.7410  0.3983 -0.2639
 6330TIP3   OH240548   1.610   3.881   2.126 -0.3086 -0.1996  0.2958
 6330TIP3    H140549   1.558   3.958   2.104  0.2684 -0.1546 -0.9890
 6330TIP3    H240550   1.579   3.813   2.066  1.2265 -0.1098 -0.6577
 6331TIP3   OH240551   0.779   5.534   7.551 -0.3251  0.5032  0.1938
 6331TIP3    H140552   0.810   5.625   7.546  1.0316  0.0312 -0.5063
 6331TIP3    H240553   0.859   5.481   7.548 -1.0372 -0.7056  1.5658
 6332TIP3   OH240554   2.320   1.123   1.154  0.1585  0.1997 -0.2199
 6332TIP3    H140555   2.294   1.060   1.221  1.1823 -0.2302 -0.2158
 6332TIP3    H240556   2.359   1.070   1.084 -0.8856  0.6399 -1.1719
 6333TIP3   OH240557   2.868   6.859   7.283  0.3845  0.2818  0.1408
 6333TIP3    H140558   2.884   6.807   7.362  0.3544 -1.0739 -0.7125
 6333TIP3    H240559   2.938   6.833   7.223  1.0638  2.1233  0.0825
 6334TIP3   OH240560   1.384   6.758   2.037  0.4455 -0.1629  0.5222
 6334TIP3    H140561   1.325   6.685   2.018 -1.3530  1.4673 -0.4304
 6334TIP3    H240562   1.420   6.782   1.952  0.3780  0.5828  0.6967
 6335TIP3   OH240563   5.814   2.893   0.774 -0.0131 -0.2874  0.0638
 6335TIP3    H140564   5.772   2.808   0.774 -0.3186 -0.1387  0.2626
 6335TIP3    H240565   5.866   2.895   0.694  0.9212 -1.1166  0.6285
 6336TIP3   OH240566   2.188   1.202   1.995 -0.3252 -0.5837  0.0402
 6336TIP3    H140567   2.132   1.170   1.924 -1.2348  1.7443 -0.3662
 6336TIP3    H240568   2.277   1.181   1.966 -0.6811  0.1189 -1.7233
 6337TIP3   OH240569   0.986   4.732   1.722 -0.5533  0.7607  0.6117
 6337TIP3    H140570   1.053   4.760   1.660 -0.4084  1.4033  1.0495
 6337TIP3    H240571   1.015   4.645   1.750 -0.3377  0.6899  0.1856
 6338TIP3   OH240572   6.284   5.602   1.805 -0.2995  0.1823  0.1766
 6338TIP3    H140573   6.283   5.544   1.728 -1.2562  0.0454  0.2824
 6338TIP3    H240574   6.193   5.625   1.818  0.0757  1.8112  0.0812
 6339TIP3   OH240575   2.066   1.323   7.562  0.2024  0.2600 -0.2069
 6339TIP3    H140576   2.149   1.320   7.516  1.0367  0.9779  1.1968
 6339TIP3    H240577   2.024   1.239   7.542  1.3460 -0.1919 -0.7655
 6340TIP3   OH240578   6.386   0.894   8.168  0.5183 -0.5120 -0.0049
 6340TIP3    H140579   6.376   0.805   8.134 -0.7629 -0.0123 -1.0261
 6340TIP3    H240580   6.298   0.920   8.195  0.2127  1.4639 -2.4825
 6341TIP3   OH240581   3.416   2.013   6.737 -0.3574 -0.0516 -0.2638
 6341TIP3    H140582   3.453   2.096   6.769 -2.2494  0.8318 -0.2099
 6341TIP3    H240583   3.430   2.016   6.643 -0.5575  0.4112 -0.2832
 6342TIP3   OH240584   0.091   2.974   7.571  0.3864 -0.1353 -0.3125
 6342TIP3    H140585   0.136   2.975   7.486  0.7018  1.0726 -0.1600
 6342TIP3    H240586   0.146   3.028   7.627 -2.3865  3.5661 -0.7622
 6343TIP3   OH240587   6.843   4.922   0.383  0.1578 -0.1011 -0.1183
 6343TIP3    H140588   6.896   4.932   0.462  0.3164 -0.2033 -0.2097
 6343TIP3    H240589   6.873   4.993   0.325  1.4179 -1.1761 -0.8423
 6344TIP3   OH240590   5.729   3.222   7.380  0.3421  0.1815 -0.7953
 6344TIP3    H140591   5.746   3.135   7.415  0.8797  1.6934  3.1062
 6344TIP3    H240592   5.814   3.265   7.379 -0.3448  1.6511  0.4246
 6345TIP3   OH240593   4.140   0.938   0.202  0.1066 -0.0587 -0.0052
 6345TIP3    H140594   4.226   0.900   0.185  0.7490  1.1786  0.3397
 6345TIP3    H240595   4.109   0.970   0.117  0.0506 -0.3679 -0.1018
 6346TIP3   OH240596   6.977   3.850   8.144  0.0250  0.6722 -0.0622
 6346TIP3    H140597   6.900   3.903   8.166  0.6885  1.0014  1.5626
 6346TIP3    H240598   6.941   3.765   8.118 -0.9522  1.3260 -0.9433
 6347TIP3   OH240599   6.516   4.209   7.874  0.1767  0.1074 -0.2677
 6347TIP3    H140600   6.523   4.209   7.778  0.4789 -1.4091 -0.2703
 6347TIP3    H240601   6.422   4.213   7.891  0.1456  1.2974 -0.5829
 6348TIP3   OH240602   0.311   1.327   1.296 -0.3491 -0.5729 -1.1252
 6348TIP3    H140603   0.301   1.329   1.201 -2.6308 -1.9679 -0.9960
 6348TIP3    H240604   0.245   1.388   1.328 -0.4908 -1.0893 -0.4158
 6349TIP3   OH240605   5.212   2.200   2.578 -0.1325 -0.0727  0.1997
 6349TIP3    H140606   5.208   2.295   2.586  2.3315  0.0670  0.4893
 6349TIP3    H240607   5.300   2.182   2.545  0.9034 -2.4147  3.7118
 6350TIP3   OH240608   6.450   1.020   0.649  0.1859  0.4482  1.0281
 6350TIP3    H140609   6.356   1.005   0.647  0.2298  0.1074  1.3393
 6350TIP3    H240610   6.481   0.993   0.562  0.1470 -0.5377  1.3016
 6351TIP3   OH240611   2.644   1.257   2.447  0.4500  0.1147 -0.6434
 6351TIP3    H140612   2.655   1.316   2.522  1.8115 -1.1338  0.1938
 6351TIP3    H240613   2.581   1.302   2.390  0.1429  1.5635  0.7629
 6352TIP3   OH240614   4.568   3.327   0.043 -0.0546 -0.1960  0.6239
 6352TIP3    H140615   4.560   3.419   0.067  0.5181 -0.4407  1.8156
 6352TIP3    H240616   4.596   3.329  -0.049 -1.5307  0.7693  0.1513
 6353TIP3   OH240617   5.831   2.507   0.926 -0.6663 -0.0663  0.1288
 6353TIP3    H140618   5.785   2.453   0.990 -2.1958  1.7564  0.6443
 6353TIP3    H240619   5.901   2.450   0.892 -1.6855 -2.0576  1.2166
 6354TIP3   OH240620   6.726   1.797   6.565  0.5587  0.8201  0.2314
 6354TIP3    H140621   6.807   1.747   6.575  1.5227  2.2486 -0.1848
 6354TIP3    H240622   6.747   1.864   6.500 -1.2133  0.7257 -0.4903
 6355TIP3   OH240623   1.975   2.721   0.338  0.3337  0.1952 -0.2725
 6355TIP3    H140624   2.027   2.782   0.391 -1.0660  2.8433 -1.7533
 6355TIP3    H240625   2.038   2.685   0.275  1.1053  0.4638  0.3300
 6356TIP3   OH240626   5.558   4.228   0.552 -0.9813 -0.2138  0.3722
 6356TIP3    H140627   5.491   4.165   0.577 -1.6230 -0.7877 -2.5337
 6356TIP3    H240628   5.515   4.288   0.492  0.9654 -0.3696 -1.2897
 6357TIP3   OH240629   0.598   6.393   0.455  0.3396  0.1124 -0.4908
 6357TIP3    H140630   0.630   6.404   0.365  0.0875 -0.7679 -0.6938
 6357TIP3    H240631   0.506   6.368   0.444  0.0628  0.8446  0.0451
 6358TIP3   OH240632   5.050   3.060   6.326 -0.0303  0.2319  0.5042
 6358TIP3    H140633   5.021   2.970   6.308  0.3900 -0.0115  0.9952
 6358TIP3    H240634   4.970   3.107   6.347 -0.3636  0.1873 -0.5847
 6359TIP3   OH240635   1.132   6.536   1.492 -0.3813  0.0646 -0.6990
 6359TIP3    H140636   1.178   6.521   1.410  1.9816 -0.5013  0.6199
 6359TIP3    H240637   1.077   6.458   1.503 -0.3365 -0.0863 -1.5102
 6360TIP3   OH240638   4.155   4.164   1.505 -0.5199 -0.5511 -0.3258
 6360TIP3    H140639   4.109   4.080   1.495 -1.6167 -0.3428  2.2410
 6360TIP3    H240640   4.086   4.230   1.501  0.0861  0.0995 -0.2863
 6361TIP3   OH240641   6.462   2.406   6.573  0.1561  0.2684 -0.7404
 6361TIP3    H140642   6.496   2.492   6.596  0.8908 -0.5231  1.3941
 6361TIP3    H240643   6.538   2.358   6.539 -0.3131  0.5112 -2.2132
 6362TIP3   OH240644   1.711   1.811   7.913  0.4130 -0.1547  0.0283
 6362TIP3    H140645   1.792   1.762   7.899  0.1270 -0.6587  0.1328
 6362TIP3    H240646   1.711   1.830   8.007  0.0340 -0.8184  0.1636
 6363TIP3   OH240647   6.255   1.334   6.402  0.0402 -0.1120 -0.3954
 6363TIP3    H140648   6.334   1.353   6.453  1.1622 -0.0905 -2.0585
 6363TIP3    H240649   6.186   1.384   6.444  1.5260  2.2585 -0.6095
 6364TIP3   OH240650   3.404   0.921   8.252  0.5574 -0.4962 -0.1855
 6364TIP3    H140651   3.353   1.002   8.243  0.3373 -0.5118  0.7945
 6364TIP3    H240652   3.343   0.859   8.292  1.7198 -0.0949  2.3963
 6365TIP3   OH240653   0.634   5.759   8.130 -0.3613  0.6443  0.2637
 6365TIP3    H140654   0.728   5.774   8.138 -0.3729  0.6481  0.3990
 6365TIP3    H240655   0.622   5.667   8.152 -0.4182  0.7049  0.4894
 6366TIP3   OH240656   6.591   0.065   7.670  0.3629 -0.0118 -0.0796
 6366TIP3    H140657   6.501   0.089   7.695  0.5034  2.7784 -1.7865
 6366TIP3    H240658   6.580  -0.010   7.612 -1.1234  1.2894 -1.6073
 6367TIP3   OH240659   6.625   0.575   7.129 -0.1212 -0.5178  0.5439
 6367TIP3    H140660   6.543   0.625   7.123  1.3201  1.8850 -0.6371
 6367TIP3    H240661   6.641   0.567   7.223 -1.4812 -0.6433  0.7833
 6368TIP3   OH240662   1.429   1.210   7.786 -0.3886  0.3026  0.0579
 6368TIP3    H140663   1.443   1.292   7.739 -1.2636  0.1080 -0.5842
 6368TIP3    H240664   1.516   1.179   7.807  0.0112  0.6464 -1.0183
 6369TIP3   OH240665   0.318   3.528   7.016  0.2523 -0.6384 -1.2836
 6369TIP3    H140666   0.277   3.578   6.946  1.6705  0.2014 -1.5444
 6369TIP3    H240667   0.358   3.453   6.971  1.1317 -0.1183 -1.3932
 6370TIP3   OH240668   5.127   4.853   0.948 -0.1185  0.3946 -0.0762
 6370TIP3    H140669   5.118   4.791   1.021  0.0700 -0.4221 -0.7301
 6370TIP3    H240670   5.176   4.804   0.882 -1.8705  0.4532 -1.4939
 6371TIP3   OH240671   5.397   0.320   0.849  0.5264  0.1336  0.2530
 6371TIP3    H140672   5.376   0.390   0.912  0.0834  0.2648 -0.0330
 6371TIP3    H240673   5.402   0.364   0.765  0.7476 -0.1034  0.1420
 6372TIP3   OH240674   6.474   3.396   0.660  0.5168 -0.2773  0.3173
 6372TIP3    H140675   6.462   3.417   0.567 -1.4988 -0.2641  0.5279
 6372TIP3    H240676   6.469   3.480   0.704 -2.0449 -0.5176  0.6774
 6373TIP3   OH240677   3.426   2.372   7.399 -0.5624 -0.1657 -0.0465
 6373TIP3    H140678   3.347   2.407   7.439 -1.7492 -1.5457 -1.0762
 6373TIP3    H240679   3.398   2.338   7.314  1.2794 -0.0691 -0.7451
 6374TIP3   OH240680   4.854   0.605   7.984 -0.2410 -0.6333  0.0474
 6374TIP3    H140681   4.826   0.671   7.921  1.3972 -0.3934 -0.4845
 6374TIP3    H240682   4.779   0.546   7.992 -0.7715 -0.2382 -1.5564
 6375TIP3   OH240683   3.315   0.919   7.352 -0.1392 -0.3277 -0.1192
 6375TIP3    H140684   3.278   0.963   7.428 -2.1513  0.0906 -1.2795
 6375TIP3    H240685   3.374   0.853   7.389 -0.1378  0.6429  1.7441
 6376TIP3   OH240686   4.296   4.347   8.165 -0.4922 -0.2797  0.1186
 6376TIP3    H140687   4.224   4.319   8.222 -0.8709 -0.7656 -0.5776
 6376TIP3    H240688   4.270   4.434   8.134 -0.9307 -0.5773 -0.3642
 6377TIP3   OH240689   0.325   6.179   1.348  0.0860 -0.1384  0.7019
 6377TIP3    H140690   0.320   6.274   1.357  1.6615  0.0478 -0.0427
 6377TIP3    H240691   0.332   6.165   1.253  2.3464 -0.7993  0.9114
 6378TIP3   OH240692   2.229   0.844   1.907  0.2562  0.1869 -0.3686
 6378TIP3    H140693   2.323   0.846   1.928 -0.0988  1.4989  1.2817
 6378TIP3    H240694   2.187   0.818   1.989 -0.8806  0.4339 -0.8573
 6379TIP3   OH240695   3.008   2.501   6.741  0.1060 -0.4214  0.2045
 6379TIP3    H140696   2.952   2.492   6.818 -2.3383 -0.7002 -1.4692
 6379TIP3    H240697   3.005   2.414   6.700  1.8079 -0.4261  0.0385
 6380TIP3   OH240698   4.328   3.007   6.937 -0.0440 -0.2747 -0.2361
 6380TIP3    H140699   4.354   3.074   6.874 -2.5809 -0.9180 -2.1278
 6380TIP3    H240700   4.292   3.055   7.011 -1.6155  0.5389 -1.4675
 6381TIP3   OH240701   3.410   4.684   7.812 -0.3053  0.2895 -0.5473
 6381TIP3    H140702   3.333   4.629   7.829 -0.5050  0.7422  0.0301
 6381TIP3    H240703   3.381   4.746   7.745  0.1039 -0.6776 -1.6665
 6382TIP3   OH240704   1.639   1.808   8.169  0.4109 -0.5315 -0.1272
 6382TIP3    H140705   1.590   1.864   8.229  0.2074 -1.0812  0.2235
 6382TIP3    H240706   1.710   1.772   8.222  0.2345 -1.0186 -0.2205
 6383TIP3   OH240707   5.132   2.769   1.901 -0.2221  0.4605  0.0444
 6383TIP3    H140708   5.058   2.772   1.841 -1.1476  1.0408  1.1783
 6383TIP3    H240709   5.124   2.686   1.947  0.5444 -0.0307 -0.6831
 6384TIP3   OH240710   4.366   0.655   2.406 -0.3006 -0.1246 -0.3627
 6384TIP3    H140711   4.334   0.679   2.493 -0.5367  3.0624 -1.2010
 6384TIP3    H240712   4.301   0.592   2.374 -1.1961 -0.0052  1.0811
 6385TIP3   OH240713   1.608   6.846   7.941  0.0546  0.4443  0.1129
 6385TIP3    H140714   1.697   6.825   7.971  0.0660 -2.1829 -1.4796
 6385TIP3    H240715   1.617   6.930   7.896  1.7260  0.2247 -0.0331
 6386TIP3   OH240716   1.168   4.025   7.712 -0.1216  0.3333 -0.0662
 6386TIP3    H140717   1.225   3.949   7.726 -0.9153 -0.1645  0.5670
 6386TIP3    H240718   1.181   4.048   7.620  0.8770  0.0622 -0.0112
 6387TIP3   OH240719   5.752   1.237   1.681  0.1840  0.4609 -0.2119
 6387TIP3    H140720   5.719   1.154   1.646 -1.1222  0.5686  0.6661
 6387TIP3    H240721   5.712   1.243   1.768  3.7087 -0.0549  1.5875
 6388TIP3   OH240722   1.238   4.323   6.889 -0.1463 -0.3086  0.3406
 6388TIP3    H140723   1.258   4.230   6.880 -1.5965 -0.5960 -0.2261
 6388TIP3    H240724   1.323   4.366   6.895  0.5758 -1.5528 -0.5719
 6389TIP3   OH240725   0.369   4.978   1.954 -0.6818  0.2857 -0.3280
 6389TIP3    H140726   0.276   4.985   1.974 -1.3205 -3.3108 -1.2197
 6389TIP3    H240727   0.408   4.941   2.034  0.0355  1.8460  0.0701
 6390TIP3   OH240728   5.820   6.812   8.298  0.4868 -0.4508 -0.2158
 6390TIP3    H140729   5.823   6.904   8.321  3.4265 -0.6904  0.8113
 6390TIP3    H240730   5.885   6.802   8.229 -0.0250 -1.7075 -0.5610
 6391TIP3   OH240731   2.286   6.101   7.517  0.0388 -0.2859  0.5564
 6391TIP3    H140732   2.314   6.118   7.428 -0.7488  0.0728  0.3640
 6391TIP3    H240733   2.200   6.143   7.523 -0.2542 -0.9629  1.2456
 6392TIP3   OH240734   0.060   5.038   0.917  0.5562  0.2882 -0.4321
 6392TIP3    H140735   0.041   5.017   1.009  2.8389 -0.5340 -0.0548
 6392TIP3    H240736   0.047   4.955   0.871 -0.5557  0.6933 -0.8612
 6393TIP3   OH240737   5.421   1.814   1.183  0.2872 -0.4947  0.4141
 6393TIP3    H140738   5.405   1.794   1.091  2.1022 -1.3000  0.2360
 6393TIP3    H240739   5.390   1.737   1.231 -1.4103  0.2518  0.5970
 6394TIP3   OH240740   5.436   1.012   8.292  0.6193  0.4689 -0.6708
 6394TIP3    H140741   5.357   0.978   8.332 -0.4432  0.5118 -2.5948
 6394TIP3    H240742   5.418   1.010   8.198  1.1144  4.6930 -1.0326
 6395TIP3   OH240743   2.439   3.036   1.498  0.1868 -0.2643  0.1203
 6395TIP3    H140744   2.353   3.079   1.500  1.1740  1.7849  1.5727
 6395TIP3    H240745   2.461   3.021   1.590  1.5527 -0.4026 -0.2061
 6396TIP3   OH240746   3.602   1.303   2.478 -0.3672  0.4183  0.7147
 6396TIP3    H140747   3.693   1.322   2.503 -0.9281  1.3527  2.1803
 6396TIP3    H240748   3.609   1.268   2.389  1.4273  0.4124  0.8075
 6397TIP3   OH240749   4.579   4.904   1.630  0.0764 -0.5259  0.3785
 6397TIP3    H140750   4.668   4.898   1.663  0.4977  1.8209 -0.1265
 6397TIP3    H240751   4.578   4.849   1.552 -0.0066 -3.4479  2.2822
 6398TIP3   OH240752   5.999   4.512   1.165  0.2277 -0.0451  0.3289
 6398TIP3    H140753   5.997   4.434   1.221  0.3054  0.8278  1.5962
 6398TIP3    H240754   5.909   4.545   1.167  0.4777  0.6313  0.9004
 6399TIP3   OH240755   6.466   5.713   7.626 -0.1261  0.1484 -0.4135
 6399TIP3    H140756   6.482   5.799   7.588 -0.7134 -0.4833 -2.1867
 6399TIP3    H240757   6.521   5.654   7.576  0.2588 -0.5379  0.7813
 6400TIP3   OH240758   0.555   0.002   0.574  0.4252  0.3545  0.1345
 6400TIP3    H140759   0.529   0.025   0.485  0.2402  0.6225  0.2590
 6400TIP3    H240760   0.635  -0.049   0.563  1.1760  1.5431 -0.1208
 6401TIP3   OH240761   5.151   6.016   7.240  0.1248  0.4684  0.0053
 6401TIP3    H140762   5.137   6.082   7.308 -0.1409  0.9823 -0.5424
 6401TIP3    H240763   5.077   6.027   7.180 -0.3534 -0.8651  0.3266
 6402TIP3   OH240764   6.566   5.374   8.234 -0.8209 -0.0988  0.5544
 6402TIP3    H140765   6.612   5.449   8.198  0.2407 -0.8766  0.2302
 6402TIP3    H240766   6.598   5.366   8.324 -1.5515  0.3052  0.8674
 6403TIP3   OH240767   1.145   0.064   8.104 -0.3839  0.0002  0.4386
 6403TIP3    H140768   1.148   0.155   8.135  0.4434 -0.1480  0.8040
 6403TIP3    H240769   1.181   0.013   8.176 -2.7931 -0.8704  1.1192
 6404TIP3   OH240770   4.226   0.086   2.344 -0.2482  0.4043 -0.2467
 6404TIP3    H140771   4.275   0.150   2.293  1.1004  0.8119  1.4495
 6404TIP3    H240772   4.269   0.086   2.430 -1.0660 -1.7806  0.2387
 6405TIP3   OH240773   1.056   3.956   6.222  0.2405 -0.8022  0.8195
 6405TIP3    H140774   0.976   3.937   6.272 -0.3890 -0.6761 -0.1004
 6405TIP3    H240775   1.027   4.018   6.155  1.8390  2.0415  2.5783
 6406TIP3   OH240776   4.229   1.215   7.071 -0.9903  0.5480  0.2524
 6406TIP3    H140777   4.212   1.259   6.987  0.0668 -0.0919 -0.3117
 6406TIP3    H240778   4.142   1.201   7.108 -1.5693 -0.3247 -1.3431
 6407TIP3   OH240779   5.759   5.783   0.316 -0.8817  0.1523  0.3422
 6407TIP3    H140780   5.709   5.814   0.392 -0.8418 -1.1692  0.9292
 6407TIP3    H240781   5.764   5.688   0.327  0.4640  0.0923 -0.5024
 6408TIP3   OH240782   5.719   5.075   0.269 -0.0292  0.3919  0.3486
 6408TIP3    H140783   5.658   5.106   0.202  0.0223  0.8077  0.4933
 6408TIP3    H240784   5.677   4.997   0.304  0.6882 -0.7941 -1.2821
 6409TIP3   OH240785   2.906   1.809   6.530 -0.6341 -0.2923  0.9464
 6409TIP3    H140786   2.958   1.770   6.459 -0.2326  1.0110  0.4922
 6409TIP3    H240787   2.954   1.887   6.554 -1.8108  0.3487  1.2917
 6410TIP3   OH240788   2.588   1.933   7.126  0.2745 -0.4942  0.0563
 6410TIP3    H140789   2.516   1.870   7.119 -0.2967  0.0297  1.0041
 6410TIP3    H240790   2.606   1.959   7.036  0.3174 -1.7866 -0.3171
 6411TIP3   OH240791   1.135   3.040   7.822 -0.1188  1.1558  0.6649
 6411TIP3    H140792   1.153   3.012   7.912 -0.1647 -1.1934  0.0148
 6411TIP3    H240793   1.081   3.118   7.831 -0.8478  0.4791  2.6982
 6412TIP3   OH240794   0.693   0.056   1.750 -0.1707  0.3549  0.9220
 6412TIP3    H140795   0.648   0.010   1.822 -0.1892  0.7091  1.1422
 6412TIP3    H240796   0.634   0.129   1.729  0.8196  1.5237  2.0084
 6413TIP3   OH240797   1.337   3.716   1.875  0.1045  0.5215  0.2732
 6413TIP3    H140798   1.317   3.808   1.861  0.9908  0.4701 -1.6175
 6413TIP3    H240799   1.427   3.715   1.909  0.2549  0.3436 -0.1213
 6414TIP3   OH240800   4.539   5.127   1.512  0.0719 -0.2452 -0.2418
 6414TIP3    H140801   4.560   5.120   1.419  1.3970  1.8547 -0.1620
 6414TIP3    H240802   4.560   5.041   1.548  0.0492 -0.9233 -1.7740
 6415TIP3   OH240803   6.869   6.776   7.230  0.5603  0.6169 -0.3508
 6415TIP3    H140804   6.917   6.858   7.218  0.9813  0.4929  0.4662
 6415TIP3    H240805   6.802   6.796   7.295  0.1226  0.5243 -0.7626
 6416TIP3   OH240806   4.051   2.519   1.958  0.6992 -0.4109  0.8283
 6416TIP3    H140807   4.135   2.551   1.990 -0.0213  0.6321  1.7546
 6416TIP3    H240808   3.987   2.585   1.986 -0.1945 -0.1043 -1.6153
 6417TIP3   OH240809   5.356   0.464   1.128 -0.4195 -0.3434 -0.8870
 6417TIP3    H140810   5.320   0.387   1.172  0.4538  0.9190  2.3524
 6417TIP3    H240811   5.335   0.537   1.187  2.7086  1.2220 -1.4941
 6418TIP3   OH240812   5.591   1.399   2.122 -0.0361  0.2327 -0.3390
 6418TIP3    H140813   5.667   1.400   2.180 -0.9352  1.5614  0.8845
 6418TIP3    H240814   5.627   1.382   2.035  1.5282 -0.1672  0.3565
 6419TIP3   OH240815   4.592   0.726   8.170 -0.1054 -0.2654  0.2489
 6419TIP3    H140816   4.567   0.770   8.089  0.0295 -0.1603  0.2636
 6419TIP3    H240817   4.585   0.633   8.150  1.2104 -0.2671 -0.2978
 6420TIP3   OH240818   6.878   6.458   1.556  0.1026 -0.1269  0.0138
 6420TIP3    H140819   6.827   6.499   1.626 -0.5365  1.8328 -1.5169
 6420TIP3    H240820   6.956   6.423   1.600 -1.2971 -0.9466  2.0160
 6421TIP3   OH240821   6.329   5.196   1.079 -0.3149  0.1725 -0.1869
 6421TIP3    H140822   6.420   5.204   1.107 -0.1702  0.4113 -0.7147
 6421TIP3    H240823   6.333   5.190   0.984 -0.8269 -0.2349 -0.1873
 6422TIP3   OH240824   3.530   2.898   6.809  0.3151 -0.2481 -0.0230
 6422TIP3    H140825   3.623   2.893   6.832  0.0852 -0.2014  0.9648
 6422TIP3    H240826   3.489   2.937   6.887 -0.1823  2.0590 -1.3444
 6423TIP3   OH240827   3.557   0.048   0.772  0.1464  0.6555 -0.1295
 6423TIP3    H140828   3.623   0.017   0.834 -0.4716 -0.1430  0.1470
 6423TIP3    H240829   3.569  -0.007   0.694 -2.3186 -1.8922  1.1073
 6424TIP3   OH240830   3.635   5.277   8.244 -0.1184  0.9242 -0.5867
 6424TIP3    H140831   3.722   5.307   8.216  0.0163  0.3965 -0.7389
 6424TIP3    H240832   3.632   5.185   8.220 -0.7252  0.9368 -0.5767
 6425TIP3   OH240833   4.805   5.290   7.766 -0.7272  0.5693  0.0098
 6425TIP3    H140834   4.779   5.336   7.846  0.4014 -1.2338  1.4614
 6425TIP3    H240835   4.746   5.215   7.762 -0.8923  0.7382 -0.9894
 6426TIP3   OH240836   1.676   1.503   0.085  0.0634 -0.2700  0.0281
 6426TIP3    H140837   1.735   1.564   0.042 -1.0086  0.7072 -0.0830
 6426TIP3    H240838   1.639   1.451   0.014 -0.7171  0.4674 -0.1166
 6427TIP3   OH240839   2.696   5.345   0.840 -0.5485  0.2151  0.1696
 6427TIP3    H140840   2.626   5.406   0.865 -2.3382 -0.5156 -2.6009
 6427TIP3    H240841   2.772   5.400   0.823 -1.3777  1.3780  0.1475
 6428TIP3   OH240842   5.289   6.473   0.193 -0.4951  0.4722 -0.2969
 6428TIP3    H140843   5.337   6.474   0.111 -1.4569  3.1206 -0.9555
 6428TIP3    H240844   5.295   6.564   0.225 -0.4001 -0.3989  2.4244
 6429TIP3   OH240845   1.982   4.728   0.344  0.1738 -0.3292  0.0670
 6429TIP3    H140846   1.899   4.720   0.393 -0.5401  1.1167 -0.8374
 6429TIP3    H240847   1.956   4.759   0.258  1.5277 -1.7237 -0.8854
 6430TIP3   OH240848   1.813   1.388   0.739 -0.0917  0.2270 -0.1159
 6430TIP3    H140849   1.841   1.464   0.791 -0.1023  0.2647 -0.1649
 6430TIP3    H240850   1.726   1.412   0.708  0.9060  1.2961 -2.2670
 6431TIP3   OH240851   1.596   0.474   2.137 -0.0294  0.1580 -0.5174
 6431TIP3    H140852   1.528   0.536   2.162 -0.1144 -0.5130  1.0154
 6431TIP3    H240853   1.604   0.415   2.212  2.5104  0.4174 -0.5205
 6432TIP3   OH240854   0.436   2.688   0.108  0.1765 -0.1075 -0.2859
 6432TIP3    H140855   0.427   2.601   0.146 -0.8658 -0.6011 -1.5962
 6432TIP3    H240856   0.485   2.675   0.027  1.7844  0.8385  0.4803
 6433TIP3   OH240857   2.441   4.531   0.433  0.2421  0.1629  0.1311
 6433TIP3    H140858   2.355   4.512   0.397  0.4597 -2.1497  0.6662
 6433TIP3    H240859   2.503   4.503   0.365  0.5981  0.2477  0.4147
 6434TIP3   OH240860   1.280   1.744   7.508  0.0580  0.6146  0.5261
 6434TIP3    H140861   1.366   1.776   7.535 -1.1492  4.4035  0.4847
 6434TIP3    H240862   1.268   1.776   7.419 -1.0744 -0.6176  0.1941
 6435TIP3   OH240863   3.902   3.030   7.439  0.5596  0.6310  0.6639
 6435TIP3    H140864   3.952   2.995   7.512  2.4169 -1.3626 -1.3920
 6435TIP3    H240865   3.912   2.965   7.370 -4.7767  0.1394 -0.0903
 6436TIP3   OH240866   6.607   6.049   6.690 -0.0454 -0.8800 -0.0433
 6436TIP3    H140867   6.683   5.997   6.714  0.4358  0.2972  1.0656
 6436TIP3    H240868   6.614   6.060   6.595  0.1033 -2.3931 -0.2276
 6437TIP3   OH240869   0.632   6.209   8.073 -0.0456 -0.0986  0.3282
 6437TIP3    H140870   0.645   6.212   7.978 -0.9253 -0.1615  0.1962
 6437TIP3    H240871   0.576   6.133   8.087 -0.9924  0.6712  0.7674
 6438TIP3   OH240872   4.736   6.117   1.027 -0.2999  0.5484 -0.0905
 6438TIP3    H140873   4.728   6.099   0.934  1.3371 -0.5585 -0.0714
 6438TIP3    H240874   4.700   6.038   1.070  1.0295  0.0400  0.1377
 6439TIP3   OH240875   0.015   5.810   1.228 -0.2866  0.5313 -0.2444
 6439TIP3    H140876   0.041   5.827   1.318 -0.5950 -1.3979  0.2657
 6439TIP3    H240877   0.013   5.896   1.187  0.0507  1.4404  1.5262
 6440TIP3   OH240878   3.278   6.309   1.121  0.0411  0.4435  0.1830
 6440TIP3    H140879   3.265   6.364   1.045  2.3774  0.5724 -0.1739
 6440TIP3    H240880   3.268   6.368   1.196 -0.6691  0.6438 -0.0603
 6441TIP3   OH240881   4.047   4.042   6.881  0.5191  0.0282 -0.4327
 6441TIP3    H140882   4.019   4.133   6.894 -0.1180 -0.1497 -0.5286
 6441TIP3    H240883   4.143   4.046   6.883  0.4917  0.5144  0.8390
 6442TIP3   OH240884   6.028   2.451   1.868  0.0004  0.0741  0.3844
 6442TIP3    H140885   5.945   2.494   1.845 -1.3397 -1.2473  2.4798
 6442TIP3    H240886   6.078   2.519   1.914  0.1423  0.8775 -0.8885
 6443TIP3   OH240887   6.740   4.443   0.217 -0.6951  0.3677  0.1954
 6443TIP3    H140888   6.664   4.425   0.162  0.6099 -0.4512 -1.4266
 6443TIP3    H240889   6.808   4.471   0.156  0.3909  0.8281  1.5626
 6444TIP3   OH240890   2.010   2.301   0.026 -0.0277 -0.1479 -0.6653
 6444TIP3    H140891   2.030   2.393   0.042 -0.7886  0.0289 -0.7243
 6444TIP3    H240892   1.952   2.301  -0.050 -0.1917 -0.6605 -0.5464
 6445TIP3   OH240893   1.204   5.491   6.988 -0.1346  0.5725  0.0525
 6445TIP3    H140894   1.210   5.395   6.995  1.7375  0.7512  1.8114
 6445TIP3    H240895   1.189   5.520   7.077  0.8262  1.9938 -0.2259
 6446TIP3   OH240896   2.402   2.053   1.978 -0.4795  0.0850 -0.8428
 6446TIP3    H140897   2.448   2.129   2.015 -2.9222  0.8586  0.9727
 6446TIP3    H240898   2.409   1.986   2.046 -2.3345  0.4133 -0.2533
 6447TIP3   OH240899   4.179   0.936   2.405  0.0260  0.3846 -0.1120
 6447TIP3    H140900   4.239   0.898   2.341  0.4821 -1.5859  1.3902
 6447TIP3    H240901   4.102   0.961   2.353  1.7632  2.2341 -1.9450
 6448TIP3   OH240902   5.946   6.547   0.754 -0.0242 -0.2978  0.2795
 6448TIP3    H140903   6.023   6.573   0.805  0.6579  2.0748 -1.7313
 6448TIP3    H240904   5.872   6.583   0.803  0.3270 -0.6921  1.1186
 6449TIP3   OH240905   4.679   4.608   0.884  0.1967  0.6595  0.2181
 6449TIP3    H140906   4.660   4.693   0.844  0.8113  0.4590 -0.5350
 6449TIP3    H240907   4.731   4.562   0.818 -0.6378 -0.5325  0.3545
 6450TIP3   OH240908   1.993   6.168   0.654  0.1708 -0.5543 -0.5618
 6450TIP3    H140909   2.076   6.194   0.614  0.4659  2.1642  1.4951
 6450TIP3    H240910   2.018   6.120   0.732  0.0175  1.8223  1.0659
 6451TIP3   OH240911   1.140   1.346   1.074 -0.3265 -0.1906 -0.3764
 6451TIP3    H140912   1.076   1.285   1.111 -1.5662  2.2337  1.7462
 6451TIP3    H240913   1.164   1.307   0.990 -3.2186 -2.1194 -0.4399
 6452TIP3   OH240914   0.098   4.205   8.170  0.1980  0.2806 -0.1217
 6452TIP3    H140915   0.041   4.130   8.185  1.7037 -0.9577 -0.3751
 6452TIP3    H240916   0.072   4.238   8.084 -1.1274  0.6994  0.4052
 6453TIP3   OH240917   0.248   1.429   1.713  0.5949 -0.1831 -0.1911
 6453TIP3    H140918   0.339   1.407   1.694  0.5486 -2.2091  1.6172
 6453TIP3    H240919   0.197   1.371   1.657  0.3693  0.5947 -0.8215
 6454TIP3   OH240920   4.628   0.085   2.021 -0.2292 -0.2305 -0.0873
 6454TIP3    H140921   4.628   0.160   2.080 -2.4848  0.8049 -1.2905
 6454TIP3    H240922   4.669   0.118   1.941  1.6743 -1.2699  0.3888
 6455TIP3   OH240923   4.674   2.006   7.873  0.2020  0.0666 -0.3454
 6455TIP3    H140924   4.629   1.959   7.803  0.9735 -0.9584 -0.1647
 6455TIP3    H240925   4.755   2.037   7.833 -0.4667  1.6143 -0.5739
 6456TIP3   OH240926   6.630   6.041   0.814 -0.3219  0.2716  0.4421
 6456TIP3    H140927   6.614   5.980   0.885 -2.8920  1.3212  0.8650
 6456TIP3    H240928   6.616   5.989   0.734 -1.4227  0.0522  0.7741
 6457TIP3   OH240929   1.346   4.155   0.985 -0.3298 -0.2134 -0.1325
 6457TIP3    H140930   1.423   4.101   1.003 -1.5346 -2.3171 -0.9741
 6457TIP3    H240931   1.367   4.198   0.902 -0.5601 -1.8549 -1.0854
 6458TIP3   OH240932   1.541   2.648   0.401  0.4542  0.2820 -0.0011
 6458TIP3    H140933   1.498   2.571   0.438  0.8155 -0.3913 -0.9177
 6458TIP3    H240934   1.499   2.659   0.315  0.1542  1.3317  0.2741
 6459TIP3   OH240935   2.569   5.410   6.788 -0.1410  0.1440  0.5234
 6459TIP3    H140936   2.631   5.341   6.764 -1.9208 -0.8626 -1.5355
 6459TIP3    H240937   2.490   5.363   6.814 -1.5716  1.3307 -1.3969
 6460TIP3   OH240938   2.120   0.762   1.119 -0.4274  0.2902  0.0988
 6460TIP3    H140939   2.091   0.844   1.160  1.4750  0.4217  1.3411
 6460TIP3    H240940   2.206   0.784   1.082  0.7810 -1.4489  1.7014
 6461TIP3   OH240941   6.167   5.652   0.543  0.6532  0.2788 -0.0035
 6461TIP3    H140942   6.139   5.562   0.553  1.2356  0.2079  1.0318
 6461TIP3    H240943   6.151   5.693   0.628  1.0355  0.9769 -0.2542
 6462TIP3   OH240944   3.916   1.410   1.189 -0.4055  0.2003  0.2698
 6462TIP3    H140945   3.924   1.474   1.260  1.5576 -0.8872  1.1060
 6462TIP3    H240946   3.848   1.350   1.219 -0.6201  0.5705  0.5446
 6463TIP3   OH240947   1.590   4.928   1.106  0.6094 -0.2710 -0.3356
 6463TIP3    H140948   1.591   5.011   1.057 -0.2076 -0.1392 -0.1501
 6463TIP3    H240949   1.594   4.954   1.198  1.1636 -0.4750 -0.3016
 6464TIP3   OH240950   3.998   3.574   0.437 -0.0346 -0.1130  0.9497
 6464TIP3    H140951   3.919   3.554   0.488 -1.6224  1.5455 -0.7292
 6464TIP3    H240952   4.070   3.560   0.498 -1.7006 -0.3446  2.9620
 6465TIP3   OH240953   0.141   6.127   0.584  0.1970 -0.0695  0.2961
 6465TIP3    H140954   0.139   6.077   0.502  0.1090 -1.5234  1.1533
 6465TIP3    H240955   0.053   6.162   0.593  0.8119  2.1665 -1.4017
 6466TIP3   OH240956   6.414   1.364   0.913  0.5537  0.4060 -0.4431
 6466TIP3    H140957   6.470   1.318   0.976  1.1850  1.5188 -0.1634
 6466TIP3    H240958   6.473   1.427   0.871 -0.4518  1.5288 -0.2321
 6467TIP3   OH240959   6.077   3.052   0.860 -0.7075  0.1049 -0.0652
 6467TIP3    H140960   6.026   2.981   0.897  0.9418 -0.6851  0.8008
 6467TIP3    H240961   6.124   3.013   0.787  0.5258  0.1560  0.6670
 6468TIP3   OH240962   4.865   6.305   7.187 -0.1677 -0.3385  0.3624
 6468TIP3    H140963   4.904   6.221   7.162  0.8895 -0.4160  2.0601
 6468TIP3    H240964   4.792   6.281   7.244 -0.4182 -0.1258  0.1296
 6469TIP3   OH240965   0.327   5.272   6.189  0.0646  0.1614  0.0607
 6469TIP3    H140966   0.409   5.294   6.146 -0.9585 -0.6263 -2.5297
 6469TIP3    H240967   0.284   5.356   6.204 -0.0261  0.4529 -1.6122
 6470TIP3   OH240968   5.672   1.403   7.631 -0.2977 -0.2273  0.2455
 6470TIP3    H140969   5.642   1.394   7.721 -0.6474 -0.5111  0.1023
 6470TIP3    H240970   5.725   1.483   7.631  1.2748 -1.2367  1.1246
 6471TIP3   OH240971   1.202   0.307   1.160 -0.0510  0.6516 -0.0397
 6471TIP3    H140972   1.273   0.252   1.194 -2.1339 -1.1963  1.5848
 6471TIP3    H240973   1.132   0.246   1.138 -1.1991  2.4052 -1.5741
 6472TIP3   OH240974   4.219   1.338   0.636  0.1412  0.0321 -0.8593
 6472TIP3    H140975   4.144   1.297   0.592  0.4741 -1.0880 -0.4342
 6472TIP3    H240976   4.189   1.352   0.726  1.8457 -5.0022  0.8283
 6473TIP3   OH240977   6.241   3.271   7.183  0.1534 -0.6754 -0.3603
 6473TIP3    H140978   6.288   3.276   7.266  0.7391  0.5088 -0.7393
 6473TIP3    H240979   6.212   3.361   7.167 -1.6333 -1.2445 -0.4946
 6474TIP3   OH240980   0.539   2.007   2.174 -0.1336 -0.1233  0.5189
 6474TIP3    H140981   0.516   2.099   2.187  0.4100  0.0924  0.0192
 6474TIP3    H240982   0.630   2.001   2.204 -0.2950 -0.5894  0.9257
 6475TIP3   OH240983   1.723   3.888   1.773 -0.0802  0.1244 -0.0576
 6475TIP3    H140984   1.650   3.845   1.818 -1.0500  0.7172 -1.0356
 6475TIP3    H240985   1.707   3.981   1.786  1.6418  0.2618  1.4731
 6476TIP3   OH240986   0.362   1.693   7.414 -0.0607  0.3524  0.6467
 6476TIP3    H140987   0.286   1.635   7.420  2.5301 -3.6400 -0.8607
 6476TIP3    H240988   0.346   1.747   7.337 -0.9446 -1.2702 -0.3612
 6477TIP3   OH240989   4.172   6.962   1.335 -0.8546  0.0643 -0.3460
 6477TIP3    H140990   4.121   6.956   1.416 -0.1849 -1.4398  0.0021
 6477TIP3    H240991   4.193   7.055   1.326 -2.3263  0.4874  0.3214
 6478TIP3   OH240992   1.146   6.389   7.620  0.0258  0.2221 -0.1247
 6478TIP3    H140993   1.204   6.465   7.623  1.7744 -1.0575  0.7758
 6478TIP3    H240994   1.152   6.352   7.708 -2.8754  0.4759  0.2612
 6479TIP3   OH240995   3.722   0.595   0.097  0.2664  0.7327 -0.3668
 6479TIP3    H140996   3.733   0.660   0.166 -3.2033 -1.3228  2.4325
 6479TIP3    H240997   3.766   0.517   0.130 -0.5673  0.0024 -0.9610
 6480TIP3   OH240998   4.658   3.897   0.322 -0.2651 -0.5681  0.2784
 6480TIP3    H140999   4.654   3.809   0.285  0.9852 -0.6978  0.3955
 6480TIP3    H241000   4.665   3.955   0.246 -1.4395 -0.5172  0.1845
 6481TIP3   OH241001   1.766   1.148   1.336 -0.6063  0.8768 -0.2577
 6481TIP3    H141002   1.684   1.104   1.357 -0.1970 -0.6119 -1.6339
 6481TIP3    H241003   1.739   1.237   1.313 -1.6184  0.9353  0.9943
 6482TIP3   OH241004   6.266   5.483   8.167 -0.5230  0.0464  0.1772
 6482TIP3    H141005   6.243   5.395   8.196  0.6016 -0.3898 -0.1965
 6482TIP3    H241006   6.262   5.479   8.072 -1.2164  0.6262  0.1744
 6483TIP3   OH241007   0.260   0.454   1.428  0.1186 -0.0589 -0.7858
 6483TIP3    H141008   0.207   0.452   1.348  0.7701  1.1547 -1.2687
 6483TIP3    H241009   0.281   0.546   1.441  1.6952 -0.4542 -0.3198
 6484TIP3   OH241010   6.746   0.512   1.441  0.0695 -0.4544 -0.3034
 6484TIP3    H141011   6.797   0.564   1.378 -0.8785  0.2528 -0.5117
 6484TIP3    H241012   6.803   0.502   1.517  0.2206  1.0306 -0.2031
 6485TIP3   OH241013   4.049   6.190   1.101  0.2717 -0.4706  0.2677
 6485TIP3    H141014   3.988   6.144   1.043  0.7776 -3.0177  1.6077
 6485TIP3    H241015   4.017   6.172   1.189  1.2245  0.7645  0.8949
 6486TIP3   OH241016   5.932   2.185   1.915 -0.5447 -0.5268  0.3816
 6486TIP3    H141017   5.995   2.166   1.985 -1.2669  0.4242  1.3194
 6486TIP3    H241018   5.940   2.279   1.901 -1.5330 -0.4437  0.2980
 6487TIP3   OH241019   6.873   4.561   1.259 -0.0838  0.2503  0.6767
 6487TIP3    H141020   6.837   4.646   1.287 -0.8607 -0.4732  1.9759
 6487TIP3    H241021   6.797   4.512   1.228  0.5207  0.3991 -1.1787
 6488TIP3   OH241022   6.389   0.595   6.941  0.4654  0.0926  0.2427
 6488TIP3    H141023   6.342   0.664   6.894  0.2964  0.1129  0.4407
 6488TIP3    H241024   6.444   0.554   6.874  2.7455  2.2482  0.6430
 6489TIP3   OH241025   0.035   6.475   0.163  0.5119  0.2522 -0.1497
 6489TIP3    H141026   0.097   6.457   0.233  1.7266 -0.6741 -1.3914
 6489TIP3    H241027  -0.050   6.485   0.207  0.8167 -2.5409  1.2820
 6490TIP3   OH241028   2.923   2.434   7.700 -0.3303  1.1425  0.3548
 6490TIP3    H141029   3.000   2.399   7.744 -1.6118  0.9941  2.6808
 6490TIP3    H241030   2.850   2.383   7.737 -1.4869  0.2892 -2.7837
 6491TIP3   OH241031   4.153   5.087   0.231  0.4815 -0.0031 -0.3751
 6491TIP3    H141032   4.233   5.053   0.191  1.0652  1.1009 -0.2027
 6491TIP3    H241033   4.182   5.125   0.314 -0.0143  1.3583 -0.7963
 6492TIP3   OH241034   5.279   1.849   7.556 -0.3950 -0.3180 -0.1589
 6492TIP3    H141035   5.354   1.853   7.615 -0.7016  1.6271  0.1491
 6492TIP3    H241036   5.315   1.866   7.470 -0.7022  3.1658  0.2692
 6493TIP3   OH241037   4.102   1.254   1.561  0.7741  0.0412  0.0817
 6493TIP3    H141038   4.097   1.257   1.657  0.4606 -2.8942  0.2416
 6493TIP3    H241039   4.011   1.257   1.532  0.8355  0.2317 -0.0902
 6494TIP3   OH241040   0.632   6.725   1.284 -0.1741  0.3298 -0.5514
 6494TIP3    H141041   0.699   6.791   1.265 -0.5442  1.6024  2.1335
 6494TIP3    H241042   0.549   6.772   1.275 -0.5436 -0.3129 -0.5140
 6495TIP3   OH241043   3.850   3.336   7.320  0.2993 -0.2030 -0.1567
 6495TIP3    H141044   3.783   3.269   7.335 -0.0315  0.0960 -0.2819
 6495TIP3    H241045   3.916   3.319   7.387  0.7021 -1.2664 -0.7947
 6496TIP3   OH241046   5.312   4.408   0.505  0.1096  0.4918 -0.0768
 6496TIP3    H141047   5.281   4.339   0.446 -0.2847 -0.4043  1.1417
 6496TIP3    H241048   5.234   4.462   0.520  0.1995  0.6940 -0.3261
 6497TIP3   OH241049   0.889   2.747   2.075  0.4183 -0.0661 -0.0785
 6497TIP3    H141050   0.956   2.734   2.141  1.2011 -0.2693 -0.8998
 6497TIP3    H241051   0.935   2.742   1.992 -0.5153  0.3874 -0.6451
 6498TIP3   OH241052   2.815   3.738   1.610 -0.5460 -0.0037  0.4992
 6498TIP3    H141053   2.841   3.674   1.543 -0.6990 -0.7724  1.1516
 6498TIP3    H241054   2.769   3.807   1.562  1.0051  0.4174 -0.4246
 6499TIP3   OH241055   5.335   0.405   0.602 -0.4376  0.0252  0.2227
 6499TIP3    H141056   5.382   0.437   0.526  0.8372 -1.1873  0.4586
 6499TIP3    H241057   5.251   0.452   0.601 -0.1186  0.5999 -1.4566
 6500TIP3   OH241058   3.643   1.166   2.211 -0.5837 -0.2990 -0.1940
 6500TIP3    H141059   3.676   1.077   2.197 -0.2653 -0.1695 -0.2786
 6500TIP3    H241060   3.572   1.176   2.148 -1.7995 -1.1043  0.9817
 6501TIP3   OH241061   3.658   5.891   2.683  0.0800 -0.1458 -0.0611
 6501TIP3    H141062   3.562   5.889   2.683  0.0849 -1.0267  0.1981
 6501TIP3    H241063   3.684   5.800   2.698  0.9424  0.3552  1.8974
 6502TIP3   OH241064   2.537   2.151   0.531  0.1279  0.3691  0.5605
 6502TIP3    H141065   2.542   2.060   0.501 -1.6968  0.6080 -0.5915
 6502TIP3    H241066   2.547   2.146   0.626 -0.2782 -1.0782  0.5431
 6503TIP3   OH241067   4.716   1.360   2.233  0.0474  0.4559 -0.1600
 6503TIP3    H141068   4.677   1.357   2.146  0.2039 -1.6195 -0.1881
 6503TIP3    H241069   4.647   1.396   2.289 -1.0199 -0.7411 -0.6639
 6504TIP3   OH241070   2.685   6.994   2.436  0.1490 -0.5244  0.7122
 6504TIP3    H141071   2.616   6.940   2.397  0.6636  1.0586 -2.7884
 6504TIP3    H241072   2.680   7.078   2.389  3.4705  0.1945  1.3458
 6505TIP3   OH241073   3.272   3.926   1.861  0.1027  0.1735  0.0427
 6505TIP3    H141074   3.314   4.013   1.865  0.1303  0.1171  1.3665
 6505TIP3    H241075   3.179   3.944   1.874  0.1576 -0.0271  0.7361
 6506TIP3   OH241076   2.588   0.233   2.702 -0.9408 -0.0170  0.6789
 6506TIP3    H141077   2.607   0.148   2.743 -0.1581  0.0717  0.5271
 6506TIP3    H241078   2.620   0.223   2.612  0.7877  0.9976  1.1328
 6507TIP3   OH241079   3.388   1.006   6.476  0.0222  0.1109  0.0250
 6507TIP3    H141080   3.309   1.059   6.466 -0.4258 -0.4816  0.3558
 6507TIP3    H241081   3.359   0.917   6.457  0.5099 -0.1746  0.5836
 6508TIP3   OH241082   2.701   0.272   7.199 -0.2320  0.0821 -0.1815
 6508TIP3    H141083   2.675   0.239   7.113 -0.1192 -3.1078  0.8907
 6508TIP3    H241084   2.772   0.334   7.181 -0.5114 -0.1570 -2.3848
 6509TIP3   OH241085   4.601   5.902   1.213  0.5302  0.2689 -0.4143
 6509TIP3    H141086   4.571   5.897   1.122  0.9006 -0.2974 -0.5118
 6509TIP3    H241087   4.679   5.846   1.215  1.0788  1.0222  0.0286
 6510TIP3   OH241088   1.396   0.292   2.513  0.0100 -0.4540 -0.3291
 6510TIP3    H141089   1.365   0.202   2.505  0.1140 -0.4136 -1.2130
 6510TIP3    H241090   1.317   0.344   2.529 -0.2846 -0.4731 -1.6425
 6511TIP3   OH241091   0.405   6.778   7.563 -0.0434 -0.3381 -0.4756
 6511TIP3    H141092   0.340   6.811   7.625 -0.6192 -1.3807 -0.5054
 6511TIP3    H241093   0.430   6.854   7.511 -0.4598  0.2900  0.2330
 6512TIP3   OH241094   4.500   2.493   0.850  0.3305  0.3830  0.4760
 6512TIP3    H141095   4.407   2.493   0.826  0.3317 -0.6679  0.4369
 6512TIP3    H241096   4.503   2.544   0.931 -0.4810 -0.6512  1.1827
 6513TIP3   OH241097   3.251   2.498   7.201 -0.2583 -0.1140  0.2159
 6513TIP3    H141098   3.171   2.528   7.243 -0.0539  2.6756 -1.1671
 6513TIP3    H241099   3.317   2.564   7.223  0.9410 -0.8505 -0.9697
 6514TIP3   OH241100   5.995   2.515   6.936 -0.1686  0.0420 -0.4951
 6514TIP3    H141101   5.965   2.424   6.946 -0.9469  0.3694  0.1893
 6514TIP3    H241102   6.071   2.508   6.878  0.5456 -1.1908  0.5410
 6515TIP3   OH241103   4.986   2.023   1.350 -0.1010 -0.9316  0.0249
 6515TIP3    H141104   4.912   2.059   1.302  1.2382  2.5111  0.2441
 6515TIP3    H241105   4.949   1.992   1.432 -1.2807  1.4640  0.4776
 6516TIP3   OH241106   6.327   4.173   1.110 -0.4306  0.3221 -0.0978
 6516TIP3    H141107   6.335   4.185   1.205 -1.3903 -5.1149  1.0551
 6516TIP3    H241108   6.233   4.161   1.096 -0.0968 -1.5055 -1.1385
 6517TIP3   OH241109   0.408   6.627   0.904 -0.2191  0.6881 -0.2086
 6517TIP3    H141110   0.390   6.696   0.840 -0.4198  1.2965  0.4808
 6517TIP3    H241111   0.352   6.649   0.978  0.2412  0.1794  0.2961
 6518TIP3   OH241112   6.338   0.872   1.111  0.3725  0.1819  0.8170
 6518TIP3    H141113   6.338   0.920   1.028  0.2370 -0.8198  0.2254
 6518TIP3    H241114   6.423   0.893   1.150  1.8364 -1.8125 -1.0771
 6519TIP3   OH241115   3.945   5.018   6.774  0.0194 -0.1533  0.0921
 6519TIP3    H141116   4.007   5.016   6.702 -2.0733 -0.4753 -1.8030
 6519TIP3    H241117   3.994   5.057   6.847  2.0472  0.7140 -1.6393
 6520TIP3   OH241118   3.122   0.999   1.568 -0.3109 -0.2074 -0.2343
 6520TIP3    H141119   3.048   0.938   1.561 -0.2745 -0.3863  0.7909
 6520TIP3    H241120   3.187   0.964   1.507  0.4481 -2.3212  1.6222
 6521TIP3   OH241121   1.166   5.573   0.843  0.5496 -0.7017  0.3355
 6521TIP3    H141122   1.180   5.585   0.749  0.0759  0.3962  0.3865
 6521TIP3    H241123   1.131   5.485   0.851 -1.3752 -0.0802 -0.7498
 6522TIP3   OH241124   6.225   0.109   0.954 -0.1981  0.1804  0.1797
 6522TIP3    H141125   6.132   0.124   0.972 -0.4016  0.3978 -0.9530
 6522TIP3    H241126   6.245   0.028   1.001 -1.3451 -0.6486 -0.6605
 6523TIP3   OH241127   1.658   4.250   0.189  0.3250 -0.1126  0.4567
 6523TIP3    H141128   1.752   4.250   0.171  0.3251  0.0895  0.4548
 6523TIP3    H241129   1.618   4.254   0.102  0.3253  0.9299  0.4922
 6524TIP3   OH241130   4.650   3.857   1.741  0.1717 -0.2193 -0.1461
 6524TIP3    H141131   4.715   3.868   1.672 -1.6451  0.5499 -1.8470
 6524TIP3    H241132   4.583   3.923   1.721 -2.8456 -3.1194 -0.5846
 6525TIP3   OH241133   0.490   4.812   6.675 -0.0880  0.2376  0.2604
 6525TIP3    H141134   0.507   4.868   6.751 -1.1326  0.2287  0.5244
 6525TIP3    H241135   0.576   4.798   6.635  0.5209  0.0920  1.5507
 6526TIP3   OH241136   1.460   5.563   6.893 -0.5927 -0.0434 -0.6999
 6526TIP3    H141137   1.378   5.518   6.911 -0.4718 -0.5165 -1.2830
 6526TIP3    H241138   1.465   5.632   6.959 -0.4974 -1.2521  0.5980
 6527TIP3   OH241139   4.364   4.536   1.472 -0.2024  0.5371 -0.1331
 6527TIP3    H141140   4.288   4.486   1.445 -1.4810  1.5683  1.3703
 6527TIP3    H241141   4.329   4.619   1.504  1.1512  0.0208  3.2206
 6528TIP3   OH241142   6.426   4.317   1.851 -0.3102 -0.1050  0.1661
 6528TIP3    H141143   6.351   4.269   1.886  1.1452 -1.9258  0.9879
 6528TIP3    H241144   6.491   4.313   1.922  0.9801  0.3698 -0.9538
 6529TIP3   OH241145   5.360   3.635   1.782  0.2019 -0.2448 -0.0242
 6529TIP3    H141146   5.273   3.640   1.743  0.7373 -0.4931 -1.2932
 6529TIP3    H241147   5.351   3.681   1.866 -0.9409  0.4916 -0.5210
 6530TIP3   OH241148   1.173   3.601   2.309 -0.3243 -0.1607  0.6587
 6530TIP3    H141149   1.235   3.628   2.376 -0.7813 -1.4816  1.6648
 6530TIP3    H241150   1.113   3.542   2.355 -0.9096 -0.7497 -0.8116
 6531TIP3   OH241151   2.787   3.520   1.345  0.2557 -0.4876  0.1574
 6531TIP3    H141152   2.734   3.599   1.335  1.4938  0.6893  2.1485
 6531TIP3    H241153   2.756   3.480   1.426  0.6724 -1.1952 -0.0241
 6532TIP3   OH241154   0.147   0.080   8.285  0.2533  0.2785  0.4493
 6532TIP3    H141155   0.150   0.132   8.205 -0.8832  0.9624  0.8424
 6532TIP3    H241156   0.091   0.005   8.263  1.0770 -0.2912  0.1974
 6533TIP3   OH241157   4.195   6.792   2.174  0.0823  0.5687  0.0216
 6533TIP3    H141158   4.139   6.718   2.150  0.0848  0.4999  0.2214
 6533TIP3    H241159   4.262   6.754   2.232  1.7198  0.1980 -1.9860
 6534TIP3   OH241160   0.216   2.282   7.729 -0.0468  0.8379 -0.2831
 6534TIP3    H141161   0.228   2.226   7.805  0.9648  0.0083 -1.0203
 6534TIP3    H241162   0.305   2.309   7.705 -0.4315  1.9233 -0.5691
 6535TIP3   OH241163   3.177   0.883   7.130 -0.0515 -0.3267  0.3703
 6535TIP3    H141164   3.102   0.943   7.133  0.6597  0.6203 -0.2720
 6535TIP3    H241165   3.224   0.900   7.211  0.4044  0.3370 -0.0260
 6536TIP3   OH241166   6.661   0.490   8.201 -0.0037 -0.0763 -0.2022
 6536TIP3    H141167   6.666   0.445   8.286  0.0994  0.2251 -0.0492
 6536TIP3    H241168   6.649   0.419   8.138  0.1179 -0.3187  0.0442
 6537TIP3   OH241169   3.296   2.609   4.585  0.2320 -0.4960  0.2659
 6537TIP3    H141170   3.379   2.655   4.597  0.3703 -0.7015  0.0870
 6537TIP3    H241171   3.294   2.585   4.493 -0.8338  1.0851 -0.1810
 6538TIP3   OH241172   1.500   3.326   6.229 -0.0943 -0.7245  0.1320
 6538TIP3    H141173   1.470   3.294   6.144 -0.3929 -1.5831  0.5465
 6538TIP3    H241174   1.496   3.422   6.221 -0.7856 -0.7971 -0.5816
 6539TIP3   OH241175   4.878   5.900   2.791  0.4249  0.5876  0.3235
 6539TIP3    H141176   4.870   5.994   2.775 -0.0640  0.7002  1.1680
 6539TIP3    H241177   4.941   5.893   2.863  0.9988  0.2199 -0.2014
 6540TIP3   OH241178   1.916   3.068   1.732  0.0274 -1.1306  0.2509
 6540TIP3    H141179   1.905   3.114   1.649 -1.3425 -1.6808  0.1025
 6540TIP3    H241180   1.907   3.138   1.798 -0.3126 -0.9070 -0.0248
 6541TIP3   OH241181   5.217   0.847   0.055  0.0640 -0.1952 -0.1227
 6541TIP3    H141182   5.180   0.832  -0.032  1.4975  1.7725 -1.1811
 6541TIP3    H241183   5.157   0.908   0.097 -1.0557 -1.7712  0.6282
 6542TIP3   OH241184   6.203   2.719   6.455 -0.1544  0.4696 -0.4122
 6542TIP3    H141185   6.242   2.805   6.443 -1.8132  1.2310 -0.5916
 6542TIP3    H241186   6.110   2.736   6.472 -0.0855 -1.1211  2.2447
 6543TIP3   OH241187   5.237   1.156   1.377  0.7339 -0.2323  0.4648
 6543TIP3    H141188   5.279   1.122   1.455  2.9052  0.8015 -0.1658
 6543TIP3    H241189   5.308   1.197   1.327 -0.7631  0.1572 -1.4966
 6544TIP3   OH241190   6.285   0.632   6.665  0.4123  0.3764  0.1004
 6544TIP3    H141191   6.352   0.563   6.662 -0.2754 -0.2965 -2.8241
 6544TIP3    H241192   6.203   0.585   6.681  0.3655  1.0435  2.1613
 6545TIP3   OH241193   0.069   1.207   0.588 -0.3197  0.1526  0.4375
 6545TIP3    H141194   0.135   1.274   0.605 -1.1879  1.2711 -0.4681
 6545TIP3    H241195  -0.011   1.256   0.569 -1.7376 -1.1586  2.5512
 6546TIP3   OH241196   6.242   2.585   7.488  0.2220  0.2614  0.2675
 6546TIP3    H141197   6.316   2.548   7.439  1.3983  1.8768  0.7296
 6546TIP3    H241198   6.281   2.620   7.568 -1.1936  0.3821  0.9431
 6547TIP3   OH241199   6.767   6.948   1.917 -0.1196  0.4179  0.3062
 6547TIP3    H141200   6.861   6.966   1.912 -0.0772  0.1298  0.0457
 6547TIP3    H241201   6.761   6.863   1.960 -0.3222  1.0397  1.5652
 6548TIP3   OH241202   0.762   1.376   8.164 -0.0399  0.0249  0.6082
 6548TIP3    H141203   0.853   1.349   8.175 -0.0847 -0.0969  0.6850
 6548TIP3    H241204   0.762   1.428   8.083  0.0068 -0.3839  0.3437
 6549TIP3   OH241205   3.525   2.589   8.201 -0.1607 -0.1913 -0.0349
 6549TIP3    H141206   3.431   2.602   8.213 -0.4337 -0.1791 -1.8845
 6549TIP3    H241207   3.541   2.499   8.230 -0.7593 -0.2377  0.1574
 6550TIP3   OH241208   1.369   6.638   0.333  0.2042 -0.3604  0.0203
 6550TIP3    H141209   1.359   6.710   0.395  0.4143  0.7758 -1.2271
 6550TIP3    H241210   1.464   6.628   0.323  0.1924  0.7454 -1.5184
 6551TIP3   OH241211   6.670   4.379   0.482 -0.0318 -0.3027 -0.1288
 6551TIP3    H141212   6.694   4.386   0.390 -0.2572 -2.1698 -0.3739
 6551TIP3    H241213   6.597   4.440   0.492 -0.1839 -0.2718 -1.2580
 6552TIP3   OH241214   2.517   3.230   0.177 -0.1982  0.3252 -0.4003
 6552TIP3    H141215   2.458   3.264   0.110 -2.0036  1.3763  1.5947
 6552TIP3    H241216   2.604   3.241   0.139 -1.0000  2.7609 -1.8026
 6553TIP3   OH241217   1.310   1.948   6.255 -0.9285 -0.8188 -0.2040
 6553TIP3    H141218   1.294   1.859   6.223  0.6521 -0.4134 -2.3384
 6553TIP3    H241219   1.384   1.939   6.314 -1.3832 -1.0414  0.3383
 6554TIP3   OH241220   0.013   4.381   7.546 -0.4445  0.3322  0.4650
 6554TIP3    H141221  -0.070   4.423   7.522 -0.4567  0.8408  1.3529
 6554TIP3    H241222  -0.008   4.332   7.626  0.2303  0.9150  1.0122
 6555TIP3   OH241223   0.529   2.803   0.330  0.6766 -0.3116  0.1006
 6555TIP3    H141224   0.447   2.822   0.376 -0.2629 -2.0495 -0.7361
 6555TIP3    H241225   0.501   2.774   0.243  1.9410 -3.6030  0.6662
 6556TIP3   OH241226   6.463   0.574   1.002 -0.1121 -0.4717  0.5070
 6556TIP3    H141227   6.428   0.518   1.072  0.3228 -0.5630  0.6521
 6556TIP3    H241228   6.385   0.614   0.963 -0.4099 -0.9542  0.5909
 6557TIP3   OH241229   0.612   2.547   1.095  0.6728  0.0618 -0.3882
 6557TIP3    H141230   0.683   2.490   1.065  0.1941 -1.9938  2.0226
 6557TIP3    H241231   0.648   2.592   1.171  0.3800  1.5488 -1.0866
 6558TIP3   OH241232   1.756   4.172   7.872 -0.2881 -0.3876 -0.5583
 6558TIP3    H141233   1.745   4.113   7.798 -1.7318  0.8051 -1.3365
 6558TIP3    H241234   1.845   4.205   7.864 -0.0964 -1.0426 -1.1644
 6559TIP3   OH241235   3.184   2.101   6.944  0.2914  0.5666  0.5262
 6559TIP3    H141236   3.226   2.041   6.882  0.4680 -0.5827  1.7032
 6559TIP3    H241237   3.095   2.068   6.952  1.0449 -1.1322  3.0179
 6560TIP3   OH241238   3.668   1.543   6.547  0.1488 -0.6602 -0.1151
 6560TIP3    H141239   3.720   1.518   6.470  1.2277  0.5147  0.2069
 6560TIP3    H241240   3.732   1.553   6.617 -0.4704  1.0439  0.2456
 6561TIP3   OH241241   6.446   1.694   0.442  0.2756  0.3924 -0.0428
 6561TIP3    H141242   6.386   1.764   0.417 -0.1401  0.3210  0.7332
 6561TIP3    H241243   6.500   1.680   0.364 -0.7829  0.3832 -0.8005
 6562TIP3   OH241244   6.801   1.124   0.909 -0.2864 -0.3434  0.2023
 6562TIP3    H141245   6.855   1.178   0.966 -0.4962 -0.7659  0.8113
 6562TIP3    H241246   6.860   1.054   0.880 -0.4222 -0.6435  0.6388
 6563TIP3   OH241247   5.560   0.577   1.468  0.1183 -0.0777 -0.5931
 6563TIP3    H141248   5.533   0.663   1.436  0.8512 -0.3227 -1.9860
 6563TIP3    H241249   5.639   0.557   1.416  0.6777 -1.0411  0.5887
 6564TIP3   OH241250   1.571   6.481   7.185 -0.5644 -0.3167 -0.2770
 6564TIP3    H141251   1.529   6.439   7.260 -0.7230 -0.0480 -0.2130
 6564TIP3    H241252   1.499   6.518   7.134 -0.4820 -0.7647 -0.7305
 6565TIP3   OH241253   4.388   4.754   1.805 -0.1610  0.1803 -0.3792
 6565TIP3    H141254   4.477   4.765   1.837 -0.9481  0.2890  1.9227
 6565TIP3    H241255   4.395   4.766   1.710  1.9827  1.8791 -0.0796
 6566TIP3   OH241256   0.180   6.975   0.340  0.3247  0.4407  0.0604
 6566TIP3    H141257   0.275   6.969   0.350  0.4902  1.5381 -0.6328
 6566TIP3    H241258   0.167   7.014   0.253 -0.8096 -0.9832 -0.4496
 6567TIP3   OH241259   5.506   3.086   7.284  0.1372 -0.3490  0.5489
 6567TIP3    H141260   5.486   2.994   7.267 -1.7096  0.2193 -0.6287
 6567TIP3    H241261   5.601   3.093   7.273  0.0704 -1.7224 -1.4344
 6568TIP3   OH241262   6.840   4.405   0.779 -0.2092  0.4136  0.7123
 6568TIP3    H141263   6.894   4.363   0.846  1.2010 -2.0261 -1.7435
 6568TIP3    H241264   6.754   4.363   0.787 -0.1831  0.4535  1.2370
 6569TIP3   OH241265   5.245   6.775   8.196  0.0956 -0.9563 -0.3241
 6569TIP3    H141266   5.213   6.707   8.256 -1.6211 -1.3347 -1.5884
 6569TIP3    H241267   5.337   6.786   8.218 -0.2645 -1.7203  1.7665
 6570TIP3   OH241268   3.232   0.789   7.991 -0.6176 -0.5931 -0.5102
 6570TIP3    H141269   3.285   0.740   8.054 -0.9864 -1.2569 -0.7098
 6570TIP3    H241270   3.198   0.864   8.041 -0.0571 -0.5393 -0.2043
 6571TIP3   OH241271   0.750   3.363   7.924 -0.3016  0.2041  0.3452
 6571TIP3    H141272   0.701   3.282   7.942  2.1563 -0.9142  2.8894
 6571TIP3    H241273   0.832   3.333   7.884 -0.6768  1.8023 -1.7789
 6572TIP3   OH241274   5.768   0.713   2.034  0.6004  0.0668 -0.1972
 6572TIP3    H141275   5.761   0.790   2.091 -0.6955 -1.4272  1.7982
 6572TIP3    H241276   5.831   0.656   2.078  0.1073 -0.8165 -0.6016
 6573TIP3   OH241277   3.130   6.439   0.040  0.8225 -0.5416  0.3836
 6573TIP3    H141278   3.099   6.387   0.114  0.5703 -1.1196 -0.1182
 6573TIP3    H241279   3.074   6.412  -0.033  1.7897 -0.7936 -0.2767
 6574TIP3   OH241280   0.725   2.036   7.707  0.0001 -0.7702  0.1076
 6574TIP3    H141281   0.776   1.970   7.660  1.6122 -1.2446  2.3369
 6574TIP3    H241282   0.647   1.989   7.737 -0.6431 -0.6649 -1.3446
 6575TIP3   OH241283   4.237   4.652   8.179 -0.3721  0.3075  0.0383
 6575TIP3    H141284   4.158   4.599   8.171 -1.0028  0.7640  2.4215
 6575TIP3    H241285   4.266   4.638   8.269  1.6496  1.0246 -0.4478
 6576TIP3   OH241286   3.569   4.480   1.314  0.5073  0.6026 -0.3095
 6576TIP3    H141287   3.515   4.412   1.355  1.5552 -0.3222 -0.4216
 6576TIP3    H241288   3.538   4.561   1.354 -0.9843  0.1163 -0.3951
 6577TIP3   OH241289   4.146   2.639   0.011  0.2786 -0.7289 -0.3059
 6577TIP3    H141290   4.080   2.620   0.077  0.3328  0.6669  0.1785
 6577TIP3    H241291   4.143   2.564  -0.049 -1.5716 -0.7943 -0.1620
 6578TIP3   OH241292   3.699   1.612   2.234  0.5297  0.1067 -0.0797
 6578TIP3    H141293   3.742   1.695   2.253 -2.1791  1.1188  2.1905
 6578TIP3    H241294   3.725   1.554   2.307 -0.3158  0.0813  0.2056
 6579TIP3   OH241295   0.518   1.596   1.629 -0.0442 -0.0554  1.0682
 6579TIP3    H141296   0.463   1.617   1.553 -0.3497  0.6160  1.4629
 6579TIP3    H241297   0.487   1.655   1.697  1.2440  0.4132  1.2717
 6580TIP3   OH241298   6.350   0.735   1.911 -0.5324  0.5377 -0.7430
 6580TIP3    H141299   6.384   0.663   1.858 -0.0744 -1.4110  2.0017
 6580TIP3    H241300   6.255   0.730   1.901 -0.5771 -1.2433  0.3192
 6581TIP3   OH241301   3.072   5.177   1.281 -0.4958  0.4540  0.1208
 6581TIP3    H141302   3.114   5.263   1.272 -1.1192  1.0285  2.2854
 6581TIP3    H241303   2.988   5.195   1.323  0.6545 -1.4555  3.5874
 6582TIP3   OH241304   5.602   1.173   0.715  0.2818  0.4361  0.2525
 6582TIP3    H141305   5.685   1.126   0.724  0.3149  0.3759 -0.3371
 6582TIP3    H241306   5.618   1.236   0.645  0.1820  1.2185  0.9162
 6583TIP3   OH241307   5.789   1.510   2.663 -0.3424  0.3953  0.4651
 6583TIP3    H141308   5.721   1.469   2.610  1.1347  0.6207 -1.7489
 6583TIP3    H241309   5.805   1.448   2.734 -1.6106 -0.4725  0.0165
 6584TIP3   OH241310   2.628   3.930   2.100  0.8602  0.0513 -0.5918
 6584TIP3    H141311   2.571   3.900   2.030 -0.5103 -1.5129  1.1011
 6584TIP3    H241312   2.600   4.020   2.117 -0.8487 -0.5369 -0.0994
 6585TIP3   OH241313   2.590   0.114   7.743  0.6402 -0.3546  0.0448
 6585TIP3    H141314   2.617   0.028   7.777  0.2183 -0.6440 -0.3439
 6585TIP3    H241315   2.642   0.177   7.793  0.5626 -0.8104  0.7115
 6586TIP3   OH241316   4.100   5.519   2.219  0.0061 -0.2650  0.3029
 6586TIP3    H141317   4.091   5.432   2.182 -0.9272 -0.3676  0.7518
 6586TIP3    H241318   4.165   5.510   2.288 -0.1001 -0.6087  0.3578
 6587TIP3   OH241319   5.424   2.714   0.886 -0.1963 -0.4496  0.1059
 6587TIP3    H141320   5.364   2.745   0.818  0.9766  0.7503 -0.4403
 6587TIP3    H241321   5.448   2.626   0.858  0.5986  0.1785 -1.3259
 6588TIP3   OH241322   1.657   5.239   1.983 -0.1878  0.3056  0.2788
 6588TIP3    H141323   1.750   5.223   1.997 -0.2090 -0.4062 -0.3264
 6588TIP3    H241324   1.634   5.308   2.045  0.5228 -0.1991  1.1184
 6589TIP3   OH241325   1.226   4.724   8.273 -0.0123  0.0963  0.3659
 6589TIP3    H141326   1.228   4.804   8.221  1.5619  0.2491  0.6151
 6589TIP3    H241327   1.284   4.742   8.347 -0.3104 -0.9763  0.8812
 6590TIP3   OH241328   3.122   0.137   1.354 -0.4606 -0.0786 -0.0470
 6590TIP3    H141329   3.096   0.201   1.420 -1.2809  0.4895 -0.8847
 6590TIP3    H241330   3.056   0.068   1.360  1.4556 -1.9026  2.1580
 6591TIP3   OH241331   2.001   2.328   8.030 -0.0671 -0.8217 -0.3945
 6591TIP3    H141332   2.013   2.240   8.067  0.3620 -0.8866 -0.6782
 6591TIP3    H241333   2.003   2.315   7.935 -1.3674 -0.6846 -0.4591
 6592TIP3   OH241334   0.604   5.659   1.069 -0.0753  0.3086 -0.3679
 6592TIP3    H141335   0.527   5.604   1.082 -0.8789  1.6185  0.8155
 6592TIP3    H241336   0.678   5.606   1.100 -1.0562  0.5572  2.7799
 6593TIP3   OH241337   4.260   3.126   7.849  0.0840 -0.2153 -0.2288
 6593TIP3    H141338   4.211   3.094   7.924 -0.5766  0.0771 -0.5281
 6593TIP3    H241339   4.345   3.080   7.854  0.0556 -0.1802  0.6922
 6594TIP3   OH241340   6.342   1.708   1.142 -0.0358  0.6168  0.1199
 6594TIP3    H141341   6.422   1.687   1.093 -0.9951 -0.4070 -1.0792
 6594TIP3    H241342   6.275   1.652   1.103 -0.9271 -0.0277  2.4149
 6595TIP3   OH241343   4.239   6.223   7.991 -0.1417  0.5802  0.0903
 6595TIP3    H141344   4.263   6.315   8.000  0.0017  0.8571 -2.3031
 6595TIP3    H241345   4.201   6.217   7.903 -1.0702 -1.4718  0.5687
 6596TIP3   OH241346   6.896   2.242   7.814  0.1464  0.3089  0.1926
 6596TIP3    H141347   6.874   2.331   7.842  1.2629  0.1083  1.8610
 6596TIP3    H241348   6.982   2.226   7.852 -0.0395 -1.4841 -0.0823
 6597TIP3   OH241349   1.900   5.389   8.235 -0.1939 -0.7056 -0.2060
 6597TIP3    H141350   1.985   5.351   8.258  0.4718 -0.0369 -1.4320
 6597TIP3    H241351   1.909   5.482   8.254 -0.4669 -0.5503 -0.8054
 6598TIP3   OH241352   3.230   2.416   1.866  0.0876 -0.2988  0.2169
 6598TIP3    H141353   3.285   2.338   1.875  1.6034  0.7890  0.8743
 6598TIP3    H241354   3.188   2.426   1.951  1.3328  0.6037  0.7483
 6599TIP3   OH241355   0.347   1.678   1.055 -0.2914  1.1410 -0.0994
 6599TIP3    H141356   0.363   1.746   1.120 -1.3290  1.5959 -0.3012
 6599TIP3    H241357   0.285   1.718   0.993  0.0126  0.4235 -0.8880
 6600TIP3   OH241358   5.473   4.398   0.772 -0.1724 -0.1226  0.3877
 6600TIP3    H141359   5.431   4.386   0.688 -1.5243 -0.6226  1.1053
 6600TIP3    H241360   5.516   4.314   0.790  1.6579  0.5472 -0.5763
 6601TIP3   OH241361   6.676   3.384   0.231  0.1025  0.1510 -0.1286
 6601TIP3    H141362   6.597   3.433   0.207 -0.2551 -0.4840 -0.2587
 6601TIP3    H241363   6.644   3.312   0.284  0.6446  0.1263  0.1748
 6602TIP3   OH241364   2.607   2.121   1.083 -0.0326  0.3009  0.1206
 6602TIP3    H141365   2.689   2.080   1.109 -0.6187 -0.6590  0.5045
 6602TIP3    H241366   2.630   2.212   1.066  0.8802  0.3216  1.3717
 6603TIP3   OH241367   4.067   5.715   1.949 -0.0914 -0.3923  0.5679
 6603TIP3    H141368   4.129   5.787   1.936 -1.0535  0.6531  1.4966
 6603TIP3    H241369   4.108   5.640   1.906  1.2643  0.5388  0.1539
 6604TIP3   OH241370   3.057   6.985   6.651 -0.1208  0.4322 -0.2757
 6604TIP3    H141371   3.122   6.916   6.640  0.6513  1.2036 -0.7067
 6604TIP3    H241372   2.979   6.953   6.605  0.4081  0.0907 -0.9540
 6605TIP3   OH241373   1.437   1.002   1.404 -0.0684 -0.1659 -0.3097
 6605TIP3    H141374   1.406   0.916   1.431 -1.6949  0.5437  0.2127
 6605TIP3    H241375   1.363   1.060   1.420  0.9221  1.3003 -0.8476
 6606TIP3   OH241376   4.843   1.707   1.875 -0.0820  0.4372  0.0647
 6606TIP3    H141377   4.825   1.754   1.957  3.5559  0.1923  1.1968
 6606TIP3    H241378   4.838   1.775   1.808  0.5769  1.5321  1.0587
 6607TIP3   OH241379   3.659   1.578   6.846 -0.2429  0.3050 -0.0352
 6607TIP3    H141380   3.732   1.621   6.892  0.5166 -0.1340 -0.7881
 6607TIP3    H241381   3.699   1.501   6.806 -1.2320 -0.1871 -0.0987
 6608TIP3   OH241382   1.603   3.285   1.436 -0.4228  0.2110  0.1090
 6608TIP3    H141383   1.516   3.306   1.469 -0.2311 -1.3487  1.7855
 6608TIP3    H241384   1.587   3.230   1.359 -0.9229 -0.0178  0.3711
 6609TIP3   OH241385   0.317   2.985   8.284 -0.3265  0.0029 -0.1552
 6609TIP3    H141386   0.340   3.075   8.264 -1.3614  0.0099 -1.4520
 6609TIP3    H241387   0.276   2.952   8.204  1.8324 -2.2674 -0.4214
 6610TIP3   OH241388   0.411   0.357   0.052  0.4050  0.0875 -0.0599
 6610TIP3    H141389   0.376   0.434   0.008  1.8026  2.2527  2.3672
 6610TIP3    H241390   0.334   0.316   0.093 -0.1314  1.2383  0.1128
 6611TIP3   OH241391   1.522   0.346   7.389  0.0129  0.3271 -0.1198
 6611TIP3    H141392   1.437   0.390   7.398 -0.3782 -0.4703  0.1782
 6611TIP3    H241393   1.586   0.417   7.388 -0.6162  0.9086  0.2480
 6612TIP3   OH241394   0.399   3.966   7.367  0.5047 -0.3176 -0.4691
 6612TIP3    H141395   0.320   4.020   7.368  0.5261 -0.2588 -1.2563
 6612TIP3    H241396   0.413   3.946   7.274  0.5866 -1.5355 -0.2155
 6613TIP3   OH241397   2.080   0.601   0.640  0.0805  0.5732  0.5430
 6613TIP3    H141398   2.149   0.660   0.610  0.1717 -0.0290 -0.4836
 6613TIP3    H241399   2.097   0.519   0.594 -1.5216  0.5086 -0.0135
 6614TIP3   OH241400   5.284   0.796   1.535 -0.2329 -0.3265  0.0408
 6614TIP3    H141401   5.347   0.783   1.606 -1.9522  0.2940  1.7786
 6614TIP3    H241402   5.285   0.891   1.519  1.2193 -0.5926 -1.9063
 6615TIP3   OH241403   6.304   0.697   7.317  0.0547 -0.0150 -0.7781
 6615TIP3    H141404   6.209   0.687   7.324 -0.0513 -0.2625 -2.2783
 6615TIP3    H241405   6.332   0.623   7.263  0.7359  1.4586 -2.5528
 6616TIP3   OH241406   3.797   2.904   6.809 -0.3442  0.5964 -0.1025
 6616TIP3    H141407   3.842   2.984   6.834  0.2179  0.4950 -0.7824
 6616TIP3    H241408   3.845   2.834   6.854 -0.2854  0.5565 -0.2278
 6617TIP3   OH241409   1.871   3.514   7.826 -0.2027 -0.0742 -0.3475
 6617TIP3    H141410   1.834   3.433   7.860  0.9298 -0.6042 -0.3117
 6617TIP3    H241411   1.920   3.488   7.748  0.5746  0.4876 -0.0692
 6618TIP3   OH241412   1.765   4.483   0.739  0.2982  0.4676 -0.3383
 6618TIP3    H141413   1.734   4.403   0.782  0.9660  0.7291  0.6912
 6618TIP3    H241414   1.711   4.552   0.777  1.5969  0.8331  0.9206
 6619TIP3   OH241415   0.677   5.169   1.706 -1.1314 -0.3432 -0.0066
 6619TIP3    H141416   0.704   5.154   1.796 -0.5988  1.6299  0.2128
 6619TIP3    H241417   0.730   5.107   1.655  2.4362  1.8775  0.6227
 6620TIP3   OH241418   0.650   2.793   7.468  0.4347 -0.2491  0.1613
 6620TIP3    H141419   0.574   2.754   7.512  0.1582 -0.0581 -0.1406
 6620TIP3    H241420   0.701   2.719   7.436  2.0000 -0.5395  2.9669
 6621TIP3   OH241421   1.644   2.354   7.719  0.5267  0.3042 -0.0272
 6621TIP3    H141422   1.629   2.441   7.682 -0.1922  1.0383  1.8758
 6621TIP3    H241423   1.702   2.369   7.794 -1.7169 -0.4135  1.9785
 6622TIP3   OH241424   6.086   1.878   8.010 -0.3321 -0.0740  0.1822
 6622TIP3    H141425   6.011   1.855   7.954 -1.2411  0.5859  1.1123
 6622TIP3    H241426   6.126   1.793   8.030  0.0898 -0.3246 -1.5497
 6623TIP3   OH241427   3.844   6.641   7.446  0.0570 -0.2103 -0.2894
 6623TIP3    H141428   3.872   6.555   7.475  0.6675  0.5754  1.6250
 6623TIP3    H241429   3.762   6.656   7.494 -0.4489 -0.0304 -1.1968
 6624TIP3   OH241430   1.517   0.198   1.239  0.3375 -0.2253  0.0536
 6624TIP3    H141431   1.538   0.105   1.233  0.8588 -0.1678  0.7878
 6624TIP3    H241432   1.449   0.203   1.307 -0.4885 -0.1762 -0.7598
 6625TIP3   OH241433   4.382   3.235   1.152 -0.1165  0.5565 -0.0796
 6625TIP3    H141434   4.454   3.287   1.188  0.0776  0.3668 -0.1868
 6625TIP3    H241435   4.315   3.237   1.220  0.3634 -0.0436  0.4310
 6626TIP3   OH241436   6.058   1.380   7.827  0.2045  0.0645  0.5004
 6626TIP3    H141437   6.089   1.325   7.899  0.3459 -0.4059  0.0848
 6626TIP3    H241438   6.011   1.319   7.769  1.3991  0.1341 -0.5859
 6627TIP3   OH241439   0.578   0.491   0.224  0.1926  0.6668  0.0665
 6627TIP3    H141440   0.535   0.458   0.145 -0.2820 -0.4675  0.7818
 6627TIP3    H241441   0.568   0.421   0.288  0.5498  1.5769  1.1503
 6628TIP3   OH241442   2.687   5.952   6.785 -0.0654 -0.0544  0.0651
 6628TIP3    H141443   2.645   5.870   6.809  1.0221 -0.0179  2.3146
 6628TIP3    H241444   2.675   6.009   6.861  1.2598  1.0305 -0.4923
 6629TIP3   OH241445   0.452   4.361   1.497 -0.4094 -0.3499  0.1056
 6629TIP3    H141446   0.470   4.449   1.463 -0.3361 -0.4751 -0.1805
 6629TIP3    H241447   0.537   4.329   1.528 -0.6658  0.2064  1.4739
 6630TIP3   OH241448   6.316   0.167   7.692 -0.0853  0.4327 -0.6583
 6630TIP3    H141449   6.324   0.237   7.757  0.8817 -0.6935  0.5072
 6630TIP3    H241450   6.305   0.212   7.609  0.3500  1.9572  0.0758
 6631TIP3   OH241451   1.961   0.235   2.412  0.2324 -0.1789 -0.8208
 6631TIP3    H141452   1.881   0.184   2.427  0.6898 -0.6617  0.0873
 6631TIP3    H241453   2.012   0.223   2.492  0.7314  1.0286 -0.9328
 6632TIP3   OH241454   0.833   2.018   2.304  0.6371 -0.4976 -0.2228
 6632TIP3    H141455   0.858   1.932   2.338  1.4855 -0.6299 -1.1121
 6632TIP3    H241456   0.899   2.078   2.340 -0.6215  0.0154  1.3448
 6633TIP3   OH241457   2.786   3.570   0.509 -0.2206  0.1757 -0.5114
 6633TIP3    H141458   2.699   3.608   0.519 -0.8974 -1.6159  0.9219
 6633TIP3    H241459   2.794   3.553   0.415 -0.3707  2.5624 -1.0377
 6634TIP3   OH241460   5.805   4.752   8.063  0.5801 -0.0035  0.0651
 6634TIP3    H141461   5.896   4.747   8.094  0.3056 -1.5883  0.7556
 6634TIP3    H241462   5.778   4.660   8.056 -1.3782  0.4227  1.1822
 6635TIP3   OH241463   3.329   6.372   2.909 -0.1828 -0.4732 -0.6040
 6635TIP3    H141464   3.305   6.465   2.919  1.2567  0.3492 -3.7082
 6635TIP3    H241465   3.245   6.327   2.897 -0.8071  0.6439 -0.5766
 6636TIP3   OH241466   3.809   2.608   0.134  0.0541  0.0288 -0.3052
 6636TIP3    H141467   3.817   2.639   0.044 -0.4586 -0.8421 -0.6711
 6636TIP3    H241468   3.719   2.627   0.158 -0.0901 -0.6105 -0.3250
 6637TIP3   OH241469   5.780   6.071   2.665 -0.1889  0.2148  0.1046
 6637TIP3    H141470   5.695   6.112   2.679  0.0464  0.3273  1.2887
 6637TIP3    H241471   5.843   6.132   2.704  0.1737 -1.1979  1.8708
 6638TIP3   OH241472   3.029   5.118   7.751 -0.1839  0.6445  0.9188
 6638TIP3    H141473   3.090   5.104   7.679 -1.6444 -0.4558 -0.1866
 6638TIP3    H241474   3.084   5.134   7.827  1.5490 -1.8584  0.3143
 6639TIP3   OH241475   4.274   4.007   7.066 -0.2882  0.6175  0.3052
 6639TIP3    H141476   4.301   4.093   7.099 -2.4804  0.8366  1.7415
 6639TIP3    H241477   4.307   4.005   6.976  2.4522  1.6719  1.1679
 6640TIP3   OH241478   2.850   2.629   0.760  0.2757  1.4979 -0.5540
 6640TIP3    H141479   2.927   2.670   0.722  1.9443 -1.3650 -0.5127
 6640TIP3    H241480   2.884   2.572   0.829 -1.8566  0.1183 -0.5408
 6641TIP3   OH241481   4.162   0.127   0.728 -0.1658  0.2403 -0.5959
 6641TIP3    H141482   4.143   0.191   0.659 -1.3191 -0.0178 -0.5350
 6641TIP3    H241483   4.216   0.061   0.686 -1.8321 -0.5366 -1.6019
 6642TIP3   OH241484   6.364   5.413   1.595  0.5217 -0.0366  1.0620
 6642TIP3    H141485   6.349   5.347   1.528 -1.9237  1.5719 -0.0975
 6642TIP3    H241486   6.446   5.456   1.569  0.1510 -0.1359 -0.3043
 6643TIP3   OH241487   3.191   6.211   0.796 -0.3936  0.9316  0.5277
 6643TIP3    H141488   3.236   6.137   0.837  0.1183  2.1317  2.2776
 6643TIP3    H241489   3.104   6.178   0.774  0.5928 -0.8434 -0.9672
 6644TIP3   OH241490   1.831   6.753   2.009 -0.1038 -0.1114  0.4433
 6644TIP3    H141491   1.745   6.711   2.013  0.0714 -0.5455 -0.1952
 6644TIP3    H241492   1.858   6.744   1.917  0.1221  1.0282  0.3825
 6645TIP3   OH241493   1.723   0.735   1.330 -0.4254 -0.2239 -0.2714
 6645TIP3    H141494   1.652   0.675   1.309  0.6527 -1.2282 -1.1753
 6645TIP3    H241495   1.755   0.705   1.415 -0.7183 -0.1029 -0.1156
 6646TIP3   OH241496   3.041   2.074   6.167  0.8267 -0.2056  0.1942
 6646TIP3    H141497   3.004   2.032   6.244  0.6724  0.5231  0.5251
 6646TIP3    H241498   3.081   2.002   6.117 -0.9624 -1.0126 -0.1423
 6647TIP3   OH241499   1.145   6.049   6.987  0.4044 -0.0268 -0.1933
 6647TIP3    H141500   1.099   6.101   7.054  0.7049  0.8331 -0.6375
 6647TIP3    H241501   1.160   6.111   6.915 -1.4492 -1.3612 -1.8186
 6648TIP3   OH241502   4.242   0.409   2.523  0.5639 -0.5590 -0.3135
 6648TIP3    H141503   4.213   0.329   2.565  0.3339 -0.8134 -0.9418
 6648TIP3    H241504   4.241   0.475   2.592 -0.5232 -0.7941 -0.1000
 6649TIP3   OH241505   4.417   5.047   0.135  0.0722  0.2257  0.6055
 6649TIP3    H141506   4.450   5.136   0.141 -0.0887  0.1974  2.9027
 6649TIP3    H241507   4.424   5.024   0.042  0.0202  2.6415 -0.0438
 6650TIP3   OH241508   3.493   6.230   2.496 -0.5416 -0.3859 -0.0578
 6650TIP3    H141509   3.410   6.242   2.541  0.0247 -0.2130  0.9669
 6650TIP3    H241510   3.506   6.312   2.448 -1.2730 -0.6761 -0.7918
 6651TIP3   OH241511   0.816   3.335   6.746  0.0311 -0.3637 -0.0683
 6651TIP3    H141512   0.744   3.384   6.705  0.4195 -0.1333 -0.4927
 6651TIP3    H241513   0.774   3.280   6.812 -0.6738 -1.1228 -1.1302
 6652TIP3   OH241514   2.973   0.696   1.212 -0.2744 -0.0180 -0.4942
 6652TIP3    H141515   3.031   0.678   1.286 -0.2942 -0.3084 -0.5477
 6652TIP3    H241516   2.888   0.714   1.252 -0.4610 -0.9073 -0.4792
 6653TIP3   OH241517   3.559   1.879   2.064 -0.7671 -0.0414  0.8638
 6653TIP3    H141518   3.528   1.844   2.147  0.1887  0.7029  1.5572
 6653TIP3    H241519   3.632   1.936   2.088 -0.7311  0.4934 -0.4529
 6654TIP3   OH241520   1.244   0.755   1.368 -0.3269 -0.5198  0.0574
 6654TIP3    H141521   1.162   0.708   1.384 -1.2460  0.8745 -0.4180
 6654TIP3    H241522   1.218   0.837   1.327  1.4347 -0.7604 -1.6938
 6655TIP3   OH241523   2.291   2.623   0.903 -0.0426 -0.4917 -0.0946
 6655TIP3    H141524   2.284   2.718   0.900 -0.0279 -0.4803  0.1645
 6655TIP3    H241525   2.381   2.605   0.875  1.0522 -0.2143  2.9082
 6656TIP3   OH241526   6.584   2.171   6.152  0.1757  0.8543  0.3406
 6656TIP3    H141527   6.586   2.078   6.175 -0.8047  0.5943 -0.5687
 6656TIP3    H241528   6.610   2.216   6.232  0.4893 -0.1997  0.8396
 6657TIP3   OH241529   0.341   3.251   8.250  0.2198 -0.0318 -0.2303
 6657TIP3    H141530   0.384   3.325   8.208  1.0485 -0.3621  0.0120
 6657TIP3    H241531   0.248   3.275   8.252  0.6336  1.6330  1.1300
 6658TIP3   OH241532   4.465   0.525   7.230 -0.1264 -0.3583  0.1280
 6658TIP3    H141533   4.526   0.513   7.158 -1.3878  0.3836 -1.1141
 6658TIP3    H241534   4.398   0.459   7.217 -0.6027  0.0724  0.3625
 6659TIP3   OH241535   1.244   5.088   7.737  0.2713 -0.2974  0.2489
 6659TIP3    H141536   1.207   5.004   7.713  0.1642 -0.3709  0.6744
 6659TIP3    H241537   1.238   5.141   7.657 -2.0401  0.1632  0.6614
 6660TIP3   OH241538   0.900   4.819   7.680  0.0300  0.1915  0.1698
 6660TIP3    H141539   0.815   4.775   7.688 -1.1098  2.1586 -0.4449
 6660TIP3    H241540   0.884   4.907   7.714  2.1833  0.2364  1.1800
 6661TIP3   OH241541   0.753   2.819   1.438  0.2045  0.1290  0.0154
 6661TIP3    H141542   0.731   2.909   1.463  0.2935  0.2482 -0.3376
 6661TIP3    H241543   0.844   2.824   1.409 -0.0638  0.0945 -0.8548
 6662TIP3   OH241544   2.332   6.221   0.939  0.5152  0.7308  0.7089
 6662TIP3    H141545   2.241   6.251   0.932  0.3063  0.1427  0.8585
 6662TIP3    H241546   2.338   6.181   1.025  1.1551  1.5233  1.0432
 6663TIP3   OH241547   5.426   5.461   7.334  0.5103  0.4830 -0.5538
 6663TIP3    H141548   5.488   5.466   7.261  2.9244  1.2225  1.3932
 6663TIP3    H241549   5.406   5.552   7.355  0.1933  0.2981 -0.0264
 6664TIP3   OH241550   2.808   1.663   7.573  0.3204 -0.0673  0.3129
 6664TIP3    H141551   2.830   1.741   7.522 -1.5943  0.7147  0.6009
 6664TIP3    H241552   2.876   1.600   7.551  1.5564  1.4670 -0.4233
 6665TIP3   OH241553   6.596   4.394   8.048 -0.1607 -0.4422  0.0407
 6665TIP3    H141554   6.573   4.317   7.996 -1.1786 -0.9301  1.1712
 6665TIP3    H241555   6.580   4.468   7.990  1.1847 -1.0819 -1.1884
 6666TIP3   OH241556   6.710   2.424   7.121  0.0533 -0.2636  0.2839
 6666TIP3    H141557   6.684   2.400   7.032 -0.6290 -0.6787  0.5937
 6666TIP3    H241558   6.733   2.517   7.115  0.4722 -0.4069 -0.4253
 6667TIP3   OH241559   5.570   3.728   8.162 -0.8493  0.3023  0.4246
 6667TIP3    H141560   5.603   3.638   8.162 -2.3814 -0.2826  0.6779
 6667TIP3    H241561   5.645   3.780   8.133  0.6247 -0.8394  1.9474
 6668TIP3   OH241562   1.619   1.415   1.270 -0.2230 -0.0880  0.0363
 6668TIP3    H141563   1.629   1.430   1.176  1.0464 -2.2579 -0.2319
 6668TIP3    H241564   1.532   1.450   1.291 -0.4435  0.6101 -1.8798
 6669TIP3   OH241565   3.920   0.578   6.792  0.2992  0.1759 -0.3621
 6669TIP3    H141566   3.835   0.566   6.750 -0.4936 -2.3718  1.6834
 6669TIP3    H241567   3.904   0.645   6.859  0.2403  0.6022 -0.8017
 6670TIP3   OH241568   0.741   4.331   0.400  0.1104  0.6035 -0.0751
 6670TIP3    H141569   0.720   4.253   0.452  2.3225  0.1870  0.3267
 6670TIP3    H241570   0.662   4.384   0.402 -2.0020 -2.2269 -1.5320
 6671TIP3   OH241571   6.056   3.088   6.523 -0.4214 -0.5937 -0.0239
 6671TIP3    H141572   6.072   3.105   6.431  2.1294 -1.1017  0.2646
 6671TIP3    H241573   6.012   3.003   6.525 -1.4400 -0.1137 -0.7628
 6672TIP3   OH241574   2.425   4.450   7.302 -0.0407  0.2859 -0.7046
 6672TIP3    H141575   2.486   4.496   7.244  0.0660 -0.0467 -0.8665
 6672TIP3    H241576   2.365   4.406   7.242  0.3761 -0.4715 -0.5849
 6673TIP3   OH241577   3.268   4.368   0.824 -0.7604 -0.1211 -0.4877
 6673TIP3    H141578   3.235   4.380   0.913 -1.0706  1.0483 -0.7405
 6673TIP3    H241579   3.337   4.302   0.832 -0.7005  0.0646  0.6352
 6674TIP3   OH241580   2.749   0.784   1.345 -0.4569  0.1044  0.4662
 6674TIP3    H141581   2.662   0.745   1.345  0.0125 -1.0058 -0.5825
 6674TIP3    H241582   2.733   0.879   1.349 -1.6650 -0.1125  1.3133
 6675TIP3   OH241583   4.422   2.821   2.750  0.4207  0.7505 -0.0922
 6675TIP3    H141584   4.461   2.773   2.823  1.3107 -1.2801 -1.7940
 6675TIP3    H241585   4.480   2.896   2.737  2.1299 -0.6147 -0.7046
 6676TIP3   OH241586   3.072   3.766   7.441  0.4913 -0.0523 -0.3564
 6676TIP3    H141587   3.110   3.759   7.353  1.7009 -1.4208  0.2251
 6676TIP3    H241588   2.978   3.772   7.426  0.4270 -2.9352 -1.7380
 6677TIP3   OH241589   1.471   5.022   6.682 -0.2534 -0.0432 -0.0521
 6677TIP3    H141590   1.564   5.042   6.688 -0.4184  1.0241 -0.7870
 6677TIP3    H241591   1.466   4.945   6.626  0.1773  0.0765 -0.2585
 6678TIP3   OH241592   3.623   2.634   7.019  0.3446  0.4501 -0.4121
 6678TIP3    H141593   3.580   2.651   6.935 -1.1617  1.4854  0.5080
 6678TIP3    H241594   3.587   2.550   7.047 -0.4599  0.8968 -0.0560
 6679TIP3   OH241595   0.545   2.016   6.739 -0.0728 -0.0220 -0.2612
 6679TIP3    H141596   0.552   1.996   6.646 -1.5782 -1.8970 -0.0361
 6679TIP3    H241597   0.598   1.949   6.782  0.0123  0.3855  0.2879
 6680TIP3   OH241598   2.772   5.980   2.447 -0.0961  0.4886  0.0829
 6680TIP3    H141599   2.801   5.956   2.535 -0.4241  1.1355  0.3776
 6680TIP3    H241600   2.688   5.935   2.437 -0.4703  1.0870  0.4414
 6681TIP3   OH241601   1.694   3.788   0.793  0.4335 -0.0379 -0.5921
 6681TIP3    H141602   1.768   3.844   0.817  0.5086  0.5857 -2.1481
 6681TIP3    H241603   1.617   3.833   0.829  0.5885  0.5589 -1.0023
 6682TIP3   OH241604   5.401   4.361   8.078  0.4671 -0.0988  0.0398
 6682TIP3    H141605   5.345   4.329   8.149  0.6690  0.0411  0.2659
 6682TIP3    H241606   5.487   4.322   8.097  0.5731  0.1101 -0.0061
 6683TIP3   OH241607   1.862   1.011   8.190  0.2431  0.2642 -0.4306
 6683TIP3    H141608   1.841   0.923   8.221 -0.5616  0.7068  0.3300
 6683TIP3    H241609   1.807   1.022   8.112 -0.0361  0.2740 -0.2345
 6684TIP3   OH241610   1.062   6.856   6.450 -0.6174 -0.3786 -0.3240
 6684TIP3    H141611   1.052   6.764   6.476 -1.0989 -0.5839 -1.1847
 6684TIP3    H241612   1.038   6.906   6.527 -2.6083 -0.9544 -0.5318
 6685TIP3   OH241613   6.134   2.422   6.428  0.1768 -0.3850  0.0037
 6685TIP3    H141614   6.170   2.394   6.512  1.1745  0.2645 -0.1855
 6685TIP3    H241615   6.167   2.512   6.417 -2.3355  0.6551  0.2905
 6686TIP3   OH241616   0.088   4.680   1.889  0.0587 -0.4337  0.3559
 6686TIP3    H141617   0.047   4.725   1.815 -1.4069  0.4530  1.6485
 6686TIP3    H241618   0.075   4.739   1.963  3.6712 -0.1046  0.9224
 6687TIP3   OH241619   3.053   3.322   6.421  0.0257  0.2282  0.5169
 6687TIP3    H141620   3.144   3.352   6.428  1.1581 -3.0164  1.2485
 6687TIP3    H241621   3.059   3.238   6.375 -2.6438 -0.0106  0.4764
 6688TIP3   OH241622   2.497   2.965   0.435  0.4387  0.7298 -0.0942
 6688TIP3    H141623   2.427   2.976   0.371 -0.1859  0.0398  0.4440
 6688TIP3    H241624   2.456   2.987   0.519  0.8987  0.4203  0.2147
 6689TIP3   OH241625   1.572   6.792   1.822  0.6764 -0.1563 -0.6601
 6689TIP3    H141626   1.602   6.853   1.754  0.0583  0.1203 -0.6854
 6689TIP3    H241627   1.596   6.706   1.788  0.1113 -0.0426 -1.3813
 6690TIP3   OH241628   4.899   4.124   2.482 -0.1741 -0.3744  0.5762
 6690TIP3    H141629   4.936   4.183   2.548  0.7645 -0.7612  0.4106
 6690TIP3    H241630   4.824   4.172   2.447  1.4785  1.4525 -0.6930
 6691TIP3   OH241631   0.164   3.676   6.780  0.5001  0.0715  0.2720
 6691TIP3    H141632   0.134   3.590   6.751  0.7257  0.2426 -0.4902
 6691TIP3    H241633   0.128   3.737   6.716  2.4802  0.2885 -0.6921
 6692TIP3   OH241634   0.801   5.796   7.249  0.2206  0.3589  0.4355
 6692TIP3    H141635   0.891   5.789   7.279 -0.0209 -0.0702  1.0862
 6692TIP3    H241636   0.806   5.846   7.168  1.0143  0.5423  0.5951
 6693TIP3   OH241637   4.289   1.430   7.808  0.1005 -0.3534 -0.4273
 6693TIP3    H141638   4.274   1.355   7.865 -0.2781 -1.8079 -2.3593
 6693TIP3    H241639   4.202   1.466   7.792  0.0464 -0.8025 -1.1783
 6694TIP3   OH241640   0.078   1.603   1.139  0.5039 -0.4285 -0.1039
 6694TIP3    H141641   0.162   1.595   1.093  0.6495 -0.3470  0.1483
 6694TIP3    H241642   0.082   1.689   1.180 -0.3675  0.2841 -1.4378
 6695TIP3   OH241643   0.979   4.100   7.082  0.4016  0.4391 -0.2944
 6695TIP3    H141644   1.016   4.174   7.131 -0.0185 -0.4703  1.4661
 6695TIP3    H241645   0.888   4.126   7.065 -0.0317 -0.0272  1.1675
 6696TIP3   OH241646   2.692   1.233   2.812 -0.8717 -0.1525 -0.1946
 6696TIP3    H141647   2.668   1.311   2.763 -1.7246  1.0839  2.0214
 6696TIP3    H241648   2.784   1.217   2.791 -0.1949  2.4516  0.5438
 6697TIP3   OH241649   1.589   1.972   0.939 -0.1244 -0.4309 -0.3207
 6697TIP3    H141650   1.664   2.031   0.951  2.0806 -3.4811  2.3812
 6697TIP3    H241651   1.532   1.990   1.014  0.7160 -1.8549  0.6921
 6698TIP3   OH241652   6.468   3.072   8.284 -0.8484  0.1768 -0.1681
 6698TIP3    H141653   6.496   3.014   8.355  1.2807  0.9163 -0.3182
 6698TIP3    H241654   6.372   3.070   8.288 -0.8122 -0.3210  2.2732
 6699TIP3   OH241655   3.720   3.773   0.846 -0.5151 -0.3220 -0.6137
 6699TIP3    H141656   3.743   3.833   0.774  0.4054  1.6077  1.1746
 6699TIP3    H241657   3.798   3.772   0.902 -2.0923  0.3629  1.7340
 6700TIP3   OH241658   0.816   3.907   1.222  0.1193 -0.1978 -0.1693
 6700TIP3    H141659   0.845   3.906   1.313 -1.0617  0.7582  0.2451
 6700TIP3    H241660   0.721   3.920   1.227  0.3412  2.6384 -1.5617
 6701TIP3   OH241661   6.517   1.907   2.065 -0.8132  0.2939  0.0414
 6701TIP3    H141662   6.459   1.866   2.128 -2.4646  3.6015  0.8818
 6701TIP3    H241663   6.463   1.972   2.020  1.7336  2.1573 -0.5697
 6702TIP3   OH241664   4.311   1.370   6.769 -0.5211 -0.1026  0.0883
 6702TIP3    H141665   4.245   1.301   6.778  0.9437 -1.3873  1.6655
 6702TIP3    H241666   4.323   1.378   6.675 -2.0750 -0.6495 -0.1994
 6703TIP3   OH241667   0.774   4.724   0.392  0.3413  0.0491  0.0768
 6703TIP3    H141668   0.749   4.736   0.301  2.9702  1.7434 -0.5268
 6703TIP3    H241669   0.703   4.671   0.429  0.2985 -2.7514 -3.4604
 6704TIP3   OH241670   2.534   0.068   8.078 -0.3671 -0.2412 -0.2223
 6704TIP3    H141671   2.558   0.006   8.009 -1.5134 -0.1865 -0.6974
 6704TIP3    H241672   2.586   0.146   8.060 -1.1896  0.0446 -1.4882
 6705TIP3   OH241673   1.207   3.811   6.391  0.0821  0.0132 -0.4579
 6705TIP3    H141674   1.162   3.857   6.320 -1.7526  0.5329  0.9529
 6705TIP3    H241675   1.214   3.877   6.461 -0.4091 -1.1398  0.7255
 6706TIP3   OH241676   4.987   2.984   0.677 -0.4036  0.3149 -0.0276
 6706TIP3    H141677   4.948   3.071   0.685 -2.5997 -0.2966 -2.6748
 6706TIP3    H241678   4.926   2.926   0.724  0.6415  0.0803  1.0717
 6707TIP3   OH241679   3.156   5.737   1.821 -0.0563 -0.0126 -0.1278
 6707TIP3    H141680   3.206   5.696   1.891  0.7513  0.1562 -0.5912
 6707TIP3    H241681   3.155   5.672   1.751 -0.8601 -0.1803  0.0256
 6708TIP3   OH241682   2.496   6.457   2.368 -0.2328  0.4476 -0.0849
 6708TIP3    H141683   2.426   6.522   2.364 -2.3888 -1.7307  0.1606
 6708TIP3    H241684   2.489   6.418   2.455 -1.0262 -2.1244 -1.1886
 6709TIP3   OH241685   0.134   6.928   1.168 -0.0073 -0.3441 -0.3116
 6709TIP3    H141686   0.083   6.995   1.213 -0.9762 -1.3014  0.0464
 6709TIP3    H241687   0.071   6.886   1.109  1.3173  1.2672 -3.1299
 6710TIP3   OH241688   2.570   1.262   6.556  0.7406  0.5397 -0.0032
 6710TIP3    H141689   2.618   1.187   6.589 -0.5057 -0.5972 -0.6473
 6710TIP3    H241690   2.561   1.245   6.462 -1.0938  0.5607  0.1350
 6711TIP3   OH241691   0.792   0.203   1.243 -0.2776 -0.0144 -0.4205
 6711TIP3    H141692   0.727   0.142   1.209 -0.5947  0.2535 -0.3128
 6711TIP3    H241693   0.857   0.148   1.286 -1.4901 -0.2225  1.3020
 6712TIP3   OH241694   1.076   2.857   0.862  0.7982  0.1516  0.1840
 6712TIP3    H141695   1.072   2.895   0.950  0.0443  1.3689 -0.3460
 6712TIP3    H241696   0.992   2.812   0.852  1.0828 -0.4044  0.2544
 6713TIP3   OH241697   2.284   1.378   2.191 -0.6438  0.3860  0.3083
 6713TIP3    H141698   2.226   1.337   2.126  0.3346  0.3530 -0.5787
 6713TIP3    H241699   2.228   1.395   2.266 -1.1333 -2.5552  0.7328
 6714TIP3   OH241700   3.049   3.197   7.579  0.2844 -0.3575 -0.2207
 6714TIP3    H141701   3.048   3.104   7.555 -0.9102 -1.1045  2.2792
 6714TIP3    H241702   2.966   3.210   7.625  1.9028  0.9939  2.5875
 6715TIP3   OH241703   1.948   1.563   1.299  0.6607 -0.6158 -0.4217
 6715TIP3    H141704   1.993   1.504   1.238  0.7838  0.7394 -1.7163
 6715TIP3    H241705   1.924   1.639   1.245 -0.2226  0.1544  0.9940
 6716TIP3   OH241706   2.436   3.902   1.434 -0.0649 -0.2830  0.1697
 6716TIP3    H141707   2.401   3.960   1.366 -3.1527 -0.6299  1.2827
 6716TIP3    H241708   2.500   3.955   1.480 -0.4812  1.1538 -0.8144
 6717TIP3   OH241709   4.983   5.608   1.993  0.3177  0.7146 -0.1801
 6717TIP3    H141710   5.016   5.535   1.941  0.3194  0.0396  0.7415
 6717TIP3    H241711   4.889   5.611   1.973  0.3309  0.5096 -0.2757
 6718TIP3   OH241712   1.030   3.530   1.715  0.0865 -0.2961  0.0190
 6718TIP3    H141713   1.006   3.542   1.807  0.8541 -1.2887  0.3651
 6718TIP3    H241714   1.000   3.442   1.694 -0.9084  0.2529 -0.9694
 6719TIP3   OH241715   3.477   5.072   7.745  0.1237 -0.3923  0.0151
 6719TIP3    H141716   3.497   5.022   7.824  1.3800  1.5654  1.0226
 6719TIP3    H241717   3.415   5.018   7.697 -0.1178 -1.9752  1.9914
 6720TIP3   OH241718   6.503   5.945   7.482  0.5045  0.0477 -0.1394
 6720TIP3    H141719   6.466   6.013   7.539 -2.3494 -0.4237 -1.2829
 6720TIP3    H241720   6.546   5.993   7.412 -0.4262  0.6852 -0.2901
 6721TIP3   OH241721   0.945   2.081   0.325  0.3066 -0.2170 -0.0437
 6721TIP3    H141722   0.919   2.161   0.372  0.1561  0.5545 -1.3817
 6721TIP3    H241723   1.037   2.096   0.302  0.5068 -0.7785  0.3641
 6722TIP3   OH241724   2.974   0.594   0.308 -0.2311  0.2550  0.0955
 6722TIP3    H141725   3.047   0.535   0.290  0.2827  0.8751  0.1097
 6722TIP3    H241726   2.927   0.552   0.381  1.2865  0.8492  1.4665
 6723TIP3   OH241727   3.657   0.099   2.506 -0.4440  0.4705  0.2386
 6723TIP3    H141728   3.626   0.056   2.586  0.9315  1.7092  1.4943
 6723TIP3    H241729   3.593   0.169   2.492 -1.4671 -0.5789 -0.5862
 6724TIP3   OH241730   3.304   3.449   6.822  0.0260  0.0880  0.6709
 6724TIP3    H141731   3.334   3.508   6.753 -0.4893 -1.6318 -1.0835
 6724TIP3    H241732   3.267   3.508   6.888 -1.8225  1.7418 -1.6701
 6725TIP3   OH241733   5.959   5.531   0.868  0.6616  0.1004  0.1739
 6725TIP3    H141734   5.991   5.453   0.913  0.5719  0.3132  0.6184
 6725TIP3    H241735   5.879   5.555   0.915  0.8664  0.6459  0.2554
 6726TIP3   OH241736   6.892   7.013   8.119  0.1886  0.1447  0.1132
 6726TIP3    H141737   6.911   6.949   8.188 -0.5140 -0.6451 -0.3978
 6726TIP3    H241738   6.807   6.985   8.084  0.6211  0.3940 -1.2065
 6727TIP3   OH241739   6.276   2.014   1.470 -0.4814 -0.2442  0.0390
 6727TIP3    H141740   6.363   1.975   1.480 -0.4045 -0.3132 -0.8099
 6727TIP3    H241741   6.294   2.102   1.436 -0.6310  0.7162  2.2512
 6728TIP3   OH241742   3.669   1.392   2.768 -0.1488 -0.5167 -0.1180
 6728TIP3    H141743   3.715   1.311   2.786 -0.0401 -1.2960 -3.2561
 6728TIP3    H241744   3.576   1.369   2.772 -0.2620  0.1017  2.2933
 6729TIP3   OH241745   0.371   4.643   0.107  0.0709 -0.5889 -0.1635
 6729TIP3    H141746   0.280   4.615   0.093  0.1492 -1.4032  0.8861
 6729TIP3    H241747   0.412   4.633   0.021 -1.2359  1.4965 -1.1406
 6730TIP3   OH241748   3.583   1.015   1.362 -0.0415 -0.1381 -0.1430
 6730TIP3    H141749   3.603   1.102   1.327 -1.6744  0.0363 -0.7439
 6730TIP3    H241750   3.625   0.955   1.300  2.8488  0.1651  1.3894
 6731TIP3   OH241751   2.153   2.818   6.482 -0.7632 -0.0880  0.6267
 6731TIP3    H141752   2.106   2.852   6.406 -1.1586 -1.9482 -0.0015
 6731TIP3    H241753   2.240   2.796   6.449 -0.5827  0.1024  0.9702
 6732TIP3   OH241754   0.375   5.163   0.602 -0.1108  0.3371 -0.1685
 6732TIP3    H141755   0.431   5.235   0.633 -0.4110  0.4499  0.1086
 6732TIP3    H241756   0.290   5.180   0.642  0.3078 -1.2451  1.4867
 6733TIP3   OH241757   4.350   3.728   0.383 -0.1183 -0.6577  0.4701
 6733TIP3    H141758   4.360   3.634   0.366 -0.1822 -0.4717 -0.7068
 6733TIP3    H241759   4.425   3.751   0.438  0.4933 -1.2033 -0.1118
 6734TIP3   OH241760   2.943   3.192   1.994 -0.2918 -0.0082 -0.7209
 6734TIP3    H141761   2.892   3.201   2.074  0.8020  0.4570 -0.0618
 6734TIP3    H241762   3.034   3.188   2.023  0.0225 -1.7040 -1.8095
 6735TIP3   OH241763   2.573   5.559   8.057 -0.6610  0.0941 -0.5226
 6735TIP3    H141764   2.669   5.553   8.056 -0.5661  0.7375  1.3345
 6735TIP3    H241765   2.554   5.631   8.116 -2.3118  0.3089 -1.2614
 6736TIP3   OH241766   1.056   2.403   0.052 -0.1804 -0.1080  0.0400
 6736TIP3    H141767   1.140   2.396   0.097  0.3223  0.2679 -0.8076
 6736TIP3    H241768   1.053   2.325  -0.005  0.8843  1.2345 -1.9819
 6737TIP3   OH241769   4.430   6.978   0.226 -0.5231 -0.9467  0.5843
 6737TIP3    H141770   4.390   7.061   0.253  0.7141  0.7667 -2.4145
 6737TIP3    H241771   4.515   6.977   0.270 -0.2544 -0.2609  0.0933
 6738TIP3   OH241772   2.552   6.722   2.176 -0.3648 -0.3642 -0.0236
 6738TIP3    H141773   2.485   6.668   2.219 -0.8495  0.7598  0.6661
 6738TIP3    H241774   2.526   6.812   2.194  1.7543  0.1207  0.9658
 6739TIP3   OH241775   4.476   5.324   0.113 -0.0948  0.1424  0.1989
 6739TIP3    H141776   4.413   5.385   0.076  1.7097  1.0105 -1.6702
 6739TIP3    H241777   4.555   5.377   0.127  1.3938 -1.6114 -1.0560
 6740TIP3   OH241778   0.179   5.817   0.806 -0.2119  0.4118  0.3537
 6740TIP3    H141779   0.230   5.892   0.835  0.3597  0.1459  0.0519
 6740TIP3    H241780   0.092   5.852   0.789  0.2096  1.1310 -0.3718
 6741TIP3   OH241781   4.939   4.575   0.037 -0.1849 -0.8191 -0.1620
 6741TIP3    H141782   4.915   4.522   0.113 -1.0861 -0.5299 -0.2279
 6741TIP3    H241783   4.971   4.512  -0.027 -3.9972 -1.8106 -1.3761
 6742TIP3   OH241784   2.141   2.088   1.865  0.0694  0.3407  0.5609
 6742TIP3    H141785   2.221   2.054   1.905 -0.9847 -1.2770  1.4669
 6742TIP3    H241786   2.075   2.080   1.934 -0.6826  2.6439  0.1990
 6743TIP3   OH241787   2.913   6.417   8.142 -0.0650  0.8656 -0.0227
 6743TIP3    H141788   2.871   6.336   8.111 -2.5469  1.4028  1.7061
 6743TIP3    H241789   2.884   6.484   8.081 -2.2096  1.3055  1.3760
 6744TIP3   OH241790   0.295   1.868   7.608 -0.7687 -0.4129 -0.2590
 6744TIP3    H141791   0.234   1.837   7.675 -1.5051 -1.5167 -1.4046
 6744TIP3    H241792   0.326   1.788   7.565  1.2533  0.1400  0.0681
 6745TIP3   OH241793   1.310   2.582   6.825  0.2126  0.2584  0.0806
 6745TIP3    H141794   1.285   2.557   6.914  1.0696  0.7502  0.4769
 6745TIP3    H241795   1.316   2.499   6.778  0.9269 -0.1167  0.8060
 6746TIP3   OH241796   1.753   3.270   6.465 -0.1392  0.0291 -0.1644
 6746TIP3    H141797   1.778   3.186   6.503  0.9247  0.4035 -0.0016
 6746TIP3    H241798   1.673   3.295   6.513  0.8266  0.1993  1.4280
 6747TIP3   OH241799   4.242   2.766   7.064  0.5226  0.1167  0.2981
 6747TIP3    H141800   4.304   2.694   7.062 -0.7460 -1.0733 -3.5009
 6747TIP3    H241801   4.275   2.829   7.000 -0.4938  1.0311  0.6291
 6748TIP3   OH241802   6.045   0.245   7.092  0.1633  0.0021 -0.0693
 6748TIP3    H141803   5.986   0.308   7.050  0.5824  1.5827  1.5912
 6748TIP3    H241804   6.103   0.298   7.146  0.7408 -1.7962  1.1906
 6749TIP3   OH241805   5.472   4.663   0.317  0.1570 -0.1030 -0.1560
 6749TIP3    H141806   5.459   4.584   0.266 -0.8190 -0.5724  0.7820
 6749TIP3    H241807   5.552   4.647   0.366  1.0776  0.3331 -1.4591
 6750TIP3   OH241808   4.395   5.078   8.148 -0.0794 -0.0783  0.3984
 6750TIP3    H141809   4.349   5.046   8.071  0.7813 -1.3080  0.3591
 6750TIP3    H241810   4.405   5.172   8.133 -0.6186 -0.1686 -0.6058
 6751TIP3   OH241811   5.809   3.401   1.310 -0.3749 -0.2669  0.8285
 6751TIP3    H141812   5.738   3.342   1.286  1.5778 -1.6631 -2.0718
 6751TIP3    H241813   5.795   3.479   1.257 -0.9997  0.4638  2.0305
 6752TIP3   OH241814   1.656   7.002   2.041 -0.0816  0.0783  0.3844
 6752TIP3    H141815   1.724   6.934   2.035  0.8661  1.1629 -3.1953
 6752TIP3    H241816   1.591   6.977   1.976 -0.1217  2.1468 -0.4221
 6753TIP3   OH241817   2.718   1.602   0.902  0.2152 -0.0102  0.4840
 6753TIP3    H141818   2.754   1.565   0.983 -0.8799 -1.7697  0.2205
 6753TIP3    H241819   2.668   1.530   0.863 -1.5682  1.6138 -0.3688
 6754TIP3   OH241820   0.488   1.254   1.662 -0.0368 -0.1466  0.4662
 6754TIP3    H141821   0.429   1.180   1.656  0.8522 -0.7769 -0.9085
 6754TIP3    H241822   0.571   1.217   1.693 -0.4048  0.7828  2.7818
 6755TIP3   OH241823   5.958   4.550   1.555 -0.0591  0.0767 -0.4543
 6755TIP3    H141824   5.975   4.612   1.484  1.3344  0.8703  0.5306
 6755TIP3    H241825   5.925   4.604   1.627  1.4943 -0.2388  0.5380
 6756TIP3   OH241826   0.061   3.878   6.531 -0.3684 -0.4684 -0.0103
 6756TIP3    H141827   0.045   3.965   6.497 -1.0562 -0.8993 -0.8213
 6756TIP3    H241828   0.015   3.819   6.470 -0.0898 -1.3758  0.6328
 6757TIP3   OH241829   3.561   3.347   0.492 -0.1683  0.4009  0.1465
 6757TIP3    H141830   3.503   3.291   0.441 -1.2878  0.9234  0.7932
 6757TIP3    H241831   3.630   3.289   0.524 -0.0411 -0.1315 -1.0629
 6758TIP3   OH241832   4.731   4.897   2.699 -0.6896 -0.8139 -0.5715
 6758TIP3    H141833   4.773   4.971   2.743 -2.1451  0.2642 -0.9095
 6758TIP3    H241834   4.726   4.923   2.607 -1.6457 -1.1016 -0.6138
 6759TIP3   OH241835   5.547   1.845   7.632  0.1757  0.2271 -0.2294
 6759TIP3    H141836   5.539   1.801   7.716 -1.2930  2.6309  0.9755
 6759TIP3    H241837   5.626   1.899   7.640 -0.1250  0.6798 -0.2796
 6760TIP3   OH241838   6.338   2.973   6.424  0.5255  0.2497 -0.1605
 6760TIP3    H141839   6.262   3.025   6.396  0.0638  0.4737  1.4481
 6760TIP3    H241840   6.404   3.038   6.447  0.4273  0.1038  0.5446
 6761TIP3   OH241841   6.928   2.053   6.753  0.0043 -0.2058  0.1586
 6761TIP3    H141842   6.890   2.049   6.840  1.5432 -0.2620  0.8726
 6761TIP3    H241843   6.958   2.144   6.744  1.0542 -0.5197  0.2651
 6762TIP3   OH241844   3.861   3.183   1.613 -0.2991 -0.4065  0.0956
 6762TIP3    H141845   3.925   3.196   1.682 -0.4408 -0.1489  0.1789
 6762TIP3    H241846   3.824   3.270   1.597  1.6532  0.1215 -2.1782
 6763TIP3   OH241847   0.266   4.340   1.287 -0.2540  0.3029 -0.0286
 6763TIP3    H141848   0.264   4.307   1.377  1.0834  0.4726  0.0921
 6763TIP3    H241849   0.322   4.419   1.292 -2.3347  1.8945 -0.5297
 6764TIP3   OH241850   6.062   3.913   6.200  0.1322 -0.0486  0.0864
 6764TIP3    H141851   6.063   3.817   6.198  0.4306 -0.0431 -0.0289
 6764TIP3    H241852   6.153   3.937   6.212  0.1688  0.2475 -0.7485
 6765TIP3   OH241853   6.297   0.335   7.481  0.5964 -0.4339 -0.3254
 6765TIP3    H141854   6.321   0.412   7.429  1.1154 -0.9155 -0.8224
 6765TIP3    H241855   6.324   0.261   7.427 -1.1450 -1.0003 -0.4520
 6766TIP3   OH241856   2.264   2.538   6.656  0.1113  0.0397 -0.4538
 6766TIP3    H141857   2.339   2.530   6.597  1.4514  1.3659  0.9816
 6766TIP3    H241858   2.219   2.454   6.648  1.3264 -0.5352 -1.8816
 6767TIP3   OH241859   1.604   0.329   2.366 -0.0328 -0.1838  0.1036
 6767TIP3    H141860   1.661   0.265   2.409 -0.4897 -0.1306  0.7969
 6767TIP3    H241861   1.524   0.330   2.419 -0.3927  0.2834 -0.4361
 6768TIP3   OH241862   0.658   6.919   7.742  0.4316  0.2046  0.0071
 6768TIP3    H141863   0.726   6.943   7.804 -0.7414 -0.1387  1.4864
 6768TIP3    H241864   0.640   7.000   7.693 -0.3487  1.2119  1.8465
 6769TIP3   OH241865   2.626   5.130   1.447  0.2598 -0.1350 -0.2922
 6769TIP3    H141866   2.596   5.216   1.477 -0.6038 -0.5989  0.1999
 6769TIP3    H241867   2.559   5.069   1.476  0.9999 -1.0266 -0.3990
 6770TIP3   OH241868   4.389   6.745   7.184  0.0010  0.0751 -0.7120
 6770TIP3    H141869   4.461   6.782   7.234  0.8428 -2.7606  0.3603
 6770TIP3    H241870   4.424   6.737   7.095 -0.0712  1.4214 -0.8748
 6771TIP3   OH241871   0.325   4.566   1.754 -0.2843 -0.6025  1.0993
 6771TIP3    H141872   0.266   4.604   1.819  0.7155 -0.0812  1.7440
 6771TIP3    H241873   0.272   4.502   1.708 -1.2267 -0.4692  1.9488
 6772TIP3   OH241874   0.397   1.300   0.228  0.7146 -0.2173  0.2888
 6772TIP3    H141875   0.445   1.302   0.145 -1.7255 -1.1602 -1.2462
 6772TIP3    H241876   0.396   1.391   0.257 -0.3344  0.5514 -1.9582
 6773TIP3   OH241877   4.140   3.214   0.691  0.3676 -0.1814  0.0576
 6773TIP3    H141878   4.160   3.227   0.783 -3.1909 -1.2204  1.1725
 6773TIP3    H241879   4.181   3.130   0.669  0.8405 -0.1679  0.8532
 6774TIP3   OH241880   0.974   1.619   2.071 -0.2865  0.1209  0.8930
 6774TIP3    H141881   0.924   1.555   2.021 -0.7708  0.1544  1.3326
 6774TIP3    H241882   1.023   1.568   2.134  0.8089  0.0207  0.0002
 6775TIP3   OH241883   3.297   6.013   2.425 -0.8270 -0.3854  0.3388
 6775TIP3    H141884   3.358   6.077   2.462 -0.7285 -0.6511  0.6462
 6775TIP3    H241885   3.252   5.976   2.502 -1.9233  0.3506  0.0696
 6776TIP3   OH241886   1.501   5.427   8.001 -0.1759  0.8748  0.0938
 6776TIP3    H141887   1.517   5.512   7.960  0.4306  0.9839  0.5297
 6776TIP3    H241888   1.588   5.389   8.012 -0.5681 -1.0372 -2.5959
 6777TIP3   OH241889   1.051   4.113   0.306 -0.4480  0.2574 -0.1200
 6777TIP3    H141890   0.989   4.142   0.373 -1.4007 -0.0119 -0.8758
 6777TIP3    H241891   1.130   4.091   0.355 -0.2675  2.4132  0.6839
 6778TIP3   OH241892   3.740   3.986   6.514  0.3071 -0.1790 -0.2785
 6778TIP3    H141893   3.728   3.980   6.419  1.0035  0.1639 -0.3978
 6778TIP3    H241894   3.655   3.961   6.550 -0.0720  0.0107 -0.9991
 6779TIP3   OH241895   2.309   0.176   7.961  0.1798 -0.1730  0.7837
 6779TIP3    H141896   2.354   0.223   7.891  1.1572  0.3794  1.7423
 6779TIP3    H241897   2.377   0.119   7.998 -0.2677 -0.3078  1.4092
 6780TIP3   OH241898   1.666   6.939   1.625 -0.1275  0.2527 -0.0330
 6780TIP3    H141899   1.704   7.026   1.609  0.4999  0.3855  1.9644
 6780TIP3    H241900   1.709   6.882   1.561  0.9631  1.0490 -0.0384
 6781TIP3   OH241901   2.192   3.517   7.408  0.3388 -0.0406  0.0090
 6781TIP3    H141902   2.167   3.530   7.317 -0.4092  1.5482  0.4001
 6781TIP3    H241903   2.121   3.556   7.459  0.6216 -1.1102  1.2915
 6782TIP3   OH241904   4.255   5.071   7.869  0.1172  0.4423 -0.7459
 6782TIP3    H141905   4.283   4.980   7.879  0.0530  0.3503 -1.3810
 6782TIP3    H241906   4.273   5.092   7.778  0.7770  1.2952 -0.4281
 6783TIP3   OH241907   3.388   6.079   1.044 -0.3679  0.4406 -0.3260
 6783TIP3    H141908   3.367   6.003   1.097  1.0871  0.4329  0.3053
 6783TIP3    H241909   3.348   6.153   1.090  0.4037  0.3585  0.5134
 6784TIP3   OH241910   3.932   6.509   2.475 -0.0747  0.4051  0.1305
 6784TIP3    H141911   3.920   6.548   2.562 -1.1350  0.4605 -0.0303
 6784TIP3    H241912   3.880   6.429   2.477  1.4722 -0.6398  0.1935
 6785TIP3   OH241913   6.872   1.941   8.152  0.1790 -0.3065 -0.1487
 6785TIP3    H141914   6.948   1.930   8.094  0.8579  3.0238 -0.0899
 6785TIP3    H241915   6.907   1.991   8.226 -2.0148  1.1316 -0.0193
 6786TIP3   OH241916   2.932   0.040   2.843 -0.1924  0.1194 -0.0174
 6786TIP3    H141917   2.861   0.003   2.790 -1.1600 -0.6817  1.7522
 6786TIP3    H241918   2.905   0.130   2.859 -0.0440  0.2753 -0.6078
 6787TIP3   OH241919   1.304   6.927   7.840 -0.1921 -0.2501 -0.2211
 6787TIP3    H141920   1.256   6.923   7.923 -0.5762 -2.6097 -0.4934
 6787TIP3    H241921   1.355   7.008   7.846 -0.0462 -0.4526  2.4186
 6788TIP3   OH241922   4.741   5.857   7.387 -0.2830  0.6476  0.6551
 6788TIP3    H141923   4.750   5.920   7.459  0.8083  0.2403  0.8960
 6788TIP3    H241924   4.739   5.772   7.430  0.2876  0.4086  0.2248
 6789TIP3   OH241925   3.105   6.122   2.255  0.0557  0.0854 -0.1393
 6789TIP3    H141926   3.161   6.116   2.332 -1.1886 -0.0211  0.7837
 6789TIP3    H241927   3.069   6.211   2.257  0.2267  0.1736 -0.7463
 6790TIP3   OH241928   6.104   3.776   6.982  0.1814  0.1253 -0.3597
 6790TIP3    H141929   6.126   3.869   6.980  0.0628  0.2647  2.0339
 6790TIP3    H241930   6.008   3.774   6.978  0.0978  0.2269  1.2096
 6791TIP3   OH241931   3.966   2.160   7.901 -0.5710 -0.1747 -0.1070
 6791TIP3    H141932   3.940   2.198   7.817  0.7261 -0.3391 -0.6118
 6791TIP3    H241933   4.034   2.218   7.934 -0.8516 -0.2850  0.6867
 6792TIP3   OH241934   1.121   3.879   0.849 -0.1245  0.0906 -0.3593
 6792TIP3    H141935   1.052   3.821   0.818 -1.1263  0.5791  0.8772
 6792TIP3    H241936   1.077   3.939   0.909  1.2339  0.9149 -0.1496
 6793TIP3   OH241937   2.102   6.444   1.424  1.0107  0.1827  0.1764
 6793TIP3    H141938   2.160   6.375   1.391  0.5832  0.1582 -0.5556
 6793TIP3    H241939   2.139   6.469   1.509  1.5193 -0.5159  0.1636
 6794TIP3   OH241940   6.900   6.752   2.107  0.0584 -0.1815 -0.0540
 6794TIP3    H141941   6.891   6.658   2.092  2.1797 -0.4187 -0.1821
 6794TIP3    H241942   6.962   6.759   2.179  0.5879  1.1229 -0.6094
 6795TIP3   OH241943   2.385   0.379   7.782 -0.1167 -0.9474 -0.0134
 6795TIP3    H141944   2.315   0.419   7.731  1.4077  0.2639 -1.2356
 6795TIP3    H241945   2.440   0.335   7.718  0.7351 -1.1294  0.8203
 6796TIP3   OH241946   4.463   6.950   8.260 -0.2514 -0.0525  0.0287
 6796TIP3    H141947   4.548   6.925   8.224 -0.3332  0.3855 -0.4779
 6796TIP3    H241948   4.479   6.964   8.353  0.1103 -0.5219  0.0413
 6797TIP3   OH241949   4.959   1.971   0.274  0.0712  0.2969 -0.1851
 6797TIP3    H141950   4.971   1.910   0.201  0.6063  0.2549 -0.0645
 6797TIP3    H241951   5.004   1.929   0.347  0.0807  0.6402  0.0067
 6798TIP3   OH241952   5.419   3.805   1.023  0.5962 -0.4392  0.3876
 6798TIP3    H141953   5.433   3.711   1.032  0.1919 -0.6120 -0.6287
 6798TIP3    H241954   5.401   3.818   0.930  0.5351  0.6315  0.5312
 6799TIP3   OH241955   6.935   2.084   0.577  0.4484  0.8706  0.7210
 6799TIP3    H141956   6.888   2.038   0.507  1.6232  0.0511  0.4347
 6799TIP3    H241957   6.872   2.091   0.648  0.2161 -1.2002  0.7765
 6800TIP3   OH241958   6.826   5.276   6.841  0.0646 -0.1371 -0.6269
 6800TIP3    H141959   6.734   5.296   6.860  0.1207  0.2449 -0.7429
 6800TIP3    H241960   6.874   5.350   6.878  0.4552 -1.0409  0.7476
 6801TIP3   OH241961   2.127   4.817   1.593 -0.3698 -0.8807 -0.6293
 6801TIP3    H141962   2.180   4.755   1.543  0.5950  0.6615 -1.5966
 6801TIP3    H241963   2.062   4.849   1.530  0.2542  0.3728 -0.6688
 6802TIP3   OH241964   5.805   4.756   7.468 -0.0612 -0.2876  0.0437
 6802TIP3    H141965   5.738   4.797   7.412  0.9166  0.5528 -0.5487
 6802TIP3    H241966   5.756   4.694   7.522 -1.3295  0.3301 -0.3452
 6803TIP3   OH241967   2.443   7.005   1.235 -0.3367  0.1109  0.5790
 6803TIP3    H141968   2.477   7.046   1.315 -1.9909  0.6141  1.0593
 6803TIP3    H241969   2.443   7.076   1.171  1.5759 -0.4379 -0.1149
 6804TIP3   OH241970   0.730   0.843   8.114 -0.2286  0.1254 -0.0119
 6804TIP3    H141971   0.732   0.936   8.137  1.1128  0.2520 -0.5568
 6804TIP3    H241972   0.813   0.808   8.146 -0.0717 -0.5546 -1.1025
 6805TIP3   OH241973   0.645   1.919   8.280 -0.4427  0.3516 -0.0278
 6805TIP3    H141974   0.655   1.841   8.225 -4.2215  0.3000 -0.8872
 6805TIP3    H241975   0.693   1.897   8.360  2.1950 -1.0376 -1.8189
 6806TIP3   OH241976   4.478   6.898   1.880 -0.4674  0.2531  0.1147
 6806TIP3    H141977   4.544   6.951   1.925  1.1015 -1.1703 -0.4463
 6806TIP3    H241978   4.499   6.907   1.787  0.3446 -1.8969  0.0235
 6807TIP3   OH241979   6.510   5.465   7.836 -0.0931  0.6088  0.1086
 6807TIP3    H141980   6.594   5.472   7.791  0.6199 -0.6091  1.1791
 6807TIP3    H241981   6.515   5.382   7.884 -1.2885  1.2620  1.4431
 6808TIP3   OH241982   1.741   2.606   8.268 -0.7485  0.6351  0.1948
 6808TIP3    H141983   1.769   2.693   8.297 -0.8803  0.7919 -0.1367
 6808TIP3    H241984   1.753   2.608   8.173 -0.2174  0.0966  0.2386
 6809TIP3   OH241985   3.692   2.241   0.621  0.6500 -0.6519 -0.3558
 6809TIP3    H141986   3.627   2.227   0.690  0.7067 -0.2224 -0.2122
 6809TIP3    H241987   3.664   2.322   0.578  0.5325 -0.9908 -0.9328
 6810TIP3   OH241988   2.711   5.640   0.479  0.0995 -0.8022  0.0655
 6810TIP3    H141989   2.691   5.734   0.479 -1.9207 -1.1745 -0.5118
 6810TIP3    H241990   2.625   5.598   0.484  0.7900 -2.6286 -1.8809
 6811TIP3   OH241991   6.951   1.397   7.104 -0.7947  0.0191  0.3825
 6811TIP3    H141992   6.911   1.318   7.066  0.3823 -0.1839 -0.4898
 6811TIP3    H241993   6.955   1.378   7.198 -0.9275 -0.7890  0.2372
 6812TIP3   OH241994   1.346   3.505   0.566 -0.0691  0.0058 -0.3665
 6812TIP3    H141995   1.372   3.546   0.649  1.4171  1.1686 -1.3323
 6812TIP3    H241996   1.413   3.438   0.551 -0.3832 -0.2596 -0.5778
 6813TIP3   OH241997   3.928   4.974   0.608 -0.5771  0.2209  0.0325
 6813TIP3    H141998   3.894   5.024   0.534 -1.1680  0.6654  0.5813
 6813TIP3    H241999   3.929   4.884   0.578 -1.7456  0.2666 -0.2035
 6814TIP3   OH242000   3.559   4.855   2.909 -0.3253  0.6740  0.2953
 6814TIP3    H142001   3.543   4.762   2.918 -3.6849  1.2122  1.0852
 6814TIP3    H242002   3.506   4.882   2.835  1.1413  1.9010 -0.3693
 6815TIP3   OH242003   0.313   4.719   0.368 -0.1085  0.2994  0.1968
 6815TIP3    H142004   0.233   4.667   0.368  0.6412 -0.8917  0.9733
 6815TIP3    H242005   0.350   4.708   0.281  0.6290 -1.4288  0.6988
 6816TIP3   OH242006   5.891   5.681   2.764 -0.1987  0.3039 -0.2004
 6816TIP3    H142007   5.939   5.739   2.705  0.0456  2.8038  2.2706
 6816TIP3    H242008   5.822   5.643   2.709  0.4605  1.8920 -2.2479
 6817TIP3   OH242009   3.242   6.016   7.797  0.3399  0.3880  0.1591
 6817TIP3    H142010   3.183   5.942   7.784  0.2988  0.4680 -0.1131
 6817TIP3    H242011   3.322   5.977   7.830  0.9219  0.0149 -1.5927
 6818TIP3   OH242012   4.971   2.993   7.435 -0.0185 -0.1142 -0.1290
 6818TIP3    H142013   4.925   3.046   7.370  0.0848 -0.7242 -0.7075
 6818TIP3    H242014   4.957   3.039   7.518 -2.3995 -0.7108 -0.1308
 6819TIP3   OH242015   6.313   4.250   8.231  0.0339  0.2335  0.3753
 6819TIP3    H142016   6.382   4.209   8.282 -0.4480 -0.9549  0.1070
 6819TIP3    H242017   6.243   4.267   8.295  0.0007  0.0748  0.3821
 6820TIP3   OH242018   0.924   1.784   1.665 -0.4080  0.0826 -0.2585
 6820TIP3    H142019   1.011   1.778   1.703 -1.0419  0.1594  1.2835
 6820TIP3    H242020   0.894   1.873   1.686 -2.5519 -1.2486  3.3097
 6821TIP3   OH242021   3.372   3.448   7.601  0.4707 -0.4054  0.3024
 6821TIP3    H142022   3.376   3.541   7.579 -0.6936 -0.6183 -0.9469
 6821TIP3    H242023   3.462   3.418   7.594  0.6477  0.3193 -0.8145
 6822TIP3   OH242024   5.670   2.130   0.698 -0.5913  0.7789 -0.0483
 6822TIP3    H142025   5.694   2.067   0.630 -0.4643  0.8295 -0.0507
 6822TIP3    H242026   5.706   2.094   0.778  0.0660  1.1784 -0.1524
 6823TIP3   OH242027   0.233   0.232   0.202 -0.1645  0.3779  0.1541
 6823TIP3    H142028   0.294   0.232   0.275  1.5090  2.5936 -1.1568
 6823TIP3    H242029   0.146   0.229   0.243  0.6950 -2.8274  2.0513
 6824TIP3   OH242030   3.657   1.270   1.260  0.0295  0.0112 -0.1719
 6824TIP3    H142031   3.702   1.274   1.345 -0.9336  2.2223  0.3194
 6824TIP3    H242032   3.613   1.355   1.253 -1.5353 -0.8813 -2.0064
 6825TIP3   OH242033   2.488   1.341   1.212 -0.4116 -0.2949  0.0202
 6825TIP3    H142034   2.538   1.313   1.135  0.5401 -1.3469  0.9811
 6825TIP3    H242035   2.424   1.271   1.225  0.5817 -1.0441  1.1780
 6826TIP3   OH242036   6.329   3.303   7.439 -0.7173  0.0973 -0.3636
 6826TIP3    H142037   6.311   3.273   7.528  0.1005 -0.4887 -0.3747
 6826TIP3    H242038   6.395   3.371   7.449 -0.6237  0.0306 -0.5158
 6827TIP3   OH242039   3.497   3.200   1.296  0.0933  0.1187  0.7159
 6827TIP3    H142040   3.588   3.228   1.281 -0.1746 -0.1110 -1.8880
 6827TIP3    H242041   3.451   3.280   1.322  0.2624  1.2727 -2.1241
 6828TIP3   OH242042   2.228   6.532   1.181 -0.1025 -0.1052  0.1168
 6828TIP3    H142043   2.246   6.612   1.132  0.4063 -0.5885 -0.4991
 6828TIP3    H242044   2.223   6.561   1.273 -3.2904  1.1899 -0.3260
 6829TIP3   OH242045   0.761   3.042   6.179  0.4882  0.0384 -0.8260
 6829TIP3    H142046   0.774   3.124   6.131 -1.2021  1.2732  0.6813
 6829TIP3    H242047   0.839   3.033   6.233  1.2184  0.0116 -1.8695
 6830TIP3   OH242048   5.654   2.593   1.320 -0.2158  0.2088  0.0422
 6830TIP3    H142049   5.715   2.667   1.324 -0.3575  0.2640  2.0487
 6830TIP3    H242050   5.568   2.633   1.310 -0.3068  0.3602  1.2599
 6831TIP3   OH242051   6.403   4.520   7.584  0.1617 -0.6327  0.2674
 6831TIP3    H142052   6.418   4.614   7.598 -1.4889 -0.6109  2.2173
 6831TIP3    H242053   6.419   4.508   7.490  2.3828  1.1670  0.3179
 6832TIP3   OH242054   0.893   6.721   6.994  0.3127 -0.1580 -0.4478
 6832TIP3    H142055   0.828   6.691   7.057  0.9066 -1.1864 -0.2898
 6832TIP3    H242056   0.844   6.770   6.928 -0.4736 -0.0888  0.1863
 6833TIP3   OH242057   3.918   0.012   0.636  0.0879  0.3862  0.0729
 6833TIP3    H142058   3.865  -0.028   0.706  0.8185  0.9429  0.9788
 6833TIP3    H242059   4.007   0.014   0.672  0.2681  1.7579 -0.3954
 6834TIP3   OH242060   3.108   4.628   0.972  0.5814  0.1582 -0.3657
 6834TIP3    H142061   3.140   4.573   1.043  1.2995 -0.5187 -1.1969
 6834TIP3    H242062   3.135   4.717   0.996  0.4491 -0.0015  0.3995
 6835TIP3   OH242063   1.308   0.220   1.441 -0.1733  0.2505  0.0660
 6835TIP3    H142064   1.275   0.285   1.504  1.5193  0.6455  0.5901
 6835TIP3    H242065   1.243   0.150   1.444 -1.1449  1.1304  0.7839
 6836TIP3   OH242066   5.233   4.931   7.401  0.0140  0.0064 -0.4390
 6836TIP3    H142067   5.189   4.894   7.325  2.8558 -1.1144 -1.6961
 6836TIP3    H242068   5.270   5.014   7.370 -0.7521  0.7080  0.4511
 6837TIP3   OH242069   2.719   0.034   1.174  0.1028 -0.0352  0.1590
 6837TIP3    H142070   2.708   0.101   1.242 -0.2529 -0.3750  0.4407
 6837TIP3    H242071   2.655   0.058   1.107 -1.7249 -1.3800  1.2986
 6838TIP3   OH242072   3.262   2.194   1.626 -0.1559 -0.3264 -0.1047
 6838TIP3    H142073   3.274   2.278   1.582  0.3614 -0.5707 -0.4433
 6838TIP3    H242074   3.319   2.199   1.703 -0.1688 -0.3454 -0.0940
 6839TIP3   OH242075   1.715   1.383   1.574 -0.4071 -0.0842  0.2341
 6839TIP3    H142076   1.774   1.454   1.600 -0.4552 -0.6377  1.9849
 6839TIP3    H242077   1.702   1.396   1.480 -0.1053  1.9872  0.4274
 6840TIP3   OH242078   1.704   1.065   1.023 -0.3521  0.0043 -0.4124
 6840TIP3    H142079   1.725   0.985   1.072  1.7189  1.5653  1.4687
 6840TIP3    H242080   1.614   1.085   1.047 -0.4930 -1.1221  0.0680
 6841TIP3   OH242081   5.054   2.751   7.301  0.3852 -0.2225 -0.1972
 6841TIP3    H142082   5.039   2.809   7.375 -1.5323 -1.0419  0.1334
 6841TIP3    H242083   4.984   2.772   7.240  0.9567 -0.7013 -1.0291
 6842TIP3   OH242084   5.012   5.683   2.938 -0.6602  0.1831 -0.9021
 6842TIP3    H142085   5.075   5.616   2.963 -1.1033  0.4748  1.2135
 6842TIP3    H242086   5.056   5.766   2.959 -1.3222  0.4184 -0.4095
 6843TIP3   OH242087   2.777   4.706   1.966 -0.0389  0.0447 -0.4057
 6843TIP3    H142088   2.760   4.727   2.058  0.2553  1.3504 -0.6387
 6843TIP3    H242089   2.839   4.633   1.969 -1.2424 -0.9729  0.4220
 6844TIP3   OH242090   3.170   4.106   0.465 -0.1959 -0.0985 -0.1054
 6844TIP3    H142091   3.247   4.161   0.451  0.2717 -0.8850 -0.6673
 6844TIP3    H242092   3.200   4.036   0.523 -0.5352 -0.3153 -0.1840
 6845TIP3   OH242093   0.640   6.380   0.169  0.1175  0.3205  0.0796
 6845TIP3    H142094   0.567   6.327   0.137 -0.5722 -0.5668  2.8426
 6845TIP3    H242095   0.718   6.337   0.133 -0.5673 -0.7711 -0.1643
 6846TIP3   OH242096   0.396   4.655   1.492 -0.2105  0.3187 -0.1542
 6846TIP3    H142097   0.382   4.748   1.475 -4.5557 -0.2748 -0.8379
 6846TIP3    H242098   0.350   4.638   1.574  0.7223 -1.2007  0.0900
 6847TIP3   OH242099   1.958   1.624   0.304 -0.1848  0.2602 -0.1266
 6847TIP3    H142100   1.899   1.599   0.375  0.3533  0.1833  0.3069
 6847TIP3    H242101   2.037   1.572   0.319 -0.4559 -0.5580 -1.4176
 6848TIP3   OH242102   4.707   6.777   1.634  0.3307  0.6997 -0.1891
 6848TIP3    H142103   4.614   6.795   1.643  0.5580  1.0865  1.8281
 6848TIP3    H242104   4.721   6.770   1.540 -1.5509  1.5675 -0.5770
 6849TIP3   OH242105   6.082   2.784   0.971  0.7989 -0.0255 -0.2194
 6849TIP3    H142106   6.121   2.727   0.905 -0.2197 -1.1257  0.1044
 6849TIP3    H242107   6.156   2.812   1.026  1.7315  1.2556 -2.0353
 6850TIP3   OH242108   5.242   6.910   1.526  0.3499  0.0019 -0.6314
 6850TIP3    H142109   5.172   6.861   1.482  0.3344 -0.7055  0.1591
 6850TIP3    H242110   5.245   6.873   1.614 -0.1646  1.9108  0.2427
 6851TIP3   OH242111   6.700   3.848   6.999 -0.0950  0.0798  0.1006
 6851TIP3    H142112   6.747   3.874   6.920 -0.6432  0.2100 -0.1886
 6851TIP3    H242113   6.609   3.873   6.982  0.1169  2.0464  1.6180
 6852TIP3   OH242114   4.800   5.773   8.064  0.3288  0.6393  0.3051
 6852TIP3    H142115   4.894   5.772   8.084  0.2919  2.2093  0.6724
 6852TIP3    H242116   4.758   5.736   8.142  0.6257 -0.0714  0.1378
 6853TIP3   OH242117   6.396   4.886   1.021  0.5428  0.3981 -0.4374
 6853TIP3    H142118   6.378   4.837   1.101  0.8257  0.3600 -0.3970
 6853TIP3    H242119   6.336   4.961   1.025  0.3997  0.2789 -0.2999
 6854TIP3   OH242120   0.635   2.960   0.969 -0.2606 -0.2489  0.0656
 6854TIP3    H142121   0.551   2.994   1.001 -0.3196 -0.2631 -0.0699
 6854TIP3    H242122   0.684   2.938   1.048 -0.5557 -0.6528  0.1404
 6855TIP3   OH242123   6.737   4.735   0.207 -0.0766 -0.3615 -0.0421
 6855TIP3    H142124   6.799   4.754   0.277 -1.2318  0.2745  0.8438
 6855TIP3    H242125   6.768   4.652   0.170  1.2410 -0.1014  0.4131
 6856TIP3   OH242126   1.786   1.270   0.359 -0.3048  0.2797 -0.3207
 6856TIP3    H142127   1.829   1.329   0.421 -1.8536  2.3184 -1.0742
 6856TIP3    H242128   1.704   1.314   0.337 -1.0387 -1.6817 -1.7682
 6857TIP3   OH242129   6.156   5.868   8.211  0.7063 -0.6880 -0.2493
 6857TIP3    H142130   6.132   5.850   8.120 -0.1048  0.6881 -0.3270
 6857TIP3    H242131   6.072   5.876   8.256  1.1062 -1.0515  0.5719
 6858TIP3   OH242132   1.969   4.219   0.598  0.0973 -0.2219 -0.3080
 6858TIP3    H142133   1.945   4.283   0.530 -0.2958 -0.1756 -0.1232
 6858TIP3    H242134   2.012   4.271   0.665 -3.7491  0.6076  1.7970
 6859TIP3   OH242135   4.631   3.769   1.138 -0.2785 -0.0582 -0.4665
 6859TIP3    H142136   4.623   3.857   1.177  0.1524 -0.8793  1.6437
 6859TIP3    H242137   4.713   3.772   1.089 -0.6957  0.9580 -1.1249
 6860TIP3   OH242138   5.576   1.647   7.431 -0.5599  0.0804 -0.2352
 6860TIP3    H142139   5.494   1.599   7.445 -0.2527 -0.4242 -0.1499
 6860TIP3    H242140   5.555   1.738   7.454 -1.0616 -0.0711 -0.0900
 6861TIP3   OH242141   3.877   1.462   2.466 -0.3987  0.0042  0.0368
 6861TIP3    H142142   3.911   1.480   2.378 -0.2753 -0.7379 -0.0689
 6861TIP3    H242143   3.916   1.379   2.491 -2.0661 -0.8625 -0.0678
 6862TIP3   OH242144   3.825   4.419   1.275 -0.4153  0.4375 -0.4670
 6862TIP3    H142145   3.731   4.437   1.277 -0.9529 -2.0530 -0.7010
 6862TIP3    H242146   3.850   4.432   1.184 -0.6258  0.5536 -0.5091
 6863TIP3   OH242147   3.880   0.638   0.499 -0.4807 -0.4974 -0.3790
 6863TIP3    H142148   3.841   0.596   0.575 -0.1746  1.5892  0.9966
 6863TIP3    H242149   3.806   0.675   0.450 -0.5706 -0.5441 -0.2763
 6864TIP3   OH242150   5.594   1.435   7.876  0.4236  0.6488  0.4388
 6864TIP3    H142151   5.630   1.359   7.922  2.1239  0.2585 -1.4205
 6864TIP3    H242152   5.652   1.507   7.899  1.0575  0.5348 -0.7291
 6865TIP3   OH242153   0.569   5.925   0.650 -0.4033 -0.3854 -0.3663
 6865TIP3    H142154   0.525   5.965   0.725  3.3260 -0.4838  2.1582
 6865TIP3    H242155   0.558   5.831   0.663 -0.0443 -0.3936 -0.1034
 6866TIP3   OH242156   1.394   1.949   1.170 -0.1193  0.9922 -0.1790
 6866TIP3    H142157   1.353   2.023   1.125 -1.0245  1.3652  1.1979
 6866TIP3    H242158   1.353   1.872   1.129 -0.0393  1.2792 -0.8142
 6867TIP3   OH242159   6.065   3.867   1.644 -0.2096 -0.3004 -0.4103
 6867TIP3    H142160   6.133   3.934   1.644 -1.1037  0.6625  0.9504
 6867TIP3    H242161   6.084   3.814   1.721 -0.5482 -0.5157 -0.4746
 6868TIP3   OH242162   2.482   1.217   6.299 -0.2149  0.0579 -0.1553
 6868TIP3    H142163   2.538   1.268   6.241  0.2002 -0.4439 -0.2089
 6868TIP3    H242164   2.396   1.260   6.295  0.0788  0.6295 -0.3372
 6869TIP3   OH242165   1.163   5.889   7.377 -0.1853  0.0162 -0.1190
 6869TIP3    H142166   1.226   5.818   7.385 -1.2738 -0.9277  0.5922
 6869TIP3    H242167   1.215   5.969   7.380  0.8619 -0.6571  2.5347
 6870TIP3   OH242168   1.466   2.499   1.665 -0.3721  0.9989 -0.8173
 6870TIP3    H142169   1.421   2.562   1.721 -1.9058 -1.0511  0.4215
 6870TIP3    H242170   1.527   2.454   1.724 -3.2874 -2.4521 -0.1260
 6871TIP3   OH242171   0.072   0.221   0.899 -0.5609 -0.2320 -0.2304
 6871TIP3    H142172  -0.008   0.191   0.943 -1.5520  3.5541  0.9272
 6871TIP3    H242173   0.119   0.270   0.966  1.6350 -0.4119 -1.5356
 6872TIP3   OH242174   6.830   6.735   0.527 -0.0452 -0.4631 -0.2058
 6872TIP3    H142175   6.866   6.692   0.605  1.4745  1.7223  0.4047
 6872TIP3    H242176   6.785   6.666   0.480  1.5425 -2.5285  1.1228
 6873TIP3   OH242177   3.555   0.692   0.408  0.0496 -0.5456  0.2912
 6873TIP3    H142178   3.557   0.712   0.501  0.5109  1.3505 -0.0832
 6873TIP3    H242179   3.485   0.746   0.373  1.6560  0.9310 -0.8579
 6874TIP3   OH242180   4.711   5.980   7.157 -0.1216 -0.0213 -0.8781
 6874TIP3    H142181   4.790   6.033   7.145 -1.0875  1.6971 -0.0171
 6874TIP3    H242182   4.723   5.939   7.243 -0.4996  0.9168 -0.3577
 6875TIP3   OH242183   3.263   1.360   1.900 -0.0633  0.2273 -0.4067
 6875TIP3    H142184   3.231   1.428   1.961 -2.5752 -0.2210 -1.1239
 6875TIP3    H242185   3.241   1.394   1.813  0.9432 -0.4196 -0.9310
 6876TIP3   OH242186   2.813   0.698   0.549 -1.0442  0.8250 -0.7728
 6876TIP3    H142187   2.819   0.603   0.541  0.1399  0.8559 -0.4999
 6876TIP3    H242188   2.868   0.719   0.625 -1.1818  1.7390 -0.9165
 6877TIP3   OH242189   4.871   5.091   7.209 -0.2795 -0.3839 -0.1911
 6877TIP3    H142190   4.938   5.107   7.276 -0.5283  0.8255 -0.1965
 6877TIP3    H242191   4.797   5.055   7.256  0.4479 -1.9880 -0.2226
 6878TIP3   OH242192   6.788   4.603   7.806 -0.2231  0.2839 -0.0090
 6878TIP3    H142193   6.776   4.537   7.738  0.3343 -1.2330  1.3065
 6878TIP3    H242194   6.699   4.630   7.829 -0.4924 -0.4455 -0.1584
 6879TIP3   OH242195   3.386   3.227   0.954  0.1023 -0.2979  0.4422
 6879TIP3    H142196   3.392   3.173   1.033  0.3863  1.2650  1.5409
 6879TIP3    H242197   3.456   3.292   0.965 -1.1053  1.1612 -0.1259
 6880TIP3   OH242198   2.662   6.410   7.687  0.0305 -0.1088 -0.2531
 6880TIP3    H142199   2.756   6.392   7.692 -0.0238 -0.9035 -1.5024
 6880TIP3    H242200   2.623   6.350   7.751  0.3544  0.0266  0.0726
 6881TIP3   OH242201   1.965   3.745   7.925  0.3901 -0.1740 -0.1072
 6881TIP3    H142202   1.880   3.787   7.938 -0.0071 -1.2155  0.8981
 6881TIP3    H242203   1.944   3.657   7.895  1.1453 -0.2500 -0.4382
 6882TIP3   OH242204   5.365   3.339   1.436  0.0269 -0.6812  0.1950
 6882TIP3    H142205   5.284   3.318   1.483 -1.0795 -0.3985 -1.5051
 6882TIP3    H242206   5.371   3.434   1.441 -0.1828 -0.6374 -0.3630
 6883TIP3   OH242207   5.311   4.019   7.916 -0.0581 -0.2074 -0.6710
 6883TIP3    H142208   5.272   3.953   7.859  0.9686 -0.7709 -0.7376
 6883TIP3    H242209   5.303   3.981   8.004 -1.2350  0.4648 -0.4595
 6884TIP3   OH242210   3.676   2.946   1.608  0.5248 -0.5398 -0.1229
 6884TIP3    H142211   3.595   2.990   1.583  0.4329 -1.3796 -1.4229
 6884TIP3    H242212   3.742   3.015   1.611 -0.1124  0.0524  0.3282
 6885TIP3   OH242213   3.606   0.827   8.101 -0.1266  0.1187 -0.2905
 6885TIP3    H142214   3.554   0.896   8.141 -0.3613  0.9776 -1.9884
 6885TIP3    H242215   3.680   0.815   8.160  0.2590  2.3022 -0.2712
 6886TIP3   OH242216   5.129   4.565   1.513 -0.3466 -0.6363 -0.1681
 6886TIP3    H142217   5.072   4.488   1.512  0.7683 -1.5115 -1.6214
 6886TIP3    H242218   5.079   4.632   1.467 -1.5174 -0.2968  1.5113
 6887TIP3   OH242219   3.834   5.899   7.314 -0.2848  0.0478  0.1908
 6887TIP3    H142220   3.788   5.847   7.379  0.7399  0.2078  1.0657
 6887TIP3    H242221   3.923   5.863   7.313  0.8213  2.4757  1.7023
 6888TIP3   OH242222   6.910   0.061   1.115  0.3828  0.1265 -0.3375
 6888TIP3    H142223   6.890  -0.031   1.095 -0.7473  0.3969 -0.5287
 6888TIP3    H242224   6.833   0.092   1.162  1.3603  0.5870  1.0357
 6889TIP3   OH242225   1.607   1.471   6.791 -0.2642  0.5888 -0.0214
 6889TIP3    H142226   1.586   1.458   6.698 -1.4865  0.2167  0.2975
 6889TIP3    H242227   1.625   1.382   6.823  0.3128  0.7348  0.0786
 6890TIP3   OH242228   3.597   6.113   8.035  0.5811 -0.6159  0.1522
 6890TIP3    H142229   3.514   6.069   8.049  0.4011 -1.4147 -2.7790
 6890TIP3    H242230   3.659   6.066   8.092 -0.5249 -1.5009  0.6549
 6891TIP3   OH242231   2.124   0.537   0.968 -0.4117  0.0500  0.1120
 6891TIP3    H142232   2.089   0.584   0.891 -1.1328 -0.7740 -0.0763
 6891TIP3    H242233   2.115   0.600   1.040  1.7600  1.4491 -0.7357
 6892TIP3   OH242234   6.014   5.176   1.430 -0.7448 -0.9414 -0.1628
 6892TIP3    H142235   5.919   5.180   1.418 -0.4842  2.1194 -2.7251
 6892TIP3    H242236   6.033   5.249   1.488  0.0332 -1.8783  0.7814
 6893TIP3   OH242237   5.962   3.367   0.890 -0.2322 -0.1734  0.1496
 6893TIP3    H142238   6.046   3.372   0.844 -1.6183 -1.1434 -2.7364
 6893TIP3    H242239   5.961   3.279   0.928 -0.5360 -0.7546 -1.1577
 6894TIP3   OH242240   6.491   3.003   0.668 -0.1809 -0.1106  0.0147
 6894TIP3    H142241   6.515   3.021   0.577 -4.2528  1.7589 -0.9055
 6894TIP3    H242242   6.548   3.061   0.719  0.5171  0.6109 -1.5126
 6895TIP3   OH242243   3.802   4.781   0.201  0.1186 -0.6983 -0.0871
 6895TIP3    H142244   3.813   4.700   0.252 -1.4694 -0.6998  0.3038
 6895TIP3    H242245   3.810   4.851   0.265  0.2675 -0.5893 -0.2226
 6896TIP3   OH242246   0.532   3.883   8.024 -0.5496  0.4135  0.6711
 6896TIP3    H142247   0.563   3.795   8.043 -2.9123 -0.1731  2.0947
 6896TIP3    H242248   0.512   3.922   8.109 -1.9320  1.3896 -0.0482
 6897TIP3   OH242249   1.524   0.618   0.974 -0.3226  0.3324  0.4734
 6897TIP3    H142250   1.514   0.523   0.970  0.4471  0.0668  3.2372
 6897TIP3    H242251   1.438   0.650   1.000 -0.9820  0.6097 -1.7893
 6898TIP3   OH242252   3.737   2.175   1.249  0.0821 -0.4958  0.3852
 6898TIP3    H142253   3.755   2.156   1.157 -0.0755 -0.9270  0.4375
 6898TIP3    H242254   3.816   2.218   1.281 -0.4712  1.1386 -0.3568
 6899TIP3   OH242255   3.804   6.271   2.473 -0.7382 -0.0292 -0.2683
 6899TIP3    H142256   3.781   6.245   2.563 -3.3088  1.8167 -0.2546
 6899TIP3    H242257   3.821   6.189   2.428 -2.2888 -1.2768  1.2392
 6900TIP3   OH242258   1.331   6.493   8.124  0.0894 -0.1687  0.2766
 6900TIP3    H142259   1.283   6.469   8.203  0.4397 -1.4515  0.1097
 6900TIP3    H242260   1.300   6.432   8.057  0.7520  0.0599 -0.2504
 6901TIP3   OH242261   6.532   6.021   7.911  0.4261  0.0767  0.2574
 6901TIP3    H142262   6.452   6.050   7.957  0.6972 -0.1401  0.8752
 6901TIP3    H242263   6.571   6.102   7.878  0.5436  0.3050  0.9390
 6902TIP3   OH242264   5.230   6.220   6.643 -0.0687 -0.9774 -0.8315
 6902TIP3    H142265   5.221   6.211   6.738  0.1652 -0.3159 -0.7356
 6902TIP3    H242266   5.146   6.191   6.607  0.8392 -4.1910 -0.6603
 6903TIP3   OH242267   1.725   1.898   2.318 -0.8067  0.0110  0.3457
 6903TIP3    H142268   1.777   1.958   2.371  1.8223 -2.0125  0.2859
 6903TIP3    H242269   1.787   1.830   2.290 -2.7450 -0.7510 -2.6761
 6904TIP3   OH242270   1.281   2.331   6.694  0.0315  0.1657  0.2959
 6904TIP3    H142271   1.215   2.340   6.625  1.5546  0.7136 -1.1827
 6904TIP3    H242272   1.363   2.317   6.646  1.0934  0.1287  2.0335
 6905TIP3   OH242273   6.666   1.222   2.099  0.1412 -0.2135 -0.4947
 6905TIP3    H142274   6.753   1.254   2.123  0.4144  0.8318 -2.6759
 6905TIP3    H242275   6.653   1.145   2.155  1.6004  0.7458  1.2919
 6906TIP3   OH242276   5.557   6.745   7.408 -0.4447  0.2755 -0.1562
 6906TIP3    H142277   5.540   6.787   7.323  0.8969 -2.3187 -1.8358
 6906TIP3    H242278   5.634   6.791   7.443 -0.8666  1.2124 -0.4296
 6907TIP3   OH242279   2.009   1.501   0.043  0.2255  0.5158 -0.6087
 6907TIP3    H142280   2.018   1.539   0.131 -1.4249  0.4720 -0.3827
 6907TIP3    H242281   1.923   1.530   0.013 -0.1815 -1.2622 -1.3185
 6908TIP3   OH242282   1.229   5.941   1.534  0.1830 -0.2272 -0.4752
 6908TIP3    H142283   1.138   5.969   1.528  0.1652  0.0356  0.7023
 6908TIP3    H242284   1.224   5.845   1.542  0.0713 -0.3004 -1.3259
 6909TIP3   OH242285   1.037   3.854   0.207 -0.2184  0.0396  0.5007
 6909TIP3    H142286   1.050   3.931   0.261 -1.6315  0.6754 -0.0202
 6909TIP3    H242287   0.948   3.826   0.226 -0.0190 -0.9682  0.0422
 6910TIP3   OH242288   2.391   0.579   2.867 -0.5646  0.7199  0.1451
 6910TIP3    H142289   2.314   0.561   2.812  0.0720 -0.2355 -0.4589
 6910TIP3    H242290   2.425   0.662   2.834 -0.2669  0.2265 -0.8494
 6911TIP3   OH242291   4.021   0.935   1.040  0.1067  0.1847  0.0217
 6911TIP3    H142292   3.933   0.948   1.074  0.2668 -1.0420  0.9992
 6911TIP3    H242293   4.052   1.023   1.016 -1.2975  0.6425 -0.1694
 6912TIP3   OH242294   1.231   3.373   7.742 -0.1507 -0.1037  0.1195
 6912TIP3    H142295   1.289   3.335   7.675 -0.4360 -0.2274 -0.0605
 6912TIP3    H242296   1.259   3.464   7.749  1.3946 -0.6243  1.4612
 6913TIP3   OH242297   1.973   0.088   8.096  0.7532 -0.0588 -0.0300
 6913TIP3    H142298   1.932   0.041   8.169  3.3343 -0.7837  1.0568
 6913TIP3    H242299   1.953   0.180   8.112  1.0520 -0.2339  1.4771
 6914TIP3   OH242300   4.667   1.398   7.881  0.3853  0.0074  0.1903
 6914TIP3    H142301   4.626   1.483   7.864  2.1962  0.4509 -2.6519
 6914TIP3    H242302   4.750   1.420   7.923  0.6179 -0.3914 -0.0592
 6915TIP3   OH242303   0.176   2.322   0.171 -0.0886 -0.4556 -0.4841
 6915TIP3    H142304   0.210   2.394   0.225 -0.3706  1.2484 -2.4599
 6915TIP3    H242305   0.158   2.252   0.234  0.4190  1.0944  1.5109
 6916TIP3   OH242306   1.858   2.339   6.915 -0.2127  0.3116 -0.0238
 6916TIP3    H142307   1.944   2.309   6.945 -0.2407  1.6850  1.5815
 6916TIP3    H242308   1.853   2.310   6.825  1.9082  0.1053 -0.1345
 6917TIP3   OH242309   1.960   3.737   0.724  0.2913 -0.2557  0.2185
 6917TIP3    H142310   1.894   3.668   0.736 -0.8679  0.7497 -0.1110
 6917TIP3    H242311   2.015   3.705   0.653 -1.1503 -0.2296 -0.9769
 6918TIP3   OH242312   2.025   1.320   7.830  0.4287 -0.4096 -0.0861
 6918TIP3    H142313   2.063   1.233   7.841 -0.0914 -0.6593 -0.2374
 6918TIP3    H242314   2.046   1.344   7.740 -0.4015 -0.8656 -0.4147
 6919TIP3   OH242315   1.608   2.650   0.931  0.7144 -0.0843  0.4481
 6919TIP3    H142316   1.654   2.630   0.849  2.2734  0.6530  1.1175
 6919TIP3    H242317   1.551   2.724   0.909  0.2438 -0.6255 -0.2353
 6920TIP3   OH242318   6.892   5.103   1.532  0.3135  0.1874 -0.5295
 6920TIP3    H142319   6.799   5.091   1.514  0.2989  0.6988 -0.8006
 6920TIP3    H242320   6.901   5.085   1.626  0.0123 -0.2506 -0.5812
 6921TIP3   OH242321   6.147   1.012   8.215 -0.3268 -0.0246  0.4860
 6921TIP3    H142322   6.072   1.069   8.230  0.7540  2.1526 -1.6797
 6921TIP3    H242323   6.146   0.996   8.121  1.3455 -0.8030  0.5654
 6922TIP3   OH242324   3.688   0.940   0.481 -0.1198  0.3037  0.3569
 6922TIP3    H142325   3.669   0.979   0.567 -1.0946 -0.8803  0.7050
 6922TIP3    H242326   3.603   0.937   0.437 -0.2130 -1.9310  0.5792
 6923TIP3   OH242327   3.112   2.660   6.222 -0.8351  0.1629 -0.4487
 6923TIP3    H142328   3.150   2.730   6.274 -3.5451  1.1659  0.3799
 6923TIP3    H242329   3.034   2.634   6.270 -0.6583 -2.5162 -1.4481
 6924TIP3   OH242330   0.306   1.053   1.694  0.2983 -0.4822  0.1487
 6924TIP3    H142331   0.214   1.070   1.712  0.0073 -1.5038 -0.3107
 6924TIP3    H242332   0.342   1.027   1.779 -0.4088 -2.4500 -0.1113
 6925TIP3   OH242333   1.828   5.702   2.130 -0.3932  0.7213 -0.1143
 6925TIP3    H142334   1.740   5.688   2.164  0.4740  0.8848  2.3998
 6925TIP3    H242335   1.856   5.616   2.099 -0.4909  0.0502  1.5707
 6926TIP3   OH242336   5.295   4.279   6.531 -0.1609 -0.4838 -0.6522
 6926TIP3    H142337   5.232   4.231   6.585  0.2289  0.3962  0.6249
 6926TIP3    H242338   5.241   4.336   6.476 -0.5919 -1.8457 -1.7145
 6927TIP3   OH242339   2.409   0.330   8.250  0.0279  0.4483 -0.2938
 6927TIP3    H142340   2.465   0.254   8.234  0.0968  0.6713 -1.1231
 6927TIP3    H242341   2.320   0.295   8.245  0.0716  0.1848  0.5707
 6928TIP3   OH242342   3.060   1.717   1.195 -0.3724  0.3946  0.2068
 6928TIP3    H142343   2.993   1.778   1.226 -0.7148 -0.0273  0.3201
 6928TIP3    H242344   3.083   1.666   1.273  1.9213  2.1639  0.8104
 6929TIP3   OH242345   3.781   6.321   1.664  0.1077  0.1287  0.0836
 6929TIP3    H142346   3.842   6.333   1.591  1.4757 -0.5005  1.0906
 6929TIP3    H242347   3.821   6.368   1.737  0.1977 -1.5864  1.1928
 6930TIP3   OH242348   5.632   2.419   1.539  0.3950 -0.0195 -0.1986
 6930TIP3    H142349   5.633   2.479   1.614 -0.1780  0.7069 -0.7578
 6930TIP3    H242350   5.622   2.476   1.463 -2.6818 -0.9188 -0.6031
 6931TIP3   OH242351   0.424   6.695   1.928  0.9773  0.3955 -0.0130
 6931TIP3    H142352   0.510   6.653   1.930  1.0121  0.4674  0.0015
 6931TIP3    H242353   0.413   6.730   2.017  1.1062  0.7361 -0.1283
 6932TIP3   OH242354   0.407   4.950   7.471  0.0418 -0.3981  0.0338
 6932TIP3    H142355   0.381   4.858   7.470 -0.7276 -0.2464  2.0721
 6932TIP3    H242356   0.326   4.998   7.454  0.7101 -0.0544 -2.6686
 6933TIP3   OH242357   6.709   0.546   7.386 -0.5834 -0.0674  0.5153
 6933TIP3    H142358   6.670   0.489   7.452  0.7806 -0.4674  1.0122
 6933TIP3    H242359   6.718   0.630   7.429 -0.7119 -0.0274  0.4649
 6934TIP3   OH242360   0.407   2.604   0.697 -0.6686  0.2224  0.1252
 6934TIP3    H142361   0.366   2.518   0.697 -0.4132  0.0660 -1.8939
 6934TIP3    H242362   0.479   2.597   0.634 -0.2663  1.7424  0.3736
 6935TIP3   OH242363   0.994   1.151   7.496  0.0524 -0.5369  0.1588
 6935TIP3    H142364   1.075   1.099   7.494  0.2096 -0.4028  1.9271
 6935TIP3    H242365   1.006   1.212   7.569 -1.2571  0.1568 -0.1717
 6936TIP3   OH242366   0.661   6.559   7.112  0.0946 -0.1690  0.0009
 6936TIP3    H142367   0.638   6.640   7.158  1.3298  0.2516 -0.0941
 6936TIP3    H242368   0.588   6.546   7.050  0.1731  1.2219 -0.4184
 6937TIP3   OH242369   3.806   5.034   0.352  0.0747  0.4881  0.6297
 6937TIP3    H142370   3.833   5.054   0.262 -1.9858  0.6637 -0.0041
 6937TIP3    H242371   3.743   5.103   0.373  1.0464  0.8620  2.5068
 6938TIP3   OH242372   3.241   0.739   0.064  0.2059  0.1823  0.1971
 6938TIP3    H142373   3.167   0.680   0.052  0.4685 -0.0736 -0.1916
 6938TIP3    H242374   3.317   0.681   0.069  0.4372  0.4698  0.0551
 6939TIP3   OH242375   1.903   2.008   0.203 -0.2773  0.7669 -0.0711
 6939TIP3    H142376   1.881   2.021   0.295  0.1986  1.8257 -0.0939
 6939TIP3    H242377   1.824   2.033   0.155 -0.3557  0.7024  0.0239
 6940TIP3   OH242378   5.282   0.697   1.235  0.0215 -0.4110  0.6202
 6940TIP3    H142379   5.233   0.759   1.182 -0.2526  0.6973  2.1180
 6940TIP3    H242380   5.362   0.744   1.259  0.2073 -0.9377  1.0563
 6941TIP3   OH242381   4.511   3.677   6.354 -0.0779  0.0541 -0.1048
 6941TIP3    H142382   4.484   3.593   6.319  2.6496 -0.3393 -1.4863
 6941TIP3    H242383   4.585   3.704   6.300 -0.3483  2.9958  0.7737
 6942TIP3   OH242384   3.999   6.617   2.105 -0.6886 -0.2267  0.4814
 6942TIP3    H142385   3.940   6.675   2.154  0.7433  1.4063  0.3824
 6942TIP3    H242386   3.958   6.531   2.110 -0.7291 -0.1638  4.4808
 6943TIP3   OH242387   1.218   4.985   8.156 -0.2939 -0.2173 -0.1082
 6943TIP3    H142388   1.281   5.031   8.101  0.4247 -0.7828  0.2326
 6943TIP3    H242389   1.216   5.036   8.237 -0.4619 -0.0630 -0.2079
 6944TIP3   OH242390   1.947   2.039   7.122  0.3756 -0.3662 -0.1352
 6944TIP3    H142391   1.919   2.023   7.032 -0.6832 -4.0370  0.6768
 6944TIP3    H242392   1.879   2.095   7.159 -0.0684 -0.2124 -1.1523
 6945TIP3   OH242393   4.436   1.825   0.703  0.2571 -0.5662 -0.3397
 6945TIP3    H142394   4.463   1.904   0.657  0.1641 -0.6818 -0.5957
 6945TIP3    H242395   4.408   1.856   0.790 -0.7901 -0.1783 -0.8035
 6946TIP3   OH242396   0.945   4.530   7.533  0.0309  0.0038  0.2029
 6946TIP3    H142397   0.941   4.538   7.438  0.5737  0.7663  0.2365
 6946TIP3    H242398   0.858   4.555   7.563 -0.6581 -1.8235 -0.1778
 6947TIP3   OH242399   4.854   0.301   0.253 -0.1298 -0.0544 -0.6336
 6947TIP3    H142400   4.944   0.282   0.227  0.1347  1.1667 -0.6985
 6947TIP3    H242401   4.819   0.355   0.183 -0.5625  0.3550 -0.1161
 6948TIP3   OH242402   5.991   5.794   2.996  0.2834  0.1717 -0.5890
 6948TIP3    H142403   5.978   5.871   2.940 -1.0714 -0.1245 -0.7055
 6948TIP3    H242404   5.919   5.735   2.973  2.0084 -1.7123 -1.4364
 6949TIP3   OH242405   5.374   4.677   1.473  0.5918 -0.6061  0.1179
 6949TIP3    H142406   5.347   4.729   1.398 -0.7696  2.5207  2.5534
 6949TIP3    H242407   5.302   4.615   1.486  0.7366 -1.0238 -0.9592
 6950TIP3   OH242408   3.622   0.822   7.223 -0.2218 -0.2498  0.8728
 6950TIP3    H142409   3.582   0.770   7.292  0.9971 -0.2601  1.5863
 6950TIP3    H242410   3.551   0.835   7.159 -0.7297 -2.2245  0.9771
 6951TIP3   OH242411   5.954   5.391   0.066 -0.4711 -0.2834 -0.1745
 6951TIP3    H142412   5.923   5.319   0.011  1.3857 -1.2884  0.0224
 6951TIP3    H242413   5.992   5.348   0.142  0.9191  0.8885 -0.1679
 6952TIP3   OH242414   3.261   3.661   0.562  0.3159 -1.1387 -0.0024
 6952TIP3    H142415   3.180   3.659   0.613  0.8766  0.4387  1.0195
 6952TIP3    H242416   3.241   3.610   0.484 -1.7306 -0.6326  0.1316
 6953TIP3   OH242417   0.751   2.974   0.413 -0.2654  0.3049 -0.3974
 6953TIP3    H142418   0.671   2.945   0.370 -0.7617  0.1587  0.5837
 6953TIP3    H242419   0.750   3.069   0.405  0.7316  0.1898 -2.5290
 6954TIP3   OH242420   1.197   4.870   6.195  0.1491 -0.9524 -0.2109
 6954TIP3    H142421   1.130   4.820   6.149  1.8126 -1.5575 -2.0957
 6954TIP3    H242422   1.250   4.804   6.239  1.6677 -0.8203 -1.7614
 6955TIP3   OH242423   2.420   4.327   6.356  0.4774 -0.2421 -0.3051
 6955TIP3    H142424   2.447   4.299   6.444 -0.2811 -0.7986 -0.2356
 6955TIP3    H242425   2.441   4.252   6.300  1.8844  0.4802 -0.7952
 6956TIP3   OH242426   4.605   4.565   6.504 -0.0249  0.0515 -0.4222
 6956TIP3    H142427   4.694   4.566   6.541 -0.8291 -1.2002  1.7542
 6956TIP3    H242428   4.572   4.477   6.526 -1.6319  0.3146 -1.6383
 6957TIP3   OH242429   4.370   1.019   2.607 -0.1611  0.1462 -0.2113
 6957TIP3    H142430   4.315   0.998   2.531  1.2352 -0.9462 -0.9591
 6957TIP3    H242431   4.317   0.992   2.682 -1.1945  0.3928 -0.8223
 6958TIP3   OH242432   2.997   0.197   1.595  0.1503 -0.4966 -0.6697
 6958TIP3    H142433   2.907   0.194   1.627  0.2483  0.3328 -0.2994
 6958TIP3    H242434   3.050   0.162   1.666  0.2390  0.1743 -0.3965
 6959TIP3   OH242435   6.421   2.786   0.333 -0.1445  0.1528  0.0692
 6959TIP3    H142436   6.338   2.778   0.286 -0.8134  0.5970  1.1317
 6959TIP3    H242437   6.459   2.699   0.331 -1.1816 -0.3286  0.5141
 6960TIP3   OH242438   3.497   6.286   7.475 -0.5465 -0.2623 -0.4751
 6960TIP3    H142439   3.559   6.225   7.513 -0.0922  0.7046  0.3750
 6960TIP3    H242440   3.444   6.233   7.416  0.6125 -1.2391 -0.6683
 6961TIP3   OH242441   1.714   0.186   6.622  0.3137  0.2861 -0.2247
 6961TIP3    H142442   1.630   0.171   6.578  0.1032 -1.0980  0.5913
 6961TIP3    H242443   1.756   0.100   6.622  2.1766  1.1333 -1.4583
 6962TIP3   OH242444   4.765   6.642   0.912 -0.0855 -0.1939 -0.5832
 6962TIP3    H142445   4.851   6.648   0.870 -0.4816  1.2530 -1.2626
 6962TIP3    H242446   4.768   6.560   0.961  1.7303 -0.1200 -0.4830
 6963TIP3   OH242447   5.054   2.331   1.036  0.6697 -0.5777 -0.3924
 6963TIP3    H142448   5.126   2.274   1.007 -0.0282 -0.3136 -2.9437
 6963TIP3    H242449   5.093   2.418   1.041  0.8743 -0.6739 -0.3053
 6964TIP3   OH242450   4.905   2.569   0.969 -0.0251  0.6118 -0.0156
 6964TIP3    H142451   4.887   2.476   0.958 -0.3432  0.7992 -1.1814
 6964TIP3    H242452   4.851   2.595   1.044  0.3033 -0.1945  0.5153
 6965TIP3   OH242453   0.517   5.988   8.195 -0.5072  0.1318  0.7075
 6965TIP3    H142454   0.550   5.899   8.181 -0.7983 -0.1741  1.8738
 6965TIP3    H242455   0.488   5.989   8.286 -1.6629  1.0531  0.3548
 6966TIP3   OH242456   4.085   0.522   0.339 -0.4016 -0.2642 -0.0244
 6966TIP3    H142457   4.016   0.576   0.378 -0.6105  0.0500 -0.8063
 6966TIP3    H242458   4.043   0.481   0.264  0.6219  1.0810 -1.4070
 6967TIP3   OH242459   3.290   6.658   0.140 -0.2513  0.0251  0.0498
 6967TIP3    H142460   3.252   6.586   0.089 -2.5501  1.5926 -0.6025
 6967TIP3    H242461   3.306   6.727   0.076 -1.4372  1.3579  1.1379
 6968TIP3   OH242462   2.122   3.689   0.516 -0.0061  0.5292 -0.3440
 6968TIP3    H142463   2.197   3.718   0.568 -0.4558 -0.5354  0.9759
 6968TIP3    H242464   2.143   3.716   0.427  2.6714 -0.9836 -0.2954
 6969TIP3   OH242465   0.320   4.984   1.517  0.1320 -0.0258 -0.7702
 6969TIP3    H142466   0.377   5.023   1.582  0.8848 -0.0321 -1.4046
 6969TIP3    H242467   0.250   5.048   1.503 -0.7587 -0.5710  0.9510
 6970TIP3   OH242468   6.863   5.622   0.881  0.5204  0.0417 -0.1989
 6970TIP3    H142469   6.939   5.592   0.831  0.2449  0.2889 -0.7863
 6970TIP3    H242470   6.788   5.606   0.822  0.0884 -0.4429  0.4751
 6971TIP3   OH242471   2.754   1.875   0.804 -0.0847 -0.2036  0.0848
 6971TIP3    H142472   2.735   1.801   0.861 -0.3821 -1.1662 -1.2200
 6971TIP3    H242473   2.845   1.899   0.824 -0.2656 -0.3647  1.1168
 6972TIP3   OH242474   0.803   6.874   6.531 -0.4068  0.8029 -0.1360
 6972TIP3    H142475   0.831   6.937   6.597 -0.5672 -1.1876  1.9637
 6972TIP3    H242476   0.884   6.845   6.490 -0.1271  0.8280  0.3833
 6973TIP3   OH242477   2.700   4.493   7.391  0.2319 -0.0731  0.4151
 6973TIP3    H142478   2.605   4.481   7.383  0.3247 -1.2634  0.9293
 6973TIP3    H242479   2.717   4.577   7.349 -1.0578  0.1765  0.3508
 6974TIP3   OH242480   4.460   1.553   0.214 -0.4568  0.0973 -0.0552
 6974TIP3    H142481   4.422   1.626   0.264  1.3748  0.1403  1.3823
 6974TIP3    H242482   4.539   1.590   0.174 -0.4680 -0.6531 -0.8039
 6975TIP3   OH242483   4.966   6.855   8.042  0.4909  0.3341 -0.1246
 6975TIP3    H142484   5.047   6.834   8.088  1.1299 -0.9261 -1.7578
 6975TIP3    H242485   4.929   6.770   8.017 -1.5539  0.8538  0.8771
 6976TIP3   OH242486   3.247   2.071   0.708  0.3609 -0.2690 -0.2674
 6976TIP3    H142487   3.308   2.138   0.739  0.8977 -0.3802 -1.0527
 6976TIP3    H242488   3.255   2.073   0.612 -0.7304 -0.4179 -0.3811
 6977TIP3   OH242489   3.337   2.218   7.158  1.3931  0.6239  0.0963
 6977TIP3    H142490   3.280   2.294   7.168 -1.3260 -1.2753  0.3872
 6977TIP3    H242491   3.295   2.166   7.090  1.1621 -2.1322  2.1380
 6978TIP3   OH242492   1.545   2.210   0.536  0.1971 -0.1932 -0.6635
 6978TIP3    H142493   1.543   2.235   0.444  0.9015  0.1786 -0.5876
 6978TIP3    H242494   1.619   2.149   0.543  0.1439 -0.2275 -0.3431
 6979TIP3   OH242495   0.047   1.048   1.421  0.1969  0.5933  0.7834
 6979TIP3    H142496   0.100   1.091   1.488  0.0810  3.5426 -0.8466
 6979TIP3    H242497  -0.041   1.046   1.458  0.1171  2.2459  0.7709
 6980TIP3   OH242498   3.399   1.629   7.178  0.9158 -0.3851  0.3093
 6980TIP3    H142499   3.432   1.689   7.111  1.2744  0.7694  1.4734
 6980TIP3    H242500   3.369   1.552   7.129  2.9963 -0.4263 -1.0086
 6981TIP3   OH242501   0.638   1.726   6.649 -0.3068 -0.5501 -0.3696
 6981TIP3    H142502   0.605   1.638   6.664  3.6552 -2.0943  0.2243
 6981TIP3    H242503   0.644   1.765   6.736 -0.1077 -0.4365 -0.4349
 6982TIP3   OH242504   3.509   6.900   0.277  0.7380 -0.6477  0.6278
 6982TIP3    H142505   3.422   6.935   0.298  0.9172 -0.1115  0.4910
 6982TIP3    H242506   3.500   6.805   0.288  0.9638 -0.4235  3.8126
 6983TIP3   OH242507   0.198   0.332   6.219  0.1899 -0.6000 -0.3607
 6983TIP3    H142508   0.253   0.349   6.295 -2.1229  1.1776  1.0195
 6983TIP3    H242509   0.162   0.244   6.234  0.3984 -0.5950  0.1607
 6984TIP3   OH242510   3.058   1.447   0.729  0.1342  0.0466 -0.5254
 6984TIP3    H142511   3.085   1.404   0.810  0.7693 -0.4479 -0.9956
 6984TIP3    H242512   3.013   1.379   0.679  0.2000  0.2116 -0.8118
 6985TIP3   OH242513   3.807   1.126   0.292 -0.1031  0.0705  0.2809
 6985TIP3    H142514   3.789   1.080   0.373 -0.3001  1.4824  1.0675
 6985TIP3    H242515   3.743   1.092   0.229  0.6036 -1.6588  0.4320
 6986TIP3   OH242516   2.842   0.974   7.546 -0.2929 -0.0796 -0.0853
 6986TIP3    H142517   2.928   0.955   7.583 -1.0401 -1.8589  0.8859
 6986TIP3    H242518   2.785   0.985   7.623 -0.8026  1.9145 -0.6932
 6987TIP3   OH242519   4.450   5.833   0.542  0.1914 -0.1077 -0.6345
 6987TIP3    H142520   4.447   5.745   0.577  0.8567  0.2246  0.3213
 6987TIP3    H242521   4.520   5.830   0.476 -0.3064 -0.4718 -1.1493
 6988TIP3   OH242522   6.818   0.170   7.551  0.3405  0.1445 -0.8652
 6988TIP3    H142523   6.832   0.265   7.544  0.5034  0.1112 -1.0058
 6988TIP3    H242524   6.747   0.161   7.613  0.1859  0.3714 -1.0071
 6989TIP3   OH242525   4.507   1.325   6.932  0.6376 -0.6174  0.0247
 6989TIP3    H142526   4.431   1.356   6.882  0.9930 -1.5610 -1.1477
 6989TIP3    H242527   4.583   1.359   6.885  0.9739 -1.1762  0.1480
 6990TIP3   OH242528   3.370   2.945   1.774 -0.2710 -0.3612  0.8451
 6990TIP3    H142529   3.325   3.029   1.767 -1.3248 -0.9273  0.5913
 6990TIP3    H242530   3.387   2.919   1.683 -1.0374 -0.9812  0.8707
 6991TIP3   OH242531   1.235   0.706   8.001 -0.1262  0.7975 -0.0993
 6991TIP3    H142532   1.264   0.616   7.985 -1.8405 -0.0285  1.1507
 6991TIP3    H242533   1.312   0.759   7.981  1.6095 -1.1084  1.0805
 6992TIP3   OH242534   0.759   0.352   8.217  0.7107 -0.0021  0.0020
 6992TIP3    H142535   0.768   0.257   8.216  0.4219 -0.0333  0.2371
 6992TIP3    H242536   0.668   0.367   8.245  1.2656  0.3724  1.7518
 6993TIP3   OH242537   3.083   0.527   6.366 -0.0459 -0.1036  0.1970
 6993TIP3    H142538   3.151   0.564   6.422  0.5246 -0.2901 -0.3599
 6993TIP3    H242539   3.124   0.522   6.279 -0.0337 -2.1884  0.2839
 6994TIP3   OH242540   6.350   0.521   1.763  0.0487  0.1302 -0.0945
 6994TIP3    H142541   6.285   0.535   1.694  1.0252 -1.6428 -1.4300
 6994TIP3    H242542   6.316   0.448   1.814 -0.8315  1.6285  1.6094
 6995TIP3   OH242543   3.394   0.244   8.213 -0.1400  0.3231 -0.2439
 6995TIP3    H142544   3.339   0.174   8.249  2.1360 -0.5242  1.9170
 6995TIP3    H242545   3.445   0.275   8.288  2.7476  0.6071 -2.1736
 6996TIP3   OH242546   5.142   1.403   2.987 -0.6067 -0.2278 -0.3429
 6996TIP3    H142547   5.216   1.364   3.034 -0.7025 -1.4712 -1.1888
 6996TIP3    H242548   5.168   1.495   2.975 -0.4034  0.0232  1.7175
 6997TIP3   OH242549   3.845   3.192   1.997 -0.1692  0.1125  0.3748
 6997TIP3    H142550   3.790   3.268   1.981  0.0376  0.2129  0.1392
 6997TIP3    H242551   3.804   3.122   1.946 -2.2882 -0.8254  3.0823
 6998TIP3   OH242552   1.595   5.836   1.166  0.0978  0.0831  0.3565
 6998TIP3    H142553   1.683   5.864   1.193 -0.0402  0.4449  0.4362
 6998TIP3    H242554   1.538   5.862   1.238  0.1971 -2.0279  1.2716
 6999TIP3   OH242555   1.132   2.723   0.515  0.2228  0.0116  0.2810
 6999TIP3    H142556   1.042   2.753   0.501  0.6835  0.6783 -1.4698
 6999TIP3    H242557   1.186   2.797   0.487  1.3390 -0.6917  0.5296
 7000TIP3   OH242558   5.374   5.653   0.352  0.2898 -0.0037  0.3603
 7000TIP3    H142559   5.412   5.718   0.411 -0.7446 -0.7148  1.8971
 7000TIP3    H242560   5.348   5.581   0.410  1.6637 -1.9485 -1.3080
 7001TIP3   OH242561   3.086   6.114   0.445  0.4275  0.6390 -0.2647
 7001TIP3    H142562   3.178   6.117   0.472  0.4689  0.2048 -0.3360
 7001TIP3    H242563   3.037   6.107   0.527  0.6125 -1.8643 -0.2677
 7002TIP3   OH242564   6.160   4.934   1.481 -0.1548 -0.0677 -0.5615
 7002TIP3    H142565   6.084   4.886   1.449 -0.7159  0.1885  0.3366
 7002TIP3    H242566   6.129   5.024   1.491  0.2472  0.0286 -0.1217
 7003TIP3   OH242567   1.526   4.284   6.184 -0.0996  0.4880  0.9050
 7003TIP3    H142568   1.613   4.249   6.202 -0.7105 -0.7732  1.5447
 7003TIP3    H242569   1.508   4.344   6.257  0.2753  0.8652  0.6934
 7004TIP3   OH242570   4.063   3.832   6.593 -0.0106 -0.0323 -0.1864
 7004TIP3    H142571   4.079   3.740   6.616 -2.1797 -0.7803 -1.4178
 7004TIP3    H242572   4.079   3.836   6.499 -0.3147  0.7616 -0.2134
 7005TIP3   OH242573   1.537   4.453   1.576  0.3911  0.0610  0.0601
 7005TIP3    H142574   1.471   4.456   1.645  0.0523 -1.6383 -0.1547
 7005TIP3    H242575   1.609   4.403   1.614  0.2892 -0.7050 -0.7103
 7006TIP3   OH242576   4.229   3.282   0.933  0.9179  0.0320  0.2812
 7006TIP3    H142577   4.286   3.355   0.907  1.2591  0.0195  0.9724
 7006TIP3    H242578   4.269   3.247   1.012 -0.1650  0.1535  0.9068
 7007TIP3   OH242579   2.220   3.326   1.587  0.0289  0.5560 -0.3754
 7007TIP3    H142580   2.193   3.283   1.667 -2.6340  0.4913 -1.2074
 7007TIP3    H242581   2.312   3.351   1.602  0.7967 -2.7114  1.2153
 7008TIP3   OH242582   6.788   6.230   7.485 -0.3086 -0.0162 -0.8052
 7008TIP3    H142583   6.739   6.282   7.549  0.7620 -0.7367  0.6657
 7008TIP3    H242584   6.795   6.287   7.408 -1.5600  0.9099 -0.2559
 7009TIP3   OH242585   5.734   2.009   2.039 -0.0871  0.1736 -0.6754
 7009TIP3    H142586   5.694   2.035   1.956 -0.9676  0.1368 -0.2628
 7009TIP3    H242587   5.722   2.084   2.097 -1.4374 -0.6084  0.0979
 7010TIP3   OH242588   2.291   1.655   1.384 -0.2884 -0.9145  0.1884
 7010TIP3    H142589   2.241   1.736   1.396  1.4677  0.1578  0.6175
 7010TIP3    H242590   2.258   1.619   1.302 -1.2319  0.1557  0.0700
 7011TIP3   OH242591   4.555   7.013   7.609 -0.2835  0.7731 -0.1043
 7011TIP3    H142592   4.605   7.086   7.644  1.0204 -0.3357  0.4483
 7011TIP3    H242593   4.574   6.940   7.668 -0.0196 -0.5028 -1.6717
 7012TIP3   OH242594   0.892   5.758   2.595 -0.0799 -0.1876 -0.3440
 7012TIP3    H142595   0.851   5.763   2.508 -1.2862  2.2476  0.2764
 7012TIP3    H242596   0.822   5.785   2.655  0.5656 -2.3082  1.4970
 7013TIP3   OH242597   0.474   1.071   7.806  0.1968  0.3760 -0.6732
 7013TIP3    H142598   0.410   1.017   7.760 -0.5045  1.8988 -1.5721
 7013TIP3    H242599   0.537   1.009   7.841 -2.4370 -1.3097  1.4196
 7014TIP3   OH242600   4.830   0.541   0.035 -0.1416 -0.0752 -0.8012
 7014TIP3    H142601   4.819   0.598  -0.040  3.0694  1.3774 -0.3693
 7014TIP3    H242602   4.809   0.596   0.111  1.0025 -0.0305 -0.4856
 7015TIP3   OH242603   3.500   6.386   1.749 -0.3242 -0.1356 -0.7793
 7015TIP3    H142604   3.464   6.302   1.775 -1.9000  1.2100  1.8282
 7015TIP3    H242605   3.592   6.368   1.728 -0.9521 -2.6705 -1.6552
 7016TIP3   OH242606   1.863   6.582   0.151  0.3335 -0.4168  0.1234
 7016TIP3    H142607   1.819   6.572   0.067 -0.6306  1.0201  0.4353
 7016TIP3    H242608   1.934   6.643   0.135  0.1961 -0.1992  0.3397
 7017TIP3   OH242609   5.915   2.366   1.600  0.3381  0.1891 -0.5278
 7017TIP3    H142610   5.893   2.447   1.554  0.8671  0.2523 -0.6808
 7017TIP3    H242611   5.979   2.392   1.666  0.7437 -0.1545 -0.7815
 7018TIP3   OH242612   2.576   2.783   7.875 -0.0832  0.4731 -0.2286
 7018TIP3    H142613   2.598   2.703   7.922 -2.0616  1.1247  2.0291
 7018TIP3    H242614   2.647   2.844   7.896  1.0609 -0.3983 -1.3835
 7019TIP3   OH242615   5.817   2.537   7.869 -0.2637  0.2563 -0.9330
 7019TIP3    H142616   5.833   2.631   7.873 -1.6437  0.4888  0.2435
 7019TIP3    H242617   5.850   2.504   7.953  1.3025 -0.5303 -1.8201
 7020TIP3   OH242618   4.228   0.683   7.149 -0.1323  0.1637  0.7405
 7020TIP3    H142619   4.289   0.752   7.121 -0.7653 -0.3866 -2.3219
 7020TIP3    H242620   4.283   0.618   7.192  0.9965  0.9599  0.5509
 7021TIP3   OH242621   4.334   2.230   6.745 -0.1088  0.1310 -0.4133
 7021TIP3    H142622   4.340   2.146   6.700  1.1574 -0.0858  0.1353
 7021TIP3    H242623   4.333   2.295   6.674 -3.2832 -0.3419 -0.9825
 7022TIP3   OH242624   0.276   4.800   1.135  0.4076 -0.2224  0.3514
 7022TIP3    H142625   0.317   4.887   1.133 -1.7377  0.8969 -1.8326
 7022TIP3    H242626   0.344   4.740   1.106  2.1700  0.5281  2.6277
 7023TIP3   OH242627   4.717   5.684   1.579  0.2831 -0.5127  0.0791
 7023TIP3    H142628   4.742   5.627   1.507 -0.2463 -0.3902 -0.2060
 7023TIP3    H242629   4.694   5.623   1.650  0.0506 -0.6487 -0.1113
 7024TIP3   OH242630   4.265   2.139   0.851 -0.2558 -0.4730  0.4072
 7024TIP3    H142631   4.180   2.133   0.807  0.6014 -1.6889 -1.1769
 7024TIP3    H242632   4.296   2.048   0.856  1.3582  0.0366  0.1007
 7025TIP3   OH242633   4.450   4.384   0.350  0.4532  0.1466 -0.1665
 7025TIP3    H142634   4.409   4.313   0.301  1.6757  0.2321 -1.3526
 7025TIP3    H242635   4.521   4.341   0.399  0.2829  0.3329  0.2516
 7026TIP3   OH242636   5.931   5.294   7.282 -0.0018  0.1646  0.1545
 7026TIP3    H142637   5.903   5.296   7.191  1.0472 -1.3368 -0.2461
 7026TIP3    H242638   5.905   5.379   7.317  1.2049  1.5099 -2.0186
 7027TIP3   OH242639   5.259   0.390   8.017 -0.3888 -0.1852 -0.6122
 7027TIP3    H142640   5.238   0.303   7.983  0.5739 -0.1401 -1.3763
 7027TIP3    H242641   5.345   0.380   8.058  1.5192  1.0975 -3.8692
 7028TIP3   OH242642   4.505   0.938   0.014 -0.2623 -0.9512  0.1787
 7028TIP3    H142643   4.539   0.871  -0.045 -1.6556 -0.9275 -0.6915
 7028TIP3    H242644   4.549   1.019  -0.013  0.8827 -1.3646  0.7593
 7029TIP3   OH242645   5.751   6.078   0.059 -0.6382  0.3608  0.2193
 7029TIP3    H142646   5.799   6.077  -0.024  1.3825  1.5448  1.2754
 7029TIP3    H242647   5.712   5.991   0.066  1.0504 -0.5464 -0.9224
 7030TIP3   OH242648   4.771   0.782   1.544  0.3000  0.0460  0.4243
 7030TIP3    H142649   4.853   0.741   1.571  1.0995  0.5166 -1.1642
 7030TIP3    H242650   4.754   0.746   1.457 -0.0673  1.5112 -0.1413
 7031TIP3   OH242651   4.302   4.265   7.193 -0.1863 -0.4675  0.3819
 7031TIP3    H142652   4.238   4.298   7.256  0.9387  2.2654  0.2535
 7031TIP3    H242653   4.374   4.231   7.247 -0.3738 -0.5882  0.5544
 7032TIP3   OH242654   3.537   6.518   0.872 -0.2042  0.2252  0.2413
 7032TIP3    H142655   3.627   6.552   0.872 -0.4628  0.9701  1.0521
 7032TIP3    H242656   3.547   6.423   0.873  0.5600  0.2609 -1.5330
 7033TIP3   OH242657   5.847   6.929   7.879  0.8501 -0.2888 -0.5491
 7033TIP3    H142658   5.898   6.902   7.803  0.9702 -1.0810 -0.1935
 7033TIP3    H242659   5.911   6.962   7.942  1.1085 -2.5477  0.4401
 7034TIP3   OH242660   1.362   1.482   1.372  0.1853  0.1291 -0.6211
 7034TIP3    H142661   1.273   1.510   1.394 -1.5448 -2.9462 -2.9365
 7034TIP3    H242662   1.372   1.397   1.415  1.3095 -0.3692 -1.8016
 7035TIP3   OH242663   4.272   6.423   8.204  0.0378  0.0064 -0.6703
 7035TIP3    H142664   4.362   6.433   8.171  0.0326 -0.5718 -0.8765
 7035TIP3    H242665   4.279   6.356   8.272 -0.2654 -0.1858 -0.8242
 7036TIP3   OH242666   2.266   4.740   0.091  0.1539  0.2345 -0.1796
 7036TIP3    H142667   2.228   4.660   0.127 -0.0745  0.3814 -0.0921
 7036TIP3    H242668   2.350   4.712   0.055  1.3180  0.4065  2.1912
 7037TIP3   OH242669   2.082   0.095   2.636 -0.1467 -0.5580 -0.0779
 7037TIP3    H142670   2.150   0.058   2.579 -0.0887 -0.7849  0.1396
 7037TIP3    H242671   2.036   0.019   2.671 -0.7534 -0.4014 -0.5121
 7038TIP3   OH242672   1.557   6.509   6.567  0.0992 -0.2235 -0.1315
 7038TIP3    H142673   1.591   6.421   6.584  1.1144  0.0342 -0.7620
 7038TIP3    H242674   1.631   6.567   6.585 -0.7535  0.5722  0.9244
 7039TIP3   OH242675   3.809   0.495   7.485  0.0309  0.1317  0.4449
 7039TIP3    H142676   3.886   0.439   7.470  0.3654  0.4323  0.9910
 7039TIP3    H242677   3.839   0.583   7.464  0.0931  0.3656  1.4273
 7040TIP3   OH242678   2.042   4.248   6.323 -0.4213 -0.2201 -0.0467
 7040TIP3    H142679   2.125   4.276   6.285 -0.6963  0.1996 -0.3536
 7040TIP3    H242680   2.065   4.208   6.407 -0.0991  2.1446  1.0725
 7041TIP3   OH242681   6.665   3.328   7.514 -0.0565  0.2765 -0.1612
 7041TIP3    H142682   6.672   3.407   7.567  0.1052  0.6233 -0.6850
 7041TIP3    H242683   6.748   3.282   7.529 -0.0499  0.3276 -0.0405
 7042TIP3   OH242684   3.381   5.907   8.201  0.0170  0.2882 -0.4837
 7042TIP3    H142685   3.351   5.817   8.185 -0.3059  0.4848 -1.0282
 7042TIP3    H242686   3.302   5.957   8.218  0.2383  0.3817  0.3172
 7043TIP3   OH242687   1.651   0.902   1.652  0.4422  0.2689  0.1810
 7043TIP3    H142688   1.567   0.878   1.613 -1.1597  1.9542  2.3464
 7043TIP3    H242689   1.666   0.835   1.719  0.0835  0.7587  0.7571
 7044TIP3   OH242690   6.847   6.890   7.554 -0.1523  0.7584 -0.2182
 7044TIP3    H142691   6.803   6.975   7.553 -0.3755  0.6754 -2.5820
 7044TIP3    H242692   6.916   6.898   7.489 -1.1726 -1.3117 -1.6636
 7045TIP3   OH242693   2.869   4.516   1.056  0.3279 -0.2667  0.2279
 7045TIP3    H142694   2.896   4.442   1.001  0.5058 -0.6251  0.7865
 7045TIP3    H242695   2.947   4.570   1.063  0.4345 -0.4474  0.4772
 7046TIP3   OH242696   5.146   6.251   2.164 -0.1425 -0.2769 -0.7455
 7046TIP3    H142697   5.182   6.338   2.148 -2.2814  1.0308  1.0680
 7046TIP3    H242698   5.201   6.215   2.234  0.8716 -0.5327 -1.6349
 7047TIP3   OH242699   5.931   3.536   7.641  0.0459 -0.1568  0.4343
 7047TIP3    H142700   5.887   3.573   7.717  0.5098 -2.8031  2.1549
 7047TIP3    H242701   5.867   3.544   7.570 -1.8170 -0.6349  1.9588
 7048TIP3   OH242702   4.010   6.273   7.213  0.4064  0.0769  0.2502
 7048TIP3    H142703   3.925   6.234   7.231  0.0200  0.7165 -0.1276
 7048TIP3    H242704   4.069   6.234   7.278 -0.1349 -0.4965  0.4063
 7049TIP3   OH242705   0.122   6.021   0.008 -0.0756  0.3039 -0.0753
 7049TIP3    H142706   0.208   5.986  -0.017  0.1831 -0.3825  1.6253
 7049TIP3    H242707   0.063   5.947  -0.002 -0.7567  1.0861 -2.4005
 7050TIP3   OH242708   3.892   2.111   1.592 -0.3902 -0.2871 -0.0693
 7050TIP3    H142709   3.883   2.056   1.515  1.8583 -0.3080 -0.4019
 7050TIP3    H242710   3.966   2.168   1.571  0.7397 -0.7646  2.3142
 7051TIP3   OH242711   1.652   0.902   0.214 -0.4547 -0.4947  0.1127
 7051TIP3    H142712   1.731   0.947   0.246 -0.7938  0.1606  0.0408
 7051TIP3    H242713   1.685   0.820   0.178  0.3433  0.2043 -0.8390
 7052TIP3   OH242714   3.555   7.002   7.706  0.1791 -0.0304 -0.1859
 7052TIP3    H142715   3.509   6.948   7.642 -1.2023  0.4680  0.3388
 7052TIP3    H242716   3.557   7.089   7.668  2.2026 -0.3607 -0.9301
 7053TIP3   OH242717   0.746   6.657   0.497  0.1696  0.1251  0.4219
 7053TIP3    H142718   0.726   6.566   0.519 -0.3502 -0.0883 -0.8727
 7053TIP3    H242719   0.834   6.655   0.460  0.7471  0.3794  1.7235
 7054TIP3   OH242720   2.532   0.220   1.069  0.1392 -0.0605 -0.0115
 7054TIP3    H142721   2.610   0.260   1.110  0.4257 -0.2758 -0.3442
 7054TIP3    H242722   2.461   0.280   1.091  0.3307 -0.0563  0.6190
 7055TIP3   OH242723   3.272   1.383   7.649 -0.0626  0.2776  0.1877
 7055TIP3    H142724   3.218   1.421   7.719  0.0852  1.3066 -0.2279
 7055TIP3    H242725   3.307   1.302   7.687 -2.0094 -0.5144  0.4048
 7056TIP3   OH242726   5.965   6.155   0.180 -0.7133 -0.1069 -0.4363
 7056TIP3    H142727   5.980   6.093   0.252 -0.8033  1.4236  0.9503
 7056TIP3    H242728   5.885   6.123   0.138  0.9941 -2.8268 -1.8914
 7057LIG     O142729   2.948   2.672   4.033  0.0429 -0.3763 -0.4644
 7057LIG     O242730   3.176   2.605   4.064  1.1220 -0.0353 -0.3478
 7057LIG     O342731   3.234   2.835   4.021  0.0900  0.5148  0.1452
 7057LIG     O442732   2.907   2.356   4.044  0.0252 -0.2802 -0.0800
 7057LIG     O542733   2.915   2.435   3.756  0.7308  0.7997  0.1040
 7057LIG     O642734   3.347   2.612   4.295 -0.0070 -0.0415  0.1718
 7057LIG     O742735   3.437   2.552   4.022 -0.0056  0.2362  0.0416
 7057LIG     O842736   3.584   2.752   3.891  0.8297  0.3918 -0.1024
 7057LIG     O942737   3.030   2.410   4.291 -0.0025 -0.2971 -0.3235
 7057LIG    O1042738   3.022   2.818   3.785 -0.0952 -0.3473  0.2379
 7057LIG    O1142739   3.444   2.928   3.735 -0.3560  0.0381  0.4937
 7057LIG     C142740   3.034   2.569   4.087  0.6071  0.1774 -0.3583
 7057LIG     C242741   3.014   2.446   3.995  0.2051  0.4774 -0.9136
 7057LIG     C342742   2.973   2.513   3.861  0.7787  0.4268  0.4641
 7057LIG     C442743   2.897   2.637   3.901  0.7209 -0.2806  1.0841
 7057LIG     C542744   3.212   2.731   4.117  0.1445 -0.3984 -0.5861
 7057LIG     C642745   3.349   2.711   4.188 -0.3498  1.0661  0.1976
 7057LIG     C742746   3.460   2.677   4.087  0.1070  0.7087  0.1091
 7057LIG     C842747   3.477   2.788   3.986 -0.3802 -0.5788 -0.4546
 7057LIG     C942748   3.337   2.811   3.929 -1.3132 -0.2174  1.1443
 7057LIG    C1042749   3.003   2.540   4.241 -0.0431  0.0455 -0.2430
 7057LIG    C1142750   2.897   2.751   3.786 -0.6498 -0.1687 -0.1635
 7057LIG    C1242751   3.335   2.928   3.828 -0.0829  0.4645  0.4321
 7057LIG     H142752   3.103   2.384   3.977  0.2963  0.4674 -0.4163
 7057LIG     H242753   3.065   2.550   3.812  0.6635  0.9389  0.6202
 7057LIG     H342754   2.794   2.601   3.909  0.1182  0.1865 -2.8027
 7057LIG     H442755   3.147   2.777   4.194  0.8245  0.3692 -0.4574
 7057LIG     H542756   3.374   2.810   4.232  0.3064  0.0760  2.1579
 7057LIG     H642757   3.555   2.659   4.141 -0.6036 -1.8915  0.6136
 7057LIG     H742758   3.505   2.883   4.037 -0.6944 -0.5536 -0.3245
 7057LIG     H842759   3.316   2.723   3.865  2.7001  0.4977 -1.4758
 7057LIG     H942760   3.053   2.620   4.300 -2.3061  1.5542 -0.2392
 7057LIG    H1042761   2.896   2.551   4.271  0.0860 -3.3164  1.9967
 7057LIG    H1142762   2.886   2.706   3.685 -0.3128 -0.9651  0.1495
 7057LIG    H1242763   2.816   2.827   3.800  2.0691  3.4230 -2.2519
 7057LIG    H1342764   3.241   2.915   3.769  0.2948 -1.3842  0.1674
 7057LIG    H1442765   3.331   3.025   3.883 -1.0926 -0.4550  2.0646
 7057LIG    H1542766   2.912   2.332   4.137 -3.4024 -2.5355 -0.3093
 7057LIG    H1642767   2.878   2.356   3.794  0.1419  1.0444  0.0469
 7057LIG    H1742768   3.299   2.537   4.257  0.4350  0.9791 -2.6748
 7057LIG    H1842769   3.492   2.554   3.944  2.0108 -2.4386  1.2164
 7057LIG    H1942770   3.578   2.824   3.828  0.3816  0.6304  0.2003
 7057LIG    H2042771   3.033   2.418   4.386 -0.0293  0.0046 -0.3472
 7057LIG    H2142772   3.061   2.814   3.873 -1.1968 -0.9037  0.7213
 7057LIG    H2242773   3.412   2.979   3.660  1.2109  0.9603  0.4007
   7.01319   7.01319   8.30525
