Title
42773
    1SAPS     N    1   3.657   6.667   7.524  0.1766  0.0435 -0.1633
    1SAPS   HN1    2   3.657   6.591   7.595  1.0491 -1.3574 -1.5924
    1SAPS   HN2    3   3.605   6.629   7.443 -0.5148 -0.5480  0.5443
    1SAPS   HN3    4   3.759   6.670   7.502  0.0901 -0.1088 -0.5792
    1SAPS   C12    5   3.599   6.800   7.575 -0.5037  0.9797 -0.3113
    1SAPS  H12A    6   3.491   6.793   7.573 -0.3951 -1.1737 -1.3794
    1SAPS   C13    7   3.647   6.819   7.722 -0.1048 -0.6462  0.1930
    1SAPS  O13A    8   3.702   6.717   7.774 -0.3014 -0.4197  0.0868
    1SAPS  O13B    9   3.590   6.901   7.793  0.7353 -0.0765 -0.0378
    1SAPS   C11   10   3.649   6.911   7.480  0.9384  0.4101 -0.4842
    1SAPS  H11A   11   3.639   6.874   7.376  1.0029 -0.5248 -0.1742
    1SAPS  H11B   12   3.755   6.940   7.500  0.6580  1.8620 -1.0105
    1SAPS     P   13   3.426   7.055   7.459  0.4679 -0.3137  0.1608
    1SAPS   O13   14   3.336   6.993   7.559 -0.1809 -0.0172 -0.5515
    1SAPS   O14   15   3.411   7.203   7.432 -0.1685  0.2820  0.6911
    1SAPS   O12   16   3.573   7.028   7.502  0.0252  0.5186 -0.4307
    1SAPS   O11   17   3.414   6.969   7.327  0.3777 -0.6739  0.0575
    1SAPS    C1   18   3.436   7.024   7.201  0.1580  0.6108  0.2722
    1SAPS    HA   19   3.462   7.132   7.198  1.9355  0.2184 -2.1283
    1SAPS    HB   20   3.526   6.975   7.157  0.0971  2.4292 -2.1212
    1SAPS    C2   21   3.310   7.011   7.104 -0.1188  0.4662 -0.2727
    1SAPS    HS   22   3.219   7.050   7.156 -1.6588 -1.6448 -1.2348
    1SAPS   O21   23   3.295   6.876   7.071  0.4456 -0.6441  0.2287
    1SAPS   C21   24   3.169   6.843   7.030  0.4555  0.5067  0.6817
    1SAPS   O22   25   3.073   6.914   7.029 -0.3155 -0.5957  0.4982
    1SAPS   C22   26   3.178   6.698   6.980 -0.1023  0.1567  0.1028
    1SAPS   H2R   27   3.268   6.674   6.919 -1.4434 -0.3835 -1.7639
    1SAPS   H2S   28   3.168   6.632   7.069  0.5452 -0.7143 -0.4473
    1SAPS    C3   29   3.334   7.099   6.974  0.4454 -0.2960 -0.2342
    1SAPS    HX   30   3.245   7.090   6.907 -0.1334 -0.4705  0.5389
    1SAPS    HY   31   3.419   7.047   6.925  1.3563  0.8918  0.0442
    1SAPS   O31   32   3.369   7.231   7.010  0.2555 -0.7853  0.6132
    1SAPS   C31   33   3.272   7.316   7.027 -0.4084 -0.0360  0.0877
    1SAPS   O32   34   3.152   7.294   7.033  0.1120 -0.0089  0.5612
    1SAPS   C32   35   3.324   7.456   7.055  0.6770 -0.5259  0.3774
    1SAPS   H2X   36   3.434   7.455   7.040  1.1035 -0.3001  2.9010
    1SAPS   H2Y   37   3.300   7.483   7.160  1.2188 -0.3534  0.4620
    1SAPS   C23   38   3.055   6.666   6.880 -0.3066  0.1635  0.7754
    1SAPS   H3R   39   2.962   6.706   6.926 -0.3008  2.4048 -0.9863
    1SAPS   H3S   40   3.046   6.557   6.861  0.1011  0.3547 -0.6237
    1SAPS   C24   41   3.052   6.720   6.736 -0.2635  0.1623  0.0823
    1SAPS   H4R   42   2.967   6.679   6.677 -1.8369 -0.4477  2.5754
    1SAPS   H4S   43   3.147   6.682   6.694  0.7315 -0.2197  2.4689
    1SAPS   C25   44   3.059   6.869   6.740 -0.2525 -0.1462  0.1150
    1SAPS   H5R   45   2.990   6.922   6.807 -0.2372  0.5154 -0.3918
    1SAPS   C26   46   3.112   6.946   6.641 -0.0170 -0.0089  0.3675
    1SAPS   H6R   47   3.100   7.055   6.640  2.6145  0.3369 -0.1421
    1SAPS   C27   48   3.180   6.894   6.518 -0.5125  0.2117 -0.5787
    1SAPS   H7R   49   3.130   6.952   6.438 -0.3184  3.4016  1.4352
    1SAPS   H7S   50   3.163   6.785   6.502 -0.6798  0.2896 -0.9322
    1SAPS   C28   51   3.329   6.923   6.520 -0.3890 -0.3427 -0.0489
    1SAPS   H8R   52   3.394   6.897   6.604  1.7361  0.1162 -1.4549
    1SAPS   C29   53   3.401   6.984   6.413  0.0807  0.1116  0.3188
    1SAPS   H9R   54   3.507   7.001   6.434  0.5723 -0.5162 -1.4796
    1SAPS  C210   55   3.331   7.047   6.292 -0.7129 -0.8372  0.6347
    1SAPS  H10R   56   3.228   7.010   6.271 -1.7903  1.2726  1.8762
    1SAPS  H10S   57   3.378   7.016   6.196 -1.9674 -3.2543  0.7331
    1SAPS  C211   58   3.339   7.194   6.303  0.2822 -0.1603  0.2884
    1SAPS  H11R   59   3.343   7.228   6.407  0.4700 -1.3174  0.6726
    1SAPS  C212   60   3.368   7.275   6.201 -0.1745 -0.0429 -0.8959
    1SAPS  H12R   61   3.384   7.381   6.226 -0.7549 -0.4757  1.6036
    1SAPS  C213   62   3.370   7.245   6.056 -0.1524 -0.1472  0.4262
    1SAPS  H13R   63   3.290   7.306   6.006 -1.2756 -1.5056  0.5096
    1SAPS  H13S   64   3.336   7.142   6.035 -2.3706  0.8672 -1.4832
    1SAPS  C214   65   3.503   7.277   6.000  0.1260 -0.4818 -0.1006
    1SAPS  H14R   66   3.592   7.266   6.064  1.7299  0.5474 -2.0006
    1SAPS  C215   67   3.541   7.307   5.874  0.5916 -0.5013  0.7437
    1SAPS  H15R   68   3.648   7.319   5.850  0.1059  2.2863 -0.4322
    1SAPS  C216   69   3.440   7.311   5.762  0.2727  0.8613  0.0689
    1SAPS  H16R   70   3.357   7.244   5.793 -0.1095  0.6098 -1.4271
    1SAPS  H16S   71   3.473   7.264   5.666 -1.3921 -1.4719  0.5376
    1SAPS  C217   72   3.385   7.446   5.712 -0.1323 -0.8012  0.3663
    1SAPS  H17R   73   3.459   7.528   5.704 -3.4894  2.8544  3.2860
    1SAPS  H17S   74   3.315   7.497   5.781 -3.5096  1.6730 -4.2872
    1SAPS  C218   75   3.317   7.425   5.574  0.6680  0.1372  0.8525
    1SAPS  H18R   76   3.234   7.352   5.574  0.5828  0.2326  0.7580
    1SAPS  H18S   77   3.396   7.393   5.503 -0.0608 -0.7727  0.4316
    1SAPS  C219   78   3.262   7.555   5.514 -0.2411 -0.1099 -0.2286
    1SAPS  H19R   79   3.235   7.518   5.413  0.5867 -3.0202  0.5366
    1SAPS  H19S   80   3.341   7.632   5.500  1.8286 -2.1088 -0.1220
    1SAPS  C220   81   3.139   7.612   5.589 -0.1836 -0.1265  0.1449
    1SAPS  H20R   82   3.173   7.649   5.688 -2.2631  1.5338  0.3246
    1SAPS  H20S   83   3.059   7.538   5.612  0.7495 -0.9445  0.8496
    1SAPS  H20T   84   3.085   7.684   5.524  0.2353  0.5592  0.5349
    1SAPS   C33   85   3.266   7.558   6.946 -0.0146 -0.8423  0.1623
    1SAPS   H3X   86   3.264   7.659   6.993 -2.9199 -1.7189  2.1515
    1SAPS   H3Y   87   3.158   7.534   6.936  0.4229 -2.8624 -0.1862
    1SAPS   C34   88   3.329   7.556   6.808 -0.0533  0.3377  0.6069
    1SAPS   H4X   89   3.303   7.457   6.764  0.4431  1.2160 -1.8202
    1SAPS   H4Y   90   3.439   7.570   6.809 -0.1520  1.5399 -0.8380
    1SAPS   C35   91   3.265   7.670   6.721  0.1452  1.0809  0.1587
    1SAPS   H5X   92   3.300   7.764   6.770  1.4486  0.1665  1.0574
    1SAPS   H5Y   93   3.154   7.667   6.727  0.2029 -1.6481  1.2261
    1SAPS   C36   94   3.302   7.661   6.570 -0.2100  0.1736  0.2216
    1SAPS   H6X   95   3.275   7.556   6.546 -0.2788 -0.0479  1.2264
    1SAPS   H6Y   96   3.408   7.689   6.550  0.2025 -0.0406  1.9806
    1SAPS   C37   97   3.214   7.745   6.481  0.5190 -1.2387  0.3779
    1SAPS   H7X   98   3.200   7.849   6.516 -2.8767 -0.9710 -1.3405
    1SAPS   H7Y   99   3.110   7.705   6.479 -0.9158  2.0674 -2.3915
    1SAPS   C38  100   3.253   7.752   6.333 -0.1323 -0.0455  0.4510
    1SAPS   H8X  101   3.251   7.648   6.293  0.2636 -0.8489  2.3982
    1SAPS   H8Y  102   3.357   7.792   6.330 -0.7842  1.8030  1.2593
    1SAPS   C39  103   3.166   7.856   6.260  0.1068 -0.1823 -0.0600
    1SAPS   H9X  104   3.175   7.956   6.307 -1.0417  0.7444 -1.7237
    1SAPS   H9Y  105   3.057   7.833   6.265 -0.1339  0.6609 -1.0868
    1SAPS  C310  106   3.183   7.877   6.109  0.0333  0.2116 -0.1000
    1SAPS  H10X  107   3.150   7.784   6.059  1.2259  0.1245 -0.7547
    1SAPS  H10Y  108   3.292   7.892   6.090  0.3952 -0.7698  1.0408
    1SAPS  C311  109   3.108   7.999   6.061 -0.2994  0.3287  0.0299
    1SAPS  H11X  110   3.156   8.082   6.116 -0.6992  2.1058 -2.1693
    1SAPS  H11Y  111   3.001   7.995   6.091  0.0283  0.9544  1.3356
    1SAPS  C312  112   3.126   8.032   5.916 -0.0195 -1.1632 -0.2964
    1SAPS  H12X  113   3.097   7.951   5.846  0.3742 -1.5100 -0.0627
    1SAPS  H12Y  114   3.234   8.056   5.906 -0.3734 -0.0383 -1.7903
    1SAPS  C313  115   3.050   8.164   5.889 -0.5528  0.4090 -0.1666
    1SAPS  H13X  116   3.088   8.244   5.957  0.5803  0.0114 -0.3113
    1SAPS  H13Y  117   2.949   8.155   5.935 -0.3401  0.7957  0.3874
    1SAPS  C314  118   3.051   8.207   5.747 -0.0817  0.4050 -0.5313
    1SAPS  H14X  119   3.025   8.131   5.671  0.4824  1.0450 -1.3885
    1SAPS  H14Y  120   3.156   8.240   5.728  0.4386  0.0228  1.4097
    1SAPS  C315  121   2.972   8.336   5.738 -0.2090  0.8223  0.2096
    1SAPS  H15X  122   3.006   8.414   5.810 -1.6579  2.0143 -0.3277
    1SAPS  H15Y  123   2.868   8.312   5.771 -1.0044  1.7086 -1.4919
    1SAPS  C316  124   2.968   8.388   5.592  0.6671  0.0082 -0.1451
    1SAPS  H16X  125   2.922   8.316   5.521  2.2937  0.1944 -1.4536
    1SAPS  H16Y  126   3.072   8.390   5.553  0.6569  0.3430 -0.1572
    1SAPS  C317  127   2.911   8.527   5.569 -0.4554  0.0308  0.1679
    1SAPS  H17X  128   2.807   8.524   5.609 -0.4013 -0.2486  0.2956
    1SAPS  H17Y  129   2.908   8.552   5.461 -0.0352  1.3257  0.4437
    1SAPS  C318  130   2.993   8.631   5.637 -0.2143  0.0776 -0.5541
    1SAPS  H18X  131   3.096   8.637   5.595 -0.6088 -0.3764 -1.6130
    1SAPS  H18Y  132   2.998   8.605   5.745 -1.0984 -0.3418 -0.6103
    1SAPS  H18Z  133   2.940   8.729   5.634 -0.7982 -0.2549 -2.1120
    2SAPS     N  134   4.744   1.923   7.522 -0.4096  0.6542 -0.8221
    2SAPS   HN1  135   4.753   1.821   7.500 -3.4466  0.0541  0.3457
    2SAPS   HN2  136   4.657   1.929   7.578  0.1792 -0.2069  0.2133
    2SAPS   HN3  137   4.720   1.963   7.429 -0.6611  0.3356 -0.8983
    2SAPS   C12  138   4.854   1.990   7.579 -0.4096 -0.3207  0.2827
    2SAPS  H12A  139   4.892   2.045   7.494 -0.3496  0.3186  0.7199
    2SAPS   C13  140   4.814   2.098   7.677 -0.3134  0.4850 -0.2547
    2SAPS  O13A  141   4.694   2.132   7.693 -0.0764  0.3139 -0.2047
    2SAPS  O13B  142   4.902   2.173   7.727 -0.0553 -0.4534  0.2508
    2SAPS   C11  143   4.962   1.894   7.631 -0.2044 -0.3739 -0.0388
    2SAPS  H11A  144   4.905   1.827   7.699  0.3686 -0.5802  0.2407
    2SAPS  H11B  145   5.046   1.945   7.682 -0.5040  0.0990 -0.0210
    2SAPS     P  146   5.000   1.666   7.516 -0.0431 -0.4800  0.1306
    2SAPS   O13  147   5.059   1.594   7.626  0.2225  0.5554 -0.0050
    2SAPS   O14  148   4.854   1.645   7.496  0.1709 -0.3927 -0.2801
    2SAPS   O12  149   5.033   1.820   7.527 -0.1494 -0.3957 -0.3649
    2SAPS   O11  150   5.076   1.623   7.384 -0.0587 -0.2283 -0.0503
    2SAPS    C1  151   5.137   1.711   7.291  0.0201 -0.3431 -0.0492
    2SAPS    HA  152   5.162   1.810   7.335 -3.9174  0.3839  0.9038
    2SAPS    HB  153   5.223   1.668   7.235 -0.4445  0.4391 -1.4132
    2SAPS    C2  154   5.035   1.723   7.176 -0.1882 -0.6622 -0.1850
    2SAPS    HS  155   4.962   1.796   7.218  0.8415  1.0489 -1.2264
    2SAPS   O21  156   4.970   1.590   7.139  0.1743 -0.7726  0.0284
    2SAPS   C21  157   4.853   1.609   7.089 -0.6068 -0.0929  0.3231
    2SAPS   O22  158   4.800   1.721   7.090  0.1285 -0.1534 -0.1498
    2SAPS   C22  159   4.789   1.473   7.045 -0.1858 -0.1937 -0.0882
    2SAPS   H2R  160   4.850   1.450   6.954 -0.0598 -0.3991  0.0461
    2SAPS   H2S  161   4.810   1.397   7.123  2.3291  1.7114  1.2546
    2SAPS    C3  162   5.098   1.795   7.047  0.4205  1.2323  0.5459
    2SAPS    HX  163   5.145   1.893   7.071 -0.5474  1.6389  0.8387
    2SAPS    HY  164   5.010   1.821   6.983 -0.5912  0.2638  1.4869
    2SAPS   O31  165   5.191   1.710   6.975  0.2751 -0.5415 -0.0616
    2SAPS   C31  166   5.257   1.766   6.875 -0.2697 -0.8157  0.1797
    2SAPS   O32  167   5.245   1.881   6.835  0.0736  0.5349 -0.2913
    2SAPS   C32  168   5.358   1.669   6.820  0.5963  0.2897 -0.6569
    2SAPS   H2X  169   5.389   1.589   6.890 -1.7469 -0.4943 -0.4125
    2SAPS   H2Y  170   5.448   1.729   6.794  0.1992  1.7834  1.1929
    2SAPS   C23  171   4.641   1.489   7.008  0.1822 -0.3611  0.3182
    2SAPS   H3R  172   4.631   1.563   6.926 -0.5696  0.5070  1.1604
    2SAPS   H3S  173   4.587   1.529   7.097 -0.2289 -1.2129  0.4555
    2SAPS   C24  174   4.569   1.363   6.967  0.0136  0.2777 -0.2186
    2SAPS   H4R  175   4.589   1.284   7.043  0.9983  0.7945  0.0756
    2SAPS   H4S  176   4.626   1.340   6.875 -0.8918  1.0099 -0.9803
    2SAPS   C25  177   4.416   1.380   6.944  0.2001  0.5692  0.3317
    2SAPS   H5R  178   4.357   1.413   7.031 -0.1294 -1.2600  0.8442
    2SAPS   C26  179   4.347   1.347   6.832 -0.0987  0.3186 -0.2636
    2SAPS   H6R  180   4.242   1.373   6.818 -0.4674 -1.3296 -0.8442
    2SAPS   C27  181   4.406   1.296   6.701 -0.2551  0.4089  0.2093
    2SAPS   H7R  182   4.507   1.254   6.720 -1.8126 -3.5926  0.7802
    2SAPS   H7S  183   4.408   1.382   6.632  2.2649  1.1395  1.0690
    2SAPS   C28  184   4.340   1.171   6.627 -0.7958 -0.2506 -0.0283
    2SAPS   H8R  185   4.407   1.084   6.623  1.0214  1.0054  1.4680
    2SAPS   C29  186   4.215   1.163   6.580 -0.1969 -0.1719 -0.1792
    2SAPS   H9R  187   4.179   1.065   6.546 -0.3542 -0.6159  1.2099
    2SAPS  C210  188   4.108   1.259   6.579  0.5374  0.7367 -0.5647
    2SAPS  H10R  189   4.084   1.275   6.472 -0.4113  2.5509 -0.1184
    2SAPS  H10S  190   4.152   1.352   6.621  0.9292  0.2755  0.0604
    2SAPS  C211  191   3.985   1.219   6.659  0.7222  0.1479 -0.1082
    2SAPS  H11R  192   3.967   1.114   6.685 -1.3801  0.5980  0.4809
    2SAPS  C212  193   3.896   1.301   6.718 -0.6368  0.0019 -0.6555
    2SAPS  H12R  194   3.806   1.269   6.773 -1.4314  0.5613 -1.5859
    2SAPS  C213  195   3.892   1.450   6.694  0.1946 -0.2259  0.0369
    2SAPS  H13R  196   3.989   1.499   6.669  0.0856  0.2167  0.4580
    2SAPS  H13S  197   3.860   1.497   6.789  3.0745 -1.2512  1.6544
    2SAPS  C214  198   3.790   1.468   6.581  0.6421 -0.5051 -0.2013
    2SAPS  H14R  199   3.849   1.453   6.489  0.0803  0.3714 -0.7185
    2SAPS  C215  200   3.656   1.485   6.586  0.2753 -0.0277 -0.1948
    2SAPS  H15R  201   3.606   1.485   6.488  2.4904 -1.3839 -1.4128
    2SAPS  C216  202   3.573   1.515   6.706 -0.2403 -0.5068  0.1322
    2SAPS  H16R  203   3.547   1.622   6.717 -1.2450 -0.9717  3.2196
    2SAPS  H16S  204   3.639   1.487   6.792  1.0883 -0.3245 -0.7992
    2SAPS  C217  205   3.443   1.438   6.718  0.1195  0.2488  0.4751
    2SAPS  H17R  206   3.469   1.332   6.742  1.8301  0.8830  1.6451
    2SAPS  H17S  207   3.386   1.446   6.623  0.9730 -0.5035 -0.1114
    2SAPS  C218  208   3.348   1.474   6.845  0.3315 -0.7783  0.1229
    2SAPS  H18R  209   3.248   1.437   6.814 -1.1012  0.8139  2.5274
    2SAPS  H18S  210   3.340   1.584   6.862  0.9191 -0.4978 -1.2376
    2SAPS  C219  211   3.389   1.382   6.961 -0.2195 -0.3004 -0.1600
    2SAPS  H19R  212   3.500   1.382   6.964 -0.2027 -0.6209 -0.6759
    2SAPS  H19S  213   3.355   1.280   6.934 -2.1619 -0.8971  3.8058
    2SAPS  C220  214   3.322   1.417   7.092  0.1551 -0.0237 -0.0482
    2SAPS  H20R  215   3.329   1.521   7.130 -0.1047 -0.4850  1.3185
    2SAPS  H20S  216   3.364   1.356   7.174  1.1106 -2.7230 -2.3633
    2SAPS  H20T  217   3.217   1.385   7.079  0.7967 -1.5463 -2.1583
    2SAPS   C33  218   5.307   1.597   6.691  0.2669 -0.3085 -0.0885
    2SAPS   H3X  219   5.389   1.550   6.633  1.2914  1.0740  0.1780
    2SAPS   H3Y  220   5.277   1.679   6.622  0.1023 -0.2374  0.0671
    2SAPS   C34  221   5.188   1.502   6.719  0.3920  0.6119 -1.3263
    2SAPS   H4X  222   5.121   1.528   6.804 -0.4124 -1.1519 -1.3725
    2SAPS   H4Y  223   5.228   1.400   6.738 -1.1249 -0.0335 -1.4110
    2SAPS   C35  224   5.092   1.502   6.599 -0.6294 -0.4674  0.3119
    2SAPS   H5X  225   5.154   1.481   6.509 -0.8219  0.2499  0.0033
    2SAPS   H5Y  226   5.060   1.608   6.586  2.2019  0.6541  1.4620
    2SAPS   C36  227   4.967   1.423   6.622  0.3188 -0.0525 -0.0211
    2SAPS   H6X  228   4.890   1.466   6.555 -0.6449 -1.3112  0.2497
    2SAPS   H6Y  229   4.931   1.461   6.720 -3.2356  1.5093 -1.7375
    2SAPS   C37  230   4.984   1.274   6.614  0.1788  0.4773 -0.2820
    2SAPS   H7X  231   4.893   1.212   6.629  0.9174 -0.6330 -0.2435
    2SAPS   H7Y  232   5.061   1.246   6.689 -0.1927 -1.0639 -0.4340
    2SAPS   C38  233   5.037   1.225   6.477 -0.8325 -0.4858 -0.4990
    2SAPS   H8X  234   5.054   1.116   6.479 -0.7110 -0.4581  0.5264
    2SAPS   H8Y  235   5.138   1.268   6.459 -0.5952 -1.2663 -1.1207
    2SAPS   C39  236   4.951   1.270   6.353 -0.0221 -0.2368 -0.3641
    2SAPS   H9X  237   4.971   1.375   6.323 -0.2230 -0.4017 -1.0904
    2SAPS   H9Y  238   4.845   1.254   6.382 -0.4851  2.3773 -0.3776
    2SAPS  C310  239   4.973   1.190   6.221  0.3825  0.0432  0.2063
    2SAPS  H10X  240   4.993   1.085   6.252  2.5422  0.4280  0.2572
    2SAPS  H10Y  241   5.067   1.221   6.171 -0.7163  1.9380 -0.7826
    2SAPS  C311  242   4.856   1.202   6.121  0.5417  0.4182  0.1646
    2SAPS  H11X  243   4.853   1.305   6.079  0.0197 -0.8565 -3.2387
    2SAPS  H11Y  244   4.757   1.169   6.160 -0.1304  0.8617 -1.1012
    2SAPS  C312  245   4.896   1.110   5.999  0.6035 -0.0235 -0.3740
    2SAPS  H12X  246   4.926   1.009   6.034 -1.2571 -0.0929  1.1910
    2SAPS  H12Y  247   4.979   1.160   5.945  0.3523 -0.2560 -0.9887
    2SAPS  C313  248   4.776   1.085   5.898 -0.1876 -0.0203 -0.5310
    2SAPS  H13X  249   4.684   1.071   5.960 -1.2390 -0.9337 -2.2401
    2SAPS  H13Y  250   4.795   1.009   5.820  0.8159 -2.0401  1.5358
    2SAPS  C314  251   4.732   1.213   5.824  0.0491  0.2242  0.0688
    2SAPS  H14X  252   4.719   1.298   5.895  1.5096  0.3326  0.2385
    2SAPS  H14Y  253   4.636   1.197   5.771  0.3780  1.0706 -0.8178
    2SAPS  C315  254   4.828   1.236   5.704  0.7359 -1.0355  0.3905
    2SAPS  H15X  255   4.930   1.207   5.739  0.6188  0.9428  2.6714
    2SAPS  H15Y  256   4.826   1.346   5.688 -1.3025 -1.2120 -0.9569
    2SAPS  C316  257   4.779   1.160   5.581  0.8875  1.0270 -0.1666
    2SAPS  H16X  258   4.720   1.067   5.589  0.7170  0.9881 -1.6393
    2SAPS  H16Y  259   4.877   1.131   5.537 -0.2345  1.4088 -3.1394
    2SAPS  C317  260   4.728   1.257   5.477 -0.2373  0.0519  0.2020
    2SAPS  H17X  261   4.806   1.334   5.460 -0.8574  0.3122 -1.5919
    2SAPS  H17Y  262   4.635   1.301   5.518 -1.6891  0.8196 -3.5114
    2SAPS  C318  263   4.692   1.187   5.347  0.3931 -0.3836 -0.3320
    2SAPS  H18X  264   4.773   1.116   5.317 -1.6953 -3.6421  1.1521
    2SAPS  H18Y  265   4.663   1.262   5.270  1.3154  1.4320  1.0057
    2SAPS  H18Z  266   4.611   1.111   5.357 -2.3164  2.5340  2.0488
    3SAPS     N  267   4.494   0.743   7.633 -0.0282  0.0580  0.1987
    3SAPS   HN1  268   4.421   0.745   7.559 -0.3432 -0.4836  0.4884
    3SAPS   HN2  269   4.542   0.834   7.649  1.8211 -0.7665 -0.3890
    3SAPS   HN3  270   4.580   0.703   7.590  1.5883  4.6121 -1.5028
    3SAPS   C12  271   4.444   0.690   7.767  0.0219 -0.1779  0.3115
    3SAPS  H12A  272   4.532   0.679   7.829  0.3720  1.0972  0.0669
    3SAPS   C13  273   4.348   0.783   7.836 -0.4717  0.2346  0.0201
    3SAPS  O13A  274   4.347   0.899   7.791 -0.6269 -0.5869 -0.0816
    3SAPS  O13B  275   4.338   0.767   7.957 -0.2246 -0.0073 -0.2506
    3SAPS   C11  276   4.383   0.552   7.760  0.7489  0.0144 -0.3947
    3SAPS  H11A  277   4.359   0.516   7.863 -1.5169  2.2820 -0.0235
    3SAPS  H11B  278   4.461   0.496   7.704 -0.6251 -2.9799  0.4958
    3SAPS     P  279   4.162   0.443   7.680 -0.5660 -0.2242  0.3795
    3SAPS   O13  280   4.225   0.309   7.695  0.0446 -0.1373  0.0165
    3SAPS   O14  281   4.057   0.478   7.783  0.5031  0.2311 -0.2512
    3SAPS   O12  282   4.267   0.560   7.676 -0.9981 -0.3732  0.0995
    3SAPS   O11  283   4.093   0.465   7.540 -0.0222  0.2986  0.1544
    3SAPS    C1  284   4.011   0.584   7.526  0.6911 -0.0231  0.4873
    3SAPS    HA  285   3.913   0.580   7.579  0.6324  0.3621  0.4055
    3SAPS    HB  286   4.076   0.671   7.549  1.7247 -0.1150 -1.8098
    3SAPS    C2  287   3.975   0.595   7.379  0.0277 -0.3513 -0.6557
    3SAPS    HS  288   3.926   0.497   7.358 -1.5548  0.2952 -0.1557
    3SAPS   O21  289   4.101   0.627   7.315  0.2168  0.8575  0.1766
    3SAPS   C21  290   4.096   0.589   7.189 -0.4114 -0.4456  0.8462
    3SAPS   O22  291   4.018   0.513   7.137  0.1176  0.7486  0.2503
    3SAPS   C22  292   4.233   0.638   7.129 -0.5909  0.2038  0.1571
    3SAPS   H2R  293   4.230   0.748   7.145  1.2394  0.3390 -0.2743
    3SAPS   H2S  294   4.305   0.598   7.203  0.0292  1.0772  0.0395
    3SAPS    C3  295   3.870   0.705   7.357 -0.2991  0.2968 -0.0297
    3SAPS    HX  296   3.928   0.798   7.377  2.6228 -1.2299 -0.7884
    3SAPS    HY  297   3.783   0.701   7.426 -0.7607 -2.0255 -0.6728
    3SAPS   O31  298   3.818   0.708   7.226  0.2814  0.1704 -0.1218
    3SAPS   C31  299   3.727   0.620   7.205 -0.6864  0.5253 -0.1418
    3SAPS   O32  300   3.673   0.542   7.283  0.9130 -0.1493  0.2223
    3SAPS   C32  301   3.683   0.648   7.060  0.2049  0.7313  1.0667
    3SAPS   H2X  302   3.650   0.754   7.056 -0.3625  0.5201 -0.2542
    3SAPS   H2Y  303   3.598   0.578   7.045  0.4920  0.0052  2.5874
    3SAPS   C23  304   4.266   0.608   6.984  0.0975 -0.7756  0.2405
    3SAPS   H3R  305   4.215   0.512   6.961 -1.2281 -0.3191  1.1795
    3SAPS   H3S  306   4.375   0.591   6.968  0.2998  0.8085 -0.1974
    3SAPS   C24  307   4.221   0.725   6.886 -0.2156 -0.0583  0.5616
    3SAPS   H4R  308   4.113   0.741   6.910 -0.7500 -1.1977 -0.9052
    3SAPS   H4S  309   4.225   0.676   6.787 -0.3594 -1.4366  1.2169
    3SAPS   C25  310   4.292   0.859   6.876  0.7352  0.3115 -0.9041
    3SAPS   H5R  311   4.394   0.847   6.837  1.3880  2.2915 -0.0017
    3SAPS   C26  312   4.237   0.984   6.902 -0.3637 -0.5797 -0.3628
    3SAPS   H6R  313   4.309   1.067   6.895  0.1604 -0.9949  0.0756
    3SAPS   C27  314   4.101   1.028   6.950  0.1882 -0.0974  0.3509
    3SAPS   H7R  315   4.041   1.043   6.857 -1.4622  0.5086  1.4520
    3SAPS   H7S  316   4.122   1.130   6.990  1.7260 -0.2914  0.0808
    3SAPS   C28  317   4.003   0.960   7.037  0.6738  0.8451 -0.6727
    3SAPS   H8R  318   4.028   0.856   7.061  1.1836  0.4089 -2.8730
    3SAPS   C29  319   3.897   1.024   7.103 -0.8785  0.3715  0.6008
    3SAPS   H9R  320   3.822   0.972   7.164  0.0574 -0.7989  0.7975
    3SAPS  C210  321   3.861   1.170   7.080 -0.2663 -0.1101 -0.5337
    3SAPS  H10R  322   3.752   1.188   7.071 -0.6765 -0.6411  2.4083
    3SAPS  H10S  323   3.904   1.206   6.984 -2.3281 -0.3038 -1.5783
    3SAPS  C211  324   3.908   1.254   7.196  0.4244 -0.3011 -0.0853
    3SAPS  H11R  325   3.883   1.222   7.299  1.7918 -0.2925  0.2831
    3SAPS  C212  326   3.967   1.375   7.189  0.2645 -1.0452  0.0224
    3SAPS  H12R  327   3.990   1.424   7.285 -0.0779  2.4260 -1.5437
    3SAPS  C213  328   4.002   1.446   7.059 -0.5325 -0.3489  0.2947
    3SAPS  H13R  329   3.936   1.411   6.976 -0.5483  0.9120 -0.2540
    3SAPS  H13S  330   4.106   1.421   7.030 -1.1663  0.0439 -2.6394
    3SAPS  C214  331   3.998   1.598   7.060 -0.5538  0.2126  0.3846
    3SAPS  H14R  332   4.097   1.646   7.060 -0.9940  1.1417  1.1117
    3SAPS  C215  333   3.896   1.678   7.095 -0.4134 -0.0533  0.1829
    3SAPS  H15R  334   3.917   1.785   7.110  2.9499 -0.3221 -1.7337
    3SAPS  C216  335   3.752   1.630   7.110 -0.0121 -0.1736 -0.5724
    3SAPS  H16R  336   3.732   1.641   7.219  0.3986 -0.5743 -0.4553
    3SAPS  H16S  337   3.755   1.522   7.085  0.8313  0.0947 -1.6887
    3SAPS  C217  338   3.654   1.713   7.017 -0.1286 -0.1188 -0.1906
    3SAPS  H17R  339   3.570   1.646   6.989  0.1823 -1.0841  1.1202
    3SAPS  H17S  340   3.708   1.735   6.922  1.9466  0.4782  1.0670
    3SAPS  C218  341   3.606   1.842   7.085  0.1763 -0.1279 -0.1408
    3SAPS  H18R  342   3.690   1.914   7.087 -0.4528  0.6218  0.2812
    3SAPS  H18S  343   3.583   1.802   7.186 -0.0366 -1.5144 -0.7191
    3SAPS  C219  344   3.499   1.928   7.013 -0.3862 -0.4646 -0.1965
    3SAPS  H19R  345   3.402   1.876   6.996  0.1181 -1.0920 -1.3242
    3SAPS  H19S  346   3.475   2.018   7.073  1.7657 -0.5955  0.9588
    3SAPS  C220  347   3.542   1.964   6.863  0.4212 -0.2356 -0.0642
    3SAPS  H20R  348   3.649   1.993   6.849  1.2664 -3.6625 -1.6904
    3SAPS  H20S  349   3.478   2.037   6.809  0.4911 -0.2299 -0.1412
    3SAPS  H20T  350   3.536   1.875   6.797 -4.8462 -0.0539 -0.2367
    3SAPS   C33  351   3.793   0.631   6.962 -0.2756  0.1823 -0.1775
    3SAPS   H3X  352   3.829   0.527   6.971  0.4085  0.4473  0.2599
    3SAPS   H3Y  353   3.878   0.697   6.989  1.2450 -2.0773  0.8024
    3SAPS   C34  354   3.749   0.658   6.822  0.5901 -0.5839 -0.3460
    3SAPS   H4X  355   3.660   0.593   6.810  0.5052 -0.3630 -0.9484
    3SAPS   H4Y  356   3.819   0.615   6.747  0.1511  1.2753 -1.9078
    3SAPS   C35  357   3.728   0.813   6.790 -0.1638 -0.6143 -0.6781
    3SAPS   H5X  358   3.656   0.853   6.864  1.7299  0.9772  0.3963
    3SAPS   H5Y  359   3.818   0.872   6.819  1.0162 -2.7524  0.1888
    3SAPS   C36  360   3.662   0.842   6.656 -0.6802 -0.2551  1.0030
    3SAPS   H6X  361   3.574   0.775   6.649  0.4455 -1.5821 -2.8815
    3SAPS   H6Y  362   3.738   0.831   6.576 -0.0953  2.6927  1.0437
    3SAPS   C37  363   3.602   0.987   6.652  0.0189  0.6205  0.0270
    3SAPS   H7X  364   3.674   1.067   6.679 -0.0515  0.2102  1.5164
    3SAPS   H7Y  365   3.523   0.992   6.730  0.2302 -3.6343  0.7433
    3SAPS   C38  366   3.543   0.997   6.509 -0.8786 -0.2717  0.0978
    3SAPS   H8X  367   3.477   0.910   6.489  1.2442 -2.7071  2.7164
    3SAPS   H8Y  368   3.626   0.983   6.437 -0.3420 -2.7363  1.0768
    3SAPS   C39  369   3.481   1.136   6.466  0.6133 -0.3589  0.5558
    3SAPS   H9X  370   3.552   1.218   6.488 -0.1463  0.0748  1.4748
    3SAPS   H9Y  371   3.395   1.155   6.533  0.8634 -0.2163  0.8395
    3SAPS  C310  372   3.460   1.153   6.313  1.1550  0.1017 -0.5390
    3SAPS  H10X  373   3.409   1.065   6.268  3.1075 -1.0385 -0.6620
    3SAPS  H10Y  374   3.560   1.149   6.265 -0.3482  1.4302 -4.0725
    3SAPS  C311  375   3.397   1.295   6.285  0.2983 -0.3382 -0.4382
    3SAPS  H11X  376   3.476   1.368   6.311  1.1425 -1.2496 -0.3814
    3SAPS  H11Y  377   3.302   1.307   6.342 -0.1609 -1.1513 -1.0146
    3SAPS  C312  378   3.372   1.317   6.134 -0.2752  0.5797 -1.2582
    3SAPS  H12X  379   3.331   1.419   6.122 -2.0403  0.8380  4.1914
    3SAPS  H12Y  380   3.291   1.243   6.120  0.7642 -0.7508 -0.5269
    3SAPS  C313  381   3.485   1.295   6.043  0.2871  0.3697  0.3207
    3SAPS  H13X  382   3.517   1.190   6.027  2.6750  1.0336  0.3450
    3SAPS  H13Y  383   3.577   1.335   6.090  1.4896 -2.0400  0.1705
    3SAPS  C314  384   3.479   1.363   5.899  0.1015 -0.0083 -0.0377
    3SAPS  H14X  385   3.577   1.338   5.853  0.6448 -1.2364  1.6391
    3SAPS  H14Y  386   3.470   1.474   5.894 -0.3655 -0.0735 -0.7406
    3SAPS  C315  387   3.374   1.307   5.806 -0.1228 -0.2901 -0.2653
    3SAPS  H15X  388   3.283   1.334   5.863 -0.1076 -2.2759  0.7917
    3SAPS  H15Y  389   3.384   1.197   5.794 -0.3203 -0.3147 -0.1994
    3SAPS  C316  390   3.380   1.381   5.676  0.0481 -0.2344 -0.3270
    3SAPS  H16X  391   3.374   1.489   5.702  1.0309 -0.5558  1.4113
    3SAPS  H16Y  392   3.291   1.365   5.611  0.8376 -0.5172 -1.3766
    3SAPS  C317  393   3.510   1.365   5.588 -0.5814 -0.4788 -0.4868
    3SAPS  H17X  394   3.542   1.260   5.570  1.2787  0.5288 -4.1772
    3SAPS  H17Y  395   3.587   1.417   5.650 -1.9442  0.5257  0.4148
    3SAPS  C318  396   3.526   1.434   5.447 -0.2336  0.0930  0.0415
    3SAPS  H18X  397   3.454   1.391   5.375 -0.7020  0.1472  0.4719
    3SAPS  H18Y  398   3.630   1.419   5.412 -0.4227  1.3845 -1.1717
    3SAPS  H18Z  399   3.506   1.543   5.458  1.3469  0.5425 -1.2861
    4SAPS     N  400   3.239   6.443   7.695 -0.9529 -0.1272 -0.0706
    4SAPS   HN1  401   3.218   6.346   7.727  1.4118 -0.3487  0.9839
    4SAPS   HN2  402   3.243   6.521   7.764 -2.2087 -1.3822  1.5116
    4SAPS   HN3  403   3.167   6.459   7.622 -2.6906  1.1252  1.7904
    4SAPS   C12  404   3.377   6.448   7.627 -0.2580 -0.5702  0.9158
    4SAPS  H12A  405   3.383   6.544   7.578 -0.0323 -0.2007  1.6513
    4SAPS   C13  406   3.501   6.431   7.709 -0.1568 -0.2812  1.0184
    4SAPS  O13A  407   3.491   6.433   7.834 -0.3116 -0.6895  0.0215
    4SAPS  O13B  408   3.616   6.444   7.654 -0.2460  0.3948  0.0632
    4SAPS   C11  409   3.384   6.349   7.515  0.0676  0.1298 -0.2843
    4SAPS  H11A  410   3.478   6.352   7.456 -1.3132  1.0393 -2.5676
    4SAPS  H11B  411   3.307   6.381   7.442  3.5354  1.1895 -3.8704
    4SAPS     P  412   3.420   6.088   7.499 -0.1708  0.5702  0.0941
    4SAPS   O13  413   3.562   6.091   7.517  0.1836  0.1270 -0.1683
    4SAPS   O14  414   3.341   5.970   7.553  0.4515  0.5838 -0.0977
    4SAPS   O12  415   3.363   6.217   7.560  0.1202 -0.3128  0.2327
    4SAPS   O11  416   3.389   6.104   7.349 -0.5337 -0.1971 -0.5475
    4SAPS    C1  417   3.258   6.061   7.307 -0.1220  0.1183 -0.0078
    4SAPS    HA  418   3.239   5.951   7.306 -3.3753  0.5729  0.4774
    4SAPS    HB  419   3.177   6.090   7.377 -0.3000  0.5546 -0.3907
    4SAPS    C2  420   3.223   6.103   7.159 -0.1804  0.4576 -0.1772
    4SAPS    HS  421   3.143   6.033   7.127 -0.9839  1.1691  0.2309
    4SAPS   O21  422   3.334   6.092   7.072  0.0892 -0.1029 -0.1667
    4SAPS   C21  423   3.379   5.974   7.040 -0.9564  0.0087 -0.4061
    4SAPS   O22  424   3.364   5.874   7.106 -0.1145 -0.0666  0.2303
    4SAPS   C22  425   3.436   5.984   6.902  0.1686  0.1473 -0.0163
    4SAPS   H2R  426   3.392   5.903   6.841  0.0701  0.6215 -0.5815
    4SAPS   H2S  427   3.413   6.084   6.859 -2.4475  0.2820  1.4451
    4SAPS    C3  428   3.154   6.233   7.135 -0.3446 -0.8773  0.2906
    4SAPS    HX  429   3.219   6.313   7.177 -0.3066  0.0631 -1.4496
    4SAPS    HY  430   3.060   6.235   7.194 -1.4126 -4.4173 -1.0477
    4SAPS   O31  431   3.120   6.257   6.998 -0.5937 -0.1871  0.6969
    4SAPS   C31  432   3.211   6.316   6.920 -0.5510 -0.1043 -0.2199
    4SAPS   O32  433   3.316   6.370   6.958 -0.2970  0.4873  0.6043
    4SAPS   C32  434   3.167   6.308   6.770 -0.0303  0.3528 -0.6169
    4SAPS   H2X  435   3.064   6.348   6.775  0.2734  1.1892 -0.8464
    4SAPS   H2Y  436   3.169   6.202   6.735 -0.1540  0.4528 -0.9324
    4SAPS   C23  437   3.586   5.965   6.905 -0.5922 -0.2290 -1.2169
    4SAPS   H3R  438   3.608   5.857   6.914  3.1217  0.3311 -1.9233
    4SAPS   H3S  439   3.639   6.023   6.984 -2.3241 -1.2143  0.7389
    4SAPS   C24  440   3.657   6.007   6.776  0.6588  0.7454 -0.2324
    4SAPS   H4R  441   3.612   5.952   6.691 -0.7513 -2.4712  2.4006
    4SAPS   H4S  442   3.766   5.985   6.787  0.8414  0.8517 -1.6511
    4SAPS   C25  443   3.649   6.159   6.759 -0.8431  0.1721 -0.5800
    4SAPS   H5R  444   3.673   6.211   6.853  0.3368 -1.8431  0.2871
    4SAPS   C26  445   3.625   6.225   6.648  0.4382 -0.6949  0.0519
    4SAPS   H6R  446   3.617   6.334   6.647 -0.7220 -0.7726 -0.3687
    4SAPS   C27  447   3.577   6.158   6.520  0.0274 -0.7511 -0.0654
    4SAPS   H7R  448   3.518   6.227   6.457  2.1318 -0.7473 -2.1748
    4SAPS   H7S  449   3.522   6.064   6.545  2.5241 -1.5614  3.1717
    4SAPS   C28  450   3.690   6.107   6.436  0.5800 -0.4764  0.7371
    4SAPS   H8R  451   3.778   6.060   6.483  1.4418 -1.1564 -1.4310
    4SAPS   C29  452   3.695   6.127   6.306  0.2643  0.2994  0.3225
    4SAPS   H9R  453   3.791   6.113   6.255  1.1523 -2.0427  2.4359
    4SAPS  C210  454   3.587   6.190   6.215 -0.4707 -0.2471  0.1589
    4SAPS  H10R  455   3.560   6.295   6.238  0.3137 -0.4643  2.2618
    4SAPS  H10S  456   3.496   6.132   6.244  0.8716 -0.9348  3.4518
    4SAPS  C211  457   3.622   6.165   6.067  0.2738  0.2450  0.3379
    4SAPS  H11R  458   3.686   6.078   6.047 -0.2891 -0.0663 -0.1476
    4SAPS  C212  459   3.586   6.245   5.961 -0.3808  0.6437  0.1168
    4SAPS  H12R  460   3.616   6.222   5.858 -2.7921  2.7668 -1.1897
    4SAPS  C213  461   3.505   6.375   5.979  0.0301 -0.2086  0.2614
    4SAPS  H13R  462   3.495   6.406   6.086  5.1779  2.3774  0.3250
    4SAPS  H13S  463   3.402   6.365   5.941  0.6374  3.6828 -3.1021
    4SAPS  C214  464   3.575   6.487   5.903  0.2543 -0.3361  0.4186
    4SAPS  H14R  465   3.639   6.547   5.969 -0.5273 -1.3341  2.1478
    4SAPS  C215  466   3.553   6.529   5.779 -0.3574  0.0706  0.5618
    4SAPS  H15R  467   3.601   6.623   5.746 -0.9555  0.1796 -0.0124
    4SAPS  C216  468   3.457   6.489   5.678 -0.0220  0.3910  0.1003
    4SAPS  H16R  469   3.397   6.572   5.634 -2.8539 -1.4561  0.1925
    4SAPS  H16S  470   3.379   6.428   5.729 -1.0818  0.9805 -0.7502
    4SAPS  C217  471   3.495   6.402   5.550  0.3915 -0.3595 -0.0607
    4SAPS  H17R  472   3.544   6.312   5.594  0.4914 -0.1156  0.3321
    4SAPS  H17S  473   3.565   6.465   5.491 -1.7845  3.0465  0.7531
    4SAPS  C218  474   3.372   6.356   5.477 -0.2983  0.7245 -0.0606
    4SAPS  H18R  475   3.321   6.444   5.432  1.3736  1.1744 -1.1693
    4SAPS  H18S  476   3.300   6.305   5.544  0.0605 -1.5997 -1.3344
    4SAPS  C219  477   3.408   6.259   5.364 -0.8797  0.3573 -0.0230
    4SAPS  H19R  478   3.481   6.187   5.407 -0.1889  2.1079  1.8678
    4SAPS  H19S  479   3.454   6.320   5.284 -0.5582  0.3927  0.1864
    4SAPS  C220  480   3.285   6.179   5.319 -0.6830  0.4292 -0.1301
    4SAPS  H20R  481   3.236   6.111   5.391  0.9029  0.4045  0.9832
    4SAPS  H20S  482   3.307   6.110   5.235 -0.2260  0.3350  0.0630
    4SAPS  H20T  483   3.213   6.251   5.276 -0.8376 -0.5218 -1.5405
    4SAPS   C33  484   3.263   6.389   6.684 -0.1390 -0.4921 -0.1848
    4SAPS   H3X  485   3.360   6.336   6.692  1.4187  2.4763  4.5107
    4SAPS   H3Y  486   3.270   6.494   6.719 -0.9154 -0.8684  1.2021
    4SAPS   C34  487   3.213   6.394   6.542  0.5215  1.1984 -0.3806
    4SAPS   H4X  488   3.110   6.433   6.541  0.2419  0.5280 -2.2891
    4SAPS   H4Y  489   3.206   6.291   6.501  1.3052  0.8022  0.4407
    4SAPS   C35  490   3.288   6.494   6.455  0.3281  0.6102 -0.5619
    4SAPS   H5X  491   3.378   6.444   6.413 -0.2115 -1.2709  0.4012
    4SAPS   H5Y  492   3.330   6.569   6.525  0.6855 -0.9236  0.9125
    4SAPS   C36  493   3.202   6.553   6.338  0.3564  0.3346  0.1027
    4SAPS   H6X  494   3.113   6.610   6.375 -1.7770 -1.2900 -2.1708
    4SAPS   H6Y  495   3.157   6.464   6.289  1.6557  0.0078 -0.5322
    4SAPS   C37  496   3.292   6.638   6.249  0.6646  0.0053 -0.4664
    4SAPS   H7X  497   3.372   6.567   6.217  0.1970  0.0307 -1.7751
    4SAPS   H7Y  498   3.317   6.730   6.305 -2.4274  0.5737  0.1439
    4SAPS   C38  499   3.219   6.677   6.119  0.5440 -0.1947  0.4285
    4SAPS   H8X  500   3.131   6.742   6.141  0.3735  0.3356 -1.5740
    4SAPS   H8Y  501   3.186   6.583   6.070  0.0973 -0.1871  0.7079
    4SAPS   C39  502   3.312   6.760   6.023 -0.2611  0.3579 -0.0822
    4SAPS   H9X  503   3.396   6.690   6.005  0.2078  1.0203 -0.5290
    4SAPS   H9Y  504   3.357   6.852   6.067 -1.7226  1.3838 -0.6673
    4SAPS  C310  505   3.231   6.802   5.896 -0.5964 -0.6228  0.1881
    4SAPS  H10X  506   3.144   6.860   5.934 -0.5304 -0.7041  0.4716
    4SAPS  H10Y  507   3.200   6.703   5.858  0.4620 -2.0909  2.8086
    4SAPS  C311  508   3.303   6.890   5.789 -0.1184  0.1025  0.6873
    4SAPS  H11X  509   3.410   6.860   5.794 -0.3029 -0.3816  2.0104
    4SAPS  H11Y  510   3.294   6.992   5.832  0.2302  1.4524 -2.2073
    4SAPS  C312  511   3.244   6.867   5.644  0.0127 -0.0413 -0.1050
    4SAPS  H12X  512   3.137   6.885   5.668  0.4344  0.8960  1.1746
    4SAPS  H12Y  513   3.247   6.759   5.618  2.9659  0.6122 -3.1831
    4SAPS  C313  514   3.307   6.947   5.535  0.6453 -0.2712 -0.3217
    4SAPS  H13X  515   3.408   6.901   5.531 -0.2330 -2.3514  0.3371
    4SAPS  H13Y  516   3.323   7.051   5.571 -0.4087  0.4578 -1.8732
    4SAPS  C314  517   3.234   6.942   5.399  0.0405 -1.3397  0.7307
    4SAPS  H14X  518   3.258   6.842   5.356  1.8749  0.1532 -2.0092
    4SAPS  H14Y  519   3.276   7.009   5.322  1.8216 -2.1632  0.9306
    4SAPS  C315  520   3.079   6.979   5.392 -0.1960 -0.5421 -0.1575
    4SAPS  H15X  521   3.059   7.084   5.422 -0.7311 -0.5812 -0.3749
    4SAPS  H15Y  522   3.026   6.917   5.468 -1.1011  0.2672 -0.1121
    4SAPS  C316  523   3.021   6.943   5.254 -0.1865  0.1783 -0.1717
    4SAPS  H16X  524   3.037   6.835   5.232 -0.8231  0.1083 -0.3023
    4SAPS  H16Y  525   3.067   7.007   5.176  0.0978  2.8095  1.9890
    4SAPS  C317  526   2.872   6.969   5.245  0.0792  0.1641 -0.7225
    4SAPS  H17X  527   2.822   6.912   5.325 -0.9470  0.0217 -1.4401
    4SAPS  H17Y  528   2.826   6.935   5.150  0.0624 -0.1053 -0.6177
    4SAPS  C318  529   2.848   7.112   5.251 -0.1528 -0.1601 -0.0718
    4SAPS  H18X  530   2.924   7.166   5.190  1.9100 -2.7529  0.0427
    4SAPS  H18Y  531   2.858   7.147   5.356  2.0883 -1.2908  0.1382
    4SAPS  H18Z  532   2.747   7.133   5.208 -1.2375 -1.4224  1.7478
    5SAPS     N  533   6.064   7.043   7.285  0.1097 -0.1265 -0.0110
    5SAPS   HN1  534   6.142   7.109   7.305 -0.7588  0.7605  0.5199
    5SAPS   HN2  535   6.083   6.976   7.208  1.1452 -2.7803  2.3765
    5SAPS   HN3  536   5.987   7.112   7.278  0.0590  0.1125  2.2259
    5SAPS   C12  537   6.042   6.971   7.407 -0.0299 -0.0603 -0.4111
    5SAPS  H12A  538   6.008   7.038   7.484  1.0978 -1.1126  1.0620
    5SAPS   C13  539   5.938   6.857   7.404  0.4411 -0.9748  0.1693
    5SAPS  O13A  540   5.881   6.823   7.293  0.0099  0.1747 -0.4513
    5SAPS  O13B  541   5.898   6.811   7.511 -0.5728  0.5092  0.2906
    5SAPS   C11  542   6.165   6.896   7.467 -0.3939  0.6555 -0.1207
    5SAPS  H11A  543   6.201   6.815   7.400 -2.3138 -0.6060  0.2885
    5SAPS  H11B  544   6.141   6.857   7.568  0.0523 -1.5939 -0.8184
    5SAPS     P  545   6.419   6.931   7.526  0.0069  0.3323  0.0768
    5SAPS   O13  546   6.514   7.051   7.533  0.6519  0.5977 -0.8639
    5SAPS   O14  547   6.405   6.851   7.649 -0.5555  0.1814 -0.1937
    5SAPS   O12  548   6.270   6.983   7.486 -0.7853  0.2748  0.3204
    5SAPS   O11  549   6.468   6.847   7.399  0.2959  0.2916 -0.4499
    5SAPS    C1  550   6.479   6.913   7.274  0.4684  0.1517  0.1340
    5SAPS    HA  551   6.382   6.911   7.219  0.6727 -0.0179 -0.2312
    5SAPS    HB  552   6.520   7.014   7.292 -3.3705  1.7200  0.8903
    5SAPS    C2  553   6.585   6.839   7.183  0.0122  0.0270  0.1955
    5SAPS    HS  554   6.664   6.811   7.256 -1.1631 -2.9105  0.5057
    5SAPS   O21  555   6.642   6.937   7.090  0.6237 -0.1459 -0.0790
    5SAPS   C21  556   6.752   6.901   7.021 -0.9221 -0.1387 -0.0267
    5SAPS   O22  557   6.824   6.808   7.039  0.1632  0.5013  0.1572
    5SAPS   C22  558   6.779   7.002   6.918 -0.4942 -0.0615 -0.3357
    5SAPS   H2R  559   6.694   7.065   6.888  0.4496 -0.1976 -3.6989
    5SAPS   H2S  560   6.854   7.072   6.960  1.0709 -0.8063 -1.7608
    5SAPS    C3  561   6.536   6.716   7.111 -0.2986  0.5410 -0.2288
    5SAPS    HX  562   6.473   6.659   7.182 -0.5402 -1.1226 -1.7050
    5SAPS    HY  563   6.629   6.665   7.079 -0.0740  0.4245  0.6032
    5SAPS   O31  564   6.460   6.746   6.992 -0.5143  0.1282  0.8948
    5SAPS   C31  565   6.367   6.666   6.954  0.3510 -0.1741 -0.4308
    5SAPS   O32  566   6.321   6.574   7.016 -0.0814  0.3578 -0.1303
    5SAPS   C32  567   6.330   6.710   6.813 -0.2035  0.1239 -0.0657
    5SAPS   H2X  568   6.424   6.724   6.756  0.7843 -1.5151  1.0912
    5SAPS   H2Y  569   6.272   6.805   6.813  1.3822  1.1791  2.0735
    5SAPS   C23  570   6.833   6.935   6.788 -0.3826 -0.1881  0.8346
    5SAPS   H3R  571   6.753   6.895   6.722  0.0722 -0.6595  0.5620
    5SAPS   H3S  572   6.893   6.845   6.815  0.6285  0.6969  1.6313
    5SAPS   C24  573   6.929   7.032   6.712  0.1045  0.0531 -0.1629
    5SAPS   H4R  574   6.983   6.982   6.630 -0.8037 -0.1658 -0.6448
    5SAPS   H4S  575   7.000   7.060   6.793  0.6491 -0.4533 -0.4659
    5SAPS   C25  576   6.852   7.154   6.674  0.5557 -0.3877 -0.0340
    5SAPS   H5R  577   6.812   7.217   6.755 -0.3770  1.3347 -1.7274
    5SAPS   C26  578   6.822   7.190   6.547 -0.0348 -0.0803  0.4310
    5SAPS   H6R  579   6.761   7.280   6.528  1.4173  0.7299 -0.5871
    5SAPS   C27  580   6.860   7.111   6.424  0.5349  0.3274 -0.7508
    5SAPS   H7R  581   6.876   7.005   6.452  1.5365  0.4334 -0.8709
    5SAPS   H7S  582   6.949   7.149   6.370  1.2079  0.1809  0.2246
    5SAPS   C28  583   6.743   7.099   6.330 -0.5397  0.5135  0.2611
    5SAPS   H8R  584   6.638   7.089   6.361 -0.6468 -1.0629 -0.4913
    5SAPS   C29  585   6.752   7.088   6.197 -0.3478 -0.9099  0.1804
    5SAPS   H9R  586   6.662   7.073   6.136  1.8117  0.0258 -3.6059
    5SAPS  C210  587   6.874   7.072   6.113  0.1092 -0.1702  0.0771
    5SAPS  H10R  588   6.895   6.966   6.085 -1.8175  0.0858 -2.7410
    5SAPS  H10S  589   6.964   7.102   6.169  0.6338  1.1599 -1.4038
    5SAPS  C211  590   6.854   7.141   5.979 -0.4601 -0.7708 -0.3021
    5SAPS  H11R  591   6.865   7.249   5.995 -1.3555 -0.7310  0.1065
    5SAPS  C212  592   6.838   7.097   5.852 -0.3452  0.5521  0.4456
    5SAPS  H12R  593   6.827   7.171   5.772  0.0625 -0.9033 -1.0084
    5SAPS  C213  594   6.836   6.952   5.808 -0.0495 -0.1399 -0.5608
    5SAPS  H13R  595   6.753   6.936   5.736 -0.7673 -0.8430  0.4030
    5SAPS  H13S  596   6.824   6.886   5.896 -1.3827 -1.3436 -1.6016
    5SAPS  C214  597   6.968   6.925   5.735  0.1858  0.8756  0.0419
    5SAPS  H14R  598   7.004   7.010   5.676 -1.0477  1.6267  0.3339
    5SAPS  C215  599   7.046   6.811   5.746 -0.0709  0.4286 -0.0598
    5SAPS  H15R  600   7.135   6.807   5.682 -0.3069  1.0128 -0.4396
    5SAPS  C216  601   7.023   6.688   5.824  0.2115  0.6849  0.4761
    5SAPS  H16R  602   7.056   6.606   5.758  0.8115  1.0288  0.3428
    5SAPS  H16S  603   6.917   6.666   5.850  0.1418  0.4451 -0.0061
    5SAPS  C217  604   7.099   6.686   5.948  0.6876  0.3217 -0.5297
    5SAPS  H17R  605   7.060   6.766   6.014 -1.6415  1.0696 -2.6482
    5SAPS  H17S  606   7.208   6.707   5.936  0.9556 -0.1204  0.9736
    5SAPS  C218  607   7.086   6.553   6.032 -0.1100 -0.2566 -0.0164
    5SAPS  H18R  608   7.106   6.471   5.959 -2.0328  0.3222 -1.2919
    5SAPS  H18S  609   6.981   6.540   6.066  0.2453 -1.3479  0.7204
    5SAPS  C219  610   7.180   6.555   6.159  0.9079  0.1859 -0.5998
    5SAPS  H19R  611   7.284   6.588   6.136  0.8067  0.4970 -0.6134
    5SAPS  H19S  612   7.173   6.454   6.206 -0.3324  0.3987 -0.2847
    5SAPS  C220  613   7.134   6.656   6.267 -0.3221 -0.3059  0.3523
    5SAPS  H20R  614   7.126   6.761   6.231 -3.5959 -0.4856  0.2032
    5SAPS  H20S  615   7.208   6.654   6.350 -1.1716  1.8710  1.2281
    5SAPS  H20T  616   7.036   6.627   6.311 -0.2309 -2.2156 -0.5822
    5SAPS   C33  617   6.260   6.606   6.718 -0.0301 -0.3034  0.1086
    5SAPS   H3X  618   6.166   6.571   6.766 -0.3596 -0.3343 -0.5462
    5SAPS   H3Y  619   6.331   6.522   6.703 -3.3894 -3.1934 -1.0743
    5SAPS   C34  620   6.228   6.665   6.575  0.7800 -0.5848  0.0166
    5SAPS   H4X  621   6.326   6.690   6.529  1.0311  0.1674  0.9197
    5SAPS   H4Y  622   6.171   6.759   6.589 -2.0059 -2.4456  2.2283
    5SAPS   C35  623   6.164   6.561   6.481  0.0325 -0.0873 -0.6420
    5SAPS   H5X  624   6.061   6.536   6.515 -0.2384  0.9522 -0.6653
    5SAPS   H5Y  625   6.230   6.472   6.485 -1.0165 -0.8961 -1.0086
    5SAPS   C36  626   6.160   6.600   6.340  0.0859 -0.5630  0.4256
    5SAPS   H6X  627   6.134   6.508   6.282  0.7094  0.2022 -1.1207
    5SAPS   H6Y  628   6.260   6.632   6.302 -1.7694  3.9138 -1.3457
    5SAPS   C37  629   6.072   6.717   6.303  0.7311  0.1323 -0.0092
    5SAPS   H7X  630   6.100   6.804   6.366  1.4784  1.8591 -2.5427
    5SAPS   H7Y  631   5.972   6.688   6.341  0.3448  0.9968 -0.3273
    5SAPS   C38  632   6.063   6.732   6.156 -0.0547 -0.9923 -0.1443
    5SAPS   H8X  633   6.020   6.642   6.108  0.0147 -0.7867 -0.5926
    5SAPS   H8Y  634   6.168   6.744   6.121  0.9429  0.3189  2.9083
    5SAPS   C39  635   5.981   6.852   6.100  0.4209  0.0464  0.0139
    5SAPS   H9X  636   6.017   6.943   6.153  3.5604 -0.5424 -0.9151
    5SAPS   H9Y  637   5.871   6.834   6.104  0.3685  0.5447  1.5067
    5SAPS  C310  638   6.004   6.872   5.944  0.0025 -0.2348 -0.1759
    5SAPS  H10X  639   6.112   6.869   5.916 -0.5136 -0.8662 -2.2072
    5SAPS  H10Y  640   5.962   6.971   5.914 -1.1221 -0.8745 -0.7502
    5SAPS  C311  641   5.935   6.766   5.861 -0.4484 -0.5727 -0.3490
    5SAPS  H11X  642   5.825   6.775   5.869 -0.3678 -0.3651  0.8439
    5SAPS  H11Y  643   5.978   6.670   5.898  1.8879  0.1810 -0.9348
    5SAPS  C312  644   5.972   6.779   5.713 -0.8119 -0.2586 -0.1813
    5SAPS  H12X  645   5.941   6.691   5.654 -0.6483  0.7570 -1.8488
    5SAPS  H12Y  646   6.082   6.781   5.699 -0.8742 -0.1071 -0.6726
    5SAPS  C313  647   5.910   6.903   5.652  0.2189 -0.9687  0.3374
    5SAPS  H13X  648   5.956   6.984   5.712  2.9428 -3.1807  1.4649
    5SAPS  H13Y  649   5.800   6.906   5.668  0.1764  2.2554  0.1257
    5SAPS  C314  650   5.948   6.910   5.501  0.4741  0.8730  0.3684
    5SAPS  H14X  651   5.887   6.827   5.459 -1.1241  2.0779  0.2445
    5SAPS  H14Y  652   6.051   6.876   5.475 -0.1616 -0.4944 -0.5121
    5SAPS  C315  653   5.902   7.035   5.424 -0.1209 -0.2944 -0.1665
    5SAPS  H15X  654   5.905   7.123   5.491 -0.9412 -1.0882  0.9697
    5SAPS  H15Y  655   5.792   7.028   5.409 -0.9741  1.4912  3.9393
    5SAPS  C316  656   5.970   7.045   5.286 -0.7889 -0.3345  0.9315
    5SAPS  H16X  657   5.926   6.977   5.210  2.8668 -0.3391 -1.4207
    5SAPS  H16Y  658   6.079   7.023   5.287 -0.2433  2.0782  0.4569
    5SAPS  C317  659   5.955   7.190   5.234 -0.0815  0.4219 -0.5570
    5SAPS  H17X  660   6.001   7.263   5.304  0.1985 -0.1025 -0.1930
    5SAPS  H17Y  661   5.845   7.207   5.239 -0.5811 -2.6492  1.8303
    5SAPS  C318  662   5.992   7.202   5.085  0.0856 -0.9391  0.1188
    5SAPS  H18X  663   5.937   7.119   5.036 -0.9965  0.6097 -1.3859
    5SAPS  H18Y  664   6.102   7.205   5.074  0.0778  2.7423 -0.1463
    5SAPS  H18Z  665   5.963   7.299   5.039 -0.5619 -0.7070  0.9945
    6SAPS     N  666   4.958   2.369   7.479 -0.4105  0.4307 -0.4716
    6SAPS   HN1  667   4.978   2.319   7.568  0.2107 -1.2951 -1.5274
    6SAPS   HN2  668   4.928   2.303   7.404  0.2197  2.0250 -2.1938
    6SAPS   HN3  669   5.050   2.407   7.450 -1.2223  2.9853  0.0923
    6SAPS   C12  670   4.871   2.480   7.496 -0.2697 -0.0823  0.2073
    6SAPS  H12A  671   4.777   2.435   7.524 -0.1974  1.3820  3.2715
    6SAPS   C13  672   4.902   2.585   7.605  0.4051 -0.3383  0.0918
    6SAPS  O13A  673   5.014   2.582   7.667 -0.0901 -0.0150 -0.3106
    6SAPS  O13B  674   4.822   2.681   7.623 -0.2035  0.3759  0.0431
    6SAPS   C11  675   4.860   2.550   7.355  0.3103 -0.2613  0.3807
    6SAPS  H11A  676   4.781   2.627   7.363 -0.2623 -0.4137 -2.6872
    6SAPS  H11B  677   4.826   2.480   7.276  0.0801 -1.4786  1.5137
    6SAPS     P  678   4.985   2.713   7.194  0.0618  0.1152  0.1654
    6SAPS   O13  679   4.896   2.827   7.229 -0.2214  0.3373 -0.1281
    6SAPS   O14  680   5.126   2.752   7.168 -0.0234 -0.1664  0.2775
    6SAPS   O12  681   4.987   2.603   7.313 -0.4616 -0.6462 -0.0460
    6SAPS   O11  682   4.913   2.630   7.072 -0.2767  0.9180 -0.2618
    6SAPS    C1  683   4.974   2.518   7.003 -0.0766 -0.8821 -0.1480
    6SAPS    HA  684   5.051   2.561   6.937 -1.7613 -0.2853 -1.8233
    6SAPS    HB  685   5.038   2.457   7.070  0.4626 -0.9567 -0.7177
    6SAPS    C2  686   4.882   2.438   6.905 -0.1626 -1.1910 -0.2679
    6SAPS    HS  687   4.949   2.402   6.824  3.1641 -0.0199  1.7508
    6SAPS   O21  688   4.779   2.529   6.855 -0.1427 -0.5323  0.4198
    6SAPS   C21  689   4.808   2.623   6.761 -0.6485  0.3966 -0.7471
    6SAPS   O22  690   4.923   2.644   6.721  0.0822 -0.0059 -0.7107
    6SAPS   C22  691   4.683   2.659   6.684 -0.0751  0.6419  0.2910
    6SAPS   H2R  692   4.592   2.638   6.745  0.3751 -1.9074  0.1809
    6SAPS   H2S  693   4.694   2.766   6.654  1.4627  0.2033 -0.7915
    6SAPS    C3  694   4.814   2.315   6.974 -0.0613  0.0102  0.1934
    6SAPS    HX  695   4.773   2.358   7.068 -0.2006  3.7707 -1.3878
    6SAPS    HY  696   4.901   2.252   7.000 -0.5679 -0.7941 -0.0259
    6SAPS   O31  697   4.721   2.247   6.895 -0.2230 -0.0540  0.4479
    6SAPS   C31  698   4.663   2.142   6.954  0.4088 -0.5519 -0.0832
    6SAPS   O32  699   4.678   2.108   7.069  0.1140  0.4694  0.0090
    6SAPS   C32  700   4.576   2.077   6.847  0.2526  0.2560 -0.1695
    6SAPS   H2X  701   4.643   2.063   6.759  1.3704 -0.2512  0.7345
    6SAPS   H2Y  702   4.500   2.150   6.815  1.5495  1.6093 -0.2909
    6SAPS   C23  703   4.671   2.568   6.548 -0.9779 -0.4465 -0.6274
    6SAPS   H3R  704   4.725   2.627   6.470  0.0948  0.1710  0.5415
    6SAPS   H3S  705   4.561   2.570   6.531 -0.8581  1.3584 -1.4041
    6SAPS   C24  706   4.721   2.428   6.561 -0.3905 -0.0894 -0.4694
    6SAPS   H4R  707   4.675   2.386   6.653 -1.4013  0.5515 -0.6696
    6SAPS   H4S  708   4.828   2.434   6.592 -0.4570 -1.7630  0.2309
    6SAPS   C25  709   4.680   2.346   6.446  0.1841 -0.2257 -0.2705
    6SAPS   H5R  710   4.621   2.387   6.363 -0.1875 -1.1047 -0.4583
    6SAPS   C26  711   4.714   2.216   6.437  0.3796 -0.1524  0.3516
    6SAPS   H6R  712   4.678   2.161   6.348  1.6232  0.5670 -0.6244
    6SAPS   C27  713   4.805   2.148   6.534 -0.3956  0.1023 -0.5451
    6SAPS   H7R  714   4.757   2.058   6.578 -2.3189  1.1413 -0.4226
    6SAPS   H7S  715   4.816   2.204   6.629 -1.2698  0.0933 -0.4304
    6SAPS   C28  716   4.943   2.127   6.482  0.3279 -0.0202 -0.6746
    6SAPS   H8R  717   5.021   2.199   6.512  0.6524 -1.0702  1.1444
    6SAPS   C29  718   4.982   2.026   6.407 -0.2421 -0.2981  0.2725
    6SAPS   H9R  719   5.088   2.011   6.383  0.1953 -0.1563  1.9334
    6SAPS  C210  720   4.888   1.919   6.352  0.8487 -0.0730 -0.0694
    6SAPS  H10R  721   4.862   1.941   6.246 -0.4970 -0.2102  0.2150
    6SAPS  H10S  722   4.789   1.922   6.404  1.1973  3.1382  0.6117
    6SAPS  C211  723   4.949   1.784   6.375  0.3459  0.4520  0.4170
    6SAPS  H11R  724   4.929   1.754   6.479 -4.0411 -0.7480 -0.5694
    6SAPS  C212  725   4.989   1.693   6.281 -0.1705 -0.0725 -0.1469
    6SAPS  H12R  726   5.025   1.597   6.320 -2.4085 -0.2468  1.6883
    6SAPS  C213  727   4.992   1.724   6.131 -0.0081  0.3603 -0.7573
    6SAPS  H13R  728   5.095   1.698   6.098  0.0591  0.7814 -0.8801
    6SAPS  H13S  729   4.983   1.832   6.107 -0.7912  0.0518 -1.9144
    6SAPS  C214  730   4.899   1.630   6.061  0.0493  0.1705  0.0648
    6SAPS  H14R  731   4.817   1.593   6.125 -0.1098  0.7833  0.2270
    6SAPS  C215  732   4.886   1.602   5.929 -0.4495 -0.2707 -0.2091
    6SAPS  H15R  733   4.813   1.526   5.899  0.2023 -1.5611  1.3451
    6SAPS  C216  734   4.974   1.656   5.819  0.3183  0.5381 -0.2605
    6SAPS  H16R  735   5.015   1.575   5.755 -2.4620 -0.4995 -0.8670
    6SAPS  H16S  736   5.047   1.728   5.863 -0.6941  1.2438  0.2965
    6SAPS  C217  737   4.893   1.730   5.710  0.2417  0.6042 -0.4919
    6SAPS  H17R  738   4.967   1.778   5.643  0.1844 -0.5718 -1.4057
    6SAPS  H17S  739   4.824   1.804   5.757 -1.1603 -0.9489 -0.0030
    6SAPS  C218  740   4.798   1.635   5.627 -0.3619 -0.1579  0.1485
    6SAPS  H18R  741   4.725   1.597   5.702  0.8049  1.9337  2.5189
    6SAPS  H18S  742   4.854   1.556   5.574 -0.0972  1.2672 -1.7877
    6SAPS  C219  743   4.707   1.712   5.525 -0.7959 -0.1004  0.1546
    6SAPS  H19R  744   4.641   1.782   5.582 -0.8158  1.2507 -1.4675
    6SAPS  H19S  745   4.640   1.638   5.476 -0.3702 -1.6557  1.8310
    6SAPS  C220  746   4.772   1.805   5.421  0.1920  0.5651  0.2224
    6SAPS  H20R  747   4.876   1.769   5.403  0.4024 -0.0525  2.4413
    6SAPS  H20S  748   4.782   1.907   5.464 -2.0295  1.2160 -0.6892
    6SAPS  H20T  749   4.710   1.808   5.329 -1.6329  0.0989  1.4021
    6SAPS   C33  750   4.507   1.941   6.883 -0.4709 -0.8945  0.1362
    6SAPS   H3X  751   4.425   1.961   6.955 -0.4598 -2.4110  0.6030
    6SAPS   H3Y  752   4.580   1.883   6.944 -0.4662  1.0383  2.1188
    6SAPS   C34  753   4.427   1.877   6.761 -0.2128  0.5070 -0.3250
    6SAPS   H4X  754   4.362   1.952   6.711  1.0572  1.0938 -1.1695
    6SAPS   H4Y  755   4.363   1.795   6.800 -2.9612  2.8343  0.4179
    6SAPS   C35  756   4.527   1.817   6.662 -0.7858  0.5063 -0.4795
    6SAPS   H5X  757   4.603   1.751   6.709  1.0913  2.3309 -0.7633
    6SAPS   H5Y  758   4.588   1.896   6.613  1.0675 -0.1296  0.6882
    6SAPS   C36  759   4.469   1.730   6.552 -0.1244  0.4230 -0.1692
    6SAPS   H6X  760   4.399   1.785   6.485  0.3274 -0.8122 -1.7325
    6SAPS   H6Y  761   4.404   1.654   6.601  0.8391 -1.2932 -1.4050
    6SAPS   C37  762   4.568   1.657   6.458  0.6946  0.2457  0.8527
    6SAPS   H7X  763   4.647   1.610   6.520 -0.3653 -1.6556  0.8128
    6SAPS   H7Y  764   4.618   1.726   6.387  0.9822  1.8632  2.5281
    6SAPS   C38  765   4.490   1.561   6.371 -0.8759 -0.8338 -0.5307
    6SAPS   H8X  766   4.453   1.609   6.278 -0.9240 -0.7328 -0.4600
    6SAPS   H8Y  767   4.401   1.531   6.430 -1.5012 -0.9226 -1.5020
    6SAPS   C39  768   4.577   1.440   6.336 -0.0442 -0.1817 -0.3780
    6SAPS   H9X  769   4.602   1.381   6.426 -2.8206 -0.2225  0.4615
    6SAPS   H9Y  770   4.671   1.466   6.284 -0.4926 -0.2696 -1.2578
    6SAPS  C310  771   4.491   1.349   6.246 -1.0073  0.6509  0.5991
    6SAPS  H10X  772   4.391   1.347   6.294 -0.8073  0.5563  1.0196
    6SAPS  H10Y  773   4.520   1.242   6.248 -1.5367  0.4804 -0.1886
    6SAPS  C311  774   4.485   1.398   6.097  0.0544 -0.2623 -0.4374
    6SAPS  H11X  775   4.591   1.391   6.065  0.5506 -1.0786  1.2244
    6SAPS  H11Y  776   4.451   1.503   6.089 -4.1475 -1.4825 -1.1156
    6SAPS  C312  777   4.393   1.311   6.012  0.0011 -0.0123  0.3132
    6SAPS  H12X  778   4.290   1.302   6.053 -0.4625 -0.9459 -0.9525
    6SAPS  H12Y  779   4.439   1.211   5.998  0.4395  0.1157  0.8235
    6SAPS  C313  780   4.389   1.360   5.862  0.3196  0.8795 -0.4959
    6SAPS  H13X  781   4.325   1.286   5.809 -0.3862  1.8776 -1.0751
    6SAPS  H13Y  782   4.489   1.363   5.814  1.6595 -0.4744  2.0412
    6SAPS  C314  783   4.317   1.496   5.842  0.3800  0.2676 -0.2926
    6SAPS  H14X  784   4.377   1.572   5.896  1.6556 -0.3186 -0.8217
    6SAPS  H14Y  785   4.218   1.497   5.891  0.2916 -0.2191 -0.4556
    6SAPS  C315  786   4.303   1.533   5.696  1.0549 -0.0027  0.0067
    6SAPS  H15X  787   4.208   1.483   5.668  1.2690  0.1730 -1.0725
    6SAPS  H15Y  788   4.390   1.489   5.643  1.5499  0.1935  0.6328
    6SAPS  C316  789   4.318   1.684   5.676  0.1358  0.5404  0.4705
    6SAPS  H16X  790   4.331   1.696   5.566 -2.3961 -1.4000 -0.1236
    6SAPS  H16Y  791   4.412   1.719   5.723  1.0292  0.0850 -0.9048
    6SAPS  C317  792   4.192   1.752   5.719 -0.2834  0.3301 -0.0016
    6SAPS  H17X  793   4.186   1.717   5.824 -1.3599 -1.0507 -0.4812
    6SAPS  H17Y  794   4.102   1.710   5.668  0.7725 -0.9733 -0.8445
    6SAPS  C318  795   4.192   1.903   5.716 -0.5388  0.1157 -0.3560
    6SAPS  H18X  796   4.150   1.957   5.804  2.1550  1.3760  0.2429
    6SAPS  H18Y  797   4.139   1.941   5.626  1.0144 -0.3498 -1.5181
    6SAPS  H18Z  798   4.299   1.932   5.720  0.4013 -2.8647 -0.9309
    7SAPS     N  799   2.266   0.370   8.008  0.2395 -0.4863  0.0564
    7SAPS   HN1  800   2.340   0.382   8.080  1.2726  0.2950 -1.0956
    7SAPS   HN2  801   2.184   0.347   8.067  0.5187 -2.6775 -0.3040
    7SAPS   HN3  802   2.276   0.281   7.954 -2.4069 -0.2510 -0.9514
    7SAPS   C12  803   2.263   0.493   7.935  0.0471  0.3954  0.3125
    7SAPS  H12A  804   2.203   0.487   7.845  0.4256 -0.6588  0.1205
    7SAPS   C13  805   2.213   0.618   8.010  0.1041 -1.0176 -0.4234
    7SAPS  O13A  806   2.152   0.597   8.122  0.1499 -0.4542 -0.4985
    7SAPS  O13B  807   2.189   0.725   7.947  0.6150 -0.6732  0.1583
    7SAPS   C11  808   2.409   0.529   7.887  0.0518  0.8470 -0.3532
    7SAPS  H11A  809   2.473   0.538   7.978 -1.1880 -0.2032  0.6650
    7SAPS  H11B  810   2.413   0.630   7.843 -0.2185  1.0560  0.0942
    7SAPS     P  811   2.556   0.451   7.683 -0.0372 -0.2838  0.2604
    7SAPS   O13  812   2.667   0.540   7.725 -0.0244 -0.7337  0.8280
    7SAPS   O14  813   2.597   0.322   7.617 -0.2916 -0.3578 -0.7254
    7SAPS   O12  814   2.461   0.425   7.808  0.3488  0.1986 -0.0191
    7SAPS   O11  815   2.460   0.537   7.586  0.1213  0.0383 -0.5022
    7SAPS    C1  816   2.340   0.477   7.542  0.7267 -0.4483  0.4720
    7SAPS    HA  817   2.333   0.367   7.549  1.7020 -0.4712  1.2345
    7SAPS    HB  818   2.254   0.525   7.595 -1.3492 -0.2803 -2.7808
    7SAPS    C2  819   2.316   0.510   7.393  0.0190 -0.3424 -0.3590
    7SAPS    HS  820   2.230   0.446   7.364 -0.5957  0.2867  0.0244
    7SAPS   O21  821   2.426   0.481   7.291  0.3395 -0.0501 -0.4778
    7SAPS   C21  822   2.464   0.350   7.276  0.3771 -0.2672 -0.1218
    7SAPS   O22  823   2.396   0.253   7.307 -0.4230  0.1232  0.0630
    7SAPS   C22  824   2.604   0.349   7.211  0.7437  0.1780 -0.2668
    7SAPS   H2R  825   2.606   0.424   7.129 -0.2911 -0.1864 -0.6306
    7SAPS   H2S  826   2.680   0.379   7.287  1.8122 -0.8968 -0.8803
    7SAPS    C3  827   2.282   0.652   7.364 -0.2153  0.3956  0.5105
    7SAPS    HX  828   2.372   0.711   7.390 -0.2094  0.6056  0.0266
    7SAPS    HY  829   2.205   0.679   7.439  1.2533 -0.6637  2.4932
    7SAPS   O31  830   2.233   0.674   7.232  0.0112 -0.5778  0.1911
    7SAPS   C31  831   2.298   0.760   7.153  0.3973 -0.2122  0.1366
    7SAPS   O32  832   2.396   0.824   7.190  0.1824  0.0531  0.0820
    7SAPS   C32  833   2.231   0.781   7.025  0.0529 -0.0734  0.1170
    7SAPS   H2X  834   2.162   0.867   7.037  0.4560  0.3482 -0.5202
    7SAPS   H2Y  835   2.161   0.701   6.993 -0.4720  0.3689  0.1290
    7SAPS   C23  836   2.653   0.212   7.156 -0.3718 -0.5459 -0.2393
    7SAPS   H3R  837   2.665   0.138   7.239 -0.4268 -0.5060 -0.1954
    7SAPS   H3S  838   2.757   0.241   7.131 -1.1947  2.4504 -0.5390
    7SAPS   C24  839   2.584   0.151   7.034 -0.4467  0.1993 -0.9812
    7SAPS   H4R  840   2.488   0.102   7.057 -0.1716 -0.4372 -1.1530
    7SAPS   H4S  841   2.644   0.062   7.006  0.1120  1.0484 -2.6619
    7SAPS   C25  842   2.571   0.229   6.904  0.4395 -0.1942 -0.5977
    7SAPS   H5R  843   2.493   0.306   6.895  2.6305  2.0762 -1.0370
    7SAPS   C26  844   2.661   0.235   6.799  0.5127 -0.9149  0.9349
    7SAPS   H6R  845   2.651   0.292   6.706  2.2677  0.7218  1.6698
    7SAPS   C27  846   2.793   0.157   6.784  0.0787 -0.0584 -0.3195
    7SAPS   H7R  847   2.783   0.081   6.703 -3.8132 -0.0914  0.0062
    7SAPS   H7S  848   2.818   0.100   6.876  0.2724 -1.5176 -1.2368
    7SAPS   C28  849   2.911   0.247   6.768 -0.1246  0.2567 -0.0265
    7SAPS   H8R  850   2.957   0.271   6.866  0.9238  0.2977 -0.5137
    7SAPS   C29  851   2.956   0.316   6.658  0.2767  0.3393 -0.1567
    7SAPS   H9R  852   3.052   0.369   6.667 -0.0128  1.9806 -4.5549
    7SAPS  C210  853   2.890   0.306   6.527 -0.3450 -0.2197 -0.7515
    7SAPS  H10R  854   2.840   0.400   6.497  1.0267 -0.0061 -2.5400
    7SAPS  H10S  855   2.807   0.233   6.526  1.3817 -2.3291  0.4655
    7SAPS  C211  856   2.986   0.258   6.422  0.3140  0.3830  0.3635
    7SAPS  H11R  857   3.041   0.170   6.460 -0.1449  0.0525  0.2740
    7SAPS  C212  858   3.001   0.313   6.296  0.3251  0.6089  0.0676
    7SAPS  H12R  859   3.069   0.264   6.225 -0.6083  1.5499 -1.5448
    7SAPS  C213  860   2.934   0.434   6.239  0.3791 -0.1270  0.2757
    7SAPS  H13R  861   2.911   0.508   6.319  1.3182  1.1903 -0.6240
    7SAPS  H13S  862   2.841   0.396   6.193  0.1688 -0.7330  1.1776
    7SAPS  C214  863   3.019   0.496   6.127  1.2238 -0.2863  0.4817
    7SAPS  H14R  864   3.092   0.566   6.170  0.2005 -0.0865  1.9854
    7SAPS  C215  865   2.996   0.498   5.994 -0.2352 -0.8455 -0.0007
    7SAPS  H15R  866   3.070   0.543   5.927 -1.5728 -2.5569 -2.8069
    7SAPS  C216  867   2.902   0.421   5.906 -0.4565 -0.2588 -0.3670
    7SAPS  H16R  868   2.864   0.476   5.817 -0.6049 -1.1643 -0.8767
    7SAPS  H16S  869   2.815   0.390   5.969 -1.1053  0.3470 -0.9508
    7SAPS  C217  870   2.978   0.296   5.855  0.5130 -0.0482 -0.0889
    7SAPS  H17R  871   3.020   0.226   5.932  2.2750  0.5741 -0.4457
    7SAPS  H17S  872   3.055   0.339   5.788 -0.2596  0.5954 -0.5762
    7SAPS  C218  873   2.884   0.209   5.777 -0.5581  0.5938  0.5062
    7SAPS  H18R  874   2.861   0.253   5.677 -1.3572 -2.2752 -0.6757
    7SAPS  H18S  875   2.786   0.192   5.827 -1.1912 -0.9243 -1.1568
    7SAPS  C219  876   2.944   0.069   5.757 -0.5231 -0.1971 -0.6039
    7SAPS  H19R  877   2.973   0.039   5.860 -0.1519 -0.9802 -0.9283
    7SAPS  H19S  878   3.036   0.072   5.695 -0.1584  0.0939 -0.0597
    7SAPS  C220  879   2.834  -0.033   5.706  0.5089  0.3293  0.5745
    7SAPS  H20R  880   2.813  -0.012   5.600  1.6034  0.4257  0.3627
    7SAPS  H20S  881   2.742  -0.025   5.767  0.1343 -2.2785  0.4671
    7SAPS  H20T  882   2.882  -0.133   5.711 -0.8520 -0.5286 -2.0244
    7SAPS   C33  883   2.324   0.832   6.916 -0.6406  0.3787  0.2549
    7SAPS   H3X  884   2.407   0.759   6.904 -0.7481  0.2338  0.3843
    7SAPS   H3Y  885   2.372   0.925   6.954 -0.2997  0.5381 -0.5647
    7SAPS   C34  886   2.257   0.871   6.783  0.2396  0.1459 -0.0429
    7SAPS   H4X  887   2.162   0.926   6.804  1.0571  1.4679  0.3417
    7SAPS   H4Y  888   2.219   0.788   6.720  1.0561  0.3135 -0.7675
    7SAPS   C35  889   2.336   0.976   6.708 -0.1709 -0.3198 -0.0317
    7SAPS   H5X  890   2.439   0.938   6.697 -1.0935 -2.7822 -0.7888
    7SAPS   H5Y  891   2.340   1.072   6.764  3.4540  0.0105 -0.6267
    7SAPS   C36  892   2.282   0.992   6.566  0.8253 -0.0400 -0.1348
    7SAPS   H6X  893   2.176   1.019   6.581  0.6573 -0.9229  0.3173
    7SAPS   H6Y  894   2.282   0.901   6.502  0.4939 -0.1408  0.0098
    7SAPS   C37  895   2.364   1.098   6.497  0.1292  0.1669  0.2386
    7SAPS   H7X  896   2.471   1.072   6.498  0.2547  0.5184 -1.4160
    7SAPS   H7Y  897   2.337   1.193   6.548  2.6286  0.7901  0.5205
    7SAPS   C38  898   2.328   1.121   6.349 -0.0509 -0.0253 -0.2576
    7SAPS   H8X  899   2.219   1.130   6.331  0.0693 -0.4143 -1.2417
    7SAPS   H8Y  900   2.375   1.037   6.293 -1.1501 -1.9958  1.5820
    7SAPS   C39  901   2.394   1.249   6.298 -0.7213  0.1421  0.5426
    7SAPS   H9X  902   2.504   1.236   6.302 -0.1010  4.0804  1.2063
    7SAPS   H9Y  903   2.374   1.332   6.370 -2.4301  2.6593 -2.5400
    7SAPS  C310  904   2.368   1.292   6.154 -0.5729 -0.3264 -0.3758
    7SAPS  H10X  905   2.427   1.382   6.125  1.1128 -1.1027  0.5242
    7SAPS  H10Y  906   2.261   1.324   6.150 -0.1198  1.6126  1.2310
    7SAPS  C311  907   2.382   1.186   6.042  0.9786 -0.2414  0.0019
    7SAPS  H11X  908   2.311   1.103   6.061 -1.7503  2.2994  1.7238
    7SAPS  H11Y  909   2.481   1.140   6.060  1.6043  1.5723  1.4882
    7SAPS  C312  910   2.363   1.242   5.901  0.2162  0.4465  0.2267
    7SAPS  H12X  911   2.392   1.349   5.897 -3.9427  1.6970 -0.7756
    7SAPS  H12Y  912   2.258   1.236   5.867  0.0649  0.8436  0.6143
    7SAPS  C313  913   2.445   1.166   5.798  0.0168 -0.5012  0.0095
    7SAPS  H13X  914   2.394   1.068   5.784 -0.3807 -0.2548 -0.2930
    7SAPS  H13Y  915   2.553   1.164   5.825 -0.0951 -1.2513  0.4293
    7SAPS  C314  916   2.431   1.233   5.654  0.2316 -0.1037 -0.3312
    7SAPS  H14X  917   2.429   1.344   5.668  0.0953 -0.0171 -0.9899
    7SAPS  H14Y  918   2.339   1.192   5.608 -1.3295 -1.4884  3.5783
    7SAPS  C315  919   2.542   1.180   5.564 -0.2561 -0.0995 -0.2437
    7SAPS  H15X  920   2.558   1.071   5.580 -1.9101 -0.1388  1.5150
    7SAPS  H15Y  921   2.635   1.236   5.587 -0.6632  0.6660 -0.4355
    7SAPS  C316  922   2.519   1.207   5.416 -0.2089 -0.3787  0.2176
    7SAPS  H16X  923   2.457   1.128   5.369 -0.3449  0.3838 -0.9386
    7SAPS  H16Y  924   2.620   1.199   5.369  0.4000  0.8787  1.2371
    7SAPS  C317  925   2.471   1.348   5.390 -0.0474  0.3264 -0.2616
    7SAPS  H17X  926   2.544   1.415   5.439  2.1536 -0.9444 -1.6182
    7SAPS  H17Y  927   2.367   1.345   5.428 -0.8824  3.1660 -2.0436
    7SAPS  C318  928   2.463   1.401   5.246  0.7339 -0.2271 -0.4939
    7SAPS  H18X  929   2.546   1.357   5.186  0.5944  0.6327 -1.3539
    7SAPS  H18Y  930   2.467   1.512   5.249 -1.1996 -0.1240  2.3019
    7SAPS  H18Z  931   2.361   1.372   5.211  0.0653  0.7132  0.5819
    8SAPS     N  932   6.775   3.002   7.313 -0.1008 -0.2302  0.3326
    8SAPS   HN1  933   6.856   2.951   7.271 -0.5561 -0.4310 -0.3256
    8SAPS   HN2  934   6.687   2.991   7.259 -0.5109 -1.3651  1.1912
    8SAPS   HN3  935   6.805   3.101   7.321  2.2825 -0.9600  1.2246
    8SAPS   C12  936   6.768   2.954   7.451  0.2147 -0.2972  0.4450
    8SAPS  H12A  937   6.870   2.949   7.487  0.4359  0.2451 -0.1011
    8SAPS   C13  938   6.697   3.039   7.554  0.3388 -0.9163  0.0976
    8SAPS  O13A  939   6.631   3.141   7.525 -0.2393 -0.5257 -0.3925
    8SAPS  O13B  940   6.709   3.011   7.678  0.6822  0.0397 -0.2256
    8SAPS   C11  941   6.723   2.802   7.455 -0.7219 -0.2356  0.4504
    8SAPS  H11A  942   6.621   2.800   7.412 -0.6364  1.4903  0.0817
    8SAPS  H11B  943   6.715   2.769   7.561 -2.0346 -2.6026 -0.3070
    8SAPS     P  944   6.952   2.673   7.422  0.1107  0.2857 -0.3456
    8SAPS   O13  945   7.043   2.782   7.446 -0.1519  0.0170  0.0298
    8SAPS   O14  946   6.918   2.585   7.536  0.1474  0.0824 -0.0886
    8SAPS   O12  947   6.812   2.722   7.366 -0.3324  0.0664 -0.4634
    8SAPS   O11  948   7.015   2.596   7.304 -0.8657  0.1701 -0.5156
    8SAPS    C1  949   6.947   2.500   7.225  0.1562  0.4139 -0.4192
    8SAPS    HA  950   6.852   2.466   7.273  0.5140 -0.0047  0.0039
    8SAPS    HB  951   6.921   2.537   7.123 -2.3285 -1.3049 -0.4993
    8SAPS    C2  952   7.027   2.365   7.217  0.2907 -0.3076 -0.3213
    8SAPS    HS  953   7.065   2.334   7.316  0.4677 -0.5436 -0.4621
    8SAPS   O21  954   7.138   2.396   7.134 -0.3838 -0.2269  0.2119
    8SAPS   C21  955   7.227   2.290   7.131 -0.3652 -0.7087 -0.2677
    8SAPS   O22  956   7.225   2.190   7.201  0.0894  0.1574 -0.0835
    8SAPS   C22  957   7.333   2.322   7.026 -0.3275  0.7022  0.3247
    8SAPS   H2R  958   7.312   2.416   6.970  1.3152  0.8402 -0.0892
    8SAPS   H2S  959   7.426   2.348   7.079  0.5984  2.8672 -2.1184
    8SAPS    C3  960   6.931   2.248   7.156  0.1154  0.8205 -0.2887
    8SAPS    HX  961   6.843   2.246   7.225 -1.2910 -1.9058 -2.0115
    8SAPS    HY  962   6.967   2.144   7.170 -2.0693  0.2783  2.3049
    8SAPS   O31  963   6.885   2.283   7.017 -0.6141 -0.0126  0.2188
    8SAPS   C31  964   6.852   2.178   6.947  0.3823 -0.3357  0.9158
    8SAPS   O32  965   6.850   2.062   6.983  0.0092 -0.6680  0.1604
    8SAPS   C32  966   6.819   2.223   6.806 -0.4307  0.1201  0.8226
    8SAPS   H2X  967   6.807   2.333   6.798  1.6988  0.2343 -3.7516
    8SAPS   H2Y  968   6.723   2.169   6.790  0.8554 -2.4175  1.1594
    8SAPS   C23  969   7.373   2.200   6.945 -0.3105 -0.0934  0.0789
    8SAPS   H3R  970   7.385   2.105   7.001  0.6541  0.2284  0.4440
    8SAPS   H3S  971   7.466   2.226   6.889 -0.6983  0.9777 -0.0878
    8SAPS   C24  972   7.273   2.155   6.832  0.4855  0.1760  1.1868
    8SAPS   H4R  973   7.278   2.223   6.745  0.8613 -1.2900  0.0180
    8SAPS   H4S  974   7.172   2.165   6.877 -1.4471 -2.9541 -1.9824
    8SAPS   C25  975   7.300   2.019   6.785 -0.4003 -0.1370 -0.0912
    8SAPS   H5R  976   7.256   1.938   6.845 -2.8940  0.0703 -1.4871
    8SAPS   C26  977   7.354   1.979   6.670 -0.2190  0.3798  0.8848
    8SAPS   H6R  978   7.350   1.869   6.661 -1.3943  0.4977 -0.3260
    8SAPS   C27  979   7.407   2.063   6.561  0.0327 -0.2595 -0.3025
    8SAPS   H7R  980   7.508   2.095   6.594  0.2285  1.7628 -2.6482
    8SAPS   H7S  981   7.346   2.155   6.550  3.0110  1.7036 -1.9149
    8SAPS   C28  982   7.412   1.979   6.432 -0.2301  0.4035 -0.3687
    8SAPS   H8R  983   7.336   1.899   6.435  1.0661 -0.8320  0.1823
    8SAPS   C29  984   7.498   1.995   6.337  0.1499 -0.7655  0.4282
    8SAPS   H9R  985   7.494   1.926   6.251 -0.4886  1.0054 -1.0194
    8SAPS  C210  986   7.607   2.094   6.328  0.6046  0.6327  0.1207
    8SAPS  H10R  987   7.637   2.127   6.430  0.8109  2.6008 -0.5406
    8SAPS  H10S  988   7.573   2.179   6.266 -2.7280 -0.6718 -0.0447
    8SAPS  C211  989   7.733   2.027   6.282  0.8107  0.7183  0.8179
    8SAPS  H11R  990   7.784   1.972   6.362  0.8161 -2.2399 -1.0385
    8SAPS  C212  991   7.808   2.053   6.176 -0.6345 -0.0390  0.2093
    8SAPS  H12R  992   7.901   1.996   6.168 -0.0887  0.6701  1.2138
    8SAPS  C213  993   7.768   2.143   6.066  0.0217  0.0870  0.3419
    8SAPS  H13R  994   7.767   2.250   6.095  1.6977  0.2139  0.0558
    8SAPS  H13S  995   7.666   2.120   6.028 -0.1965  0.2837  0.8076
    8SAPS  C214  996   7.869   2.129   5.951  0.4004  1.1078 -0.1627
    8SAPS  H14R  997   7.848   2.048   5.879  3.9778 -1.2850  1.2248
    8SAPS  C215  998   7.984   2.191   5.926 -0.0688  0.0781  0.2488
    8SAPS  H15R  999   8.032   2.159   5.832 -0.3883  3.0154 -1.0407
    8SAPS  C216 1000   8.050   2.303   6.011 -1.3076  0.6300  0.2780
    8SAPS  H16R 1001   8.007   2.308   6.113 -2.0884 -0.4317  0.0077
    8SAPS  H16S 1002   8.039   2.405   5.968 -0.0288 -0.1969 -2.1993
    8SAPS  C217 1003   8.202   2.279   6.029 -1.2160  0.4119 -0.7886
    8SAPS  H17R 1004   8.252   2.355   6.092 -0.5043 -1.2353  0.7255
    8SAPS  H17S 1005   8.259   2.280   5.934  0.3111 -2.1616  0.0117
    8SAPS  C218 1006   8.229   2.143   6.095 -0.2572  0.0349  0.8051
    8SAPS  H18R 1007   8.207   2.067   6.016 -1.0943  0.6757  0.4072
    8SAPS  H18S 1008   8.160   2.122   6.179  1.7429 -0.5720  2.3933
    8SAPS  C219 1009   8.371   2.113   6.144  0.2851  0.1712 -0.4765
    8SAPS  H19R 1010   8.449   2.141   6.070  0.8964 -1.4904 -0.5201
    8SAPS  H19S 1011   8.385   2.003   6.142  2.0778  0.3582  0.0113
    8SAPS  C220 1012   8.399   2.170   6.287  0.3023  0.5248 -0.5001
    8SAPS  H20R 1013   8.504   2.147   6.316  0.0943 -0.8953 -0.7768
    8SAPS  H20S 1014   8.335   2.119   6.362  0.8197  2.7631  1.5819
    8SAPS  H20T 1015   8.373   2.277   6.295  0.7142  0.6718 -1.0156
    8SAPS   C33 1016   6.926   2.183   6.708 -0.6116  0.5141 -0.0764
    8SAPS   H3X 1017   6.948   2.074   6.713  1.8226  0.9852  1.7900
    8SAPS   H3Y 1018   7.023   2.236   6.726  0.8463 -1.4557 -1.7025
    8SAPS   C34 1019   6.900   2.211   6.565 -0.2047 -0.2269 -0.1105
    8SAPS   H4X 1020   6.889   2.322   6.557  0.6892  0.1765  2.9101
    8SAPS   H4Y 1021   6.801   2.173   6.532 -0.8584  1.3684 -0.1112
    8SAPS   C35 1022   7.003   2.150   6.470  0.1137  0.7066 -0.3924
    8SAPS   H5X 1023   7.002   2.040   6.484 -1.7798  0.7586  0.0966
    8SAPS   H5Y 1024   7.106   2.185   6.493  0.4362 -1.0010  0.9255
    8SAPS   C36 1025   6.976   2.182   6.318  0.1889 -0.1728  0.0250
    8SAPS   H6X 1026   6.948   2.289   6.309  1.4294  0.4782  2.9274
    8SAPS   H6Y 1027   6.887   2.127   6.281 -0.2227 -0.0421  0.8172
    8SAPS   C37 1028   7.103   2.141   6.246 -0.5872 -0.3739  0.9641
    8SAPS   H7X 1029   7.171   2.081   6.309 -1.8672 -3.0460 -0.0595
    8SAPS   H7Y 1030   7.163   2.230   6.217  0.3361 -1.5437 -0.8853
    8SAPS   C38 1031   7.076   2.055   6.119 -0.1293  0.1088 -0.2416
    8SAPS   H8X 1032   7.011   2.117   6.054 -1.6451 -1.2618 -0.0968
    8SAPS   H8Y 1033   7.012   1.971   6.154 -0.0048 -0.3093 -0.9901
    8SAPS   C39 1034   7.203   2.007   6.047  0.5368  0.2881 -0.1458
    8SAPS   H9X 1035   7.167   1.957   5.955 -1.2469 -0.7105  1.0184
    8SAPS   H9Y 1036   7.272   1.940   6.104  0.7205 -1.6130 -2.4607
    8SAPS  C310 1037   7.282   2.124   5.999 -0.1642  0.0659 -0.4725
    8SAPS  H10X 1038   7.349   2.152   6.083 -0.3391  1.7813 -0.8831
    8SAPS  H10Y 1039   7.220   2.213   5.979 -0.2704 -0.1264 -1.0120
    8SAPS  C311 1040   7.371   2.092   5.879 -0.0453 -0.1151  0.3559
    8SAPS  H11X 1041   7.316   2.043   5.795  1.3382  1.2777 -1.4358
    8SAPS  H11Y 1042   7.449   2.020   5.913 -0.8200 -0.2859  1.8625
    8SAPS  C312 1043   7.442   2.216   5.823 -0.6468 -0.3273 -0.5148
    8SAPS  H12X 1044   7.485   2.266   5.912  0.0120  0.3168 -1.1780
    8SAPS  H12Y 1045   7.369   2.291   5.785 -2.4347 -0.5472  2.1668
    8SAPS  C313 1046   7.548   2.175   5.727 -0.0852 -0.8890  0.4209
    8SAPS  H13X 1047   7.500   2.139   5.633  0.5696 -0.5013 -0.0661
    8SAPS  H13Y 1048   7.605   2.095   5.779  1.4721  0.2370  0.4816
    8SAPS  C314 1049   7.638   2.289   5.706  0.4521 -0.9932  0.2584
    8SAPS  H14X 1050   7.718   2.262   5.634 -0.1326 -0.7005 -0.5201
    8SAPS  H14Y 1051   7.681   2.315   5.804  0.8364 -0.9561  0.0822
    8SAPS  C315 1052   7.582   2.412   5.634 -0.4555 -0.1610 -0.0598
    8SAPS  H15X 1053   7.511   2.467   5.699  1.1472  0.6372  1.0915
    8SAPS  H15Y 1054   7.537   2.378   5.539  0.9800  0.8668 -1.1643
    8SAPS  C316 1055   7.685   2.517   5.591  0.2215 -0.7036 -0.3732
    8SAPS  H16X 1056   7.768   2.472   5.533 -1.3795 -3.4861 -0.6632
    8SAPS  H16Y 1057   7.724   2.573   5.679 -0.9272  1.6092 -1.2538
    8SAPS  C317 1058   7.630   2.623   5.501  0.0345 -0.7024 -0.2388
    8SAPS  H17X 1059   7.538   2.669   5.542  1.6746  2.2629  0.3757
    8SAPS  H17Y 1060   7.606   2.570   5.407  0.6993 -0.7970 -0.3605
    8SAPS  C318 1061   7.730   2.726   5.467 -0.0091 -0.2881  0.0734
    8SAPS  H18X 1062   7.710   2.765   5.365  1.0314 -1.2475 -0.5192
    8SAPS  H18Y 1063   7.833   2.684   5.471 -0.1981 -1.1481 -2.3691
    8SAPS  H18Z 1064   7.727   2.815   5.534  0.7263 -0.5503  0.4710
    9SAPS     N 1065   2.711   3.097   7.785  0.9492 -0.0571 -0.1188
    9SAPS   HN1 1066   2.626   3.067   7.734 -0.1969  0.1961  1.5707
    9SAPS   HN2 1067   2.770   3.015   7.811 -0.2573 -0.4755  1.4439
    9SAPS   HN3 1068   2.673   3.145   7.869  0.0213 -2.0795  0.6795
    9SAPS   C12 1069   2.792   3.196   7.708  0.3350  0.2985  0.2142
    9SAPS  H12A 1070   2.728   3.277   7.676 -0.0045  0.0337  0.2157
    9SAPS   C13 1071   2.901   3.263   7.786 -0.3276 -0.4303  0.3783
    9SAPS  O13A 1072   2.925   3.250   7.906  0.1219 -0.5777  0.1985
    9SAPS  O13B 1073   2.972   3.349   7.722 -0.5822 -0.1196  0.1767
    9SAPS   C11 1074   2.837   3.137   7.573 -0.5815  0.5170  1.0651
    9SAPS  H11A 1075   2.919   3.064   7.591  0.0422  1.0055  0.2176
    9SAPS  H11B 1076   2.896   3.214   7.520  0.2189  0.1683  1.4340
    9SAPS     P 1077   2.657   3.163   7.375 -0.1602 -0.5113  0.2328
    9SAPS   O13 1078   2.566   3.083   7.291  0.4517  0.2388 -0.2573
    9SAPS   O14 1079   2.618   3.291   7.438 -0.1665  0.3413  0.8882
    9SAPS   O12 1080   2.736   3.072   7.489 -0.4980 -0.3413  0.4969
    9SAPS   O11 1081   2.781   3.201   7.287 -0.4507 -0.1374  0.2170
    9SAPS    C1 1082   2.860   3.095   7.228  0.2471 -0.3081  0.1379
    9SAPS    HA 1083   2.965   3.128   7.208  0.7514 -1.9689 -0.1232
    9SAPS    HB 1084   2.874   3.007   7.295 -0.0196  0.0599  0.6876
    9SAPS    C2 1085   2.802   3.070   7.094  0.4539  0.4259 -0.1043
    9SAPS    HS 1086   2.708   3.013   7.103  1.3757 -1.1131  0.1680
    9SAPS   O21 1087   2.890   2.991   7.021  0.3222  0.1620 -0.2782
    9SAPS   C21 1088   2.902   2.861   7.048  0.0654  0.6425 -0.2393
    9SAPS   O22 1089   2.842   2.799   7.136  0.3306  0.1286  0.2913
    9SAPS   C22 1090   3.002   2.798   6.949  0.1454 -0.2393  0.1456
    9SAPS   H2R 1091   3.055   2.882   6.900 -1.2532  0.6823  0.1492
    9SAPS   H2S 1092   3.060   2.728   7.014 -0.9607 -0.8822  0.4736
    9SAPS    C3 1093   2.767   3.202   7.016  0.0835  0.2539  0.1543
    9SAPS    HX 1094   2.855   3.268   7.005  0.1007 -0.1415 -3.1473
    9SAPS    HY 1095   2.683   3.254   7.067 -1.7693 -0.7240 -1.7268
    9SAPS   O31 1096   2.721   3.167   6.881 -0.1192  0.3658  1.1221
    9SAPS   C31 1097   2.622   3.242   6.835  0.7060 -0.2046  0.8558
    9SAPS   O32 1098   2.575   3.344   6.883  0.4170 -0.1987 -0.4470
    9SAPS   C32 1099   2.590   3.191   6.691  0.3291  0.0325 -0.3306
    9SAPS   H2X 1100   2.574   3.081   6.692  0.2222  0.0347 -1.2666
    9SAPS   H2Y 1101   2.669   3.225   6.621  0.6649 -1.9242 -0.9529
    9SAPS   C23 1102   2.929   2.702   6.850  0.1420 -0.5106 -0.0512
    9SAPS   H3R 1103   2.847   2.763   6.808 -0.9056 -0.5350  1.8273
    9SAPS   H3S 1104   2.883   2.624   6.914  0.6225  0.1658  1.1516
    9SAPS   C24 1105   3.021   2.655   6.747  0.1190 -0.0097  0.7512
    9SAPS   H4R 1106   3.072   2.740   6.696 -0.5438  0.1629  0.3629
    9SAPS   H4S 1107   2.965   2.610   6.662  0.4804 -0.7691  0.9055
    9SAPS   C25 1108   3.112   2.553   6.800  0.7227  0.0137  0.6434
    9SAPS   H5R 1109   3.086   2.509   6.898 -1.2000  0.6687  0.4609
    9SAPS   C26 1110   3.216   2.494   6.727 -0.1674 -0.4332  0.0188
    9SAPS   H6R 1111   3.278   2.417   6.776 -0.3569 -0.3972  0.3140
    9SAPS   C27 1112   3.263   2.524   6.584  0.6528  0.5462  0.4537
    9SAPS   H7R 1113   3.373   2.509   6.582  0.7191  0.2677  2.8937
    9SAPS   H7S 1114   3.238   2.626   6.549 -0.0057 -0.2170 -1.4338
    9SAPS   C28 1115   3.175   2.430   6.502  0.3119 -0.8964  0.8293
    9SAPS   H8R 1116   3.075   2.410   6.543 -0.5449 -1.9417 -1.5966
    9SAPS   C29 1117   3.206   2.391   6.376  0.0654 -0.3985 -0.3029
    9SAPS   H9R 1118   3.129   2.339   6.316 -0.4374  2.4627 -2.3569
    9SAPS  C210 1119   3.338   2.409   6.303  0.2146  0.0648  0.0986
    9SAPS  H10R 1120   3.363   2.317   6.247 -1.0274 -0.6655  0.6917
    9SAPS  H10S 1121   3.414   2.412   6.384  0.5140 -0.4695 -0.1576
    9SAPS  C211 1122   3.324   2.514   6.201 -0.0599 -0.8777 -0.0973
    9SAPS  H11R 1123   3.333   2.618   6.234 -0.5875 -0.2637 -1.7994
    9SAPS  C212 1124   3.273   2.502   6.076 -0.7733 -0.3291  0.0009
    9SAPS  H12R 1125   3.274   2.594   6.015  0.7343 -0.8235 -0.7806
    9SAPS  C213 1126   3.233   2.376   6.013  0.5545  0.0184  0.6545
    9SAPS  H13R 1127   3.178   2.314   6.088 -0.9811  1.5342  0.8396
    9SAPS  H13S 1128   3.324   2.320   5.982  0.2935  0.1198 -0.3270
    9SAPS  C214 1129   3.146   2.376   5.889  0.6479 -0.4274 -0.2750
    9SAPS  H14R 1130   3.085   2.465   5.867  3.1746  0.6846 -3.9093
    9SAPS  C215 1131   3.132   2.287   5.791  0.3375  0.2164  0.3126
    9SAPS  H15R 1132   3.068   2.314   5.705 -1.4539  2.8241  2.2981
    9SAPS  C216 1133   3.197   2.153   5.778 -0.7700  0.2209  0.1634
    9SAPS  H16R 1134   3.304   2.150   5.809  0.1886 -0.4642 -2.8649
    9SAPS  H16S 1135   3.204   2.137   5.668 -1.9427  2.0068 -0.2135
    9SAPS  C217 1136   3.136   2.041   5.861  0.0176  0.4244  0.7201
    9SAPS  H17R 1137   3.028   2.039   5.835  0.2035  2.8410 -0.6095
    9SAPS  H17S 1138   3.145   2.068   5.968  0.2165  1.3806  0.4731
    9SAPS  C218 1139   3.186   1.897   5.851 -0.1589  0.8670  0.4750
    9SAPS  H18R 1140   3.279   1.884   5.910 -0.3246 -0.7067  0.4257
    9SAPS  H18S 1141   3.195   1.869   5.744 -2.2859 -0.2702  0.5310
    9SAPS  C219 1142   3.083   1.799   5.907  0.3810  0.4116  0.0374
    9SAPS  H19R 1143   3.121   1.696   5.897 -1.4792 -0.6625  2.7698
    9SAPS  H19S 1144   2.991   1.789   5.845  0.1218  2.5120  0.0005
    9SAPS  C220 1145   3.067   1.826   6.056  0.0153  0.3279 -0.0927
    9SAPS  H20R 1146   3.018   1.923   6.079  0.8682  1.3857 -2.3831
    9SAPS  H20S 1147   3.165   1.813   6.105 -0.7122  0.9664  1.6343
    9SAPS  H20T 1148   3.003   1.744   6.096  0.0030  0.8819  1.0760
    9SAPS   C33 1149   2.460   3.263   6.640 -0.0542  0.5565  0.0369
    9SAPS   H3X 1150   2.481   3.370   6.617 -0.3071  0.6112  0.0678
    9SAPS   H3Y 1151   2.368   3.274   6.700 -0.6819 -1.4806 -0.4589
    9SAPS   C34 1152   2.431   3.199   6.506 -0.1035 -0.1668 -0.0099
    9SAPS   H4X 1153   2.403   3.093   6.526  0.0362 -0.6582 -2.1737
    9SAPS   H4Y 1154   2.514   3.203   6.432 -2.1775  2.6798 -2.3987
    9SAPS   C35 1155   2.306   3.258   6.443  0.4314 -0.6647  0.8980
    9SAPS   H5X 1156   2.305   3.368   6.430  0.4018 -0.4112  2.7512
    9SAPS   H5Y 1157   2.229   3.231   6.518 -0.3659 -1.1288 -0.0589
    9SAPS   C36 1158   2.259   3.188   6.306 -0.3042 -0.0116  0.7451
    9SAPS   H6X 1159   2.149   3.188   6.293 -0.2263 -0.6844  0.0615
    9SAPS   H6Y 1160   2.294   3.084   6.322  0.0448 -0.2638 -1.4614
    9SAPS   C37 1161   2.336   3.238   6.188 -0.1802  0.2840 -0.7527
    9SAPS   H7X 1162   2.445   3.220   6.199  0.2978  2.2964 -1.7716
    9SAPS   H7Y 1163   2.324   3.344   6.156  2.1876  0.4700 -1.2015
    9SAPS   C38 1164   2.308   3.165   6.047  0.2252  0.6428  0.4646
    9SAPS   H8X 1165   2.335   3.058   6.055  2.1294  0.8837 -1.7933
    9SAPS   H8Y 1166   2.384   3.203   5.976  1.5554 -1.5658  0.6187
    9SAPS   C39 1167   2.165   3.168   5.996  0.6413 -0.2023 -0.5032
    9SAPS   H9X 1168   2.144   3.277   5.990  1.8985  0.0187 -1.2436
    9SAPS   H9Y 1169   2.102   3.122   6.075  2.0734 -0.6048  0.4283
    9SAPS  C310 1170   2.153   3.106   5.860 -0.4810  0.4736  0.6796
    9SAPS  H10X 1171   2.215   3.015   5.847 -1.4070  0.0719 -1.2547
    9SAPS  H10Y 1172   2.193   3.183   5.789  1.3439 -3.4079 -2.9662
    9SAPS  C311 1173   2.009   3.061   5.828  0.0248 -0.5910  0.3006
    9SAPS  H11X 1174   1.926   3.134   5.843  0.3894 -0.1099  0.0120
    9SAPS  H11Y 1175   1.987   2.972   5.891 -2.0854 -0.7147 -0.5178
    9SAPS  C312 1176   2.003   3.037   5.678  0.1961  0.6579  0.4743
    9SAPS  H12X 1177   2.085   2.965   5.658 -0.1843  0.7000 -1.3452
    9SAPS  H12Y 1178   2.036   3.130   5.627 -1.4152 -0.6798 -3.3494
    9SAPS  C313 1179   1.882   2.970   5.628  0.3368 -0.0614 -0.1204
    9SAPS  H13X 1180   1.791   3.030   5.649  0.4921 -0.3143  1.3920
    9SAPS  H13Y 1181   1.881   2.872   5.680  2.1396 -0.7715 -1.3603
    9SAPS  C314 1182   1.877   2.954   5.476 -0.1006  0.5451 -0.1567
    9SAPS  H14X 1183   1.799   2.880   5.453 -0.7100  1.1626 -0.1056
    9SAPS  H14Y 1184   1.977   2.914   5.447  0.2363  0.9922  0.3432
    9SAPS  C315 1185   1.847   3.087   5.394  0.3037  0.2065 -0.7591
    9SAPS  H15X 1186   1.934   3.156   5.388  0.4439  0.2215  0.9646
    9SAPS  H15Y 1187   1.760   3.138   5.440 -0.6928 -0.2897 -2.0294
    9SAPS  C316 1188   1.812   3.039   5.250  0.0819 -0.3064  0.1053
    9SAPS  H16X 1189   1.712   2.993   5.238 -1.0722  1.7031  1.4228
    9SAPS  H16Y 1190   1.889   2.963   5.228  2.6944  1.0149  3.7020
    9SAPS  C317 1191   1.826   3.155   5.150 -0.5301  0.2397  0.0812
    9SAPS  H17X 1192   1.923   3.209   5.161 -0.8626  0.7498  0.5887
    9SAPS  H17Y 1193   1.749   3.230   5.179  0.0457  1.7043 -1.9441
    9SAPS  C318 1194   1.800   3.124   5.005 -0.4652 -0.5221 -0.1080
    9SAPS  H18X 1195   1.887   3.067   4.966  0.8461  2.5402 -1.9813
    9SAPS  H18Y 1196   1.805   3.219   4.948  1.4227 -0.8112 -0.4922
    9SAPS  H18Z 1197   1.700   3.079   4.988  0.7659 -3.3863 -0.4064
   10SAPS     N 1198   2.986   1.527   7.894 -0.2378  1.1484  0.0782
   10SAPS   HN1 1199   2.979   1.425   7.912  0.0728  0.6397 -2.3560
   10SAPS   HN2 1200   3.083   1.552   7.919 -0.2528  0.3463  1.0125
   10SAPS   HN3 1201   2.920   1.596   7.937 -1.6673  2.2036 -3.4203
   10SAPS   C12 1202   2.950   1.540   7.753 -0.0668  0.7850 -0.6445
   10SAPS  H12A 1203   3.007   1.472   7.691 -1.9759 -2.3185  0.7592
   10SAPS   C13 1204   2.803   1.490   7.738 -0.1154 -0.1139  0.6652
   10SAPS  O13A 1205   2.761   1.405   7.817  0.0818 -0.2388 -0.2567
   10SAPS  O13B 1206   2.759   1.496   7.617  0.0968  0.1083 -0.0208
   10SAPS   C11 1207   2.961   1.688   7.722  0.1221  0.6268  0.2744
   10SAPS  H11A 1208   2.924   1.696   7.618  0.6516  0.2646  0.0555
   10SAPS  H11B 1209   3.068   1.715   7.735  0.0077 -0.1118  3.4559
   10SAPS     P 1210   2.898   1.920   7.833  0.0183  0.1798 -0.3878
   10SAPS   O13 1211   2.811   1.963   7.942  0.2909 -0.3849  0.0015
   10SAPS   O14 1212   3.042   1.935   7.845  0.2705  0.4604  0.1926
   10SAPS   O12 1213   2.875   1.764   7.811  0.7330 -0.1214  0.0441
   10SAPS   O11 1214   2.829   1.979   7.704  0.6293  0.1418 -0.0128
   10SAPS    C1 1215   2.685   1.962   7.678 -1.0068  0.3529  0.0360
   10SAPS    HA 1216   2.630   1.903   7.755 -1.2077 -0.3145 -0.6049
   10SAPS    HB 1217   2.635   2.061   7.675 -1.9060 -0.0366  1.1019
   10SAPS    C2 1218   2.664   1.889   7.535 -0.5549  0.0339 -0.8512
   10SAPS    HS 1219   2.690   1.784   7.560  0.3127  0.2077 -0.9898
   10SAPS   O21 1220   2.753   1.938   7.434  0.0325  0.0064 -0.3327
   10SAPS   C21 1221   2.756   1.868   7.326  0.2775  0.2608 -0.1124
   10SAPS   O22 1222   2.729   1.749   7.329 -0.0757  0.7552  0.4964
   10SAPS   C22 1223   2.797   1.950   7.205  0.0866 -0.7650  0.0199
   10SAPS   H2R 1224   2.728   2.037   7.198  1.0958  0.2618  1.9000
   10SAPS   H2S 1225   2.897   1.984   7.241  0.0880 -0.4841 -0.2490
   10SAPS    C3 1226   2.511   1.889   7.500 -0.1424  0.5356  0.3508
   10SAPS    HX 1227   2.485   1.991   7.464 -1.8848  0.6001  1.6861
   10SAPS    HY 1228   2.463   1.859   7.595  0.1165 -0.7078  0.0998
   10SAPS   O31 1229   2.478   1.799   7.397  0.0667 -0.5052 -0.1056
   10SAPS   C31 1230   2.362   1.809   7.337  0.6033  0.0222 -0.0390
   10SAPS   O32 1231   2.273   1.892   7.362 -0.5190  0.0407  0.3388
   10SAPS   C32 1232   2.352   1.714   7.222  0.8633 -0.5918 -0.2696
   10SAPS   H2X 1233   2.286   1.627   7.241  0.3497 -0.4043 -1.1257
   10SAPS   H2Y 1234   2.448   1.660   7.209 -0.1369 -2.5874  0.2663
   10SAPS   C23 1235   2.814   1.879   7.075 -0.2896  0.4040  0.3723
   10SAPS   H3R 1236   2.802   1.956   6.996 -1.1655  0.1027  0.2034
   10SAPS   H3S 1237   2.737   1.799   7.064 -1.7618  1.8990 -0.5633
   10SAPS   C24 1238   2.951   1.808   7.069 -0.1773  0.2236  0.6418
   10SAPS   H4R 1239   2.949   1.743   7.159  0.9764 -0.4663  0.1999
   10SAPS   H4S 1240   3.027   1.889   7.074 -1.4615  1.7410 -1.9670
   10SAPS   C25 1241   2.949   1.722   6.937 -0.5503 -0.4083  0.3189
   10SAPS   H5R 1242   2.957   1.785   6.847  1.4560  0.3350  0.9653
   10SAPS   C26 1243   2.925   1.587   6.934 -0.9325 -0.4768  0.1538
   10SAPS   H6R 1244   2.925   1.536   6.837 -0.9549 -0.9299  0.3915
   10SAPS   C27 1245   2.909   1.495   7.052  0.9334  0.0390 -0.6281
   10SAPS   H7R 1246   2.844   1.546   7.126  1.6086 -0.4724  0.3356
   10SAPS   H7S 1247   3.010   1.488   7.097 -0.2696  1.2767  2.5506
   10SAPS   C28 1248   2.850   1.366   7.011 -0.3142  0.4383  0.0085
   10SAPS   H8R 1249   2.876   1.338   6.908 -1.3373  3.7810 -1.3055
   10SAPS   C29 1250   2.743   1.307   7.051 -0.7767 -0.0351 -0.0774
   10SAPS   H9R 1251   2.720   1.219   6.988  3.1833 -1.7407  0.5585
   10SAPS  C210 1252   2.647   1.336   7.161 -0.1843  0.2204 -0.2405
   10SAPS  H10R 1253   2.607   1.437   7.140 -0.5921  0.0242 -0.4055
   10SAPS  H10S 1254   2.697   1.352   7.259 -0.7506  2.0295 -0.2086
   10SAPS  C211 1255   2.544   1.227   7.173 -0.7970  0.0771 -0.2504
   10SAPS  H11R 1256   2.580   1.140   7.229 -0.2409  0.1215 -0.5308
   10SAPS  C212 1257   2.414   1.221   7.137 -0.5404 -0.5448 -0.4738
   10SAPS  H12R 1258   2.375   1.120   7.148  0.6950 -0.7760  2.7474
   10SAPS  C213 1259   2.329   1.327   7.065  0.3044 -0.4372 -0.4845
   10SAPS  H13R 1260   2.379   1.424   7.044 -0.9814 -0.1798 -2.7955
   10SAPS  H13S 1261   2.239   1.355   7.124 -0.5161  1.1088 -2.3637
   10SAPS  C214 1262   2.276   1.271   6.933 -0.1295  0.1448  0.2013
   10SAPS  H14R 1263   2.229   1.171   6.934  0.6879 -0.2490  0.9513
   10SAPS  C215 1264   2.264   1.349   6.826  0.1232  0.2896  0.1989
   10SAPS  H15R 1265   2.230   1.312   6.729  1.5234  0.2173 -0.2851
   10SAPS  C216 1266   2.306   1.491   6.806 -0.2696 -0.2678  0.2699
   10SAPS  H16R 1267   2.286   1.550   6.898 -2.3022  2.8643 -1.9586
   10SAPS  H16S 1268   2.249   1.544   6.726 -0.2034 -1.4697 -0.6044
   10SAPS  C217 1269   2.455   1.506   6.758  0.0699 -0.5042 -0.2295
   10SAPS  H17R 1270   2.525   1.456   6.828 -0.2159  0.4928  0.8038
   10SAPS  H17S 1271   2.473   1.614   6.776 -0.8250 -0.5498  1.0621
   10SAPS  C218 1272   2.471   1.492   6.602 -0.2008  0.3397 -0.2226
   10SAPS  H18R 1273   2.382   1.532   6.548 -1.0545 -0.5808  0.4584
   10SAPS  H18S 1274   2.455   1.382   6.589 -0.4246  0.2990  0.3736
   10SAPS  C219 1275   2.600   1.545   6.538  0.7260  0.7280  0.1883
   10SAPS  H19R 1276   2.681   1.487   6.589  0.5304  2.0705  2.1337
   10SAPS  H19S 1277   2.605   1.644   6.587 -0.5668  1.0024 -0.1954
   10SAPS  C220 1278   2.617   1.533   6.380 -0.2775 -0.1210 -1.0826
   10SAPS  H20R 1279   2.589   1.429   6.354  3.9480 -1.0805 -2.7026
   10SAPS  H20S 1280   2.716   1.562   6.339  0.5295 -0.9470  0.1820
   10SAPS  H20T 1281   2.529   1.594   6.351 -0.2699 -0.8383 -2.7034
   10SAPS   C33 1282   2.323   1.787   7.084  0.7170  1.1155 -0.1585
   10SAPS   H3X 1283   2.232   1.851   7.090  0.0102  0.1460 -0.2783
   10SAPS   H3Y 1284   2.300   1.703   7.016 -0.9354  0.2909  1.3330
   10SAPS   C34 1285   2.446   1.853   7.038 -0.8068  0.1408 -0.3356
   10SAPS   H4X 1286   2.535   1.788   7.025 -1.3465 -0.7100  0.1243
   10SAPS   H4Y 1287   2.467   1.933   7.112 -2.1197 -1.9664  2.5307
   10SAPS   C35 1288   2.436   1.912   6.895  0.5875 -0.3104 -0.1168
   10SAPS   H5X 1289   2.383   2.010   6.893  0.0526 -0.5944 -0.2751
   10SAPS   H5Y 1290   2.370   1.843   6.837 -2.4184  0.0642  2.5568
   10SAPS   C36 1291   2.562   1.939   6.813 -0.1171 -0.0310  0.1262
   10SAPS   H6X 1292   2.592   1.840   6.772  0.7294  0.7701 -1.2803
   10SAPS   H6Y 1293   2.639   1.986   6.877 -0.4419  1.8826 -0.8228
   10SAPS   C37 1294   2.525   2.032   6.697  0.2994  0.5345 -0.1196
   10SAPS   H7X 1295   2.501   2.134   6.735  2.0213  0.9355 -0.0295
   10SAPS   H7Y 1296   2.425   2.008   6.655 -0.0270  2.4591 -0.5386
   10SAPS   C38 1297   2.630   2.031   6.583 -0.1702 -0.1144  0.2065
   10SAPS   H8X 1298   2.728   2.042   6.634 -0.1945 -2.1552  0.7899
   10SAPS   H8Y 1299   2.618   2.113   6.508  0.3620 -0.3858 -0.1855
   10SAPS   C39 1300   2.641   1.898   6.502 -0.4139  0.6300  0.3320
   10SAPS   H9X 1301   2.560   1.887   6.427  1.0008 -0.2718 -1.1323
   10SAPS   H9Y 1302   2.643   1.814   6.575  0.9786 -2.9444 -3.4247
   10SAPS  C310 1303   2.780   1.879   6.435 -0.1520 -0.5373 -0.1764
   10SAPS  H10X 1304   2.777   1.782   6.381 -0.9406 -0.2416 -0.6684
   10SAPS  H10Y 1305   2.853   1.879   6.519 -1.1577  0.7587  0.7316
   10SAPS  C311 1306   2.814   1.978   6.323  0.8432  0.3033 -0.4186
   10SAPS  H11X 1307   2.919   1.960   6.293  1.3002 -0.3540  1.4371
   10SAPS  H11Y 1308   2.815   2.083   6.359  1.4651 -0.1221  0.8544
   10SAPS  C312 1309   2.713   1.972   6.201  0.5047  0.9601 -0.1126
   10SAPS  H12X 1310   2.766   2.032   6.124 -0.9463  0.3886 -1.6320
   10SAPS  H12Y 1311   2.617   2.027   6.214  0.2587  0.4404  0.2953
   10SAPS  C313 1312   2.678   1.836   6.131  0.3914 -0.6687  0.6786
   10SAPS  H13X 1313   2.623   1.764   6.195 -1.4248  0.1319  0.0828
   10SAPS  H13Y 1314   2.775   1.788   6.109 -1.4575 -3.4153 -2.3096
   10SAPS  C314 1315   2.596   1.849   5.999  0.6893 -0.0612  0.1068
   10SAPS  H14X 1316   2.531   1.938   5.995  2.0576  0.9705  0.1849
   10SAPS  H14Y 1317   2.531   1.760   5.979  1.6371 -0.0409 -3.8368
   10SAPS  C315 1318   2.692   1.846   5.879  0.3275 -0.3175  0.2564
   10SAPS  H15X 1319   2.730   1.742   5.867  0.6730 -0.0638 -0.9530
   10SAPS  H15Y 1320   2.788   1.896   5.901  0.5584 -0.7648  0.2770
   10SAPS  C316 1321   2.623   1.870   5.746  1.0463  0.6170  0.7652
   10SAPS  H16X 1322   2.581   1.970   5.770 -1.1447 -0.7826  3.2667
   10SAPS  H16Y 1323   2.530   1.811   5.730 -1.0486  3.7876  0.2463
   10SAPS  C317 1324   2.720   1.857   5.622 -0.1345 -0.1025 -0.0593
   10SAPS  H17X 1325   2.657   1.881   5.533 -1.9939  2.0132  1.7039
   10SAPS  H17Y 1326   2.744   1.749   5.616  0.1595  0.0103 -1.1003
   10SAPS  C318 1327   2.842   1.954   5.639  0.4162  0.7282 -0.7742
   10SAPS  H18X 1328   2.897   1.910   5.725 -0.6513 -1.2058 -1.0174
   10SAPS  H18Y 1329   2.809   2.056   5.665 -1.0540 -0.1006  0.7472
   10SAPS  H18Z 1330   2.922   1.947   5.562  0.4188 -1.4000 -0.6470
   11SAPS     N 1331   2.353   5.744   3.160  0.3274  0.1426 -0.3794
   11SAPS   HN1 1332   2.405   5.833   3.163  1.2681 -0.4137  0.6720
   11SAPS   HN2 1333   2.256   5.749   3.124 -0.2608 -1.5970  0.8172
   11SAPS   HN3 1334   2.355   5.716   3.260  1.4137 -0.9140 -0.6688
   11SAPS   C12 1335   2.432   5.653   3.077  0.0490  0.2152 -0.3001
   11SAPS  H12A 1336   2.431   5.691   2.976 -0.7071  2.5548  0.5339
   11SAPS   C13 1337   2.576   5.637   3.119 -0.5624  0.2611 -0.0650
   11SAPS  O13A 1338   2.620   5.710   3.206 -0.0059 -0.3853 -0.0805
   11SAPS  O13B 1339   2.652   5.574   3.044 -0.2193 -0.1906 -0.1289
   11SAPS   C11 1340   2.363   5.507   3.067  0.2302 -0.7129 -0.3916
   11SAPS  H11A 1341   2.360   5.469   3.171 -0.6034  1.7179  0.5538
   11SAPS  H11B 1342   2.435   5.451   3.003  1.5342 -0.4081  0.7628
   11SAPS     P 1343   2.156   5.403   2.957 -0.2878 -0.1470 -0.1286
   11SAPS   O13 1344   2.031   5.459   2.903  0.0419  0.5502 -0.1124
   11SAPS   O14 1345   2.239   5.324   2.863 -0.4287  0.1089  0.3813
   11SAPS   O12 1346   2.234   5.530   3.008  0.1901 -0.1794  0.3287
   11SAPS   O11 1347   2.146   5.321   3.091  0.8296  0.1558 -0.0735
   11SAPS    C1 1348   2.046   5.370   3.182  0.3259  0.2453 -0.0872
   11SAPS    HA 1349   2.070   5.474   3.213  1.7502 -0.7620  2.5030
   11SAPS    HB 1350   1.943   5.359   3.142 -0.2285  0.2553  1.2724
   11SAPS    C2 1351   2.052   5.289   3.311 -0.3655  0.1999 -0.0627
   11SAPS    HS 1352   1.977   5.332   3.381 -0.4196  0.5767 -0.3514
   11SAPS   O21 1353   2.185   5.285   3.373 -0.2733 -0.6632  0.0899
   11SAPS   C21 1354   2.226   5.393   3.435 -0.4691 -0.5347 -0.4084
   11SAPS   O22 1355   2.171   5.502   3.441  0.0477 -0.0911  0.3499
   11SAPS   C22 1356   2.372   5.387   3.491  0.0128  0.9118  0.9845
   11SAPS   H2R 1357   2.429   5.415   3.400 -1.1835  1.2667  0.3173
   11SAPS   H2S 1358   2.390   5.457   3.575 -0.1977 -1.2617  2.9654
   11SAPS    C3 1359   2.016   5.135   3.293 -0.1216 -0.2800  0.1619
   11SAPS    HX 1360   2.096   5.083   3.236  2.2727  1.1306  2.0665
   11SAPS    HY 1361   1.922   5.133   3.233  0.7599 -0.1988 -1.2787
   11SAPS   O31 1362   1.990   5.063   3.421 -0.2682 -0.0447  0.3465
   11SAPS   C31 1363   2.063   4.949   3.438 -0.2514 -0.2686 -0.3772
   11SAPS   O32 1364   2.152   4.905   3.365  0.4722  0.3708  0.0470
   11SAPS   C32 1365   2.020   4.891   3.573  0.0600 -0.3551 -0.2218
   11SAPS   H2X 1366   1.913   4.862   3.572 -0.8558  2.4606  1.4932
   11SAPS   H2Y 1367   2.032   4.972   3.649  0.8517 -1.8693  1.3495
   11SAPS   C23 1368   2.412   5.246   3.539  0.2916  0.5619  0.0039
   11SAPS   H3R 1369   2.437   5.172   3.461  2.9664  2.2933 -0.9420
   11SAPS   H3S 1370   2.336   5.209   3.611 -0.8857  0.0604 -1.4555
   11SAPS   C24 1371   2.540   5.262   3.629  0.1340  0.1893  0.2481
   11SAPS   H4R 1372   2.518   5.331   3.713 -0.7273  3.1437 -2.2313
   11SAPS   H4S 1373   2.608   5.329   3.573  0.4974 -1.6825 -1.7066
   11SAPS   C25 1374   2.615   5.139   3.671  0.5214  0.1444 -0.4095
   11SAPS   H5R 1375   2.598   5.061   3.594  0.0105  0.2300 -0.3898
   11SAPS   C26 1376   2.703   5.124   3.770  0.2820 -0.1440 -0.3031
   11SAPS   H6R 1377   2.737   5.020   3.780 -1.0820 -0.6358 -0.5146
   11SAPS   C27 1378   2.760   5.241   3.851  0.7846  0.1706  0.2444
   11SAPS   H7R 1379   2.700   5.335   3.845 -1.2043 -0.9218  1.7394
   11SAPS   H7S 1380   2.855   5.276   3.806 -0.4332  0.1587 -2.5354
   11SAPS   C28 1381   2.781   5.215   3.997  0.1628 -0.8025 -0.2116
   11SAPS   H8R 1382   2.743   5.121   4.039  1.1621 -2.0599 -2.0007
   11SAPS   C29 1383   2.864   5.291   4.070  0.9353 -0.2380 -0.4366
   11SAPS   H9R 1384   2.883   5.271   4.176  1.4546 -2.3685 -0.8815
   11SAPS  C210 1385   2.930   5.412   4.014 -0.4996  0.4008  0.8393
   11SAPS  H10R 1386   2.877   5.505   4.042 -0.1170  0.9739 -0.2496
   11SAPS  H10S 1387   2.936   5.403   3.903 -1.1539 -0.5152  0.8680
   11SAPS  C211 1388   3.074   5.429   4.058  0.2077  0.5266 -0.0175
   11SAPS  H11R 1389   3.153   5.413   3.984  1.1297 -2.9824  1.5202
   11SAPS  C212 1390   3.112   5.473   4.171 -0.7551 -0.0336  0.4646
   11SAPS  H12R 1391   3.215   5.448   4.202 -0.7772  0.5433  1.0330
   11SAPS  C213 1392   3.028   5.504   4.289  0.0269  0.7037 -0.7405
   11SAPS  H13R 1393   3.072   5.467   4.384 -1.3294 -0.5413 -0.5565
   11SAPS  H13S 1394   2.938   5.439   4.282  0.1391  0.5341 -0.5985
   11SAPS  C214 1395   2.976   5.644   4.301  0.4513 -0.2992  0.6008
   11SAPS  H14R 1396   2.931   5.673   4.205  1.8860 -0.1119 -0.0463
   11SAPS  C215 1397   2.957   5.727   4.407  0.2397  0.2761 -0.5836
   11SAPS  H15R 1398   2.914   5.828   4.406  2.2723  1.3421  2.3989
   11SAPS  C216 1399   2.983   5.688   4.548  0.1437  0.3631 -0.4412
   11SAPS  H16R 1400   3.075   5.738   4.585  1.0287 -0.9267 -0.8360
   11SAPS  H16S 1401   2.997   5.578   4.552 -0.3196  0.3300  0.6433
   11SAPS  C217 1402   2.880   5.732   4.644 -0.0685  1.0741 -0.1120
   11SAPS  H17R 1403   2.863   5.842   4.642 -0.3274  1.1037  1.8035
   11SAPS  H17S 1404   2.903   5.711   4.751 -3.7092  0.4536  0.6738
   11SAPS  C218 1405   2.748   5.654   4.615  0.0571  0.0690  0.5677
   11SAPS  H18R 1406   2.773   5.548   4.638 -0.7281 -0.4224 -0.7052
   11SAPS  H18S 1407   2.723   5.655   4.507  2.0873 -3.3047 -0.0888
   11SAPS  C219 1408   2.630   5.701   4.704 -1.0751  0.3749 -0.5480
   11SAPS  H19R 1409   2.609   5.805   4.670  0.7990  0.8189 -0.5031
   11SAPS  H19S 1410   2.666   5.701   4.809  0.5507  3.2308 -0.9908
   11SAPS  C220 1411   2.509   5.612   4.698 -0.1956 -0.2948 -0.3099
   11SAPS  H20R 1412   2.539   5.507   4.720  1.0800 -0.0987 -1.0347
   11SAPS  H20S 1413   2.469   5.624   4.595 -1.8787 -0.7346  0.2569
   11SAPS  H20T 1414   2.433   5.632   4.777  1.2984 -0.9051  1.3346
   11SAPS   C33 1415   2.108   4.774   3.632 -0.5875  0.0055  0.0720
   11SAPS   H3X 1416   2.113   4.699   3.550 -0.2608  0.1145 -0.0102
   11SAPS   H3Y 1417   2.055   4.730   3.720  0.3513 -0.0585  0.6189
   11SAPS   C34 1418   2.243   4.821   3.673 -0.3659 -0.2710 -0.6044
   11SAPS   H4X 1419   2.237   4.917   3.727 -0.6423  0.0522 -1.1993
   11SAPS   H4Y 1420   2.291   4.845   3.576  3.7374 -2.7023  0.5447
   11SAPS   C35 1421   2.343   4.720   3.746  0.5678  0.0704  0.1581
   11SAPS   H5X 1422   2.430   4.778   3.784  0.6688  1.7127 -2.3078
   11SAPS   H5Y 1423   2.377   4.646   3.670 -0.8377 -0.2323 -0.1933
   11SAPS   C36 1424   2.277   4.633   3.854 -0.3613  0.2614 -0.4669
   11SAPS   H6X 1425   2.208   4.563   3.802 -0.5312  1.2551 -1.6117
   11SAPS   H6Y 1426   2.215   4.707   3.909 -2.6157 -1.0675 -1.0926
   11SAPS   C37 1427   2.370   4.560   3.952  0.2239  0.1019  0.0328
   11SAPS   H7X 1428   2.452   4.622   3.993  0.0256 -0.3573  1.1805
   11SAPS   H7Y 1429   2.418   4.481   3.891 -2.3851 -0.1137 -1.9168
   11SAPS   C38 1430   2.293   4.498   4.075  0.0387 -0.0230 -0.0329
   11SAPS   H8X 1431   2.351   4.414   4.118  1.8347  1.2617  0.1720
   11SAPS   H8Y 1432   2.192   4.466   4.041  0.4392 -0.4345 -0.8730
   11SAPS   C39 1433   2.285   4.603   4.189  0.0325  0.5295  0.1608
   11SAPS   H9X 1434   2.200   4.667   4.157  0.2847  0.9179  0.2611
   11SAPS   H9Y 1435   2.372   4.672   4.192 -0.5287  1.2505  0.2067
   11SAPS  C310 1436   2.250   4.529   4.317  0.5229 -0.1645 -0.2157
   11SAPS  H10X 1437   2.331   4.466   4.360  0.7458  1.5744  2.0989
   11SAPS  H10Y 1438   2.168   4.458   4.293 -0.0147 -0.1968  1.5609
   11SAPS  C311 1439   2.209   4.624   4.429  0.2754  0.2155  0.1118
   11SAPS  H11X 1440   2.129   4.693   4.394 -0.3062  0.0993  1.1618
   11SAPS  H11Y 1441   2.294   4.690   4.454  1.9204 -0.2447 -3.6476
   11SAPS  C312 1442   2.155   4.559   4.561 -0.1566 -0.1321  0.2731
   11SAPS  H12X 1443   2.233   4.494   4.606  2.7763  2.1464 -1.2168
   11SAPS  H12Y 1444   2.076   4.485   4.536  0.8981 -0.9412 -0.8033
   11SAPS  C313 1445   2.104   4.667   4.663 -0.5661 -0.4650 -0.5690
   11SAPS  H13X 1446   2.034   4.732   4.607  1.0857 -0.4696 -2.8015
   11SAPS  H13Y 1447   2.199   4.724   4.673 -1.0798  0.3516 -0.2538
   11SAPS  C314 1448   2.039   4.602   4.784 -0.7166  0.3042  0.1502
   11SAPS  H14X 1449   2.110   4.529   4.829  1.1466  1.7400 -0.3272
   11SAPS  H14Y 1450   1.956   4.542   4.741 -1.1704 -0.0673  1.4857
   11SAPS  C315 1451   1.991   4.707   4.883  0.1479  0.0247 -0.7562
   11SAPS  H15X 1452   1.930   4.771   4.815  0.4711 -1.6041 -2.6389
   11SAPS  H15Y 1453   2.075   4.773   4.916  1.1144 -0.7875 -1.5616
   11SAPS  C316 1454   1.913   4.652   5.003  0.4991 -0.2671  0.4055
   11SAPS  H16X 1455   1.821   4.594   4.980 -0.3783  0.7059  1.3029
   11SAPS  H16Y 1456   1.883   4.743   5.061 -0.8072  0.3375 -1.1495
   11SAPS  C317 1457   2.002   4.560   5.089 -0.1779  0.1012 -0.2803
   11SAPS  H17X 1458   2.105   4.601   5.088  0.1212 -0.6387 -0.2444
   11SAPS  H17Y 1459   2.006   4.458   5.044 -1.6652 -0.6774  1.2414
   11SAPS  C318 1460   1.959   4.534   5.236  0.0407  0.6797 -0.6115
   11SAPS  H18X 1461   2.034   4.473   5.290  0.4933  0.8694 -1.0230
   11SAPS  H18Y 1462   1.865   4.476   5.248  1.5320 -1.5411  1.2579
   11SAPS  H18Z 1463   1.949   4.622   5.304  0.6542  0.3710 -0.1100
   12SAPS     N 1464   3.132   4.615   3.202 -0.4551 -0.0743  0.2139
   12SAPS   HN1 1465   3.091   4.710   3.195  0.8429  0.4147 -1.4732
   12SAPS   HN2 1466   3.083   4.563   3.277 -1.2568 -0.1297 -0.3318
   12SAPS   HN3 1467   3.229   4.628   3.237 -0.1753 -0.9457 -0.1911
   12SAPS   C12 1468   3.135   4.556   3.068  0.4617  0.5629 -0.0263
   12SAPS  H12A 1469   3.032   4.555   3.035  0.5194 -2.0361 -0.3495
   12SAPS   C13 1470   3.209   4.640   2.965  0.0937  0.0057  0.5451
   12SAPS  O13A 1471   3.254   4.758   2.995  0.3811  0.1500 -0.2066
   12SAPS  O13B 1472   3.212   4.593   2.847 -0.2548 -0.3862 -0.5462
   12SAPS   C11 1473   3.188   4.410   3.077 -0.5691 -0.4985 -0.0650
   12SAPS  H11A 1474   3.295   4.413   3.108 -0.0199  0.1858 -1.9002
   12SAPS  H11B 1475   3.178   4.370   2.973 -2.4713 -2.1516  0.6937
   12SAPS     P 1476   3.086   4.181   3.141 -0.1178 -0.3463 -0.0117
   12SAPS   O13 1477   2.958   4.180   3.063  0.0195  0.7912  0.1140
   12SAPS   O14 1478   3.202   4.108   3.076  0.0205 -0.4640  0.0914
   12SAPS   O12 1479   3.125   4.328   3.179  0.3249 -0.1562  0.2124
   12SAPS   O11 1480   3.051   4.113   3.279 -0.2780  0.0718  0.3128
   12SAPS    C1 1481   3.017   4.192   3.395 -0.2728 -0.2188 -0.0114
   12SAPS    HA 1482   3.012   4.117   3.477 -1.1094 -0.3502 -0.1704
   12SAPS    HB 1483   3.104   4.258   3.413 -0.5017 -0.4178  1.9944
   12SAPS    C2 1484   2.871   4.247   3.384  0.5747  0.0288  0.0815
   12SAPS    HS 1485   2.861   4.296   3.285  0.5469  2.1677  1.0808
   12SAPS   O21 1486   2.848   4.348   3.480 -0.3743 -0.1265 -0.6367
   12SAPS   C21 1487   2.898   4.470   3.449 -0.4312  0.1194  0.0829
   12SAPS   O22 1488   2.957   4.488   3.342  0.6997  0.0617 -0.3719
   12SAPS   C22 1489   2.870   4.564   3.567 -0.2113 -0.8746  0.5938
   12SAPS   H2R 1490   2.765   4.549   3.598 -1.3323 -5.1882 -3.8789
   12SAPS   H2S 1491   2.945   4.553   3.648  1.4660  2.2191 -0.3786
   12SAPS    C3 1492   2.760   4.130   3.393 -0.5699 -0.3826  0.1756
   12SAPS    HX 1493   2.786   4.055   3.316  0.4850  0.6833 -0.5303
   12SAPS    HY 1494   2.653   4.158   3.381 -0.7689 -0.7003  1.0697
   12SAPS   O31 1495   2.777   4.062   3.517  0.2732  0.0643  0.3104
   12SAPS   C31 1496   2.700   4.113   3.614 -0.0628 -0.1275  0.1681
   12SAPS   O32 1497   2.612   4.194   3.596 -0.2743  0.4095  0.0424
   12SAPS   C32 1498   2.713   4.027   3.745  0.0127  0.2834 -0.0594
   12SAPS   H2X 1499   2.816   4.038   3.785 -0.8421  0.0275  2.4009
   12SAPS   H2Y 1500   2.680   3.925   3.715 -0.0885  1.0997 -3.0371
   12SAPS   C23 1501   2.892   4.711   3.530  0.3308 -0.8273 -0.0516
   12SAPS   H3R 1502   2.829   4.727   3.440 -1.3595  0.1841  1.2245
   12SAPS   H3S 1503   2.999   4.736   3.520  0.6758 -1.6047  1.3558
   12SAPS   C24 1504   2.833   4.808   3.638 -0.1705 -0.3407 -0.6881
   12SAPS   H4R 1505   2.723   4.789   3.637 -0.4127  0.9499 -1.7024
   12SAPS   H4S 1506   2.838   4.914   3.606  2.0784  0.5354  2.1428
   12SAPS   C25 1507   2.907   4.788   3.766 -0.1111  0.0304  0.8523
   12SAPS   H5R 1508   3.012   4.814   3.747  0.0239 -0.4465  0.9434
   12SAPS   C26 1509   2.862   4.740   3.883  0.4355  0.5398 -0.6367
   12SAPS   H6R 1510   2.928   4.743   3.971 -1.0301  3.6021  0.5323
   12SAPS   C27 1511   2.719   4.715   3.916  0.5934 -0.1285 -0.2381
   12SAPS   H7R 1512   2.711   4.610   3.952 -0.0548 -0.0290 -0.0739
   12SAPS   H7S 1513   2.648   4.714   3.830  0.2079 -0.1432  0.0784
   12SAPS   C28 1514   2.665   4.810   4.019 -0.4836  0.0199 -1.0097
   12SAPS   H8R 1515   2.615   4.902   3.983  0.9240  2.1210  1.9352
   12SAPS   C29 1516   2.672   4.791   4.153  0.1063  0.0716  0.0585
   12SAPS   H9R 1517   2.614   4.854   4.223  0.3349 -0.9172  1.1763
   12SAPS  C210 1518   2.727   4.668   4.229  0.2287 -0.4527  0.1007
   12SAPS  H10R 1519   2.811   4.695   4.297 -1.7629  2.1091  1.7324
   12SAPS  H10S 1520   2.798   4.606   4.169  1.9075 -0.8010  2.3032
   12SAPS  C211 1521   2.626   4.576   4.293 -0.7564  0.4917  0.1532
   12SAPS  H11R 1522   2.579   4.508   4.220 -1.9601  0.7077  0.7118
   12SAPS  C212 1523   2.579   4.589   4.420 -0.2625  0.2085 -0.1857
   12SAPS  H12R 1524   2.522   4.509   4.469  1.1341 -0.3605  0.5819
   12SAPS  C213 1525   2.615   4.691   4.524 -0.6084  0.3213 -0.7694
   12SAPS  H13R 1526   2.608   4.788   4.471  0.3727 -1.1991 -3.8684
   12SAPS  H13S 1527   2.717   4.667   4.559 -0.2483  4.3450  1.5183
   12SAPS  C214 1528   2.519   4.689   4.645 -0.7010 -0.0120  0.6948
   12SAPS  H14R 1529   2.429   4.628   4.625 -2.0116  0.8479  3.4442
   12SAPS  C215 1530   2.521   4.751   4.766  0.5766  0.0598  0.5362
   12SAPS  H15R 1531   2.449   4.719   4.843  0.3680 -2.4144 -0.5756
   12SAPS  C216 1532   2.635   4.841   4.817 -0.0401  0.0618  0.2325
   12SAPS  H16R 1533   2.609   4.918   4.892  2.2317  0.5901  0.5690
   12SAPS  H16S 1534   2.675   4.907   4.736 -0.2680  0.8859  0.7755
   12SAPS  C217 1535   2.767   4.766   4.869 -0.9110  0.0619  0.4473
   12SAPS  H17R 1536   2.807   4.683   4.807 -0.9048 -0.1444  0.7263
   12SAPS  H17S 1537   2.741   4.714   4.964 -1.9909  0.3933  0.3379
   12SAPS  C218 1538   2.880   4.868   4.905  0.3059  0.0273  0.2574
   12SAPS  H18R 1539   2.897   4.913   4.805 -0.9719 -1.3281 -0.6046
   12SAPS  H18S 1540   2.969   4.811   4.938  1.9069  2.7104  0.8523
   12SAPS  C219 1541   2.845   4.978   5.005 -0.0758  0.3077  0.1065
   12SAPS  H19R 1542   2.747   5.028   4.989  0.1061  1.4541  2.2631
   12SAPS  H19S 1543   2.922   5.057   4.994 -0.2715  0.8110  2.0014
   12SAPS  C220 1544   2.854   4.921   5.148 -0.2605 -0.4911 -0.2523
   12SAPS  H20R 1545   2.818   4.819   5.171  1.4318 -1.1651 -0.4654
   12SAPS  H20S 1546   2.818   4.994   5.224  1.4320 -0.9969  1.0907
   12SAPS  H20T 1547   2.964   4.908   5.159 -0.3613 -0.6195  0.7210
   12SAPS   C33 1548   2.623   4.071   3.854 -0.8301 -0.3593 -0.4508
   12SAPS   H3X 1549   2.592   3.989   3.922  0.6631  0.8867  1.8509
   12SAPS   H3Y 1550   2.536   4.124   3.808  0.6902  1.2241 -1.6189
   12SAPS   C34 1551   2.694   4.175   3.941  0.0944  0.0208 -0.7163
   12SAPS   H4X 1552   2.712   4.263   3.876  0.1865 -0.1139 -0.8782
   12SAPS   H4Y 1553   2.794   4.138   3.975  0.3054  1.8333  0.7754
   12SAPS   C35 1554   2.615   4.220   4.064 -0.5259 -0.2330  0.2652
   12SAPS   H5X 1555   2.511   4.243   4.032 -0.7366  1.3689  1.9238
   12SAPS   H5Y 1556   2.658   4.314   4.105  0.3007  0.0600 -1.1777
   12SAPS   C36 1557   2.609   4.120   4.177 -0.7098 -0.1005  0.3304
   12SAPS   H6X 1558   2.712   4.090   4.204  0.5738  1.0393 -2.7488
   12SAPS   H6Y 1559   2.564   4.030   4.129  2.4550 -0.4367 -2.4446
   12SAPS   C37 1560   2.531   4.167   4.307 -0.0794 -1.2895  0.3173
   12SAPS   H7X 1561   2.431   4.195   4.270 -0.1422 -0.8987  0.7780
   12SAPS   H7Y 1562   2.592   4.250   4.349 -1.4068  0.4520 -1.0713
   12SAPS   C38 1563   2.509   4.057   4.411 -0.3325 -0.2672 -0.9503
   12SAPS   H8X 1564   2.599   3.992   4.410  0.1427  0.1630  2.4257
   12SAPS   H8Y 1565   2.430   3.985   4.379  0.5828 -1.8903  0.3201
   12SAPS   C39 1566   2.474   4.112   4.547 -0.3191 -0.2508  0.1155
   12SAPS   H9X 1567   2.427   4.025   4.598 -0.0872 -0.8700 -0.7224
   12SAPS   H9Y 1568   2.400   4.195   4.544  1.3655  1.2857 -0.7107
   12SAPS  C310 1569   2.587   4.152   4.640 -0.5834 -0.4319  0.0158
   12SAPS  H10X 1570   2.657   4.215   4.583 -1.9195  0.6967 -0.4453
   12SAPS  H10Y 1571   2.646   4.064   4.673 -1.6989 -1.8169 -1.5383
   12SAPS  C311 1572   2.541   4.206   4.769 -0.3356  0.0157 -0.0513
   12SAPS  H11X 1573   2.475   4.135   4.823  0.5634 -1.5247 -0.9217
   12SAPS  H11Y 1574   2.477   4.297   4.767  0.0810  0.5590  3.5429
   12SAPS  C312 1575   2.652   4.254   4.861 -0.1625  0.3971  0.0253
   12SAPS  H12X 1576   2.696   4.346   4.817  0.5922  0.0771  0.0854
   12SAPS  H12Y 1577   2.735   4.180   4.867 -1.6225 -1.3556 -0.3421
   12SAPS  C313 1578   2.616   4.298   5.002  0.3454  0.2649 -0.2370
   12SAPS  H13X 1579   2.710   4.318   5.056  0.0605 -0.2195  0.4544
   12SAPS  H13Y 1580   2.560   4.214   5.050 -1.0430  0.7778 -0.9044
   12SAPS  C314 1581   2.511   4.414   4.996  0.2401 -0.0334 -0.1814
   12SAPS  H14X 1582   2.409   4.376   4.972  0.9408 -1.0927 -1.5999
   12SAPS  H14Y 1583   2.540   4.489   4.920  2.3893 -1.0977 -0.4602
   12SAPS  C315 1584   2.513   4.479   5.146  0.1823  0.2992  0.3241
   12SAPS  H15X 1585   2.621   4.496   5.169  0.4690 -0.9433 -0.0115
   12SAPS  H15Y 1586   2.471   4.396   5.206  0.4956 -0.7036 -0.7951
   12SAPS  C316 1587   2.443   4.613   5.160 -0.4984  0.3999 -0.2710
   12SAPS  H16X 1588   2.346   4.615   5.104  0.6484  0.1150 -2.3643
   12SAPS  H16Y 1589   2.515   4.685   5.116  1.4419  0.2980  2.5004
   12SAPS  C317 1590   2.419   4.659   5.306 -0.1644  0.0180  0.1922
   12SAPS  H17X 1591   2.375   4.761   5.303 -1.5899 -0.5062  1.6415
   12SAPS  H17Y 1592   2.513   4.669   5.364 -0.4422  0.2496  0.6080
   12SAPS  C318 1593   2.327   4.567   5.386 -0.0787  0.0900 -0.2912
   12SAPS  H18X 1594   2.290   4.608   5.482  0.5932  0.6635 -0.2688
   12SAPS  H18Y 1595   2.377   4.472   5.416  0.0453 -0.2558 -1.5273
   12SAPS  H18Z 1596   2.244   4.530   5.321 -0.0386  1.6132 -1.2681
   13SAPS     N 1597   6.039   3.344   3.618 -0.1180  0.0540 -0.3734
   13SAPS   HN1 1598   6.061   3.439   3.652 -0.7874  1.3285 -3.2119
   13SAPS   HN2 1599   5.944   3.320   3.653  0.9365 -1.9828  1.3402
   13SAPS   HN3 1600   6.110   3.274   3.647 -2.3694 -2.4464 -0.4665
   13SAPS   C12 1601   6.037   3.350   3.472 -0.6086 -0.3032 -0.2245
   13SAPS  H12A 1602   5.955   3.418   3.457 -1.2648 -0.6102  1.7246
   13SAPS   C13 1603   6.165   3.399   3.406  0.3809 -0.0950 -0.4708
   13SAPS  O13A 1604   6.268   3.433   3.473 -0.1992  0.0117  0.0500
   13SAPS  O13B 1605   6.165   3.404   3.281  0.3418  0.2709  0.3496
   13SAPS   C11 1606   5.986   3.206   3.426  0.4248  0.1367  0.3502
   13SAPS  H11A 1607   6.052   3.129   3.472 -0.9784 -1.8365 -0.7742
   13SAPS  H11B 1608   6.006   3.196   3.317 -0.1909  0.2892  0.2196
   13SAPS     P 1609   5.733   3.223   3.396  0.4221 -0.2620  0.5379
   13SAPS   O13 1610   5.721   3.369   3.374  0.3575  0.6087  0.0523
   13SAPS   O14 1611   5.735   3.139   3.273 -0.0976 -0.0115 -0.3882
   13SAPS   O12 1612   5.856   3.188   3.479  0.0671  0.4973 -0.4408
   13SAPS   O11 1613   5.608   3.181   3.490  0.0934  0.4705 -0.3226
   13SAPS    C1 1614   5.630   3.162   3.632  0.4049 -0.2009  0.1100
   13SAPS    HA 1615   5.693   3.240   3.680  1.5622 -1.4413  0.6718
   13SAPS    HB 1616   5.531   3.155   3.682 -0.0752 -0.3769 -0.8428
   13SAPS    C2 1617   5.706   3.021   3.670  0.6529 -0.0652 -1.0884
   13SAPS    HS 1618   5.811   3.054   3.682  0.4090 -0.2152  2.1462
   13SAPS   O21 1619   5.706   2.926   3.557  0.0776 -0.2244 -0.2415
   13SAPS   C21 1620   5.797   2.829   3.552 -0.1921 -0.1407 -0.0002
   13SAPS   O22 1621   5.886   2.815   3.633 -0.0937 -0.0893  0.1851
   13SAPS   C22 1622   5.787   2.759   3.413  0.3746 -1.0620 -0.5651
   13SAPS   H2R 1623   5.683   2.732   3.383 -0.8303  1.6661  0.8019
   13SAPS   H2S 1624   5.829   2.839   3.349 -0.2331  0.0195  0.3544
   13SAPS    C3 1625   5.657   2.953   3.804  0.6434 -1.0559  0.7021
   13SAPS    HX 1626   5.560   2.902   3.787  0.0876 -0.6337  2.4642
   13SAPS    HY 1627   5.631   3.032   3.877 -0.5201  0.3187 -1.1204
   13SAPS   O31 1628   5.751   2.856   3.859  0.0304  0.0899  0.0030
   13SAPS   C31 1629   5.836   2.912   3.952  0.5665 -0.7125  0.3108
   13SAPS   O32 1630   5.831   3.023   4.000 -0.3118  0.4617 -0.4559
   13SAPS   C32 1631   5.912   2.798   4.010 -0.8555 -0.0744 -1.1136
   13SAPS   H2X 1632   5.943   2.838   4.109  2.1157 -1.5319 -1.3402
   13SAPS   H2Y 1633   6.009   2.780   3.958 -0.1178  1.4094 -0.3307
   13SAPS   C23 1634   5.868   2.623   3.407 -0.2902  0.2326  0.4110
   13SAPS   H3R 1635   5.967   2.632   3.457  0.5319 -2.8424 -0.4020
   13SAPS   H3S 1636   5.882   2.598   3.300 -0.9303  0.8413  0.1776
   13SAPS   C24 1637   5.793   2.514   3.479 -0.0420 -0.4105  0.5168
   13SAPS   H4R 1638   5.696   2.495   3.428  1.1021  0.1699 -2.0384
   13SAPS   H4S 1639   5.764   2.544   3.582 -1.6521  0.2152 -0.0881
   13SAPS   C25 1640   5.873   2.384   3.479  0.2018 -0.3753 -0.0781
   13SAPS   H5R 1641   5.913   2.346   3.383  1.9879 -1.2165  0.9561
   13SAPS   C26 1642   5.907   2.308   3.584  0.8157 -0.1263 -0.0332
   13SAPS   H6R 1643   5.961   2.215   3.559 -0.6459 -0.8366 -0.6819
   13SAPS   C27 1644   5.857   2.321   3.728  0.3199 -0.0773 -0.1169
   13SAPS   H7R 1645   5.856   2.430   3.752  0.7198  0.2192 -1.3585
   13SAPS   H7S 1646   5.929   2.284   3.804  1.5746 -0.6555 -1.5437
   13SAPS   C28 1647   5.721   2.260   3.747 -0.7702  0.4624  0.0366
   13SAPS   H8R 1648   5.648   2.278   3.666  0.0583  1.4599 -0.5082
   13SAPS   C29 1649   5.676   2.178   3.848  0.3564  0.5691  0.7645
   13SAPS   H9R 1650   5.570   2.150   3.836  0.2622  1.0244  0.5243
   13SAPS  C210 1651   5.750   2.141   3.974 -0.0427 -0.1338 -0.1115
   13SAPS  H10R 1652   5.679   2.156   4.058 -2.7462 -1.3663 -2.0022
   13SAPS  H10S 1653   5.835   2.212   3.984 -1.5917  2.2165 -2.3402
   13SAPS  C211 1654   5.800   1.998   3.960  0.2105  0.6770 -0.0090
   13SAPS  H11R 1655   5.860   1.975   3.870 -0.4199 -1.3836  0.0626
   13SAPS  C212 1656   5.785   1.902   4.053 -0.1412 -0.4163 -0.3640
   13SAPS  H12R 1657   5.812   1.798   4.027 -2.9311 -1.5880  1.0176
   13SAPS  C213 1658   5.708   1.920   4.180  0.4862 -0.4122  0.5479
   13SAPS  H13R 1659   5.741   2.011   4.235  0.2099  0.3294 -0.4828
   13SAPS  H13S 1660   5.750   1.842   4.248 -1.6927 -0.6383  1.7483
   13SAPS  C214 1661   5.556   1.921   4.165  0.3739 -0.6826  0.5388
   13SAPS  H14R 1662   5.518   1.999   4.098  0.3145 -1.3084 -0.1820
   13SAPS  C215 1663   5.470   1.850   4.236 -0.0590  0.5235 -0.0560
   13SAPS  H15R 1664   5.363   1.850   4.211  0.4169  0.2933 -2.2674
   13SAPS  C216 1665   5.512   1.752   4.341 -0.2179 -0.5135  0.0022
   13SAPS  H16R 1666   5.605   1.697   4.315 -0.4202 -1.3262  0.9356
   13SAPS  H16S 1667   5.443   1.665   4.339 -0.7608 -0.1424 -3.2525
   13SAPS  C217 1668   5.519   1.800   4.493  0.5619 -0.1754  0.3551
   13SAPS  H17R 1669   5.562   1.903   4.502 -0.3564  0.2311  0.1915
   13SAPS  H17S 1670   5.581   1.731   4.555  0.8303  1.1639  1.6384
   13SAPS  C218 1671   5.374   1.810   4.549  0.1535  0.1551  0.0400
   13SAPS  H18R 1672   5.318   1.715   4.532  1.7943 -0.4800 -2.4742
   13SAPS  H18S 1673   5.321   1.889   4.492 -0.4327 -0.5834 -0.4529
   13SAPS  C219 1674   5.378   1.842   4.700 -0.0432  0.6210  0.3628
   13SAPS  H19R 1675   5.279   1.884   4.728 -0.4875  1.6331 -2.4158
   13SAPS  H19S 1676   5.453   1.921   4.725  0.5462  0.3221 -0.4279
   13SAPS  C220 1677   5.390   1.711   4.781  0.1093  0.0071  0.1194
   13SAPS  H20R 1678   5.302   1.645   4.767  0.3305 -0.2627 -0.0082
   13SAPS  H20S 1679   5.390   1.738   4.889 -2.7005  0.1835  0.1470
   13SAPS  H20T 1680   5.484   1.658   4.755  0.5479  0.7448  0.1602
   13SAPS   C33 1681   5.841   2.664   4.045  0.0108  0.1031  0.1592
   13SAPS   H3X 1682   5.844   2.596   3.957  0.2204  0.4577 -0.1144
   13SAPS   H3Y 1683   5.733   2.682   4.060 -0.2534  0.0682 -1.4990
   13SAPS   C34 1684   5.898   2.592   4.173  0.2683 -0.7475  0.2694
   13SAPS   H4X 1685   5.875   2.658   4.259 -2.6241 -0.2565 -0.7824
   13SAPS   H4Y 1686   6.008   2.594   4.161  0.4286  0.9069  1.6440
   13SAPS   C35 1687   5.834   2.452   4.196 -0.2058 -0.4213 -0.7473
   13SAPS   H5X 1688   5.861   2.391   4.107  1.1111 -3.0018  1.2903
   13SAPS   H5Y 1689   5.724   2.458   4.203 -0.3866 -2.1930 -1.5107
   13SAPS   C36 1690   5.886   2.378   4.322 -0.3104 -0.3207  0.3301
   13SAPS   H6X 1691   5.857   2.438   4.412 -0.7731 -1.0256  0.6661
   13SAPS   H6Y 1692   5.996   2.382   4.315 -0.2672 -2.4256 -0.8685
   13SAPS   C37 1693   5.842   2.224   4.333 -0.1983 -0.3787  0.2589
   13SAPS   H7X 1694   5.876   2.177   4.238  0.7480  2.0824 -0.6784
   13SAPS   H7Y 1695   5.732   2.213   4.343 -0.6703  0.1161 -3.3524
   13SAPS   C38 1696   5.913   2.152   4.446 -0.3741  0.8601 -0.6419
   13SAPS   H8X 1697   5.870   2.200   4.537 -3.1930  2.3505 -2.6064
   13SAPS   H8Y 1698   6.022   2.172   4.458 -0.2898 -0.6123  1.6381
   13SAPS   C39 1699   5.907   2.002   4.438 -0.4593  1.1759 -0.5163
   13SAPS   H9X 1700   5.956   1.961   4.346 -1.9789 -1.3824 -0.2568
   13SAPS   H9Y 1701   5.804   1.965   4.426 -0.5841  2.1840 -3.6545
   13SAPS  C310 1702   5.974   1.940   4.569 -0.0875  0.7138 -0.3650
   13SAPS  H10X 1703   5.922   1.981   4.659  0.2220 -0.7279  0.5022
   13SAPS  H10Y 1704   6.081   1.972   4.569  0.2341 -0.3031  0.4622
   13SAPS  C311 1705   5.966   1.793   4.565  0.3587  1.0195 -0.4433
   13SAPS  H11X 1706   6.034   1.741   4.494  1.5560 -0.0845  1.3949
   13SAPS  H11Y 1707   5.861   1.759   4.550  0.4395  0.9979 -0.9639
   13SAPS  C312 1708   6.013   1.721   4.698  0.1818 -0.0649 -1.1869
   13SAPS  H12X 1709   6.118   1.754   4.711 -0.5750  2.2278 -0.4526
   13SAPS  H12Y 1710   6.016   1.610   4.692  0.7291 -0.1269 -0.0670
   13SAPS  C313 1711   5.943   1.758   4.833  0.2964 -0.6390  0.3773
   13SAPS  H13X 1712   5.958   1.866   4.852 -0.5306 -0.6641  1.2673
   13SAPS  H13Y 1713   5.991   1.693   4.910 -0.1047  0.7098  1.8142
   13SAPS  C314 1714   5.791   1.738   4.821 -0.0071 -1.1803  0.2925
   13SAPS  H14X 1715   5.770   1.635   4.784 -0.2805 -0.9699 -0.1476
   13SAPS  H14Y 1716   5.757   1.811   4.745  2.8481 -0.9001 -0.8329
   13SAPS  C315 1717   5.705   1.773   4.949 -0.3003  0.3513  0.0823
   13SAPS  H15X 1718   5.603   1.807   4.920 -2.0494 -2.5641  2.1680
   13SAPS  H15Y 1719   5.753   1.855   5.006 -2.2356  0.4634  1.6751
   13SAPS  C316 1720   5.690   1.649   5.037 -0.2491  0.2526 -0.2195
   13SAPS  H16X 1721   5.652   1.672   5.139  0.1375  0.2064 -0.0636
   13SAPS  H16Y 1722   5.789   1.598   5.040 -0.9331 -1.1411 -0.4358
   13SAPS  C317 1723   5.592   1.542   5.000  0.3025 -0.1621  0.6005
   13SAPS  H17X 1724   5.590   1.530   4.889 -0.4115  0.4588  0.5374
   13SAPS  H17Y 1725   5.489   1.570   5.031  0.1016 -1.0909  0.7968
   13SAPS  C318 1726   5.628   1.413   5.068 -0.3207 -0.1706 -0.0450
   13SAPS  H18X 1727   5.658   1.435   5.172  0.0083  3.7175 -0.7825
   13SAPS  H18Y 1728   5.716   1.367   5.018 -0.8479 -0.9872 -0.2262
   13SAPS  H18Z 1729   5.537   1.350   5.066 -0.5629  0.1770 -0.0901
   14SAPS     N 1730   6.366   1.967   2.772 -0.0146  0.0538 -0.8555
   14SAPS   HN1 1731   6.416   1.876   2.759  1.2544  0.8989 -2.4159
   14SAPS   HN2 1732   6.335   1.972   2.871  2.5560  2.3293 -0.0379
   14SAPS   HN3 1733   6.282   1.978   2.712 -1.2167  1.9220  1.0202
   14SAPS   C12 1734   6.467   2.076   2.750 -0.1338 -0.5208 -0.5045
   14SAPS  H12A 1735   6.527   2.065   2.839 -3.8098 -1.1148  2.1433
   14SAPS   C13 1736   6.561   2.064   2.632  0.3395  0.1493 -0.3090
   14SAPS  O13A 1737   6.580   1.949   2.577  0.0049 -0.0645  0.2299
   14SAPS  O13B 1738   6.652   2.151   2.614  0.8264  0.4646  0.0721
   14SAPS   C11 1739   6.394   2.215   2.748 -0.1820 -0.2550  0.0805
   14SAPS  H11A 1740   6.326   2.204   2.661  2.2197 -3.2484 -1.6165
   14SAPS  H11B 1741   6.460   2.304   2.735 -0.3930 -0.0619  0.2986
   14SAPS     P 1742   6.392   2.293   2.996  0.1991 -0.2947  0.1243
   14SAPS   O13 1743   6.471   2.412   2.957  0.1322 -0.1911  0.4815
   14SAPS   O14 1744   6.288   2.316   3.092  0.2641  0.5786  0.0706
   14SAPS   O12 1745   6.320   2.234   2.865  0.2737 -0.8274 -0.3323
   14SAPS   O11 1746   6.477   2.173   3.046 -0.0358 -0.2697 -0.1499
   14SAPS    C1 1747   6.498   2.146   3.180 -0.7584  0.0980  0.4497
   14SAPS    HA 1748   6.604   2.118   3.200 -0.7813 -0.4192 -0.1255
   14SAPS    HB 1749   6.481   2.237   3.241 -0.3492 -0.4035  1.3415
   14SAPS    C2 1750   6.408   2.029   3.235  0.0055  0.1506 -0.9501
   14SAPS    HS 1751   6.430   1.925   3.201  2.2826  0.2150  0.1848
   14SAPS   O21 1752   6.266   2.050   3.221 -0.4940 -0.2299 -0.0438
   14SAPS   C21 1753   6.216   2.016   3.108  1.4874  0.5667 -0.2601
   14SAPS   O22 1754   6.263   1.941   3.025  0.2955 -0.1727  0.4546
   14SAPS   C22 1755   6.074   2.058   3.104 -0.0432 -0.2132  0.4065
   14SAPS   H2R 1756   6.015   2.003   3.180 -1.6133  0.7188 -0.0909
   14SAPS   H2S 1757   6.072   2.163   3.139  1.9142 -0.0204  0.0404
   14SAPS    C3 1758   6.434   2.024   3.389  0.4544 -0.1150 -0.1524
   14SAPS    HX 1759   6.357   1.957   3.432 -1.1138  1.7793  0.0948
   14SAPS    HY 1760   6.405   2.124   3.428  2.7578  1.1719 -1.5108
   14SAPS   O31 1761   6.572   1.981   3.413 -0.0089 -0.2380 -0.0413
   14SAPS   C31 1762   6.593   1.851   3.395  1.1524  0.2711  0.0745
   14SAPS   O32 1763   6.508   1.770   3.368 -0.4853  0.2442  0.0159
   14SAPS   C32 1764   6.738   1.820   3.404 -0.0884 -0.4868 -0.2483
   14SAPS   H2X 1765   6.800   1.913   3.401  0.5763 -0.8800  0.7513
   14SAPS   H2Y 1766   6.761   1.738   3.333  2.1599 -0.0346 -0.1148
   14SAPS   C23 1767   6.011   2.053   2.968 -0.0817  0.3493 -0.0011
   14SAPS   H3R 1768   6.003   1.947   2.933  1.0165  1.0028 -2.4549
   14SAPS   H3S 1769   6.087   2.096   2.899  3.0929 -3.9135  0.3876
   14SAPS   C24 1770   5.870   2.120   2.963  0.0638  0.0317  0.8212
   14SAPS   H4R 1771   5.850   2.140   2.855  2.0732 -0.0754  0.3990
   14SAPS   H4S 1772   5.883   2.225   2.998  1.9338  1.1138 -2.6862
   14SAPS   C25 1773   5.754   2.038   3.010  0.0579  0.7126  0.2566
   14SAPS   H5R 1774   5.714   1.969   2.934  2.5410 -1.4948  0.8293
   14SAPS   C26 1775   5.701   2.032   3.129  0.7940 -0.2061 -0.8067
   14SAPS   H6R 1776   5.621   1.961   3.157  0.5909 -0.8273 -2.7978
   14SAPS   C27 1777   5.748   2.112   3.249  0.6035  0.0746  0.4502
   14SAPS   H7R 1778   5.858   2.118   3.262  0.4895 -0.5074  1.8820
   14SAPS   H7S 1779   5.709   2.068   3.343  0.2840  1.7077  1.1174
   14SAPS   C28 1780   5.681   2.255   3.244 -0.0591  0.2708  0.3880
   14SAPS   H8R 1781   5.743   2.331   3.194  0.4573 -1.7414 -2.2897
   14SAPS   C29 1782   5.553   2.282   3.289 -0.7595  0.2249  0.2580
   14SAPS   H9R 1783   5.506   2.382   3.281 -1.6137 -0.1773  0.1490
   14SAPS  C210 1784   5.470   2.192   3.376 -0.7911  0.1309 -0.2799
   14SAPS  H10R 1785   5.546   2.129   3.427 -0.5904  0.3404 -0.3143
   14SAPS  H10S 1786   5.404   2.118   3.327  1.1799 -1.1266 -1.1498
   14SAPS  C211 1787   5.401   2.265   3.487  0.1379  0.4953 -0.6030
   14SAPS  H11R 1788   5.417   2.374   3.494  0.6297  0.3395  1.3601
   14SAPS  C212 1789   5.328   2.214   3.590  1.1998  0.7172  0.8750
   14SAPS  H12R 1790   5.287   2.277   3.671 -0.7158  0.4277  0.1820
   14SAPS  C213 1791   5.280   2.066   3.592  0.1546 -0.4163  0.6399
   14SAPS  H13R 1792   5.290   2.018   3.492  3.3350  0.3906  0.4456
   14SAPS  H13S 1793   5.173   2.053   3.618  1.0144 -2.6730  3.6617
   14SAPS  C214 1794   5.365   1.991   3.692 -0.4641 -0.6745  0.0496
   14SAPS  H14R 1795   5.457   1.942   3.657  0.2983  0.0582  0.9826
   14SAPS  C215 1796   5.327   1.959   3.815  0.5313  0.2440 -0.2002
   14SAPS  H15R 1797   5.403   1.906   3.873 -0.2875 -0.6385  0.0907
   14SAPS  C216 1798   5.202   2.002   3.877  0.7602  0.3638 -0.0006
   14SAPS  H16R 1799   5.139   1.917   3.911  1.7334  0.1463  1.3693
   14SAPS  H16S 1800   5.131   2.043   3.802 -0.2705 -1.4125 -0.0500
   14SAPS  C217 1801   5.202   2.117   3.981  0.1915 -0.4713  0.3222
   14SAPS  H17R 1802   5.267   2.202   3.952 -0.8064  0.5930  1.0680
   14SAPS  H17S 1803   5.240   2.090   4.082 -1.5694 -0.6735  0.9691
   14SAPS  C218 1804   5.062   2.159   4.021 -0.4632  0.3531 -0.2946
   14SAPS  H18R 1805   5.006   2.066   4.045 -1.1330  1.7426  4.4408
   14SAPS  H18S 1806   5.016   2.219   3.939  2.6387  2.8899 -0.3464
   14SAPS  C219 1807   5.055   2.240   4.156  0.1967 -0.5827  0.4484
   14SAPS  H19R 1808   5.104   2.340   4.152 -1.3932  0.1911 -0.8610
   14SAPS  H19S 1809   5.104   2.179   4.234  0.2293  0.8677  1.5981
   14SAPS  C220 1810   4.909   2.271   4.203  0.1352  0.3594  0.5297
   14SAPS  H20R 1811   4.873   2.167   4.222  1.6225 -0.1886  0.4360
   14SAPS  H20S 1812   4.847   2.320   4.125  1.2529 -1.4331 -1.6081
   14SAPS  H20T 1813   4.911   2.325   4.300  1.7069  0.9767  0.1797
   14SAPS   C33 1814   6.766   1.771   3.551 -0.6294 -0.3475 -0.0246
   14SAPS   H3X 1815   6.691   1.695   3.583 -1.0107 -0.5208 -1.2816
   14SAPS   H3Y 1816   6.767   1.857   3.621 -1.1227 -0.0128 -0.4252
   14SAPS   C34 1817   6.888   1.688   3.563  0.2371  0.5550 -0.2429
   14SAPS   H4X 1818   6.974   1.734   3.510 -0.2023 -0.2386 -1.6975
   14SAPS   H4Y 1819   6.861   1.588   3.524  2.4451  0.4703 -1.7546
   14SAPS   C35 1820   6.926   1.647   3.707  0.1262  0.1342  0.2078
   14SAPS   H5X 1821   7.012   1.577   3.701 -0.6866 -0.8735  0.2338
   14SAPS   H5Y 1822   6.838   1.605   3.759 -0.0873  0.8652  0.4522
   14SAPS   C36 1823   6.976   1.768   3.791 -0.4736 -0.7585 -0.2059
   14SAPS   H6X 1824   6.889   1.836   3.803 -0.3798 -0.5935 -0.4618
   14SAPS   H6Y 1825   7.053   1.829   3.739 -1.6181 -1.0378 -2.3406
   14SAPS   C37 1826   7.023   1.731   3.934 -0.7699  0.5031  0.3136
   14SAPS   H7X 1827   7.089   1.814   3.971 -0.5523  0.4851 -0.0312
   14SAPS   H7Y 1828   7.087   1.641   3.922 -0.2253  0.9800 -0.4518
   14SAPS   C38 1829   6.910   1.696   4.030  0.1988 -0.0459 -0.6411
   14SAPS   H8X 1830   6.854   1.602   4.014 -1.4057  0.7623  0.0424
   14SAPS   H8Y 1831   6.831   1.772   4.015 -1.2157 -1.7169 -2.0422
   14SAPS   C39 1832   6.971   1.682   4.173  0.4005 -0.0917 -0.6392
   14SAPS   H9X 1833   7.031   1.773   4.197  0.1775  0.2374 -1.3091
   14SAPS   H9Y 1834   7.044   1.598   4.170  0.2338 -0.2261 -0.9138
   14SAPS  C310 1835   6.864   1.650   4.277  0.1489 -0.0278  0.1886
   14SAPS  H10X 1836   6.821   1.549   4.260  0.0785  0.3704 -2.2311
   14SAPS  H10Y 1837   6.775   1.716   4.266 -0.7994 -1.2955  0.0124
   14SAPS  C311 1838   6.927   1.666   4.416  0.8352 -0.2231  0.4132
   14SAPS  H11X 1839   6.976   1.765   4.426 -1.9250  1.3234 -0.1116
   14SAPS  H11Y 1840   7.013   1.597   4.428  2.3711  1.5599  0.0694
   14SAPS  C312 1841   6.826   1.661   4.530  0.2711  0.4671 -0.2174
   14SAPS  H12X 1842   6.775   1.562   4.528 -0.9979  1.0751  0.4712
   14SAPS  H12Y 1843   6.746   1.736   4.510 -1.2542 -1.2533 -0.8611
   14SAPS  C313 1844   6.903   1.680   4.669  0.3237 -0.1703  1.0563
   14SAPS  H13X 1845   6.942   1.784   4.664 -1.5194  0.5309  0.2927
   14SAPS  H13Y 1846   6.985   1.606   4.660 -0.0138 -0.4951  0.5785
   14SAPS  C314 1847   6.806   1.655   4.790 -0.2384 -0.0284 -0.8125
   14SAPS  H14X 1848   6.771   1.550   4.788 -0.7715  0.0738  1.1332
   14SAPS  H14Y 1849   6.721   1.724   4.772  0.6289  0.6725 -2.5181
   14SAPS  C315 1850   6.871   1.700   4.920 -0.3634 -0.0247  1.3855
   14SAPS  H15X 1851   6.782   1.695   4.987 -1.3148  0.3785  0.1817
   14SAPS  H15Y 1852   6.919   1.799   4.908  0.9929 -0.9282 -1.5711
   14SAPS  C316 1853   6.972   1.601   4.976  0.1221  0.5343 -0.5850
   14SAPS  H16X 1854   7.073   1.624   4.934  0.1911  0.1640 -0.6231
   14SAPS  H16Y 1855   6.934   1.502   4.943 -0.5914  0.9590 -1.0685
   14SAPS  C317 1856   6.999   1.622   5.126  0.1866 -0.7029  0.2253
   14SAPS  H17X 1857   6.905   1.593   5.177  0.7538  1.3734  2.6101
   14SAPS  H17Y 1858   7.015   1.731   5.146  2.5566 -1.1664  1.2154
   14SAPS  C318 1859   7.115   1.544   5.192  0.8217  0.1927 -0.1778
   14SAPS  H18X 1860   7.112   1.434   5.173  0.5339  0.2557 -0.5227
   14SAPS  H18Y 1861   7.120   1.564   5.301  2.4054 -2.0202  0.2319
   14SAPS  H18Z 1862   7.210   1.581   5.148  0.0289 -0.4391 -2.6034
   15SAPS     N 1863   3.410   4.957   3.140  0.3968  0.2485  0.0135
   15SAPS   HN1 1864   3.432   4.917   3.233  0.3292 -1.4873 -0.6665
   15SAPS   HN2 1865   3.333   5.026   3.153 -0.3847 -0.4012 -0.9341
   15SAPS   HN3 1866   3.364   4.879   3.087  0.3915 -0.5057  1.1001
   15SAPS   C12 1867   3.522   5.022   3.072  0.4376  0.2100  0.2688
   15SAPS  H12A 1868   3.593   4.951   3.032 -1.3521 -0.0899 -2.6727
   15SAPS   C13 1869   3.475   5.113   2.949  0.0134 -0.5286  0.3615
   15SAPS  O13A 1870   3.351   5.112   2.909  0.0823  0.1868  0.2034
   15SAPS  O13B 1871   3.557   5.161   2.868 -0.0346 -0.5350  0.6103
   15SAPS   C11 1872   3.594   5.117   3.165 -0.1656  0.4710  0.3289
   15SAPS  H11A 1873   3.680   5.166   3.114  1.2458 -0.6734  1.5216
   15SAPS  H11B 1874   3.636   5.051   3.243 -2.1035 -0.8432  0.3401
   15SAPS     P 1875   3.554   5.340   3.287  0.3684  0.4849 -0.0721
   15SAPS   O13 1876   3.649   5.404   3.196  0.2361  0.6599  0.0198
   15SAPS   O14 1877   3.447   5.426   3.339  0.1260  0.3614 -0.5016
   15SAPS   O12 1878   3.504   5.209   3.223  0.4281 -0.0900  0.4345
   15SAPS   O11 1879   3.635   5.272   3.411  0.0825 -0.4342  0.4244
   15SAPS    C1 1880   3.568   5.203   3.515 -0.3057 -0.2516 -0.0090
   15SAPS    HA 1881   3.483   5.268   3.545 -0.8768 -0.7851 -0.4494
   15SAPS    HB 1882   3.541   5.103   3.475  2.6345 -1.1375 -0.0065
   15SAPS    C2 1883   3.659   5.178   3.638  0.4120 -1.1052 -0.0262
   15SAPS    HS 1884   3.590   5.114   3.698 -2.6556  1.0680 -0.9830
   15SAPS   O21 1885   3.681   5.291   3.725  0.0308  0.3335 -0.3764
   15SAPS   C21 1886   3.582   5.345   3.796 -0.2049  0.8643  0.1763
   15SAPS   O22 1887   3.477   5.288   3.815  0.6452 -0.3289 -0.1449
   15SAPS   C22 1888   3.626   5.478   3.852  0.3376 -0.1243  0.3982
   15SAPS   H2R 1889   3.713   5.459   3.918 -0.6224 -0.9005  1.5064
   15SAPS   H2S 1890   3.639   5.548   3.767 -1.9742 -0.5456 -0.3839
   15SAPS    C3 1891   3.794   5.097   3.605 -0.1962 -0.4390  0.1919
   15SAPS    HX 1892   3.870   5.169   3.569 -1.4145  0.6022 -0.3519
   15SAPS    HY 1893   3.763   5.012   3.541  0.3589 -2.6323  2.6421
   15SAPS   O31 1894   3.847   5.039   3.726  0.0783  1.0026  0.2578
   15SAPS   C31 1895   3.938   5.105   3.790  0.6951  0.2798  0.4813
   15SAPS   O32 1896   3.983   5.214   3.761  0.5530 -0.4032  0.1483
   15SAPS   C32 1897   4.008   5.019   3.891 -0.2634 -0.8355  0.1026
   15SAPS   H2X 1898   4.102   5.072   3.916 -0.3457 -0.8571  0.4651
   15SAPS   H2Y 1899   4.042   4.923   3.848  0.0364 -1.2385  1.1937
   15SAPS   C23 1900   3.512   5.522   3.950 -0.3990 -0.4064 -0.1055
   15SAPS   H3R 1901   3.499   5.455   4.038 -1.6469 -0.3800 -0.2634
   15SAPS   H3S 1902   3.416   5.521   3.895  0.0398  1.8978 -1.0284
   15SAPS   C24 1903   3.528   5.661   4.019 -0.0589  0.4200  0.5384
   15SAPS   H4R 1904   3.631   5.668   4.060  0.7532 -1.3198 -1.0752
   15SAPS   H4S 1905   3.466   5.664   4.111 -1.8806  1.2924 -0.6590
   15SAPS   C25 1906   3.494   5.770   3.916  0.8459  0.2828  0.1342
   15SAPS   H5R 1907   3.394   5.759   3.873  1.0238 -0.4363 -0.1267
   15SAPS   C26 1908   3.570   5.865   3.872  0.2897 -0.1145  0.5523
   15SAPS   H6R 1909   3.527   5.929   3.793 -1.6339 -1.8775  0.0721
   15SAPS   C27 1910   3.714   5.881   3.916 -0.7820  0.5555  0.2877
   15SAPS   H7R 1911   3.767   5.783   3.909  0.5251  1.2845 -0.4526
   15SAPS   H7S 1912   3.715   5.915   4.021  1.0608  0.4673  0.3373
   15SAPS   C28 1913   3.786   5.973   3.819  0.3179 -0.0171 -0.0096
   15SAPS   H8R 1914   3.800   5.922   3.723 -2.8561 -1.5731  0.2050
   15SAPS   C29 1915   3.815   6.104   3.844  0.0240 -1.2396 -0.8431
   15SAPS   H9R 1916   3.857   6.166   3.764  0.6212  0.2274  0.5427
   15SAPS  C210 1917   3.780   6.189   3.966 -0.0792 -0.1221 -0.0070
   15SAPS  H10R 1918   3.869   6.243   4.004 -0.6673 -0.7217  2.4134
   15SAPS  H10S 1919   3.745   6.127   4.051 -1.2704  0.6552  0.1063
   15SAPS  C211 1920   3.672   6.282   3.945  0.1080 -0.1489  0.1760
   15SAPS  H11R 1921   3.597   6.246   3.873  2.0106 -1.4197 -1.2843
   15SAPS  C212 1922   3.657   6.401   4.002  0.2115 -0.6610 -0.5347
   15SAPS  H12R 1923   3.565   6.455   3.974 -0.5058 -1.4443  0.2203
   15SAPS  C213 1924   3.750   6.471   4.105 -0.1139 -0.0646  0.4366
   15SAPS  H13R 1925   3.850   6.424   4.100 -1.5514 -3.4831  1.1945
   15SAPS  H13S 1926   3.710   6.454   4.208 -1.7928  1.7533  0.1683
   15SAPS  C214 1927   3.745   6.625   4.096  0.1065  0.1990  0.0445
   15SAPS  H14R 1928   3.644   6.664   4.077  0.7017  1.0598 -1.4190
   15SAPS  C215 1929   3.842   6.711   4.131  0.4054  0.3462 -0.0990
   15SAPS  H15R 1930   3.809   6.816   4.128  0.4998  0.3678 -0.3473
   15SAPS  C216 1931   3.978   6.680   4.168  0.3881  0.3361 -0.2980
   15SAPS  H16R 1932   4.052   6.724   4.098  1.8146 -3.2993 -1.3215
   15SAPS  H16S 1933   4.003   6.572   4.158  2.6043  0.7399  0.4711
   15SAPS  C217 1934   4.000   6.715   4.311 -0.4539  0.3502 -0.0190
   15SAPS  H17R 1935   3.924   6.672   4.380 -0.1372  0.9211  0.7090
   15SAPS  H17S 1936   3.995   6.826   4.323  1.2790  0.4090  0.4872
   15SAPS  C218 1937   4.139   6.679   4.355  0.1448  0.1820  0.2850
   15SAPS  H18R 1938   4.209   6.737   4.291 -0.9329  0.9569 -0.2254
   15SAPS  H18S 1939   4.152   6.569   4.343  2.1732  0.5195 -1.3332
   15SAPS  C219 1940   4.182   6.707   4.504  0.1536  0.0452  0.6352
   15SAPS  H19R 1941   4.277   6.656   4.531  1.1217  2.1644  1.5310
   15SAPS  H19S 1942   4.103   6.664   4.568  2.9081  0.3501  4.6255
   15SAPS  C220 1943   4.196   6.854   4.531 -0.6317  0.1286  0.1030
   15SAPS  H20R 1944   4.112   6.915   4.492 -0.8602 -0.2532 -0.0103
   15SAPS  H20S 1945   4.292   6.886   4.486  0.7424 -1.3316  1.8385
   15SAPS  H20T 1946   4.216   6.871   4.639  2.5743 -0.8037 -0.2406
   15SAPS   C33 1947   3.914   4.995   4.011 -0.2430 -0.5840 -0.7244
   15SAPS   H3X 1948   3.954   4.924   4.087  0.6557  2.0729  1.4477
   15SAPS   H3Y 1949   3.814   4.954   3.987 -0.9324 -0.0853  1.1661
   15SAPS   C34 1950   3.895   5.123   4.099  0.2026  0.3047  0.0525
   15SAPS   H4X 1951   3.849   5.209   4.045  1.0448  0.7400  0.0227
   15SAPS   H4Y 1952   3.995   5.164   4.121 -0.7395  1.4100  2.5818
   15SAPS   C35 1953   3.804   5.094   4.215 -0.2302  0.7055  0.3330
   15SAPS   H5X 1954   3.855   5.028   4.288  1.6911 -1.3457 -2.6599
   15SAPS   H5Y 1955   3.715   5.035   4.186 -0.7127  0.5712  1.9840
   15SAPS   C36 1956   3.751   5.220   4.283 -0.3657 -0.3770  0.7172
   15SAPS   H6X 1957   3.726   5.301   4.211 -1.7950 -1.8383 -0.5000
   15SAPS   H6Y 1958   3.828   5.260   4.352 -0.9035  1.3448  0.3559
   15SAPS   C37 1959   3.638   5.184   4.379 -0.2192 -0.0509 -0.1511
   15SAPS   H7X 1960   3.687   5.100   4.433  1.8702  1.0200 -0.2771
   15SAPS   H7Y 1961   3.552   5.146   4.319 -0.4446 -1.6810  1.1343
   15SAPS   C38 1962   3.590   5.292   4.468 -0.4888 -0.8134 -0.3236
   15SAPS   H8X 1963   3.552   5.372   4.400 -0.0382  1.7706  2.2768
   15SAPS   H8Y 1964   3.678   5.347   4.509 -1.9675  1.3043  0.1546
   15SAPS   C39 1965   3.481   5.254   4.568 -0.1881 -0.4907  1.0345
   15SAPS   H9X 1966   3.519   5.177   4.638 -1.1273 -0.5477  1.4967
   15SAPS   H9Y 1967   3.398   5.203   4.515  0.6144  0.6162 -1.4337
   15SAPS  C310 1968   3.410   5.363   4.645  0.1023  0.4562  0.5296
   15SAPS  H10X 1969   3.346   5.418   4.573 -1.1392 -0.3845  0.9611
   15SAPS  H10Y 1970   3.478   5.428   4.705  0.7696  1.4762 -1.2449
   15SAPS  C311 1971   3.317   5.290   4.741  0.1728 -0.6174  0.8623
   15SAPS  H11X 1972   3.379   5.283   4.834  1.0064 -2.1556  0.2318
   15SAPS  H11Y 1973   3.287   5.191   4.702 -0.6684  0.2546 -0.7984
   15SAPS  C312 1974   3.195   5.373   4.778 -0.1408 -0.7625 -0.6738
   15SAPS  H12X 1975   3.145   5.411   4.687 -1.8777 -0.8459  0.2096
   15SAPS  H12Y 1976   3.224   5.463   4.836  0.6299 -2.2618  1.4035
   15SAPS  C313 1977   3.093   5.297   4.860 -0.1923 -0.0268  0.1781
   15SAPS  H13X 1978   3.145   5.246   4.944  1.2618 -0.5669 -0.9914
   15SAPS  H13Y 1979   3.052   5.219   4.792  0.5266 -0.1432 -0.1374
   15SAPS  C314 1980   2.975   5.394   4.899 -0.2424 -0.1502 -0.4429
   15SAPS  H14X 1981   2.944   5.449   4.807  1.6609  0.8414 -0.5366
   15SAPS  H14Y 1982   3.009   5.464   4.979 -0.7233 -0.6305  0.1877
   15SAPS  C315 1983   2.849   5.319   4.941 -0.6894 -0.9444  0.0263
   15SAPS  H15X 1984   2.881   5.243   5.015 -2.9394 -1.9990 -0.0130
   15SAPS  H15Y 1985   2.803   5.264   4.857 -0.7424  0.7872 -1.1178
   15SAPS  C316 1986   2.750   5.411   5.014  0.3506  0.1896 -0.1447
   15SAPS  H16X 1987   2.727   5.486   4.935 -0.7154  0.3541  0.3066
   15SAPS  H16Y 1988   2.798   5.444   5.109  0.4137 -0.4048  0.0313
   15SAPS  C317 1989   2.618   5.342   5.048  0.2797 -0.6150 -0.5275
   15SAPS  H17X 1990   2.637   5.235   5.071 -0.2175 -0.3887  1.0484
   15SAPS  H17Y 1991   2.554   5.348   4.957  0.8805  2.3653 -0.8409
   15SAPS  C318 1992   2.543   5.400   5.164 -0.2746 -0.1071  0.3102
   15SAPS  H18X 1993   2.448   5.347   5.187 -1.0146  1.4774  1.0069
   15SAPS  H18Y 1994   2.503   5.498   5.132 -0.1971 -1.6570 -5.6698
   15SAPS  H18Z 1995   2.602   5.403   5.258  1.2123  0.6157 -0.6069
   16SAPS     N 1996   5.693   3.564   3.188 -0.1758  0.2931  0.1378
   16SAPS   HN1 1997   5.652   3.522   3.103 -0.7800 -2.9431  1.8634
   16SAPS   HN2 1998   5.700   3.494   3.265 -0.4681 -1.7767 -1.6262
   16SAPS   HN3 1999   5.626   3.640   3.212  0.4611  1.2833 -1.0794
   16SAPS   C12 2000   5.825   3.620   3.164 -0.5662  0.6465 -0.7215
   16SAPS  H12A 2001   5.909   3.552   3.162 -0.6582  0.4525  0.7345
   16SAPS   C13 2002   5.842   3.688   3.029 -0.6059 -0.3420  0.2870
   16SAPS  O13A 2003   5.739   3.740   2.973 -0.4064 -0.1531 -0.2387
   16SAPS  O13B 2004   5.954   3.726   2.996  0.0409 -0.8377 -0.1750
   16SAPS   C11 2005   5.856   3.731   3.267 -0.4444  0.6671  0.1929
   16SAPS  H11A 2006   5.778   3.808   3.245 -1.1115 -0.9905 -4.4668
   16SAPS  H11B 2007   5.959   3.767   3.243 -1.4575  4.2563  0.7013
   16SAPS     P 2008   5.795   3.731   3.523 -0.3377 -0.0683 -0.4253
   16SAPS   O13 2009   5.658   3.781   3.492 -0.3215  0.0169 -0.0307
   16SAPS   O14 2010   5.804   3.620   3.625  0.9606 -0.3744 -0.4131
   16SAPS   O12 2011   5.860   3.673   3.395  0.5765 -0.1201  0.1229
   16SAPS   O11 2012   5.886   3.847   3.570 -0.2700  0.4786 -0.5878
   16SAPS    C1 2013   6.032   3.830   3.578  0.3475 -0.1473 -0.0676
   16SAPS    HA 2014   6.072   3.750   3.513 -1.9289 -0.0135 -1.7610
   16SAPS    HB 2015   6.089   3.920   3.547  0.5387  0.3633  1.6264
   16SAPS    C2 2016   6.078   3.796   3.723  0.0565 -0.4405  0.6002
   16SAPS    HS 2017   6.013   3.721   3.773 -0.9304  0.5261  0.8071
   16SAPS   O21 2018   6.082   3.910   3.800 -0.8338  0.5607 -0.6790
   16SAPS   C21 2019   5.985   3.926   3.885  0.0321  0.5016 -0.2198
   16SAPS   O22 2020   5.882   3.858   3.892 -0.2530 -0.2886 -0.1915
   16SAPS   C22 2021   6.022   4.046   3.964  0.3077 -0.2609 -0.1932
   16SAPS   H2R 2022   6.115   4.030   4.023  1.1363 -0.1624 -1.4287
   16SAPS   H2S 2023   6.042   4.120   3.883  0.3665 -0.9333 -0.8012
   16SAPS    C3 2024   6.220   3.731   3.724  0.3573 -0.4218 -0.2464
   16SAPS    HX 2025   6.286   3.813   3.687 -0.8003 -1.0652 -4.1529
   16SAPS    HY 2026   6.219   3.656   3.642 -1.0907  0.5900 -1.1991
   16SAPS   O31 2027   6.259   3.690   3.856 -0.0242  0.2463  0.1798
   16SAPS   C31 2028   6.203   3.573   3.887 -0.1323 -0.0622  0.1427
   16SAPS   O32 2029   6.139   3.504   3.811 -0.0944  0.0525 -0.1439
   16SAPS   C32 2030   6.241   3.550   4.033 -0.1447 -0.3952 -0.4295
   16SAPS   H2X 2031   6.206   3.448   4.060 -0.6568 -0.2294 -0.4569
   16SAPS   H2Y 2032   6.184   3.619   4.099  0.3118 -0.1639 -0.2700
   16SAPS   C23 2033   5.903   4.110   4.055  0.4303 -0.7160  1.0092
   16SAPS   H3R 2034   5.836   4.026   4.082  0.6969 -1.7757 -1.3834
   16SAPS   H3S 2035   5.851   4.183   3.990  1.4789 -0.9019 -0.0659
   16SAPS   C24 2036   5.965   4.179   4.178  1.2227  0.0208 -0.3786
   16SAPS   H4R 2037   6.036   4.260   4.151  1.8646 -0.6932 -0.8777
   16SAPS   H4S 2038   6.027   4.104   4.232  1.6235  0.6244  0.0109
   16SAPS   C25 2039   5.854   4.229   4.267 -0.1824  0.4772 -0.4668
   16SAPS   H5R 2040   5.789   4.145   4.296  2.3711 -1.3345  0.3855
   16SAPS   C26 2041   5.831   4.356   4.306 -0.0166 -0.2894 -0.7122
   16SAPS   H6R 2042   5.757   4.386   4.381 -0.1808 -1.3427 -0.4276
   16SAPS   C27 2043   5.928   4.467   4.266  0.5232 -0.6252 -1.0728
   16SAPS   H7R 2044   5.936   4.462   4.156 -0.4969  2.6637 -1.3869
   16SAPS   H7S 2045   6.027   4.448   4.312  0.0967  0.5126  0.4331
   16SAPS   C28 2046   5.886   4.605   4.317  0.5399  0.7310 -0.5128
   16SAPS   H8R 2047   5.952   4.661   4.385  0.7614  2.1477 -1.8148
   16SAPS   C29 2048   5.799   4.673   4.241 -0.1275 -0.1556 -0.5688
   16SAPS   H9R 2049   5.765   4.771   4.278 -0.4529 -0.2063 -0.7290
   16SAPS  C210 2050   5.723   4.610   4.125  0.4867 -0.0949  0.4292
   16SAPS  H10R 2051   5.680   4.511   4.150  1.2058  0.0137  2.2691
   16SAPS  H10S 2052   5.798   4.595   4.045  1.3909  0.4355  1.1520
   16SAPS  C211 2053   5.613   4.700   4.074  1.1744  0.2750  0.0474
   16SAPS  H11R 2054   5.654   4.799   4.047  0.2475  0.7049  0.1917
   16SAPS  C212 2055   5.480   4.676   4.062 -0.6667 -0.5013  0.3409
   16SAPS  H12R 2056   5.417   4.760   4.032  0.6594  0.9662  1.4947
   16SAPS  C213 2057   5.422   4.549   4.109  0.3021 -0.4727  0.2338
   16SAPS  H13R 2058   5.481   4.512   4.196  4.3126  2.7822 -0.8178
   16SAPS  H13S 2059   5.435   4.468   4.034 -0.4453 -1.0339  0.6924
   16SAPS  C214 2060   5.275   4.570   4.134 -0.6217 -0.0888  0.3611
   16SAPS  H14R 2061   5.229   4.588   4.036 -0.4106 -0.5977  0.1626
   16SAPS  C215 2062   5.211   4.554   4.250 -0.6442 -0.4358 -0.6846
   16SAPS  H15R 2063   5.102   4.567   4.251 -0.8747 -2.1563 -0.5026
   16SAPS  C216 2064   5.266   4.509   4.390 -0.8659  0.2608 -0.2119
   16SAPS  H16R 2065   5.258   4.594   4.462  2.7402  0.2675  0.3378
   16SAPS  H16S 2066   5.368   4.467   4.379 -1.5457 -1.3522 -0.6802
   16SAPS  C217 2067   5.174   4.405   4.450  0.1257  0.2476 -0.0766
   16SAPS  H17R 2068   5.132   4.327   4.382  2.3418 -2.2438  1.2349
   16SAPS  H17S 2069   5.082   4.461   4.479 -1.9611 -1.0701 -3.4932
   16SAPS  C218 2070   5.240   4.332   4.570 -0.1788 -0.3701 -0.2490
   16SAPS  H18R 2071   5.293   4.410   4.628  0.6369 -2.2869  1.6853
   16SAPS  H18S 2072   5.311   4.258   4.529  0.1959 -1.0506  1.5456
   16SAPS  C219 2073   5.140   4.257   4.655 -0.4847  0.4652  0.7642
   16SAPS  H19R 2074   5.201   4.205   4.732 -1.2696 -0.3902  0.8170
   16SAPS  H19S 2075   5.092   4.185   4.587  0.9029  0.5100 -0.3093
   16SAPS  C220 2076   5.032   4.336   4.724  0.6572 -0.0121  0.1039
   16SAPS  H20R 2077   4.998   4.418   4.656  2.6027  0.7518 -0.0131
   16SAPS  H20S 2078   5.082   4.382   4.812 -0.0271 -0.3732  0.6844
   16SAPS  H20T 2079   4.942   4.277   4.749  1.2889 -1.2151 -0.3487
   16SAPS   C33 2080   6.389   3.560   4.072  0.4081  0.1865  0.7035
   16SAPS   H3X 2081   6.419   3.666   4.061  1.3098 -0.1329 -0.0468
   16SAPS   H3Y 2082   6.444   3.485   4.010 -1.5721  1.5215 -2.9792
   16SAPS   C34 2083   6.410   3.513   4.218  0.4654 -0.3113  0.1974
   16SAPS   H4X 2084   6.379   3.406   4.219 -2.9243  0.5465  1.1128
   16SAPS   H4Y 2085   6.334   3.570   4.276  0.5272 -1.1450  1.1244
   16SAPS   C35 2086   6.553   3.523   4.293 -0.5207  0.0001  0.6437
   16SAPS   H5X 2087   6.600   3.622   4.277 -0.5040 -0.2047 -0.7279
   16SAPS   H5Y 2088   6.609   3.435   4.255 -0.8634  1.0838 -2.6850
   16SAPS   C36 2089   6.530   3.488   4.439 -0.2630 -0.8957  0.3266
   16SAPS   H6X 2090   6.519   3.381   4.466  0.8242 -1.1069  0.0017
   16SAPS   H6Y 2091   6.442   3.546   4.474  0.1257 -1.5725  2.5923
   16SAPS   C37 2092   6.648   3.528   4.530 -0.4748  0.1650 -0.1935
   16SAPS   H7X 2093   6.665   3.634   4.500 -1.5293  1.0726  2.1962
   16SAPS   H7Y 2094   6.741   3.475   4.502 -0.3590  1.0090 -1.5115
   16SAPS   C38 2095   6.610   3.518   4.675 -0.5112  0.6034  0.2663
   16SAPS   H8X 2096   6.655   3.418   4.694  1.3369  1.5774  1.3248
   16SAPS   H8Y 2097   6.502   3.507   4.698 -0.3695 -1.0469  0.2354
   16SAPS   C39 2098   6.668   3.634   4.761 -0.2161  0.1293  0.5867
   16SAPS   H9X 2099   6.608   3.727   4.757  1.4168  1.3350  2.4869
   16SAPS   H9Y 2100   6.765   3.663   4.716 -1.7907 -0.0250 -3.4166
   16SAPS  C310 2101   6.710   3.593   4.905  0.0868  0.0081 -0.0478
   16SAPS  H10X 2102   6.747   3.489   4.916 -1.7616 -0.4354  3.6304
   16SAPS  H10Y 2103   6.616   3.584   4.963  0.4220 -1.7282  0.2919
   16SAPS  C311 2104   6.805   3.687   4.981  0.2439  0.6982  0.2955
   16SAPS  H11X 2105   6.907   3.677   4.937 -0.1839 -2.0844 -0.2055
   16SAPS  H11Y 2106   6.824   3.658   5.087  0.1146  3.2268  1.0884
   16SAPS  C312 2107   6.746   3.828   4.986 -0.7898 -0.1711  0.6372
   16SAPS  H12X 2108   6.745   3.876   4.886  1.2677  1.3695  1.2604
   16SAPS  H12Y 2109   6.833   3.877   5.036  0.6207 -1.5254 -0.3989
   16SAPS  C313 2110   6.619   3.840   5.074 -0.3453 -1.0006  0.1054
   16SAPS  H13X 2111   6.642   3.782   5.166  1.1088 -2.9297 -1.3910
   16SAPS  H13Y 2112   6.532   3.785   5.033  0.0405 -1.1757 -0.4856
   16SAPS  C314 2113   6.582   3.991   5.100  0.2818  0.6700  0.2721
   16SAPS  H14X 2114   6.610   4.038   5.003  2.3999 -1.4832 -0.2487
   16SAPS  H14Y 2115   6.644   4.035   5.181  0.7361 -1.0252  0.8941
   16SAPS  C315 2116   6.426   3.999   5.113 -0.2061  0.3414  0.7590
   16SAPS  H15X 2117   6.396   3.918   5.183 -0.7170 -0.5378 -0.4423
   16SAPS  H15Y 2118   6.387   3.955   5.018  1.5401 -0.5172  0.4032
   16SAPS  C316 2119   6.355   4.125   5.166 -0.5594  0.5052  0.5953
   16SAPS  H16X 2120   6.373   4.209   5.096  0.6364  0.6205  1.0133
   16SAPS  H16Y 2121   6.408   4.159   5.258 -0.3488  0.7875  0.3684
   16SAPS  C317 2122   6.205   4.119   5.176  0.0214  0.0744 -0.3452
   16SAPS  H17X 2123   6.169   4.216   5.217  0.9448  1.2837 -2.2583
   16SAPS  H17Y 2124   6.168   4.053   5.258 -1.3323  0.2504 -0.7897
   16SAPS  C318 2125   6.129   4.077   5.047 -0.4936  0.2527  0.3820
   16SAPS  H18X 2126   6.020   4.064   5.062 -0.4589  1.2111  1.7205
   16SAPS  H18Y 2127   6.175   3.986   5.003  0.5123 -0.1417  2.1462
   16SAPS  H18Z 2128   6.130   4.163   4.977 -0.7627  1.6858  2.0789
   17SAPS     N 2129   5.245   4.735   3.116 -0.4776 -0.3886  0.7871
   17SAPS   HN1 2130   5.265   4.792   3.202 -3.1289  0.3336  1.0178
   17SAPS   HN2 2131   5.329   4.716   3.058  0.0907  0.9540  1.1072
   17SAPS   HN3 2132   5.179   4.788   3.056  1.7139  1.3670 -0.2143
   17SAPS   C12 2133   5.187   4.597   3.142  1.0852 -0.5676  0.9211
   17SAPS  H12A 2134   5.116   4.613   3.222 -0.1915  0.4868 -0.3727
   17SAPS   C13 2135   5.114   4.527   3.026 -0.2795 -0.4925 -0.0184
   17SAPS  O13A 2136   5.104   4.589   2.917 -0.2931  0.0801  0.1078
   17SAPS  O13B 2137   5.084   4.409   3.030  0.0965 -0.5412 -0.6444
   17SAPS   C11 2138   5.301   4.500   3.196 -0.4967 -0.7583 -0.6232
   17SAPS  H11A 2139   5.370   4.477   3.112  0.5397  1.2186 -0.3745
   17SAPS  H11B 2140   5.275   4.401   3.237  2.2080 -1.0135  0.6857
   17SAPS     P 2141   5.311   4.584   3.450 -0.2430 -0.1843  0.3327
   17SAPS   O13 2142   5.429   4.633   3.527  0.0344  0.0387  0.3825
   17SAPS   O14 2143   5.195   4.679   3.433  0.0972  0.4995  0.2731
   17SAPS   O12 2144   5.370   4.556   3.301 -0.2014  0.2144  0.3599
   17SAPS   O11 2145   5.262   4.440   3.498  0.5485 -0.4990 -0.3878
   17SAPS    C1 2146   5.140   4.446   3.572 -0.5786 -0.1665  0.5463
   17SAPS    HA 2147   5.068   4.528   3.550  1.6772  2.0147  0.7928
   17SAPS    HB 2148   5.084   4.355   3.544 -2.2406  0.7819  0.6064
   17SAPS    C2 2149   5.153   4.432   3.727  1.0202 -0.0507 -0.1894
   17SAPS    HS 2150   5.062   4.374   3.752  0.4294  0.4199 -1.2105
   17SAPS   O21 2151   5.151   4.558   3.798  0.0044  0.0464  0.6922
   17SAPS   C21 2152   5.032   4.621   3.784 -0.4541 -0.0029 -0.1100
   17SAPS   O22 2153   4.927   4.567   3.753 -0.8248 -0.1241  0.0177
   17SAPS   C22 2154   5.064   4.773   3.806  0.0859 -0.0884  0.5320
   17SAPS   H2R 2155   5.130   4.793   3.893  1.4132 -2.4492  0.1598
   17SAPS   H2S 2156   5.121   4.809   3.717 -1.2042  1.7877  0.4191
   17SAPS    C3 2157   5.261   4.334   3.785 -0.4424 -0.6353  0.5262
   17SAPS    HX 2158   5.355   4.392   3.789 -1.1073  0.4674  0.7102
   17SAPS    HY 2159   5.269   4.244   3.720 -0.5806  0.0578 -0.4758
   17SAPS   O31 2160   5.228   4.285   3.911 -0.0756  0.0587 -0.0051
   17SAPS   C31 2161   5.311   4.212   3.981 -0.3555  0.0839  0.0115
   17SAPS   O32 2162   5.423   4.182   3.948 -0.3422  0.6284 -0.2911
   17SAPS   C32 2163   5.233   4.173   4.112 -0.3056  0.5017 -0.0991
   17SAPS   H2X 2164   5.125   4.165   4.088 -1.0212  0.5660  2.7473
   17SAPS   H2Y 2165   5.226   4.257   4.184 -6.4355  0.4082 -0.0699
   17SAPS   C23 2166   4.941   4.862   3.803 -0.3766 -0.6491 -0.4531
   17SAPS   H3R 2167   4.869   4.839   3.721  0.5193  0.5025 -1.5997
   17SAPS   H3S 2168   4.974   4.966   3.784 -0.0846 -0.4348  1.1109
   17SAPS   C24 2169   4.857   4.843   3.940 -0.3667 -0.3358  0.0732
   17SAPS   H4R 2170   4.840   4.734   3.943  0.2544 -0.4242  1.4944
   17SAPS   H4S 2171   4.759   4.887   3.912 -0.2359 -2.0582 -3.5355
   17SAPS   C25 2172   4.920   4.903   4.064  0.3357  0.3046  0.2496
   17SAPS   H5R 2173   5.009   4.966   4.048 -0.0176  0.3887 -1.6619
   17SAPS   C26 2174   4.875   4.885   4.193 -0.3969  1.0098  0.0173
   17SAPS   H6R 2175   4.937   4.926   4.274  1.2881 -0.7251 -0.2990
   17SAPS   C27 2176   4.762   4.796   4.235  0.1009  0.2407 -0.1855
   17SAPS   H7R 2177   4.714   4.745   4.148 -0.0513  0.4405 -0.2177
   17SAPS   H7S 2178   4.684   4.863   4.277  0.0298 -0.2239  0.4326
   17SAPS   C28 2179   4.812   4.693   4.338 -0.2242  0.1320  0.2409
   17SAPS   H8R 2180   4.827   4.593   4.296 -2.4623 -0.4873  0.7817
   17SAPS   C29 2181   4.826   4.721   4.473 -0.9155 -0.6595 -0.7061
   17SAPS   H9R 2182   4.848   4.635   4.538 -1.5853  0.3378  0.9129
   17SAPS  C210 2183   4.812   4.859   4.539  0.3660  0.4507  1.0015
   17SAPS  H10R 2184   4.746   4.922   4.476  0.0915 -0.6667  0.1488
   17SAPS  H10S 2185   4.914   4.904   4.543  0.7733 -0.1143 -1.4785
   17SAPS  C211 2186   4.751   4.844   4.679  0.0649  0.8040 -0.1073
   17SAPS  H11R 2187   4.650   4.883   4.695  0.1134  0.8986 -0.0296
   17SAPS  C212 2188   4.820   4.818   4.796 -0.7370 -0.0900  0.4672
   17SAPS  H12R 2189   4.758   4.821   4.887 -1.1039  0.9276  0.1987
   17SAPS  C213 2190   4.973   4.802   4.801 -0.2537  0.8336 -0.6392
   17SAPS  H13R 2191   5.031   4.869   4.734  0.5940  1.9344  1.1448
   17SAPS  H13S 2192   5.004   4.700   4.768  2.2981  1.0861  0.7377
   17SAPS  C214 2193   5.015   4.827   4.941 -0.4493 -0.1800  0.0038
   17SAPS  H14R 2194   4.992   4.926   4.982 -1.4157 -0.4174  0.0401
   17SAPS  C215 2195   5.090   4.741   5.018  0.6410 -0.3429  0.0132
   17SAPS  H15R 2196   5.125   4.786   5.112 -0.4026  2.6502 -0.9299
   17SAPS  C216 2197   5.153   4.608   4.986  1.0560 -0.6419 -0.2666
   17SAPS  H16R 2198   5.129   4.574   4.883 -1.2138 -1.0081  0.3271
   17SAPS  H16S 2199   5.126   4.521   5.049  2.3773 -1.3054 -0.5781
   17SAPS  C217 2200   5.302   4.616   4.981 -0.4374  0.0863  0.5949
   17SAPS  H17R 2201   5.322   4.657   5.083 -3.1272 -1.5044  1.8667
   17SAPS  H17S 2202   5.339   4.693   4.910  4.5802 -3.5704 -1.3439
   17SAPS  C218 2203   5.372   4.485   4.958  0.9378 -0.2111 -0.1113
   17SAPS  H18R 2204   5.355   4.452   4.854 -1.5189  2.2665 -0.6031
   17SAPS  H18S 2205   5.326   4.410   5.026 -0.1835  0.5893  0.0471
   17SAPS  C219 2206   5.521   4.478   5.003 -0.3193  0.0883  0.7846
   17SAPS  H19R 2207   5.570   4.514   4.910 -1.1223 -0.2327  0.2224
   17SAPS  H19S 2208   5.554   4.372   4.998 -0.5462  0.0107  0.9308
   17SAPS  C220 2209   5.555   4.553   5.131 -0.1574  0.0678 -0.0818
   17SAPS  H20R 2210   5.473   4.549   5.206  0.0936 -0.9492  0.1627
   17SAPS  H20S 2211   5.581   4.658   5.106 -0.4368 -0.0441 -0.8432
   17SAPS  H20T 2212   5.650   4.514   5.174  0.7090  1.8880 -0.2739
   17SAPS   C33 2213   5.298   4.062   4.189 -0.0566  0.0892 -0.4028
   17SAPS   H3X 2214   5.338   3.984   4.121  5.5762  0.8546  1.4815
   17SAPS   H3Y 2215   5.222   4.013   4.253 -0.6431  1.1932 -0.2251
   17SAPS   C34 2216   5.416   4.115   4.274  0.2461 -0.5948 -0.3713
   17SAPS   H4X 2217   5.369   4.194   4.335  1.8235 -0.7144  1.0843
   17SAPS   H4Y 2218   5.495   4.168   4.217 -0.8652  2.9755  1.1701
   17SAPS   C35 2219   5.468   4.008   4.376 -0.7302 -0.3624  0.5630
   17SAPS   H5X 2220   5.540   3.937   4.330 -0.5043  0.7425 -0.8669
   17SAPS   H5Y 2221   5.382   3.951   4.416 -0.4318 -0.3481  1.2454
   17SAPS   C36 2222   5.551   4.083   4.484 -0.5815 -0.1075  0.9377
   17SAPS   H6X 2223   5.546   4.194   4.482 -1.1435 -0.1018  1.9888
   17SAPS   H6Y 2224   5.657   4.056   4.464 -0.2157  2.0770 -0.4810
   17SAPS   C37 2225   5.507   4.049   4.626 -0.3652 -1.0441 -0.0749
   17SAPS   H7X 2226   5.550   3.948   4.639  1.9144 -0.8025 -4.0579
   17SAPS   H7Y 2227   5.398   4.042   4.644 -0.4442 -0.6407 -0.3663
   17SAPS   C38 2228   5.568   4.136   4.734  0.2008  0.3347 -0.4631
   17SAPS   H8X 2229   5.525   4.238   4.722  2.2955  1.0446 -2.7757
   17SAPS   H8Y 2230   5.677   4.141   4.714  0.4731  1.6633  1.1958
   17SAPS   C39 2231   5.544   4.081   4.880 -0.1917 -0.0745  0.2078
   17SAPS   H9X 2232   5.608   4.138   4.950 -1.6217  0.2776  1.2984
   17SAPS   H9Y 2233   5.562   3.972   4.883  1.6194  0.1936  0.1803
   17SAPS  C310 2234   5.401   4.105   4.923 -0.3578 -0.2521  0.0652
   17SAPS  H10X 2235   5.328   4.042   4.866  0.6226 -0.3326 -1.1553
   17SAPS  H10Y 2236   5.382   4.214   4.918 -1.2298 -0.3052  1.5441
   17SAPS  C311 2237   5.375   4.046   5.066  0.2699 -0.4329 -0.5570
   17SAPS  H11X 2238   5.415   4.121   5.138 -3.3497  2.2173 -1.0039
   17SAPS  H11Y 2239   5.416   3.944   5.083 -0.9481 -1.0495 -1.1889
   17SAPS  C312 2240   5.216   4.051   5.084 -0.0200 -0.4883  0.0914
   17SAPS  H12X 2241   5.171   3.977   5.015 -0.6210  0.2711 -0.3380
   17SAPS  H12Y 2242   5.182   4.153   5.056  1.5968 -0.5523 -2.4646
   17SAPS  C313 2243   5.162   4.015   5.216 -0.0500 -1.1239  0.4210
   17SAPS  H13X 2244   5.052   4.031   5.210 -0.3783 -3.3508 -0.6366
   17SAPS  H13Y 2245   5.207   4.085   5.289 -0.9249 -0.3544  0.2412
   17SAPS  C314 2246   5.189   3.870   5.265  0.1526 -0.7945  0.1214
   17SAPS  H14X 2247   5.170   3.860   5.374  1.7846 -1.3364  0.3857
   17SAPS  H14Y 2248   5.290   3.832   5.239  0.0586 -1.6406  0.9490
   17SAPS  C315 2249   5.084   3.773   5.202 -0.0037  0.1437 -0.7747
   17SAPS  H15X 2250   5.082   3.775   5.090 -0.6215 -3.3766 -0.9185
   17SAPS  H15Y 2251   4.998   3.827   5.247  1.4183  1.0225  1.0154
   17SAPS  C316 2252   5.093   3.622   5.241  0.7599 -0.5612  0.6710
   17SAPS  H16X 2253   5.187   3.572   5.209  0.9261 -1.1818  2.0855
   17SAPS  H16Y 2254   5.018   3.562   5.185 -1.7294  1.7777  1.2857
   17SAPS  C317 2255   5.064   3.591   5.393  1.2729 -0.6931 -0.4502
   17SAPS  H17X 2256   5.132   3.656   5.452 -1.7669 -0.0880  2.7687
   17SAPS  H17Y 2257   5.090   3.487   5.422  0.0474 -1.1731 -1.0347
   17SAPS  C318 2258   4.914   3.623   5.440  0.1819  0.2771 -0.2290
   17SAPS  H18X 2259   4.887   3.729   5.419  1.3355  0.2976 -1.7524
   17SAPS  H18Y 2260   4.903   3.609   5.550  1.0279  0.5389 -0.1028
   17SAPS  H18Z 2261   4.851   3.564   5.370  1.5518  1.1691 -2.3014
   18SAPS     N 2262   4.132   6.424   7.719 -0.2779  0.4494 -0.3857
   18SAPS   HN1 2263   4.161   6.453   7.624  1.1508 -0.5817 -0.3006
   18SAPS   HN2 2264   4.030   6.404   7.717 -0.0944 -0.4673 -1.5064
   18SAPS   HN3 2265   4.161   6.485   7.798  2.6223 -3.4713  1.9605
   18SAPS   C12 2266   4.196   6.291   7.728 -0.6364 -0.2603 -0.2765
   18SAPS  H12A 2267   4.181   6.258   7.830  1.4283 -0.6010 -0.0421
   18SAPS   C13 2268   4.125   6.179   7.661  0.1394 -0.9739 -0.2931
   18SAPS  O13A 2269   4.003   6.196   7.625 -0.3216  0.0989  0.1805
   18SAPS  O13B 2270   4.178   6.065   7.668 -0.6066 -0.5946 -0.9390
   18SAPS   C11 2271   4.345   6.308   7.675 -0.4990 -0.5520 -0.3638
   18SAPS  H11A 2272   4.396   6.209   7.680 -0.4425 -0.5053  0.0198
   18SAPS  H11B 2273   4.412   6.371   7.738  1.8072 -0.3096 -2.8681
   18SAPS     P 2274   4.468   6.322   7.442 -0.3042  0.2894 -0.5970
   18SAPS   O13 2275   4.549   6.445   7.452  0.7582  0.2529 -0.0248
   18SAPS   O14 2276   4.528   6.191   7.477 -0.2250  0.0371  0.0993
   18SAPS   O12 2277   4.347   6.351   7.535  0.3427 -0.3164 -0.2133
   18SAPS   O11 2278   4.406   6.316   7.303  0.3724 -0.1833  0.2550
   18SAPS    C1 2279   4.269   6.331   7.275 -0.4356 -0.6050  0.0821
   18SAPS    HA 2280   4.209   6.249   7.321  1.2114 -1.0773  1.4999
   18SAPS    HB 2281   4.225   6.423   7.317  0.6201  0.0692 -0.2648
   18SAPS    C2 2282   4.252   6.327   7.122 -0.7275  0.0963  0.2590
   18SAPS    HS 2283   4.319   6.249   7.079 -0.1887  0.6527  0.0696
   18SAPS   O21 2284   4.294   6.454   7.069  0.1845 -0.3193 -0.3527
   18SAPS   C21 2285   4.347   6.442   6.947  0.2313 -0.0957 -0.5895
   18SAPS   O22 2286   4.362   6.336   6.883  0.3926 -0.0422  0.2961
   18SAPS   C22 2287   4.400   6.576   6.895  0.2354  0.3614 -0.0085
   18SAPS   H2R 2288   4.432   6.642   6.978  1.4578 -1.0314  0.6833
   18SAPS   H2S 2289   4.497   6.553   6.846  0.1504 -1.2980  0.5122
   18SAPS    C3 2290   4.105   6.292   7.086 -0.2979  0.4822 -0.1447
   18SAPS    HX 2291   4.051   6.387   7.102 -1.3533 -0.0738 -0.3095
   18SAPS    HY 2292   4.064   6.217   7.157 -3.3267  2.0081 -0.1359
   18SAPS   O31 2293   4.099   6.237   6.959 -0.8039  0.7332  0.3005
   18SAPS   C31 2294   3.989   6.264   6.888 -0.3073 -1.0034 -1.0394
   18SAPS   O32 2295   3.892   6.328   6.926  0.0482  0.6402 -0.2545
   18SAPS   C32 2296   4.015   6.232   6.741  0.1634 -0.6391  0.0415
   18SAPS   H2X 2297   3.952   6.148   6.703 -0.4638  0.9475 -2.5997
   18SAPS   H2Y 2298   4.122   6.201   6.734  0.1711 -0.8161  0.8161
   18SAPS   C23 2299   4.294   6.650   6.812 -0.2028 -0.7071 -0.3540
   18SAPS   H3R 2300   4.204   6.658   6.876 -0.1017 -0.9360 -0.1781
   18SAPS   H3S 2301   4.264   6.598   6.719  0.1336 -1.1639 -0.2124
   18SAPS   C24 2302   4.331   6.796   6.774  0.4223  0.3139  0.2105
   18SAPS   H4R 2303   4.372   6.842   6.866  1.9798  0.2625 -0.4262
   18SAPS   H4S 2304   4.233   6.839   6.744  0.3630  0.1677  0.1931
   18SAPS   C25 2305   4.440   6.801   6.675 -0.5864 -0.7594 -0.0096
   18SAPS   H5R 2306   4.545   6.800   6.708 -0.0018  1.6968 -1.5834
   18SAPS   C26 2307   4.429   6.807   6.536 -0.3263 -0.7519 -1.2152
   18SAPS   H6R 2308   4.519   6.800   6.472  0.8387 -0.3988  0.3269
   18SAPS   C27 2309   4.302   6.829   6.460 -0.0858 -0.0203  0.0097
   18SAPS   H7R 2310   4.287   6.935   6.429 -0.3712 -0.6494 -2.1766
   18SAPS   H7S 2311   4.216   6.813   6.529 -1.4367  1.2103 -1.3162
   18SAPS   C28 2312   4.274   6.736   6.344  0.8738 -0.1233  0.5646
   18SAPS   H8R 2313   4.230   6.638   6.367  0.4142  0.4879  2.5043
   18SAPS   C29 2314   4.303   6.762   6.215 -0.4439 -0.6946  0.3521
   18SAPS   H9R 2315   4.285   6.690   6.134 -1.2625 -1.1129  0.8927
   18SAPS  C210 2316   4.365   6.889   6.167 -0.2756 -1.0697  0.5333
   18SAPS  H10R 2317   4.456   6.904   6.229  0.4592 -0.0123 -0.7423
   18SAPS  H10S 2318   4.300   6.973   6.199 -0.4846 -1.3188  0.7665
   18SAPS  C211 2319   4.407   6.878   6.021  0.3685  0.6229 -0.2048
   18SAPS  H11R 2320   4.458   6.784   6.000 -0.2544 -0.3424  2.2212
   18SAPS  C212 2321   4.377   6.964   5.926 -0.0247 -0.2094 -0.2220
   18SAPS  H12R 2322   4.415   6.940   5.826  2.8963  0.8720  0.5047
   18SAPS  C213 2323   4.298   7.099   5.936 -0.5291  0.2353  0.3420
   18SAPS  H13R 2324   4.366   7.161   5.874  0.5662 -0.5161  0.7626
   18SAPS  H13S 2325   4.305   7.150   6.034  2.1999  1.3418 -0.3403
   18SAPS  C214 2326   4.155   7.087   5.873 -0.7331  0.0843 -0.3968
   18SAPS  H14R 2327   4.088   7.034   5.942  0.4914 -1.4835 -0.3724
   18SAPS  C215 2328   4.103   7.147   5.766  0.0144 -0.8927  0.4900
   18SAPS  H15R 2329   4.003   7.121   5.730 -0.7787  2.5535 -0.1437
   18SAPS  C216 2330   4.176   7.213   5.654  0.1065  0.2058 -0.6600
   18SAPS  H16R 2331   4.241   7.290   5.701  0.5749 -0.9772  0.6994
   18SAPS  H16S 2332   4.104   7.259   5.584  0.6669 -0.0232 -1.4065
   18SAPS  C217 2333   4.278   7.112   5.588  0.0119 -0.3368  0.0512
   18SAPS  H17R 2334   4.229   7.026   5.537  1.6158  0.1753 -2.5572
   18SAPS  H17S 2335   4.343   7.078   5.670 -1.0457  0.2180  1.1488
   18SAPS  C218 2336   4.365   7.169   5.475 -0.0857  1.2149  1.2995
   18SAPS  H18R 2337   4.408   7.259   5.524 -1.2514  0.5693  3.6684
   18SAPS  H18S 2338   4.320   7.210   5.382  1.9816  2.5802  0.8378
   18SAPS  C219 2339   4.472   7.070   5.435 -1.1492  0.1157 -0.3373
   18SAPS  H19R 2340   4.426   6.973   5.406  1.7084 -1.8034  1.0225
   18SAPS  H19S 2341   4.528   7.035   5.524 -2.9810  1.1950  1.3358
   18SAPS  C220 2342   4.572   7.122   5.336  1.0428  0.5289 -0.3372
   18SAPS  H20R 2343   4.623   7.210   5.380  4.0162 -1.3058  0.1654
   18SAPS  H20S 2344   4.518   7.161   5.247 -1.2300  0.4729  0.9502
   18SAPS  H20T 2345   4.645   7.039   5.322  0.1420 -0.3004 -0.3137
   18SAPS   C33 2346   3.995   6.355   6.646 -0.0173 -0.0391 -0.2383
   18SAPS   H3X 2347   4.089   6.415   6.647 -0.2665  0.3536  1.3409
   18SAPS   H3Y 2348   3.910   6.415   6.685  1.0839  1.4199 -0.0013
   18SAPS   C34 2349   3.961   6.309   6.506 -0.2403  0.8848 -0.4554
   18SAPS   H4X 2350   3.852   6.293   6.499 -0.3604  1.5952 -0.2921
   18SAPS   H4Y 2351   4.023   6.221   6.479 -0.5859  0.2106  0.8903
   18SAPS   C35 2352   4.002   6.407   6.399  0.1631  0.3131 -0.8172
   18SAPS   H5X 2353   4.113   6.412   6.395  0.3058 -1.9660 -0.9525
   18SAPS   H5Y 2354   3.966   6.510   6.419 -0.0403 -0.2162  1.9650
   18SAPS   C36 2355   3.968   6.364   6.256  0.0955  0.1251 -1.0130
   18SAPS   H6X 2356   3.860   6.359   6.231  0.3098 -0.8440 -1.8261
   18SAPS   H6Y 2357   4.004   6.260   6.244 -1.1870 -0.5329  0.4984
   18SAPS   C37 2358   4.042   6.446   6.149 -0.1892 -0.5888 -0.2284
   18SAPS   H7X 2359   4.145   6.414   6.124  0.5190  0.8136  0.7675
   18SAPS   H7Y 2360   4.051   6.545   6.199 -0.5488 -0.1051 -1.0927
   18SAPS   C38 2361   3.955   6.468   6.027  0.6174 -0.6731  0.1510
   18SAPS   H8X 2362   3.855   6.492   6.069  0.3778 -2.0447  0.4220
   18SAPS   H8Y 2363   3.950   6.372   5.972 -1.3802 -0.3262 -0.3365
   18SAPS   C39 2364   4.007   6.583   5.929  0.0202  0.1379 -0.1994
   18SAPS   H9X 2365   4.001   6.675   5.990  0.3855 -1.1933  1.9412
   18SAPS   H9Y 2366   3.927   6.582   5.852 -1.6170 -0.9054  1.4344
   18SAPS  C310 2367   4.153   6.552   5.882 -0.0850 -0.5462  0.3517
   18SAPS  H10X 2368   4.165   6.447   5.848 -0.2577 -0.1755 -0.8789
   18SAPS  H10Y 2369   4.218   6.570   5.971 -1.5076  1.7888  0.9954
   18SAPS  C311 2370   4.188   6.655   5.770 -0.4940  0.5629 -0.7989
   18SAPS  H11X 2371   4.298   6.670   5.771 -0.4683  0.6904  2.1763
   18SAPS  H11Y 2372   4.154   6.759   5.789 -3.6586 -0.5373  0.1620
   18SAPS  C312 2373   4.139   6.604   5.633  0.6686  0.6042  0.1309
   18SAPS  H12X 2374   4.040   6.554   5.646  1.8151 -1.6106  0.8122
   18SAPS  H12Y 2375   4.212   6.528   5.598  1.2650  1.0308  0.4475
   18SAPS  C313 2376   4.130   6.726   5.539 -0.5366  0.1262 -0.1231
   18SAPS  H13X 2377   4.230   6.774   5.528 -0.3747  0.0082  0.7407
   18SAPS  H13Y 2378   4.069   6.803   5.591  0.0509  1.1993 -0.9804
   18SAPS  C314 2379   4.069   6.696   5.394  0.0192 -0.1101  0.3243
   18SAPS  H14X 2380   3.964   6.664   5.411 -0.2037  0.7516  0.6094
   18SAPS  H14Y 2381   4.125   6.606   5.360 -2.0500 -1.8800  1.3698
   18SAPS  C315 2382   4.074   6.822   5.297 -0.2643 -0.0607  0.7984
   18SAPS  H15X 2383   4.178   6.862   5.298 -0.9060  1.8008 -0.3802
   18SAPS  H15Y 2384   4.001   6.891   5.344  1.1551  0.3727  2.4624
   18SAPS  C316 2385   4.027   6.789   5.153  0.2833 -0.1180 -0.7547
   18SAPS  H16X 2386   3.999   6.884   5.102 -1.6329 -0.6953 -0.8843
   18SAPS  H16Y 2387   3.932   6.731   5.152 -0.3276  0.8357 -2.0718
   18SAPS  C317 2388   4.131   6.723   5.061  0.0516  0.1059 -0.3895
   18SAPS  H17X 2389   4.133   6.614   5.085 -1.4736 -0.2825 -1.8238
   18SAPS  H17Y 2390   4.232   6.761   5.085  0.0704 -0.0277 -0.2518
   18SAPS  C318 2391   4.093   6.743   4.918  0.5010  0.2453  0.2585
   18SAPS  H18X 2392   3.993   6.697   4.905  0.9698 -0.8848  0.4754
   18SAPS  H18Y 2393   4.156   6.686   4.846  0.5339  1.0819 -0.3852
   18SAPS  H18Z 2394   4.092   6.849   4.884  0.2947  0.3025  0.4449
   19SAPS     N 2395   5.720   0.459   2.380  0.2368 -0.5726 -0.1117
   19SAPS   HN1 2396   5.714   0.544   2.320  2.5654  0.1969  0.6515
   19SAPS   HN2 2397   5.798   0.475   2.446 -1.1940 -0.0254  1.5199
   19SAPS   HN3 2398   5.748   0.385   2.312 -2.7422  0.4120 -2.6782
   19SAPS   C12 2399   5.602   0.422   2.461  0.5214 -0.8506 -0.2121
   19SAPS  H12A 2400   5.534   0.409   2.378  2.1072 -0.4577 -1.6326
   19SAPS   C13 2401   5.608   0.294   2.544 -0.4311  0.0782 -0.4576
   19SAPS  O13A 2402   5.710   0.216   2.532  0.2342 -0.2559 -0.2344
   19SAPS  O13B 2403   5.498   0.249   2.577  0.3207  0.0403 -0.4712
   19SAPS   C11 2404   5.560   0.544   2.552  0.6821  0.0717 -0.5355
   19SAPS  H11A 2405   5.637   0.555   2.630 -0.1810  1.8089  0.1382
   19SAPS  H11B 2406   5.467   0.532   2.611  1.7419  0.8148  1.3615
   19SAPS     P 2407   5.465   0.795   2.475  0.6470  0.4831  0.1811
   19SAPS   O13 2408   5.466   0.849   2.335  0.6715 -0.6852 -0.7941
   19SAPS   O14 2409   5.332   0.755   2.537  0.1319 -0.2687  0.6780
   19SAPS   O12 2410   5.555   0.663   2.475 -0.0252 -0.2560  0.0028
   19SAPS   O11 2411   5.521   0.906   2.575  0.6818 -0.1738 -0.0998
   19SAPS    C1 2412   5.655   0.900   2.631 -0.2545  0.4181 -0.2486
   19SAPS    HA 2413   5.728   0.849   2.564 -1.0611 -2.3299  0.8476
   19SAPS    HB 2414   5.699   1.002   2.642 -0.0613  0.1638  1.5667
   19SAPS    C2 2415   5.669   0.823   2.763 -0.3213  0.2601  0.5317
   19SAPS    HS 2416   5.653   0.716   2.738 -1.9633  0.5109  0.3760
   19SAPS   O21 2417   5.571   0.879   2.858 -0.4489 -0.3990  0.2159
   19SAPS   C21 2418   5.509   0.787   2.935 -0.3794 -0.2772 -0.1228
   19SAPS   O22 2419   5.514   0.665   2.913  0.4777  0.2828  0.1615
   19SAPS   C22 2420   5.439   0.856   3.053 -0.4314  0.7290  0.3763
   19SAPS   H2R 2421   5.511   0.932   3.088  1.1247 -0.7903  0.6039
   19SAPS   H2S 2422   5.354   0.909   3.004 -1.0991  0.3528  1.1096
   19SAPS    C3 2423   5.818   0.843   2.816  0.2041  0.0836 -0.1637
   19SAPS    HX 2424   5.837   0.951   2.802  0.2778 -0.1262 -1.9289
   19SAPS    HY 2425   5.897   0.799   2.752  2.3265  0.3761  2.1272
   19SAPS   O31 2426   5.831   0.797   2.957  0.1498 -0.1801 -0.1038
   19SAPS   C31 2427   5.859   0.665   2.982  0.6389  0.1583 -0.0644
   19SAPS   O32 2428   5.861   0.577   2.896 -0.2858  0.0840 -0.2304
   19SAPS   C32 2429   5.878   0.648   3.135 -0.0690  0.6401 -0.0215
   19SAPS   H2X 2430   5.930   0.553   3.159  0.9714  1.5544  1.5561
   19SAPS   H2Y 2431   5.776   0.634   3.175  0.1578  0.7649  0.6279
   19SAPS   C23 2432   5.402   0.760   3.162  0.8434 -0.1621 -0.1702
   19SAPS   H3R 2433   5.496   0.755   3.221  1.1456  0.0384 -0.6301
   19SAPS   H3S 2434   5.372   0.656   3.139  0.1211  0.3626 -1.7227
   19SAPS   C24 2435   5.290   0.813   3.252 -0.4627  0.5554  0.2101
   19SAPS   H4R 2436   5.317   0.918   3.276  0.7946  0.6379 -1.3859
   19SAPS   H4S 2437   5.291   0.761   3.350  2.3851 -1.0955 -0.5949
   19SAPS   C25 2438   5.147   0.803   3.203 -0.6199  0.4362  0.6192
   19SAPS   H5R 2439   5.136   0.837   3.099  1.3635  0.8162  0.5037
   19SAPS   C26 2440   5.040   0.756   3.272 -0.0116  0.1377 -0.4458
   19SAPS   H6R 2441   4.950   0.729   3.215 -1.5581  0.2948  1.7927
   19SAPS   C27 2442   5.037   0.717   3.417  0.3342  0.3965 -0.1685
   19SAPS   H7R 2443   5.087   0.807   3.459  1.6202  0.6283 -2.0573
   19SAPS   H7S 2444   5.103   0.628   3.422 -0.0506 -0.1108 -2.7391
   19SAPS   C28 2445   4.891   0.704   3.465 -0.1528 -0.2187  0.0622
   19SAPS   H8R 2446   4.810   0.730   3.395 -1.8829 -3.1168  0.8347
   19SAPS   C29 2447   4.857   0.685   3.595 -0.2404  0.0361  0.5225
   19SAPS   H9R 2448   4.749   0.686   3.618 -0.4243 -0.9269 -0.2117
   19SAPS  C210 2449   4.950   0.661   3.709  0.7895 -0.4218  0.1884
   19SAPS  H10R 2450   4.947   0.745   3.781  1.8561  1.9009 -2.2701
   19SAPS  H10S 2451   5.057   0.644   3.683  0.3667  1.1571 -3.1652
   19SAPS  C211 2452   4.896   0.533   3.764 -0.6416  0.5841 -0.0819
   19SAPS  H11R 2453   4.914   0.448   3.698 -1.0992 -0.4705  1.1014
   19SAPS  C212 2454   4.851   0.513   3.886 -0.4530 -0.0759 -0.4105
   19SAPS  H12R 2455   4.817   0.411   3.908  0.9411 -0.6339 -0.7602
   19SAPS  C213 2456   4.833   0.619   3.996  0.0838  0.0668  0.1312
   19SAPS  H13R 2457   4.754   0.583   4.065  2.2605 -4.9854  0.4259
   19SAPS  H13S 2458   4.785   0.702   3.940 -0.5697 -0.0311  0.5393
   19SAPS  C214 2459   4.967   0.647   4.062 -0.1219 -0.3775  0.0884
   19SAPS  H14R 2460   5.034   0.703   3.995 -0.3758 -0.9293 -0.6489
   19SAPS  C215 2461   4.997   0.627   4.192  0.2760 -0.8339 -0.4655
   19SAPS  H15R 2462   5.102   0.630   4.221  0.0997  0.6196  0.0690
   19SAPS  C216 2463   4.904   0.551   4.288  0.0922 -0.3959  0.5795
   19SAPS  H16R 2464   4.864   0.463   4.235  1.1629  0.1740 -1.2608
   19SAPS  H16S 2465   4.818   0.612   4.322 -0.0149 -1.1051  1.6250
   19SAPS  C217 2466   4.975   0.507   4.418 -0.0191 -0.0063 -0.0511
   19SAPS  H17R 2467   5.069   0.456   4.387  1.1595  1.0087  1.6909
   19SAPS  H17S 2468   4.909   0.440   4.477 -0.6064  0.7738  0.2001
   19SAPS  C218 2469   5.003   0.616   4.519  0.5030 -0.2901  0.6411
   19SAPS  H18R 2470   4.907   0.643   4.569  0.4750  0.6173  0.1257
   19SAPS  H18S 2471   5.050   0.708   4.478 -0.2783  0.4863  1.4179
   19SAPS  C219 2472   5.094   0.577   4.641  0.1999 -0.5635 -0.2916
   19SAPS  H19R 2473   5.183   0.528   4.596 -0.0331 -1.3137  0.0540
   19SAPS  H19S 2474   5.048   0.509   4.715  1.4251 -1.0477  0.0433
   19SAPS  C220 2475   5.129   0.704   4.714 -0.2119 -0.4055  0.6450
   19SAPS  H20R 2476   5.039   0.752   4.757  0.1896  1.1731 -0.2158
   19SAPS  H20S 2477   5.179   0.780   4.650 -2.2356  0.8827  0.5326
   19SAPS  H20T 2478   5.194   0.676   4.801 -1.3185 -1.9255  1.0265
   19SAPS   C33 2479   5.952   0.753   3.210 -0.4942 -0.3945  0.4148
   19SAPS   H3X 2480   5.922   0.858   3.186  1.9592  0.1159 -0.7372
   19SAPS   H3Y 2481   6.056   0.763   3.173 -0.8815  0.4076 -0.4843
   19SAPS   C34 2482   5.953   0.742   3.358  0.2029  0.5584 -0.5455
   19SAPS   H4X 2483   5.969   0.635   3.386  2.7787  1.0699  0.2179
   19SAPS   H4Y 2484   5.859   0.780   3.403 -0.5893  0.5033 -2.0668
   19SAPS   C35 2485   6.078   0.807   3.417 -0.0156  0.0365  0.0686
   19SAPS   H5X 2486   6.071   0.918   3.428  1.9764  0.1136  1.1605
   19SAPS   H5Y 2487   6.167   0.786   3.354 -0.8230 -1.6469 -0.5607
   19SAPS   C36 2488   6.106   0.755   3.561 -0.8095  0.7063  0.0038
   19SAPS   H6X 2489   6.168   0.663   3.548  0.1089  1.1882  0.8351
   19SAPS   H6Y 2490   6.011   0.724   3.608 -0.3836  1.5004  1.4292
   19SAPS   C37 2491   6.186   0.853   3.651  0.1842  0.0796 -0.2417
   19SAPS   H7X 2492   6.141   0.953   3.665  0.5401  0.2203 -0.0873
   19SAPS   H7Y 2493   6.290   0.869   3.615  0.2579  0.7514  0.2552
   19SAPS   C38 2494   6.195   0.802   3.795 -0.2310 -0.2026  0.2904
   19SAPS   H8X 2495   6.200   0.691   3.801 -1.5645 -0.2197  1.3991
   19SAPS   H8Y 2496   6.106   0.830   3.855 -0.7113  1.3594 -1.0475
   19SAPS   C39 2497   6.317   0.868   3.873 -0.4739  0.0989  0.3494
   19SAPS   H9X 2498   6.343   0.967   3.831 -0.6171  0.2532  0.6223
   19SAPS   H9Y 2499   6.401   0.802   3.840 -1.2143 -0.5448 -0.3002
   19SAPS  C310 2500   6.298   0.878   4.027 -0.1676  0.0987 -0.8930
   19SAPS  H10X 2501   6.225   0.958   4.050  1.6489  1.6647 -0.3915
   19SAPS  H10Y 2502   6.390   0.935   4.051 -0.1515 -0.7463  1.2353
   19SAPS  C311 2503   6.302   0.754   4.114  0.6078  0.7854  0.3423
   19SAPS  H11X 2504   6.396   0.699   4.093  0.9798  1.7187 -0.5233
   19SAPS  H11Y 2505   6.218   0.687   4.085  1.2627  0.1975 -0.2349
   19SAPS  C312 2506   6.310   0.779   4.261  0.0442 -0.0273  0.2526
   19SAPS  H12X 2507   6.328   0.683   4.314  1.3333 -0.5972 -1.1439
   19SAPS  H12Y 2508   6.214   0.829   4.285  0.1372  1.0396 -1.4040
   19SAPS  C313 2509   6.429   0.871   4.297  0.0440  0.4108 -0.0593
   19SAPS  H13X 2510   6.398   0.976   4.279  1.4289  0.7721 -0.4679
   19SAPS  H13Y 2511   6.518   0.847   4.235  0.1482  0.2556  0.1489
   19SAPS  C314 2512   6.477   0.857   4.446  0.4976  0.1181  0.1137
   19SAPS  H14X 2513   6.570   0.913   4.469  0.6310 -0.2344  0.4435
   19SAPS  H14Y 2514   6.507   0.750   4.455  2.1623  0.4282 -1.3563
   19SAPS  C315 2515   6.375   0.902   4.550  0.9227 -0.2466 -0.2083
   19SAPS  H15X 2516   6.300   0.821   4.553  1.3732 -0.7814 -2.1271
   19SAPS  H15Y 2517   6.334   0.998   4.511  1.4849  0.8726  1.7810
   19SAPS  C316 2518   6.433   0.919   4.689 -0.6624 -0.4856  0.1739
   19SAPS  H16X 2519   6.505   1.003   4.686 -1.1269 -0.0776  0.3673
   19SAPS  H16Y 2520   6.487   0.825   4.713  0.4928 -0.6159 -2.5695
   19SAPS  C317 2521   6.337   0.955   4.806 -0.2199  0.2625 -0.1900
   19SAPS  H17X 2522   6.397   0.994   4.891 -1.7852  0.5749  0.8124
   19SAPS  H17Y 2523   6.301   0.857   4.843  0.0610  0.5885  0.9832
   19SAPS  C318 2524   6.229   1.047   4.773  0.3264 -0.2670 -0.0961
   19SAPS  H18X 2525   6.152   1.060   4.852 -1.1475 -1.1652 -1.3421
   19SAPS  H18Y 2526   6.164   1.003   4.695  0.3234  2.0324 -1.4806
   19SAPS  H18Z 2527   6.270   1.145   4.741  1.4753 -0.8415 -0.4810
   20SAPS     N 2528   0.768   0.486   2.608 -0.0301  0.0181  0.3501
   20SAPS   HN1 2529   0.709   0.482   2.694  1.6213 -0.0066  1.5407
   20SAPS   HN2 2530   0.714   0.540   2.538  1.1885 -1.6677 -1.9927
   20SAPS   HN3 2531   0.790   0.398   2.559 -2.1377  0.3722 -1.3731
   20SAPS   C12 2532   0.879   0.565   2.649 -0.0843 -0.9579  0.3287
   20SAPS  H12A 2533   0.919   0.582   2.549 -0.2273  1.9378  0.6645
   20SAPS   C13 2534   0.846   0.705   2.694 -0.6102 -0.1159  0.2252
   20SAPS  O13A 2535   0.726   0.743   2.692 -0.6121 -0.1536  0.3061
   20SAPS  O13B 2536   0.936   0.783   2.732 -0.3154 -0.6716  0.5906
   20SAPS   C11 2537   0.981   0.496   2.742 -0.5129 -0.2314  0.5868
   20SAPS  H11A 2538   0.941   0.498   2.846 -1.3983  0.8030  0.2425
   20SAPS  H11B 2539   1.076   0.552   2.743  0.8409 -2.2482 -2.1437
   20SAPS     P 2540   1.142   0.290   2.695 -0.1631 -0.0717  0.3315
   20SAPS   O13 2541   1.110   0.147   2.694 -0.3205 -0.0891 -0.5199
   20SAPS   O14 2542   1.213   0.338   2.572  0.0324  0.5995 -0.0338
   20SAPS   O12 2543   1.001   0.362   2.700 -0.0255 -0.2593 -0.2255
   20SAPS   O11 2544   1.220   0.334   2.829 -0.6290  0.6426  0.2782
   20SAPS    C1 2545   1.312   0.254   2.893  0.2252  0.1673  0.0584
   20SAPS    HA 2546   1.354   0.177   2.825  0.6808  0.2911  0.1995
   20SAPS    HB 2547   1.399   0.317   2.921 -0.6445  0.4737  2.3165
   20SAPS    C2 2548   1.246   0.188   3.021 -0.3897  0.0480  0.0880
   20SAPS    HS 2549   1.157   0.136   2.978  0.0402 -0.6561  0.0231
   20SAPS   O21 2550   1.234   0.302   3.109  0.0380 -0.1935 -0.1442
   20SAPS   C21 2551   1.118   0.305   3.175  0.3707 -0.3473  0.1345
   20SAPS   O22 2552   1.018   0.248   3.135  0.1187  0.0953 -0.2573
   20SAPS   C22 2553   1.134   0.401   3.293 -0.4099  0.2981 -0.0590
   20SAPS   H2R 2554   1.231   0.373   3.338  0.0855  2.2338  0.1330
   20SAPS   H2S 2555   1.149   0.499   3.245 -0.0971 -0.2163 -1.0443
   20SAPS    C3 2556   1.334   0.083   3.080  0.1898  0.3000  0.0536
   20SAPS    HX 2557   1.438   0.120   3.088  0.4426 -0.5933  1.2970
   20SAPS    HY 2558   1.341  -0.005   3.012 -0.4322  0.7459 -0.6034
   20SAPS   O31 2559   1.292   0.047   3.218  0.4983 -0.2531  0.5061
   20SAPS   C31 2560   1.181  -0.023   3.221  0.5234  0.3228  0.3915
   20SAPS   O32 2561   1.131  -0.074   3.123  0.2980 -0.2812  0.7877
   20SAPS   C32 2562   1.115  -0.010   3.357  0.4946 -0.1245  0.2163
   20SAPS   H2X 2563   1.138   0.088   3.405 -1.8467  0.0106  1.1979
   20SAPS   H2Y 2564   1.146  -0.096   3.420 -1.6984 -1.7329 -0.7612
   20SAPS   C23 2565   1.024   0.392   3.395  0.1893  0.7503  0.3776
   20SAPS   H3R 2566   0.993   0.286   3.380 -0.6881  1.1666 -1.0187
   20SAPS   H3S 2567   0.936   0.453   3.364  0.3752  0.0756 -1.6355
   20SAPS   C24 2568   1.073   0.429   3.534 -1.1025  0.4035  0.5781
   20SAPS   H4R 2569   1.172   0.381   3.547 -0.4406  1.4212 -0.4816
   20SAPS   H4S 2570   0.997   0.387   3.603 -0.7958  1.0616  1.3260
   20SAPS   C25 2571   1.085   0.576   3.557 -0.3417  0.6665  0.2136
   20SAPS   H5R 2572   1.105   0.633   3.465  2.1219  0.5649  0.6317
   20SAPS   C26 2573   1.072   0.642   3.670  0.0824 -0.2813  0.2402
   20SAPS   H6R 2574   1.076   0.752   3.672  1.4991 -0.2838 -0.7027
   20SAPS   C27 2575   1.053   0.574   3.804  0.1288  0.6639 -0.2060
   20SAPS   H7R 2576   1.036   0.465   3.795  1.8738  0.3617 -0.1738
   20SAPS   H7S 2577   0.963   0.616   3.855  0.7185  1.5729  0.1054
   20SAPS   C28 2578   1.180   0.606   3.884  0.6243 -0.6188  0.9104
   20SAPS   H8R 2579   1.240   0.687   3.839 -3.8332  1.0631 -2.8452
   20SAPS   C29 2580   1.208   0.571   4.011  0.1992  0.3109  0.3619
   20SAPS   H9R 2581   1.304   0.610   4.049 -0.3092  0.1898  1.8304
   20SAPS  C210 2582   1.132   0.471   4.097  0.0234 -0.3402  0.4037
   20SAPS  H10R 2583   1.205   0.410   4.154 -1.4778 -1.2829  1.3893
   20SAPS  H10S 2584   1.071   0.404   4.033 -2.6407 -0.1868  2.6313
   20SAPS  C211 2585   1.030   0.535   4.187 -0.4906  0.8412 -0.5723
   20SAPS  H11R 2586   0.935   0.560   4.138  0.0709 -0.5341 -2.4791
   20SAPS  C212 2587   1.050   0.570   4.318 -0.1209  0.6134 -0.7018
   20SAPS  H12R 2588   0.969   0.620   4.373  0.5021  2.0673 -1.0596
   20SAPS  C213 2589   1.172   0.545   4.410 -0.2325  0.4361  0.3465
   20SAPS  H13R 2590   1.160   0.610   4.500  1.7522  2.4106 -0.7463
   20SAPS  H13S 2591   1.252   0.585   4.346 -1.3067 -0.0112 -1.3484
   20SAPS  C214 2592   1.203   0.399   4.438 -0.1196 -0.2883 -0.0315
   20SAPS  H14R 2593   1.161   0.327   4.366  0.6130 -1.0046  0.2519
   20SAPS  C215 2594   1.262   0.348   4.541 -0.0648 -0.3983  0.2535
   20SAPS  H15R 2595   1.270   0.239   4.549 -1.0549 -0.3832  1.8256
   20SAPS  C216 2596   1.313   0.427   4.666  0.0618  0.5973 -0.2326
   20SAPS  H16R 2597   1.270   0.379   4.756 -1.7499 -0.4038 -1.5601
   20SAPS  H16S 2598   1.293   0.536   4.657 -1.9484  0.3955  1.0377
   20SAPS  C217 2599   1.466   0.408   4.663  0.1288  0.3972  0.0666
   20SAPS  H17R 2600   1.519   0.431   4.569 -1.2515  1.0663 -0.5676
   20SAPS  H17S 2601   1.488   0.303   4.693  0.3232  0.4544  0.1283
   20SAPS  C218 2602   1.532   0.485   4.782  0.0171 -0.4197  0.1980
   20SAPS  H18R 2603   1.473   0.463   4.873  0.0240  0.0432  0.3181
   20SAPS  H18S 2604   1.525   0.592   4.751  2.3575 -0.6441 -1.3324
   20SAPS  C219 2605   1.678   0.452   4.798 -0.1282 -0.5397  0.1417
   20SAPS  H19R 2606   1.735   0.483   4.708  0.7125 -1.9085  0.1715
   20SAPS  H19S 2607   1.691   0.342   4.807  0.2338 -0.3737  1.9914
   20SAPS  C220 2608   1.740   0.510   4.926  0.0623 -1.5711 -0.2765
   20SAPS  H20R 2609   1.850   0.499   4.934  0.2062 -1.5307 -1.8143
   20SAPS  H20S 2610   1.690   0.451   5.005 -0.9718 -0.8927 -0.4066
   20SAPS  H20T 2611   1.723   0.618   4.942  3.5637 -0.9319 -0.1376
   20SAPS   C33 2612   0.963  -0.020   3.349  0.2554 -1.2675  0.0634
   20SAPS   H3X 2613   0.945  -0.117   3.298  0.8242 -0.4257 -1.8530
   20SAPS   H3Y 2614   0.920   0.051   3.274  2.7628  0.1626 -0.1260
   20SAPS   C34 2615   0.894  -0.028   3.485  0.0764 -0.5204  0.5316
   20SAPS   H4X 2616   0.928   0.067   3.531  0.7352  0.2791 -1.4785
   20SAPS   H4Y 2617   0.924  -0.113   3.550 -2.3136 -1.3426  0.6483
   20SAPS   C35 2618   0.741  -0.028   3.464  0.2899  0.4441 -0.0163
   20SAPS   H5X 2619   0.709  -0.122   3.415 -0.0663  1.0057 -0.8794
   20SAPS   H5Y 2620   0.706   0.059   3.405 -0.1974  0.2762  0.0197
   20SAPS   C36 2621   0.662  -0.015   3.603  0.8419 -0.6552 -0.0515
   20SAPS   H6X 2622   0.703  -0.083   3.681  0.3441  2.2949  3.0506
   20SAPS   H6Y 2623   0.565  -0.063   3.577  0.9226 -0.1428 -1.3675
   20SAPS   C37 2624   0.650   0.125   3.664 -0.1074 -0.1190 -0.2772
   20SAPS   H7X 2625   0.610   0.191   3.584  0.2119  1.1035  0.5533
   20SAPS   H7Y 2626   0.753   0.164   3.682  1.3096 -2.3799 -2.7488
   20SAPS   C38 2627   0.546   0.128   3.781 -0.2299  0.1413  0.1284
   20SAPS   H8X 2628   0.457   0.065   3.759  0.8520 -1.2828 -0.3391
   20SAPS   H8Y 2629   0.510   0.228   3.813  1.7583  0.9917 -0.1759
   20SAPS   C39 2630   0.618   0.078   3.913  0.4699 -0.0027  0.1793
   20SAPS   H9X 2631   0.708   0.138   3.936  0.2219  1.0068 -1.3117
   20SAPS   H9Y 2632   0.645  -0.028   3.894 -0.8646 -0.5499  1.1455
   20SAPS  C310 2633   0.518   0.090   4.032  0.6935  0.3081  0.4947
   20SAPS  H10X 2634   0.435   0.021   4.005  0.2204  1.1067 -0.1494
   20SAPS  H10Y 2635   0.483   0.195   4.035  1.3299  0.5300  0.4510
   20SAPS  C311 2636   0.576   0.044   4.161  0.5886  0.1830 -0.5603
   20SAPS  H11X 2637   0.657   0.117   4.186 -0.0762  0.7133  0.0792
   20SAPS  H11Y 2638   0.614  -0.056   4.132  1.1376  0.0761  0.4586
   20SAPS  C312 2639   0.484   0.038   4.287  0.0229  0.0175  0.3395
   20SAPS  H12X 2640   0.398  -0.027   4.260  1.6321 -1.3093 -2.0166
   20SAPS  H12Y 2641   0.437   0.136   4.310 -1.2690 -0.5962  0.3803
   20SAPS  C313 2642   0.544  -0.019   4.414 -0.0015  0.5926 -0.6205
   20SAPS  H13X 2643   0.623   0.050   4.450 -0.6100  1.2410 -0.5033
   20SAPS  H13Y 2644   0.584  -0.121   4.400 -0.8694 -0.0007  0.9632
   20SAPS  C314 2645   0.433  -0.022   4.528  0.2126 -0.2865  0.3905
   20SAPS  H14X 2646   0.347  -0.086   4.498 -1.2216  1.4408  0.6363
   20SAPS  H14Y 2647   0.405   0.084   4.546  0.4704  0.4492 -2.8954
   20SAPS  C315 2648   0.493  -0.064   4.663  0.6841 -0.5882 -0.8736
   20SAPS  H15X 2649   0.601  -0.038   4.675  1.4355 -2.8031 -2.3437
   20SAPS  H15Y 2650   0.497  -0.174   4.669  0.5970 -0.7018 -2.4113
   20SAPS  C316 2651   0.423  -0.007   4.789  0.5481  0.1599 -0.3624
   20SAPS  H16X 2652   0.312  -0.008   4.781  0.3885 -0.9386  1.4864
   20SAPS  H16Y 2653   0.445   0.102   4.792 -3.4556  1.1168  0.4468
   20SAPS  C317 2654   0.447  -0.081   4.917 -0.1597  0.3394 -0.7554
   20SAPS  H17X 2655   0.554  -0.104   4.937 -0.8197 -0.5235  2.2919
   20SAPS  H17Y 2656   0.385  -0.173   4.911  2.2518 -1.2589 -3.2500
   20SAPS  C318 2657   0.403  -0.002   5.044  0.3164  0.1577 -0.0063
   20SAPS  H18X 2658   0.436  -0.057   5.135  0.0045 -0.4130 -0.2310
   20SAPS  H18Y 2659   0.293   0.005   5.057  0.5819  3.1764  1.4181
   20SAPS  H18Z 2660   0.440   0.103   5.040 -2.2971  1.1461  0.2397
   21CHL1    C3 2661   1.629   0.046   6.936  0.1641 -0.6255  0.5610
   21CHL1    H3 2662   1.674   0.147   6.946  1.4919 -1.1200 -0.1660
   21CHL1    O3 2663   1.587   0.028   7.067 -0.3924 -0.0278 -0.6453
   21CHL1   H3' 2664   1.531  -0.050   7.063 -0.7288  0.0178  1.9085
   21CHL1    C4 2665   1.512   0.039   6.837 -0.6496 -0.0852 -0.1316
   21CHL1   H4A 2666   1.438  -0.043   6.855 -0.1009 -0.3081  1.2658
   21CHL1   H4B 2667   1.457   0.131   6.865  1.8538  1.1201  1.1482
   21CHL1    C5 2668   1.551   0.043   6.693  0.2251  0.3190  0.3198
   21CHL1    C6 2669   1.501   0.134   6.597 -0.2987 -0.1582 -0.0343
   21CHL1    H6 2670   1.430   0.213   6.626  0.1070  0.6097 -1.0650
   21CHL1    C7 2671   1.518   0.111   6.455  0.1716  0.0778 -0.1489
   21CHL1   H7A 2672   1.415   0.114   6.411  0.3323 -2.6272 -0.8869
   21CHL1   H7B 2673   1.585   0.190   6.414 -1.2027  0.7233 -1.2925
   21CHL1    C8 2674   1.583  -0.025   6.407  0.3071 -0.3531  0.5656
   21CHL1    H8 2675   1.501  -0.101   6.404 -0.0864  0.0936 -0.1635
   21CHL1   C14 2676   1.651  -0.015   6.270 -0.1274  0.4527  0.2844
   21CHL1   H14 2677   1.741   0.046   6.289  0.5580 -0.2783 -0.5292
   21CHL1   C15 2678   1.564   0.057   6.164 -0.0900  0.4756  0.2613
   21CHL1  H15A 2679   1.461   0.015   6.160  0.5627 -1.1173 -0.5657
   21CHL1  H15B 2680   1.552   0.164   6.190 -2.4700 -0.0241  1.5864
   21CHL1   C16 2681   1.620   0.010   6.025  0.3471 -0.4363 -0.1046
   21CHL1  H16A 2682   1.550  -0.052   5.965 -0.6777  1.3159 -0.8017
   21CHL1  H16B 2683   1.660   0.103   5.979 -0.3668  2.0780  3.9052
   21CHL1   C17 2684   1.734  -0.092   6.061  0.6236  0.0347  0.7820
   21CHL1   H17 2685   1.822  -0.027   6.078  0.3499  0.3830  0.8696
   21CHL1   C13 2686   1.699  -0.143   6.204  0.6201  0.2000 -0.4175
   21CHL1   C18 2687   1.591  -0.252   6.178 -0.2747  0.0522 -0.5994
   21CHL1  H18A 2688   1.620  -0.333   6.108  0.4032 -0.2326  0.0005
   21CHL1  H18B 2689   1.575  -0.315   6.269  1.8990 -1.3695 -1.1127
   21CHL1  H18C 2690   1.495  -0.212   6.140 -1.3204  0.5604  2.3131
   21CHL1   C12 2691   1.811  -0.192   6.298 -0.1104  0.7740 -1.0175
   21CHL1  H12A 2692   1.839  -0.297   6.274  0.2341 -0.1808  2.8015
   21CHL1  H12B 2693   1.903  -0.132   6.288  0.9683 -0.5271  0.4791
   21CHL1   C11 2694   1.766  -0.197   6.451  0.1471  0.3718 -0.2699
   21CHL1  H11A 2695   1.688  -0.277   6.450  0.4361  0.0754 -1.9021
   21CHL1  H11B 2696   1.835  -0.247   6.522 -1.6657 -0.6086  0.8731
   21CHL1    C9 2697   1.696  -0.069   6.501  0.0629 -0.3650 -0.0361
   21CHL1    H9 2698   1.778   0.005   6.497 -0.0532 -0.1955  0.5772
   21CHL1   C10 2699   1.642  -0.071   6.651  0.5920  0.2102  0.3659
   21CHL1   C19 2700   1.574  -0.208   6.674  0.1973 -0.9766 -0.1037
   21CHL1  H19A 2701   1.643  -0.294   6.665  1.2007 -0.1206 -0.8986
   21CHL1  H19B 2702   1.529  -0.221   6.775 -0.6298  3.4350  0.3025
   21CHL1  H19C 2703   1.492  -0.226   6.601 -0.4515 -0.2354  0.4178
   21CHL1    C1 2704   1.761  -0.067   6.749  0.1272  0.1684 -0.1937
   21CHL1   H1A 2705   1.820  -0.159   6.727 -1.3566 -1.0208  0.6104
   21CHL1   H1B 2706   1.819   0.025   6.730 -0.8292  0.6514 -0.8286
   21CHL1    C2 2707   1.723  -0.061   6.899  0.4044  0.2876 -0.2245
   21CHL1   H2A 2708   1.812  -0.047   6.963  0.4928 -2.4206  0.3759
   21CHL1   H2B 2709   1.677  -0.160   6.923  2.9685 -1.2437 -1.2509
   21CHL1   C20 2710   1.770  -0.189   5.946  0.3712  0.6399 -0.5813
   21CHL1   H20 2711   1.678  -0.248   5.923 -0.2051  0.9209  0.8778
   21CHL1   C21 2712   1.895  -0.272   5.993 -0.6349 -0.1547 -0.2389
   21CHL1  H21A 2713   1.983  -0.211   6.021  1.0299 -2.4874 -0.1183
   21CHL1  H21B 2714   1.924  -0.336   5.907 -0.4066 -0.2000 -0.1277
   21CHL1  H21C 2715   1.863  -0.336   6.078 -1.1944  2.4712  1.6565
   21CHL1   C22 2716   1.807  -0.120   5.814 -0.1338  0.4559  0.0662
   21CHL1  H22A 2717   1.722  -0.057   5.782  0.3852  0.8560 -0.5416
   21CHL1  H22B 2718   1.882  -0.045   5.847 -2.8841  2.0901  3.2740
   21CHL1   C23 2719   1.834  -0.217   5.697  0.3557 -0.0390 -0.1311
   21CHL1  H23A 2720   1.914  -0.290   5.722  0.4801 -0.7845 -2.4782
   21CHL1  H23B 2721   1.743  -0.278   5.678  0.5401 -0.8520  1.4509
   21CHL1   C24 2722   1.874  -0.149   5.573  0.5199  0.1806  0.0349
   21CHL1  H24A 2723   1.818  -0.053   5.568  1.0077  0.5021  0.6529
   21CHL1  H24B 2724   1.985  -0.145   5.572  0.6029 -1.0504  0.9567
   21CHL1   C25 2725   1.852  -0.221   5.440  0.4005  0.4892  0.1934
   21CHL1   H25 2726   1.889  -0.155   5.358 -0.1599  0.0317 -0.4324
   21CHL1   C26 2727   1.924  -0.353   5.444  0.0079  0.5476 -0.0669
   21CHL1  H26A 2728   1.893  -0.418   5.528 -1.6183  1.3523  0.0096
   21CHL1  H26B 2729   1.895  -0.409   5.352 -2.7193  0.0200  0.9989
   21CHL1  H26C 2730   2.034  -0.341   5.443  0.2285 -1.0041 -1.8651
   21CHL1   C27 2731   1.710  -0.258   5.399 -0.1824 -0.5006  0.3719
   21CHL1  H27A 2732   1.654  -0.302   5.485  0.0041  0.0371  0.7732
   21CHL1  H27B 2733   1.663  -0.161   5.373 -0.0159 -0.5012  0.0698
   21CHL1  H27C 2734   1.709  -0.324   5.310  2.2707 -1.3701  0.8939
   22CHL1    C3 2735   6.311   0.889   6.790  0.7989 -0.2305  0.5771
   22CHL1    H3 2736   6.401   0.840   6.749  1.3800 -1.1818  2.8207
   22CHL1    O3 2737   6.325   0.902   6.931  0.3732  0.3979 -0.3657
   22CHL1   H3' 2738   6.238   0.900   6.972  0.2004  3.0707 -0.4651
   22CHL1    C4 2739   6.279   1.023   6.729  0.0686  0.8458  0.2273
   22CHL1   H4A 2740   6.186   1.052   6.782  0.1372  0.7169  0.4187
   22CHL1   H4B 2741   6.361   1.090   6.762 -0.8302  1.7296  0.7308
   22CHL1    C5 2742   6.252   1.012   6.574  1.0213 -0.4354  0.9850
   22CHL1    C6 2743   6.324   1.096   6.494 -0.3344 -0.7585  0.5740
   22CHL1    H6 2744   6.384   1.172   6.546 -0.7971 -0.8653  1.2732
   22CHL1    C7 2745   6.303   1.089   6.345  0.2336 -0.1118 -0.2075
   22CHL1   H7A 2746   6.296   1.196   6.313  0.5236 -0.1318 -0.3377
   22CHL1   H7B 2747   6.392   1.054   6.288  0.7172  1.1180 -0.2481
   22CHL1    C8 2748   6.172   1.017   6.302 -0.6477  0.9098  0.1355
   22CHL1    H8 2749   6.085   1.081   6.329 -2.8097 -1.9629  0.4458
   22CHL1   C14 2750   6.158   1.003   6.152  0.0426  0.4317  0.1529
   22CHL1   H14 2751   6.250   0.949   6.124  0.0005  0.6063 -0.3363
   22CHL1   C15 2752   6.161   1.126   6.074  0.2870  0.2769  0.7041
   22CHL1  H15A 2753   6.104   1.204   6.129 -1.3289 -0.9167  0.8090
   22CHL1  H15B 2754   6.258   1.177   6.058 -0.0878  1.3826  1.7691
   22CHL1   C16 2755   6.093   1.082   5.941 -0.1536  0.2215 -0.4217
   22CHL1  H16A 2756   6.007   1.151   5.926 -1.0286 -0.3436  1.6988
   22CHL1  H16B 2757   6.163   1.089   5.854 -0.4858  0.2375 -0.6890
   22CHL1   C17 2758   6.054   0.936   5.954  0.0074  0.2252  0.0299
   22CHL1   H17 2759   6.141   0.878   5.917 -0.2417  1.9441 -3.6805
   22CHL1   C13 2760   6.036   0.918   6.106  0.6639 -0.3877 -0.5665
   22CHL1   C18 2761   5.905   0.982   6.149 -0.2075 -0.6439 -1.2163
   22CHL1  H18A 2762   5.881   1.077   6.096 -1.0415  1.2999  2.3137
   22CHL1  H18B 2763   5.819   0.912   6.140  0.2927 -1.2692 -1.2120
   22CHL1  H18C 2764   5.900   1.015   6.255  2.4083  1.2267 -1.6002
   22CHL1   C12 2765   6.053   0.787   6.170  0.2852 -0.0037  0.3507
   22CHL1  H12A 2766   5.965   0.725   6.145 -0.1674  0.4725  0.7467
   22CHL1  H12B 2767   6.147   0.740   6.133  0.8745  2.0608 -0.9157
   22CHL1   C11 2768   6.056   0.787   6.323 -0.3347  0.5245  0.5860
   22CHL1  H11A 2769   5.958   0.818   6.365 -0.1926 -0.3439  1.6314
   22CHL1  H11B 2770   6.058   0.683   6.363 -0.5763 -0.5823 -2.0953
   22CHL1    C9 2771   6.163   0.880   6.380 -0.1954 -0.1656  0.0955
   22CHL1    H9 2772   6.262   0.832   6.365 -0.1141 -0.3262  1.0856
   22CHL1   C10 2773   6.154   0.904   6.530 -0.5057 -0.2241  0.0282
   22CHL1   C19 2774   6.022   0.960   6.569  0.0872  0.9268 -0.4538
   22CHL1  H19A 2775   5.994   1.062   6.536 -1.8735  0.6215  0.1381
   22CHL1  H19B 2776   5.951   0.875   6.562  2.5856 -1.3138 -0.3123
   22CHL1  H19C 2777   6.021   0.984   6.678  0.7677  3.5074 -0.9433
   22CHL1    C1 2778   6.176   0.777   6.607  0.4237 -0.0687 -0.1300
   22CHL1   H1A 2779   6.087   0.713   6.586 -0.2550  1.3096 -1.7131
   22CHL1   H1B 2780   6.265   0.725   6.566  0.4364  1.7770 -2.6921
   22CHL1    C2 2781   6.199   0.789   6.758 -0.3641  0.2845 -0.0593
   22CHL1   H2A 2782   6.225   0.688   6.796  0.7402  1.1890  1.7689
   22CHL1   H2B 2783   6.110   0.824   6.815 -1.8814 -0.4990 -1.8690
   22CHL1   C20 2784   5.937   0.901   5.860  0.2830  0.0571  0.4722
   22CHL1   H20 2785   5.849   0.953   5.902 -0.6505 -0.4047 -0.8530
   22CHL1   C21 2786   5.922   0.748   5.855  0.7164  0.5015 -0.4084
   22CHL1  H21A 2787   5.887   0.713   5.955  0.6558 -0.3177 -0.7181
   22CHL1  H21B 2788   6.015   0.695   5.825  2.5753  4.0228 -1.5219
   22CHL1  H21C 2789   5.855   0.724   5.770 -0.1467  0.4900  0.2526
   22CHL1   C22 2790   5.954   0.958   5.719 -0.5023  0.2685 -0.0674
   22CHL1  H22A 2791   5.998   1.060   5.717  1.7248 -0.5171  2.5883
   22CHL1  H22B 2792   6.033   0.898   5.669 -1.6278 -0.0241 -1.5478
   22CHL1   C23 2793   5.825   0.958   5.638  0.4228 -0.9580 -0.4591
   22CHL1  H23A 2794   5.768   0.864   5.625  0.0438 -0.4653 -2.7633
   22CHL1  H23B 2795   5.763   1.029   5.697  3.7484  0.6545  1.3885
   22CHL1   C24 2796   5.849   1.029   5.502  0.4556 -0.3089  0.2428
   22CHL1  H24A 2797   5.915   1.115   5.527 -0.3980  0.3343  0.3149
   22CHL1  H24B 2798   5.913   0.966   5.436  0.6974  0.5987 -0.4162
   22CHL1   C25 2799   5.730   1.069   5.420  0.2562  0.9362  0.1002
   22CHL1   H25 2800   5.654   1.130   5.474 -0.4208 -1.5549  2.1586
   22CHL1   C26 2801   5.771   1.154   5.299  0.0730 -1.0240 -0.3717
   22CHL1  H26A 2802   5.843   1.105   5.231  2.9179  3.3245 -0.9383
   22CHL1  H26B 2803   5.677   1.189   5.250  0.4198  0.3362 -0.1205
   22CHL1  H26C 2804   5.811   1.248   5.342  0.0294 -1.2404  0.1507
   22CHL1   C27 2805   5.654   0.943   5.377  0.0056 -0.3693  0.4346
   22CHL1  H27A 2806   5.566   0.968   5.314 -0.0482 -2.5986 -0.4860
   22CHL1  H27B 2807   5.730   0.880   5.326  2.7912  3.2662 -0.3794
   22CHL1  H27C 2808   5.612   0.879   5.457  0.7473 -1.2829  0.1045
   23CHL1    C3 2809   0.656   6.687   6.725 -0.7694 -0.5254  0.0027
   23CHL1    H3 2810   0.767   6.683   6.728 -0.7264 -1.0753 -1.4882
   23CHL1    O3 2811   0.600   6.690   6.853  0.0249 -0.3405  0.1042
   23CHL1   H3' 2812   0.633   6.604   6.880  0.8221 -0.9109 -2.4423
   23CHL1    C4 2813   0.596   6.804   6.648 -0.3259 -0.0519 -0.3572
   23CHL1   H4A 2814   0.486   6.795   6.636 -0.4396  1.1896 -0.2982
   23CHL1   H4B 2815   0.607   6.902   6.698  0.0089  0.8745 -2.1607
   23CHL1    C5 2816   0.650   6.800   6.503 -0.6967 -0.0660  0.9387
   23CHL1    C6 2817   0.729   6.899   6.449  0.1215  0.2535 -0.0491
   23CHL1    H6 2818   0.746   6.987   6.512 -1.4552 -0.5390  1.5740
   23CHL1    C7 2819   0.771   6.895   6.308  0.2249 -0.2693 -0.1167
   23CHL1   H7A 2820   0.785   6.989   6.250  0.7063 -1.1967 -1.5517
   23CHL1   H7B 2821   0.869   6.845   6.292 -0.2166 -0.9674 -0.7337
   23CHL1    C8 2822   0.681   6.805   6.225  0.2697  0.1570  0.2624
   23CHL1    H8 2823   0.586   6.863   6.223  0.9176  1.3036  1.2065
   23CHL1   C14 2824   0.728   6.790   6.082  0.0011  0.3154  0.2271
   23CHL1   H14 2825   0.826   6.740   6.096  0.6242  2.0969  3.3449
   23CHL1   C15 2826   0.767   6.918   6.003 -0.3745 -0.0338 -0.1891
   23CHL1  H15A 2827   0.698   7.004   6.016 -0.8788 -0.3310 -0.8508
   23CHL1  H15B 2828   0.869   6.954   6.032 -0.2707  0.3917 -1.0596
   23CHL1   C16 2829   0.765   6.874   5.859 -0.2048 -0.2463 -0.3287
   23CHL1  H16A 2830   0.706   6.954   5.810 -1.6723 -3.5577 -4.4927
   23CHL1  H16B 2831   0.871   6.884   5.826 -0.2248  0.6693 -0.1397
   23CHL1   C17 2832   0.714   6.728   5.855  0.6036  0.5647 -0.2631
   23CHL1   H17 2833   0.803   6.662   5.858 -1.1645 -1.9475  0.7561
   23CHL1   C13 2834   0.646   6.705   5.992  0.5712  0.3286 -0.5136
   23CHL1   C18 2835   0.497   6.755   5.992 -0.2787 -0.1035 -0.6181
   23CHL1  H18A 2836   0.456   6.746   6.095 -1.6105  0.6083 -1.0592
   23CHL1  H18B 2837   0.498   6.863   5.963  0.9417  0.6133  1.7941
   23CHL1  H18C 2838   0.437   6.696   5.920  0.4339 -1.0293 -0.4729
   23CHL1   C12 2839   0.656   6.568   6.055  0.2660  0.2630  0.1709
   23CHL1  H12A 2840   0.584   6.511   5.992 -0.3192 -0.8174  1.7627
   23CHL1  H12B 2841   0.761   6.534   6.042 -0.3385 -2.0993  0.9250
   23CHL1   C11 2842   0.614   6.556   6.197 -0.0459 -0.4627 -0.1263
   23CHL1  H11A 2843   0.504   6.566   6.188 -0.1253 -2.6403 -3.1683
   23CHL1  H11B 2844   0.633   6.452   6.234  0.2040 -0.2895  0.2417
   23CHL1    C9 2845   0.679   6.667   6.286 -0.0977 -0.3046  0.2101
   23CHL1    H9 2846   0.785   6.637   6.303  0.1556  0.6858  0.4431
   23CHL1   C10 2847   0.610   6.674   6.425 -0.3312 -0.1550 -0.1888
   23CHL1   C19 2848   0.455   6.667   6.405  0.0634 -0.4403 -0.3511
   23CHL1  H19A 2849   0.416   6.571   6.368  0.3653 -0.5182 -0.4700
   23CHL1  H19B 2850   0.412   6.676   6.507  1.9470 -3.5725  0.8465
   23CHL1  H19C 2851   0.401   6.740   6.340 -3.1620 -1.6856  0.7413
   23CHL1    C1 2852   0.661   6.555   6.513 -0.5341  0.5327  0.1814
   23CHL1   H1A 2853   0.621   6.464   6.461  0.5265  0.8915 -1.3402
   23CHL1   H1B 2854   0.772   6.549   6.512 -0.4752  1.5467  0.0339
   23CHL1    C2 2855   0.610   6.561   6.660  0.2876 -0.2495  0.4151
   23CHL1   H2A 2856   0.643   6.472   6.717 -2.0607  0.0898  2.4571
   23CHL1   H2B 2857   0.499   6.553   6.655  0.3247 -0.7452  0.3586
   23CHL1   C20 2858   0.635   6.699   5.730  0.0215  0.5469  0.0926
   23CHL1   H20 2859   0.541   6.757   5.721 -0.6721  0.1923  3.5882
   23CHL1   C21 2860   0.581   6.558   5.725  0.2338 -0.6183 -0.1493
   23CHL1  H21A 2861   0.659   6.481   5.741  1.2671  0.5686  0.8143
   23CHL1  H21B 2862   0.517   6.540   5.636 -1.3042 -2.0342  1.1956
   23CHL1  H21C 2863   0.515   6.542   5.813  0.9441 -0.9240  0.3354
   23CHL1   C22 2864   0.724   6.708   5.610 -0.7500 -0.3286 -0.8885
   23CHL1  H22A 2865   0.742   6.816   5.588  1.9445 -0.7416 -1.0017
   23CHL1  H22B 2866   0.825   6.667   5.629  0.1148  2.6372  1.9351
   23CHL1   C23 2867   0.691   6.651   5.468 -0.5181 -0.3304 -0.3696
   23CHL1  H23A 2868   0.688   6.540   5.462 -1.8985 -0.2538 -1.8137
   23CHL1  H23B 2869   0.589   6.681   5.436 -0.4364 -1.0238 -1.3332
   23CHL1   C24 2870   0.795   6.686   5.361 -0.2539 -0.2059 -0.8736
   23CHL1  H24A 2871   0.805   6.795   5.347  0.7570 -0.2922 -0.9011
   23CHL1  H24B 2872   0.896   6.643   5.379  0.7295  1.3923 -2.3051
   23CHL1   C25 2873   0.775   6.640   5.210  0.3074 -0.0260  1.1612
   23CHL1   H25 2874   0.788   6.530   5.210  0.5052 -0.0270 -0.5448
   23CHL1   C26 2875   0.634   6.665   5.159  0.6838  0.6550 -0.3332
   23CHL1  H26A 2876   0.560   6.604   5.215  1.6129 -1.1624 -0.9982
   23CHL1  H26B 2877   0.610   6.773   5.148 -1.3031  0.1653 -1.3003
   23CHL1  H26C 2878   0.619   6.622   5.058  1.5583 -1.6870  0.4545
   23CHL1   C27 2879   0.869   6.720   5.119  0.2333  0.1300 -0.0799
   23CHL1  H27A 2880   0.977   6.716   5.145  0.4016  0.0024 -0.7729
   23CHL1  H27B 2881   0.864   6.676   5.017 -0.8998 -1.6210  0.6768
   23CHL1  H27C 2882   0.831   6.823   5.104  1.1623  0.2229 -2.1365
   24CHL1    C3 2883   3.737   6.755   7.095  0.1092 -0.1995 -0.2351
   24CHL1    H3 2884   3.635   6.797   7.087 -0.2753 -0.9307  0.6546
   24CHL1    O3 2885   3.769   6.716   7.227 -0.2089  0.6169 -0.0055
   24CHL1   H3' 2886   3.864   6.710   7.235 -0.0533  2.1957 -0.4211
   24CHL1    C4 2887   3.754   6.637   7.001 -0.8382 -0.3796 -0.1495
   24CHL1   H4A 2888   3.857   6.604   7.025 -0.7328 -0.0846 -0.2011
   24CHL1   H4B 2889   3.684   6.557   7.035 -2.2453  0.8554 -0.0566
   24CHL1    C5 2890   3.733   6.670   6.855  0.0189  0.5525  0.3556
   24CHL1    C6 2891   3.639   6.605   6.779  0.1229  0.0470  0.8255
   24CHL1    H6 2892   3.578   6.528   6.827 -1.3327  0.2303 -0.6317
   24CHL1    C7 2893   3.630   6.619   6.626 -0.1652  0.0826 -0.4441
   24CHL1   H7A 2894   3.654   6.523   6.576  0.0394 -0.3988  0.5581
   24CHL1   H7B 2895   3.536   6.667   6.591 -0.7081 -0.2948  0.4551
   24CHL1    C8 2896   3.747   6.702   6.566  0.4181  0.3335 -0.0103
   24CHL1    H8 2897   3.835   6.638   6.549 -0.2192 -0.3582 -0.8053
   24CHL1   C14 2898   3.704   6.749   6.430  0.1527 -0.5268  0.5782
   24CHL1   H14 2899   3.608   6.804   6.442  1.0247  1.3524 -0.6721
   24CHL1   C15 2900   3.669   6.645   6.320 -0.6061 -0.3180 -0.5844
   24CHL1  H15A 2901   3.749   6.567   6.316 -1.2672 -1.1286  0.9797
   24CHL1  H15B 2902   3.571   6.593   6.317 -0.6988 -0.1250 -1.0934
   24CHL1   C16 2903   3.680   6.727   6.183 -0.0560 -0.7439  0.2046
   24CHL1  H16A 2904   3.760   6.669   6.133  0.3121 -2.5819  2.7295
   24CHL1  H16B 2905   3.583   6.717   6.130  0.5653 -1.3476 -0.8466
   24CHL1   C17 2906   3.723   6.869   6.224  0.8810 -0.2799 -0.7873
   24CHL1   H17 2907   3.634   6.928   6.253  1.5414 -0.1990  1.2425
   24CHL1   C13 2908   3.798   6.849   6.359 -0.0714 -0.3953 -0.6376
   24CHL1   C18 2909   3.943   6.803   6.320  0.8148  0.1612 -0.6605
   24CHL1  H18A 2910   4.013   6.885   6.292  0.9010  0.1190 -0.5717
   24CHL1  H18B 2911   3.986   6.761   6.414 -0.8738  1.1849  0.6214
   24CHL1  H18C 2912   3.937   6.721   6.246  0.1146 -0.8531  0.4752
   24CHL1   C12 2913   3.808   6.975   6.452 -0.0006  0.1091 -1.2609
   24CHL1  H12A 2914   3.882   7.048   6.412  1.3509 -0.7611 -0.4495
   24CHL1  H12B 2915   3.721   7.044   6.454  0.6792  0.9782 -0.5767
   24CHL1   C11 2916   3.856   6.937   6.591 -0.3203  0.0570  0.2643
   24CHL1  H11A 2917   3.962   6.904   6.576 -0.1109  0.9722 -0.3486
   24CHL1  H11B 2918   3.866   7.029   6.652 -2.2868 -0.1676  0.9981
   24CHL1    C9 2919   3.772   6.823   6.659 -0.5021 -0.2591  0.5349
   24CHL1    H9 2920   3.670   6.867   6.667  0.4106  1.7656  1.7983
   24CHL1   C10 2921   3.814   6.786   6.796  0.4162 -0.6317 -0.2878
   24CHL1   C19 2922   3.955   6.734   6.801  0.4719  0.1748  0.0177
   24CHL1  H19A 2923   3.994   6.696   6.898  3.0720  1.3159 -0.4785
   24CHL1  H19B 2924   3.971   6.650   6.730  1.3756  1.3699 -1.2264
   24CHL1  H19C 2925   4.030   6.810   6.771  3.4574 -1.6852  2.2038
   24CHL1    C1 2926   3.813   6.902   6.894 -0.0914  0.2688  0.6042
   24CHL1   H1A 2927   3.895   6.970   6.861 -0.0408 -0.3980 -0.7499
   24CHL1   H1B 2928   3.722   6.965   6.885 -0.1398  0.2426  0.9057
   24CHL1    C2 2929   3.829   6.867   7.044  0.4384  0.3548  0.2539
   24CHL1   H2A 2930   3.829   6.949   7.119 -1.0276  0.0121  0.6490
   24CHL1   H2B 2931   3.933   6.829   7.053  0.5024  0.5615  0.4152
   24CHL1   C20 2932   3.796   6.935   6.111 -0.0065  0.9440 -0.1261
   24CHL1   H20 2933   3.886   6.875   6.085 -0.4567  1.0172 -2.0491
   24CHL1   C21 2934   3.852   7.074   6.160 -0.3656 -0.0193  0.5221
   24CHL1  H21A 2935   3.952   7.060   6.205  1.0142  3.4246 -1.0408
   24CHL1  H21B 2936   3.777   7.123   6.225  0.7274 -1.5297  3.0296
   24CHL1  H21C 2937   3.861   7.135   6.067 -1.0308  1.3734  1.3361
   24CHL1   C22 2938   3.707   6.963   5.987 -0.3539  0.2498 -0.3173
   24CHL1  H22A 2939   3.630   6.883   5.977 -0.4188  0.1099  1.1126
   24CHL1  H22B 2940   3.647   7.057   5.994  0.1936  0.4943  3.0220
   24CHL1   C23 2941   3.779   6.962   5.851  0.5383 -0.3706 -0.2530
   24CHL1  H23A 2942   3.818   7.062   5.824 -1.9645  0.3412 -1.5229
   24CHL1  H23B 2943   3.860   6.886   5.859 -0.7648 -1.7300  0.6358
   24CHL1   C24 2944   3.681   6.922   5.735 -0.2667  0.2460  0.0153
   24CHL1  H24A 2945   3.624   6.831   5.763 -1.8126  1.2697  0.3499
   24CHL1  H24B 2946   3.605   7.003   5.729 -1.3523 -0.6854  0.9150
   24CHL1   C25 2947   3.757   6.904   5.600  0.2841  0.0687  0.0282
   24CHL1   H25 2948   3.848   6.842   5.615  1.5590  2.0293  0.7536
   24CHL1   C26 2949   3.678   6.832   5.485  0.4792  0.4143  0.3576
   24CHL1  H26A 2950   3.730   6.812   5.389 -1.7247  2.0467 -1.2765
   24CHL1  H26B 2951   3.639   6.737   5.530 -0.6065  0.8669  0.4124
   24CHL1  H26C 2952   3.581   6.875   5.452  0.4161 -0.1119 -0.1561
   24CHL1   C27 2953   3.792   7.045   5.546  0.0383 -0.5337 -0.0485
   24CHL1  H27A 2954   3.866   7.096   5.611  0.2271 -0.6702 -0.1551
   24CHL1  H27B 2955   3.840   7.038   5.447  0.5620 -0.8192  0.2201
   24CHL1  H27C 2956   3.708   7.118   5.539 -0.3495 -1.0775 -1.2095
   25CHL1    C3 2957   6.945   1.595   6.952 -0.6132  0.1141 -0.3376
   25CHL1    H3 2958   6.834   1.583   6.945 -0.8862  1.9334  0.4700
   25CHL1    O3 2959   6.973   1.614   7.088  0.0001 -0.0051  0.8816
   25CHL1   H3' 2960   7.052   1.564   7.109  0.4902 -0.1485 -1.0822
   25CHL1    C4 2961   7.022   1.474   6.901 -0.3879  0.4545 -0.2425
   25CHL1   H4A 2962   7.124   1.490   6.941 -1.1137 -2.8533  3.5782
   25CHL1   H4B 2963   6.992   1.375   6.941 -1.2015  0.2972 -1.1968
   25CHL1    C5 2964   7.021   1.466   6.745 -0.5056 -1.0049 -0.6930
   25CHL1    C6 2965   6.986   1.354   6.681 -0.5215 -0.0447 -0.4031
   25CHL1    H6 2966   6.968   1.274   6.753 -2.4464  1.6351  1.1225
   25CHL1    C7 2967   6.982   1.329   6.529 -0.2827  0.3115 -1.3010
   25CHL1   H7A 2968   7.042   1.238   6.506 -1.3147 -0.8057  0.2630
   25CHL1   H7B 2969   6.878   1.325   6.491 -0.5148  0.4149 -0.6777
   25CHL1    C8 2970   7.058   1.448   6.463  0.2248 -0.0657 -0.2607
   25CHL1    H8 2971   7.165   1.421   6.456  0.8942  2.1467  0.7927
   25CHL1   C14 2972   7.003   1.463   6.315 -0.2149  0.2270  0.9862
   25CHL1   H14 2973   6.895   1.486   6.320 -0.0350  1.4486 -0.1336
   25CHL1   C15 2974   7.022   1.343   6.219  0.2314 -0.1683  0.0966
   25CHL1  H15A 2975   7.119   1.291   6.234 -0.1752 -1.1786 -0.6918
   25CHL1  H15B 2976   6.951   1.261   6.243 -0.6412  1.0481  1.9422
   25CHL1   C16 2977   7.001   1.405   6.075  0.6693  0.1905  0.5289
   25CHL1  H16A 2978   7.075   1.363   6.003  0.7348  1.7690 -0.3742
   25CHL1  H16B 2979   6.895   1.378   6.053  0.7147 -0.0008  0.5408
   25CHL1   C17 2980   7.002   1.556   6.098  0.3682 -1.1536 -0.0748
   25CHL1   H17 2981   6.898   1.591   6.119  0.8065  0.9461 -1.1644
   25CHL1   C13 2982   7.065   1.576   6.233  0.4386 -0.1459  0.1811
   25CHL1   C18 2983   7.219   1.556   6.228 -0.7206  0.1675 -0.3782
   25CHL1  H18A 2984   7.271   1.576   6.324 -1.1480  3.6204 -0.7248
   25CHL1  H18B 2985   7.251   1.455   6.196 -0.2390 -0.4356  1.8316
   25CHL1  H18C 2986   7.270   1.626   6.158  0.9787  0.5158  1.1216
   25CHL1   C12 2987   7.035   1.714   6.302  0.0460  0.0435 -0.5487
   25CHL1  H12A 2988   7.093   1.790   6.245 -1.4954  1.6480 -0.0792
   25CHL1  H12B 2989   6.928   1.742   6.296 -0.0685 -0.3733 -0.4660
   25CHL1   C11 2990   7.082   1.705   6.452  0.9367 -0.7066 -0.5015
   25CHL1  H11A 2991   7.193   1.704   6.448  0.9640 -0.2500  0.1145
   25CHL1  H11B 2992   7.059   1.805   6.494  1.2984 -0.8331  0.0061
   25CHL1    C9 2993   7.026   1.583   6.528  0.2502  0.2589 -0.4142
   25CHL1    H9 2994   6.917   1.598   6.513  0.3219  1.0697 -0.1475
   25CHL1   C10 2995   7.061   1.595   6.677  0.3913  0.0542  0.4207
   25CHL1   C19 2996   7.210   1.622   6.707 -0.3964  0.4456 -0.6569
   25CHL1  H19A 2997   7.276   1.553   6.650 -0.0602  0.7170 -0.5942
   25CHL1  H19B 2998   7.232   1.729   6.688 -0.8729  0.9724  1.5535
   25CHL1  H19C 2999   7.241   1.622   6.813  1.4521 -0.8431 -1.1437
   25CHL1    C1 3000   6.966   1.716   6.731 -0.5251  0.1819 -0.0180
   25CHL1   H1A 3001   6.991   1.816   6.692 -0.8758 -0.0031 -0.7393
   25CHL1   H1B 3002   6.863   1.693   6.694  0.3726 -3.3233 -0.7013
   25CHL1    C2 3003   6.984   1.730   6.880 -0.8405  0.2343  0.4688
   25CHL1   H2A 3004   6.912   1.805   6.922 -0.6906  0.0754  1.0176
   25CHL1   H2B 3005   7.084   1.768   6.911  0.3780 -1.3441 -1.3464
   25CHL1   C20 3006   7.052   1.638   5.975 -0.7222  0.1599 -0.4891
   25CHL1   H20 3007   7.081   1.737   6.015 -0.2695  0.7377 -2.1517
   25CHL1   C21 3008   6.938   1.666   5.875 -0.0782 -0.3681 -0.8027
   25CHL1  H21A 3009   6.945   1.766   5.827 -0.0592 -0.0410 -0.1281
   25CHL1  H21B 3010   6.841   1.669   5.929  0.7130  0.9631  0.6489
   25CHL1  H21C 3011   6.943   1.589   5.796  1.8458 -1.2202  0.0757
   25CHL1   C22 3012   7.183   1.587   5.905  0.9617  0.5732 -0.0969
   25CHL1  H22A 3013   7.243   1.521   5.971  0.4432  2.3482  2.3191
   25CHL1  H22B 3014   7.143   1.515   5.830  0.5177 -0.5642  1.1797
   25CHL1   C23 3015   7.291   1.685   5.849  0.3782 -0.1784  0.4209
   25CHL1  H23A 3016   7.329   1.749   5.932  0.4980 -0.5043  0.6175
   25CHL1  H23B 3017   7.379   1.632   5.805  0.9995 -0.4104  1.8789
   25CHL1   C24 3018   7.239   1.774   5.728  0.2425 -0.5029 -0.5846
   25CHL1  H24A 3019   7.152   1.831   5.765 -0.1254 -2.1265  1.2520
   25CHL1  H24B 3020   7.318   1.849   5.706  0.0059 -0.4375 -1.2233
   25CHL1   C25 3021   7.218   1.710   5.587  0.2399 -0.0316 -0.8083
   25CHL1   H25 3022   7.144   1.628   5.600 -0.6418  0.5223 -2.1656
   25CHL1   C26 3023   7.149   1.812   5.500 -0.1951  0.0889 -0.1557
   25CHL1  H26A 3024   7.145   1.778   5.395  0.8647  0.3214 -0.2782
   25CHL1  H26B 3025   7.050   1.842   5.540  1.2545  2.7846  1.7113
   25CHL1  H26C 3026   7.212   1.903   5.505  1.1551 -0.8378  3.2982
   25CHL1   C27 3027   7.346   1.658   5.531  0.5248 -0.2802 -0.8926
   25CHL1  H27A 3028   7.404   1.593   5.601  1.6288  3.3299  1.8777
   25CHL1  H27B 3029   7.323   1.594   5.443 -0.0070 -0.4005 -0.6665
   25CHL1  H27C 3030   7.408   1.746   5.505 -1.7442  1.9364  0.7392
   26CHL1    C3 3031   4.970   6.429   6.692  0.3235 -0.0534 -0.2589
   26CHL1    H3 3032   4.945   6.335   6.638 -2.4169  0.7144 -0.4629
   26CHL1    O3 3033   4.999   6.404   6.828 -0.6025  0.7519  0.1242
   26CHL1   H3' 3034   5.027   6.312   6.824 -0.6610  0.7432 -0.0964
   26CHL1    C4 3035   5.096   6.493   6.629 -0.0305  0.4801  0.3041
   26CHL1   H4A 3036   5.104   6.595   6.674 -1.4599  0.3038  1.0052
   26CHL1   H4B 3037   5.181   6.426   6.653 -0.1508  0.3398  0.3369
   26CHL1    C5 3038   5.070   6.521   6.484  0.1173 -0.7358  0.9112
   26CHL1    C6 3039   5.144   6.461   6.389  0.0866  0.2522  0.5913
   26CHL1    H6 3040   5.219   6.383   6.410 -0.3771 -0.4303 -0.2492
   26CHL1    C7 3041   5.122   6.492   6.243  0.1436  0.5468 -0.2503
   26CHL1   H7A 3042   5.221   6.497   6.193  1.0375 -0.9034  1.2632
   26CHL1   H7B 3043   5.057   6.412   6.200  0.2682  0.4227 -0.2063
   26CHL1    C8 3044   5.041   6.616   6.212 -0.0790  0.3263 -0.0877
   26CHL1    H8 3045   5.098   6.707   6.239 -1.2027  0.5717  1.6896
   26CHL1   C14 3046   5.005   6.628   6.067  0.6022  0.4074 -0.1314
   26CHL1   H14 3047   4.933   6.544   6.052  1.1972 -0.2092  0.4056
   26CHL1   C15 3048   5.117   6.627   5.962 -0.2049  0.8855  0.1566
   26CHL1  H15A 3049   5.194   6.701   5.994  0.5921  0.0858  0.1372
   26CHL1  H15B 3050   5.174   6.532   5.956 -0.7248  0.5016  1.1472
   26CHL1   C16 3051   5.049   6.678   5.830 -0.5416 -0.5280  0.2982
   26CHL1  H16A 3052   5.100   6.769   5.792 -1.2634 -1.3244 -2.8596
   26CHL1  H16B 3053   5.048   6.607   5.744 -1.0083  0.2835 -0.3796
   26CHL1   C17 3054   4.909   6.718   5.875 -0.1740 -0.1654 -0.3184
   26CHL1   H17 3055   4.841   6.630   5.871 -0.2701 -0.3718  2.9177
   26CHL1   C13 3056   4.911   6.748   6.033 -0.8681 -0.2583 -0.0812
   26CHL1   C18 3057   4.970   6.890   6.062 -0.2467  0.4576  0.3063
   26CHL1  H18A 3058   5.066   6.895   6.005 -1.2380  1.6859 -1.3363
   26CHL1  H18B 3059   4.905   6.962   6.009  1.0989  0.8935 -0.8366
   26CHL1  H18C 3060   4.994   6.912   6.168 -0.7580  3.3879 -0.0939
   26CHL1   C12 3061   4.777   6.723   6.115 -0.0049 -0.0592 -0.1748
   26CHL1  H12A 3062   4.708   6.807   6.091 -2.8324 -2.2352 -0.2114
   26CHL1  H12B 3063   4.736   6.634   6.063  0.2239  0.4968 -1.3580
   26CHL1   C11 3064   4.804   6.720   6.263  0.5175  0.4679  0.8437
   26CHL1  H11A 3065   4.848   6.819   6.286 -0.7538  1.0213  0.9734
   26CHL1  H11B 3066   4.714   6.705   6.326  1.6761  0.5785  2.5840
   26CHL1    C9 3067   4.917   6.614   6.298 -0.1291  0.4103  0.0691
   26CHL1    H9 3068   4.870   6.515   6.280 -0.1890  0.4538 -0.0182
   26CHL1   C10 3069   4.956   6.619   6.453  0.0555  0.7124  0.4999
   26CHL1   C19 3070   5.007   6.761   6.492  0.1457  0.4474 -0.6287
   26CHL1  H19A 3071   4.931   6.839   6.468 -0.8900 -0.2133  0.3556
   26CHL1  H19B 3072   5.019   6.776   6.601 -5.8656  2.5605  0.1476
   26CHL1  H19C 3073   5.101   6.797   6.445  0.3661 -0.4309 -0.8842
   26CHL1    C1 3074   4.830   6.571   6.535  0.6046  0.1470  0.0171
   26CHL1   H1A 3075   4.757   6.653   6.522 -0.3238 -0.4462  1.3377
   26CHL1   H1B 3076   4.780   6.488   6.480  2.0606  0.8865 -2.6585
   26CHL1    C2 3077   4.849   6.533   6.685 -0.1498  0.0161  0.4760
   26CHL1   H2A 3078   4.762   6.484   6.733 -0.7033 -0.8895 -1.3325
   26CHL1   H2B 3079   4.879   6.622   6.743  0.0528 -0.3044  0.8696
   26CHL1   C20 3080   4.850   6.829   5.786 -0.0884 -0.3169  0.1722
   26CHL1   H20 3081   4.895   6.926   5.819 -1.8507  0.6752 -0.2182
   26CHL1   C21 3082   4.695   6.844   5.804 -0.2086 -0.1153  0.3600
   26CHL1  H21A 3083   4.653   6.856   5.906 -0.4028 -0.4089  0.3171
   26CHL1  H21B 3084   4.639   6.758   5.760  0.7028 -0.7804  0.4712
   26CHL1  H21C 3085   4.664   6.938   5.755 -0.5982 -0.5706 -0.2847
   26CHL1   C22 3086   4.882   6.828   5.626 -0.4568 -0.3590  0.1539
   26CHL1  H22A 3087   4.835   6.916   5.576 -2.9048 -0.6565  1.7516
   26CHL1  H22B 3088   4.991   6.821   5.604 -0.2315 -0.7575  1.3434
   26CHL1   C23 3089   4.815   6.716   5.548 -0.8559 -0.4360  0.2833
   26CHL1  H23A 3090   4.850   6.619   5.588  1.5775 -0.6623 -2.0789
   26CHL1  H23B 3091   4.704   6.721   5.545 -0.8765 -0.9658 -1.6401
   26CHL1   C24 3092   4.871   6.713   5.402 -0.2731 -0.0359 -0.7238
   26CHL1  H24A 3093   4.861   6.818   5.365  0.7844 -0.3885 -2.0899
   26CHL1  H24B 3094   4.976   6.680   5.407 -0.4098 -0.3310  0.5240
   26CHL1   C25 3095   4.806   6.623   5.300  0.2638  0.1684  0.5817
   26CHL1   H25 3096   4.861   6.618   5.204  1.0181  0.0777  1.0103
   26CHL1   C26 3097   4.786   6.485   5.357 -0.1458  0.1563 -0.3153
   26CHL1  H26A 3098   4.727   6.503   5.449  2.2104  0.2227  1.2896
   26CHL1  H26B 3099   4.729   6.436   5.275  1.0137  0.4398 -1.3207
   26CHL1  H26C 3100   4.881   6.434   5.385 -1.4977 -1.1850  2.1553
   26CHL1   C27 3101   4.656   6.679   5.272 -0.6361 -0.1692 -0.5305
   26CHL1  H27A 3102   4.599   6.611   5.206  0.8060 -0.0463 -1.9373
   26CHL1  H27B 3103   4.591   6.684   5.363 -1.0694 -1.6943 -0.7195
   26CHL1  H27C 3104   4.665   6.783   5.235  1.7003 -0.2145 -0.2374
   27CHL1    C3 3105   2.447   3.910   6.785  1.0017  0.0106  0.0271
   27CHL1    H3 3106   2.545   3.940   6.742  0.3309  1.7743 -0.3319
   27CHL1    O3 3107   2.445   3.932   6.925  0.5814 -0.5086 -0.1139
   27CHL1   H3' 3108   2.515   3.996   6.940 -0.0551 -0.2190  1.8456
   27CHL1    C4 3109   2.345   4.004   6.716 -0.1148  0.2506 -0.1230
   27CHL1   H4A 3110   2.249   3.984   6.768  1.4778  0.7037  3.3054
   27CHL1   H4B 3111   2.383   4.107   6.732  2.4363 -0.4448 -1.1622
   27CHL1    C5 3112   2.352   3.972   6.569  0.3906 -1.0467  0.4730
   27CHL1    C6 3113   2.370   4.073   6.478 -0.2280 -0.0294  0.4574
   27CHL1    H6 3114   2.370   4.175   6.519  2.7382 -0.1147  0.9212
   27CHL1    C7 3115   2.350   4.064   6.330 -0.1893  0.2132 -0.4827
   27CHL1   H7A 3116   2.272   4.140   6.309  0.3705  0.6323 -1.0938
   27CHL1   H7B 3117   2.444   4.098   6.282  0.4655 -0.3536  0.3599
   27CHL1    C8 3118   2.306   3.917   6.284  0.2709  0.0942 -0.3278
   27CHL1    H8 3119   2.196   3.904   6.290  0.3398 -1.7309 -1.9449
   27CHL1   C14 3120   2.339   3.892   6.137  0.2635  0.8293 -0.2206
   27CHL1   H14 3121   2.449   3.884   6.134  0.1478 -0.8399 -1.3557
   27CHL1   C15 3122   2.290   3.994   6.038  0.4601  0.3007  0.2345
   27CHL1  H15A 3123   2.191   4.039   6.058  0.7897 -0.5808  4.9614
   27CHL1  H15B 3124   2.356   4.083   6.032 -0.4088  0.9032 -0.8479
   27CHL1   C16 3125   2.304   3.922   5.904 -0.7156 -0.3423  0.0496
   27CHL1  H16A 3126   2.209   3.939   5.848  0.5276  1.0463 -1.7541
   27CHL1  H16B 3127   2.377   3.971   5.836  0.3272  1.2177  2.1791
   27CHL1   C17 3128   2.323   3.765   5.941 -0.1668 -0.2144  0.4699
   27CHL1   H17 3129   2.433   3.764   5.933 -0.3029 -0.1497 -2.4029
   27CHL1   C13 3130   2.290   3.752   6.088  0.4503 -0.1347 -0.1231
   27CHL1   C18 3131   2.135   3.733   6.096 -0.1702 -0.7045  0.6405
   27CHL1  H18A 3132   2.076   3.813   6.046 -1.9715 -1.5300  1.3631
   27CHL1  H18B 3133   2.104   3.639   6.046  1.2529 -0.5997 -0.5288
   27CHL1  H18C 3134   2.086   3.726   6.195 -2.0681 -1.2750 -0.2920
   27CHL1   C12 3135   2.366   3.649   6.176 -0.5666  0.5062  0.2933
   27CHL1  H12A 3136   2.352   3.543   6.149 -0.3314 -0.4274  3.4733
   27CHL1  H12B 3137   2.472   3.681   6.162 -1.3366  3.3542  0.1849
   27CHL1   C11 3138   2.333   3.666   6.320 -0.8252  0.4472 -0.4571
   27CHL1  H11A 3139   2.236   3.619   6.344  0.3227 -0.7119  2.3253
   27CHL1  H11B 3140   2.401   3.597   6.374 -0.9256  0.5924 -0.1411
   27CHL1    C9 3141   2.364   3.816   6.370  0.2063  0.4723 -0.2421
   27CHL1    H9 3142   2.475   3.810   6.367  0.1166 -2.2897 -0.1592
   27CHL1   C10 3143   2.325   3.828   6.529  0.3035 -0.0431  0.5506
   27CHL1   C19 3144   2.175   3.799   6.541  0.5389 -0.1615 -0.2327
   27CHL1  H19A 3145   2.112   3.871   6.484 -0.4721 -0.7151  0.1692
   27CHL1  H19B 3146   2.156   3.701   6.492  1.6528  0.7966 -2.7939
   27CHL1  H19C 3147   2.140   3.785   6.645  0.7261  0.6101 -0.0620
   27CHL1    C1 3148   2.420   3.731   6.609  0.6484  0.0653  0.4189
   27CHL1   H1A 3149   2.393   3.624   6.592  2.1455 -0.2011 -0.4315
   27CHL1   H1B 3150   2.523   3.744   6.569 -0.0689  1.7734 -0.9981
   27CHL1    C2 3151   2.416   3.757   6.757 -0.0283 -0.7073  0.3573
   27CHL1   H2A 3152   2.498   3.700   6.806 -0.8781 -1.6312  0.7277
   27CHL1   H2B 3153   2.320   3.735   6.809 -1.0458 -1.0047 -1.5763
   27CHL1   C20 3154   2.268   3.666   5.840 -0.5044  0.4925  0.2736
   27CHL1   H20 3155   2.160   3.685   5.821 -0.3358  1.6572  0.4328
   27CHL1   C21 3156   2.297   3.514   5.884  0.9187 -0.1732  0.1644
   27CHL1  H21A 3157   2.406   3.502   5.900  0.9252  0.3716  0.5445
   27CHL1  H21B 3158   2.256   3.442   5.810 -1.2908  1.9746 -0.8475
   27CHL1  H21C 3159   2.250   3.502   5.984  1.9420  0.9871  0.8077
   27CHL1   C22 3160   2.345   3.683   5.701 -0.5016 -0.0869  0.3155
   27CHL1  H22A 3161   2.375   3.788   5.681 -0.7456  0.0449  0.6281
   27CHL1  H22B 3162   2.434   3.617   5.708 -0.0138  0.3609 -1.1975
   27CHL1   C23 3163   2.251   3.637   5.592 -0.4369 -0.0556  0.2794
   27CHL1  H23A 3164   2.208   3.540   5.624 -3.7110  0.5681 -1.8254
   27CHL1  H23B 3165   2.165   3.706   5.584  0.4319  1.2655  1.7528
   27CHL1   C24 3166   2.323   3.617   5.457  0.4600  0.4008  0.0152
   27CHL1  H24A 3167   2.378   3.708   5.423  2.1976 -0.9006 -0.8415
   27CHL1  H24B 3168   2.402   3.539   5.465 -0.5330 -0.6128  0.1688
   27CHL1   C25 3169   2.234   3.571   5.342  0.7158  0.5998 -0.2661
   27CHL1   H25 3170   2.155   3.647   5.321 -1.7931 -1.6000  0.6686
   27CHL1   C26 3171   2.311   3.556   5.213  0.4513  0.0981  0.0931
   27CHL1  H26A 3172   2.235   3.518   5.141 -1.1487  0.8697  1.3161
   27CHL1  H26B 3173   2.349   3.649   5.164 -1.7064  0.8476 -0.2550
   27CHL1  H26C 3174   2.403   3.493   5.209 -0.0770 -0.7640  1.1103
   27CHL1   C27 3175   2.163   3.438   5.361  0.1972  0.2255 -0.8026
   27CHL1  H27A 3176   2.081   3.419   5.289 -0.4542  1.9139 -0.5563
   27CHL1  H27B 3177   2.123   3.428   5.464  2.5840 -1.1575  0.0641
   27CHL1  H27C 3178   2.235   3.354   5.353  0.8690  0.7818 -0.7075
   28CHL1    C3 3179   1.075   6.456   6.926  0.8050  0.1989  0.1660
   28CHL1    H3 3180   0.991   6.384   6.910  1.2392 -0.8371  2.2450
   28CHL1    O3 3181   1.086   6.494   7.059  0.0503  0.0720  0.5793
   28CHL1   H3' 3182   1.166   6.546   7.063 -0.9762  2.0944 -1.6465
   28CHL1    C4 3183   1.201   6.396   6.875 -0.8564  0.5989  0.6237
   28CHL1   H4A 3184   1.281   6.471   6.891  0.0946 -0.1977 -0.1903
   28CHL1   H4B 3185   1.226   6.305   6.933 -1.5315  0.3415  0.5252
   28CHL1    C5 3186   1.208   6.365   6.729  0.5760  0.0946  0.4536
   28CHL1    C6 3187   1.244   6.243   6.685  0.4202  0.1474 -0.4727
   28CHL1    H6 3188   1.276   6.172   6.763 -0.0363  0.3291 -0.1098
   28CHL1    C7 3189   1.255   6.203   6.539  0.6623 -0.2764  0.1505
   28CHL1   H7A 3190   1.350   6.149   6.518  0.5372 -1.3139  2.0189
   28CHL1   H7B 3191   1.163   6.144   6.519 -1.3740  2.1513  1.7526
   28CHL1    C8 3192   1.248   6.324   6.445  0.2210 -0.6325  0.8944
   28CHL1    H8 3193   1.337   6.390   6.453 -0.2530  0.0428  0.7544
   28CHL1   C14 3194   1.227   6.281   6.295  0.3215  0.4796 -0.4151
   28CHL1   H14 3195   1.136   6.217   6.300  0.8785 -0.2373  1.2397
   28CHL1   C15 3196   1.333   6.190   6.231  0.0413  0.1303  0.9417
   28CHL1  H15A 3197   1.433   6.232   6.259  0.6904 -1.5069  1.1966
   28CHL1  H15B 3198   1.328   6.090   6.279 -2.9077  1.3348  3.4978
   28CHL1   C16 3199   1.298   6.194   6.082 -0.3557  0.5333 -0.8885
   28CHL1  H16A 3200   1.384   6.217   6.017 -0.2753  1.1084 -0.5833
   28CHL1  H16B 3201   1.258   6.094   6.056  1.4644 -0.0360 -1.6235
   28CHL1   C17 3202   1.187   6.302   6.064  0.0666  0.1681  0.4463
   28CHL1   H17 3203   1.087   6.255   6.077  0.5029 -1.0469 -0.4629
   28CHL1   C13 3204   1.206   6.392   6.199  0.8628  0.5176  0.0387
   28CHL1   C18 3205   1.330   6.489   6.182 -0.1691 -0.2241 -0.8544
   28CHL1  H18A 3206   1.352   6.528   6.284  1.5593 -3.2022  0.0387
   28CHL1  H18B 3207   1.420   6.430   6.153  0.1328  0.5126 -1.4487
   28CHL1  H18C 3208   1.327   6.564   6.100 -1.0623 -0.2369 -0.8365
   28CHL1   C12 3209   1.080   6.477   6.247  0.2976  0.1345 -0.1270
   28CHL1  H12A 3210   1.074   6.561   6.175  1.1599 -0.4442 -0.9065
   28CHL1  H12B 3211   0.995   6.409   6.222  1.6880 -1.0294 -2.0341
   28CHL1   C11 3212   1.088   6.522   6.393  0.0984  0.3293  0.3549
   28CHL1  H11A 3213   1.184   6.578   6.388  0.2123  0.1299  0.3184
   28CHL1  H11B 3214   1.005   6.593   6.413 -0.2135  1.0522 -2.9377
   28CHL1    C9 3215   1.132   6.416   6.495 -0.7926 -0.9166 -0.2165
   28CHL1    H9 3216   1.041   6.352   6.497  0.0010 -2.0702  0.0324
   28CHL1   C10 3217   1.154   6.475   6.639 -0.5960  0.7387 -0.2171
   28CHL1   C19 3218   1.268   6.574   6.645 -0.2991 -0.8181  0.2654
   28CHL1  H19A 3219   1.275   6.638   6.736 -0.1877 -0.0354 -0.2818
   28CHL1  H19B 3220   1.367   6.530   6.622  0.5455  0.2947  1.5990
   28CHL1  H19C 3221   1.249   6.652   6.568  2.1762 -0.0137  0.3741
   28CHL1    C1 3222   1.024   6.531   6.705  0.7031 -0.6599  0.4975
   28CHL1   H1A 3223   0.997   6.620   6.644 -0.5941 -2.3729 -1.5622
   28CHL1   H1B 3224   0.943   6.459   6.680  0.9607 -0.4421 -1.0046
   28CHL1    C2 3225   1.039   6.579   6.845 -0.0884  0.7524 -0.8423
   28CHL1   H2A 3226   0.938   6.613   6.877 -0.2288 -0.7023  0.3318
   28CHL1   H2B 3227   1.115   6.660   6.848  0.1690  0.6446 -3.0245
   28CHL1   C20 3228   1.200   6.354   5.923  1.1574 -0.6917 -0.0270
   28CHL1   H20 3229   1.300   6.403   5.913  1.1064 -0.6896 -0.5402
   28CHL1   C21 3230   1.086   6.458   5.914  0.1673 -0.6354  0.4390
   28CHL1  H21A 3231   1.101   6.542   5.986  0.9382 -1.1077  0.8521
   28CHL1  H21B 3232   0.983   6.418   5.921  1.1960 -4.1941 -2.0153
   28CHL1  H21C 3233   1.094   6.509   5.816 -1.0102 -1.3854 -0.0670
   28CHL1   C22 3234   1.183   6.244   5.825  0.3957 -0.1328  0.4525
   28CHL1  H22A 3235   1.260   6.166   5.843 -1.6511 -2.2265  0.6246
   28CHL1  H22B 3236   1.088   6.189   5.840 -0.1421  0.6774  0.0963
   28CHL1   C23 3237   1.201   6.299   5.678  0.3606 -0.0763 -0.6195
   28CHL1  H23A 3238   1.109   6.353   5.646  1.4018  1.6133 -0.8804
   28CHL1  H23B 3239   1.281   6.373   5.661 -0.1652  0.0928 -2.6437
   28CHL1   C24 3240   1.212   6.178   5.586 -0.0104 -0.2767 -0.4032
   28CHL1  H24A 3241   1.285   6.106   5.629  0.0646 -0.1070 -0.2441
   28CHL1  H24B 3242   1.119   6.118   5.581  0.6888 -1.3922 -0.5290
   28CHL1   C25 3243   1.236   6.210   5.433 -0.4309  0.1687 -0.0528
   28CHL1   H25 3244   1.300   6.300   5.422 -1.5767  0.9085 -0.8595
   28CHL1   C26 3245   1.299   6.093   5.353  0.0867  1.0648 -0.2160
   28CHL1  H26A 3246   1.227   6.010   5.363  2.1009 -0.5556  1.6770
   28CHL1  H26B 3247   1.300   6.118   5.245  1.7823  1.5186 -0.1400
   28CHL1  H26C 3248   1.399   6.063   5.393  0.1861  2.9108  1.0715
   28CHL1   C27 3249   1.103   6.249   5.370 -0.8327 -0.0738 -0.4463
   28CHL1  H27A 3250   1.070   6.341   5.423 -2.5231 -1.4747  1.0722
   28CHL1  H27B 3251   1.113   6.263   5.261  2.5003  2.7876  0.0342
   28CHL1  H27C 3252   1.019   6.179   5.388 -3.7290  2.9702 -1.1251
   29CHL1    C3 3253   2.241   6.263   6.749 -0.4102 -0.1205 -0.2660
   29CHL1    H3 3254   2.149   6.202   6.736  1.4145 -2.8579 -1.3081
   29CHL1    O3 3255   2.279   6.265   6.885 -0.4155 -0.1976  0.2084
   29CHL1   H3' 3256   2.302   6.175   6.907 -1.3821 -0.6900 -0.7161
   29CHL1    C4 3257   2.334   6.187   6.673 -0.1575 -0.7337  0.9756
   29CHL1   H4A 3258   2.434   6.232   6.692 -0.5065 -0.4026  2.1467
   29CHL1   H4B 3259   2.339   6.081   6.706  2.5897 -1.1268 -0.4377
   29CHL1    C5 3260   2.290   6.192   6.525 -0.7954 -0.7755 -0.5982
   29CHL1    C6 3261   2.268   6.071   6.467  0.3833  0.1288 -0.0325
   29CHL1    H6 3262   2.279   5.975   6.520 -0.4505  0.8410  1.4982
   29CHL1    C7 3263   2.234   6.060   6.322 -0.0733 -0.8137  0.1738
   29CHL1   H7A 3264   2.290   5.971   6.286 -0.0055 -1.6664  2.2121
   29CHL1   H7B 3265   2.124   6.048   6.316 -0.2831  1.4215 -2.4955
   29CHL1    C8 3266   2.264   6.188   6.228  0.3507 -0.0686  0.0115
   29CHL1    H8 3267   2.372   6.205   6.211  0.5647 -1.1039  0.2861
   29CHL1   C14 3268   2.191   6.170   6.095  0.0683  0.5149  0.3607
   29CHL1   H14 3269   2.082   6.169   6.119  0.1246  0.9317  0.6507
   29CHL1   C15 3270   2.204   6.038   6.009  0.6040  0.6071  0.0520
   29CHL1  H15A 3271   2.313   6.023   6.016  0.5449 -0.6483 -1.3468
   29CHL1  H15B 3272   2.147   5.946   6.034  0.0356  0.7524 -0.6834
   29CHL1   C16 3273   2.156   6.085   5.867 -0.4193  0.4260  0.2081
   29CHL1  H16A 3274   2.223   6.071   5.779 -1.0248 -1.1459 -0.0210
   29CHL1  H16B 3275   2.070   6.023   5.836 -2.2752  0.6459  4.2360
   29CHL1   C17 3276   2.120   6.238   5.874  0.0740 -0.6082 -0.6637
   29CHL1   H17 3277   2.011   6.246   5.892  0.2916  1.1585  0.1603
   29CHL1   C13 3278   2.196   6.295   5.999 -0.3917 -0.0257 -0.4372
   29CHL1   C18 3279   2.345   6.323   5.969 -0.1319 -0.5100  0.8072
   29CHL1  H18A 3280   2.393   6.231   5.928  1.5407  0.3139  0.8394
   29CHL1  H18B 3281   2.349   6.396   5.885  3.6366 -1.8551 -0.4201
   29CHL1  H18C 3282   2.399   6.361   6.058 -0.9315  1.5232  0.4736
   29CHL1   C12 3283   2.134   6.407   6.074  0.4759 -0.0147 -0.0085
   29CHL1  H12A 3284   2.125   6.502   6.018  0.2403 -0.4945 -0.7859
   29CHL1  H12B 3285   2.028   6.378   6.091  0.2866 -0.5378 -1.8897
   29CHL1   C11 3286   2.191   6.437   6.218 -0.2225  0.1490 -0.5862
   29CHL1  H11A 3287   2.292   6.482   6.213 -0.9971  2.0782 -0.0130
   29CHL1  H11B 3288   2.114   6.501   6.267 -0.2888 -0.0641 -0.4080
   29CHL1    C9 3289   2.203   6.307   6.305 -0.0774  0.0424 -0.9402
   29CHL1    H9 3290   2.101   6.268   6.323  1.0707 -1.9716  2.2172
   29CHL1   C10 3291   2.268   6.326   6.451  0.4727  0.5505 -0.2546
   29CHL1   C19 3292   2.407   6.401   6.448  0.0482  0.2429  0.0584
   29CHL1  H19A 3293   2.481   6.356   6.379 -0.6670 -0.8179 -0.0353
   29CHL1  H19B 3294   2.387   6.508   6.423 -0.7040 -0.0348 -0.5627
   29CHL1  H19C 3295   2.450   6.407   6.550  1.9718 -0.7648 -0.6610
   29CHL1    C1 3296   2.171   6.405   6.545 -0.1855  0.4318  0.3017
   29CHL1   H1A 3297   2.146   6.504   6.503 -2.7663 -0.1486  0.3117
   29CHL1   H1B 3298   2.081   6.341   6.539  1.3174 -2.1831  2.7858
   29CHL1    C2 3299   2.209   6.406   6.696  0.1510 -0.2069  0.2246
   29CHL1   H2A 3300   2.122   6.437   6.757 -1.4347  0.3181 -2.1414
   29CHL1   H2B 3301   2.299   6.470   6.712 -1.6328  2.2209  1.1830
   29CHL1   C20 3302   2.148   6.315   5.743  0.0646 -0.0314  0.9683
   29CHL1   H20 3303   2.257   6.324   5.724 -0.1134  0.7299  0.2611
   29CHL1   C21 3304   2.083   6.457   5.737 -0.6256  0.4501 -0.4178
   29CHL1  H21A 3305   1.972   6.459   5.726 -0.5467 -0.4208 -1.5230
   29CHL1  H21B 3306   2.124   6.508   5.647 -1.6082 -1.0062 -1.7369
   29CHL1  H21C 3307   2.121   6.521   5.819 -1.0828 -0.2182  0.3263
   29CHL1   C22 3308   2.091   6.245   5.616 -0.0474  0.5146  0.4966
   29CHL1  H22A 3309   2.087   6.134   5.618 -0.9632  0.5070 -0.7661
   29CHL1  H22B 3310   1.991   6.281   5.583  0.8668 -0.2194 -3.6055
   29CHL1   C23 3311   2.190   6.280   5.500 -0.3191 -0.1719 -0.1423
   29CHL1  H23A 3312   2.212   6.388   5.511  0.3380 -0.3625  0.4637
   29CHL1  H23B 3313   2.284   6.224   5.517 -0.6563 -0.4867  0.7975
   29CHL1   C24 3314   2.140   6.248   5.355 -0.7639 -0.0947 -0.5199
   29CHL1  H24A 3315   2.130   6.137   5.350 -1.7122  0.0328 -2.1718
   29CHL1  H24B 3316   2.043   6.295   5.332 -1.8547 -1.0724  1.7468
   29CHL1   C25 3317   2.232   6.297   5.237 -0.0869 -0.3256  0.5002
   29CHL1   H25 3318   2.335   6.269   5.267  0.1962 -1.7244 -1.5589
   29CHL1   C26 3319   2.210   6.213   5.104  0.2706 -0.2062 -0.5181
   29CHL1  H26A 3320   2.236   6.107   5.124 -3.0853 -1.0943 -0.2602
   29CHL1  H26B 3321   2.103   6.222   5.074 -0.2811  1.0773  1.5636
   29CHL1  H26C 3322   2.267   6.254   5.018  0.0177 -0.2590 -0.7105
   29CHL1   C27 3323   2.208   6.449   5.217 -0.0277 -0.4020  0.9132
   29CHL1  H27A 3324   2.102   6.455   5.182  0.8225 -1.5258 -2.1698
   29CHL1  H27B 3325   2.221   6.498   5.316  0.0890 -1.8938  1.6618
   29CHL1  H27C 3326   2.273   6.489   5.137 -1.2130 -0.4294 -0.0924
   30CHL1    C3 3327   4.641   5.515   6.746 -0.0158 -0.0818  0.1018
   30CHL1    H3 3328   4.744   5.491   6.712 -0.1311  0.3624 -0.5801
   30CHL1    O3 3329   4.611   5.496   6.882  0.1071 -0.5818 -0.0723
   30CHL1   H3' 3330   4.542   5.554   6.914 -0.6404 -1.1951 -0.5535
   30CHL1    C4 3331   4.616   5.664   6.703  0.0825  0.1956  0.1833
   30CHL1   H4A 3332   4.523   5.707   6.746 -0.5032  0.8706 -1.6328
   30CHL1   H4B 3333   4.699   5.717   6.754  0.0770 -0.6234  1.0696
   30CHL1    C5 3334   4.624   5.679   6.552 -0.2899  0.1903 -0.7779
   30CHL1    C6 3335   4.708   5.763   6.489  0.0978  0.3066  0.1139
   30CHL1    H6 3336   4.781   5.830   6.537 -0.3242  2.6612 -2.2769
   30CHL1    C7 3337   4.707   5.783   6.338  0.3103 -0.3374  0.6306
   30CHL1   H7A 3338   4.708   5.893   6.324  0.5723 -0.5918 -1.6404
   30CHL1   H7B 3339   4.800   5.750   6.286  0.7894  1.1690  0.4995
   30CHL1    C8 3340   4.580   5.731   6.266  0.1930  0.9096 -0.5553
   30CHL1    H8 3341   4.483   5.778   6.291 -1.2027 -3.5361  3.9054
   30CHL1   C14 3342   4.617   5.711   6.121 -0.5614  0.1458  0.2875
   30CHL1   H14 3343   4.702   5.640   6.117  2.3619  3.3597  1.0578
   30CHL1   C15 3344   4.670   5.835   6.052 -0.3407  0.2107  0.6359
   30CHL1  H15A 3345   4.602   5.918   6.080 -2.8623 -1.5694  0.0943
   30CHL1  H15B 3346   4.774   5.858   6.083  0.2546 -1.7521  0.1987
   30CHL1   C16 3347   4.666   5.796   5.904  0.5388  0.0206  0.4040
   30CHL1  H16A 3348   4.613   5.872   5.843 -0.5520 -0.4553  0.7261
   30CHL1  H16B 3349   4.765   5.778   5.858 -0.3209 -0.5329 -1.3296
   30CHL1   C17 3350   4.589   5.658   5.904  0.5249  0.5175 -0.0786
   30CHL1   H17 3351   4.665   5.577   5.899  0.2707  0.3504 -2.3323
   30CHL1   C13 3352   4.515   5.645   6.038  0.0443 -0.2781 -0.3941
   30CHL1   C18 3353   4.391   5.739   6.032  0.0004 -0.3194  0.2892
   30CHL1  H18A 3354   4.416   5.839   5.992 -0.2737  0.6153  2.3450
   30CHL1  H18B 3355   4.311   5.694   5.969  0.8297  0.4232 -1.3404
   30CHL1  H18C 3356   4.354   5.757   6.136  0.6533  2.5993  0.0991
   30CHL1   C12 3357   4.483   5.509   6.092  0.4051  0.1055  0.1673
   30CHL1  H12A 3358   4.393   5.488   6.032  0.1589  0.9260  0.2439
   30CHL1  H12B 3359   4.571   5.446   6.064  0.5668 -0.0844  1.0782
   30CHL1   C11 3360   4.441   5.509   6.241  0.5176  0.1975  0.0610
   30CHL1  H11A 3361   4.346   5.567   6.240 -0.6012 -1.5641 -1.0324
   30CHL1  H11B 3362   4.430   5.407   6.284  1.9548 -0.5864 -1.3160
   30CHL1    C9 3363   4.550   5.585   6.319 -0.4584  0.9109  1.0464
   30CHL1    H9 3364   4.644   5.530   6.302 -2.6306 -2.7003 -0.4447
   30CHL1   C10 3365   4.530   5.587   6.475 -0.5004 -0.5499 -0.1932
   30CHL1   C19 3366   4.395   5.644   6.502  0.2509  0.6380 -0.0097
   30CHL1  H19A 3367   4.374   5.638   6.611  2.2717 -1.3266  0.3354
   30CHL1  H19B 3368   4.399   5.752   6.475  0.0835  0.1078 -2.3361
   30CHL1  H19C 3369   4.312   5.601   6.443  1.1488  0.0742 -0.8959
   30CHL1    C1 3370   4.550   5.437   6.520  0.7381 -0.3511  0.3591
   30CHL1   H1A 3371   4.470   5.380   6.468 -1.3033  2.7559 -0.2195
   30CHL1   H1B 3372   4.654   5.409   6.494  1.9165  2.8666  1.1810
   30CHL1    C2 3373   4.547   5.421   6.670  0.1391 -0.4204  0.3763
   30CHL1   H2A 3374   4.565   5.315   6.697  0.2165 -0.1241  1.5252
   30CHL1   H2B 3375   4.448   5.450   6.711  0.7354  2.4963 -0.0294
   30CHL1   C20 3376   4.508   5.635   5.775  0.0548  0.3017  0.3736
   30CHL1   H20 3377   4.428   5.558   5.780  0.2239 -0.6125 -5.1425
   30CHL1   C21 3378   4.608   5.559   5.686 -0.8252 -0.6662 -0.5458
   30CHL1  H21A 3379   4.566   5.530   5.587 -0.0069 -1.2758 -0.7235
   30CHL1  H21B 3380   4.649   5.465   5.728  1.1494  0.1249 -0.5994
   30CHL1  H21C 3381   4.691   5.627   5.657 -0.6137 -0.9219 -0.5432
   30CHL1   C22 3382   4.446   5.749   5.699 -0.3266  0.4232 -0.9594
   30CHL1  H22A 3383   4.406   5.819   5.776  0.0537 -1.5990  1.2083
   30CHL1  H22B 3384   4.520   5.810   5.643 -0.4594  1.3578 -0.1479
   30CHL1   C23 3385   4.331   5.714   5.598 -0.3630 -0.1286 -0.1509
   30CHL1  H23A 3386   4.369   5.647   5.518 -0.6644  1.2208 -1.4705
   30CHL1  H23B 3387   4.247   5.669   5.656  0.6483 -1.2029  0.5196
   30CHL1   C24 3388   4.278   5.839   5.524 -0.8346  0.9937 -0.0864
   30CHL1  H24A 3389   4.242   5.913   5.598  0.1793  0.9335  0.4853
   30CHL1  H24B 3390   4.359   5.894   5.472 -1.3247  0.6524 -1.2484
   30CHL1   C25 3391   4.167   5.819   5.415 -0.4039 -0.6653 -0.2159
   30CHL1   H25 3392   4.211   5.753   5.337  3.9411  0.7945  0.7429
   30CHL1   C26 3393   4.048   5.751   5.481 -0.4923 -0.1855 -0.3098
   30CHL1  H26A 3394   4.072   5.660   5.540 -2.6128 -0.2214  0.6084
   30CHL1  H26B 3395   4.000   5.830   5.542  0.4343  1.3991 -1.5458
   30CHL1  H26C 3396   3.980   5.716   5.400  1.6432 -1.1100 -1.7792
   30CHL1   C27 3397   4.124   5.956   5.348 -0.0188 -0.0213 -0.2837
   30CHL1  H27A 3398   4.087   6.034   5.418 -2.4703  0.2568 -1.7582
   30CHL1  H27B 3399   4.189   6.008   5.274 -0.4501  0.1886 -0.5174
   30CHL1  H27C 3400   4.038   5.944   5.279 -0.7487  0.8771  0.4502
   31CHL1    C3 3401   2.447   5.482   6.868 -0.3412 -0.0313 -0.1756
   31CHL1    H3 3402   2.351   5.488   6.814  0.9511  0.4869 -2.5594
   31CHL1    O3 3403   2.417   5.408   6.985  0.0981 -0.0680  0.0587
   31CHL1   H3' 3404   2.405   5.317   6.956  0.5889 -0.2452  0.4009
   31CHL1    C4 3405   2.562   5.415   6.796  0.9841 -0.2977  0.2062
   31CHL1   H4A 3406   2.656   5.435   6.852  0.5005 -0.8457  1.2514
   31CHL1   H4B 3407   2.541   5.307   6.787 -0.2638  0.1294 -3.8708
   31CHL1    C5 3408   2.578   5.471   6.659 -0.6315  0.1576  0.3066
   31CHL1    C6 3409   2.564   5.395   6.555 -0.1031  0.2736  0.3099
   31CHL1    H6 3410   2.545   5.287   6.563  1.0540 -0.0316 -0.7371
   31CHL1    C7 3411   2.573   5.438   6.410  0.3693  0.6600 -0.8372
   31CHL1   H7A 3412   2.647   5.376   6.355  2.5577  2.4519 -0.0684
   31CHL1   H7B 3413   2.475   5.430   6.358  1.1185  3.0724 -2.8533
   31CHL1    C8 3414   2.621   5.584   6.393 -0.4046  0.5124  0.6433
   31CHL1    H8 3415   2.730   5.579   6.413 -0.8029 -1.5431  2.7332
   31CHL1   C14 3416   2.588   5.641   6.255  0.0481 -0.1052  0.2019
   31CHL1   H14 3417   2.477   5.643   6.260  0.0905  2.0236  1.8971
   31CHL1   C15 3418   2.632   5.557   6.125 -0.0300  0.2156  0.2228
   31CHL1  H15A 3419   2.738   5.533   6.150 -0.8649 -0.5575  3.5719
   31CHL1  H15B 3420   2.572   5.464   6.117 -1.7405  1.3028 -0.2471
   31CHL1   C16 3421   2.607   5.663   6.015 -0.2616 -0.2059 -0.0575
   31CHL1  H16A 3422   2.691   5.667   5.942 -0.9736  2.7156 -0.8399
   31CHL1  H16B 3423   2.516   5.635   5.958  0.2545 -1.9392 -0.0977
   31CHL1   C17 3424   2.601   5.806   6.089  0.7479 -0.8309  0.3924
   31CHL1   H17 3425   2.491   5.822   6.094  0.7340 -0.6193 -0.4162
   31CHL1   C13 3426   2.645   5.778   6.236  0.4047 -0.4051 -0.8909
   31CHL1   C18 3427   2.802   5.782   6.242  0.4195  0.4417  0.2616
   31CHL1  H18A 3428   2.842   5.747   6.340 -2.4393  1.7252  2.0165
   31CHL1  H18B 3429   2.844   5.721   6.159 -0.2936  0.7341 -0.3203
   31CHL1  H18C 3430   2.841   5.885   6.233 -2.1929  1.5326  0.6200
   31CHL1   C12 3431   2.577   5.869   6.333 -0.3301 -0.1688  0.1799
   31CHL1  H12A 3432   2.617   5.973   6.326 -1.0375 -0.0214 -2.5758
   31CHL1  H12B 3433   2.467   5.880   6.321 -0.1910  0.2867 -0.7640
   31CHL1   C11 3434   2.608   5.824   6.477  0.6447  0.4160 -0.5300
   31CHL1  H11A 3435   2.717   5.840   6.494  0.1853  2.4000  0.9546
   31CHL1  H11B 3436   2.551   5.886   6.550  1.0273 -1.3339  1.3713
   31CHL1    C9 3437   2.564   5.674   6.501  0.6426 -0.0271  0.0422
   31CHL1    H9 3438   2.455   5.659   6.486  0.8731 -1.9755 -0.0446
   31CHL1   C10 3439   2.588   5.620   6.649  0.1043 -0.0069  0.3904
   31CHL1   C19 3440   2.732   5.652   6.686 -1.2352  0.2708  0.6967
   31CHL1  H19A 3441   2.745   5.763   6.685 -3.1068  0.5622  2.1313
   31CHL1  H19B 3442   2.765   5.625   6.789 -2.1521 -0.5795  0.7796
   31CHL1  H19C 3443   2.799   5.609   6.608 -1.2424  3.0285 -0.9707
   31CHL1    C1 3444   2.496   5.695   6.758 -0.2559 -0.4188 -0.6562
   31CHL1   H1A 3445   2.534   5.799   6.770 -2.0464  0.1251  0.7445
   31CHL1   H1B 3446   2.390   5.690   6.726 -0.7131  0.9288  0.5308
   31CHL1    C2 3447   2.486   5.629   6.891  0.3034 -0.1528  0.5388
   31CHL1   H2A 3448   2.404   5.681   6.945  2.2009  2.0724  1.4497
   31CHL1   H2B 3449   2.579   5.643   6.950  1.3241 -1.3462 -0.7036
   31CHL1   C20 3450   2.657   5.917   6.006 -0.5134 -0.2520  0.8162
   31CHL1   H20 3451   2.765   5.898   5.987 -0.6749 -0.0835 -0.3492
   31CHL1   C21 3452   2.639   6.061   6.066  0.1643  0.4574 -0.1946
   31CHL1  H21A 3453   2.531   6.071   6.092 -0.0747 -0.6984 -0.6491
   31CHL1  H21B 3454   2.680   6.140   6.001  2.3591 -1.1661 -0.9175
   31CHL1  H21C 3455   2.699   6.060   6.159 -2.2142 -0.6532  1.4505
   31CHL1   C22 3456   2.598   5.920   5.860  0.1930  0.2578  0.2900
   31CHL1  H22A 3457   2.617   5.819   5.818  0.8706  0.4547  0.1160
   31CHL1  H22B 3458   2.489   5.935   5.876 -0.0908 -1.9676  0.6820
   31CHL1   C23 3459   2.642   6.021   5.757 -0.3973 -0.2838 -0.2452
   31CHL1  H23A 3460   2.653   6.124   5.796  0.7332 -0.2377 -0.6396
   31CHL1  H23B 3461   2.741   5.982   5.722 -0.5477 -1.7509  0.8743
   31CHL1   C24 3462   2.543   6.032   5.636  0.4186  0.0056  0.4824
   31CHL1  H24A 3463   2.505   5.930   5.616 -1.8202  1.0735 -1.0799
   31CHL1  H24B 3464   2.451   6.093   5.650  1.1561  1.8989 -2.0789
   31CHL1   C25 3465   2.607   6.082   5.502 -0.1701 -0.6099 -0.1711
   31CHL1   H25 3466   2.526   6.101   5.429 -0.9109  0.9122  0.9870
   31CHL1   C26 3467   2.677   6.217   5.526 -0.3192 -0.0691  0.0108
   31CHL1  H26A 3468   2.754   6.195   5.604  0.0505 -0.0633 -0.3492
   31CHL1  H26B 3469   2.730   6.269   5.443  0.8961 -0.2951  0.6069
   31CHL1  H26C 3470   2.595   6.283   5.560  0.0318  1.0162 -1.1635
   31CHL1   C27 3471   2.705   5.981   5.447 -1.0162  0.5198  0.5936
   31CHL1  H27A 3472   2.646   5.895   5.407  0.2923 -1.5535  2.8916
   31CHL1  H27B 3473   2.758   6.023   5.358  1.5068 -0.5053  1.5275
   31CHL1  H27C 3474   2.780   5.943   5.519  0.0021  0.0847 -0.6564
   32CHL1    C3 3475   5.097   5.889   6.412 -0.1476 -0.4394  0.1754
   32CHL1    H3 3476   5.011   5.845   6.358  0.6353 -0.3145 -1.2428
   32CHL1    O3 3477   5.098   5.837   6.549  0.4390  0.4868  0.1872
   32CHL1   H3' 3478   5.033   5.885   6.601 -1.1374 -0.2098 -1.0573
   32CHL1    C4 3479   5.222   5.843   6.334 -0.2842  0.1953 -0.0077
   32CHL1   H4A 3480   5.316   5.880   6.382  0.6610 -0.7881 -1.0475
   32CHL1   H4B 3481   5.219   5.732   6.334 -1.2993  0.1953 -1.3886
   32CHL1    C5 3482   5.240   5.889   6.196  0.2855 -0.1252  0.1844
   32CHL1    C6 3483   5.274   5.801   6.102  0.3700  0.4773  0.4491
   32CHL1    H6 3484   5.291   5.697   6.133 -0.5962  0.4788  1.0561
   32CHL1    C7 3485   5.274   5.814   5.955  0.3204  0.3030 -0.2430
   32CHL1   H7A 3486   5.368   5.768   5.920 -0.1687 -1.5062  0.7266
   32CHL1   H7B 3487   5.188   5.760   5.909  1.5802 -1.7760 -0.2394
   32CHL1    C8 3488   5.267   5.970   5.917 -0.2912 -0.0882  0.9885
   32CHL1    H8 3489   5.368   6.009   5.940 -0.0462 -0.5815  0.7596
   32CHL1   C14 3490   5.231   5.986   5.772 -0.0328 -0.3444  0.9832
   32CHL1   H14 3491   5.130   5.943   5.763  1.0094 -2.5588 -1.4345
   32CHL1   C15 3492   5.318   5.916   5.661  0.1004 -0.3787 -0.0107
   32CHL1  H15A 3493   5.424   5.913   5.695  0.4244  0.4109 -0.9313
   32CHL1  H15B 3494   5.273   5.814   5.665 -1.4250  0.2920  0.9514
   32CHL1   C16 3495   5.294   6.001   5.537 -0.0412 -0.1004  0.0732
   32CHL1  H16A 3496   5.389   6.036   5.492 -0.5798  1.1135 -0.1606
   32CHL1  H16B 3497   5.247   5.947   5.451 -2.8941  1.5656  0.4477
   32CHL1   C17 3498   5.193   6.114   5.576 -0.4638  1.0148  0.8953
   32CHL1   H17 3499   5.087   6.082   5.581 -1.2053  3.4079  1.7786
   32CHL1   C13 3500   5.222   6.133   5.724 -0.5816  0.6378  0.1698
   32CHL1   C18 3501   5.361   6.195   5.748 -0.8462 -0.6679  0.0468
   32CHL1  H18A 3502   5.395   6.196   5.854 -1.0021 -1.5328  0.1108
   32CHL1  H18B 3503   5.440   6.140   5.693  1.9472 -0.2111  3.2408
   32CHL1  H18C 3504   5.357   6.300   5.712 -0.3331 -0.4270  0.6710
   32CHL1   C12 3505   5.112   6.197   5.811  0.3654 -0.0994 -0.0688
   32CHL1  H12A 3506   5.110   6.305   5.788 -4.7335 -0.1139 -0.8632
   32CHL1  H12B 3507   5.010   6.162   5.786  0.6596 -0.7132 -0.4704
   32CHL1   C11 3508   5.132   6.187   5.965  0.1873  0.2666  0.7334
   32CHL1  H11A 3509   5.214   6.257   5.993 -1.5256  2.2207  1.0779
   32CHL1  H11B 3510   5.038   6.217   6.015 -2.9181 -0.4663 -4.0416
   32CHL1    C9 3511   5.171   6.048   6.007 -0.1369 -0.2206 -0.8955
   32CHL1    H9 3512   5.079   5.988   5.995 -0.1050 -0.8612  1.5229
   32CHL1   C10 3513   5.202   6.031   6.159 -0.1055 -0.4086  0.0688
   32CHL1   C19 3514   5.325   6.120   6.196 -0.1895 -0.0043  0.5266
   32CHL1  H19A 3515   5.295   6.227   6.201  0.0847  0.2838 -2.4168
   32CHL1  H19B 3516   5.372   6.088   6.292 -0.8761 -0.4366  0.7326
   32CHL1  H19C 3517   5.413   6.109   6.129 -0.3780  0.9634  0.1183
   32CHL1    C1 3518   5.075   6.073   6.243 -0.0081  0.6306  0.7081
   32CHL1   H1A 3519   5.069   6.184   6.237 -0.7297  0.6431  1.4141
   32CHL1   H1B 3520   4.980   6.036   6.199  0.0940  2.4802 -1.2532
   32CHL1    C2 3521   5.080   6.043   6.400 -0.0052  0.1882  0.0503
   32CHL1   H2A 3522   4.977   6.067   6.434 -1.0169 -0.7488 -2.1932
   32CHL1   H2B 3523   5.160   6.090   6.461  1.4923  0.8236 -2.3184
   32CHL1   C20 3524   5.191   6.226   5.474 -0.0854  0.0829 -0.3766
   32CHL1   H20 3525   5.300   6.243   5.461 -0.4279  1.4453 -1.6871
   32CHL1   C21 3526   5.130   6.356   5.526  0.3683 -0.3599  0.4371
   32CHL1  H21A 3527   5.196   6.398   5.606  0.7561 -3.5067  1.9053
   32CHL1  H21B 3528   5.026   6.341   5.560  0.4072 -1.0582  0.2633
   32CHL1  H21C 3529   5.133   6.427   5.441  0.7581 -0.9785 -0.0723
   32CHL1   C22 3530   5.121   6.190   5.342 -0.3248 -0.4455  0.2228
   32CHL1  H22A 3531   5.160   6.090   5.314  1.3619 -0.8671  3.6643
   32CHL1  H22B 3532   5.010   6.201   5.335 -0.3377 -0.3292  0.6091
   32CHL1   C23 3533   5.171   6.270   5.223 -0.0517 -0.8894  1.4033
   32CHL1  H23A 3534   5.098   6.353   5.223  1.6222  0.6564  2.3782
   32CHL1  H23B 3535   5.275   6.310   5.227 -0.0694 -0.9226  2.7689
   32CHL1   C24 3536   5.164   6.191   5.092  0.3162  0.8160  0.2487
   32CHL1  H24A 3537   5.235   6.105   5.093  1.0271  1.3824 -0.5517
   32CHL1  H24B 3538   5.060   6.157   5.075  0.0784  1.5014  0.3543
   32CHL1   C25 3539   5.214   6.272   4.962 -0.1094 -0.5519 -0.4280
   32CHL1   H25 3540   5.166   6.371   4.977  0.6705 -0.4433  1.6969
   32CHL1   C26 3541   5.369   6.302   4.966  0.5535  0.5825 -0.2409
   32CHL1  H26A 3542   5.377   6.374   5.051  1.4443 -0.3924  0.5284
   32CHL1  H26B 3543   5.429   6.213   4.995 -0.7776  0.2885  1.8273
   32CHL1  H26C 3544   5.405   6.336   4.867  2.0129 -0.5876 -0.1374
   32CHL1   C27 3545   5.165   6.209   4.830  0.4821  0.0684  0.6136
   32CHL1  H27A 3546   5.204   6.105   4.825  0.5778  0.0832  1.0337
   32CHL1  H27B 3547   5.056   6.217   4.812  0.8181  2.6579 -0.7457
   32CHL1  H27C 3548   5.218   6.271   4.755  1.0866 -1.4677 -0.2733
   33CHL1    C3 3549   3.491   4.467   7.053 -0.2550 -0.1471 -0.4111
   33CHL1    H3 3550   3.589   4.520   7.045 -0.5683  0.8259  1.5135
   33CHL1    O3 3551   3.500   4.408   7.184 -0.1417  0.1770  0.5390
   33CHL1   H3' 3552   3.418   4.358   7.191 -0.2285  0.0689 -0.8872
   33CHL1    C4 3553   3.378   4.573   7.042  0.4909  0.0686 -0.5677
   33CHL1   H4A 3554   3.290   4.521   7.086 -0.1393  0.0628 -1.8016
   33CHL1   H4B 3555   3.387   4.662   7.108  0.1932 -1.2680  1.3591
   33CHL1    C5 3556   3.343   4.618   6.905  0.0334 -0.1453  0.1164
   33CHL1    C6 3557   3.346   4.744   6.860 -1.1564 -0.2860 -0.2974
   33CHL1    H6 3558   3.375   4.822   6.931  1.1252  1.1201 -2.5901
   33CHL1    C7 3559   3.316   4.788   6.720 -0.1946 -0.4424 -0.8365
   33CHL1   H7A 3560   3.258   4.883   6.721 -0.7877 -0.7969  0.2763
   33CHL1   H7B 3561   3.411   4.807   6.666  0.1096 -0.5136 -0.3348
   33CHL1    C8 3562   3.245   4.683   6.636 -0.6143  0.8405 -0.4904
   33CHL1    H8 3563   3.143   4.677   6.679 -1.1818  0.9183 -1.7844
   33CHL1   C14 3564   3.240   4.724   6.492  0.0088 -0.2449 -0.2651
   33CHL1   H14 3565   3.348   4.731   6.465 -0.1846  1.6361 -0.7023
   33CHL1   C15 3566   3.188   4.864   6.462  0.0995 -0.4031  0.2584
   33CHL1  H15A 3567   3.107   4.886   6.535 -0.3613 -0.2545 -0.2984
   33CHL1  H15B 3568   3.273   4.933   6.484 -1.1372  1.4556 -0.6116
   33CHL1   C16 3569   3.145   4.860   6.315  0.0760 -0.2632  0.9376
   33CHL1  H16A 3570   3.040   4.894   6.299  0.5136  0.4679 -0.4082
   33CHL1  H16B 3571   3.209   4.925   6.253 -1.0434 -0.1871 -0.1826
   33CHL1   C17 3572   3.183   4.712   6.261  0.2583 -0.1361  0.2961
   33CHL1   H17 3573   3.287   4.717   6.223  0.8274 -0.2882  1.7418
   33CHL1   C13 3574   3.180   4.626   6.395 -0.0514  0.4830  1.0299
   33CHL1   C18 3575   3.029   4.587   6.416  0.0076  0.2666 -0.8768
   33CHL1  H18A 3576   2.962   4.676   6.410  0.7399  1.0337  1.1990
   33CHL1  H18B 3577   2.989   4.503   6.356  0.9214 -0.9640  0.2016
   33CHL1  H18C 3578   3.011   4.548   6.518 -0.5048 -2.2379 -1.8545
   33CHL1   C12 3579   3.262   4.495   6.405 -0.4333 -0.3364  0.6780
   33CHL1  H12A 3580   3.227   4.416   6.337 -1.0097 -0.4239  1.0695
   33CHL1  H12B 3581   3.366   4.524   6.377 -0.1271 -0.5249  1.5798
   33CHL1   C11 3582   3.274   4.432   6.547 -0.1685 -0.0161 -0.0624
   33CHL1  H11A 3583   3.175   4.398   6.583  2.0011 -2.4804  4.3312
   33CHL1  H11B 3584   3.351   4.353   6.559 -1.5719 -1.4494 -0.2124
   33CHL1    C9 3585   3.319   4.546   6.651 -0.0360 -0.4350  0.1474
   33CHL1    H9 3586   3.427   4.571   6.636 -0.1170  1.0307  1.6238
   33CHL1   C10 3587   3.330   4.506   6.800  0.5426  0.1970 -0.7090
   33CHL1   C19 3588   3.206   4.416   6.827 -0.1010 -0.1808 -0.0916
   33CHL1  H19A 3589   3.213   4.317   6.777 -0.7764  0.0691 -0.7058
   33CHL1  H19B 3590   3.186   4.389   6.933  0.3321  0.9310  0.2940
   33CHL1  H19C 3591   3.113   4.465   6.790  1.6071  1.5852 -2.3343
   33CHL1    C1 3592   3.451   4.412   6.813  0.6336  0.4471  0.4406
   33CHL1   H1A 3593   3.428   4.319   6.758 -0.8644  0.2618  1.3208
   33CHL1   H1B 3594   3.539   4.455   6.761  1.4240  0.2918  1.6050
   33CHL1    C2 3595   3.482   4.357   6.956 -0.2588 -0.5049  0.0908
   33CHL1   H2A 3596   3.569   4.289   6.969  0.7275  1.1760  3.4044
   33CHL1   H2B 3597   3.400   4.292   6.992  0.9644 -1.0404  2.0580
   33CHL1   C20 3598   3.092   4.654   6.146  0.5854 -0.4389  0.3871
   33CHL1   H20 3599   2.986   4.661   6.178  0.1673  0.8526 -1.1901
   33CHL1   C21 3600   3.146   4.514   6.099 -0.2639 -0.2509  0.5792
   33CHL1  H21A 3601   3.126   4.427   6.165  0.8033 -1.1651 -0.2593
   33CHL1  H21B 3602   3.255   4.514   6.079 -0.6803 -2.2481 -2.4813
   33CHL1  H21C 3603   3.104   4.502   5.997 -0.0382 -0.8308  0.5491
   33CHL1   C22 3604   3.101   4.756   6.023 -0.0351 -0.1031  0.2950
   33CHL1  H22A 3605   3.119   4.859   6.062  0.2174 -0.0631  0.0759
   33CHL1  H22B 3606   3.197   4.712   5.988  0.0125 -0.1499  0.4855
   33CHL1   C23 3607   2.981   4.750   5.926 -0.0131 -0.4270  0.3405
   33CHL1  H23A 3608   2.947   4.649   5.895  0.0008  0.2079 -1.9810
   33CHL1  H23B 3609   2.892   4.787   5.981  0.5269 -1.2542  1.8159
   33CHL1   C24 3610   3.017   4.845   5.808 -0.7295  0.1126  0.0243
   33CHL1  H24A 3611   3.001   4.946   5.851  1.5536  1.3005 -1.7193
   33CHL1  H24B 3612   3.123   4.837   5.777 -0.8919  0.4855 -0.6535
   33CHL1   C25 3613   2.936   4.825   5.674 -0.0186  0.2301  1.0616
   33CHL1   H25 3614   2.954   4.719   5.648  2.2878  0.6199  0.8373
   33CHL1   C26 3615   2.781   4.853   5.685  0.0277 -0.1534  0.2114
   33CHL1  H26A 3616   2.735   4.791   5.764  0.8865 -1.5910 -0.3682
   33CHL1  H26B 3617   2.759   4.959   5.711 -0.0322 -0.6818  2.4897
   33CHL1  H26C 3618   2.721   4.825   5.596 -1.5643 -1.5700  1.6558
   33CHL1   C27 3619   2.996   4.915   5.566  0.6814  0.7781 -0.0909
   33CHL1  H27A 3620   3.106   4.913   5.581  0.3669  0.8709  2.5826
   33CHL1  H27B 3621   2.966   4.884   5.463  1.3701 -0.6398  0.1051
   33CHL1  H27C 3622   2.962   5.017   5.591 -0.7845  0.3336 -0.1725
   34CHL1    C3 3623   2.626   5.971   3.789 -0.1945  0.4476  0.1216
   34CHL1    H3 3624   2.575   6.061   3.750  1.4979  1.0752 -0.7653
   34CHL1    O3 3625   2.683   5.904   3.676 -0.5902 -0.5422 -0.2015
   34CHL1   H3' 3626   2.722   5.823   3.711  0.6840  0.9385  2.1060
   34CHL1    C4 3627   2.747   6.030   3.863  0.1009 -0.3844  0.8428
   34CHL1   H4A 3628   2.827   5.956   3.884  0.5874  0.0024  0.4064
   34CHL1   H4B 3629   2.800   6.104   3.798  0.9769 -2.5735 -1.0646
   34CHL1    C5 3630   2.702   6.094   3.992  0.5478 -0.0000 -0.1784
   34CHL1    C6 3631   2.730   6.220   4.025  0.0573 -0.1480  0.2364
   34CHL1    H6 3632   2.798   6.268   3.953  2.0157 -0.5354  1.7218
   34CHL1    C7 3633   2.686   6.293   4.147 -0.7699 -1.1477  1.2545
   34CHL1   H7A 3634   2.763   6.368   4.174  0.5919 -1.6679 -0.9073
   34CHL1   H7B 3635   2.589   6.343   4.122 -0.8659 -2.0039 -0.1787
   34CHL1    C8 3636   2.665   6.181   4.258  0.7780 -0.4325 -0.1980
   34CHL1    H8 3637   2.764   6.141   4.287  0.5320 -2.6855 -2.1305
   34CHL1   C14 3638   2.600   6.256   4.376  0.4871 -0.1136 -0.4557
   34CHL1   H14 3639   2.499   6.286   4.340 -0.0253 -0.4614  0.6504
   34CHL1   C15 3640   2.660   6.393   4.423 -0.6275 -0.4274 -0.2225
   34CHL1  H15A 3641   2.770   6.384   4.414 -0.5027  1.5765 -1.2088
   34CHL1  H15B 3642   2.620   6.471   4.355  3.0871  4.1394  2.2474
   34CHL1   C16 3643   2.604   6.411   4.566  0.8466  0.5401 -0.0585
   34CHL1  H16A 3644   2.689   6.421   4.637  1.3873 -0.1792 -0.5836
   34CHL1  H16B 3645   2.536   6.498   4.577  1.7568  1.0528  1.9204
   34CHL1   C17 3646   2.524   6.282   4.595  0.0018 -0.5472  0.3077
   34CHL1   H17 3647   2.423   6.303   4.554  1.0873 -1.0507 -2.9176
   34CHL1   C13 3648   2.581   6.180   4.502 -0.5194 -0.2663  0.8935
   34CHL1   C18 3649   2.715   6.127   4.572  0.0904  0.0834  0.6927
   34CHL1  H18A 3650   2.675   6.061   4.651  1.2166  1.3544  2.4111
   34CHL1  H18B 3651   2.774   6.067   4.499  0.5136  3.1949 -1.7297
   34CHL1  H18C 3652   2.770   6.213   4.616 -1.0710  0.7681  0.8358
   34CHL1   C12 3653   2.491   6.059   4.459  0.4963  0.1261 -0.3843
   34CHL1  H12A 3654   2.466   5.991   4.543  0.7815 -0.7060 -0.9517
   34CHL1  H12B 3655   2.394   6.097   4.421  0.4572 -0.9371 -1.4028
   34CHL1   C11 3656   2.548   5.981   4.332  0.8232  0.3484 -0.5046
   34CHL1  H11A 3657   2.640   5.929   4.366 -0.1586  0.2281  2.2010
   34CHL1  H11B 3658   2.469   5.906   4.310 -1.2071  2.6649 -1.5808
   34CHL1    C9 3659   2.570   6.068   4.211  0.3012  0.1593  0.3901
   34CHL1    H9 3660   2.477   6.118   4.176  0.7004 -0.1243 -1.1604
   34CHL1   C10 3661   2.621   6.000   4.084 -0.2789 -0.3873  0.0241
   34CHL1   C19 3662   2.724   5.884   4.131  0.4966 -1.5015  0.1093
   34CHL1  H19A 3663   2.798   5.919   4.206 -0.5149 -3.0484  1.9277
   34CHL1  H19B 3664   2.662   5.807   4.184 -0.0997 -1.4157 -0.4562
   34CHL1  H19C 3665   2.777   5.847   4.041  2.2938  2.0937 -0.4619
   34CHL1    C1 3666   2.501   5.935   4.010 -0.0370  0.4603 -0.6774
   34CHL1   H1A 3667   2.452   5.862   4.077 -0.1728 -0.1624 -1.4414
   34CHL1   H1B 3668   2.427   6.018   4.006 -1.3704 -0.6958 -0.7228
   34CHL1    C2 3669   2.540   5.874   3.876  0.1651 -0.1237  0.3932
   34CHL1   H2A 3670   2.455   5.836   3.815 -1.0129  1.0524  1.2374
   34CHL1   H2B 3671   2.608   5.789   3.899  2.7249  1.7680  0.2616
   34CHL1   C20 3672   2.509   6.253   4.744 -0.0570  0.1849  0.3608
   34CHL1   H20 3673   2.610   6.248   4.790  0.2427 -2.1037 -0.4394
   34CHL1   C21 3674   2.419   6.132   4.778 -0.5073 -0.2223  0.3009
   34CHL1  H21A 3675   2.464   6.031   4.768 -0.9147 -0.2260 -2.0416
   34CHL1  H21B 3676   2.319   6.129   4.730 -0.4258 -0.4773  0.1420
   34CHL1  H21C 3677   2.405   6.145   4.887  0.3097 -1.7793  0.6180
   34CHL1   C22 3678   2.443   6.374   4.828 -0.4115  0.6785 -0.8822
   34CHL1  H22A 3679   2.467   6.473   4.786  2.8271  1.4704  2.3339
   34CHL1  H22B 3680   2.336   6.352   4.849 -0.4714  1.4840 -0.3146
   34CHL1   C23 3681   2.508   6.387   4.972 -0.1229  0.4101 -0.5698
   34CHL1  H23A 3682   2.443   6.458   5.028  0.9559 -0.0961  1.4127
   34CHL1  H23B 3683   2.494   6.287   5.019  2.8254  0.9422  1.7465
   34CHL1   C24 3684   2.646   6.441   4.974  0.1017 -0.0454 -0.4873
   34CHL1  H24A 3685   2.704   6.376   4.905  1.9905  0.4521  0.5754
   34CHL1  H24B 3686   2.636   6.543   4.929 -2.4046  0.5906  1.2947
   34CHL1   C25 3687   2.719   6.449   5.111 -0.0274  0.1737 -0.4534
   34CHL1   H25 3688   2.752   6.346   5.139  1.9287  1.0817  0.7834
   34CHL1   C26 3689   2.856   6.522   5.093 -0.6922 -0.4391  0.0261
   34CHL1  H26A 3690   2.838   6.628   5.064  1.7777  0.8260  2.6877
   34CHL1  H26B 3691   2.908   6.533   5.190 -0.4326 -0.2819 -0.1288
   34CHL1  H26C 3692   2.925   6.474   5.019 -0.2239  0.3498 -0.0568
   34CHL1   C27 3693   2.632   6.516   5.218 -0.7945  0.0535  0.1148
   34CHL1  H27A 3694   2.586   6.606   5.172 -0.2612  0.4360  0.3180
   34CHL1  H27B 3695   2.557   6.440   5.250 -0.9845 -0.9356 -2.4228
   34CHL1  H27C 3696   2.686   6.540   5.312  1.2754 -0.9360 -0.7552
   35CHL1    C3 3697   6.492   2.016   7.002  0.1739 -1.0900 -0.0117
   35CHL1    H3 3698   6.567   2.093   7.030 -0.6314  0.3554 -1.6568
   35CHL1    O3 3699   6.425   1.973   7.122  0.2848  0.3859 -0.3156
   35CHL1   H3' 3700   6.483   1.909   7.165 -0.9801  0.1725  1.1865
   35CHL1    C4 3701   6.383   2.092   6.919  0.4261  0.4998  0.5312
   35CHL1   H4A 3702   6.290   2.031   6.916  0.2738  0.7634 -1.6006
   35CHL1   H4B 3703   6.353   2.183   6.975  0.0643  0.4857  0.3586
   35CHL1    C5 3704   6.414   2.115   6.774  0.2374 -0.3111  0.2402
   35CHL1    C6 3705   6.393   2.234   6.710 -0.7220 -0.0185  0.2652
   35CHL1    H6 3706   6.351   2.318   6.767 -1.2212  0.0640 -0.2141
   35CHL1    C7 3707   6.399   2.249   6.554  0.4129  0.5423  0.6087
   35CHL1   H7A 3708   6.296   2.290   6.539 -0.3037 -0.2657  2.8950
   35CHL1   H7B 3709   6.471   2.328   6.524 -0.2311  0.6805 -0.6711
   35CHL1    C8 3710   6.417   2.120   6.475  0.2120  0.0478 -0.8285
   35CHL1    H8 3711   6.323   2.061   6.464  1.0861 -1.3978 -0.8421
   35CHL1   C14 3712   6.478   2.138   6.338  0.2124 -0.6915 -0.1190
   35CHL1   H14 3713   6.578   2.180   6.364 -0.6395  2.6385 -1.6697
   35CHL1   C15 3714   6.414   2.248   6.253  0.6827 -0.0209  0.6729
   35CHL1  H15A 3715   6.303   2.244   6.256  0.6880 -1.4764 -0.2583
   35CHL1  H15B 3716   6.434   2.351   6.288 -1.3653  0.5743  0.2666
   35CHL1   C16 3717   6.465   2.215   6.114  0.0285 -0.4459  0.2616
   35CHL1  H16A 3718   6.375   2.178   6.059  1.9182 -1.7847 -2.1017
   35CHL1  H16B 3719   6.515   2.302   6.066  2.0044 -1.4005  0.5296
   35CHL1   C17 3720   6.548   2.086   6.117 -0.0235  0.0023 -0.7563
   35CHL1   H17 3721   6.653   2.116   6.133 -0.0388 -0.6752  0.7477
   35CHL1   C13 3722   6.506   2.018   6.257 -0.1314 -0.1831 -0.3571
   35CHL1   C18 3723   6.379   1.930   6.234 -0.5670 -0.0369  0.4938
   35CHL1  H18A 3724   6.329   1.897   6.328 -0.5401  0.7685  0.7978
   35CHL1  H18B 3725   6.303   1.976   6.168  2.1948  3.8682 -0.3368
   35CHL1  H18C 3726   6.405   1.836   6.180 -1.3800  0.7959 -1.4130
   35CHL1   C12 3727   6.623   1.937   6.331  0.1017  0.3362  0.1547
   35CHL1  H12A 3728   6.659   1.843   6.284  0.4772  1.0039 -0.9342
   35CHL1  H12B 3729   6.714   2.000   6.345  0.6234 -0.3600 -0.0703
   35CHL1   C11 3730   6.575   1.903   6.473  0.0026  0.2552 -0.2585
   35CHL1  H11A 3731   6.511   1.812   6.465  2.0981 -1.1761 -1.5587
   35CHL1  H11B 3732   6.665   1.864   6.526 -1.1338 -2.7969 -0.3295
   35CHL1    C9 3733   6.511   2.029   6.554 -0.2033 -0.3017  0.8359
   35CHL1    H9 3734   6.608   2.081   6.569  0.1393 -0.7115  0.0896
   35CHL1   C10 3735   6.461   1.994   6.697  0.0942  0.6501 -0.3657
   35CHL1   C19 3736   6.348   1.892   6.682  0.3752 -0.0027  0.2718
   35CHL1  H19A 3737   6.335   1.838   6.778 -0.0580  1.5495  1.1255
   35CHL1  H19B 3738   6.251   1.934   6.648  0.3759  0.1293  0.4347
   35CHL1  H19C 3739   6.382   1.803   6.624  4.6824  0.2079  2.1046
   35CHL1    C1 3740   6.577   1.926   6.776 -0.9327  0.0584 -0.6913
   35CHL1   H1A 3741   6.606   1.830   6.728  2.6463  1.1515 -0.9940
   35CHL1   H1B 3742   6.674   1.980   6.763 -0.9245 -0.0663 -1.1524
   35CHL1    C2 3743   6.539   1.897   6.923  0.2412 -0.0178  0.0021
   35CHL1   H2A 3744   6.622   1.842   6.972  0.5641  0.6464  0.2161
   35CHL1   H2B 3745   6.450   1.831   6.928 -0.2364  0.6614  1.1075
   35CHL1   C20 3746   6.533   1.997   5.992 -0.2263  1.4258  0.4829
   35CHL1   H20 3747   6.425   1.975   5.981 -0.0412  1.4774 -1.9421
   35CHL1   C21 3748   6.617   1.871   5.993 -1.0596 -0.3395 -0.2974
   35CHL1  H21A 3749   6.724   1.899   6.008 -1.7062  1.1419  2.0561
   35CHL1  H21B 3750   6.606   1.811   5.900 -2.2673 -0.7380  0.0866
   35CHL1  H21C 3751   6.591   1.812   6.084 -1.1801  1.7600  1.0906
   35CHL1   C22 3752   6.559   2.074   5.858 -0.2771  0.5254 -0.3229
   35CHL1  H22A 3753   6.543   2.003   5.774  0.6131  1.5927 -1.4288
   35CHL1  H22B 3754   6.480   2.150   5.841  0.6377  1.5846  0.0352
   35CHL1   C23 3755   6.709   2.110   5.829  0.0800  0.5385 -0.1697
   35CHL1  H23A 3756   6.746   2.177   5.909  1.7465 -0.5700  0.0258
   35CHL1  H23B 3757   6.767   2.015   5.831 -0.6086  0.1175  0.0798
   35CHL1   C24 3758   6.711   2.179   5.691 -0.8972  0.0668 -0.3181
   35CHL1  H24A 3759   6.708   2.112   5.603 -2.9121  3.1785 -2.8719
   35CHL1  H24B 3760   6.638   2.263   5.684  1.1417  1.8810 -0.7105
   35CHL1   C25 3761   6.846   2.256   5.667 -0.5180  0.2263 -0.0702
   35CHL1   H25 3762   6.859   2.342   5.736  3.6317 -0.8851  0.7555
   35CHL1   C26 3763   6.975   2.168   5.677  0.4216  0.4061 -0.0161
   35CHL1  H26A 3764   7.065   2.221   5.639  0.7564 -0.8830 -1.0816
   35CHL1  H26B 3765   6.984   2.137   5.783 -0.3869 -2.4673 -0.7002
   35CHL1  H26C 3766   6.959   2.070   5.628 -1.3577 -0.2084  1.6520
   35CHL1   C27 3767   6.836   2.309   5.519  0.6645  0.3673 -0.3317
   35CHL1  H27A 3768   6.934   2.351   5.490  2.0404 -0.5357  2.6629
   35CHL1  H27B 3769   6.796   2.229   5.453  0.1322  0.3351  0.0211
   35CHL1  H27C 3770   6.765   2.394   5.506  1.5726  1.6682  2.4275
   36CHL1    C3 3771   1.165   2.091   3.527 -0.3653 -0.2796 -0.1983
   36CHL1    H3 3772   1.064   2.052   3.550 -1.6589  2.5327 -0.7387
   36CHL1    O3 3773   1.167   2.128   3.388 -0.6277  0.2707 -0.5028
   36CHL1   H3' 3774   1.078   2.119   3.352 -0.0432  2.1184 -2.6462
   36CHL1    C4 3775   1.185   2.217   3.609  0.3643 -0.3922 -0.3217
   36CHL1   H4A 3776   1.287   2.253   3.582  0.3783  0.9354  1.3550
   36CHL1   H4B 3777   1.115   2.299   3.582 -1.1616 -1.1905  1.0948
   36CHL1    C5 3778   1.177   2.186   3.755 -0.1132 -0.2410  0.3131
   36CHL1    C6 3779   1.073   2.233   3.826 -0.4071  0.2204  0.2748
   36CHL1    H6 3780   0.990   2.295   3.789  0.5519  2.6772  1.9766
   36CHL1    C7 3781   1.069   2.210   3.971 -0.1868 -0.3608  0.0603
   36CHL1   H7A 3782   1.062   2.302   4.032 -0.9253  0.5910 -1.4073
   36CHL1   H7B 3783   0.997   2.131   4.002 -0.8560 -0.0661 -0.7044
   36CHL1    C8 3784   1.211   2.159   4.034 -0.2142 -1.0523  0.0432
   36CHL1    H8 3785   1.283   2.244   4.036  1.8454 -2.5892 -2.2500
   36CHL1   C14 3786   1.184   2.112   4.178 -0.5142 -0.3081  0.5785
   36CHL1   H14 3787   1.111   2.029   4.168 -0.8867  0.0162  0.5925
   36CHL1   C15 3788   1.122   2.221   4.267 -0.1935  0.1980 -0.1177
   36CHL1  H15A 3789   1.188   2.309   4.254  1.9549 -1.4096 -0.8297
   36CHL1  H15B 3790   1.016   2.244   4.242 -0.5645 -1.1024  0.1617
   36CHL1   C16 3791   1.154   2.163   4.404 -0.1267 -0.2714 -0.1820
   36CHL1  H16A 3792   1.213   2.234   4.466 -2.0884  1.7030 -0.4373
   36CHL1  H16B 3793   1.062   2.135   4.461 -0.1378 -1.2527 -0.6638
   36CHL1   C17 3794   1.239   2.035   4.387 -0.3564  0.0589  0.6129
   36CHL1   H17 3795   1.165   1.953   4.376 -0.1256 -0.2621  1.3695
   36CHL1   C13 3796   1.300   2.048   4.246 -0.5543  0.8640  0.8073
   36CHL1   C18 3797   1.411   2.149   4.248 -0.0174 -1.2548 -0.1823
   36CHL1  H18A 3798   1.494   2.109   4.311  0.0302  0.1963  0.7331
   36CHL1  H18B 3799   1.456   2.160   4.147 -0.0870  0.0623 -0.0968
   36CHL1  H18C 3800   1.382   2.245   4.297 -0.1310 -1.3166 -0.1298
   36CHL1   C12 3801   1.340   1.925   4.177 -0.0264 -0.1074 -0.0057
   36CHL1  H12A 3802   1.422   1.864   4.219 -2.1777 -2.0195  1.6125
   36CHL1  H12B 3803   1.255   1.855   4.186 -0.0535  0.0050  0.6339
   36CHL1   C11 3804   1.371   1.947   4.026 -0.0127  0.0337 -0.3625
   36CHL1  H11A 3805   1.466   2.005   4.031  0.6330 -1.0597  4.0537
   36CHL1  H11B 3806   1.402   1.848   3.988 -1.7540 -0.5762 -0.2336
   36CHL1    C9 3807   1.251   2.037   3.955 -0.5972  0.9746  0.1835
   36CHL1    H9 3808   1.166   1.964   3.951  0.1811  0.0670 -0.2350
   36CHL1   C10 3809   1.282   2.084   3.806  0.0672 -0.3659  0.0630
   36CHL1   C19 3810   1.421   2.157   3.797  0.0046  0.1848  0.1849
   36CHL1  H19A 3811   1.501   2.100   3.848 -0.0606 -1.3719 -1.3691
   36CHL1  H19B 3812   1.454   2.153   3.691  1.7884 -2.8642  0.7498
   36CHL1  H19C 3813   1.410   2.263   3.829 -2.8400  0.4217 -1.2438
   36CHL1    C1 3814   1.290   1.959   3.714  0.6280  0.6646 -0.0281
   36CHL1   H1A 3815   1.384   1.902   3.728  1.1606  1.5969  0.3222
   36CHL1   H1B 3816   1.199   1.898   3.734  2.3968 -2.0894  0.1957
   36CHL1    C2 3817   1.275   1.985   3.568 -0.6064 -0.3659  0.3023
   36CHL1   H2A 3818   1.271   1.894   3.505  2.3491  1.0754 -2.2179
   36CHL1   H2B 3819   1.372   2.029   3.537 -1.4479  1.2464 -0.1677
   36CHL1   C20 3820   1.334   1.999   4.508  0.1200  0.3527  0.3582
   36CHL1   H20 3821   1.390   2.091   4.535 -1.1306  0.3463  3.3258
   36CHL1   C21 3822   1.431   1.887   4.465 -0.3730 -0.3626 -0.8648
   36CHL1  H21A 3823   1.479   1.838   4.552  0.9809  0.3559 -1.1780
   36CHL1  H21B 3824   1.500   1.931   4.390  0.0004  0.4389 -0.0758
   36CHL1  H21C 3825   1.374   1.803   4.420  1.4249 -3.6492  2.4500
   36CHL1   C22 3826   1.245   1.959   4.627  1.0935 -0.0909  0.0368
   36CHL1  H22A 3827   1.186   2.045   4.665 -2.3631 -0.8557 -3.0026
   36CHL1  H22B 3828   1.177   1.882   4.585 -1.0769  2.3532 -1.2228
   36CHL1   C23 3829   1.300   1.905   4.757  0.1771 -0.3499 -0.5050
   36CHL1  H23A 3830   1.347   1.806   4.738 -0.4944 -0.7677 -0.0337
   36CHL1  H23B 3831   1.381   1.972   4.792  0.1076 -0.4833 -0.0854
   36CHL1   C24 3832   1.177   1.886   4.851 -0.2089 -0.0051  0.2970
   36CHL1  H24A 3833   1.121   1.982   4.861 -1.1647 -0.4271 -0.7123
   36CHL1  H24B 3834   1.111   1.816   4.794  1.5088 -1.9121  0.5411
   36CHL1   C25 3835   1.203   1.836   4.996  0.7245 -0.0237  0.1058
   36CHL1   H25 3836   1.277   1.753   4.989  1.4552  0.7479 -2.3424
   36CHL1   C26 3837   1.278   1.942   5.084  0.5385 -0.4978  0.3123
   36CHL1  H26A 3838   1.304   1.894   5.180 -0.6792 -1.9441 -0.0380
   36CHL1  H26B 3839   1.373   1.962   5.030 -0.4116 -0.3883 -1.4042
   36CHL1  H26C 3840   1.219   2.035   5.100 -0.2590 -0.9370 -0.0218
   36CHL1   C27 3841   1.066   1.788   5.053 -0.0302 -0.2706  0.4096
   36CHL1  H27A 3842   1.001   1.878   5.058 -0.1307 -0.4186  3.7708
   36CHL1  H27B 3843   1.024   1.714   4.981 -0.4192  0.0626  0.2904
   36CHL1  H27C 3844   1.097   1.743   5.150  2.0351 -1.6372 -0.7896
   37CHL1    C3 3845   3.211   3.984   6.636 -0.3191 -0.2252  0.4219
   37CHL1    H3 3846   3.103   3.967   6.615 -0.6319  0.6821  1.2103
   37CHL1    O3 3847   3.234   4.047   6.759 -0.2902  0.5480  0.0947
   37CHL1   H3' 3848   3.330   4.056   6.753  0.0835 -3.0010 -2.5120
   37CHL1    C4 3849   3.277   3.842   6.643  0.8050  0.2027  0.1972
   37CHL1   H4A 3850   3.385   3.845   6.667  1.3777 -1.4815 -1.8859
   37CHL1   H4B 3851   3.239   3.792   6.734  0.8417  0.0688  0.1396
   37CHL1    C5 3852   3.258   3.764   6.513  0.0843  0.1345 -0.6022
   37CHL1    C6 3853   3.195   3.643   6.523 -0.3633  0.0577  0.3440
   37CHL1    H6 3854   3.152   3.617   6.621  1.3509  0.7519  1.3303
   37CHL1    C7 3855   3.172   3.550   6.412  0.4151 -0.3134  0.1898
   37CHL1   H7A 3856   3.188   3.444   6.440  0.3688 -1.0143 -2.2099
   37CHL1   H7B 3857   3.062   3.551   6.397  0.4833  0.0921 -0.3131
   37CHL1    C8 3858   3.245   3.596   6.284  0.3899  0.3272  0.6577
   37CHL1    H8 3859   3.354   3.574   6.287  0.6083  0.7651 -1.9022
   37CHL1   C14 3860   3.187   3.531   6.163  0.0615  0.4246 -0.1554
   37CHL1   H14 3861   3.078   3.555   6.166  0.0810  0.5980  2.7249
   37CHL1   C15 3862   3.154   3.379   6.163 -0.0562  0.1299  0.3617
   37CHL1  H15A 3863   3.238   3.316   6.199  1.1307  0.3547 -1.8340
   37CHL1  H15B 3864   3.081   3.344   6.239  1.4502 -1.1183  1.3092
   37CHL1   C16 3865   3.128   3.341   6.017  0.2141  0.3584  0.4283
   37CHL1  H16A 3866   3.200   3.262   5.989  0.6650  0.5938  0.9014
   37CHL1  H16B 3867   3.026   3.296   6.017  1.0597 -1.6788 -0.2943
   37CHL1   C17 3868   3.156   3.472   5.934 -0.3813  0.3354  0.4318
   37CHL1   H17 3869   3.060   3.528   5.926 -0.4108  0.0549 -2.6015
   37CHL1   C13 3870   3.242   3.573   6.026 -0.4839  0.4431  0.3801
   37CHL1   C18 3871   3.397   3.547   6.014 -0.3322  0.1846  0.1251
   37CHL1  H18A 3872   3.460   3.610   6.080  0.0534  0.6686 -0.6963
   37CHL1  H18B 3873   3.431   3.442   6.029  1.4211  0.7898  0.6003
   37CHL1  H18C 3874   3.424   3.574   5.910  0.4521 -0.1492  0.2316
   37CHL1   C12 3875   3.215   3.727   6.020  0.2126 -0.2043  0.2927
   37CHL1  H12A 3876   3.239   3.773   5.922  0.2516  1.1452  0.9199
   37CHL1  H12B 3877   3.105   3.740   6.021  0.3137  0.7046 -0.1104
   37CHL1   C11 3878   3.281   3.802   6.129 -0.0804  0.8781  0.1437
   37CHL1  H11A 3879   3.391   3.812   6.117  0.2410 -1.7906  0.2725
   37CHL1  H11B 3880   3.252   3.909   6.131  0.7612  1.1116  0.1878
   37CHL1    C9 3881   3.240   3.753   6.272  0.1331 -0.0067  0.5649
   37CHL1    H9 3882   3.131   3.772   6.280 -0.3633 -2.5095  0.6144
   37CHL1   C10 3883   3.301   3.836   6.383 -0.9265  0.3538  0.4843
   37CHL1   C19 3884   3.454   3.833   6.373  0.0146 -0.0232  0.6359
   37CHL1  H19A 3885   3.481   3.728   6.393  0.1295 -0.1517 -0.1424
   37CHL1  H19B 3886   3.493   3.860   6.272 -0.8124  0.5247  0.4514
   37CHL1  H19C 3887   3.509   3.899   6.444 -1.7836 -1.2909  3.3742
   37CHL1    C1 3888   3.245   3.976   6.387 -0.0993 -0.3559 -0.9505
   37CHL1   H1A 3889   3.281   4.035   6.299  0.5879 -1.5192 -1.4763
   37CHL1   H1B 3890   3.136   3.969   6.372 -0.1826  0.9619 -1.1072
   37CHL1    C2 3891   3.267   4.064   6.515  0.0453 -0.3384 -0.5866
   37CHL1   H2A 3892   3.198   4.151   6.512  0.0792 -0.3396 -1.4453
   37CHL1   H2B 3893   3.366   4.107   6.540 -0.7278  0.7503  0.7673
   37CHL1   C20 3894   3.200   3.462   5.788  0.1695 -0.1018  0.4691
   37CHL1   H20 3895   3.303   3.423   5.786  1.3521  2.4797  2.9375
   37CHL1   C21 3896   3.204   3.596   5.717 -0.3183  0.2551 -0.2525
   37CHL1  H21A 3897   3.285   3.658   5.761 -1.3248  0.6641  1.0632
   37CHL1  H21B 3898   3.108   3.647   5.736  0.0958  0.6592  0.8005
   37CHL1  H21C 3899   3.208   3.579   5.607 -1.7357 -2.3555  0.0266
   37CHL1   C22 3900   3.135   3.351   5.697  0.7214  0.4612 -0.4491
   37CHL1  H22A 3901   3.135   3.256   5.755  0.1916  0.0448 -1.1216
   37CHL1  H22B 3902   3.028   3.378   5.680  0.5604  1.9051  2.2603
   37CHL1   C23 3903   3.195   3.336   5.559 -0.4403  0.5805  0.2378
   37CHL1  H23A 3904   3.182   3.415   5.482  4.4138  0.3284 -1.1594
   37CHL1  H23B 3905   3.305   3.345   5.570 -0.3331 -0.8284  0.4350
   37CHL1   C24 3906   3.177   3.191   5.508  0.7597  0.2631 -0.7397
   37CHL1  H24A 3907   3.171   3.118   5.591 -0.9359  0.9852 -0.1677
   37CHL1  H24B 3908   3.077   3.170   5.465 -0.0529  1.6053  0.4171
   37CHL1   C25 3909   3.286   3.130   5.416  0.2460  0.9422 -0.0106
   37CHL1   H25 3910   3.382   3.174   5.451  0.0191  0.3702  1.3969
   37CHL1   C26 3911   3.295   2.977   5.420  0.4690  0.4165 -0.1936
   37CHL1  H26A 3912   3.335   2.941   5.323 -0.2538 -1.8575  0.3073
   37CHL1  H26B 3913   3.353   2.958   5.513 -0.6564  0.7504  0.5884
   37CHL1  H26C 3914   3.198   2.930   5.446  0.4674  1.1448  1.2707
   37CHL1   C27 3915   3.264   3.176   5.272 -0.4560  0.0237 -0.5500
   37CHL1  H27A 3916   3.345   3.135   5.209 -1.6120 -2.5112 -0.4999
   37CHL1  H27B 3917   3.167   3.135   5.237  0.2173 -2.4640  0.2823
   37CHL1  H27C 3918   3.269   3.287   5.261 -2.4726  0.2819  0.4711
   38CHL1    C3 3919   6.196   4.700   6.518  0.2479 -0.2701  0.3851
   38CHL1    H3 3920   6.159   4.599   6.489 -3.7069  1.8752 -3.1066
   38CHL1    O3 3921   6.201   4.717   6.663  0.0455 -0.0324  0.5931
   38CHL1   H3' 3922   6.233   4.807   6.671  1.1447 -0.1926 -1.5226
   38CHL1    C4 3923   6.333   4.729   6.453  0.3156  0.1090 -0.1984
   38CHL1   H4A 3924   6.358   4.837   6.451 -0.7245  0.4228  1.6183
   38CHL1   H4B 3925   6.414   4.679   6.509 -1.0816  0.3926  2.2437
   38CHL1    C5 3926   6.328   4.688   6.306  0.2401 -0.5451 -0.1746
   38CHL1    C6 3927   6.403   4.591   6.262  0.3595  0.0092 -0.2096
   38CHL1    H6 3928   6.477   4.533   6.320  0.4692 -0.6230 -0.9664
   38CHL1    C7 3929   6.404   4.538   6.118  0.3014 -0.2566  0.6365
   38CHL1   H7A 3930   6.505   4.511   6.079  0.8502  1.5366  0.7247
   38CHL1   H7B 3931   6.343   4.445   6.110  1.9001 -1.3961  0.9800
   38CHL1    C8 3932   6.343   4.650   6.024 -0.8831 -0.1190  0.4752
   38CHL1    H8 3933   6.418   4.732   6.028 -1.2473  0.3150 -0.9948
   38CHL1   C14 3934   6.317   4.584   5.889  0.1379 -0.1758  0.1203
   38CHL1   H14 3935   6.254   4.496   5.915  0.3199 -0.5096 -0.5363
   38CHL1   C15 3936   6.439   4.521   5.818  0.8069 -0.5190 -0.6186
   38CHL1  H15A 3937   6.531   4.582   5.827 -0.2680  1.0297  0.3297
   38CHL1  H15B 3938   6.457   4.417   5.853  1.1130 -0.8473 -1.7182
   38CHL1   C16 3939   6.395   4.533   5.671 -0.0335  0.1992  0.3863
   38CHL1  H16A 3940   6.466   4.599   5.617 -1.9965 -0.8427 -3.8668
   38CHL1  H16B 3941   6.413   4.431   5.631 -0.0838 -0.1707  1.2882
   38CHL1   C17 3942   6.246   4.581   5.667 -0.3628  0.2174 -0.5619
   38CHL1   H17 3943   6.190   4.486   5.683 -3.0748  1.5149 -1.6030
   38CHL1   C13 3944   6.239   4.673   5.795 -0.1982 -0.6975 -0.4459
   38CHL1   C18 3945   6.320   4.798   5.774  0.4756  0.5416 -0.5115
   38CHL1  H18A 3946   6.425   4.786   5.738  0.2875 -0.5418 -0.7590
   38CHL1  H18B 3947   6.259   4.865   5.709  1.2801  1.8257  0.0403
   38CHL1  H18C 3948   6.326   4.848   5.872 -0.3826 -1.2969  0.5282
   38CHL1   C12 3949   6.099   4.690   5.859  0.2743  0.3765 -0.1324
   38CHL1  H12A 3950   6.048   4.768   5.798  0.1836  1.6755  1.5446
   38CHL1  H12B 3951   6.034   4.599   5.860 -0.9672  1.1187 -2.9411
   38CHL1   C11 3952   6.107   4.758   5.991  0.3272  0.0667 -0.0879
   38CHL1  H11A 3953   6.136   4.864   5.975  0.5450 -0.0212 -0.2829
   38CHL1  H11B 3954   6.006   4.767   6.037  0.0283 -1.6646 -0.3351
   38CHL1    C9 3955   6.207   4.692   6.088 -0.4646 -0.2687  0.1419
   38CHL1    H9 3956   6.155   4.595   6.104 -2.5650  1.0219  1.8293
   38CHL1   C10 3957   6.218   4.765   6.227 -0.5956  0.0848  0.0732
   38CHL1   C19 3958   6.265   4.912   6.210  0.3393 -0.1582  0.6068
   38CHL1  H19A 3959   6.180   4.965   6.161 -1.4611 -2.5694  0.9645
   38CHL1  H19B 3960   6.293   4.975   6.297 -2.4143  1.4335  0.4582
   38CHL1  H19C 3961   6.347   4.901   6.136 -1.9446 -1.9394 -1.8536
   38CHL1    C1 3962   6.087   4.767   6.305  0.6209 -0.1171  0.4538
   38CHL1   H1A 3963   6.013   4.833   6.253  1.7123  0.7682 -0.0107
   38CHL1   H1B 3964   6.042   4.666   6.296  1.0689 -0.2198 -0.9007
   38CHL1    C2 3965   6.100   4.796   6.459 -0.5957 -0.1294  0.6354
   38CHL1   H2A 3966   5.997   4.798   6.502 -1.0736 -0.5439 -0.4426
   38CHL1   H2B 3967   6.143   4.897   6.471  0.3364 -0.6360  1.7763
   38CHL1   C20 3968   6.195   4.635   5.530 -0.0516 -0.3415 -0.5601
   38CHL1   H20 3969   6.254   4.727   5.510  3.4732 -1.8487  2.0202
   38CHL1   C21 3970   6.044   4.668   5.532 -0.1553  0.3575 -0.4338
   38CHL1  H21A 3971   6.026   4.749   5.606  0.0849  0.2358 -0.2408
   38CHL1  H21B 3972   5.986   4.580   5.568 -1.1255  0.9474 -0.5206
   38CHL1  H21C 3973   6.007   4.713   5.437 -0.7943  1.6999  0.4268
   38CHL1   C22 3974   6.225   4.541   5.414 -0.3345 -0.0218 -0.7024
   38CHL1  H22A 3975   6.330   4.505   5.410 -0.7669 -1.4125 -0.1262
   38CHL1  H22B 3976   6.160   4.451   5.423  0.6400 -0.7118 -0.2915
   38CHL1   C23 3977   6.202   4.586   5.269 -0.0684 -0.5592 -0.7956
   38CHL1  H23A 3978   6.096   4.613   5.249  0.4524  2.0643 -0.2933
   38CHL1  H23B 3979   6.265   4.677   5.264  2.4734 -2.0506  1.5203
   38CHL1   C24 3980   6.244   4.487   5.156  0.2463 -0.3419  0.0486
   38CHL1  H24A 3981   6.338   4.439   5.190  0.2478  0.6985  1.6379
   38CHL1  H24B 3982   6.155   4.421   5.152 -2.3908  2.9697 -0.9297
   38CHL1   C25 3983   6.247   4.557   5.015 -0.7873  0.0590 -0.1506
   38CHL1   H25 3984   6.299   4.654   5.025  0.1940 -0.3884 -0.7983
   38CHL1   C26 3985   6.330   4.479   4.911  0.7592 -0.1127  0.0150
   38CHL1  H26A 3986   6.430   4.449   4.948  0.3328  2.0132  3.2960
   38CHL1  H26B 3987   6.268   4.388   4.894  0.9892 -0.5948  1.6360
   38CHL1  H26C 3988   6.317   4.532   4.814 -3.6062  1.9920  1.4845
   38CHL1   C27 3989   6.102   4.589   4.971  0.1384 -0.2268  0.7260
   38CHL1  H27A 3990   6.064   4.669   5.037 -1.9978  0.4066 -1.1424
   38CHL1  H27B 3991   6.105   4.630   4.868  1.4301 -0.7942  0.5218
   38CHL1  H27C 3992   6.038   4.499   4.988 -1.9339  1.1428  0.5842
   39CHL1    C3 3993   5.133   2.544   6.450 -0.0087 -0.6572 -0.3121
   39CHL1    H3 3994   5.231   2.595   6.464 -0.9555  1.0975  0.2506
   39CHL1    O3 3995   5.094   2.492   6.573 -0.5064 -0.6387 -0.4550
   39CHL1   H3' 3996   5.037   2.552   6.621  1.6060 -0.6141  2.2050
   39CHL1    C4 3997   5.024   2.636   6.392 -0.1739 -0.3166  0.3779
   39CHL1   H4A 3998   4.931   2.575   6.400 -2.2735  2.2239 -2.2396
   39CHL1   H4B 3999   5.001   2.724   6.455 -1.4182 -1.9119  2.2586
   39CHL1    C5 4000   5.054   2.688   6.250 -0.2337  0.1187 -0.3626
   39CHL1    C6 4001   5.056   2.818   6.222  0.8543  0.4363 -0.2132
   39CHL1    H6 4002   5.021   2.885   6.302 -3.0302 -0.0349 -1.3571
   39CHL1    C7 4003   5.072   2.887   6.093 -0.1186  0.9534  0.0935
   39CHL1   H7A 4004   4.997   2.964   6.064  0.8586  1.5968 -0.8139
   39CHL1   H7B 4005   5.172   2.931   6.078  0.5347 -0.8782 -1.3125
   39CHL1    C8 4006   5.077   2.780   5.978  0.6014  0.1600 -0.9361
   39CHL1    H8 4007   4.972   2.753   5.954  0.3995  0.0098  0.0749
   39CHL1   C14 4008   5.139   2.846   5.858  0.4178  0.3437  1.0055
   39CHL1   H14 4009   5.245   2.863   5.884  0.8418  0.1489 -0.4598
   39CHL1   C15 4010   5.084   2.971   5.789  0.6467 -0.5273 -0.4152
   39CHL1  H15A 4011   4.973   2.977   5.776  0.2916  0.2756  2.2965
   39CHL1  H15B 4012   5.111   3.055   5.857  0.3513  0.3265 -1.3259
   39CHL1   C16 4013   5.150   2.989   5.653  0.9912  0.4287  0.4752
   39CHL1  H16A 4014   5.061   2.997   5.588 -0.0698  0.5020  1.8967
   39CHL1  H16B 4015   5.201   3.088   5.659 -0.2860  1.1308 -0.0551
   39CHL1   C17 4016   5.241   2.858   5.640  0.1225  0.3666 -0.2462
   39CHL1   H17 4017   5.337   2.885   5.689 -0.4103 -0.7051  1.4988
   39CHL1   C13 4018   5.174   2.754   5.737  0.2291  0.0881 -0.4966
   39CHL1   C18 4019   5.038   2.699   5.680  0.4050  0.1181  0.0129
   39CHL1  H18A 4020   4.960   2.774   5.656  0.4291 -0.2375 -1.2868
   39CHL1  H18B 4021   5.052   2.637   5.588 -1.4390 -0.2779 -0.0313
   39CHL1  H18C 4022   4.998   2.623   5.750  1.8955 -1.1239 -0.4271
   39CHL1   C12 4023   5.268   2.639   5.787  0.1645  0.0067 -0.5783
   39CHL1  H12A 4024   5.292   2.577   5.697  1.0782 -0.0438 -0.3154
   39CHL1  H12B 4025   5.366   2.680   5.820 -0.1007 -0.6112  1.0532
   39CHL1   C11 4026   5.208   2.559   5.906  0.2438  0.0422 -0.3398
   39CHL1  H11A 4027   5.115   2.513   5.866 -0.0028  1.3386 -1.3170
   39CHL1  H11B 4028   5.289   2.486   5.930 -0.0779 -0.1027  0.3420
   39CHL1    C9 4029   5.161   2.656   6.021 -0.0954 -0.7992 -0.2577
   39CHL1    H9 4030   5.261   2.690   6.055  0.2268 -0.8759 -1.1019
   39CHL1   C10 4031   5.102   2.590   6.143 -0.1795 -1.0021 -0.5242
   39CHL1   C19 4032   4.978   2.499   6.108 -0.0299  0.0166  0.4599
   39CHL1  H19A 4033   4.927   2.462   6.199  0.4803  1.5485  1.4114
   39CHL1  H19B 4034   4.902   2.565   6.062 -0.0328  0.6745  1.3784
   39CHL1  H19C 4035   5.003   2.416   6.038 -2.1770 -0.1924 -0.1093
   39CHL1    C1 4036   5.212   2.502   6.220  0.6656 -0.1539  0.2226
   39CHL1   H1A 4037   5.219   2.417   6.149 -1.4869  2.0403 -2.8876
   39CHL1   H1B 4038   5.313   2.548   6.212  0.2852  0.7748  0.6543
   39CHL1    C2 4039   5.161   2.435   6.348 -0.5499 -0.3578 -0.1381
   39CHL1   H2A 4040   5.238   2.366   6.387 -2.2554 -1.7440  0.9017
   39CHL1   H2B 4041   5.061   2.389   6.336 -1.1110  1.0499 -1.1292
   39CHL1   C20 4042   5.277   2.804   5.497 -0.6569  0.3992  0.3209
   39CHL1   H20 4043   5.292   2.694   5.500  1.6840  0.6402 -0.1557
   39CHL1   C21 4044   5.418   2.860   5.470  0.1638 -0.3497  0.3168
   39CHL1  H21A 4045   5.454   2.824   5.371 -1.4833  0.0874 -0.4720
   39CHL1  H21B 4046   5.493   2.819   5.541  0.9892  2.1515  0.9924
   39CHL1  H21C 4047   5.406   2.970   5.485  1.6080 -0.2302  0.7336
   39CHL1   C22 4048   5.176   2.840   5.384 -0.0224 -0.5980 -0.0272
   39CHL1  H22A 4049   5.072   2.810   5.408 -0.2098 -0.2891 -0.4360
   39CHL1  H22B 4050   5.177   2.951   5.381 -1.0516 -0.5066  1.7578
   39CHL1   C23 4051   5.205   2.805   5.239 -0.0081 -0.0028  0.1246
   39CHL1  H23A 4052   5.123   2.842   5.173 -0.8522 -1.2479  0.4424
   39CHL1  H23B 4053   5.303   2.848   5.209 -0.0435 -0.3808 -0.5545
   39CHL1   C24 4054   5.221   2.657   5.224  0.3138  0.5476  0.0827
   39CHL1  H24A 4055   5.294   2.610   5.293 -1.6459 -3.4385 -0.2644
   39CHL1  H24B 4056   5.127   2.607   5.254 -0.9291  2.0621 -1.0649
   39CHL1   C25 4057   5.284   2.616   5.092 -0.5348  0.4993 -0.0545
   39CHL1   H25 4058   5.394   2.627   5.081 -0.2782 -1.4280  0.2493
   39CHL1   C26 4059   5.265   2.469   5.066  0.1279  0.7630 -0.3685
   39CHL1  H26A 4060   5.314   2.441   4.970  0.7646  0.8815 -0.0853
   39CHL1  H26B 4061   5.320   2.408   5.141 -1.8004 -0.8610 -0.1944
   39CHL1  H26C 4062   5.157   2.447   5.056 -0.2878  3.1890 -2.3902
   39CHL1   C27 4063   5.216   2.691   4.979 -0.0116  0.3922 -1.0304
   39CHL1  H27A 4064   5.243   2.653   4.878 -1.3667 -0.3359 -1.1470
   39CHL1  H27B 4065   5.106   2.674   4.976 -0.1568  1.3961 -3.0346
   39CHL1  H27C 4066   5.237   2.799   4.988 -0.4805  0.3225  1.5531
   40CHL1    C3 4067   4.539   6.084   6.725 -0.7776 -0.8950 -0.2078
   40CHL1    H3 4068   4.590   5.986   6.715 -1.0232 -1.0868  0.3693
   40CHL1    O3 4069   4.510   6.109   6.865  0.1958  0.3964 -0.5470
   40CHL1   H3' 4070   4.465   6.193   6.877 -0.9193 -0.2493 -0.0177
   40CHL1    C4 4071   4.632   6.189   6.660  0.0182 -0.5238 -0.6219
   40CHL1   H4A 4072   4.582   6.278   6.701  1.1486  0.0098 -0.3554
   40CHL1   H4B 4073   4.727   6.197   6.718  0.1805  0.5964 -1.0329
   40CHL1    C5 4074   4.630   6.201   6.512  0.9427  0.1059  0.0607
   40CHL1    C6 4075   4.744   6.195   6.441 -0.4812 -0.7189 -0.3944
   40CHL1    H6 4076   4.842   6.194   6.492 -0.8031 -1.1579  0.2264
   40CHL1    C7 4077   4.760   6.204   6.295 -0.2232  0.1991  0.4394
   40CHL1   H7A 4078   4.834   6.286   6.281 -0.7681  0.3956 -1.6767
   40CHL1   H7B 4079   4.788   6.104   6.257 -0.4931  0.7893 -1.4269
   40CHL1    C8 4080   4.622   6.251   6.223 -0.3183  0.1783 -0.7519
   40CHL1    H8 4081   4.608   6.360   6.243  0.3007 -0.3320  3.1498
   40CHL1   C14 4082   4.631   6.220   6.077  0.4704 -0.2801  0.3958
   40CHL1   H14 4083   4.647   6.111   6.075  1.2103 -0.2395  2.1230
   40CHL1   C15 4084   4.747   6.275   5.992  0.5998 -0.5755  0.1159
   40CHL1  H15A 4085   4.765   6.381   6.018  4.0800 -0.9292 -0.4176
   40CHL1  H15B 4086   4.842   6.226   6.024  0.9582 -0.1416 -0.2824
   40CHL1   C16 4087   4.703   6.263   5.849 -0.2333 -0.7688 -0.1656
   40CHL1  H16A 4088   4.698   6.365   5.805 -0.2751  0.2706  2.1077
   40CHL1  H16B 4089   4.778   6.197   5.801 -0.1363  1.6418 -3.7410
   40CHL1   C17 4090   4.563   6.213   5.848  0.1111  0.8030 -0.0648
   40CHL1   H17 4091   4.568   6.102   5.851 -2.1646  0.6259 -0.5936
   40CHL1   C13 4092   4.509   6.258   5.987 -0.5583 -0.5780 -0.0817
   40CHL1   C18 4093   4.489   6.410   5.995  0.4771 -0.2935 -0.4348
   40CHL1  H18A 4094   4.583   6.468   5.985 -0.1809  0.4145 -3.8520
   40CHL1  H18B 4095   4.433   6.452   5.908 -0.6170  3.4888  1.8417
   40CHL1  H18C 4096   4.444   6.440   6.092  1.0655 -0.2602 -0.1688
   40CHL1   C12 4097   4.390   6.177   6.045 -0.2788  0.8886 -0.0459
   40CHL1  H12A 4098   4.297   6.210   5.995 -0.5116  0.9356  0.4169
   40CHL1  H12B 4099   4.410   6.069   6.029 -0.9988  0.7904 -0.3013
   40CHL1   C11 4100   4.378   6.200   6.199  0.0745  0.4736  0.2391
   40CHL1  H11A 4101   4.338   6.302   6.222 -0.8886  0.5521 -1.6091
   40CHL1  H11B 4102   4.311   6.117   6.229  0.4620  0.3103  0.6751
   40CHL1    C9 4103   4.506   6.180   6.287  0.7090  0.1479 -0.4370
   40CHL1    H9 4104   4.526   6.070   6.282  2.7704  0.4444  0.1653
   40CHL1   C10 4105   4.490   6.200   6.443 -0.3635  0.2748 -0.3470
   40CHL1   C19 4106   4.418   6.335   6.468  0.7251 -0.5171 -0.6530
   40CHL1  H19A 4107   4.312   6.329   6.436  0.2295  1.4315  0.4591
   40CHL1  H19B 4108   4.412   6.360   6.576 -1.0172  0.6414 -0.9780
   40CHL1  H19C 4109   4.467   6.419   6.415  1.0520  0.4377  1.0896
   40CHL1    C1 4110   4.413   6.080   6.505 -0.1945 -0.0059 -0.5703
   40CHL1   H1A 4111   4.308   6.082   6.469 -0.8000 -0.0781  1.0922
   40CHL1   H1B 4112   4.464   5.991   6.464 -0.5725 -0.1127 -0.8112
   40CHL1    C2 4113   4.405   6.079   6.655 -0.1103  0.6916 -0.5356
   40CHL1   H2A 4114   4.357   5.987   6.696 -1.2184  2.3179  2.0465
   40CHL1   H2B 4115   4.343   6.163   6.692  0.7569  0.3607  1.8441
   40CHL1   C20 4116   4.485   6.251   5.721  0.8982 -0.2494 -0.2872
   40CHL1   H20 4117   4.446   6.355   5.725  1.0230 -0.2288  0.4074
   40CHL1   C21 4118   4.355   6.167   5.719  0.1608 -0.1462  0.0311
   40CHL1  H21A 4119   4.380   6.059   5.715  2.6587  0.2319  2.4054
   40CHL1  H21B 4120   4.287   6.201   5.638  0.7210  2.8107  0.6907
   40CHL1  H21C 4121   4.281   6.174   5.801 -0.6668  4.5175 -0.8168
   40CHL1   C22 4122   4.558   6.239   5.585  0.0307 -0.4001  0.4605
   40CHL1  H22A 4123   4.493   6.271   5.500 -0.9432  0.1375  1.3865
   40CHL1  H22B 4124   4.656   6.291   5.582  0.2061 -0.7296  0.4275
   40CHL1   C23 4125   4.600   6.099   5.533 -0.5918  0.4236  0.1252
   40CHL1  H23A 4126   4.635   6.038   5.619  1.7795 -1.3027 -1.9178
   40CHL1  H23B 4127   4.510   6.052   5.489 -0.3147 -0.0657  0.0675
   40CHL1   C24 4128   4.699   6.108   5.412  0.6707  0.2726  0.0753
   40CHL1  H24A 4129   4.648   6.176   5.341 -0.5039 -1.6930 -1.0580
   40CHL1  H24B 4130   4.797   6.150   5.446  0.8370 -0.4114  0.4555
   40CHL1   C25 4131   4.717   5.961   5.356 -0.0879  0.9297  0.1366
   40CHL1   H25 4132   4.621   5.906   5.353  1.5239 -2.0382 -0.1274
   40CHL1   C26 4133   4.781   5.963   5.220  0.1858 -0.0512  0.0187
   40CHL1  H26A 4134   4.813   5.859   5.197  1.2247 -0.3820  2.6590
   40CHL1  H26B 4135   4.723   6.004   5.134  2.1247 -0.6963 -1.6775
   40CHL1  H26C 4136   4.882   6.010   5.217 -0.1722  0.7791  0.5704
   40CHL1   C27 4137   4.809   5.883   5.452 -0.6003 -0.1184  0.4831
   40CHL1  H27A 4138   4.763   5.870   5.552  0.4621 -1.7115  0.7949
   40CHL1  H27B 4139   4.848   5.789   5.407  1.3487  0.5574  0.6703
   40CHL1  H27C 4140   4.897   5.948   5.472 -1.6265  1.3961  0.2566
   41CHL1    C3 4141   0.370   0.187   6.797 -0.2127 -0.5177 -0.2720
   41CHL1    H3 4142   0.397   0.295   6.792 -1.5314 -0.1655 -0.0570
   41CHL1    O3 4143   0.360   0.152   6.934 -0.0513 -0.1576 -0.8830
   41CHL1   H3' 4144   0.332   0.060   6.929 -0.3630 -0.0527 -1.1039
   41CHL1    C4 4145   0.231   0.169   6.724 -0.3644  0.2831 -0.9011
   41CHL1   H4A 4146   0.180   0.070   6.727 -0.6815  0.3243 -3.1040
   41CHL1   H4B 4147   0.149   0.219   6.779  1.2998  1.2363  0.8438
   41CHL1    C5 4148   0.236   0.201   6.575 -0.5041 -0.1633  0.1612
   41CHL1    C6 4149   0.152   0.293   6.517 -0.3846  0.2662 -0.3467
   41CHL1    H6 4150   0.073   0.345   6.573 -1.4529 -1.2398 -0.4173
   41CHL1    C7 4151   0.155   0.313   6.373 -0.0612  0.2461 -0.0055
   41CHL1   H7A 4152   0.054   0.300   6.329 -0.2717  1.6821 -0.0027
   41CHL1   H7B 4153   0.198   0.411   6.342  1.7703 -0.3748  0.4378
   41CHL1    C8 4154   0.231   0.202   6.294 -0.0873  0.3068 -0.0516
   41CHL1    H8 4155   0.168   0.111   6.286  0.9930 -0.6999  2.1499
   41CHL1   C14 4156   0.252   0.241   6.148 -0.5069 -0.1883  0.0119
   41CHL1   H14 4157   0.317   0.330   6.159 -1.1187  0.5501 -1.8547
   41CHL1   C15 4158   0.133   0.293   6.066 -0.2241  0.2493  0.2183
   41CHL1  H15A 4159   0.033   0.247   6.082 -0.6757  0.3891 -1.9380
   41CHL1  H15B 4160   0.119   0.401   6.089  2.7778  0.6603  0.4822
   41CHL1   C16 4161   0.162   0.264   5.919  0.0103 -0.2495 -0.2852
   41CHL1  H16A 4162   0.086   0.189   5.887  0.5462 -1.9439  2.1236
   41CHL1  H16B 4163   0.160   0.360   5.864 -3.6061  0.7281  1.3022
   41CHL1   C17 4164   0.300   0.200   5.919  0.6044  0.1763  0.4514
   41CHL1   H17 4165   0.375   0.279   5.937  0.2517  0.9884 -1.3751
   41CHL1   C13 4166   0.312   0.126   6.063 -0.2584 -0.6617 -0.2655
   41CHL1   C18 4167   0.223   0.009   6.044  0.1265  0.5511  0.0916
   41CHL1  H18A 4168   0.121   0.024   6.002 -1.1854  0.4517  3.0366
   41CHL1  H18B 4169   0.274  -0.074   5.990 -0.9458  0.3033 -0.5747
   41CHL1  H18C 4170   0.200  -0.034   6.144  0.8179  0.9290  0.4211
   41CHL1   C12 4171   0.449   0.095   6.118 -0.3857 -0.1998 -0.1258
   41CHL1  H12A 4172   0.498   0.012   6.062  1.0173  0.8428 -0.4990
   41CHL1  H12B 4173   0.522   0.178   6.113 -0.6110 -0.0856 -2.1584
   41CHL1   C11 4174   0.432   0.050   6.267 -0.0664 -0.4328  0.3111
   41CHL1  H11A 4175   0.380  -0.049   6.269  0.2578 -0.5974  0.5850
   41CHL1  H11B 4176   0.536   0.038   6.304  0.0014  0.3494  0.3724
   41CHL1    C9 4177   0.364   0.157   6.358  0.1335 -0.1449  0.0300
   41CHL1    H9 4178   0.434   0.243   6.354 -1.3247  1.1134  0.5453
   41CHL1   C10 4179   0.352   0.119   6.508  0.4012  0.1576 -0.1136
   41CHL1   C19 4180   0.309  -0.029   6.514  0.4097  0.4260 -0.0805
   41CHL1  H19A 4181   0.362  -0.102   6.449 -0.0794  0.4765 -0.5478
   41CHL1  H19B 4182   0.291  -0.056   6.620  3.0424 -0.0500  0.2993
   41CHL1  H19C 4183   0.209  -0.039   6.465  0.0034  1.8530  0.4158
   41CHL1    C1 4184   0.481   0.150   6.585 -0.6190 -0.3690  0.1600
   41CHL1   H1A 4185   0.568   0.103   6.535  0.6839  0.0326  1.9675
   41CHL1   H1B 4186   0.501   0.257   6.568 -2.6699 -0.0944 -0.8995
   41CHL1    C2 4187   0.478   0.103   6.733  0.2305 -0.3686  0.6157
   41CHL1   H2A 4188   0.580   0.125   6.772  0.8826 -0.7325 -0.7818
   41CHL1   H2B 4189   0.455  -0.003   6.756 -0.8580 -0.2556  0.0700
   41CHL1   C20 4190   0.348   0.117   5.798  0.2544 -0.0167  0.4428
   41CHL1   H20 4191   0.398   0.022   5.828  1.5509 -0.0686 -1.6836
   41CHL1   C21 4192   0.474   0.188   5.736  0.9854  0.3483  0.3792
   41CHL1  H21A 4193   0.548   0.194   5.818  0.1941 -0.0321  1.1283
   41CHL1  H21B 4194   0.433   0.291   5.722 -1.4958 -0.4584  1.2823
   41CHL1  H21C 4195   0.528   0.129   5.658 -1.1079  0.9715 -1.6633
   41CHL1   C22 4196   0.248   0.083   5.691 -0.4524  0.1879  0.5245
   41CHL1  H22A 4197   0.160   0.051   5.750  0.4691 -2.0156  0.8209
   41CHL1  H22B 4198   0.223   0.169   5.626 -0.8126 -0.2809  0.0321
   41CHL1   C23 4199   0.285  -0.031   5.592  0.1797 -0.1737 -0.0601
   41CHL1  H23A 4200   0.385  -0.015   5.547  0.3414  0.0824  0.3813
   41CHL1  H23B 4201   0.291  -0.128   5.646  1.3645  1.1593  2.3606
   41CHL1   C24 4202   0.168  -0.037   5.488 -0.6478 -0.3880 -0.0152
   41CHL1  H24A 4203   0.086  -0.091   5.538  0.1414 -1.0568  0.5774
   41CHL1  H24B 4204   0.142   0.067   5.456  1.5770 -0.1259 -1.1834
   41CHL1   C25 4205   0.202  -0.120   5.364  0.1849  0.1097  0.9085
   41CHL1   H25 4206   0.297  -0.078   5.326  0.3034  1.2511  2.3746
   41CHL1   C26 4207   0.227  -0.273   5.379 -0.0915  0.3026 -0.5703
   41CHL1  H26A 4208   0.125  -0.314   5.393  0.2741  0.1228  2.1162
   41CHL1  H26B 4209   0.269  -0.312   5.284 -2.6239  0.0212 -1.6620
   41CHL1  H26C 4210   0.286  -0.300   5.469 -2.4729 -2.7259  0.2584
   41CHL1   C27 4211   0.092  -0.110   5.251 -0.5364  0.1648  0.0234
   41CHL1  H27A 4212   0.003  -0.168   5.282  0.1392 -0.6784  0.4485
   41CHL1  H27B 4213   0.079  -0.002   5.231  1.4242  0.4440  0.0298
   41CHL1  H27C 4214   0.150  -0.164   5.173 -0.4498 -1.6895  1.2804
   42CHL1    C3 4215   5.781   4.684   6.690  0.7149 -0.0193 -0.1121
   42CHL1    H3 4216   5.882   4.726   6.669 -0.0939  2.2960  0.4209
   42CHL1    O3 4217   5.769   4.680   6.828  0.2758 -0.3876 -0.5589
   42CHL1   H3' 4218   5.680   4.648   6.843 -0.2695  1.3817  0.2071
   42CHL1    C4 4219   5.677   4.785   6.635 -0.3719 -0.3186  0.3665
   42CHL1   H4A 4220   5.574   4.765   6.672 -0.1381 -0.8754  0.7264
   42CHL1   H4B 4221   5.710   4.886   6.668  2.1622 -0.3552 -1.7104
   42CHL1    C5 4222   5.674   4.796   6.486  0.2454  0.5017 -0.2860
   42CHL1    C6 4223   5.687   4.910   6.428  0.7790 -0.5149  0.1496
   42CHL1    H6 4224   5.691   4.996   6.496  1.8439 -0.4936  0.0638
   42CHL1    C7 4225   5.676   4.937   6.281  0.2495 -0.3483  0.8791
   42CHL1   H7A 4226   5.595   5.009   6.258 -1.0834 -2.0799 -0.0914
   42CHL1   H7B 4227   5.774   4.981   6.256 -0.6596  1.0418 -0.4235
   42CHL1    C8 4228   5.637   4.812   6.197 -0.3772 -0.7639 -0.5015
   42CHL1    H8 4229   5.528   4.798   6.208 -0.2742 -0.7808  0.6686
   42CHL1   C14 4230   5.685   4.830   6.048  0.2739  0.0607  0.2054
   42CHL1   H14 4231   5.795   4.826   6.057  0.1299 -0.3597  2.1302
   42CHL1   C15 4232   5.649   4.956   5.969  0.4545 -0.2136 -0.0784
   42CHL1  H15A 4233   5.540   4.977   5.963  0.5896  0.0660 -2.8624
   42CHL1  H15B 4234   5.698   5.042   6.019  1.4440 -1.3314  0.9252
   42CHL1   C16 4235   5.684   4.926   5.824  0.3240  0.0633 -0.4135
   42CHL1  H16A 4236   5.622   4.981   5.750  2.6999  1.1283 -1.7235
   42CHL1  H16B 4237   5.789   4.958   5.806  0.7824 -1.1410  0.0268
   42CHL1   C17 4238   5.663   4.771   5.809  0.3126 -0.0279 -0.9380
   42CHL1   H17 4239   5.766   4.735   5.790  0.8378  1.9480 -2.0771
   42CHL1   C13 4240   5.632   4.717   5.951  0.1016  0.0656 -0.4922
   42CHL1   C18 4241   5.472   4.700   5.960 -0.2585 -0.3856 -0.1027
   42CHL1  H18A 4242   5.449   4.670   6.064  1.8367 -0.6581  0.3177
   42CHL1  H18B 4243   5.417   4.794   5.937  0.1710 -0.3109 -0.8861
   42CHL1  H18C 4244   5.431   4.631   5.883 -0.4303  0.6665 -0.9804
   42CHL1   C12 4245   5.702   4.586   5.999 -0.1165  0.1030  0.2343
   42CHL1  H12A 4246   5.676   4.492   5.947 -1.1109  1.0887 -1.1122
   42CHL1  H12B 4247   5.813   4.595   5.992  0.0533 -1.1691  1.0618
   42CHL1   C11 4248   5.668   4.570   6.157 -0.1251  0.2571 -0.2086
   42CHL1  H11A 4249   5.561   4.541   6.166  0.3919 -1.5689  0.3656
   42CHL1  H11B 4250   5.729   4.482   6.189  1.7207  0.7512 -2.1118
   42CHL1    C9 4251   5.709   4.688   6.257  0.0529 -0.3822 -0.5426
   42CHL1    H9 4252   5.818   4.701   6.241  0.1049  1.0707  0.7738
   42CHL1   C10 4253   5.672   4.665   6.407 -0.1733  0.1050 -0.8545
   42CHL1   C19 4254   5.527   4.617   6.419  0.0249 -0.5499  0.4209
   42CHL1  H19A 4255   5.456   4.677   6.358 -1.8618 -0.7380  2.3029
   42CHL1  H19B 4256   5.519   4.512   6.383 -1.1026  0.2810 -2.0170
   42CHL1  H19C 4257   5.487   4.618   6.523 -0.9746  2.5966  0.1085
   42CHL1    C1 4258   5.767   4.561   6.470  0.1607  0.6197  0.1507
   42CHL1   H1A 4259   5.746   4.463   6.423  2.9876 -0.3105  0.6249
   42CHL1   H1B 4260   5.873   4.575   6.439  0.9671 -2.9835  0.8493
   42CHL1    C2 4261   5.762   4.544   6.621  0.3643 -0.6837 -0.3452
   42CHL1   H2A 4262   5.833   4.472   6.668  0.3762 -0.6012 -0.2357
   42CHL1   H2B 4263   5.664   4.497   6.644  0.6182 -0.4675  1.3213
   42CHL1   C20 4264   5.575   4.726   5.690  0.8921 -0.0911  0.2325
   42CHL1   H20 4265   5.472   4.750   5.721  0.9844 -1.4870  1.7839
   42CHL1   C21 4266   5.586   4.569   5.665 -0.0710  0.3164 -0.2855
   42CHL1  H21A 4267   5.504   4.517   5.719  0.6617 -0.3440  0.2093
   42CHL1  H21B 4268   5.684   4.540   5.709  0.8553  1.9002 -1.2149
   42CHL1  H21C 4269   5.583   4.542   5.558 -2.7622 -2.8835  0.3990
   42CHL1   C22 4270   5.617   4.799   5.558  0.1657  0.2198  0.1342
   42CHL1  H22A 4271   5.689   4.881   5.579  1.4205 -0.4469 -1.3726
   42CHL1  H22B 4272   5.680   4.739   5.489  1.2405 -1.6313  2.5477
   42CHL1   C23 4273   5.497   4.843   5.469  0.0477 -0.1509  0.3803
   42CHL1  H23A 4274   5.434   4.755   5.445  1.3953 -0.9249 -0.4874
   42CHL1  H23B 4275   5.426   4.913   5.518 -0.2134  0.3448 -0.6981
   42CHL1   C24 4276   5.539   4.910   5.337  0.7846 -0.2392  0.5342
   42CHL1  H24A 4277   5.620   4.983   5.360 -0.5381  0.9235  1.6918
   42CHL1  H24B 4278   5.580   4.832   5.269  0.2181 -0.0254 -0.0691
   42CHL1   C25 4279   5.418   4.977   5.255 -0.3380  0.5963  0.0031
   42CHL1   H25 4280   5.335   4.904   5.242 -0.8072  1.1349 -0.0628
   42CHL1   C26 4281   5.379   5.109   5.321  0.4320  0.1896  0.1666
   42CHL1  H26A 4282   5.463   5.175   5.351  0.4861 -0.5998  1.8619
   42CHL1  H26B 4283   5.307   5.160   5.254  1.5506  2.3365  0.5157
   42CHL1  H26C 4284   5.326   5.082   5.414  0.1862 -0.2945 -0.1105
   42CHL1   C27 4285   5.472   5.031   5.124  0.3476 -0.1900 -0.1331
   42CHL1  H27A 4286   5.559   5.095   5.148 -1.7652  3.5312 -1.6023
   42CHL1  H27B 4287   5.491   4.960   5.041 -3.2606  1.7714 -2.9213
   42CHL1  H27C 4288   5.398   5.098   5.075  1.4720  0.9448 -0.3475
   43CHL1    C3 4289   1.240   5.849   6.827  0.2745 -0.1911  1.1639
   43CHL1    H3 4290   1.255   5.957   6.804 -1.8563  0.0623  0.7503
   43CHL1    O3 4291   1.212   5.843   6.966 -0.7477  0.4711 -0.4697
   43CHL1   H3' 4292   1.225   5.750   6.982  0.8984  0.5207 -1.3020
   43CHL1    C4 4293   1.113   5.811   6.748 -0.2852 -0.8077  0.3837
   43CHL1   H4A 4294   1.083   5.711   6.788 -2.8793  0.8417  2.9870
   43CHL1   H4B 4295   1.040   5.889   6.779 -0.5487 -1.6268  1.9530
   43CHL1    C5 4296   1.141   5.813   6.599  0.6125 -0.7943  0.0649
   43CHL1    C6 4297   1.061   5.891   6.523 -0.1439 -0.0455  0.1381
   43CHL1    H6 4298   0.979   5.942   6.576 -0.6842  0.4639 -1.1235
   43CHL1    C7 4299   1.072   5.899   6.373  0.6178  0.1923  0.2690
   43CHL1   H7A 4300   0.977   5.888   6.316  0.6614  0.2598  0.1822
   43CHL1   H7B 4301   1.111   6.002   6.354 -0.4440  0.7567  1.0000
   43CHL1    C8 4302   1.170   5.790   6.319 -0.4106 -0.1136  0.1591
   43CHL1    H8 4303   1.110   5.697   6.318  0.3316 -0.6019 -0.8501
   43CHL1   C14 4304   1.212   5.828   6.173 -0.2348 -0.0851  0.5016
   43CHL1   H14 4305   1.284   5.912   6.177 -0.2977  0.0059 -0.1752
   43CHL1   C15 4306   1.101   5.861   6.081  0.0872 -0.0053  0.7339
   43CHL1  H15A 4307   1.014   5.793   6.093  1.8907 -2.4044  0.9743
   43CHL1  H15B 4308   1.062   5.963   6.098 -1.3199 -0.4884  0.5406
   43CHL1   C16 4309   1.157   5.833   5.942 -0.1142 -0.3744 -0.6837
   43CHL1  H16A 4310   1.091   5.774   5.876 -1.3276 -0.9872  0.9962
   43CHL1  H16B 4311   1.169   5.929   5.887  0.6593 -0.5485 -0.8264
   43CHL1   C17 4312   1.300   5.773   5.956 -0.1794  0.1579 -0.3341
   43CHL1   H17 4313   1.373   5.857   5.962  2.9038 -2.3902  0.9742
   43CHL1   C13 4314   1.294   5.714   6.102  0.2553 -0.7672  0.1817
   43CHL1   C18 4315   1.207   5.581   6.107  0.3722  0.8695 -0.0255
   43CHL1  H18A 4316   1.270   5.498   6.069 -1.1421 -0.9089  1.2152
   43CHL1  H18B 4317   1.190   5.548   6.211 -0.8831  5.6025  1.5334
   43CHL1  H18C 4318   1.116   5.584   6.044  0.6151 -0.3653 -0.4686
   43CHL1   C12 4319   1.422   5.700   6.183  0.2370 -0.5260 -0.4235
   43CHL1  H12A 4320   1.501   5.634   6.141  1.3536  0.0885  0.6541
   43CHL1  H12B 4321   1.464   5.802   6.173 -1.8978  0.2581 -2.3472
   43CHL1   C11 4322   1.403   5.665   6.336  0.3794  0.0259 -0.7408
   43CHL1  H11A 4323   1.362   5.562   6.339  1.0655 -0.2470  2.3836
   43CHL1  H11B 4324   1.498   5.653   6.393 -0.6534  0.7437  1.1866
   43CHL1    C9 4325   1.306   5.765   6.403  0.2037 -0.4778  0.6407
   43CHL1    H9 4326   1.355   5.865   6.407 -1.1052  0.2201  0.1937
   43CHL1   C10 4327   1.264   5.732   6.549  0.6524 -0.1435  0.7203
   43CHL1   C19 4328   1.223   5.583   6.558 -0.4827  0.5864 -0.7036
   43CHL1  H19A 4329   1.318   5.536   6.524 -1.7985 -0.0265 -3.7960
   43CHL1  H19B 4330   1.195   5.531   6.653  0.7758 -1.6814 -1.5061
   43CHL1  H19C 4331   1.142   5.563   6.486 -1.0358 -1.9346  0.5029
   43CHL1    C1 4332   1.386   5.764   6.633 -0.1318  0.1410  0.5705
   43CHL1   H1A 4333   1.463   5.691   6.600 -0.3748 -0.1752  0.6990
   43CHL1   H1B 4334   1.430   5.859   6.596  1.4214 -0.8052 -0.1105
   43CHL1    C2 4335   1.362   5.768   6.783 -0.2899 -0.7879  0.6883
   43CHL1   H2A 4336   1.452   5.797   6.841  0.2398 -1.6145  0.3077
   43CHL1   H2B 4337   1.322   5.666   6.806 -1.4368 -0.9127 -1.5925
   43CHL1   C20 4338   1.335   5.681   5.830  0.5772 -0.4204  0.4670
   43CHL1   H20 4339   1.275   5.588   5.826  1.8518 -1.2690  0.3435
   43CHL1   C21 4340   1.478   5.633   5.853  0.3491 -1.0123  0.2942
   43CHL1  H21A 4341   1.470   5.551   5.928 -0.9966  1.2326  2.7537
   43CHL1  H21B 4342   1.543   5.717   5.884  0.2039 -1.1679  1.0402
   43CHL1  H21C 4343   1.518   5.576   5.766 -1.2691  1.6703 -2.3609
   43CHL1   C22 4344   1.326   5.759   5.694 -0.4707  0.3258 -0.1591
   43CHL1  H22A 4345   1.217   5.784   5.689 -0.1880  1.9096  0.8412
   43CHL1  H22B 4346   1.378   5.857   5.696 -0.9378  0.5629  1.3541
   43CHL1   C23 4347   1.380   5.678   5.577 -0.1261  0.9638 -0.4584
   43CHL1  H23A 4348   1.490   5.663   5.582  0.0597  2.6878  2.4034
   43CHL1  H23B 4349   1.326   5.581   5.585  1.3828  0.1059 -0.3722
   43CHL1   C24 4350   1.357   5.753   5.442  0.2949 -0.1095 -0.0078
   43CHL1  H24A 4351   1.259   5.807   5.442  0.0627 -0.4122  2.4561
   43CHL1  H24B 4352   1.444   5.822   5.434 -0.3312  0.5994 -0.9012
   43CHL1   C25 4353   1.349   5.655   5.327 -0.6460  1.2743  0.0745
   43CHL1   H25 4354   1.270   5.580   5.347 -0.4157  1.0877  0.2751
   43CHL1   C26 4355   1.288   5.711   5.198 -1.0639  0.3307 -0.8006
   43CHL1  H26A 4356   1.179   5.720   5.213 -0.9742 -1.0875  0.9570
   43CHL1  H26B 4357   1.328   5.813   5.178 -2.3600  1.0409  0.1140
   43CHL1  H26C 4358   1.304   5.649   5.107 -0.3799  0.0066 -0.4634
   43CHL1   C27 4359   1.480   5.582   5.304 -0.3706 -0.0640  0.3357
   43CHL1  H27A 4360   1.563   5.653   5.283  0.9531 -1.7759 -0.5734
   43CHL1  H27B 4361   1.502   5.505   5.381  1.2708 -0.2186 -0.2410
   43CHL1  H27C 4362   1.473   5.531   5.205 -0.2783  1.5271 -0.5217
   44CHL1    C3 4363   0.764   6.497   3.622  0.5637  0.1843  0.2276
   44CHL1    H3 4364   0.813   6.397   3.631  2.5646  0.6562 -3.4671
   44CHL1    O3 4365   0.735   6.523   3.484  0.3603 -0.0939  0.7113
   44CHL1   H3' 4366   0.643   6.550   3.476  0.6396  0.6213 -0.4382
   44CHL1    C4 4367   0.628   6.497   3.698 -0.1618  0.1054  0.1790
   44CHL1   H4A 4368   0.564   6.583   3.668 -0.5432 -0.5561 -0.9617
   44CHL1   H4B 4369   0.573   6.409   3.657 -1.2285  0.3347  1.0787
   44CHL1    C5 4370   0.632   6.493   3.846  0.0761 -0.1058 -0.3687
   44CHL1    C6 4371   0.573   6.395   3.913  0.6644  0.3417  0.4749
   44CHL1    H6 4372   0.502   6.322   3.872 -1.7204  1.6095  2.0909
   44CHL1    C7 4373   0.585   6.382   4.060 -0.6636 -0.0562  0.1721
   44CHL1   H7A 4374   0.486   6.368   4.110 -1.5731  0.7593 -1.3442
   44CHL1   H7B 4375   0.656   6.300   4.086 -1.4971 -0.9250 -0.2282
   44CHL1    C8 4376   0.655   6.497   4.135  0.8800 -0.0071 -0.0791
   44CHL1    H8 4377   0.588   6.586   4.142  3.1020  1.7386  0.1970
   44CHL1   C14 4378   0.700   6.456   4.276 -0.1116  0.6397  0.0776
   44CHL1   H14 4379   0.777   6.377   4.264 -0.1241  0.5427  0.5925
   44CHL1   C15 4380   0.608   6.386   4.377  0.3495  0.0023  0.2969
   44CHL1  H15A 4381   0.502   6.419   4.377 -0.1769 -1.3755 -2.7029
   44CHL1  H15B 4382   0.609   6.279   4.346  1.0633 -0.0187  0.3888
   44CHL1   C16 4383   0.674   6.409   4.516 -0.0067  0.5954 -0.2263
   44CHL1  H16A 4384   0.602   6.461   4.584  0.4474  0.3496  0.4469
   44CHL1  H16B 4385   0.704   6.311   4.557  1.0815  0.5755 -1.0345
   44CHL1   C17 4386   0.806   6.482   4.482 -0.6032  0.3686  0.1888
   44CHL1   H17 4387   0.880   6.402   4.463  0.3033  0.8945  1.4200
   44CHL1   C13 4388   0.782   6.564   4.351 -0.8279 -0.4389 -0.6266
   44CHL1   C18 4389   0.689   6.679   4.381 -0.2734 -0.0400 -0.1593
   44CHL1  H18A 4390   0.615   6.643   4.457  1.4719 -1.0416  1.1372
   44CHL1  H18B 4391   0.748   6.757   4.432  0.3628 -1.0608  0.7150
   44CHL1  H18C 4392   0.631   6.719   4.295  0.0424  0.0757 -0.3186
   44CHL1   C12 4393   0.908   6.605   4.272 -0.0227 -0.3802 -0.1349
   44CHL1  H12A 4394   0.963   6.691   4.316 -1.5027  1.1511 -1.1594
   44CHL1  H12B 4395   0.978   6.520   4.259  0.2269 -0.4586  1.4513
   44CHL1   C11 4396   0.870   6.654   4.127 -0.2114  0.2005 -0.2449
   44CHL1  H11A 4397   0.800   6.740   4.141 -2.2895 -1.4493  0.0222
   44CHL1  H11B 4398   0.956   6.686   4.064  1.3407 -0.7576  1.3227
   44CHL1    C9 4399   0.776   6.546   4.054  0.5111  0.3355  0.1987
   44CHL1    H9 4400   0.847   6.461   4.045  1.6715  0.9867  2.4694
   44CHL1   C10 4401   0.737   6.589   3.906  0.0210  0.5038  0.7853
   44CHL1   C19 4402   0.666   6.725   3.902 -0.7972 -0.5107 -0.0909
   44CHL1  H19A 4403   0.644   6.760   3.799 -2.8400  1.2526  0.8723
   44CHL1  H19B 4404   0.582   6.725   3.974 -1.3388 -0.4365 -0.7167
   44CHL1  H19C 4405   0.735   6.799   3.948 -2.3357  0.6714  0.3805
   44CHL1    C1 4406   0.864   6.609   3.825 -0.2552 -0.0868  0.2186
   44CHL1   H1A 4407   0.924   6.689   3.873  0.0454 -1.0642  1.5513
   44CHL1   H1B 4408   0.930   6.521   3.839  0.2530 -0.0093 -1.4376
   44CHL1    C2 4409   0.845   6.617   3.675 -0.0250 -0.5090 -0.2453
   44CHL1   H2A 4410   0.937   6.636   3.616  0.2979  2.6372  1.0733
   44CHL1   H2B 4411   0.795   6.716   3.663  0.8571  0.1189  0.9895
   44CHL1   C20 4412   0.868   6.549   4.602  0.4010  0.4978  0.1010
   44CHL1   H20 4413   0.809   6.642   4.618 -1.9076 -1.1334  1.7373
   44CHL1   C21 4414   1.020   6.577   4.575  0.0840  0.5515 -0.2346
   44CHL1  H21A 4415   1.062   6.614   4.670  0.8564 -1.9156  0.4682
   44CHL1  H21B 4416   1.053   6.649   4.497 -0.2763  0.1453 -0.7771
   44CHL1  H21C 4417   1.081   6.486   4.555  0.1670  0.3290  0.9739
   44CHL1   C22 4418   0.857   6.463   4.730  0.5990  0.4006 -0.7903
   44CHL1  H22A 4419   0.864   6.528   4.820 -1.1932  1.3691 -1.3170
   44CHL1  H22B 4420   0.754   6.426   4.747 -0.9788  3.9254 -1.7965
   44CHL1   C23 4421   0.963   6.352   4.739  0.1211  0.0893 -0.0836
   44CHL1  H23A 4422   0.974   6.295   4.644  2.2452 -0.0746  0.2225
   44CHL1  H23B 4423   1.062   6.391   4.769 -0.5722  0.4664  1.8984
   44CHL1   C24 4424   0.943   6.257   4.859  0.3344  0.5497  0.3949
   44CHL1  H24A 4425   0.912   6.317   4.947 -2.2154 -1.3908  0.9547
   44CHL1  H24B 4426   0.850   6.199   4.840  1.5272 -1.3495  0.0708
   44CHL1   C25 4427   1.059   6.162   4.901  0.6278  0.5268  0.5202
   44CHL1   H25 4428   1.088   6.094   4.818  0.5923  1.5074 -0.3092
   44CHL1   C26 4429   1.171   6.245   4.956 -0.2227 -0.9445  0.1248
   44CHL1  H26A 4430   1.258   6.198   5.006  1.0640  2.4072  1.3293
   44CHL1  H26B 4431   1.228   6.298   4.877 -1.6882  0.0036 -0.3452
   44CHL1  H26C 4432   1.137   6.323   5.028  2.6414 -0.8819  1.5082
   44CHL1   C27 4433   1.025   6.066   5.020  0.1931 -0.3009 -0.3267
   44CHL1  H27A 4434   1.002   6.128   5.109 -0.1297  2.2995 -2.0953
   44CHL1  H27B 4435   0.936   6.006   4.992  0.3823 -0.5851 -0.3177
   44CHL1  H27C 4436   1.116   6.005   5.037  1.3959  1.8643  1.4814
   45CHL1    C3 4437   2.433   2.731   6.909 -0.0915  0.6896 -0.2238
   45CHL1    H3 4438   2.475   2.630   6.891 -1.3652  0.2509 -0.9097
   45CHL1    O3 4439   2.476   2.782   7.036  0.1695  0.5541  0.3621
   45CHL1   H3' 4440   2.426   2.725   7.096  0.6856  1.1250  1.3681
   45CHL1    C4 4441   2.483   2.832   6.800 -0.1036 -0.0236 -0.2490
   45CHL1   H4A 4442   2.442   2.931   6.829  1.2862  0.2055  1.0749
   45CHL1   H4B 4443   2.594   2.840   6.795 -0.0999 -0.9520 -2.7187
   45CHL1    C5 4444   2.424   2.799   6.662  0.0367  0.1218 -0.2744
   45CHL1    C6 4445   2.506   2.785   6.559 -0.1601  0.1680  0.5287
   45CHL1    H6 4446   2.616   2.791   6.562 -0.0948 -0.4540 -0.2996
   45CHL1    C7 4447   2.451   2.756   6.425 -0.9240 -0.0238  0.5726
   45CHL1   H7A 4448   2.492   2.838   6.362 -2.1017  0.9989  1.0854
   45CHL1   H7B 4449   2.481   2.656   6.388 -0.4466 -0.3961  1.8752
   45CHL1    C8 4450   2.305   2.773   6.406  0.6546  0.3606 -0.2800
   45CHL1    H8 4451   2.284   2.882   6.410  0.0121  0.2265  0.1465
   45CHL1   C14 4452   2.270   2.701   6.284  0.4812  0.6481  0.3300
   45CHL1   H14 4453   2.297   2.593   6.289 -0.6737  0.3536  0.4304
   45CHL1   C15 4454   2.340   2.740   6.153  0.0358 -0.6968  0.4174
   45CHL1  H15A 4455   2.350   2.851   6.150  1.3465 -0.7987 -1.8255
   45CHL1  H15B 4456   2.440   2.693   6.144  0.0573 -0.4030 -1.1759
   45CHL1   C16 4457   2.251   2.693   6.041 -0.2888 -0.4170  0.8618
   45CHL1  H16A 4458   2.230   2.774   5.968  1.4831  0.1415  0.9134
   45CHL1  H16B 4459   2.293   2.612   5.978 -0.3259  0.1387  0.1111
   45CHL1   C17 4460   2.114   2.654   6.105  0.6467  0.0022  0.2731
   45CHL1   H17 4461   2.104   2.545   6.123 -1.1345 -0.2359 -1.7307
   45CHL1   C13 4462   2.126   2.715   6.249  0.9650  0.4976  0.2819
   45CHL1   C18 4463   2.092   2.863   6.228 -0.4060 -0.0203 -0.4970
   45CHL1  H18A 4464   1.982   2.873   6.218 -0.3426 -0.2363 -1.5134
   45CHL1  H18B 4465   2.137   2.942   6.291  0.2689  1.2170 -2.4543
   45CHL1  H18C 4466   2.124   2.906   6.131 -0.6909  0.5685 -0.3339
   45CHL1   C12 4467   2.040   2.658   6.366  0.2534 -0.1063  0.9129
   45CHL1  H12A 4468   1.938   2.695   6.344  0.9647  0.9353 -0.8518
   45CHL1  H12B 4469   2.059   2.550   6.353 -0.5719 -0.5432  3.0301
   45CHL1   C11 4470   2.081   2.711   6.509  0.8140  0.1823 -0.1168
   45CHL1  H11A 4471   2.043   2.816   6.506 -1.1157 -0.4938 -1.8702
   45CHL1  H11B 4472   2.024   2.653   6.586  0.7806 -0.3666 -0.5510
   45CHL1    C9 4473   2.230   2.723   6.535  0.2762  0.6557 -0.0729
   45CHL1    H9 4474   2.260   2.616   6.544 -0.5053  0.3845 -0.5619
   45CHL1   C10 4475   2.270   2.791   6.667 -0.6490 -0.3190  0.4666
   45CHL1   C19 4476   2.206   2.937   6.676 -1.0500  0.5637  0.1736
   45CHL1  H19A 4477   2.249   3.004   6.754  0.4273  0.2380 -0.3262
   45CHL1  H19B 4478   2.229   3.001   6.588  1.2104 -1.5707 -0.9160
   45CHL1  H19C 4479   2.096   2.922   6.684 -0.8637 -1.3741 -0.4688
   45CHL1    C1 4480   2.227   2.694   6.788  0.1408  0.5993  0.0106
   45CHL1   H1A 4481   2.118   2.684   6.809  0.5466 -0.3307  1.8471
   45CHL1   H1B 4482   2.263   2.591   6.766 -1.1840 -0.1731  1.2787
   45CHL1    C2 4483   2.280   2.734   6.921 -0.4665 -0.3759  0.0884
   45CHL1   H2A 4484   2.241   2.656   6.991  0.1770 -0.0902  0.7805
   45CHL1   H2B 4485   2.240   2.830   6.961 -0.3033 -0.2981  0.0634
   45CHL1   C20 4486   1.988   2.690   6.021 -0.5165 -0.4989 -0.6348
   45CHL1   H20 4487   1.974   2.800   6.017  2.4227 -0.0698 -0.9892
   45CHL1   C21 4488   1.863   2.610   6.071  0.2221 -0.3820  0.3022
   45CHL1  H21A 4489   1.890   2.512   6.115 -0.6049 -1.3731 -1.3137
   45CHL1  H21B 4490   1.787   2.589   5.993 -1.3479  1.3688  1.2868
   45CHL1  H21C 4491   1.803   2.657   6.152  0.6956 -0.1431  0.5219
   45CHL1   C22 4492   2.007   2.653   5.878  0.4922  1.0347 -0.3759
   45CHL1  H22A 4493   1.926   2.689   5.811  0.7340  0.1896 -1.1579
   45CHL1  H22B 4494   2.095   2.691   5.821  0.3116 -2.6475 -3.5158
   45CHL1   C23 4495   2.021   2.498   5.852 -0.7782 -0.4309  0.2225
   45CHL1  H23A 4496   2.102   2.455   5.914 -1.4188  0.0474  1.4055
   45CHL1  H23B 4497   1.925   2.448   5.877 -0.9179  0.5159  1.6248
   45CHL1   C24 4498   2.042   2.478   5.703 -0.3843  0.2943 -0.5114
   45CHL1  H24A 4499   1.966   2.540   5.650 -0.4056  1.9788  1.3958
   45CHL1  H24B 4500   2.145   2.505   5.673 -0.2187 -1.7224 -1.9757
   45CHL1   C25 4501   2.015   2.331   5.661  0.1327  0.1200  0.1869
   45CHL1   H25 4502   1.917   2.302   5.704 -0.9282  1.5116 -1.1465
   45CHL1   C26 4503   2.008   2.316   5.505 -0.4940  0.9501  0.6411
   45CHL1  H26A 4504   1.930   2.377   5.454  0.8247  2.8065  0.7747
   45CHL1  H26B 4505   2.113   2.337   5.475  0.2867  0.0671  2.5702
   45CHL1  H26C 4506   2.000   2.210   5.471  1.2279  1.6244 -2.2653
   45CHL1   C27 4507   2.125   2.239   5.711  0.8276  0.1115 -1.7086
   45CHL1  H27A 4508   2.137   2.239   5.822  1.2129 -1.5563 -1.7171
   45CHL1  H27B 4509   2.100   2.131   5.695  0.0196 -0.2157  1.1834
   45CHL1  H27C 4510   2.229   2.258   5.677  1.7006  1.3989  1.3685
   46CHL1    C3 4511   6.666   3.014   3.819 -0.7448 -0.0008  0.6978
   46CHL1    H3 4512   6.561   2.983   3.837 -0.7126 -0.3080  0.3550
   46CHL1    O3 4513   6.681   3.048   3.679 -0.0202  0.7775  1.0341
   46CHL1   H3' 4514   6.651   2.971   3.631 -0.8600  2.9219 -2.1870
   46CHL1    C4 4515   6.699   3.144   3.900  0.0669  0.1983 -0.9626
   46CHL1   H4A 4516   6.792   3.179   3.851  0.7724 -3.0273 -2.2124
   46CHL1   H4B 4517   6.618   3.216   3.877 -1.6436 -1.2942  0.0772
   46CHL1    C5 4518   6.719   3.124   4.049 -0.4074  0.4624  0.5644
   46CHL1    C6 4519   6.650   3.194   4.135  0.1386 -0.1688 -1.3956
   46CHL1    H6 4520   6.580   3.274   4.106  1.2514  0.5262 -2.2475
   46CHL1    C7 4521   6.666   3.166   4.283  0.4224 -0.1437  0.7851
   46CHL1   H7A 4522   6.666   3.253   4.353 -0.9081  0.6185 -0.1000
   46CHL1   H7B 4523   6.574   3.111   4.313 -0.5336  1.1976  0.4575
   46CHL1    C8 4524   6.791   3.081   4.324 -0.1065 -0.5327 -0.3048
   46CHL1    H8 4525   6.881   3.146   4.322 -0.6354  0.2213  0.0687
   46CHL1   C14 4526   6.778   3.035   4.469 -0.5404  0.2973 -0.6478
   46CHL1   H14 4527   6.683   2.976   4.472 -0.6751  0.4977 -0.9213
   46CHL1   C15 4528   6.750   3.144   4.579  0.6167 -0.3646  0.2644
   46CHL1  H15A 4529   6.821   3.228   4.563 -0.0561 -0.2032 -2.5215
   46CHL1  H15B 4530   6.645   3.182   4.576  1.5874  2.5750  0.7530
   46CHL1   C16 4531   6.789   3.069   4.699  0.1437  0.1264  0.3425
   46CHL1  H16A 4532   6.876   3.115   4.751 -0.7180  0.5741  1.4263
   46CHL1  H16B 4533   6.710   3.056   4.775 -1.2794 -1.0676 -1.2632
   46CHL1   C17 4534   6.840   2.920   4.665  0.3181 -0.5439  0.1957
   46CHL1   H17 4535   6.752   2.853   4.653  2.1812 -2.9508 -0.8601
   46CHL1   C13 4536   6.889   2.939   4.518  0.3231  0.5131  0.0055
   46CHL1   C18 4537   7.024   3.015   4.516  0.6775  0.0621 -0.4770
   46CHL1  H18A 4538   7.019   3.107   4.578 -0.7308 -0.6930  0.5910
   46CHL1  H18B 4539   7.104   2.952   4.560  0.1338  1.4001  2.6952
   46CHL1  H18C 4540   7.054   3.047   4.415 -0.1572  0.8085 -0.4993
   46CHL1   C12 4541   6.883   2.815   4.426 -0.8876 -0.2055  0.2930
   46CHL1  H12A 4542   6.970   2.756   4.464 -0.1095  1.5639  1.3908
   46CHL1  H12B 4543   6.790   2.757   4.439 -0.6282 -0.9858 -1.1270
   46CHL1   C11 4544   6.912   2.858   4.284 -0.4389 -0.2945  0.0045
   46CHL1  H11A 4545   7.016   2.895   4.275 -0.3701 -0.4934 -0.0199
   46CHL1  H11B 4546   6.909   2.766   4.221  0.6827  0.5233 -1.2861
   46CHL1    C9 4547   6.807   2.960   4.235  0.1611 -0.4935 -0.1073
   46CHL1    H9 4548   6.712   2.905   4.250 -1.8731  2.7883  0.0007
   46CHL1   C10 4549   6.805   2.996   4.086 -0.3302  0.0207 -0.1246
   46CHL1   C19 4550   6.949   3.041   4.059 -0.7925  0.2033  0.2789
   46CHL1  H19A 4551   6.987   3.114   4.133  1.0668  0.7356 -1.1248
   46CHL1  H19B 4552   7.015   2.951   4.052 -1.2550 -0.0360 -1.6968
   46CHL1  H19C 4553   6.958   3.091   3.960 -2.0571  1.5682  0.8207
   46CHL1    C1 4554   6.755   2.870   3.999  0.3117  0.0944 -0.4395
   46CHL1   H1A 4555   6.830   2.789   4.013  3.5443  2.9613  0.4030
   46CHL1   H1B 4556   6.655   2.838   4.034 -0.2261  2.2962  0.2043
   46CHL1    C2 4557   6.749   2.892   3.851  0.5299  0.4242  0.2332
   46CHL1   H2A 4558   6.716   2.799   3.799 -0.7754  0.7563  0.4307
   46CHL1   H2B 4559   6.849   2.918   3.809 -0.5371  2.1022 -1.4385
   46CHL1   C20 4560   6.932   2.868   4.771  0.0781  0.0860 -0.1333
   46CHL1   H20 4561   7.026   2.927   4.786  0.2340 -0.0051 -0.7294
   46CHL1   C21 4562   6.997   2.738   4.728 -0.0253 -0.1769  0.3540
   46CHL1  H21A 4563   7.073   2.755   4.648  0.7898 -1.6146  0.7891
   46CHL1  H21B 4564   6.927   2.660   4.694  1.2049 -1.0822 -0.2050
   46CHL1  H21C 4565   7.055   2.693   4.811  0.3900 -1.1043 -0.4095
   46CHL1   C22 4566   6.864   2.843   4.910  0.9199  0.3892  0.3992
   46CHL1  H22A 4567   6.815   2.940   4.934  1.0693  0.7410 -0.6321
   46CHL1  H22B 4568   6.794   2.757   4.912  1.8610 -0.5761 -2.5077
   46CHL1   C23 4569   6.957   2.823   5.033 -0.1494  0.4139 -0.5493
   46CHL1  H23A 4570   7.005   2.724   5.013  1.9874  1.3206 -0.1765
   46CHL1  H23B 4571   7.033   2.903   5.024 -1.5251  1.9203  0.6421
   46CHL1   C24 4572   6.899   2.825   5.170 -0.2415  0.3034 -0.1754
   46CHL1  H24A 4573   6.993   2.817   5.229 -1.0096 -3.3130  0.8368
   46CHL1  H24B 4574   6.848   2.923   5.176  1.0052  0.9631 -0.1570
   46CHL1   C25 4575   6.798   2.709   5.211  0.2413 -0.5132 -0.5409
   46CHL1   H25 4576   6.725   2.691   5.130  0.6638  0.0567 -1.0640
   46CHL1   C26 4577   6.870   2.571   5.228 -0.6561 -0.1935  0.2993
   46CHL1  H26A 4578   6.803   2.488   5.259 -1.3811  0.2843  0.0394
   46CHL1  H26B 4579   6.916   2.530   5.135 -2.6898 -3.2723  0.4765
   46CHL1  H26C 4580   6.950   2.579   5.305  0.6942 -3.2599 -0.6218
   46CHL1   C27 4581   6.724   2.754   5.332 -0.5557  0.1571 -0.0018
   46CHL1  H27A 4582   6.665   2.668   5.371  0.3631  0.2748  1.7784
   46CHL1  H27B 4583   6.779   2.786   5.423 -2.1929  3.9395 -0.1679
   46CHL1  H27C 4584   6.658   2.840   5.309  1.2078  1.3571 -0.7583
   47CHL1    C3 4585   5.467   1.217   6.657 -0.0346  0.0001 -0.0927
   47CHL1    H3 4586   5.369   1.266   6.635  0.2031  1.0208  1.0163
   47CHL1    O3 4587   5.490   1.190   6.796 -0.2568  0.6706  0.1170
   47CHL1   H3' 4588   5.436   1.113   6.816  0.3362  0.0397 -0.6476
   47CHL1    C4 4589   5.466   1.078   6.590  0.3656 -0.1592  0.2382
   47CHL1   H4A 4590   5.565   1.032   6.610  0.6081 -0.6993 -2.0219
   47CHL1   H4B 4591   5.386   1.019   6.641 -0.0984 -0.8313 -1.2184
   47CHL1    C5 4592   5.445   1.078   6.445  0.0516 -0.6488  0.0892
   47CHL1    C6 4593   5.346   1.010   6.382  0.0469 -0.1863  0.0223
   47CHL1    H6 4594   5.292   0.932   6.438 -0.6204  0.0980 -0.2238
   47CHL1    C7 4595   5.318   1.020   6.234 -0.1672  0.2029 -0.2329
   47CHL1   H7A 4596   5.299   0.916   6.197  0.9507  0.3695 -1.3535
   47CHL1   H7B 4597   5.223   1.077   6.224 -0.4611  0.0352  1.3227
   47CHL1    C8 4598   5.433   1.087   6.147 -0.1968 -0.3251 -0.6415
   47CHL1    H8 4599   5.512   1.013   6.122 -0.7238 -1.0792 -0.1243
   47CHL1   C14 4600   5.379   1.144   6.019  1.5331  0.9296  0.3675
   47CHL1   H14 4601   5.302   1.218   6.048  0.8690  0.1145  0.7356
   47CHL1   C15 4602   5.302   1.044   5.925 -0.0822  0.4511  0.4830
   47CHL1  H15A 4603   5.363   0.951   5.921 -0.0393  0.1481  4.2335
   47CHL1  H15B 4604   5.201   1.012   5.960 -0.6880  0.7024 -0.9904
   47CHL1   C16 4605   5.290   1.109   5.788 -1.3304  0.1532  0.1345
   47CHL1  H16A 4606   5.331   1.038   5.714 -0.7088 -0.5922  1.1646
   47CHL1  H16B 4607   5.183   1.125   5.762 -1.4132  0.2224  0.5129
   47CHL1   C17 4608   5.384   1.236   5.801 -0.0280  0.0394  0.0197
   47CHL1   H17 4609   5.317   1.318   5.834  0.8714  0.6840  0.2959
   47CHL1   C13 4610   5.474   1.208   5.923  0.1052 -0.0695 -0.1716
   47CHL1   C18 4611   5.589   1.115   5.882 -0.0972 -0.1369  0.5500
   47CHL1  H18A 4612   5.552   1.022   5.834 -1.6298  0.8513 -0.2405
   47CHL1  H18B 4613   5.649   1.170   5.806  0.9540 -1.5053  0.3549
   47CHL1  H18C 4614   5.647   1.080   5.970  1.1592 -0.4746 -0.3780
   47CHL1   C12 4615   5.523   1.329   6.008 -0.5638  0.0607 -0.2732
   47CHL1  H12A 4616   5.593   1.389   5.945  2.5048 -2.0095  0.8803
   47CHL1  H12B 4617   5.442   1.395   6.044  0.2666  1.8198 -1.4788
   47CHL1   C11 4618   5.589   1.291   6.133 -0.5549  0.0970 -0.3881
   47CHL1  H11A 4619   5.679   1.234   6.103 -1.7948 -1.9151 -0.4420
   47CHL1  H11B 4620   5.615   1.386   6.185 -0.8149  0.1605 -0.3737
   47CHL1    C9 4621   5.490   1.212   6.223 -0.4949 -0.4823 -0.0241
   47CHL1    H9 4622   5.405   1.282   6.234 -0.4783 -0.3041 -0.9531
   47CHL1   C10 4623   5.535   1.180   6.370 -0.1797 -0.6818 -0.6485
   47CHL1   C19 4624   5.668   1.104   6.356 -0.1375 -0.5943  0.1131
   47CHL1  H19A 4625   5.749   1.165   6.311  0.1286 -1.0462 -0.0238
   47CHL1  H19B 4626   5.703   1.071   6.457 -1.7170  1.5622  1.4707
   47CHL1  H19C 4627   5.656   1.011   6.297 -1.4502 -0.2405 -0.2045
   47CHL1    C1 4628   5.551   1.310   6.448  0.2832  0.6443 -0.1028
   47CHL1   H1A 4629   5.633   1.375   6.410 -0.0876  0.9865 -0.3268
   47CHL1   H1B 4630   5.453   1.361   6.438 -0.5823 -0.9184  0.1601
   47CHL1    C2 4631   5.586   1.292   6.599  0.0533 -0.3128 -0.4778
   47CHL1   H2A 4632   5.607   1.389   6.649  1.5241  0.0347 -1.6773
   47CHL1   H2B 4633   5.676   1.226   6.605  1.0126  0.8097 -1.8893
   47CHL1   C20 4634   5.446   1.271   5.662  0.1119  0.2037  0.2967
   47CHL1   H20 4635   5.503   1.184   5.622  0.9606  0.2661  1.3392
   47CHL1   C21 4636   5.528   1.396   5.684 -0.2697 -0.6424 -0.0756
   47CHL1  H21A 4637   5.573   1.435   5.590  2.1152  0.1892  1.3215
   47CHL1  H21B 4638   5.613   1.373   5.752  0.6330 -0.7275 -1.2072
   47CHL1  H21C 4639   5.468   1.478   5.727 -1.0105 -1.6819  0.9313
   47CHL1   C22 4640   5.335   1.297   5.560  0.2632  0.3682  0.2725
   47CHL1  H22A 4641   5.256   1.220   5.573  1.6475 -1.0541  0.6536
   47CHL1  H22B 4642   5.285   1.390   5.594  0.9752 -0.1133  2.8903
   47CHL1   C23 4643   5.390   1.308   5.420 -0.3341 -0.4791  1.3008
   47CHL1  H23A 4644   5.371   1.413   5.390 -0.4712 -1.0357 -0.6780
   47CHL1  H23B 4645   5.499   1.287   5.407 -0.3239  0.0124  0.5580
   47CHL1   C24 4646   5.312   1.215   5.319  0.6351 -0.3022  0.2649
   47CHL1  H24A 4647   5.379   1.172   5.241 -0.2505  0.3664 -0.8809
   47CHL1  H24B 4648   5.276   1.132   5.383  0.9956 -1.3599 -0.8515
   47CHL1   C25 4649   5.193   1.294   5.257  0.0343 -0.0788 -0.0695
   47CHL1   H25 4650   5.144   1.348   5.341 -1.1546  0.5351 -1.1233
   47CHL1   C26 4651   5.237   1.392   5.147 -0.4479 -0.2952  0.3323
   47CHL1  H26A 4652   5.257   1.332   5.056 -0.2012 -0.2653  0.3671
   47CHL1  H26B 4653   5.157   1.468   5.137 -0.6993 -0.6525 -0.3885
   47CHL1  H26C 4654   5.332   1.447   5.166  0.0087  0.4347 -3.3820
   47CHL1   C27 4655   5.091   1.196   5.206 -0.0673  0.0012 -0.4196
   47CHL1  H27A 4656   5.123   1.135   5.119 -3.4684  0.3889 -2.1102
   47CHL1  H27B 4657   5.056   1.128   5.287 -0.2524 -2.1521 -2.2206
   47CHL1  H27C 4658   4.998   1.237   5.159 -0.2580 -0.8719 -0.8183
   48CHL1    C3 4659   6.635   0.453   6.673  0.7682  0.3088 -0.4145
   48CHL1    H3 4660   6.644   0.343   6.659  1.2988  0.6008 -2.7816
   48CHL1    O3 4661   6.656   0.491   6.808 -0.4550 -0.7963  0.2244
   48CHL1   H3' 4662   6.740   0.451   6.832  1.3669  2.6489  0.1309
   48CHL1    C4 4663   6.740   0.523   6.583  0.1417  0.3722  0.3971
   48CHL1   H4A 4664   6.746   0.629   6.614 -0.7916  1.5131 -2.9031
   48CHL1   H4B 4665   6.842   0.480   6.596  1.1921  1.8671 -2.0225
   48CHL1    C5 4666   6.707   0.505   6.437  0.3175  0.1753  0.0533
   48CHL1    C6 4667   6.794   0.455   6.347 -0.5551 -0.4737  0.3964
   48CHL1    H6 4668   6.896   0.445   6.386 -0.7811  1.9898  1.8259
   48CHL1    C7 4669   6.773   0.451   6.199  0.3721  0.6063 -0.6818
   48CHL1   H7A 4670   6.862   0.498   6.152  0.2695  2.3226  0.7277
   48CHL1   H7B 4671   6.747   0.348   6.167 -2.6918  1.1507 -0.2707
   48CHL1    C8 4672   6.644   0.540   6.160  0.4633  0.7196 -0.0608
   48CHL1    H8 4673   6.673   0.647   6.168  1.1939  0.5990 -0.8526
   48CHL1   C14 4674   6.603   0.499   6.016  0.1107  0.2420  0.1429
   48CHL1   H14 4675   6.582   0.390   6.021  0.8199  0.0528 -0.7883
   48CHL1   C15 4676   6.713   0.508   5.914 -0.3797 -0.2801 -0.6370
   48CHL1  H15A 4677   6.777   0.595   5.940 -2.6194  1.0172  0.9173
   48CHL1  H15B 4678   6.778   0.418   5.915  2.4367  1.6213 -0.2431
   48CHL1   C16 4679   6.644   0.527   5.778 -0.2241 -0.1559 -0.7378
   48CHL1  H16A 4680   6.678   0.621   5.729 -0.7252 -0.3535 -1.4939
   48CHL1  H16B 4681   6.664   0.443   5.709  1.4827 -0.2096 -0.2179
   48CHL1   C17 4682   6.492   0.547   5.809  0.7116  0.1018  0.0085
   48CHL1   H17 4683   6.449   0.446   5.798 -0.6266  0.1580  3.4954
   48CHL1   C13 4684   6.485   0.574   5.959 -0.5889  0.2957 -0.2535
   48CHL1   C18 4685   6.519   0.727   5.973 -0.2838 -0.2539 -0.2214
   48CHL1  H18A 4686   6.424   0.781   5.954  0.1438  0.6100  0.0641
   48CHL1  H18B 4687   6.545   0.757   6.076 -1.0260 -1.8507  0.4698
   48CHL1  H18C 4688   6.603   0.757   5.907  0.2334  3.5961  1.9141
   48CHL1   C12 4689   6.367   0.535   6.045 -0.1051 -0.7693  0.2262
   48CHL1  H12A 4690   6.280   0.598   6.016  0.7062 -0.3637 -1.5020
   48CHL1  H12B 4691   6.326   0.433   6.028  0.5281 -0.8065 -1.2083
   48CHL1   C11 4692   6.391   0.573   6.197 -0.4715  0.2946 -0.4298
   48CHL1  H11A 4693   6.389   0.683   6.211 -0.8756  0.0764  1.4594
   48CHL1  H11B 4694   6.305   0.537   6.256  1.4049 -2.5099  0.8480
   48CHL1    C9 4695   6.526   0.508   6.249  0.0254 -0.2548  0.2735
   48CHL1    H9 4696   6.513   0.399   6.233  0.3127  0.1641 -3.7667
   48CHL1   C10 4697   6.562   0.540   6.401  0.7962 -0.0166  0.5742
   48CHL1   C19 4698   6.539   0.687   6.422  1.0174  0.2696  0.1350
   48CHL1  H19A 4699   6.584   0.748   6.340  2.1114 -2.9490 -1.8667
   48CHL1  H19B 4700   6.430   0.703   6.436  0.9364 -0.6930  0.6491
   48CHL1  H19C 4701   6.582   0.732   6.514 -1.8096  2.3695  0.5761
   48CHL1    C1 4702   6.460   0.467   6.489 -0.6344  0.1720 -0.1636
   48CHL1   H1A 4703   6.355   0.505   6.489 -0.8673 -0.4021  0.9492
   48CHL1   H1B 4704   6.461   0.358   6.469 -1.6145 -0.4358  2.5848
   48CHL1    C2 4705   6.487   0.496   6.636  0.2514  0.1452 -0.6836
   48CHL1   H2A 4706   6.430   0.426   6.702 -0.0265  3.0753  2.4844
   48CHL1   H2B 4707   6.481   0.599   6.676  0.1356 -0.3547  0.6600
   48CHL1   C20 4708   6.422   0.642   5.708 -0.1122  0.6590  0.6046
   48CHL1   H20 4709   6.446   0.749   5.727  1.1037  0.7119 -0.9722
   48CHL1   C21 4710   6.274   0.614   5.722 -0.0883 -0.4997  0.0257
   48CHL1  H21A 4711   6.229   0.651   5.817 -1.0538  1.9364 -1.3000
   48CHL1  H21B 4712   6.216   0.668   5.645 -1.9872  0.1180  1.8081
   48CHL1  H21C 4713   6.249   0.505   5.720 -0.0741 -0.5678  1.8997
   48CHL1   C22 4714   6.453   0.615   5.557 -0.0025 -0.0845  0.6195
   48CHL1  H22A 4715   6.560   0.589   5.547  0.0098  0.4985 -0.9503
   48CHL1  H22B 4716   6.380   0.539   5.523 -0.6913  1.1405 -0.7678
   48CHL1   C23 4717   6.431   0.736   5.462  0.3503  0.7476  0.0702
   48CHL1  H23A 4718   6.324   0.763   5.448 -0.1951 -0.3136  1.8627
   48CHL1  H23B 4719   6.474   0.827   5.509  0.4692  0.5469  0.3508
   48CHL1   C24 4720   6.477   0.714   5.319  0.1932 -0.2625 -0.3768
   48CHL1  H24A 4721   6.588   0.704   5.320  0.2459 -0.1679 -1.9640
   48CHL1  H24B 4722   6.426   0.619   5.290 -2.0217  0.8300 -0.2284
   48CHL1   C25 4723   6.446   0.831   5.222 -0.8359  0.6485 -0.4953
   48CHL1   H25 4724   6.485   0.930   5.257  1.2310 -0.5060  0.6700
   48CHL1   C26 4725   6.532   0.802   5.097 -0.4820 -0.0619 -0.3655
   48CHL1  H26A 4726   6.506   0.707   5.047  1.0301 -1.2313  0.9489
   48CHL1  H26B 4727   6.515   0.887   5.027  0.9471 -1.4440 -2.5128
   48CHL1  H26C 4728   6.642   0.796   5.116 -0.9761  0.1377  3.3503
   48CHL1   C27 4729   6.298   0.838   5.184  0.5922  0.4299  0.0143
   48CHL1  H27A 4730   6.281   0.942   5.148  0.1107  0.8690  1.4477
   48CHL1  H27B 4731   6.259   0.760   5.116  0.7478  0.4314 -0.0780
   48CHL1  H27C 4732   6.247   0.841   5.282  2.8001  0.9915  1.2151
   49CHL1    C3 4733   3.984   2.423   3.771 -0.0550 -0.3942 -0.0450
   49CHL1    H3 4734   3.883   2.395   3.735 -1.1071  0.5498  2.0013
   49CHL1    O3 4735   4.082   2.450   3.668  0.1600 -0.3888  0.1689
   49CHL1   H3' 4736   4.024   2.504   3.614 -1.6310 -0.3722  1.9579
   49CHL1    C4 4737   3.954   2.553   3.844 -0.0943  0.2098 -0.3631
   49CHL1   H4A 4738   4.052   2.588   3.883 -0.3659  0.5399  0.0349
   49CHL1   H4B 4739   3.909   2.629   3.778 -0.0243  1.2345  0.7341
   49CHL1    C5 4740   3.869   2.537   3.967  0.0120  0.3980 -0.7903
   49CHL1    C6 4741   3.750   2.600   3.976 -0.3296 -0.5347  0.1852
   49CHL1    H6 4742   3.720   2.681   3.907  1.7565  0.9379  0.9150
   49CHL1    C7 4743   3.653   2.579   4.093 -0.0334 -0.3067  0.1608
   49CHL1   H7A 4744   3.606   2.677   4.116  2.1535  1.0732 -0.8673
   49CHL1   H7B 4745   3.568   2.511   4.073 -0.6850 -0.0526  1.8894
   49CHL1    C8 4746   3.729   2.514   4.212  0.2023 -0.0940  0.1862
   49CHL1    H8 4747   3.802   2.586   4.256 -2.1594  1.8850  1.1508
   49CHL1   C14 4748   3.630   2.489   4.325 -0.4781 -0.2959  0.8136
   49CHL1   H14 4749   3.546   2.429   4.284  0.9829 -1.1482 -1.0725
   49CHL1   C15 4750   3.552   2.610   4.373 -0.0351 -0.8715 -0.1872
   49CHL1  H15A 4751   3.622   2.692   4.400  2.1251 -1.5429 -3.2506
   49CHL1  H15B 4752   3.484   2.653   4.297  0.1520  1.6253  0.9695
   49CHL1   C16 4753   3.473   2.547   4.490 -0.9770  0.3721  0.1663
   49CHL1  H16A 4754   3.477   2.612   4.580 -1.1520  0.6800 -0.0502
   49CHL1  H16B 4755   3.366   2.529   4.465 -0.6903  0.1950 -1.0148
   49CHL1   C17 4756   3.543   2.410   4.529 -0.0882  0.2231 -0.2181
   49CHL1   H17 4757   3.475   2.332   4.487 -0.2847  0.7651 -0.9413
   49CHL1   C13 4758   3.668   2.410   4.450 -0.6585 -0.3746  0.6206
   49CHL1   C18 4759   3.768   2.504   4.518  0.1131  0.1030  0.0638
   49CHL1  H18A 4760   3.729   2.599   4.561  0.1269 -1.1033  3.0289
   49CHL1  H18B 4761   3.823   2.456   4.602 -0.3418  1.9422  1.4886
   49CHL1  H18C 4762   3.837   2.539   4.439 -2.4865  1.4860 -1.7368
   49CHL1   C12 4763   3.732   2.279   4.401  0.1748  0.0174 -0.2617
   49CHL1  H12A 4764   3.788   2.222   4.479  3.2392  1.5228 -1.2291
   49CHL1  H12B 4765   3.651   2.208   4.373  0.3382 -0.7068  0.9812
   49CHL1   C11 4766   3.834   2.301   4.288 -0.2132 -0.0295  0.5005
   49CHL1  H11A 4767   3.924   2.332   4.345  1.9674 -4.7131  0.0853
   49CHL1  H11B 4768   3.862   2.197   4.260  1.6661  0.6950 -0.5049
   49CHL1    C9 4769   3.795   2.393   4.166  0.1396 -0.7707 -0.1330
   49CHL1    H9 4770   3.720   2.330   4.113 -1.0095  0.4031  0.0447
   49CHL1   C10 4771   3.916   2.423   4.061 -0.1770 -0.6216 -0.0256
   49CHL1   C19 4772   4.045   2.488   4.130 -0.0616 -0.2386  1.0487
   49CHL1  H19A 4773   4.125   2.503   4.054  0.7059 -2.8447  1.2198
   49CHL1  H19B 4774   4.027   2.580   4.189 -0.1829  1.3845 -1.3848
   49CHL1  H19C 4775   4.091   2.415   4.200  1.8362  0.5670  0.7089
   49CHL1    C1 4776   3.954   2.292   3.992  0.3120  0.2485  0.3961
   49CHL1   H1A 4777   4.000   2.221   4.064 -3.1997 -1.4079  1.2581
   49CHL1   H1B 4778   3.861   2.240   3.960 -0.3355  0.9406  1.1071
   49CHL1    C2 4779   4.032   2.309   3.857 -0.3541  0.4206 -0.0739
   49CHL1   H2A 4780   4.025   2.217   3.796 -0.4793  0.4996 -0.1797
   49CHL1   H2B 4781   4.139   2.326   3.880 -0.6146  1.1831  0.6194
   49CHL1   C20 4782   3.542   2.380   4.678 -0.2169  0.0514  0.5192
   49CHL1   H20 4783   3.610   2.451   4.729  0.1343  0.4430 -0.4850
   49CHL1   C21 4784   3.594   2.233   4.692  0.0608  0.1209 -1.0483
   49CHL1  H21A 4785   3.526   2.159   4.644 -1.5329  0.1512  0.9946
   49CHL1  H21B 4786   3.596   2.192   4.795  1.0636 -0.0117 -1.1108
   49CHL1  H21C 4787   3.691   2.224   4.638  0.7289 -0.4582  0.2006
   49CHL1   C22 4788   3.392   2.393   4.729 -0.6338 -0.1823 -0.2030
   49CHL1  H22A 4789   3.358   2.499   4.725  0.2966  0.0839 -2.1375
   49CHL1  H22B 4790   3.319   2.328   4.676  0.0848 -0.4014 -0.9455
   49CHL1   C23 4791   3.385   2.363   4.877  0.2151  0.0583 -0.3023
   49CHL1  H23A 4792   3.281   2.332   4.899  0.7599 -1.0668  0.8659
   49CHL1  H23B 4793   3.453   2.278   4.901 -0.2000 -0.3303 -0.4806
   49CHL1   C24 4794   3.435   2.464   4.978  0.1196  0.4197 -0.3345
   49CHL1  H24A 4795   3.541   2.492   4.959 -0.5559  2.7201 -0.9868
   49CHL1  H24B 4796   3.374   2.556   4.976 -0.2390  0.2637  1.6687
   49CHL1   C25 4797   3.441   2.412   5.117  0.5036 -0.3886  0.8916
   49CHL1   H25 4798   3.522   2.337   5.126 -0.0483 -1.2321 -0.8587
   49CHL1   C26 4799   3.478   2.535   5.210  0.4389  0.4546  0.9176
   49CHL1  H26A 4800   3.570   2.582   5.170  0.3767 -0.0496  0.1632
   49CHL1  H26B 4801   3.394   2.608   5.205 -1.1278 -1.3143  0.2897
   49CHL1  H26C 4802   3.497   2.507   5.316 -0.9895 -1.0123  0.8179
   49CHL1   C27 4803   3.319   2.340   5.174 -0.3675 -0.5846  0.3344
   49CHL1  H27A 4804   3.282   2.258   5.109 -1.8701 -0.9065  1.5405
   49CHL1  H27B 4805   3.336   2.298   5.276  1.2737  0.9477  0.7414
   49CHL1  H27C 4806   3.232   2.408   5.185 -1.2543 -1.7904  0.9512
   50CHL1    C3 4807   3.819   4.650   3.739  0.2818  0.2194  0.5417
   50CHL1    H3 4808   3.870   4.749   3.741 -0.8608  0.8633 -0.6104
   50CHL1    O3 4809   3.851   4.594   3.608 -0.0415  0.0679  0.0688
   50CHL1   H3' 4810   3.824   4.503   3.607 -0.5122  0.2130 -0.5030
   50CHL1    C4 4811   3.874   4.564   3.846 -0.1441  0.3476  0.5467
   50CHL1   H4A 4812   3.833   4.462   3.830  1.4427 -0.1115 -0.8961
   50CHL1   H4B 4813   3.985   4.556   3.845  0.0717  2.3570  2.0050
   50CHL1    C5 4814   3.823   4.614   3.984  0.1981  0.0588  0.3044
   50CHL1    C6 4815   3.904   4.632   4.089  0.1576 -0.2218  0.4888
   50CHL1    H6 4816   4.005   4.597   4.066 -0.1203  0.6391 -2.4905
   50CHL1    C7 4817   3.865   4.680   4.228  0.1560  1.3949 -0.1142
   50CHL1   H7A 4818   3.922   4.622   4.305  0.1284  0.6809 -0.6215
   50CHL1   H7B 4819   3.905   4.783   4.240  2.3143  0.4941  1.1110
   50CHL1    C8 4820   3.711   4.660   4.256 -0.1186 -0.3619 -0.5387
   50CHL1    H8 4821   3.695   4.550   4.265  0.8125 -0.7607 -2.8440
   50CHL1   C14 4822   3.670   4.725   4.381  0.1595  0.2036 -0.8864
   50CHL1   H14 4823   3.685   4.830   4.346 -0.0516  1.0696  1.3869
   50CHL1   C15 4824   3.759   4.714   4.507  0.1085 -0.3312 -0.2706
   50CHL1  H15A 4825   3.776   4.606   4.529 -0.9194 -0.9934 -2.5296
   50CHL1  H15B 4826   3.860   4.760   4.510 -0.0160 -0.0287  2.4137
   50CHL1   C16 4827   3.666   4.788   4.613 -0.3519  0.1249 -0.2507
   50CHL1  H16A 4828   3.658   4.721   4.702 -0.6596  1.9375  1.1439
   50CHL1  H16B 4829   3.710   4.886   4.640 -0.4462  0.0554  0.1620
   50CHL1   C17 4830   3.527   4.799   4.544 -0.6332  0.0885  0.1168
   50CHL1   H17 4831   3.524   4.902   4.503  2.5566 -0.3417 -1.5421
   50CHL1   C13 4832   3.528   4.709   4.414  0.4939 -0.1445 -0.1599
   50CHL1   C18 4833   3.493   4.559   4.451 -0.5363  0.1515  0.2098
   50CHL1  H18A 4834   3.388   4.547   4.485 -0.2259  0.2457  1.2644
   50CHL1  H18B 4835   3.520   4.487   4.371  4.3157  0.8642  0.8890
   50CHL1  H18C 4836   3.562   4.526   4.533  1.4130 -3.6831 -2.6526
   50CHL1   C12 4837   3.440   4.758   4.297 -0.1297 -0.4108 -0.2272
   50CHL1  H12A 4838   3.333   4.730   4.314 -0.9015  2.5510  0.3705
   50CHL1  H12B 4839   3.436   4.869   4.300 -0.1375 -0.3999 -0.5704
   50CHL1   C11 4840   3.476   4.697   4.158 -0.4881 -0.0804 -0.1840
   50CHL1  H11A 4841   3.448   4.592   4.178  1.2315 -0.5383 -0.0942
   50CHL1  H11B 4842   3.417   4.740   4.073 -0.4830  0.0660 -0.1143
   50CHL1    C9 4843   3.630   4.704   4.131  0.5418  0.5609  0.4035
   50CHL1    H9 4844   3.648   4.811   4.107 -0.4631  1.1645  2.2024
   50CHL1   C10 4845   3.668   4.630   3.995  0.1549 -0.6240 -0.1706
   50CHL1   C19 4846   3.602   4.494   3.993 -0.4813 -0.0031 -0.2873
   50CHL1  H19A 4847   3.491   4.494   3.983 -0.5688  1.1860  0.4506
   50CHL1  H19B 4848   3.640   4.429   3.911  0.7566  0.2618  0.0566
   50CHL1  H19C 4849   3.615   4.425   4.079  1.0784  0.5376 -0.0640
   50CHL1    C1 4850   3.629   4.713   3.870  0.3789 -1.3182 -0.0990
   50CHL1   H1A 4851   3.521   4.737   3.863  1.0096  1.3147 -2.4776
   50CHL1   H1B 4852   3.679   4.811   3.886  0.8214 -1.2042 -1.9683
   50CHL1    C2 4853   3.670   4.664   3.736  0.4491  0.9575  0.1355
   50CHL1   H2A 4854   3.653   4.742   3.658 -0.5892  0.8019  0.1939
   50CHL1   H2B 4855   3.621   4.567   3.715 -0.4858  1.7039 -1.3165
   50CHL1   C20 4856   3.411   4.780   4.646 -0.3729 -0.3011 -0.2298
   50CHL1   H20 4857   3.429   4.693   4.713  1.5359  0.1518 -0.1093
   50CHL1   C21 4858   3.265   4.785   4.593 -0.2957 -0.0006  0.5102
   50CHL1  H21A 4859   3.183   4.758   4.664 -1.3085 -0.4125 -0.7744
   50CHL1  H21B 4860   3.253   4.723   4.502  1.5743  0.8177 -0.3152
   50CHL1  H21C 4861   3.244   4.889   4.559 -0.4654  0.8167  2.8766
   50CHL1   C22 4862   3.417   4.898   4.744 -0.5110  0.4009 -0.6434
   50CHL1  H22A 4863   3.524   4.909   4.771 -0.2633 -1.1425 -0.9055
   50CHL1  H22B 4864   3.398   4.992   4.687 -0.7350  0.5094 -0.3923
   50CHL1   C23 4865   3.335   4.893   4.874 -1.0202  0.1746 -0.3270
   50CHL1  H23A 4866   3.224   4.891   4.863 -1.1861  3.6643 -0.3191
   50CHL1  H23B 4867   3.361   4.794   4.916  1.6370 -0.3522 -2.8974
   50CHL1   C24 4868   3.381   5.005   4.968  1.0618  0.7397 -0.7647
   50CHL1  H24A 4869   3.492   4.999   4.972  1.2427  1.0385 -3.4562
   50CHL1  H24B 4870   3.361   5.094   4.905 -0.3832  0.0004 -1.4031
   50CHL1   C25 4871   3.299   5.014   5.098 -0.2065 -0.1049  0.4603
   50CHL1   H25 4872   3.197   5.051   5.073 -0.8847 -0.6143  2.2883
   50CHL1   C26 4873   3.291   4.886   5.190 -0.9838  0.1030  0.7915
   50CHL1  H26A 4874   3.381   4.865   5.252 -0.9292 -1.5003  0.2300
   50CHL1  H26B 4875   3.207   4.915   5.256 -2.0597  1.3474 -1.0456
   50CHL1  H26C 4876   3.271   4.792   5.133  4.0177 -0.3266 -0.7519
   50CHL1   C27 4877   3.353   5.129   5.185  0.0122 -0.5751  0.9321
   50CHL1  H27A 4878   3.327   5.228   5.142  1.4778  0.8891  3.2257
   50CHL1  H27B 4879   3.313   5.123   5.288 -0.4413 -1.4628  0.7211
   50CHL1  H27C 4880   3.464   5.129   5.189  0.1201 -1.3127 -0.8651
   51CHL1    C3 4881   5.695   5.865   3.556 -0.4533 -0.4193  0.2405
   51CHL1    H3 4882   5.759   5.776   3.537 -0.3861 -0.4033  0.3870
   51CHL1    O3 4883   5.674   5.919   3.426  0.4825 -0.5069 -0.2237
   51CHL1   H3' 4884   5.614   5.869   3.370 -2.2550  1.0401  1.0910
   51CHL1    C4 4885   5.562   5.816   3.615  0.1084 -0.3914 -0.0839
   51CHL1   H4A 4886   5.488   5.899   3.603  0.0558 -0.3790  0.3228
   51CHL1   H4B 4887   5.524   5.741   3.543 -0.7620 -0.9141  0.8843
   51CHL1    C5 4888   5.581   5.756   3.748  0.1509  0.6434  0.1788
   51CHL1    C6 4889   5.537   5.639   3.786 -0.4398  0.3611  0.2709
   51CHL1    H6 4890   5.485   5.574   3.714 -3.3191  1.2754  1.3534
   51CHL1    C7 4891   5.543   5.583   3.924 -0.4259 -0.0580 -0.1258
   51CHL1   H7A 4892   5.449   5.527   3.941 -1.4365  1.1574 -1.4408
   51CHL1   H7B 4893   5.609   5.494   3.931 -1.8470 -1.1416  0.0682
   51CHL1    C8 4894   5.562   5.688   4.031  0.4188  0.2704 -0.8497
   51CHL1    H8 4895   5.474   5.751   4.055 -0.2293 -1.5453  2.0033
   51CHL1   C14 4896   5.600   5.620   4.166 -0.0749 -0.0629 -0.1261
   51CHL1   H14 4897   5.698   5.568   4.165  0.6822  1.2021  1.9114
   51CHL1   C15 4898   5.498   5.530   4.225 -0.9168 -0.3332 -0.3215
   51CHL1  H15A 4899   5.392   5.561   4.206 -1.3930 -1.8633 -0.2902
   51CHL1  H15B 4900   5.500   5.425   4.188 -2.4083  0.4785 -3.0384
   51CHL1   C16 4901   5.531   5.530   4.381  0.4451 -0.0214  0.3716
   51CHL1  H16A 4902   5.439   5.557   4.438 -0.3613  0.8170 -1.2530
   51CHL1  H16B 4903   5.568   5.430   4.413  1.4892  0.1232 -0.3544
   51CHL1   C17 4904   5.639   5.635   4.403 -0.2048 -0.1058  0.2228
   51CHL1   H17 4905   5.729   5.573   4.382 -1.0739 -1.0355 -0.8849
   51CHL1   C13 4906   5.627   5.728   4.278  0.0431  0.3258  0.4290
   51CHL1   C18 4907   5.509   5.824   4.307  0.2005  0.2280 -0.1876
   51CHL1  H18A 4908   5.555   5.908   4.363  0.2228 -1.6825  2.9101
   51CHL1  H18B 4909   5.462   5.871   4.218 -1.3268  0.6839  0.8049
   51CHL1  H18C 4910   5.422   5.799   4.372 -1.0052  4.1748 -0.0043
   51CHL1   C12 4911   5.752   5.797   4.236  0.4066 -0.1284  0.0621
   51CHL1  H12A 4912   5.788   5.876   4.306  0.5501 -2.1753  2.4564
   51CHL1  H12B 4913   5.829   5.720   4.214  1.7595  1.6784 -2.0212
   51CHL1   C11 4914   5.731   5.871   4.100 -0.1280  0.0689  0.2204
   51CHL1  H11A 4915   5.666   5.960   4.120  1.2377  1.1413  0.0055
   51CHL1  H11B 4916   5.824   5.917   4.062  0.3054 -1.4524 -0.6355
   51CHL1    C9 4917   5.680   5.775   3.990  0.7271  0.2342  0.5126
   51CHL1    H9 4918   5.761   5.711   3.948 -0.4152  0.9715 -3.1336
   51CHL1   C10 4919   5.647   5.850   3.852  0.1997  0.1782  0.9777
   51CHL1   C19 4920   5.553   5.965   3.880 -0.1730  0.1866  0.3652
   51CHL1  H19A 4921   5.462   5.927   3.932 -0.2802 -0.5161 -0.3115
   51CHL1  H19B 4922   5.598   6.044   3.944  0.5159  0.4386 -0.4139
   51CHL1  H19C 4923   5.517   6.013   3.786 -0.8300 -1.2009 -0.1137
   51CHL1    C1 4924   5.781   5.910   3.793 -0.1659 -0.0771  0.5647
   51CHL1   H1A 4925   5.808   5.997   3.857 -2.4943  2.0810 -1.1499
   51CHL1   H1B 4926   5.860   5.832   3.798  0.6870  0.7799  0.7475
   51CHL1    C2 4927   5.770   5.969   3.649  0.2177 -0.6166  0.0513
   51CHL1   H2A 4928   5.863   6.007   3.602  0.8234 -2.3495 -0.2017
   51CHL1   H2B 4929   5.706   6.060   3.653 -0.1649 -0.8978  0.4202
   51CHL1   C20 4930   5.641   5.706   4.541  0.0226 -0.0791 -0.0541
   51CHL1   H20 4931   5.553   5.773   4.551 -0.9158 -1.2673 -0.0993
   51CHL1   C21 4932   5.775   5.786   4.564  0.4103 -0.8430  0.2858
   51CHL1  H21A 4933   5.749   5.885   4.519 -1.3354 -1.0680  0.7532
   51CHL1  H21B 4934   5.871   5.764   4.511  0.1077 -2.5883  0.4217
   51CHL1  H21C 4935   5.789   5.806   4.672 -0.8847  1.3205  0.1022
   51CHL1   C22 4936   5.621   5.597   4.656  0.4010  0.0922  0.5184
   51CHL1  H22A 4937   5.623   5.647   4.755 -1.2417  0.3511  0.4567
   51CHL1  H22B 4938   5.523   5.546   4.638  0.4518 -0.4303  1.6492
   51CHL1   C23 4939   5.728   5.499   4.657 -0.9597  0.3982 -0.2287
   51CHL1  H23A 4940   5.725   5.444   4.560 -0.0244  1.1683 -0.6981
   51CHL1  H23B 4941   5.830   5.539   4.670  0.4231 -2.4743 -1.3573
   51CHL1   C24 4942   5.703   5.389   4.766  0.1177 -1.0580 -0.0349
   51CHL1  H24A 4943   5.705   5.464   4.849  1.2467  0.4227 -1.3492
   51CHL1  H24B 4944   5.601   5.345   4.758 -0.3813  0.2096 -1.0932
   51CHL1   C25 4945   5.815   5.283   4.793  0.6130 -0.6548  0.2206
   51CHL1   H25 4946   5.911   5.339   4.802  1.1395 -1.3511 -0.8688
   51CHL1   C26 4947   5.773   5.206   4.919 -0.1433  0.5941 -0.0019
   51CHL1  H26A 4948   5.667   5.177   4.898 -0.2047  1.2037 -0.5835
   51CHL1  H26B 4949   5.829   5.110   4.928 -0.3705  0.4075 -0.4985
   51CHL1  H26C 4950   5.793   5.266   5.010 -1.2062  1.8434 -0.5581
   51CHL1   C27 4951   5.832   5.187   4.677  0.3556 -0.1796 -0.0693
   51CHL1  H27A 4952   5.910   5.117   4.712  0.4243 -1.0959 -1.8930
   51CHL1  H27B 4953   5.735   5.135   4.663  1.7358 -2.9317 -0.1480
   51CHL1  H27C 4954   5.852   5.229   4.576 -0.7134  2.2649  0.6530
   52CHL1    C3 4955   3.903   1.267   3.679  0.6685 -0.0324 -0.1280
   52CHL1    H3 4956   3.961   1.334   3.746 -1.4229  1.1894  0.5644
   52CHL1    O3 4957   3.926   1.302   3.541  0.1927  0.5212 -0.4095
   52CHL1   H3' 4958   4.022   1.301   3.532  0.4053  1.7797  1.1865
   52CHL1    C4 4959   3.933   1.117   3.695 -0.0041 -0.4832 -1.1253
   52CHL1   H4A 4960   3.868   1.067   3.620  0.8179 -0.1763 -2.0717
   52CHL1   H4B 4961   4.039   1.098   3.665  0.9755  1.6166  0.7626
   52CHL1    C5 4962   3.914   1.071   3.839 -0.8447 -0.0113 -0.1121
   52CHL1    C6 4963   4.020   1.021   3.915 -0.2074 -0.1194 -0.0188
   52CHL1    H6 4964   4.116   1.014   3.862 -0.2295 -0.1803 -0.0511
   52CHL1    C7 4965   4.011   0.995   4.061  0.1181  0.3589  0.3357
   52CHL1   H7A 4966   4.062   0.899   4.083  1.0726  0.1779 -2.3274
   52CHL1   H7B 4967   4.074   1.068   4.115 -0.8710  0.7083  1.0555
   52CHL1    C8 4968   3.863   0.989   4.114 -0.5380 -0.3358 -0.7565
   52CHL1    H8 4969   3.826   0.887   4.090 -1.6641  0.5524 -3.0969
   52CHL1   C14 4970   3.851   1.015   4.266  0.3105 -0.3053 -0.6775
   52CHL1   H14 4971   3.868   1.124   4.279 -1.4756 -0.1891  1.1525
   52CHL1   C15 4972   3.951   0.949   4.362 -0.1490 -0.0653 -0.6642
   52CHL1  H15A 4973   3.981   0.842   4.357  0.1553 -0.2084  2.1862
   52CHL1  H15B 4974   4.051   0.997   4.351  0.4723 -1.3585 -0.8534
   52CHL1   C16 4975   3.895   0.982   4.499  0.0321  0.4086 -0.4165
   52CHL1  H16A 4976   3.876   0.888   4.554 -1.0463  0.1368 -1.2225
   52CHL1  H16B 4977   3.961   1.057   4.548 -2.7656  3.2655 -0.7163
   52CHL1   C17 4978   3.751   1.046   4.478  0.0477  0.7026 -0.0711
   52CHL1   H17 4979   3.760   1.157   4.476  0.4666  0.6812 -2.1504
   52CHL1   C13 4980   3.717   1.008   4.338 -0.1602  0.1838  0.3126
   52CHL1   C18 4981   3.682   0.855   4.336 -0.2279 -0.5342  0.7409
   52CHL1  H18A 4982   3.661   0.815   4.235  2.1044  1.2823 -0.5637
   52CHL1  H18B 4983   3.759   0.801   4.395  0.8825  0.5275  0.3148
   52CHL1  H18C 4984   3.583   0.847   4.386 -1.2918  2.1478 -0.7383
   52CHL1   C12 4985   3.615   1.093   4.264  0.0873 -0.2565  0.3483
   52CHL1  H12A 4986   3.508   1.079   4.292 -0.0438 -2.0343 -0.8451
   52CHL1  H12B 4987   3.644   1.198   4.286  0.7304 -0.6314  1.3466
   52CHL1   C11 4988   3.622   1.070   4.103 -0.6831 -0.3011 -0.2893
   52CHL1  H11A 4989   3.578   0.972   4.075  1.2804 -0.8762 -1.5036
   52CHL1  H11B 4990   3.555   1.138   4.047 -0.4321 -0.0806 -0.3232
   52CHL1    C9 4991   3.764   1.086   4.049  0.6671  0.3955  0.1006
   52CHL1    H9 4992   3.804   1.184   4.083  0.4036  0.0434  1.5051
   52CHL1   C10 4993   3.774   1.098   3.893 -0.1020  0.7396 -0.5115
   52CHL1   C19 4994   3.688   0.986   3.823  0.3182 -0.4389 -0.3941
   52CHL1  H19A 4995   3.734   0.886   3.836 -0.4440 -1.0763 -2.2004
   52CHL1  H19B 4996   3.586   0.977   3.866  1.8911 -0.7603  3.7079
   52CHL1  H19C 4997   3.673   1.013   3.716 -1.4888  2.1321  0.4083
   52CHL1    C1 4998   3.730   1.245   3.855  0.3391  0.2929  0.1869
   52CHL1   H1A 4999   3.628   1.263   3.897  0.6750 -1.3541  1.8752
   52CHL1   H1B 5000   3.798   1.318   3.903 -0.3346  1.3364 -0.4099
   52CHL1    C2 5001   3.752   1.290   3.708  0.5531 -0.9100  0.4185
   52CHL1   H2A 5002   3.730   1.396   3.686 -2.5839 -1.4697  0.3681
   52CHL1   H2B 5003   3.685   1.235   3.639 -0.0001  0.1176  0.1191
   52CHL1   C20 5004   3.657   1.021   4.602  0.0820  0.4077  0.0871
   52CHL1   H20 5005   3.643   0.911   4.591 -2.7078  0.9049 -2.6880
   52CHL1   C21 5006   3.514   1.074   4.590 -0.4110  0.5164 -0.9939
   52CHL1  H21A 5007   3.452   1.024   4.667  4.2105 -3.3356  0.7058
   52CHL1  H21B 5008   3.467   1.057   4.490  0.6975  0.5574 -1.5457
   52CHL1  H21C 5009   3.522   1.181   4.616  1.1838  0.3084 -0.5112
   52CHL1   C22 5010   3.715   1.061   4.737  0.3527 -0.4888 -0.3741
   52CHL1  H22A 5011   3.825   1.071   4.732  0.1869  2.8655  0.2329
   52CHL1  H22B 5012   3.679   1.164   4.758  0.2204 -0.5538 -0.2802
   52CHL1   C23 5013   3.679   0.981   4.857 -0.3889  0.4498  0.6730
   52CHL1  H23A 5014   3.616   0.895   4.823  0.1642  0.0845  0.5576
   52CHL1  H23B 5015   3.765   0.918   4.887 -1.0846 -0.8145  0.1332
   52CHL1   C24 5016   3.598   1.043   4.972 -0.1534 -0.8469  0.4172
   52CHL1  H24A 5017   3.503   1.081   4.929  0.4956  0.2767 -0.0910
   52CHL1  H24B 5018   3.577   0.958   5.040 -1.1455 -0.4313  0.6480
   52CHL1   C25 5019   3.671   1.161   5.049  0.3103 -0.2742  0.1253
   52CHL1   H25 5020   3.710   1.239   4.979  1.1947  0.8305  1.7686
   52CHL1   C26 5021   3.568   1.247   5.130 -0.4096 -0.0327  0.4770
   52CHL1  H26A 5022   3.635   1.328   5.167  0.1644 -0.7655  1.0813
   52CHL1  H26B 5023   3.496   1.298   5.063  0.8941  0.5357 -0.5278
   52CHL1  H26C 5024   3.516   1.181   5.203  2.9345 -2.7339  0.6605
   52CHL1   C27 5025   3.794   1.121   5.134  1.0271 -0.0842 -0.7788
   52CHL1  H27A 5026   3.863   1.065   5.067  0.3140 -1.6158 -0.2914
   52CHL1  H27B 5027   3.831   1.216   5.179 -0.3903  0.5223 -0.8427
   52CHL1  H27C 5028   3.764   1.062   5.224 -1.3733  0.5964 -1.0501
   53CHL1    C3 5029   2.664   0.436   3.614  0.0823 -0.2948 -0.0611
   53CHL1    H3 5030   2.771   0.464   3.606 -0.6106  2.8005  0.5265
   53CHL1    O3 5031   2.627   0.359   3.499 -0.1811 -0.3508  0.0866
   53CHL1   H3' 5032   2.531   0.361   3.503 -0.1799  0.0773  0.0480
   53CHL1    C4 5033   2.640   0.341   3.731  0.2096  0.2273  0.1685
   53CHL1   H4A 5034   2.534   0.310   3.718 -0.2707  0.6954  2.5085
   53CHL1   H4B 5035   2.699   0.247   3.725 -0.4310 -0.2039  0.4881
   53CHL1    C5 5036   2.639   0.412   3.864  0.3029  0.4057  0.2525
   53CHL1    C6 5037   2.713   0.366   3.970  0.3819 -1.0273  0.3089
   53CHL1    H6 5038   2.763   0.269   3.959 -1.5856 -2.3751  2.3656
   53CHL1    C7 5039   2.700   0.416   4.111  0.0192  0.4074 -0.0871
   53CHL1   H7A 5040   2.672   0.331   4.178 -0.5470  1.0665  0.5278
   53CHL1   H7B 5041   2.802   0.450   4.138  1.5913 -0.3813 -4.2577
   53CHL1    C8 5042   2.595   0.525   4.125 -0.3807  0.0922 -0.3507
   53CHL1    H8 5043   2.501   0.466   4.133  0.3529 -1.2555 -1.1602
   53CHL1   C14 5044   2.637   0.611   4.244  0.1036 -0.5561 -0.5772
   53CHL1   H14 5045   2.739   0.649   4.221  0.6361 -1.5514  0.0697
   53CHL1   C15 5046   2.659   0.543   4.383  0.5626  0.1934  0.7142
   53CHL1  H15A 5047   2.578   0.468   4.394  0.6860 -0.3026 -1.2503
   53CHL1  H15B 5048   2.756   0.488   4.388 -0.7500 -2.2388  4.6965
   53CHL1   C16 5049   2.641   0.657   4.478 -0.1765  0.2214 -0.1732
   53CHL1  H16A 5050   2.568   0.617   4.552  1.9116 -1.4377  1.1118
   53CHL1  H16B 5051   2.739   0.668   4.530 -0.4998 -3.4626  1.5607
   53CHL1   C17 5052   2.590   0.780   4.405  0.1754  0.0402 -0.7664
   53CHL1   H17 5053   2.683   0.841   4.402 -0.8728  1.9575  1.8540
   53CHL1   C13 5054   2.536   0.728   4.276  0.0322 -0.5828 -0.1519
   53CHL1   C18 5055   2.400   0.673   4.307 -0.1429  0.4771 -0.6424
   53CHL1  H18A 5056   2.363   0.615   4.219 -0.3924 -0.2654 -0.0554
   53CHL1  H18B 5057   2.385   0.608   4.395 -0.7709  2.3403  0.6963
   53CHL1  H18C 5058   2.323   0.753   4.303 -0.2079  0.4066 -0.8470
   53CHL1   C12 5059   2.537   0.827   4.158  0.2749 -0.2647 -0.0345
   53CHL1  H12A 5060   2.479   0.921   4.173  2.7343  1.3708 -0.0985
   53CHL1  H12B 5061   2.633   0.883   4.145 -0.7731  1.8099  0.6704
   53CHL1   C11 5062   2.498   0.750   4.030  0.3005 -0.2500 -0.0494
   53CHL1  H11A 5063   2.392   0.718   4.031  0.1086  0.2657  2.2377
   53CHL1  H11B 5064   2.501   0.819   3.944  0.1871  0.1003  0.2268
   53CHL1    C9 5065   2.583   0.618   4.006 -0.5470  0.2048  0.4972
   53CHL1    H9 5066   2.678   0.673   3.986 -0.6675  0.4357  0.5476
   53CHL1   C10 5067   2.556   0.543   3.875 -0.4199  0.3998 -0.3465
   53CHL1   C19 5068   2.394   0.505   3.863 -0.2749 -0.1518  0.7781
   53CHL1  H19A 5069   2.369   0.450   3.770 -0.8418  2.6906 -0.8574
   53CHL1  H19B 5070   2.373   0.441   3.952 -0.6012 -1.0947  0.0489
   53CHL1  H19C 5071   2.332   0.595   3.878  0.6743  0.1807  3.1057
   53CHL1    C1 5072   2.596   0.632   3.756 -0.4642 -0.3268  0.3750
   53CHL1   H1A 5073   2.540   0.727   3.745  0.2473 -0.0631 -1.1946
   53CHL1   H1B 5074   2.703   0.654   3.775 -0.4681  0.4356 -0.4149
   53CHL1    C2 5075   2.578   0.568   3.618  0.6235 -0.0044  0.7310
   53CHL1   H2A 5076   2.615   0.634   3.537 -2.1586  1.8353  0.8179
   53CHL1   H2B 5077   2.471   0.547   3.596  0.4467  1.1744  0.4293
   53CHL1   C20 5078   2.495   0.866   4.494  0.1497 -0.4160  0.7327
   53CHL1   H20 5079   2.403   0.807   4.519 -2.6777  2.8821 -1.0577
   53CHL1   C21 5080   2.457   0.997   4.414  0.8186 -0.7627 -0.4645
   53CHL1  H21A 5081   2.551   1.036   4.367  0.7838  1.0705  0.8788
   53CHL1  H21B 5082   2.409   1.071   4.481 -0.2865 -1.3506 -0.5843
   53CHL1  H21C 5083   2.381   0.988   4.334  1.8607  0.3416 -1.6331
   53CHL1   C22 5084   2.547   0.905   4.634  0.0555 -0.3283 -0.5235
   53CHL1  H22A 5085   2.631   0.839   4.667  1.2427  0.3307 -2.1262
   53CHL1  H22B 5086   2.596   1.002   4.609  0.9484 -0.7846 -0.5880
   53CHL1   C23 5087   2.434   0.940   4.736 -0.2585 -0.1874 -0.4954
   53CHL1  H23A 5088   2.359   1.007   4.690 -1.3210  0.5172  2.0436
   53CHL1  H23B 5089   2.394   0.839   4.760  0.0364  0.0922  1.3673
   53CHL1   C24 5090   2.492   0.975   4.877  0.1125  0.1897 -0.1016
   53CHL1  H24A 5091   2.557   0.898   4.922 -1.5128 -0.1439  1.8380
   53CHL1  H24B 5092   2.563   1.060   4.863 -1.7197  2.3835  2.7515
   53CHL1   C25 5093   2.381   1.012   4.976 -0.0675 -0.0708  0.6322
   53CHL1   H25 5094   2.308   0.928   4.978 -0.1327 -0.0204  0.4015
   53CHL1   C26 5095   2.430   1.026   5.121 -0.8884  0.0703 -0.2328
   53CHL1  H26A 5096   2.340   1.020   5.186  0.4156  1.5012  1.8272
   53CHL1  H26B 5097   2.502   0.948   5.153 -1.3299  0.2033  1.1618
   53CHL1  H26C 5098   2.475   1.125   5.144  0.1773 -0.8000  1.6105
   53CHL1   C27 5099   2.298   1.136   4.936  0.5077 -0.3068  0.7810
   53CHL1  H27A 5100   2.363   1.225   4.923  1.0711 -0.8328 -0.1788
   53CHL1  H27B 5101   2.261   1.125   4.832 -0.6579 -0.3220  1.1809
   53CHL1  H27C 5102   2.215   1.148   5.009  0.6672  1.1653  0.7450
   54CHL1    C3 5103   3.021   0.799   4.036  0.2603  0.2646  0.1910
   54CHL1    H3 5104   2.916   0.764   4.029  0.1575  0.7275 -0.7515
   54CHL1    O3 5105   3.068   0.826   3.904  0.0787  0.0084  0.0231
   54CHL1   H3' 5106   3.163   0.814   3.908 -0.0348 -0.6591  1.1213
   54CHL1    C4 5107   3.031   0.929   4.107 -0.5970 -0.0029 -0.2761
   54CHL1   H4A 5108   3.128   0.984   4.098 -1.4765  1.5974 -0.3496
   54CHL1   H4B 5109   2.958   0.994   4.055  0.5542  0.9678 -0.7321
   54CHL1    C5 5110   3.013   0.914   4.258  0.5591  0.5655  0.8360
   54CHL1    C6 5111   2.924   0.988   4.326 -0.8609  0.4243 -0.1844
   54CHL1    H6 5112   2.873   1.071   4.273  0.4116  1.4257  0.1206
   54CHL1    C7 5113   2.908   0.989   4.475 -0.2537  0.0807 -0.1767
   54CHL1   H7A 5114   2.897   1.092   4.514  1.0710  1.4412 -3.1398
   54CHL1   H7B 5115   2.810   0.939   4.490 -1.9449  2.5420 -2.1363
   54CHL1    C8 5116   3.015   0.905   4.545 -0.1447  0.2403  0.9451
   54CHL1    H8 5117   3.107   0.968   4.540  0.1729 -0.2895 -0.2909
   54CHL1   C14 5118   2.976   0.870   4.683 -0.1152 -0.3948 -0.4465
   54CHL1   H14 5119   2.882   0.812   4.677 -1.3410  1.3173  1.0420
   54CHL1   C15 5120   2.927   0.991   4.770 -0.9624 -0.1394 -0.0436
   54CHL1  H15A 5121   2.993   1.076   4.742 -1.8223  0.4045 -0.4366
   54CHL1  H15B 5122   2.822   1.024   4.757 -1.7834 -1.5297  2.4839
   54CHL1   C16 5123   2.951   0.931   4.916  1.0430  0.1753  0.3080
   54CHL1  H16A 5124   3.025   0.999   4.964  2.3121 -0.7597 -0.2545
   54CHL1  H16B 5125   2.859   0.936   4.978 -0.7328 -0.8044 -2.1145
   54CHL1   C17 5126   3.001   0.783   4.901  0.6834 -0.5424  0.4036
   54CHL1   H17 5127   2.914   0.713   4.895  0.7116 -0.5267 -0.2684
   54CHL1   C13 5128   3.071   0.789   4.770  0.0398 -0.1764  0.7754
   54CHL1   C18 5129   3.206   0.871   4.783 -0.5817 -0.0532 -0.3453
   54CHL1  H18A 5130   3.249   0.894   4.683  1.7463  1.4754  0.8965
   54CHL1  H18B 5131   3.208   0.971   4.833  1.5644 -0.2947  0.1647
   54CHL1  H18C 5132   3.277   0.802   4.833 -0.5116 -0.2020 -0.6484
   54CHL1   C12 5133   3.094   0.657   4.693  0.3511  0.1755  0.2075
   54CHL1  H12A 5134   3.150   0.569   4.732  0.0099 -0.6134 -1.0322
   54CHL1  H12B 5135   2.994   0.614   4.673  0.7976  0.0905 -2.1136
   54CHL1   C11 5136   3.144   0.684   4.548  0.5761  0.8294 -0.0504
   54CHL1  H11A 5137   3.247   0.724   4.560 -0.5667  3.0842  4.2332
   54CHL1  H11B 5138   3.142   0.586   4.496 -1.9317  0.7610  0.0170
   54CHL1    C9 5139   3.054   0.781   4.462 -0.1807  0.0619 -0.0904
   54CHL1    H9 5140   2.954   0.731   4.462 -0.8634  1.3787 -0.4849
   54CHL1   C10 5141   3.093   0.805   4.322 -0.0810  0.3280  0.5788
   54CHL1   C19 5142   3.241   0.865   4.320  0.0249  0.1854 -0.4288
   54CHL1  H19A 5143   3.270   0.908   4.222  1.9756  0.2837  0.1596
   54CHL1  H19B 5144   3.261   0.943   4.397  0.3295 -0.4670  0.1608
   54CHL1  H19C 5145   3.315   0.789   4.353 -1.6101 -1.4789 -0.4029
   54CHL1    C1 5146   3.090   0.671   4.240 -0.5895 -0.2954  0.0695
   54CHL1   H1A 5147   3.158   0.588   4.268  1.3096  0.4411 -2.0802
   54CHL1   H1B 5148   2.985   0.637   4.257 -1.0051  0.9351  0.0701
   54CHL1    C2 5149   3.118   0.693   4.090 -0.5662 -0.1025  0.3817
   54CHL1   H2A 5150   3.097   0.601   4.032  0.8884 -1.6697  2.1967
   54CHL1   H2B 5151   3.224   0.723   4.079 -0.2720 -0.7631  1.3008
   54CHL1   C20 5152   3.087   0.740   5.024  0.1501  0.8683  0.1178
   54CHL1   H20 5153   3.184   0.794   5.016  0.2256  0.5487 -1.7017
   54CHL1   C21 5154   3.132   0.586   5.030  0.2846  0.3466 -0.1497
   54CHL1  H21A 5155   3.042   0.525   5.048  0.1039  0.8757  0.8257
   54CHL1  H21B 5156   3.207   0.581   5.112  3.5014  0.7355 -2.8486
   54CHL1  H21C 5157   3.187   0.544   4.943  0.4907  1.6939 -0.7038
   54CHL1   C22 5158   3.040   0.787   5.163  1.2340 -0.6069  0.5621
   54CHL1  H22A 5159   2.933   0.814   5.149  1.5463 -0.7645 -3.0745
   54CHL1  H22B 5160   3.049   0.701   5.232 -0.0567 -0.1433  1.3366
   54CHL1   C23 5161   3.115   0.913   5.226 -0.1928 -0.1155  0.3494
   54CHL1  H23A 5162   3.129   0.996   5.154  1.2798  0.2788  1.0622
   54CHL1  H23B 5163   3.051   0.951   5.309 -1.4205  0.9357 -1.0302
   54CHL1   C24 5164   3.256   0.886   5.269 -0.1605 -0.1431  0.4186
   54CHL1  H24A 5165   3.245   0.797   5.334 -0.0287 -0.0813  0.5268
   54CHL1  H24B 5166   3.312   0.858   5.177  0.9445 -1.6638  1.4884
   54CHL1   C25 5167   3.336   0.983   5.352  0.6027  0.5867 -0.3725
   54CHL1   H25 5168   3.327   1.086   5.310 -1.5180 -0.0228 -1.5757
   54CHL1   C26 5169   3.293   0.985   5.499 -0.2847  0.7439 -0.0760
   54CHL1  H26A 5170   3.185   1.007   5.510 -0.8929 -0.9506 -2.0689
   54CHL1  H26B 5171   3.322   0.886   5.539 -0.9894  0.2162 -0.8331
   54CHL1  H26C 5172   3.353   1.066   5.546 -1.9976  0.9799  1.8322
   54CHL1   C27 5173   3.489   0.958   5.352 -0.3937 -0.3562  0.2947
   54CHL1  H27A 5174   3.544   1.044   5.396  1.8796 -0.3971 -2.1858
   54CHL1  H27B 5175   3.520   0.860   5.393 -2.4418 -1.2806 -0.2174
   54CHL1  H27C 5176   3.523   0.943   5.247 -2.1899 -3.1686  0.0111
   55CHL1    C3 5177   3.164   3.195   3.942 -0.0214  0.0335  0.2724
   55CHL1    H3 5178   3.071   3.192   4.003 -1.1035 -1.7739 -1.3401
   55CHL1    O3 5179   3.130   3.218   3.809  0.4872 -0.3799 -0.5508
   55CHL1   H3' 5180   3.212   3.221   3.759  0.6390 -2.5453 -0.5013
   55CHL1    C4 5181   3.250   3.310   3.989  0.1464 -0.6116 -0.9453
   55CHL1   H4A 5182   3.339   3.319   3.922  0.5968  0.1435 -0.2664
   55CHL1   H4B 5183   3.188   3.401   3.976  0.7111 -0.1398 -0.4368
   55CHL1    C5 5184   3.298   3.285   4.129 -0.4408 -0.7118 -0.1998
   55CHL1    C6 5185   3.276   3.368   4.230 -0.3658  0.4762  0.4063
   55CHL1    H6 5186   3.218   3.459   4.207 -3.6214 -1.6751 -0.7007
   55CHL1    C7 5187   3.323   3.345   4.376  0.7460 -0.4558 -0.1355
   55CHL1   H7A 5188   3.373   3.436   4.415 -0.5412  0.9072 -1.5245
   55CHL1   H7B 5189   3.235   3.322   4.440  0.0708  1.5748 -0.2670
   55CHL1    C8 5190   3.427   3.237   4.394  0.3810 -0.0010  0.7667
   55CHL1    H8 5191   3.524   3.282   4.365  1.8558 -2.9222  0.7057
   55CHL1   C14 5192   3.427   3.177   4.537 -0.3314 -0.7494  0.7561
   55CHL1   H14 5193   3.323   3.140   4.551 -0.9622 -0.0915 -1.8016
   55CHL1   C15 5194   3.453   3.276   4.656  0.4056 -0.0293  0.0900
   55CHL1  H15A 5195   3.530   3.353   4.634 -1.6304  2.6679  1.7875
   55CHL1  H15B 5196   3.363   3.339   4.672 -0.4067 -0.9581 -0.6105
   55CHL1   C16 5197   3.480   3.185   4.775 -0.6980 -0.3969 -0.7072
   55CHL1  H16A 5198   3.585   3.200   4.807 -0.7817 -1.9185  0.4280
   55CHL1  H16B 5199   3.410   3.208   4.858  0.6236  1.1899  0.0262
   55CHL1   C17 5200   3.489   3.039   4.719 -0.5511  0.9854 -0.2871
   55CHL1   H17 5201   3.389   2.994   4.737 -0.6829  1.7694  1.1005
   55CHL1   C13 5202   3.518   3.065   4.574  0.1856  0.0020 -0.6154
   55CHL1   C18 5203   3.666   3.103   4.561  0.0039  0.1614  0.0565
   55CHL1  H18A 5204   3.700   3.165   4.647  0.4062 -0.2782  0.2233
   55CHL1  H18B 5205   3.736   3.017   4.553 -0.6897 -0.4742  0.7262
   55CHL1  H18C 5206   3.689   3.161   4.468 -0.6876 -1.6196 -1.2685
   55CHL1   C12 5207   3.491   2.953   4.476 -0.1063 -0.3478 -1.0361
   55CHL1  H12A 5208   3.569   2.876   4.494  0.5894  0.8019  1.4003
   55CHL1  H12B 5209   3.387   2.915   4.489 -0.4932  0.5006 -1.5316
   55CHL1   C11 5210   3.505   3.007   4.328  0.8125  0.3345 -0.5050
   55CHL1  H11A 5211   3.604   3.055   4.313  0.3365  1.4113 -0.2702
   55CHL1  H11B 5212   3.487   2.921   4.260 -0.6828  0.5227 -0.3815
   55CHL1    C9 5213   3.397   3.116   4.303 -0.4883 -0.3903 -0.6261
   55CHL1    H9 5214   3.301   3.072   4.338 -0.1931  0.1244  0.9117
   55CHL1   C10 5215   3.371   3.159   4.151  0.3333  0.1061 -0.0684
   55CHL1   C19 5216   3.512   3.173   4.081  0.5424 -0.1659  0.4815
   55CHL1  H19A 5217   3.560   3.264   4.122  0.9093  0.7094 -1.7202
   55CHL1  H19B 5218   3.571   3.081   4.101 -0.4269 -0.8040  0.4705
   55CHL1  H19C 5219   3.502   3.186   3.971  1.0707  2.7409  0.6864
   55CHL1    C1 5220   3.296   3.044   4.088  0.6613  0.0330  0.1978
   55CHL1   H1A 5221   3.365   2.957   4.079  2.2950  1.4645 -2.2917
   55CHL1   H1B 5222   3.223   3.004   4.161  3.0712 -0.2777  2.5687
   55CHL1    C2 5223   3.239   3.057   3.947 -0.0607 -0.1189  0.3076
   55CHL1   H2A 5224   3.184   2.969   3.907  0.5211 -0.3302 -0.0420
   55CHL1   H2B 5225   3.327   3.069   3.880 -0.5485 -0.3571 -0.3807
   55CHL1   C20 5226   3.588   2.950   4.803  0.6065 -0.2116 -0.4983
   55CHL1   H20 5227   3.692   2.989   4.793  0.0844  1.3956 -0.0147
   55CHL1   C21 5228   3.587   2.802   4.753 -0.0503  0.6053 -0.3037
   55CHL1  H21A 5229   3.625   2.732   4.830  1.0396  0.4808 -0.9357
   55CHL1  H21B 5230   3.649   2.787   4.662 -0.5702  0.9895 -0.7338
   55CHL1  H21C 5231   3.482   2.777   4.729 -0.7567  2.7837  0.2555
   55CHL1   C22 5232   3.555   2.946   4.956  0.1175 -0.6024  0.9605
   55CHL1  H22A 5233   3.533   3.049   4.991  0.3293  0.4940 -1.8310
   55CHL1  H22B 5234   3.464   2.882   4.959 -0.9107  0.5546 -1.9962
   55CHL1   C23 5235   3.668   2.889   5.050  0.0840 -0.4968 -0.1373
   55CHL1  H23A 5236   3.671   2.780   5.032  0.9609 -0.3046 -1.1868
   55CHL1  H23B 5237   3.769   2.933   5.043 -0.8239  1.5613 -0.9900
   55CHL1   C24 5238   3.634   2.915   5.196  0.9935  0.2611 -0.0579
   55CHL1  H24A 5239   3.655   3.020   5.227 -1.9348  0.5990  1.1296
   55CHL1  H24B 5240   3.524   2.901   5.203  0.9837  0.8331  1.2527
   55CHL1   C25 5241   3.711   2.830   5.304 -0.0142  1.0405  0.4596
   55CHL1   H25 5242   3.692   2.722   5.289  0.0181  1.1447 -0.4262
   55CHL1   C26 5243   3.859   2.862   5.304  0.1740 -0.3733  0.0869
   55CHL1  H26A 5244   3.905   2.811   5.391  0.0911  0.2698  0.5098
   55CHL1  H26B 5245   3.916   2.815   5.220 -0.3766  1.2917 -1.2629
   55CHL1  H26C 5246   3.887   2.969   5.304  1.0219 -0.5202 -2.4219
   55CHL1   C27 5247   3.654   2.864   5.441 -0.3105  1.4132  0.5297
   55CHL1  H27A 5248   3.638   2.974   5.446  1.9160  1.9137 -1.5591
   55CHL1  H27B 5249   3.553   2.821   5.455  0.9349 -1.5133  1.3679
   55CHL1  H27C 5250   3.734   2.837   5.513 -0.5831  0.9493  0.6614
   56CHL1    C3 5251   6.846   2.425   3.427 -0.2959  0.4650  0.3824
   56CHL1    H3 5252   6.943   2.371   3.427  0.2450  1.2179  3.4178
   56CHL1    O3 5253   6.819   2.482   3.299 -0.0307  0.0281  0.1262
   56CHL1   H3' 5254   6.768   2.560   3.321  0.2731  0.2248  0.1359
   56CHL1    C4 5255   6.749   2.319   3.478 -0.2499 -0.2319 -0.9086
   56CHL1   H4A 5256   6.642   2.332   3.452 -0.3190 -1.3055 -1.2106
   56CHL1   H4B 5257   6.788   2.238   3.413 -0.6543 -1.8987  0.8269
   56CHL1    C5 5258   6.774   2.278   3.629 -1.7072 -0.6615 -0.2159
   56CHL1    C6 5259   6.797   2.158   3.673  0.3958 -0.6834  0.1336
   56CHL1    H6 5260   6.793   2.078   3.597 -2.5201  0.6334 -1.2800
   56CHL1    C7 5261   6.804   2.113   3.816 -0.2421  0.0640  0.3508
   56CHL1   H7A 5262   6.744   2.022   3.836  1.1340 -0.5059  2.1972
   56CHL1   H7B 5263   6.910   2.084   3.833 -0.4172 -1.2425 -0.6729
   56CHL1    C8 5264   6.762   2.229   3.909  0.9483 -0.0512  0.1787
   56CHL1    H8 5265   6.652   2.221   3.894  1.0788 -0.1288 -0.7710
   56CHL1   C14 5266   6.807   2.204   4.052 -0.2807 -0.5403  0.2815
   56CHL1   H14 5267   6.917   2.194   4.053 -0.1193  0.7919 -1.0840
   56CHL1   C15 5268   6.769   2.074   4.121  0.3165 -0.0135  0.9376
   56CHL1  H15A 5269   6.664   2.038   4.113  0.0599  0.7970  0.6027
   56CHL1  H15B 5270   6.831   1.989   4.083  1.2116 -0.1256  2.5237
   56CHL1   C16 5271   6.806   2.095   4.266 -0.6558 -0.0423 -0.4035
   56CHL1  H16A 5272   6.729   2.062   4.339  0.8932  1.5185  2.0894
   56CHL1  H16B 5273   6.907   2.061   4.298 -0.5363 -1.4187 -2.0537
   56CHL1   C17 5274   6.813   2.254   4.274  0.2589  0.0039 -0.0893
   56CHL1   H17 5275   6.921   2.281   4.265  0.7617 -2.0127 -0.5646
   56CHL1   C13 5276   6.756   2.316   4.149  0.1484 -0.5252  0.0646
   56CHL1   C18 5277   6.606   2.323   4.153 -0.7217 -0.1466 -0.2213
   56CHL1  H18A 5278   6.565   2.390   4.231  2.8592 -0.9752  2.6855
   56CHL1  H18B 5279   6.560   2.342   4.054  1.3424  1.3707 -0.9498
   56CHL1  H18C 5280   6.566   2.226   4.189  1.9159 -1.2016  0.0717
   56CHL1   C12 5281   6.817   2.455   4.093 -0.0978 -0.7753  0.4670
   56CHL1  H12A 5282   6.791   2.544   4.155  0.5374 -0.4502  0.2827
   56CHL1  H12B 5283   6.926   2.437   4.102  0.2516 -0.3434 -2.2599
   56CHL1   C11 5284   6.765   2.481   3.950  0.0146 -0.3051  0.2713
   56CHL1  H11A 5285   6.656   2.491   3.931  0.2035 -1.1212 -1.4674
   56CHL1  H11B 5286   6.811   2.572   3.907  0.1072 -0.0363  0.9244
   56CHL1    C9 5287   6.805   2.368   3.859 -0.2267 -0.1056 -0.2149
   56CHL1    H9 5288   6.916   2.362   3.870 -0.3703 -1.3506  0.9165
   56CHL1   C10 5289   6.781   2.399   3.713  0.5809 -0.2504  0.1773
   56CHL1   C19 5290   6.646   2.469   3.691  0.5436 -0.3400  0.4158
   56CHL1  H19A 5291   6.610   2.468   3.586  0.9492 -0.3297  0.2755
   56CHL1  H19B 5292   6.570   2.407   3.745  1.4919 -0.7939  1.2535
   56CHL1  H19C 5293   6.625   2.572   3.728 -0.4862  0.9573 -3.2441
   56CHL1    C1 5294   6.895   2.491   3.672 -0.0765 -0.3812 -0.3414
   56CHL1   H1A 5295   6.906   2.587   3.726  1.0309  0.3803 -1.8623
   56CHL1   H1B 5296   6.995   2.447   3.690  0.1934 -0.1281 -1.1745
   56CHL1    C2 5297   6.877   2.535   3.526 -0.1099 -0.0534 -0.5950
   56CHL1   H2A 5298   6.975   2.580   3.503  0.2557  0.1808  1.2306
   56CHL1   H2B 5299   6.794   2.609   3.528 -1.1948 -1.2463  0.9149
   56CHL1   C20 5300   6.776   2.304   4.415 -0.4530  0.4205  0.0446
   56CHL1   H20 5301   6.680   2.255   4.440  1.5826 -2.9494  2.0213
   56CHL1   C21 5302   6.770   2.456   4.427  0.0433  0.3540 -0.2370
   56CHL1  H21A 5303   6.873   2.497   4.420 -0.6090  1.8792 -1.5490
   56CHL1  H21B 5304   6.733   2.493   4.525 -0.5451  1.5021 -0.8709
   56CHL1  H21C 5305   6.705   2.503   4.350 -3.0237 -2.9504  0.0892
   56CHL1   C22 5306   6.871   2.255   4.528 -0.6885 -0.1502 -0.1231
   56CHL1  H22A 5307   6.890   2.147   4.511  0.4563  0.2715 -1.7893
   56CHL1  H22B 5308   6.971   2.302   4.534 -1.3640  1.2225  1.0018
   56CHL1   C23 5309   6.800   2.262   4.663 -0.3933 -0.0874  0.0499
   56CHL1  H23A 5310   6.785   2.368   4.691 -0.1387  0.1449 -0.6842
   56CHL1  H23B 5311   6.700   2.214   4.653 -0.5786  0.4120 -0.5149
   56CHL1   C24 5312   6.896   2.198   4.772  0.6946  0.2514 -0.3047
   56CHL1  H24A 5313   6.911   2.090   4.747  0.0083  0.3654 -1.2687
   56CHL1  H24B 5314   6.990   2.257   4.774  0.0549  1.3816  3.2391
   56CHL1   C25 5315   6.838   2.216   4.915  0.3763  0.0927 -0.4549
   56CHL1   H25 5316   6.812   2.324   4.912  0.7475  0.1974  0.0363
   56CHL1   C26 5317   6.712   2.141   4.942 -0.1320  0.6142 -0.5246
   56CHL1  H26A 5318   6.685   2.151   5.049  1.1309  0.2407 -0.1520
   56CHL1  H26B 5319   6.628   2.170   4.877  0.9143  0.9972 -1.7474
   56CHL1  H26C 5320   6.731   2.033   4.922 -0.3815  0.1927  1.3070
   56CHL1   C27 5321   6.933   2.192   5.030 -0.0571  0.0707  0.4839
   56CHL1  H27A 5322   7.027   2.247   5.008  1.8891 -3.5567 -1.2649
   56CHL1  H27B 5323   6.888   2.235   5.122 -1.0314  4.1533 -1.6982
   56CHL1  H27C 5324   6.960   2.084   5.036 -2.2652 -0.5997 -0.5707
   57CHL1    C3 5325   3.867   3.433   4.125 -0.0638 -0.1263 -0.0110
   57CHL1    H3 5326   3.880   3.338   4.182  0.3440 -0.0512  0.0265
   57CHL1    O3 5327   3.807   3.398   4.002  0.4413 -0.1189 -0.1408
   57CHL1   H3' 5328   3.880   3.364   3.950  0.8184  1.6749 -0.8526
   57CHL1    C4 5329   3.779   3.515   4.205  0.6803 -0.4120 -0.7711
   57CHL1   H4A 5330   3.752   3.615   4.163 -0.7976 -0.1192  0.7716
   57CHL1   H4B 5331   3.686   3.457   4.223  0.4490  0.3500  0.6386
   57CHL1    C5 5332   3.843   3.551   4.338 -0.3060  0.4122  0.5112
   57CHL1    C6 5333   3.786   3.524   4.455  0.7980 -0.2168  0.2379
   57CHL1    H6 5334   3.688   3.475   4.458 -0.0798  1.5309  1.6092
   57CHL1    C7 5335   3.835   3.563   4.587  0.5716 -0.5499  0.0198
   57CHL1   H7A 5336   3.758   3.621   4.642  1.2139 -1.0663  1.5094
   57CHL1   H7B 5337   3.869   3.478   4.650  1.7760  0.5866  0.9464
   57CHL1    C8 5338   3.958   3.664   4.582 -0.2747  0.4484 -0.3711
   57CHL1    H8 5339   3.918   3.766   4.565 -1.4161  0.1064  0.1378
   57CHL1   C14 5340   4.033   3.654   4.712 -0.1427  0.0957  1.1579
   57CHL1   H14 5341   4.075   3.551   4.710  0.6826  0.3844  2.3232
   57CHL1   C15 5342   3.953   3.674   4.841  0.2541  0.3532  0.0176
   57CHL1  H15A 5343   3.886   3.762   4.838  1.0886  0.9799 -0.3927
   57CHL1  H15B 5344   3.890   3.585   4.865  0.1538  0.1226 -1.0464
   57CHL1   C16 5345   4.052   3.705   4.951  0.6489  0.5281 -0.1696
   57CHL1  H16A 5346   4.024   3.806   4.987  2.1741  0.5648  1.0375
   57CHL1  H16B 5347   4.047   3.634   5.036 -1.0582 -1.0212 -1.4814
   57CHL1   C17 5348   4.193   3.704   4.871  0.2848 -0.4697 -0.1178
   57CHL1   H17 5349   4.208   3.594   4.861 -1.6539 -0.6876 -1.3112
   57CHL1   C13 5350   4.158   3.748   4.728  0.1044  0.3894  0.0004
   57CHL1   C18 5351   4.120   3.897   4.719  0.0748  0.7812  0.9451
   57CHL1  H18A 5352   4.091   3.915   4.613 -1.4236 -0.4077  1.1149
   57CHL1  H18B 5353   4.026   3.917   4.775 -1.4323  0.8712 -1.4769
   57CHL1  H18C 5354   4.201   3.960   4.761  2.4341 -1.6340  0.3939
   57CHL1   C12 5355   4.257   3.703   4.618 -0.5635  0.2477  0.0697
   57CHL1  H12A 5356   4.346   3.769   4.613  0.5836 -0.8948  2.9639
   57CHL1  H12B 5357   4.291   3.603   4.653 -2.0171 -0.2820  0.0110
   57CHL1   C11 5358   4.190   3.703   4.482  0.2145  0.1451 -0.4388
   57CHL1  H11A 5359   4.171   3.804   4.439 -2.0523  1.2409  2.7645
   57CHL1  H11B 5360   4.260   3.645   4.418 -0.9317 -2.2529  0.3607
   57CHL1    C9 5361   4.057   3.628   4.470  0.4838 -0.3277 -1.0045
   57CHL1    H9 5362   4.087   3.523   4.490  0.0812 -0.1087  0.9032
   57CHL1   C10 5363   3.984   3.622   4.328 -0.0381  0.3546 -0.4366
   57CHL1   C19 5364   3.953   3.770   4.281  0.4418 -0.0369  0.5810
   57CHL1  H19A 5365   3.894   3.774   4.187  0.2758 -1.7171  0.5802
   57CHL1  H19B 5366   3.889   3.821   4.357 -0.0196 -0.4888  0.5049
   57CHL1  H19C 5367   4.050   3.822   4.265 -0.6357  1.2936 -2.3983
   57CHL1    C1 5368   4.073   3.543   4.226  0.2941  0.0554 -0.3315
   57CHL1   H1A 5369   4.158   3.610   4.200  0.5897 -0.2434 -0.1619
   57CHL1   H1B 5370   4.111   3.450   4.275 -0.6137  0.1116  0.4920
   57CHL1    C2 5371   3.998   3.505   4.094 -0.2202 -0.6599 -0.8658
   57CHL1   H2A 5372   4.068   3.436   4.042  0.4088 -0.9265  0.2896
   57CHL1   H2B 5373   3.980   3.600   4.040  0.4211  0.5918  1.0003
   57CHL1   C20 5374   4.304   3.770   4.949 -0.3557  0.8282 -0.4165
   57CHL1   H20 5375   4.279   3.872   4.984  1.6990  0.6824  1.7303
   57CHL1   C21 5376   4.435   3.792   4.864 -0.6206 -0.1725 -0.0103
   57CHL1  H21A 5377   4.459   3.698   4.810  0.2253 -0.7660  1.3610
   57CHL1  H21B 5378   4.515   3.820   4.936 -1.6523  1.8878  0.4203
   57CHL1  H21C 5379   4.410   3.878   4.798  0.3804  0.0852 -0.0647
   57CHL1   C22 5380   4.322   3.693   5.087 -0.4824  0.2936 -0.7577
   57CHL1  H22A 5381   4.230   3.719   5.143  0.3588  0.5693  0.5307
   57CHL1  H22B 5382   4.333   3.584   5.069  0.1062  0.2145  0.0431
   57CHL1   C23 5383   4.438   3.755   5.166 -0.1971  0.0897  0.0965
   57CHL1  H23A 5384   4.529   3.702   5.130 -0.7451 -1.0643  0.3595
   57CHL1  H23B 5385   4.447   3.864   5.149  0.3859 -0.1289 -1.1419
   57CHL1   C24 5386   4.438   3.723   5.316 -0.3185 -0.0358  0.3607
   57CHL1  H24A 5387   4.366   3.788   5.371 -2.3674 -1.3098 -0.6777
   57CHL1  H24B 5388   4.402   3.618   5.327 -0.7019  0.1037  0.4634
   57CHL1   C25 5389   4.578   3.735   5.392  0.0190 -0.5996 -0.3202
   57CHL1   H25 5390   4.651   3.675   5.333  0.1449 -1.1303  0.3679
   57CHL1   C26 5391   4.617   3.885   5.392 -0.4121 -0.1838  0.2310
   57CHL1  H26A 5392   4.652   3.929   5.296  0.1291 -1.2752 -0.0969
   57CHL1  H26B 5393   4.541   3.951   5.438 -0.3982  1.3899 -1.8602
   57CHL1  H26C 5394   4.707   3.896   5.456  1.5521 -1.7084 -2.0670
   57CHL1   C27 5395   4.569   3.673   5.538 -0.2854 -0.0030  0.1569
   57CHL1  H27A 5396   4.512   3.578   5.543 -1.3441  0.5458 -0.8285
   57CHL1  H27B 5397   4.670   3.657   5.581 -0.5117 -1.0187  0.3271
   57CHL1  H27C 5398   4.509   3.755   5.583 -1.1052 -0.6031  0.1780
   58CHL1    C3 5399   3.351   4.363   3.603 -0.5539  0.1411  0.4616
   58CHL1    H3 5400   3.448   4.403   3.640  0.8301 -0.9848 -1.6951
   58CHL1    O3 5401   3.364   4.350   3.460  0.4877 -0.2295 -0.0458
   58CHL1   H3' 5402   3.402   4.262   3.456 -0.2777 -0.8343  3.0516
   58CHL1    C4 5403   3.331   4.233   3.670  0.1570 -0.6222 -0.1277
   58CHL1   H4A 5404   3.249   4.172   3.626  2.1194 -1.9352 -2.2062
   58CHL1   H4B 5405   3.417   4.173   3.634  0.1055  0.2208 -1.7720
   58CHL1    C5 5406   3.307   4.240   3.818 -0.1782 -0.0131 -0.1938
   58CHL1    C6 5407   3.385   4.188   3.904 -0.9283  0.1263 -0.4487
   58CHL1    H6 5408   3.472   4.129   3.871 -0.4579 -0.9483  2.3561
   58CHL1    C7 5409   3.366   4.188   4.054 -0.0498  0.0656  0.0923
   58CHL1   H7A 5410   3.384   4.087   4.098  1.1771 -0.2765 -1.1093
   58CHL1   H7B 5411   3.441   4.253   4.104 -0.4925 -0.1262  1.0093
   58CHL1    C8 5412   3.230   4.238   4.098 -0.2096 -0.0961 -0.0427
   58CHL1    H8 5413   3.154   4.157   4.087 -0.7921  0.5539 -0.9960
   58CHL1   C14 5414   3.228   4.270   4.246  0.2038  0.0203  0.0720
   58CHL1   H14 5415   3.308   4.347   4.256  1.3850 -1.1412 -0.0751
   58CHL1   C15 5416   3.269   4.160   4.345  0.1042  0.3672  0.0678
   58CHL1  H15A 5417   3.210   4.070   4.316 -0.6567  0.3804  1.4601
   58CHL1  H15B 5418   3.374   4.130   4.362  0.2021  2.0256  3.1831
   58CHL1   C16 5419   3.225   4.214   4.482 -0.4970 -1.0838 -0.6702
   58CHL1  H16A 5420   3.162   4.151   4.548 -0.7131  0.0822  0.2817
   58CHL1  H16B 5421   3.317   4.254   4.529 -1.2720  0.6422 -0.5497
   58CHL1   C17 5422   3.135   4.340   4.444  0.2270 -0.0270  0.0986
   58CHL1   H17 5423   3.189   4.436   4.460 -0.2951  0.2515  0.2213
   58CHL1   C13 5424   3.101   4.327   4.294 -0.2683 -0.6521  0.0335
   58CHL1   C18 5425   2.990   4.228   4.267 -0.4110 -0.0330  0.0754
   58CHL1  H18A 5426   3.001   4.136   4.328  2.8513  0.1895 -0.0163
   58CHL1  H18B 5427   2.890   4.270   4.293 -0.3491  0.3878 -0.3585
   58CHL1  H18C 5428   2.972   4.192   4.163 -0.9457  0.0729  0.1271
   58CHL1   C12 5429   3.076   4.457   4.223 -0.6048 -0.4056  1.2499
   58CHL1  H12A 5430   2.983   4.500   4.266 -0.2410  1.3742  0.3544
   58CHL1  H12B 5431   3.163   4.524   4.238  0.4055 -1.3160 -0.2535
   58CHL1   C11 5432   3.072   4.440   4.070  0.6457  0.5597 -0.5889
   58CHL1  H11A 5433   2.978   4.384   4.052  0.3462  1.0832 -0.6754
   58CHL1  H11B 5434   3.059   4.539   4.021  0.2550  1.5598  1.4281
   58CHL1    C9 5435   3.197   4.366   4.015 -0.1096  0.0023 -0.1094
   58CHL1    H9 5436   3.282   4.437   4.028 -0.2143 -0.1526  1.6859
   58CHL1   C10 5437   3.191   4.330   3.862  0.5626 -1.0198 -0.0541
   58CHL1   C19 5438   3.047   4.285   3.827 -0.3250 -0.1543  0.7095
   58CHL1  H19A 5439   3.027   4.196   3.892 -0.8519 -0.9005 -0.4452
   58CHL1  H19B 5440   2.976   4.369   3.834  2.0920  2.5418 -3.2074
   58CHL1  H19C 5441   3.043   4.258   3.720 -0.5804  3.0531 -0.1867
   58CHL1    C1 5442   3.220   4.471   3.788 -0.4121  0.1268  0.6529
   58CHL1   H1A 5443   3.132   4.536   3.807 -1.9969 -1.9342  0.6506
   58CHL1   H1B 5444   3.315   4.514   3.826  1.1263 -2.3306 -0.1908
   58CHL1    C2 5445   3.235   4.461   3.630 -0.0285  0.2854  0.2922
   58CHL1   H2A 5446   3.257   4.556   3.576 -0.6830  1.6404  2.2775
   58CHL1   H2B 5447   3.147   4.410   3.584  1.1091  1.7352 -3.9921
   58CHL1   C20 5448   3.022   4.348   4.549  0.3614 -0.6845  0.2579
   58CHL1   H20 5449   2.963   4.255   4.534 -1.2449  0.4853 -1.1007
   58CHL1   C21 5450   2.925   4.468   4.517  0.2959 -0.4682 -1.2053
   58CHL1  H21A 5451   2.857   4.456   4.431  1.8248  0.1159 -2.5538
   58CHL1  H21B 5452   2.981   4.562   4.498 -1.8120  1.3014  0.8039
   58CHL1  H21C 5453   2.861   4.486   4.606  2.1091  2.6757 -0.3709
   58CHL1   C22 5454   3.071   4.353   4.703  0.0014  0.7246  0.3084
   58CHL1  H22A 5455   2.983   4.341   4.769  1.0201  1.1182  1.7982
   58CHL1  H22B 5456   3.129   4.259   4.717 -1.6421 -0.3556  0.1242
   58CHL1   C23 5457   3.138   4.484   4.742 -0.2580  0.4133 -0.6182
   58CHL1  H23A 5458   3.216   4.518   4.672 -0.7676  2.4915 -0.2225
   58CHL1  H23B 5459   3.059   4.560   4.758  2.1098  3.0055 -0.6370
   58CHL1   C24 5460   3.209   4.467   4.880  0.6541  0.1374  0.5211
   58CHL1  H24A 5461   3.281   4.384   4.863  0.3868  0.2662 -1.4761
   58CHL1  H24B 5462   3.264   4.556   4.916  0.7597  0.1232  0.3964
   58CHL1   C25 5463   3.122   4.415   4.992 -0.3321  0.1727 -0.1895
   58CHL1   H25 5464   3.088   4.311   4.973 -1.5799  0.5654 -0.2020
   58CHL1   C26 5465   3.206   4.418   5.120  0.1526 -0.6602 -0.2981
   58CHL1  H26A 5466   3.301   4.365   5.098 -0.6276 -1.2295 -2.5914
   58CHL1  H26B 5467   3.239   4.516   5.159  0.4456 -0.3539 -1.2790
   58CHL1  H26C 5468   3.154   4.367   5.204  1.0088  0.7383  1.1260
   58CHL1   C27 5469   2.995   4.509   5.022 -0.4784  0.1572 -0.0441
   58CHL1  H27A 5470   3.022   4.616   5.030 -1.1051  0.2057  1.7230
   58CHL1  H27B 5471   2.923   4.485   4.941  0.2735 -0.0475 -0.6667
   58CHL1  H27C 5472   2.941   4.473   5.112 -0.5018 -2.6108 -1.0698
   59CHL1    C3 5473   4.153   0.561   3.614  0.2135  0.2503  0.1278
   59CHL1    H3 5474   4.251   0.510   3.618  0.5967  0.9101 -0.4810
   59CHL1    O3 5475   4.128   0.610   3.486 -0.3259  0.2857  0.0135
   59CHL1   H3' 5476   4.049   0.564   3.457  0.4564  0.2662 -2.2835
   59CHL1    C4 5477   4.040   0.456   3.651 -0.9773 -0.8303  0.4376
   59CHL1   H4A 5478   3.941   0.498   3.627 -1.5956 -1.3266  1.9668
   59CHL1   H4B 5479   4.067   0.367   3.590  2.6628  0.2609  0.2207
   59CHL1    C5 5480   4.043   0.428   3.798 -0.2103  0.5308 -0.3765
   59CHL1    C6 5481   4.037   0.293   3.830  0.3591 -0.2841 -0.2108
   59CHL1    H6 5482   4.038   0.220   3.748 -1.3883 -0.2687 -0.2821
   59CHL1    C7 5483   4.047   0.243   3.967  0.8486 -0.2887  0.0651
   59CHL1   H7A 5484   3.974   0.161   3.983  0.1352  0.4795  0.7851
   59CHL1   H7B 5485   4.149   0.201   3.977  0.7124 -0.7723 -0.4857
   59CHL1    C8 5486   4.018   0.351   4.074 -0.4994 -0.0959 -0.0723
   59CHL1    H8 5487   3.910   0.374   4.073 -0.2664  1.1558 -2.1058
   59CHL1   C14 5488   4.061   0.309   4.211  0.3991  0.1148 -0.6710
   59CHL1   H14 5489   4.170   0.292   4.198  0.1304 -0.4042 -2.5844
   59CHL1   C15 5490   4.005   0.179   4.257  0.2069  0.5045  0.5128
   59CHL1  H15A 5491   3.894   0.174   4.255  0.0737  2.4592  1.0534
   59CHL1  H15B 5492   4.040   0.096   4.192 -0.9493  0.3801  0.0281
   59CHL1   C16 5493   4.044   0.170   4.411 -0.2323 -0.0720 -0.4232
   59CHL1  H16A 5494   3.949   0.131   4.453 -0.0527 -3.2969 -2.6949
   59CHL1  H16B 5495   4.126   0.095   4.413  0.0560  0.2468 -0.1714
   59CHL1   C17 5496   4.097   0.315   4.444 -0.1432  0.0351  0.4075
   59CHL1   H17 5497   4.206   0.306   4.423 -0.5594 -1.3583 -1.3985
   59CHL1   C13 5498   4.045   0.404   4.332  0.5004 -0.3543  0.1315
   59CHL1   C18 5499   3.894   0.434   4.354 -0.2597 -0.2680 -0.1030
   59CHL1  H18A 5500   3.847   0.347   4.405 -1.4151  0.9356  0.9701
   59CHL1  H18B 5501   3.879   0.515   4.430 -1.0760 -0.6327  0.1413
   59CHL1  H18C 5502   3.849   0.453   4.254  0.4189  0.6575 -0.2431
   59CHL1   C12 5503   4.127   0.535   4.300  0.7148  0.1443  0.3671
   59CHL1  H12A 5504   4.125   0.616   4.375  1.1660 -1.9150  2.7530
   59CHL1  H12B 5505   4.230   0.496   4.282 -0.0727 -0.9204 -2.4179
   59CHL1   C11 5506   4.093   0.590   4.158  0.4773 -0.0049  0.0837
   59CHL1  H11A 5507   3.996   0.644   4.160  0.2372 -0.4377  0.2799
   59CHL1  H11B 5508   4.171   0.663   4.126 -0.8394  1.4715  0.1149
   59CHL1    C9 5509   4.091   0.486   4.042 -0.0737  0.0139 -0.0591
   59CHL1    H9 5510   4.191   0.441   4.024 -0.2878 -0.3713 -0.3151
   59CHL1   C10 5511   4.063   0.544   3.906  0.4140  0.5205 -1.0292
   59CHL1   C19 5512   3.920   0.609   3.909  0.2950 -0.1614  0.0150
   59CHL1  H19A 5513   3.880   0.616   3.805 -0.0265 -3.0484 -0.1387
   59CHL1  H19B 5514   3.850   0.560   3.980  0.3975  1.6269  1.4254
   59CHL1  H19C 5515   3.929   0.712   3.949  0.5331 -0.5511  0.9743
   59CHL1    C1 5516   4.161   0.645   3.846 -0.2448  0.3295 -0.0211
   59CHL1   H1A 5517   4.167   0.742   3.900  2.6957  0.5164 -0.5103
   59CHL1   H1B 5518   4.265   0.607   3.856 -0.2230 -0.4222 -2.4485
   59CHL1    C2 5519   4.138   0.684   3.701  0.0740 -0.3350 -0.8892
   59CHL1   H2A 5520   4.225   0.751   3.688  0.0020  0.7010  2.7761
   59CHL1   H2B 5521   4.045   0.739   3.676  0.1136 -0.7491 -2.0315
   59CHL1   C20 5522   4.070   0.359   4.591  0.1721 -0.0864 -0.5656
   59CHL1   H20 5523   3.962   0.365   4.615  0.3481 -1.1642  0.5557
   59CHL1   C21 5524   4.133   0.493   4.620  0.6013 -0.3118  0.0328
   59CHL1  H21A 5525   4.112   0.500   4.729 -0.5299 -0.0984 -0.1866
   59CHL1  H21B 5526   4.076   0.580   4.581 -1.4013 -0.0068  3.2787
   59CHL1  H21C 5527   4.239   0.511   4.590  0.1649  0.0180 -1.3954
   59CHL1   C22 5528   4.125   0.247   4.692  0.1910  0.0302 -0.1892
   59CHL1  H22A 5529   4.060   0.276   4.777 -1.5401  0.1706 -1.5067
   59CHL1  H22B 5530   4.114   0.139   4.666 -1.3728  0.4580 -1.4320
   59CHL1   C23 5531   4.274   0.259   4.723 -0.3438 -0.6737 -0.2900
   59CHL1  H23A 5532   4.338   0.256   4.632 -0.6125  0.9242 -0.5669
   59CHL1  H23B 5533   4.295   0.360   4.764  1.4932  0.2063 -3.0847
   59CHL1   C24 5534   4.331   0.152   4.820 -0.8998  0.2818 -0.4852
   59CHL1  H24A 5535   4.323   0.050   4.776  2.0206 -0.3074  0.1305
   59CHL1  H24B 5536   4.438   0.168   4.844 -0.0173  0.3120 -3.8814
   59CHL1   C25 5537   4.260   0.151   4.953 -0.2745  0.5429  0.5157
   59CHL1   H25 5538   4.154   0.121   4.941  0.3653 -2.3002  1.2746
   59CHL1   C26 5539   4.329   0.049   5.040  0.0999  0.6871 -0.4446
   59CHL1  H26A 5540   4.321  -0.048   4.988  0.2660  1.1763 -1.4152
   59CHL1  H26B 5541   4.433   0.084   5.059  0.8664 -1.0134 -1.2940
   59CHL1  H26C 5542   4.279   0.042   5.138 -0.5894 -0.7350 -0.8847
   59CHL1   C27 5543   4.252   0.285   5.024  0.5762  0.6482  0.4594
   59CHL1  H27A 5544   4.204   0.367   4.967  0.7634  0.3588 -0.1179
   59CHL1  H27B 5545   4.193   0.261   5.115 -1.1099 -1.4560 -1.0942
   59CHL1  H27C 5546   4.351   0.317   5.064  0.4152 -0.2827  1.6898
   60CHL1    C3 5547   5.871   0.263   3.498  0.5064  0.3036  0.5499
   60CHL1    H3 5548   5.772   0.251   3.549 -0.0107 -1.2330 -0.7357
   60CHL1    O3 5549   5.847   0.260   3.359 -0.1216 -0.1724  0.2435
   60CHL1   H3' 5550   5.931   0.279   3.317 -0.5987 -0.6973 -0.9932
   60CHL1    C4 5551   5.937   0.393   3.539 -0.0344  0.5036 -0.4447
   60CHL1   H4A 5552   6.026   0.407   3.473 -0.8482  0.4252 -1.5756
   60CHL1   H4B 5553   5.867   0.475   3.513 -0.7482  0.1390  0.2793
   60CHL1    C5 5554   5.968   0.398   3.688  0.1371  0.5977  0.2002
   60CHL1    C6 5555   5.924   0.500   3.760  0.5562  0.4342  0.6577
   60CHL1    H6 5556   5.877   0.584   3.706  1.1726 -0.4519 -1.3836
   60CHL1    C7 5557   5.940   0.511   3.911  0.0600 -0.3647  0.5203
   60CHL1   H7A 5558   5.978   0.611   3.941 -1.0030 -0.0854  0.9820
   60CHL1   H7B 5559   5.845   0.512   3.968 -0.7467  0.4762 -0.8107
   60CHL1    C8 5560   6.023   0.393   3.969  0.6969  0.2008  0.5661
   60CHL1    H8 5561   6.126   0.432   3.958  0.3923  0.5358 -1.3273
   60CHL1   C14 5562   5.985   0.371   4.120  0.0177  0.2164  0.3101
   60CHL1   H14 5563   5.887   0.318   4.118  1.8172 -3.3456 -1.6769
   60CHL1   C15 5564   5.977   0.497   4.210 -0.8521  0.3406  0.6440
   60CHL1  H15A 5565   6.060   0.569   4.195 -0.9372  0.4390  0.6448
   60CHL1  H15B 5566   5.892   0.566   4.190 -0.5346  0.5114 -0.1652
   60CHL1   C16 5567   5.985   0.437   4.353 -0.1993 -1.1299 -0.3169
   60CHL1  H16A 5568   6.082   0.467   4.397 -1.1872 -0.7535  1.7426
   60CHL1  H16B 5569   5.900   0.467   4.417  0.4860 -1.9137  0.9921
   60CHL1   C17 5570   6.011   0.285   4.336 -0.9213  0.0856  0.2436
   60CHL1   H17 5571   5.909   0.241   4.336 -0.8571 -0.0645  0.0388
   60CHL1   C13 5572   6.065   0.264   4.194  0.1823 -0.3514  0.1939
   60CHL1   C18 5573   6.215   0.303   4.179 -0.5510 -0.0237  0.3854
   60CHL1  H18A 5574   6.247   0.324   4.075 -1.7440 -0.6006 -0.1222
   60CHL1  H18B 5575   6.242   0.399   4.228 -1.7727  0.9870 -0.8329
   60CHL1  H18C 5576   6.272   0.221   4.228  0.2928  0.8329  0.8682
   60CHL1   C12 5577   6.027   0.129   4.116  0.4732  0.0512  0.4947
   60CHL1  H12A 5578   6.083   0.042   4.155  1.4799  0.8235  0.8202
   60CHL1  H12B 5579   5.918   0.113   4.134  0.4951  0.1162  0.6801
   60CHL1   C11 5580   6.076   0.141   3.969  0.6294 -0.1662  1.1525
   60CHL1  H11A 5581   6.184   0.166   3.965  0.6614 -0.1502 -3.3723
   60CHL1  H11B 5582   6.049   0.050   3.911 -0.2944  0.6709  0.2133
   60CHL1    C9 5583   5.998   0.260   3.904 -0.0383 -0.2212 -0.4132
   60CHL1    H9 5584   5.888   0.242   3.914 -0.0915  0.8096  1.2139
   60CHL1   C10 5585   6.017   0.270   3.748 -0.0426  0.5798  0.3713
   60CHL1   C19 5586   6.168   0.277   3.718  0.2788  0.3354 -0.6150
   60CHL1  H19A 5587   6.183   0.266   3.608 -1.3773  1.6058 -0.9943
   60CHL1  H19B 5588   6.222   0.371   3.741  1.1770  0.0341 -1.4095
   60CHL1  H19C 5589   6.224   0.191   3.762  0.2391  0.6640  0.0858
   60CHL1    C1 5590   5.964   0.141   3.681  0.1907  0.0214 -0.3330
   60CHL1   H1A 5591   6.039   0.066   3.713 -0.6258 -0.3498  0.7810
   60CHL1   H1B 5592   5.864   0.117   3.723 -0.2524  1.4369 -0.5317
   60CHL1    C2 5593   5.948   0.139   3.532  0.1763 -0.1192 -0.0067
   60CHL1   H2A 5594   5.906   0.046   3.488  0.1912 -0.2359  0.2261
   60CHL1   H2B 5595   6.049   0.147   3.486  0.0993  0.4102 -0.0924
   60CHL1   C20 5596   6.093   0.220   4.450 -0.6073 -0.2137 -0.5594
   60CHL1   H20 5597   6.196   0.263   4.445 -1.3592  1.7876  0.1655
   60CHL1   C21 5598   6.100   0.070   4.421 -0.1042 -0.7380 -0.2513
   60CHL1  H21A 5599   6.183   0.039   4.354  1.6851 -0.4172  1.7075
   60CHL1  H21B 5600   6.004   0.038   4.375 -0.7779 -0.7535  1.1339
   60CHL1  H21C 5601   6.108   0.009   4.513 -0.3597 -0.4927 -0.0641
   60CHL1   C22 5602   6.045   0.246   4.596 -0.5669  0.3439  0.4557
   60CHL1  H22A 5603   6.095   0.175   4.665 -0.4096  1.3581  1.4158
   60CHL1  H22B 5604   6.056   0.353   4.624 -0.4762  0.1368  1.2342
   60CHL1   C23 5605   5.895   0.217   4.619  0.2582 -0.5868 -0.4644
   60CHL1  H23A 5606   5.836   0.310   4.611  1.0547 -0.0748 -0.5533
   60CHL1  H23B 5607   5.864   0.137   4.548  3.4070 -3.6782  1.3185
   60CHL1   C24 5608   5.862   0.171   4.763 -0.0569 -0.9552  0.2850
   60CHL1  H24A 5609   5.950   0.115   4.801 -0.8850 -0.8980  2.4464
   60CHL1  H24B 5610   5.864   0.256   4.834  0.3096 -0.0015 -0.8313
   60CHL1   C25 5611   5.731   0.086   4.765  0.4250  0.0721 -0.1578
   60CHL1   H25 5612   5.742   0.002   4.693 -0.8395  0.3260 -0.6738
   60CHL1   C26 5613   5.714   0.013   4.905 -0.2582 -0.1181  0.0705
   60CHL1  H26A 5614   5.802  -0.052   4.924  1.1990  1.0229 -2.2407
   60CHL1  H26B 5615   5.713   0.092   4.983  0.4114 -0.4551  0.4265
   60CHL1  H26C 5616   5.619  -0.042   4.920 -0.5035  0.0936 -0.6829
   60CHL1   C27 5617   5.603   0.177   4.734 -0.2397  1.0304  0.6107
   60CHL1  H27A 5618   5.597   0.231   4.637  1.3817  2.9455  1.5215
   60CHL1  H27B 5619   5.514   0.112   4.751  0.4831  0.0272  0.5994
   60CHL1  H27C 5620   5.599   0.257   4.811 -0.9358  0.0840  1.5969
   61CHL1    C3 5621   5.527   0.536   3.501  0.3147 -0.0449 -0.2732
   61CHL1    H3 5622   5.634   0.557   3.524  1.3745 -1.6331 -3.2126
   61CHL1    O3 5623   5.514   0.509   3.367 -0.1102 -0.1228 -0.1465
   61CHL1   H3' 5624   5.421   0.508   3.342  0.2924 -3.2613 -2.0380
   61CHL1    C4 5625   5.487   0.406   3.574  0.4080  0.1978  0.7786
   61CHL1   H4A 5626   5.381   0.383   3.551  0.3378  1.6362 -0.4866
   61CHL1   H4B 5627   5.530   0.316   3.527 -1.9708 -0.7480  0.2565
   61CHL1    C5 5628   5.508   0.416   3.726 -0.5169 -0.2786  0.3450
   61CHL1    C6 5629   5.576   0.331   3.800 -0.7340 -0.0520  0.1765
   61CHL1    H6 5630   5.623   0.240   3.761  0.6516  1.0382 -0.8035
   61CHL1    C7 5631   5.584   0.329   3.947  0.1426 -0.6595 -0.5077
   61CHL1   H7A 5632   5.551   0.230   3.988  2.1746 -0.5256  1.6630
   61CHL1   H7B 5633   5.688   0.344   3.983 -0.0677  0.2486 -0.2592
   61CHL1    C8 5634   5.505   0.443   4.020  0.2427  0.4607  0.5540
   61CHL1    H8 5635   5.404   0.403   4.043  1.0381 -1.1426  1.3514
   61CHL1   C14 5636   5.563   0.479   4.158  0.2602 -0.2340 -0.3562
   61CHL1   H14 5637   5.665   0.519   4.135 -0.4537  1.7900 -0.2312
   61CHL1   C15 5638   5.566   0.361   4.255 -0.5016 -0.6590  0.2008
   61CHL1  H15A 5639   5.471   0.303   4.260 -0.3769 -1.0396 -1.4261
   61CHL1  H15B 5640   5.652   0.297   4.228  2.5971  3.3601 -0.5045
   61CHL1   C16 5641   5.591   0.438   4.384  0.1403  0.3624 -0.0644
   61CHL1  H16A 5642   5.529   0.398   4.468 -0.2727  2.1962  0.5469
   61CHL1  H16B 5643   5.697   0.430   4.416 -0.1302 -2.2235  0.4070
   61CHL1   C17 5644   5.566   0.588   4.365  0.9827 -0.3699  0.0584
   61CHL1   H17 5645   5.666   0.636   4.353  0.2976  0.9897 -0.4354
   61CHL1   C13 5646   5.489   0.589   4.233 -0.6207 -0.5428 -0.0328
   61CHL1   C18 5647   5.342   0.545   4.261 -0.2843 -0.3542 -0.3200
   61CHL1  H18A 5648   5.338   0.460   4.333  0.2508 -0.1587 -0.0582
   61CHL1  H18B 5649   5.280   0.629   4.298 -0.3168 -0.4685 -0.1137
   61CHL1  H18C 5650   5.281   0.521   4.171 -2.9104  1.8387  0.7491
   61CHL1   C12 5651   5.492   0.713   4.146  0.8718 -1.0798 -0.4387
   61CHL1  H12A 5652   5.446   0.792   4.210  3.2241 -0.2211  0.2883
   61CHL1  H12B 5653   5.598   0.740   4.130  0.3237  2.4761  0.9688
   61CHL1   C11 5654   5.433   0.687   4.009  0.7617  0.1746 -0.0128
   61CHL1  H11A 5655   5.326   0.664   4.028  1.2717  0.7276  4.9433
   61CHL1  H11B 5656   5.460   0.776   3.948 -1.2523  0.7710 -0.0928
   61CHL1    C9 5657   5.499   0.570   3.932 -0.1037  0.2448 -0.0137
   61CHL1    H9 5658   5.602   0.608   3.916 -0.9143  4.3225  2.7483
   61CHL1   C10 5659   5.439   0.541   3.793  0.1096  0.2776  0.1743
   61CHL1   C19 5660   5.291   0.508   3.802 -0.1009  0.5719 -0.1141
   61CHL1  H19A 5661   5.232   0.585   3.857 -1.1781  0.9178 -1.7072
   61CHL1  H19B 5662   5.244   0.509   3.702 -0.6931  1.2154  0.1552
   61CHL1  H19C 5663   5.282   0.414   3.860  1.4505 -0.2378 -1.1211
   61CHL1    C1 5664   5.464   0.670   3.701  0.3838  0.1239 -0.4071
   61CHL1   H1A 5665   5.391   0.743   3.743  0.9873 -0.3807  1.6417
   61CHL1   H1B 5666   5.568   0.707   3.713 -0.2858  2.7982 -1.9627
   61CHL1    C2 5667   5.437   0.647   3.547  0.6831  0.3522 -0.0528
   61CHL1   H2A 5668   5.474   0.737   3.493  1.9271 -0.0451  0.1070
   61CHL1   H2B 5669   5.329   0.622   3.540  1.2566 -2.1414 -0.7345
   61CHL1   C20 5670   5.496   0.645   4.495 -0.6477 -0.0283  0.2402
   61CHL1   H20 5671   5.398   0.596   4.512 -0.7119  0.4867  1.4169
   61CHL1   C21 5672   5.468   0.792   4.464 -0.0028  0.1018 -0.8556
   61CHL1  H21A 5673   5.551   0.849   4.418  0.0815 -0.6593 -1.6789
   61CHL1  H21B 5674   5.465   0.848   4.560 -1.0107 -0.5467 -0.4911
   61CHL1  H21C 5675   5.377   0.799   4.401  0.4812 -0.3386 -1.6194
   61CHL1   C22 5676   5.578   0.631   4.634  0.3002  0.1930  0.4610
   61CHL1  H22A 5677   5.525   0.675   4.722 -1.1501 -0.4916 -0.0329
   61CHL1  H22B 5678   5.582   0.524   4.663 -0.1775 -0.1829 -0.7982
   61CHL1   C23 5679   5.712   0.715   4.641 -0.3915  0.1004 -0.3213
   61CHL1  H23A 5680   5.777   0.662   4.568 -0.1840  1.9335 -1.5321
   61CHL1  H23B 5681   5.685   0.818   4.611 -3.1448 -0.3257  0.4263
   61CHL1   C24 5682   5.776   0.708   4.780 -0.2512  0.2311 -0.4483
   61CHL1  H24A 5683   5.704   0.747   4.856 -0.0042 -1.1266  0.5258
   61CHL1  H24B 5684   5.800   0.602   4.802 -1.1332  0.2033  0.4617
   61CHL1   C25 5685   5.903   0.794   4.793  0.6363  0.2322  0.1078
   61CHL1   H25 5686   5.873   0.893   4.752  1.2833  0.1344 -0.6477
   61CHL1   C26 5687   5.959   0.820   4.934  0.0643 -0.0923  0.5524
   61CHL1  H26A 5688   6.048   0.886   4.932 -1.3336  1.8850 -0.1522
   61CHL1  H26B 5689   5.871   0.870   4.981 -0.4984  1.4076 -1.9444
   61CHL1  H26C 5690   5.984   0.725   4.986  2.8956  0.5681  0.5246
   61CHL1   C27 5691   6.011   0.736   4.703  0.1322  0.3470  0.5744
   61CHL1  H27A 5692   6.016   0.630   4.735  1.7764  0.4545  0.7815
   61CHL1  H27B 5693   5.987   0.736   4.595 -0.1218  2.7627  0.5839
   61CHL1  H27C 5694   6.117   0.768   4.715  0.9352 -0.8543 -2.3482
   62CHL1    C3 5695   1.104   1.185   3.776 -0.1368 -0.0169 -0.3560
   62CHL1    H3 5696   1.180   1.264   3.758 -0.0771  0.3584  1.3863
   62CHL1    O3 5697   1.012   1.177   3.671  0.3000 -0.0323 -0.3784
   62CHL1   H3' 5698   0.945   1.118   3.707  0.9132  0.0781  1.0038
   62CHL1    C4 5699   1.194   1.056   3.793  0.4703 -0.0294  0.4567
   62CHL1   H4A 5700   1.125   0.969   3.798  0.5927 -0.0633  1.7821
   62CHL1   H4B 5701   1.247   1.042   3.697 -1.2426 -0.3029 -0.4887
   62CHL1    C5 5702   1.277   1.050   3.916  0.3020  0.0698 -0.4965
   62CHL1    C6 5703   1.411   1.031   3.918  0.3909  0.2457 -0.1137
   62CHL1    H6 5704   1.456   1.031   3.818 -1.1571  1.3145 -0.8581
   62CHL1    C7 5705   1.488   1.000   4.044 -0.2595 -0.0743  0.8532
   62CHL1   H7A 5706   1.564   0.920   4.031 -1.8967 -1.2645 -2.8288
   62CHL1   H7B 5707   1.529   1.099   4.073 -1.8547  0.0194  3.0564
   62CHL1    C8 5708   1.399   0.965   4.166 -0.3143  0.5017 -0.4444
   62CHL1    H8 5709   1.364   0.861   4.146  0.4288  0.6182 -2.6502
   62CHL1   C14 5710   1.478   0.974   4.296  0.1219 -0.0229  0.2580
   62CHL1   H14 5711   1.525   1.075   4.288 -0.5401  0.2075 -0.9862
   62CHL1   C15 5712   1.598   0.878   4.311 -0.0510  0.0885  0.0954
   62CHL1  H15A 5713   1.577   0.777   4.270  2.3957  0.3882 -2.1289
   62CHL1  H15B 5714   1.692   0.914   4.263  1.5548 -2.2819  1.3102
   62CHL1   C16 5715   1.627   0.879   4.463 -0.7735 -0.4143  0.1458
   62CHL1  H16A 5716   1.624   0.773   4.498  1.0553 -1.0973 -1.5578
   62CHL1  H16B 5717   1.731   0.914   4.484 -1.1675  0.2594  1.0567
   62CHL1   C17 5718   1.515   0.971   4.527 -0.3520 -0.6699  0.2940
   62CHL1   H17 5719   1.554   1.075   4.522  1.0170 -1.2334 -1.9238
   62CHL1   C13 5720   1.399   0.969   4.431  0.1770 -0.2402  0.4999
   62CHL1   C18 5721   1.334   0.827   4.426  0.2742 -0.3481  0.8244
   62CHL1  H18A 5722   1.275   0.809   4.519  1.1062 -1.8289  1.0977
   62CHL1  H18B 5723   1.250   0.824   4.354 -1.3321  3.0427  2.2910
   62CHL1  H18C 5724   1.407   0.744   4.414 -1.1200 -1.4182 -0.6130
   62CHL1   C12 5725   1.299   1.083   4.432 -0.5448  0.3631 -0.2865
   62CHL1  H12A 5726   1.239   1.095   4.525 -0.9267 -2.2472 -0.1254
   62CHL1  H12B 5727   1.356   1.178   4.425  0.1391 -0.1011 -1.2431
   62CHL1   C11 5728   1.207   1.070   4.308 -0.1646 -0.1394  0.9577
   62CHL1  H11A 5729   1.138   0.985   4.329  0.2141 -0.1443  2.2377
   62CHL1  H11B 5730   1.141   1.159   4.298  0.5027  0.2312 -0.3395
   62CHL1    C9 5731   1.287   1.069   4.170  0.2431  0.5466 -0.5223
   62CHL1    H9 5732   1.334   1.170   4.168  1.6294 -0.0177  1.2799
   62CHL1   C10 5733   1.203   1.064   4.048  0.2769 -0.6114 -0.5374
   62CHL1   C19 5734   1.116   0.933   4.062 -0.0674 -0.8160 -0.9160
   62CHL1  H19A 5735   1.051   0.908   3.976 -0.9618 -1.3350 -0.1152
   62CHL1  H19B 5736   1.170   0.842   4.097 -1.4380 -1.5946 -0.7158
   62CHL1  H19C 5737   1.034   0.955   4.135  0.5498  0.5709 -0.6220
   62CHL1    C1 5738   1.113   1.191   4.037 -0.1131 -0.5731  0.0754
   62CHL1   H1A 5739   1.046   1.198   4.125 -0.5899  2.4531 -0.4202
   62CHL1   H1B 5740   1.186   1.274   4.035 -1.4778  0.7270  1.4151
   62CHL1    C2 5741   1.022   1.194   3.910 -0.9447 -0.3315 -0.9577
   62CHL1   H2A 5742   0.972   1.293   3.906  2.0446  1.3652  0.2877
   62CHL1   H2B 5743   0.948   1.111   3.917  1.1604 -2.2675 -0.7488
   62CHL1   C20 5744   1.496   0.934   4.678 -0.4386  0.7393 -1.0518
   62CHL1   H20 5745   1.495   0.823   4.685 -0.5639  0.8576  2.1019
   62CHL1   C21 5746   1.360   0.989   4.730 -0.3750  0.3856 -0.5741
   62CHL1  H21A 5747   1.355   0.986   4.841  1.4054  0.9968 -0.4506
   62CHL1  H21B 5748   1.261   0.956   4.691 -2.5680  2.4096  2.6862
   62CHL1  H21C 5749   1.371   1.098   4.710  0.8740  0.5567  0.8629
   62CHL1   C22 5750   1.620   0.981   4.768  0.0190 -0.2317  0.6786
   62CHL1  H22A 5751   1.716   0.933   4.739  0.0300  0.1114  0.1121
   62CHL1  H22B 5752   1.623   1.092   4.769 -3.6342 -0.0048  0.2694
   62CHL1   C23 5753   1.607   0.955   4.917  0.0175  0.2001 -0.8348
   62CHL1  H23A 5754   1.522   1.014   4.957 -0.6106 -0.1611 -1.6049
   62CHL1  H23B 5755   1.574   0.851   4.938 -2.2363  0.9155 -0.5629
   62CHL1   C24 5756   1.744   0.986   4.988  0.3149  0.1703 -0.1779
   62CHL1  H24A 5757   1.821   0.947   4.918  1.2353  2.4734 -0.5239
   62CHL1  H24B 5758   1.748   1.097   4.987  0.9001  0.1653  0.8497
   62CHL1   C25 5759   1.779   0.919   5.127 -0.4430 -1.0038  0.5012
   62CHL1   H25 5760   1.763   0.809   5.128  2.8944 -1.6393 -1.3652
   62CHL1   C26 5761   1.921   0.947   5.168 -0.0631  0.8551  0.8388
   62CHL1  H26A 5762   1.990   0.880   5.112  0.4192  1.4925  0.6653
   62CHL1  H26B 5763   1.949   1.053   5.151 -1.7992  1.3051  0.6085
   62CHL1  H26C 5764   1.930   0.932   5.277 -1.2936  1.2175  1.0019
   62CHL1   C27 5765   1.676   0.980   5.228 -0.0400 -0.4229  0.4389
   62CHL1  H27A 5766   1.581   0.929   5.199 -0.0816  0.0407 -0.2735
   62CHL1  H27B 5767   1.698   0.957   5.334 -1.4865 -1.6560  0.5129
   62CHL1  H27C 5768   1.671   1.090   5.213 -0.9403 -0.4539  0.4724
   63CHL1    C3 5769   5.518   6.876   3.574 -0.2700  0.1672 -0.0232
   63CHL1    H3 5770   5.422   6.839   3.616 -0.4688  1.4818  0.7524
   63CHL1    O3 5771   5.515   6.911   3.437 -0.1586  0.2516 -0.3251
   63CHL1   H3' 5772   5.571   6.841   3.403 -0.1670 -0.1222  0.4130
   63CHL1    C4 5773   5.560   6.995   3.651 -0.3620 -0.0254 -0.1361
   63CHL1   H4A 5774   5.661   7.027   3.621 -0.7460 -1.5447 -3.4892
   63CHL1   H4B 5775   5.504   7.084   3.616 -0.3029  0.1757  0.2677
   63CHL1    C5 5776   5.555   6.969   3.799 -0.4934  0.1539 -0.5915
   63CHL1    C6 5777   5.473   7.032   3.878  0.4731 -0.0074 -0.4058
   63CHL1    H6 5778   5.410   7.116   3.846  1.0178  0.8753  0.7749
   63CHL1    C7 5779   5.459   7.001   4.025 -0.7675 -0.1723  0.8092
   63CHL1   H7A 5780   5.439   7.089   4.090 -0.2264 -0.5022  1.4252
   63CHL1   H7B 5781   5.381   6.923   4.040  0.8468 -1.8059  1.0172
   63CHL1    C8 5782   5.592   6.929   4.080  0.8438  0.4339 -0.5515
   63CHL1    H8 5783   5.675   7.003   4.084 -0.2784  1.7337 -0.5350
   63CHL1   C14 5784   5.561   6.880   4.222  0.3736 -0.1542 -0.6179
   63CHL1   H14 5785   5.473   6.813   4.216 -0.5325  0.7316  1.4091
   63CHL1   C15 5786   5.521   6.989   4.336 -0.3260 -0.2880  0.1587
   63CHL1  H15A 5787   5.585   7.079   4.330 -0.1078 -0.4988 -0.7988
   63CHL1  H15B 5788   5.413   7.016   4.330 -0.4976 -0.8824  0.4557
   63CHL1   C16 5789   5.554   6.909   4.465 -0.3519  0.7227  0.8243
   63CHL1  H16A 5790   5.640   6.961   4.511  0.8181 -1.5382  1.3373
   63CHL1  H16B 5791   5.468   6.902   4.536 -1.5065  0.3206 -0.5535
   63CHL1   C17 5792   5.607   6.771   4.427 -0.5088  0.4611 -0.7267
   63CHL1   H17 5793   5.523   6.700   4.415  0.3483 -0.8969  0.8889
   63CHL1   C13 5794   5.668   6.788   4.290  0.2050 -0.7869  0.3011
   63CHL1   C18 5795   5.803   6.861   4.298  0.7393  0.1924 -0.2436
   63CHL1  H18A 5796   5.879   6.784   4.322  0.3499  0.1370  0.8465
   63CHL1  H18B 5797   5.832   6.909   4.202  1.7341  0.9958  0.4407
   63CHL1  H18C 5798   5.800   6.937   4.378  0.4796  0.0409 -0.1050
   63CHL1   C12 5799   5.677   6.659   4.198  0.3617  0.5231 -0.8025
   63CHL1  H12A 5800   5.750   6.587   4.240 -0.3598  1.0987  1.5725
   63CHL1  H12B 5801   5.575   6.615   4.194  0.0116  0.6760  3.2079
   63CHL1   C11 5802   5.717   6.705   4.057  0.5665 -0.2526 -0.1246
   63CHL1  H11A 5803   5.821   6.738   4.075  0.1209 -0.1783  2.7667
   63CHL1  H11B 5804   5.731   6.612   3.998 -1.1294 -1.2640  0.9877
   63CHL1    C9 5805   5.617   6.807   3.994  0.1264 -0.1646  0.7934
   63CHL1    H9 5806   5.521   6.754   3.977  1.3209 -1.9123 -0.9649
   63CHL1   C10 5807   5.649   6.851   3.851  0.5479 -0.1795  0.3419
   63CHL1   C19 5808   5.798   6.911   3.857 -0.2069  0.6596 -0.3422
   63CHL1  H19A 5809   5.873   6.829   3.869  0.4079  0.7972 -2.6995
   63CHL1  H19B 5810   5.819   6.953   3.756  1.9002  2.3510  0.7247
   63CHL1  H19C 5811   5.819   6.991   3.931 -0.6788  0.5135 -0.0463
   63CHL1    C1 5812   5.637   6.728   3.754  0.7036  0.7332 -0.0952
   63CHL1   H1A 5813   5.724   6.659   3.765  0.6654  0.8339  0.9385
   63CHL1   H1B 5814   5.543   6.672   3.771  1.7075 -2.1953 -3.0684
   63CHL1    C2 5815   5.627   6.770   3.604 -0.3763 -0.2445  0.2410
   63CHL1   H2A 5816   5.595   6.680   3.548 -0.6551  0.4081 -0.6667
   63CHL1   H2B 5817   5.726   6.793   3.559 -0.6944  0.0338 -0.3263
   63CHL1   C20 5818   5.691   6.708   4.544 -0.7170  0.7992  0.5507
   63CHL1   H20 5819   5.799   6.731   4.534 -0.2817 -1.6082 -1.0399
   63CHL1   C21 5820   5.701   6.556   4.527 -0.1392  0.1920 -0.2431
   63CHL1  H21A 5821   5.597   6.517   4.535 -0.1194  0.3435  0.9076
   63CHL1  H21B 5822   5.753   6.499   4.607 -1.6558 -1.1359 -0.1497
   63CHL1  H21C 5823   5.737   6.525   4.426  0.5856  3.3101 -1.0458
   63CHL1   C22 5824   5.656   6.736   4.691 -0.0445 -0.4938  0.8409
   63CHL1  H22A 5825   5.634   6.844   4.706 -0.8365 -0.7710  1.8444
   63CHL1  H22B 5826   5.559   6.683   4.704 -0.7015  0.1894 -0.8767
   63CHL1   C23 5827   5.752   6.688   4.795  0.1813  0.0807  0.3404
   63CHL1  H23A 5828   5.791   6.585   4.776 -0.2182  0.4259 -3.0411
   63CHL1  H23B 5829   5.846   6.748   4.792  0.2172 -0.0071 -0.7907
   63CHL1   C24 5830   5.693   6.694   4.934  0.1161 -0.0756  0.2605
   63CHL1  H24A 5831   5.641   6.792   4.930  0.5758  0.1349 -0.9429
   63CHL1  H24B 5832   5.623   6.609   4.949  0.3413 -0.1811  0.7273
   63CHL1   C25 5833   5.806   6.710   5.048  0.4130 -0.0145  0.3265
   63CHL1   H25 5834   5.878   6.790   5.022  0.7181 -0.3780  0.0452
   63CHL1   C26 5835   5.737   6.748   5.181  0.0967  0.0896 -0.2212
   63CHL1  H26A 5836   5.813   6.758   5.261 -0.3631  2.1724  0.0152
   63CHL1  H26B 5837   5.687   6.846   5.165  0.0731  0.1818  0.4102
   63CHL1  H26C 5838   5.663   6.673   5.215 -1.5282  1.2678 -0.9738
   63CHL1   C27 5839   5.900   6.589   5.057  0.2879  0.5812  0.4671
   63CHL1  H27A 5840   5.975   6.601   5.138  0.4516  3.0091  0.0415
   63CHL1  H27B 5841   5.839   6.497   5.068  1.2924 -0.0722  0.6845
   63CHL1  H27C 5842   5.953   6.571   4.960  2.0050 -0.8352  1.6059
   64CHL1    C3 5843   1.964   4.247   6.924  0.3669 -0.0091  0.6792
   64CHL1    H3 5844   1.910   4.337   6.960 -0.0489 -0.2013  0.5491
   64CHL1    O3 5845   1.994   4.179   7.049 -0.3657 -0.0285  0.6938
   64CHL1   H3' 5846   2.066   4.227   7.089  2.0728 -1.7102 -1.3940
   64CHL1    C4 5847   1.868   4.175   6.824 -0.2689 -0.3930  0.3222
   64CHL1   H4A 5848   1.911   4.077   6.793  3.7108  1.6870 -1.4515
   64CHL1   H4B 5849   1.771   4.154   6.874 -0.4238 -2.6586 -0.8158
   64CHL1    C5 5850   1.848   4.254   6.694 -0.9445 -0.2591 -0.1319
   64CHL1    C6 5851   1.724   4.282   6.655  0.1899 -0.1411  0.7960
   64CHL1    H6 5852   1.642   4.235   6.710 -1.4480  2.0470  0.3417
   64CHL1    C7 5853   1.694   4.349   6.524  0.0215 -0.1314 -0.2431
   64CHL1   H7A 5854   1.607   4.304   6.473 -2.7008  1.8354  2.2735
   64CHL1   H7B 5855   1.663   4.455   6.542  3.6945  1.3599 -1.6812
   64CHL1    C8 5856   1.819   4.371   6.436  0.1502  1.0890  0.2630
   64CHL1    H8 5857   1.831   4.265   6.404 -1.7284  0.9385 -0.0334
   64CHL1   C14 5858   1.785   4.467   6.331  0.5838  0.3011 -0.1862
   64CHL1   H14 5859   1.770   4.568   6.373  0.3625 -0.1419  0.8447
   64CHL1   C15 5860   1.657   4.444   6.251  0.0533 -0.0005 -0.2526
   64CHL1  H15A 5861   1.634   4.336   6.234  0.2367  0.2225 -2.1665
   64CHL1  H15B 5862   1.576   4.500   6.302  0.0841  0.3742 -0.6136
   64CHL1   C16 5863   1.684   4.506   6.117 -0.0089  0.3357  0.3772
   64CHL1  H16A 5864   1.681   4.418   6.049 -1.0596  0.1024  0.7225
   64CHL1  H16B 5865   1.613   4.586   6.088  0.2034  0.5839  0.5291
   64CHL1   C17 5866   1.825   4.564   6.119  0.4758 -0.5546 -0.6243
   64CHL1   H17 5867   1.811   4.661   6.170  2.0459 -1.1048  0.9341
   64CHL1   C13 5868   1.901   4.478   6.230  0.6142  0.6410  0.4706
   64CHL1   C18 5869   1.926   4.340   6.169  1.0818  0.3360  0.5645
   64CHL1  H18A 5870   1.831   4.297   6.130  2.2265 -0.3297 -1.6672
   64CHL1  H18B 5871   1.991   4.346   6.079 -0.7227  0.4943 -0.7876
   64CHL1  H18C 5872   1.982   4.274   6.238  1.5679  1.1782  0.9912
   64CHL1   C12 5873   2.024   4.537   6.299 -0.7480  0.2026  0.0965
   64CHL1  H12A 5874   2.108   4.551   6.228 -0.2333 -1.2260  0.3956
   64CHL1  H12B 5875   1.997   4.641   6.329 -0.5308  0.0927  0.7012
   64CHL1   C11 5876   2.064   4.456   6.418 -0.3874 -0.2380  0.0049
   64CHL1  H11A 5877   2.116   4.365   6.382  1.9781 -0.2758  3.1787
   64CHL1  H11B 5878   2.133   4.507   6.488 -2.4060  1.3216  0.9759
   64CHL1    C9 5879   1.941   4.414   6.509  0.5576 -0.0054  0.2763
   64CHL1    H9 5880   1.908   4.506   6.561  1.8517  0.6948 -0.0902
   64CHL1   C10 5881   1.977   4.314   6.629 -0.2962 -0.7636  0.5373
   64CHL1   C19 5882   2.063   4.195   6.572 -0.0193 -0.7352 -0.9651
   64CHL1  H19A 5883   2.016   4.166   6.476 -4.0361 -2.0574  1.1274
   64CHL1  H19B 5884   2.163   4.234   6.543  1.0316  1.0477  4.0314
   64CHL1  H19C 5885   2.071   4.100   6.629  0.8158  0.2274  0.6070
   64CHL1    C1 5886   2.071   4.385   6.731 -0.0139  0.1583  0.9760
   64CHL1   H1A 5887   2.166   4.406   6.678  0.2119  0.3306  1.4411
   64CHL1   H1B 5888   2.024   4.478   6.769  0.1370  0.3506  0.6918
   64CHL1    C2 5889   2.094   4.294   6.855 -0.2514  0.5626 -0.1686
   64CHL1   H2A 5890   2.167   4.344   6.921  1.3502 -0.2556 -1.2691
   64CHL1   H2B 5891   2.157   4.210   6.819  1.0192  2.0760 -1.6371
   64CHL1   C20 5892   1.887   4.590   5.976  0.5804  0.0229  0.2811
   64CHL1   H20 5893   1.951   4.504   5.947 -1.1277 -0.5417 -2.1462
   64CHL1   C21 5894   1.972   4.712   5.993  0.2606  0.2873 -0.1025
   64CHL1  H21A 5895   2.045   4.707   6.077 -0.0158  0.9700  0.1869
   64CHL1  H21B 5896   1.911   4.804   6.008  0.7306  0.4664  0.8200
   64CHL1  H21C 5897   2.036   4.728   5.904  0.4355  0.2221  0.0108
   64CHL1   C22 5898   1.789   4.606   5.852  0.2749  0.4207  1.4785
   64CHL1  H22A 5899   1.716   4.523   5.842  0.6277  0.3555 -1.1923
   64CHL1  H22B 5900   1.734   4.702   5.861  0.8702  0.6720  2.6729
   64CHL1   C23 5901   1.861   4.608   5.716  0.1652 -0.7234  0.0095
   64CHL1  H23A 5902   1.930   4.694   5.707  1.2571 -1.6709 -1.1344
   64CHL1  H23B 5903   1.923   4.516   5.718 -0.2914 -1.0386 -0.1051
   64CHL1   C24 5904   1.766   4.594   5.597 -0.0603  0.2610  0.1291
   64CHL1  H24A 5905   1.831   4.593   5.506 -0.3657 -1.4418 -0.1113
   64CHL1  H24B 5906   1.720   4.496   5.621 -0.3904  0.2992 -0.3258
   64CHL1   C25 5907   1.661   4.705   5.580 -0.3789 -0.4124 -0.2086
   64CHL1   H25 5908   1.649   4.765   5.673 -0.9373  1.0990 -1.2147
   64CHL1   C26 5909   1.694   4.809   5.472  0.0438  0.8624 -0.4329
   64CHL1  H26A 5910   1.693   4.761   5.372 -0.8388 -1.4693  0.6284
   64CHL1  H26B 5911   1.618   4.890   5.482  0.7059  1.2374  2.2577
   64CHL1  H26C 5912   1.792   4.855   5.494  1.3903 -2.1690  0.4052
   64CHL1   C27 5913   1.533   4.639   5.549  0.7773  0.4433 -0.5653
   64CHL1  H27A 5914   1.552   4.579   5.458  1.5438 -1.0684  0.5459
   64CHL1  H27B 5915   1.484   4.579   5.628  0.4348 -0.3476 -1.3600
   64CHL1  H27C 5916   1.455   4.714   5.525 -2.0078 -1.9822  0.3340
   65CHL1    C3 5917   6.397   1.265   3.378  0.4400 -0.3066  0.9551
   65CHL1    H3 5918   6.287   1.281   3.380  0.1262 -1.4324 -1.9864
   65CHL1    O3 5919   6.431   1.235   3.239  0.0969  0.0708 -0.0956
   65CHL1   H3' 5920   6.365   1.174   3.207 -2.5023  1.9300  1.3714
   65CHL1    C4 5921   6.465   1.392   3.430 -0.8526  0.1407  0.3305
   65CHL1   H4A 5922   6.572   1.380   3.404 -1.7809 -1.9746 -3.1311
   65CHL1   H4B 5923   6.424   1.475   3.368  0.6557  0.4729 -0.2520
   65CHL1    C5 5924   6.442   1.416   3.579 -0.0056 -0.6171  0.7666
   65CHL1    C6 5925   6.396   1.532   3.626  0.0192 -0.1571 -0.1283
   65CHL1    H6 5926   6.368   1.610   3.554  1.1979 -0.7947 -1.3238
   65CHL1    C7 5927   6.396   1.563   3.774  0.5745 -0.2524 -0.2220
   65CHL1   H7A 5928   6.433   1.667   3.791 -0.8771  0.0454  1.5048
   65CHL1   H7B 5929   6.296   1.585   3.818 -1.1351 -0.8963 -3.4945
   65CHL1    C8 5930   6.472   1.461   3.863  0.0785  0.3090 -0.5718
   65CHL1    H8 5931   6.581   1.483   3.860  0.1582  0.5508  1.9837
   65CHL1   C14 5932   6.414   1.476   4.002 -0.9332  0.0688  0.7637
   65CHL1   H14 5933   6.307   1.446   4.003 -1.0369  0.3809 -0.2625
   65CHL1   C15 5934   6.414   1.615   4.075  0.5723  0.5142  0.2031
   65CHL1  H15A 5935   6.508   1.657   4.034  0.6126  0.6381  0.4202
   65CHL1  H15B 5936   6.327   1.676   4.044  0.1098 -0.8566 -1.3464
   65CHL1   C16 5937   6.406   1.580   4.223  0.8077 -0.4714 -0.7430
   65CHL1  H16A 5938   6.495   1.626   4.271  0.6568 -0.2453 -0.6839
   65CHL1  H16B 5939   6.314   1.614   4.275  1.1861 -1.9630  1.0302
   65CHL1   C17 5940   6.414   1.424   4.238 -0.4246  0.1239  0.1149
   65CHL1   H17 5941   6.312   1.380   4.234 -0.4274  0.0948  0.5219
   65CHL1   C13 5942   6.479   1.373   4.108  0.3094 -0.1605 -0.2181
   65CHL1   C18 5943   6.630   1.410   4.119  0.7062 -0.5196 -0.5460
   65CHL1  H18A 5944   6.644   1.512   4.160  1.3896 -2.1003  3.5375
   65CHL1  H18B 5945   6.674   1.339   4.192 -1.4436 -1.1470  0.2105
   65CHL1  H18C 5946   6.689   1.398   4.025  1.5470 -0.4154 -0.0408
   65CHL1   C12 5947   6.449   1.225   4.052  0.3528 -0.6166  0.8923
   65CHL1  H12A 5948   6.494   1.145   4.114  1.7903  0.1203  0.8426
   65CHL1  H12B 5949   6.339   1.209   4.042  0.3482 -0.2907  0.3629
   65CHL1   C11 5950   6.508   1.201   3.910  0.3829 -0.0454  0.5973
   65CHL1  H11A 5951   6.618   1.216   3.915  0.4371  0.2674 -1.1494
   65CHL1  H11B 5952   6.476   1.102   3.870 -2.1257  0.8395  0.2918
   65CHL1    C9 5953   6.455   1.316   3.812  0.4733 -0.5946 -0.2488
   65CHL1    H9 5954   6.345   1.301   3.811  0.2751  0.7589  0.0086
   65CHL1   C10 5955   6.491   1.303   3.663 -0.1107  0.2810 -0.3270
   65CHL1   C19 5956   6.648   1.300   3.649  0.0195  0.9585 -0.1164
   65CHL1  H19A 5957   6.683   1.270   3.548 -0.9617 -1.5237  0.2136
   65CHL1  H19B 5958   6.693   1.399   3.670 -0.0603  0.8422  0.6613
   65CHL1  H19C 5959   6.692   1.232   3.725  1.4763  1.8776 -0.1140
   65CHL1    C1 5960   6.422   1.173   3.611 -0.0696 -0.2267  0.7148
   65CHL1   H1A 5961   6.472   1.086   3.659  0.6831 -0.1499  0.0959
   65CHL1   H1B 5962   6.313   1.187   3.624  0.0932  0.3908  1.5726
   65CHL1    C2 5963   6.446   1.147   3.460  0.3999 -0.4510  0.6617
   65CHL1   H2A 5964   6.398   1.055   3.420  0.1420 -0.2310  0.4631
   65CHL1   H2B 5965   6.555   1.128   3.455  0.6108 -0.0164  2.5941
   65CHL1   C20 5966   6.470   1.379   4.371 -1.0671 -0.7208 -0.7053
   65CHL1   H20 5967   6.562   1.430   4.407 -1.9489 -1.7903  3.6659
   65CHL1   C21 5968   6.480   1.225   4.382  0.7699  0.2981  0.1822
   65CHL1  H21A 5969   6.375   1.187   4.383  1.3937 -1.4934  0.2968
   65CHL1  H21B 5970   6.529   1.189   4.475  2.6636 -1.0568 -1.2785
   65CHL1  H21C 5971   6.541   1.183   4.299  0.2516  1.1295 -0.6442
   65CHL1   C22 5972   6.369   1.424   4.484 -0.1231 -1.1646 -0.4379
   65CHL1  H22A 5973   6.369   1.535   4.490  1.8708 -1.2031  1.6145
   65CHL1  H22B 5974   6.264   1.391   4.465 -0.9283  0.5357  0.7829
   65CHL1   C23 5975   6.405   1.396   4.630 -1.0193  0.2794  0.6258
   65CHL1  H23A 5976   6.413   1.286   4.633  1.3326  0.3082 -1.3466
   65CHL1  H23B 5977   6.511   1.419   4.657 -1.3525  0.1307  2.1789
   65CHL1   C24 5978   6.304   1.443   4.728  0.2451  0.3138 -0.2147
   65CHL1  H24A 5979   6.292   1.553   4.715 -0.8413 -0.1143 -4.3691
   65CHL1  H24B 5980   6.210   1.393   4.694  0.4932  2.2249 -4.3519
   65CHL1   C25 5981   6.340   1.409   4.872  0.6447 -0.3316  0.1401
   65CHL1   H25 5982   6.385   1.308   4.863 -0.9061 -1.3110  2.5010
   65CHL1   C26 5983   6.438   1.509   4.929 -0.3221 -0.0449  0.2705
   65CHL1  H26A 5984   6.380   1.596   4.966  0.8169  1.6047 -1.6272
   65CHL1  H26B 5985   6.508   1.462   5.000  2.2289  0.2242 -1.9152
   65CHL1  H26C 5986   6.502   1.543   4.845  0.1665 -1.7642 -0.0938
   65CHL1   C27 5987   6.213   1.397   4.944 -0.0122 -0.2009 -0.1317
   65CHL1  H27A 5988   6.159   1.301   4.927 -1.4935  0.8159 -1.4353
   65CHL1  H27B 5989   6.229   1.395   5.054 -0.0934  0.8115 -0.0944
   65CHL1  H27C 5990   6.149   1.485   4.925  1.0007  0.5694 -0.0387
   66CHL1    C3 5991   5.494   1.623   3.197 -0.0028 -0.6390 -0.2167
   66CHL1    H3 5992   5.421   1.538   3.195  0.0959 -0.7234 -1.8753
   66CHL1    O3 5993   5.510   1.675   3.066 -0.5715  0.0321 -0.2641
   66CHL1   H3' 5994   5.604   1.691   3.049 -0.4916  0.3148  0.4255
   66CHL1    C4 5995   5.448   1.736   3.290 -0.1672  0.3516  0.0227
   66CHL1   H4A 5996   5.528   1.813   3.286 -0.2451  0.4021 -2.7193
   66CHL1   H4B 5997   5.360   1.784   3.242  1.4845  2.2089 -1.3136
   66CHL1    C5 5998   5.423   1.682   3.435  0.2814  0.1426 -0.5903
   66CHL1    C6 5999   5.302   1.698   3.495  0.1037 -0.2990 -0.6751
   66CHL1    H6 6000   5.228   1.759   3.441 -0.5043  0.1089  0.5783
   66CHL1    C7 6001   5.265   1.649   3.635  0.6389  0.1740 -0.0580
   66CHL1   H7A 6002   5.214   1.736   3.683  0.6326  1.2857 -1.9863
   66CHL1   H7B 6003   5.194   1.565   3.625  0.4561  0.3744 -0.4776
   66CHL1    C8 6004   5.383   1.602   3.713 -0.4187 -0.0635 -0.6169
   66CHL1    H8 6005   5.433   1.687   3.763 -2.8068  1.2408 -0.2657
   66CHL1   C14 6006   5.330   1.508   3.828  0.2361  0.6528 -0.3053
   66CHL1   H14 6007   5.281   1.423   3.776 -0.1676  1.0218 -0.5271
   66CHL1   C15 6008   5.227   1.559   3.930  0.5155 -0.6078 -0.0352
   66CHL1  H15A 6009   5.264   1.656   3.970  0.1249 -0.0415 -1.0156
   66CHL1  H15B 6010   5.127   1.571   3.882 -0.1473  1.4235  1.6926
   66CHL1   C16 6011   5.219   1.443   4.032  0.1925 -0.1833 -0.6780
   66CHL1  H16A 6012   5.210   1.493   4.131 -0.0025 -1.4663 -0.0301
   66CHL1  H16B 6013   5.129   1.380   4.016 -0.3050  0.0086  1.1096
   66CHL1   C17 6014   5.347   1.354   4.010  0.5856  0.2237 -0.7938
   66CHL1   H17 6015   5.310   1.268   3.950  2.8253 -1.2348 -0.2125
   66CHL1   C13 6016   5.438   1.436   3.916 -0.0904 -1.1296  0.6835
   66CHL1   C18 6017   5.516   1.551   3.995 -0.5037 -0.3305 -0.2596
   66CHL1  H18A 6018   5.462   1.606   4.075  2.6881  1.3684  0.9023
   66CHL1  H18B 6019   5.600   1.512   4.056 -1.1144 -0.4334  0.5282
   66CHL1  H18C 6020   5.556   1.629   3.927 -0.2090 -1.6505 -1.6762
   66CHL1   C12 6021   5.540   1.362   3.828  0.0265 -1.0939 -0.4855
   66CHL1  H12A 6022   5.629   1.334   3.888  2.0221  0.7901 -2.3359
   66CHL1  H12B 6023   5.490   1.276   3.780 -0.9346 -1.6576  1.4385
   66CHL1   C11 6024   5.586   1.453   3.714 -1.4202 -0.0413  0.5589
   66CHL1  H11A 6025   5.653   1.531   3.755 -0.2970  1.0881 -3.0592
   66CHL1  H11B 6026   5.645   1.392   3.642 -2.5622  0.4478 -0.8395
   66CHL1    C9 6027   5.482   1.520   3.629  0.1325 -0.0157 -0.4250
   66CHL1    H9 6028   5.416   1.443   3.584 -0.7251  0.9146 -0.7986
   66CHL1   C10 6029   5.535   1.598   3.505  0.6894 -1.0693  0.0058
   66CHL1   C19 6030   5.633   1.708   3.551 -0.4513 -0.2154 -0.2980
   66CHL1  H19A 6031   5.661   1.783   3.474  1.4416 -0.5189  0.0580
   66CHL1  H19B 6032   5.591   1.774   3.629  0.9810  2.7543 -1.8683
   66CHL1  H19C 6033   5.728   1.663   3.587 -0.3334  2.5653  3.3955
   66CHL1    C1 6034   5.608   1.507   3.398  0.2928  0.7559  0.2341
   66CHL1   H1A 6035   5.710   1.482   3.433  0.0769 -0.5499 -0.0538
   66CHL1   H1B 6036   5.547   1.415   3.388  2.3014 -0.5514 -0.4415
   66CHL1    C2 6037   5.621   1.565   3.256 -0.3961  0.2297  0.0424
   66CHL1   H2A 6038   5.647   1.477   3.193 -1.2472 -0.3671  0.5007
   66CHL1   H2B 6039   5.696   1.647   3.246  0.4214 -0.5713 -0.5813
   66CHL1   C20 6040   5.409   1.288   4.138  0.5752  0.2965  0.0672
   66CHL1   H20 6041   5.495   1.353   4.164  0.8231 -0.4942  1.3145
   66CHL1   C21 6042   5.462   1.157   4.095  0.2476 -1.1460  0.3120
   66CHL1  H21A 6043   5.505   1.105   4.183  1.6372 -0.9907 -0.2532
   66CHL1  H21B 6044   5.544   1.162   4.020 -0.5162  2.0391 -0.4557
   66CHL1  H21C 6045   5.385   1.094   4.044 -0.5922  1.2339 -1.5537
   66CHL1   C22 6046   5.318   1.265   4.263 -0.0841  0.1294  0.4343
   66CHL1  H22A 6047   5.250   1.352   4.269  0.7278  0.8672 -0.6266
   66CHL1  H22B 6048   5.251   1.179   4.240 -1.1074  1.2805 -1.0873
   66CHL1   C23 6049   5.386   1.236   4.394 -0.3279  0.4113 -0.1503
   66CHL1  H23A 6050   5.456   1.150   4.386  1.0945  1.5392 -0.3650
   66CHL1  H23B 6051   5.459   1.317   4.415  1.7218 -1.8439  2.0817
   66CHL1   C24 6052   5.286   1.205   4.507 -0.0502  0.3277  0.2863
   66CHL1  H24A 6053   5.224   1.297   4.516  1.9471  1.6650  1.1963
   66CHL1  H24B 6054   5.222   1.122   4.472 -0.9532  1.4967 -0.9267
   66CHL1   C25 6055   5.341   1.185   4.646  0.0530 -0.1071  0.4013
   66CHL1   H25 6056   5.448   1.164   4.627  0.4608  0.0868  2.2816
   66CHL1   C26 6057   5.339   1.311   4.729  0.3501 -0.5537  0.7402
   66CHL1  H26A 6058   5.239   1.350   4.755  0.3888  0.2591 -0.2371
   66CHL1  H26B 6059   5.381   1.286   4.829  0.4311 -2.3014  0.3005
   66CHL1  H26C 6060   5.394   1.389   4.672  1.5104 -1.1759  0.9757
   66CHL1   C27 6061   5.273   1.062   4.722 -0.3116 -0.4243  0.6425
   66CHL1  H27A 6062   5.168   1.084   4.747 -0.0805 -0.0112  1.2652
   66CHL1  H27B 6063   5.332   1.031   4.811  1.2770  1.1040  0.1847
   66CHL1  H27C 6064   5.279   0.978   4.650 -1.4565 -0.0189  0.0664
   67CHL1    C3 6065   6.255   6.906   3.522 -0.9224 -1.1596 -0.6064
   67CHL1    H3 6066   6.209   6.994   3.572 -1.1943 -1.8865  0.4757
   67CHL1    O3 6067   6.277   6.916   3.384 -0.4538  0.2228  0.5388
   67CHL1   H3' 6068   6.288   6.823   3.363 -2.5707  0.0562 -0.0420
   67CHL1    C4 6069   6.397   6.876   3.590 -0.4863  0.9124 -0.5702
   67CHL1   H4A 6070   6.417   6.779   3.540  1.1151  1.4789 -1.0883
   67CHL1   H4B 6071   6.464   6.961   3.565  1.2469  0.6476  2.7267
   67CHL1    C5 6072   6.381   6.875   3.742 -0.2119  0.1850  0.5458
   67CHL1    C6 6073   6.455   6.946   3.828  0.1679 -0.2908 -0.4062
   67CHL1    H6 6074   6.529   7.013   3.782 -0.6477  0.4928 -0.6240
   67CHL1    C7 6075   6.448   6.946   3.979  0.0756  0.6921  0.0492
   67CHL1   H7A 6076   6.552   6.944   4.018 -0.7954  1.5079  2.6035
   67CHL1   H7B 6077   6.401   7.042   4.010  3.3977  1.7522  2.3780
   67CHL1    C8 6078   6.361   6.832   4.031  0.0877 -0.0448  0.3991
   67CHL1    H8 6079   6.429   6.744   4.030  0.5038  0.2482  1.3618
   67CHL1   C14 6080   6.328   6.862   4.172 -0.2019  0.6127 -0.8131
   67CHL1   H14 6081   6.264   6.953   4.170  0.6921  1.2711 -0.4545
   67CHL1   C15 6082   6.454   6.897   4.269  0.3280  0.3606  0.4950
   67CHL1  H15A 6083   6.540   6.829   4.257 -0.3720 -0.3372 -0.7570
   67CHL1  H15B 6084   6.481   7.005   4.265  0.8570  0.1997 -0.4156
   67CHL1   C16 6085   6.384   6.873   4.409  0.1240 -0.2759  0.0794
   67CHL1  H16A 6086   6.456   6.820   4.475 -2.5078 -0.8674  2.6291
   67CHL1  H16B 6087   6.358   6.974   4.447  0.7319  0.0907 -0.4504
   67CHL1   C17 6088   6.250   6.792   4.397  0.4230 -0.1083 -0.1063
   67CHL1   H17 6089   6.160   6.857   4.410  0.1619 -0.4601 -0.1397
   67CHL1   C13 6090   6.258   6.748   4.247 -0.2232  0.0469 -0.0585
   67CHL1   C18 6091   6.340   6.614   4.247 -0.3127 -0.2423 -0.2468
   67CHL1  H18A 6092   6.381   6.595   4.145  1.1311 -0.3284  0.3330
   67CHL1  H18B 6093   6.428   6.623   4.314 -0.2781  0.9085 -0.4405
   67CHL1  H18C 6094   6.272   6.531   4.277  1.6938 -0.9967  2.6195
   67CHL1   C12 6095   6.126   6.722   4.167 -0.5360  0.1845 -0.4118
   67CHL1  H12A 6096   6.070   6.635   4.207 -0.2144  0.1465 -0.0398
   67CHL1  H12B 6097   6.059   6.811   4.166  0.8044  1.2513  1.0180
   67CHL1   C11 6098   6.151   6.686   4.023  0.6195 -0.7049  0.3263
   67CHL1  H11A 6099   6.196   6.586   4.012 -1.5108 -1.7305  0.3514
   67CHL1  H11B 6100   6.053   6.688   3.969  0.3768 -1.9978  0.6920
   67CHL1    C9 6101   6.234   6.806   3.948 -0.1598 -0.2828  0.2495
   67CHL1    H9 6102   6.170   6.897   3.947  0.3487  0.0753  0.3719
   67CHL1   C10 6103   6.267   6.784   3.792 -0.2058  0.6947  0.6852
   67CHL1   C19 6104   6.319   6.642   3.767 -0.9286  0.0307  0.1146
   67CHL1  H19A 6105   6.396   6.620   3.844 -1.3800  1.1295  0.9007
   67CHL1  H19B 6106   6.234   6.573   3.784 -0.4055 -0.5287  0.5482
   67CHL1  H19C 6107   6.363   6.635   3.665  1.2887 -0.5705  1.0471
   67CHL1    C1 6108   6.128   6.803   3.712 -1.0062 -0.4091 -0.4019
   67CHL1   H1A 6109   6.073   6.713   3.747 -0.0213 -0.8341  0.0884
   67CHL1   H1B 6110   6.068   6.894   3.736  0.0248  0.8021 -2.1542
   67CHL1    C2 6111   6.160   6.795   3.561  0.5226 -0.8090  0.1859
   67CHL1   H2A 6112   6.063   6.811   3.510 -0.7311 -1.2439  2.3103
   67CHL1   H2B 6113   6.196   6.694   3.532 -1.4754 -1.4894 -0.0847
   67CHL1   C20 6114   6.238   6.688   4.509 -0.3725 -0.3534 -0.8078
   67CHL1   H20 6115   6.319   6.612   4.496  0.2407  0.3330 -1.0794
   67CHL1   C21 6116   6.099   6.621   4.493  0.2721  0.3027 -0.4008
   67CHL1  H21A 6117   6.088   6.566   4.589  0.6668  1.3231  0.2511
   67CHL1  H21B 6118   6.100   6.550   4.408  0.6665 -0.5463  0.2964
   67CHL1  H21C 6119   6.021   6.699   4.483  1.8889  2.4287  2.1998
   67CHL1   C22 6120   6.272   6.730   4.655  0.3655  0.7827  0.4265
   67CHL1  H22A 6121   6.261   6.640   4.720  0.6095  1.9493  2.1357
   67CHL1  H22B 6122   6.381   6.750   4.659  0.7804 -0.3263 -2.6345
   67CHL1   C23 6123   6.186   6.845   4.711  0.0400 -0.3454 -0.0319
   67CHL1  H23A 6124   6.210   6.939   4.657  1.4932 -0.8187 -0.2474
   67CHL1  H23B 6125   6.077   6.823   4.703  0.0032 -0.6187  1.0732
   67CHL1   C24 6126   6.212   6.869   4.861 -0.2849 -0.2916  0.2560
   67CHL1  H24A 6127   6.145   6.951   4.896 -1.9707 -0.3438 -2.5547
   67CHL1  H24B 6128   6.177   6.786   4.926 -0.9010 -0.8574 -0.7681
   67CHL1   C25 6129   6.354   6.915   4.901  0.1584  0.7685  0.0438
   67CHL1   H25 6130   6.427   6.846   4.854 -1.7997 -1.0410 -0.4506
   67CHL1   C26 6131   6.385   7.056   4.854  0.8118 -0.0161  0.0990
   67CHL1  H26A 6132   6.486   7.090   4.885  0.5693  1.2019 -0.3931
   67CHL1  H26B 6133   6.371   7.062   4.744  0.5580 -1.4839  0.0303
   67CHL1  H26C 6134   6.305   7.122   4.896  0.0452  0.8386 -2.4673
   67CHL1   C27 6135   6.369   6.913   5.056 -0.1803  0.2500  0.7214
   67CHL1  H27A 6136   6.295   6.982   5.103 -0.3273  2.6705 -2.6898
   67CHL1  H27B 6137   6.359   6.809   5.094  1.2632  0.3616  1.4552
   67CHL1  H27C 6138   6.463   6.962   5.087  0.9831 -1.6463  0.4088
   68CHL1    C3 6139   4.351   1.426   3.738  0.3485 -0.4871  0.3069
   68CHL1    H3 6140   4.259   1.482   3.712  0.2112 -1.1081 -0.5885
   68CHL1    O3 6141   4.422   1.420   3.611 -0.4475 -0.4391  0.6354
   68CHL1   H3' 6142   4.482   1.347   3.628 -1.1793 -1.4483 -0.8942
   68CHL1    C4 6143   4.439   1.500   3.839  0.1479 -0.6179 -0.0718
   68CHL1   H4A 6144   4.532   1.439   3.840  1.3159  1.0283 -1.5140
   68CHL1   H4B 6145   4.474   1.594   3.791  3.4058 -1.9474 -0.5356
   68CHL1    C5 6146   4.382   1.524   3.974  0.6335  0.8589 -0.1375
   68CHL1    C6 6147   4.351   1.644   4.026  0.2162 -0.3053  0.4455
   68CHL1    H6 6148   4.371   1.736   3.969 -0.6290  1.1332  2.3576
   68CHL1    C7 6149   4.320   1.665   4.167  0.0978  0.0375  0.2108
   68CHL1   H7A 6150   4.377   1.745   4.220  0.3196  0.1979 -0.2666
   68CHL1   H7B 6151   4.211   1.686   4.166 -0.2636 -0.9508  3.7638
   68CHL1    C8 6152   4.332   1.538   4.253 -0.3739 -0.0878 -0.2709
   68CHL1    H8 6153   4.442   1.528   4.270 -0.4135 -0.8780 -0.4199
   68CHL1   C14 6154   4.263   1.553   4.391 -0.8470  0.0357 -0.2546
   68CHL1   H14 6155   4.159   1.587   4.370 -0.6562  0.4108 -0.6293
   68CHL1   C15 6156   4.312   1.669   4.483  0.1821 -0.2491  0.1590
   68CHL1  H15A 6157   4.422   1.659   4.484  0.2965  0.8153  1.1043
   68CHL1  H15B 6158   4.276   1.773   4.464 -0.7498 -0.5784  0.0494
   68CHL1   C16 6159   4.266   1.624   4.620 -0.5225 -0.3031 -0.7131
   68CHL1  H16A 6160   4.349   1.613   4.693 -0.7637  2.7318  0.1467
   68CHL1  H16B 6161   4.185   1.687   4.662  0.2032  1.7837 -2.2939
   68CHL1   C17 6162   4.206   1.482   4.599  0.8263  0.4525  0.6075
   68CHL1   H17 6163   4.101   1.502   4.570 -0.3348 -1.6447  3.0571
   68CHL1   C13 6164   4.271   1.419   4.469  0.3443 -0.8405 -0.0562
   68CHL1   C18 6165   4.413   1.382   4.501  0.3334 -0.2474 -1.0374
   68CHL1  H18A 6166   4.409   1.293   4.566 -0.5659  2.0382  2.3066
   68CHL1  H18B 6167   4.470   1.352   4.411  1.6358 -1.3016  0.0856
   68CHL1  H18C 6168   4.465   1.471   4.544  0.2395 -0.4921 -0.4045
   68CHL1   C12 6169   4.199   1.304   4.397  0.5088 -0.2927 -0.3703
   68CHL1  H12A 6170   4.209   1.213   4.461  0.1117  0.3622  0.6349
   68CHL1  H12B 6171   4.091   1.324   4.382  0.1627 -0.1341  2.0293
   68CHL1   C11 6172   4.263   1.282   4.262  0.2715  0.2755 -0.0395
   68CHL1  H11A 6173   4.356   1.223   4.281 -1.1825 -1.5641  1.9115
   68CHL1  H11B 6174   4.203   1.215   4.196 -1.0282  1.3838 -0.0182
   68CHL1    C9 6175   4.273   1.416   4.182 -0.1033 -0.2066  0.3251
   68CHL1    H9 6176   4.166   1.443   4.180 -1.0592 -3.2909  2.0548
   68CHL1   C10 6177   4.346   1.395   4.045 -0.7045 -0.1201 -0.1608
   68CHL1   C19 6178   4.481   1.318   4.073 -0.2133 -0.1701  1.0393
   68CHL1  H19A 6179   4.452   1.212   4.094  0.7888 -0.2348  2.2059
   68CHL1  H19B 6180   4.547   1.308   3.985 -0.7186  0.0703  0.6289
   68CHL1  H19C 6181   4.537   1.363   4.157 -0.4450  0.9304  0.6144
   68CHL1    C1 6182   4.258   1.314   3.948  0.1642 -0.1016 -0.7361
   68CHL1   H1A 6183   4.244   1.207   3.976 -2.3739  0.2467 -0.4357
   68CHL1   H1B 6184   4.155   1.353   3.944 -0.8357 -2.6004 -1.1877
   68CHL1    C2 6185   4.312   1.295   3.806  0.5961  0.2016  0.3204
   68CHL1   H2A 6186   4.223   1.250   3.756  0.4415  0.7906  0.0531
   68CHL1   H2B 6187   4.403   1.232   3.809 -0.8856 -2.0026  2.7089
   68CHL1   C20 6188   4.203   1.399   4.726 -0.2080 -0.2444 -0.1693
   68CHL1   H20 6189   4.310   1.375   4.745  0.0586  1.4600  0.6549
   68CHL1   C21 6190   4.112   1.273   4.715  0.1840  0.4963  0.3733
   68CHL1  H21A 6191   4.023   1.308   4.658  0.3399 -0.3497 -0.4147
   68CHL1  H21B 6192   4.092   1.242   4.819 -2.6637 -0.2505 -0.3128
   68CHL1  H21C 6193   4.167   1.190   4.665  0.9043 -0.7325  3.0377
   68CHL1   C22 6194   4.150   1.469   4.855 -0.2876 -0.1759 -0.0883
   68CHL1  H22A 6195   4.174   1.577   4.853 -3.9142  0.8009  0.8558
   68CHL1  H22B 6196   4.039   1.462   4.861 -0.4419  0.2708 -1.8621
   68CHL1   C23 6197   4.217   1.416   4.983  0.2423 -0.3898  0.1112
   68CHL1  H23A 6198   4.147   1.454   5.061 -0.0776 -0.0849 -0.3132
   68CHL1  H23B 6199   4.204   1.306   4.982  1.1370 -0.5898 -3.2727
   68CHL1   C24 6200   4.357   1.472   5.012 -0.2057  0.2553  0.2425
   68CHL1  H24A 6201   4.417   1.464   4.920 -0.3689 -1.2147  0.2295
   68CHL1  H24B 6202   4.348   1.582   5.016  1.5153  0.5208 -1.7523
   68CHL1   C25 6203   4.431   1.440   5.141  0.2319  0.4944  0.5498
   68CHL1   H25 6204   4.471   1.337   5.129 -1.2375 -0.0011 -0.3288
   68CHL1   C26 6205   4.544   1.541   5.154  0.0409 -0.1205 -0.4029
   68CHL1  H26A 6206   4.590   1.541   5.053 -0.1416 -3.2580 -0.5960
   68CHL1  H26B 6207   4.510   1.642   5.186  2.1849  1.3944 -2.5639
   68CHL1  H26C 6208   4.613   1.509   5.235 -0.9794  1.7375  1.2917
   68CHL1   C27 6209   4.335   1.448   5.256 -0.3596 -0.6185 -0.7202
   68CHL1  H27A 6210   4.401   1.431   5.344 -0.1300  1.3469 -0.4771
   68CHL1  H27B 6211   4.295   1.551   5.264  1.4579 -0.0125  1.6871
   68CHL1  H27C 6212   4.261   1.365   5.252 -0.2642 -0.7569  0.2000
   69CHL1    C3 6213   1.623   0.802   7.114 -0.3426  0.4078  0.2747
   69CHL1    H3 6214   1.523   0.754   7.106  0.4510 -1.4352  0.8379
   69CHL1    O3 6215   1.628   0.868   7.236  0.3547  0.1191  0.1590
   69CHL1   H3' 6216   1.715   0.910   7.236  0.8632 -0.8508  1.5333
   69CHL1    C4 6217   1.736   0.694   7.078  0.1765  0.0661  0.0270
   69CHL1   H4A 6218   1.835   0.743   7.094  1.5116 -1.9747 -1.5035
   69CHL1   H4B 6219   1.731   0.611   7.151  0.1525  1.3844  1.5891
   69CHL1    C5 6220   1.745   0.643   6.937  0.5396 -0.2615  0.2951
   69CHL1    C6 6221   1.736   0.512   6.915 -0.0974 -0.7788  0.7179
   69CHL1    H6 6222   1.731   0.456   7.009  0.2049 -0.0099  1.2033
   69CHL1    C7 6223   1.742   0.451   6.782 -0.2520  0.1280  0.0905
   69CHL1   H7A 6224   1.796   0.354   6.784  0.5683  0.5800  0.2740
   69CHL1   H7B 6225   1.643   0.416   6.746 -0.3445  1.0391 -0.5728
   69CHL1    C8 6226   1.804   0.550   6.679 -0.1183 -0.6582  0.6345
   69CHL1    H8 6227   1.912   0.562   6.700 -0.0510 -3.0027  1.9309
   69CHL1   C14 6228   1.784   0.483   6.540 -0.2036 -0.2720 -0.3204
   69CHL1   H14 6229   1.677   0.462   6.522  0.1131 -1.0292 -1.4699
   69CHL1   C15 6230   1.852   0.339   6.518 -0.7138 -0.2073  0.0528
   69CHL1  H15A 6231   1.949   0.337   6.573 -0.5256 -4.3753 -0.1301
   69CHL1  H15B 6232   1.794   0.248   6.545  1.0028 -0.7337  2.3088
   69CHL1   C16 6233   1.882   0.337   6.371  0.1278 -0.3746 -0.4668
   69CHL1  H16A 6234   1.986   0.309   6.343  0.0606 -0.4766 -0.6165
   69CHL1  H16B 6235   1.810   0.264   6.328  0.2381 -2.4892  2.6111
   69CHL1   C17 6236   1.830   0.475   6.314 -0.1223 -0.0719 -0.2452
   69CHL1   H17 6237   1.722   0.454   6.298 -0.0512  0.0294 -0.8842
   69CHL1   C13 6238   1.831   0.576   6.433  0.6816  0.1363  0.1355
   69CHL1   C18 6239   1.979   0.613   6.458  1.2950  0.3711 -0.2582
   69CHL1  H18A 6240   2.014   0.665   6.366  0.6851 -1.2074 -1.4321
   69CHL1  H18B 6241   2.006   0.685   6.539  0.6152  1.8940 -1.3212
   69CHL1  H18C 6242   2.045   0.525   6.471 -0.7075 -1.3103 -0.8821
   69CHL1   C12 6243   1.740   0.703   6.425  0.4979  0.6152  0.7848
   69CHL1  H12A 6244   1.784   0.771   6.349 -1.4985  0.2960 -0.7628
   69CHL1  H12B 6245   1.636   0.669   6.406  1.3950 -1.8092 -0.2480
   69CHL1   C11 6246   1.745   0.776   6.562 -0.4804 -0.3681  0.5755
   69CHL1  H11A 6247   1.843   0.828   6.565  0.2363 -1.6336  0.1675
   69CHL1  H11B 6248   1.658   0.845   6.567 -0.7909 -0.5614 -1.1844
   69CHL1    C9 6249   1.730   0.687   6.690 -0.4148  0.2884  0.6732
   69CHL1    H9 6250   1.622   0.660   6.688  0.1033 -1.9510  1.2322
   69CHL1   C10 6251   1.747   0.757   6.831 -0.1938 -0.6403 -0.5462
   69CHL1   C19 6252   1.885   0.824   6.833  1.0233  0.0121 -0.5728
   69CHL1  H19A 6253   1.897   0.914   6.769  2.6036  1.0750  1.1101
   69CHL1  H19B 6254   1.903   0.847   6.940 -0.9482 -0.8959 -0.0092
   69CHL1  H19C 6255   1.961   0.754   6.793  0.3341 -0.9743 -0.1964
   69CHL1    C1 6256   1.628   0.853   6.857  0.3966  0.3547  0.3881
   69CHL1   H1A 6257   1.633   0.945   6.794 -2.3239  1.8741  2.1696
   69CHL1   H1B 6258   1.531   0.801   6.838 -0.0239  0.7828  1.2977
   69CHL1    C2 6259   1.628   0.912   6.998 -0.5174  0.1891 -0.0501
   69CHL1   H2A 6260   1.546   0.984   7.017  0.3527  1.1414  0.2434
   69CHL1   H2B 6261   1.721   0.973   6.996 -1.6969  2.0436 -0.2830
   69CHL1   C20 6262   1.892   0.499   6.176  0.2605 -0.3115 -0.1737
   69CHL1   H20 6263   2.002   0.508   6.186  0.0242  1.6032  1.1611
   69CHL1   C21 6264   1.839   0.629   6.103 -0.2041  0.1759 -0.9528
   69CHL1  H21A 6265   1.854   0.718   6.168 -0.4413 -1.2062  1.0832
   69CHL1  H21B 6266   1.735   0.610   6.069 -0.1761 -1.1363 -0.3902
   69CHL1  H21C 6267   1.905   0.638   6.014  1.4333 -2.3283 -0.1050
   69CHL1   C22 6268   1.875   0.373   6.092  0.0633 -0.3995  0.7478
   69CHL1  H22A 6269   1.923   0.280   6.129  0.5065 -1.5469 -2.3711
   69CHL1  H22B 6270   1.767   0.351   6.079 -0.1781 -0.8533  3.1415
   69CHL1   C23 6271   1.944   0.373   5.950 -0.2038 -0.0333  0.2824
   69CHL1  H23A 6272   1.884   0.449   5.895 -0.4373 -0.7003 -0.4110
   69CHL1  H23B 6273   2.051   0.403   5.958  0.2083 -0.4308 -2.5069
   69CHL1   C24 6274   1.931   0.239   5.883 -0.1233  0.0291  0.0016
   69CHL1  H24A 6275   1.984   0.151   5.926  0.0531 -0.6896 -1.5920
   69CHL1  H24B 6276   1.821   0.223   5.879 -0.3661  1.6597 -2.7267
   69CHL1   C25 6277   1.985   0.235   5.737 -0.6700 -0.0308 -0.2739
   69CHL1   H25 6278   1.956   0.137   5.694 -1.2874  0.3462 -0.7382
   69CHL1   C26 6279   1.914   0.332   5.640  0.5084  0.3924 -0.1424
   69CHL1  H26A 6280   1.960   0.431   5.661  1.8049 -0.5912  1.9371
   69CHL1  H26B 6281   1.923   0.306   5.532  1.3894 -0.7350  0.1889
   69CHL1  H26C 6282   1.804   0.338   5.654  0.5432 -0.1765  0.3991
   69CHL1   C27 6283   2.136   0.258   5.736  0.3794 -0.1200 -0.3459
   69CHL1  H27A 6284   2.189   0.247   5.639 -1.7514 -2.6026 -1.3332
   69CHL1  H27B 6285   2.152   0.362   5.772 -0.8260  0.3481 -1.1030
   69CHL1  H27C 6286   2.188   0.196   5.813  0.1918  0.1676  0.0143
   70CHL1    C3 6287   1.094   4.135   3.473 -0.3058  0.1205  0.2469
   70CHL1    H3 6288   0.992   4.098   3.496  0.1033 -2.4583 -1.6393
   70CHL1    O3 6289   1.113   4.132   3.337  0.4038  0.0996 -0.5704
   70CHL1   H3' 6290   1.135   4.221   3.308  2.2900  0.2901  1.2420
   70CHL1    C4 6291   1.117   4.282   3.532  0.8328  0.7008  0.1669
   70CHL1   H4A 6292   1.211   4.329   3.496  0.2757  0.3508 -1.8965
   70CHL1   H4B 6293   1.038   4.347   3.488 -0.8463  0.3462  2.4781
   70CHL1    C5 6294   1.113   4.295   3.688  0.3146 -0.3961 -0.0154
   70CHL1    C6 6295   1.038   4.386   3.758  0.0053  0.0833  0.0655
   70CHL1    H6 6296   0.976   4.457   3.701  2.8335  1.6900 -1.2890
   70CHL1    C7 6297   1.043   4.398   3.905 -0.1957  0.7733  0.1934
   70CHL1   H7A 6298   1.059   4.503   3.938 -0.8952  1.5146 -1.6879
   70CHL1   H7B 6299   0.942   4.370   3.941  0.4041 -0.9538  0.6561
   70CHL1    C8 6300   1.153   4.306   3.976  0.7703 -0.9013 -0.0674
   70CHL1    H8 6301   1.251   4.358   3.970 -0.2756  1.5118  1.7833
   70CHL1   C14 6302   1.111   4.281   4.123 -0.5359 -0.6542  0.0943
   70CHL1   H14 6303   1.010   4.233   4.119 -1.3066  0.7852  1.3227
   70CHL1   C15 6304   1.083   4.407   4.203 -0.4944  0.6887  0.2390
   70CHL1  H15A 6305   1.155   4.490   4.187  0.7427 -0.6385 -1.5400
   70CHL1  H15B 6306   0.984   4.456   4.197  0.0610  2.0913  1.7580
   70CHL1   C16 6307   1.098   4.357   4.344 -0.2393  0.2497  0.6412
   70CHL1  H16A 6308   1.167   4.423   4.401 -0.7703  0.3979  1.1221
   70CHL1  H16B 6309   1.004   4.369   4.402  0.1028 -0.9034  1.4723
   70CHL1   C17 6310   1.136   4.205   4.341 -0.0508 -0.7507 -0.0591
   70CHL1   H17 6311   1.036   4.158   4.337 -0.0270 -0.9368  1.1981
   70CHL1   C13 6312   1.209   4.200   4.197 -0.5425  0.1612 -0.4500
   70CHL1   C18 6313   1.344   4.284   4.211 -0.2497  0.1065  0.3670
   70CHL1  H18A 6314   1.341   4.352   4.298  1.2983 -1.3783  1.6548
   70CHL1  H18B 6315   1.427   4.213   4.232 -0.2928 -0.1833 -0.4003
   70CHL1  H18C 6316   1.371   4.348   4.125 -0.7456 -1.6326 -1.1467
   70CHL1   C12 6317   1.216   4.065   4.132  0.0552  0.3353  0.8212
   70CHL1  H12A 6318   1.277   3.993   4.192 -3.5651 -2.4798  1.4329
   70CHL1  H12B 6319   1.111   4.032   4.146  0.0075 -0.2966 -0.8364
   70CHL1   C11 6320   1.259   4.072   3.987  0.0066  0.7234 -0.3897
   70CHL1  H11A 6321   1.362   4.113   3.977 -0.4634  2.3019  0.9184
   70CHL1  H11B 6322   1.268   3.973   3.936  1.0216  0.8404 -0.4537
   70CHL1    C9 6323   1.168   4.172   3.907  0.4286 -0.6842  0.1445
   70CHL1    H9 6324   1.062   4.138   3.918 -0.6216  2.1391 -0.3969
   70CHL1   C10 6325   1.198   4.188   3.758  0.4459 -0.7972 -0.1997
   70CHL1   C19 6326   1.342   4.243   3.741 -0.5481  0.0020  0.7298
   70CHL1  H19A 6327   1.351   4.344   3.785  0.5998 -0.0539  0.6631
   70CHL1  H19B 6328   1.413   4.172   3.789  0.3301  0.3478 -0.0022
   70CHL1  H19C 6329   1.372   4.239   3.633  0.5909 -1.6556  1.0630
   70CHL1    C1 6330   1.188   4.051   3.695 -0.1693 -0.2018  0.2608
   70CHL1   H1A 6331   1.252   3.972   3.740 -0.8294 -1.0784 -0.3059
   70CHL1   H1B 6332   1.086   4.012   3.714 -0.2157  0.6661  2.0198
   70CHL1    C2 6333   1.203   4.046   3.543  0.0466  0.7317 -0.0130
   70CHL1   H2A 6334   1.195   3.947   3.494 -1.0792  0.7309  0.1421
   70CHL1   H2B 6335   1.299   4.090   3.507 -0.0120  2.1730  1.5012
   70CHL1   C20 6336   1.213   4.168   4.462 -0.4105  0.0973  0.2854
   70CHL1   H20 6337   1.318   4.203   4.450 -0.8109  1.1952 -0.0992
   70CHL1   C21 6338   1.218   4.015   4.472  0.3062 -0.2312 -0.7780
   70CHL1  H21A 6339   1.290   3.969   4.401  2.0185  3.0734 -1.3818
   70CHL1  H21B 6340   1.117   3.972   4.458 -0.1737  0.7936 -0.5451
   70CHL1  H21C 6341   1.252   3.979   4.572  2.2838 -1.9903 -2.0031
   70CHL1   C22 6342   1.164   4.230   4.596  0.0313  0.0535 -0.4252
   70CHL1  H22A 6343   1.231   4.198   4.678 -0.6030 -0.3874 -0.0738
   70CHL1  H22B 6344   1.164   4.341   4.592 -0.0383  0.0807  0.2190
   70CHL1   C23 6345   1.025   4.189   4.651  0.1370  0.0408 -0.3628
   70CHL1  H23A 6346   0.960   4.209   4.563  1.6651  0.4343 -1.4324
   70CHL1  H23B 6347   1.018   4.078   4.660 -0.9036  0.2133  1.4430
   70CHL1   C24 6348   0.985   4.260   4.778  0.7360  0.3446  0.0104
   70CHL1  H24A 6349   1.049   4.224   4.862 -1.7168 -2.4056  0.8744
   70CHL1  H24B 6350   0.995   4.371   4.775  0.9782  0.2968 -1.4045
   70CHL1   C25 6351   0.836   4.220   4.828 -0.1720 -0.3570 -0.1350
   70CHL1   H25 6352   0.786   4.195   4.732  0.6764  0.9678 -0.9697
   70CHL1   C26 6353   0.835   4.101   4.926 -0.1354  0.3788  0.0500
   70CHL1  H26A 6354   0.731   4.062   4.924 -0.3878  0.9437  1.2240
   70CHL1  H26B 6355   0.907   4.027   4.886 -0.2084  0.0196  0.5827
   70CHL1  H26C 6356   0.865   4.128   5.030 -1.3168  1.6966  0.0883
   70CHL1   C27 6357   0.768   4.340   4.892 -0.1747  0.2942  0.6704
   70CHL1  H27A 6358   0.662   4.314   4.913  0.4497 -1.1670  2.1739
   70CHL1  H27B 6359   0.838   4.381   4.968 -0.8412  2.5976  0.1248
   70CHL1  H27C 6360   0.773   4.413   4.808 -1.5788 -0.2510  0.0807
   71CHL1    C3 6361   5.967   6.966   6.700  0.1014 -0.2814  0.6055
   71CHL1    H3 6362   6.057   6.970   6.634 -0.7351 -0.0211 -0.5457
   71CHL1    O3 6363   6.002   6.892   6.819  0.2942  0.4841  0.0973
   71CHL1   H3' 6364   5.953   6.809   6.814  2.7923 -1.2071  1.4591
   71CHL1    C4 6365   5.922   7.117   6.726 -0.2454  0.5458 -0.0239
   71CHL1   H4A 6366   5.827   7.129   6.781  1.3368 -1.1822  3.3536
   71CHL1   H4B 6367   6.002   7.161   6.790  1.5888 -0.1984 -1.6776
   71CHL1    C5 6368   5.923   7.184   6.594 -0.0934 -0.2612 -0.1495
   71CHL1    C6 6369   6.009   7.288   6.565  0.2064 -0.1038 -0.8257
   71CHL1    H6 6370   6.078   7.326   6.642 -1.3150  0.6348  0.2282
   71CHL1    C7 6371   6.021   7.356   6.431  0.9027 -0.2072  0.0932
   71CHL1   H7A 6372   6.008   7.466   6.432 -0.3642 -0.2895 -1.6687
   71CHL1   H7B 6373   6.116   7.322   6.384  0.9067 -1.8492  1.2234
   71CHL1    C8 6374   5.903   7.316   6.336  0.1325  0.5437 -0.2014
   71CHL1    H8 6375   5.815   7.382   6.347  0.0735  0.4888 -0.3390
   71CHL1   C14 6376   5.948   7.338   6.194 -0.0607  0.2798 -0.2543
   71CHL1   H14 6377   6.026   7.264   6.166  0.4167  1.1440 -1.2568
   71CHL1   C15 6378   6.021   7.466   6.151  0.0608  0.3838  0.9662
   71CHL1  H15A 6379   5.964   7.545   6.204 -2.8115  0.0253 -1.2994
   71CHL1  H15B 6380   6.126   7.454   6.185 -0.1280 -1.9138  0.8689
   71CHL1   C16 6381   6.003   7.483   5.999 -1.3257 -0.4726 -0.2002
   71CHL1  H16A 6382   5.932   7.567   5.982 -1.4969  0.0469  2.6226
   71CHL1  H16B 6383   6.104   7.497   5.955 -1.2457  0.5784  0.2753
   71CHL1   C17 6384   5.926   7.357   5.962  0.5518  0.6652 -0.4645
   71CHL1   H17 6385   6.000   7.275   5.949  0.3087  0.2170  0.8661
   71CHL1   C13 6386   5.842   7.320   6.089  0.1552  0.4885  0.7337
   71CHL1   C18 6387   5.738   7.425   6.099  0.5181 -1.2176 -0.7966
   71CHL1  H18A 6388   5.778   7.528   6.109  0.7126 -1.0871 -2.6719
   71CHL1  H18B 6389   5.665   7.416   6.016  0.0722 -0.8400 -0.4519
   71CHL1  H18C 6390   5.685   7.404   6.195  0.6255  1.1293 -0.1632
   71CHL1   C12 6391   5.783   7.175   6.096 -0.3855  0.3822 -0.2817
   71CHL1  H12A 6392   5.703   7.155   6.022 -0.9020 -1.8469  0.7947
   71CHL1  H12B 6393   5.869   7.115   6.061  0.5069  1.1374  0.5251
   71CHL1   C11 6394   5.745   7.138   6.240  0.0983 -0.2368 -0.1542
   71CHL1  H11A 6395   5.651   7.189   6.272  0.1152 -0.0134 -0.4532
   71CHL1  H11B 6396   5.719   7.031   6.253 -1.5286  0.2537  0.9294
   71CHL1    C9 6397   5.850   7.171   6.352  0.1950  0.2235  0.1215
   71CHL1    H9 6398   5.937   7.109   6.323  0.0562  0.6008 -1.1676
   71CHL1   C10 6399   5.824   7.122   6.494  0.6228  0.4784  0.4382
   71CHL1   C19 6400   5.681   7.162   6.543  0.4255 -0.1802 -0.2251
   71CHL1  H19A 6401   5.604   7.143   6.465 -0.5180  2.6811 -0.0885
   71CHL1  H19B 6402   5.643   7.115   6.636  1.2768  0.0411  0.2434
   71CHL1  H19C 6403   5.674   7.272   6.555  0.5393 -0.1091 -0.7917
   71CHL1    C1 6404   5.836   6.968   6.488 -0.8693 -0.0259 -0.1463
   71CHL1   H1A 6405   5.751   6.923   6.431  0.6742 -2.8690 -0.3617
   71CHL1   H1B 6406   5.927   6.939   6.432 -0.8260  1.0832 -0.6846
   71CHL1    C2 6407   5.855   6.901   6.622  0.3105  0.1663  0.8861
   71CHL1   H2A 6408   5.885   6.795   6.609 -0.7124 -0.2084  1.5271
   71CHL1   H2B 6409   5.764   6.898   6.685 -0.3504  0.1858 -0.0504
   71CHL1   C20 6410   5.862   7.384   5.825 -0.3392  0.7791  0.8455
   71CHL1   H20 6411   5.805   7.480   5.823  1.6174  1.9893 -1.3619
   71CHL1   C21 6412   5.759   7.268   5.796  0.0187 -0.2846 -0.2588
   71CHL1  H21A 6413   5.673   7.275   5.867 -0.1026 -3.3548  0.0417
   71CHL1  H21B 6414   5.816   7.174   5.811  1.6094  0.9146  1.5690
   71CHL1  H21C 6415   5.725   7.275   5.690 -0.1357  0.8058 -0.1477
   71CHL1   C22 6416   5.962   7.394   5.707 -0.2481  0.0997 -0.1257
   71CHL1  H22A 6417   6.042   7.461   5.745 -0.8508 -0.7273  2.8134
   71CHL1  H22B 6418   6.012   7.296   5.689  0.0047 -0.0489  1.3238
   71CHL1   C23 6419   5.894   7.477   5.595 -0.2898 -0.2175 -0.5094
   71CHL1  H23A 6420   5.808   7.420   5.556 -0.4716 -1.4820  1.5566
   71CHL1  H23B 6421   5.864   7.574   5.642 -0.8829  1.1933 -3.5798
   71CHL1   C24 6422   5.993   7.508   5.482 -0.2659  0.0266 -0.1593
   71CHL1  H24A 6423   6.070   7.579   5.519  0.5543 -1.4038  0.9627
   71CHL1  H24B 6424   6.049   7.417   5.451 -0.7256 -0.0896 -0.6628
   71CHL1   C25 6425   5.930   7.562   5.350 -0.5629 -0.2820 -0.1040
   71CHL1   H25 6426   5.862   7.490   5.300 -2.1310  1.4626 -0.5849
   71CHL1   C26 6427   5.861   7.699   5.361 -0.6058 -0.2327  0.3168
   71CHL1  H26A 6428   5.922   7.774   5.416 -0.0478 -1.9290  2.1381
   71CHL1  H26B 6429   5.818   7.731   5.264 -1.5863 -4.0125 -0.6253
   71CHL1  H26C 6430   5.771   7.680   5.423 -1.3085 -0.8274 -0.8549
   71CHL1   C27 6431   6.041   7.580   5.247 -0.1647  0.0589 -0.0786
   71CHL1  H27A 6432   6.119   7.648   5.288  0.7687 -0.5367 -0.8419
   71CHL1  H27B 6433   6.082   7.483   5.211 -2.6481 -0.2860 -2.3378
   71CHL1  H27C 6434   6.004   7.637   5.159 -1.3914  0.7316  0.8385
   72CHL1    C3 6435   1.626   3.629   6.852 -0.2129  0.1608  0.4231
   72CHL1    H3 6436   1.710   3.563   6.820  1.6845  2.8865 -0.5142
   72CHL1    O3 6437   1.615   3.606   6.994  0.0608 -0.2279  0.1247
   72CHL1   H3' 6438   1.550   3.538   7.012 -1.7933  1.5862  0.7545
   72CHL1    C4 6439   1.664   3.778   6.826 -0.3230  0.0067 -0.1732
   72CHL1   H4A 6440   1.588   3.849   6.864 -3.2776 -2.0995 -1.7969
   72CHL1   H4B 6441   1.760   3.794   6.881  0.0475  0.5949 -0.9866
   72CHL1    C5 6442   1.676   3.810   6.674 -0.4082  0.1108  0.0097
   72CHL1    C6 6443   1.794   3.845   6.619  0.0885  0.1298  0.8756
   72CHL1    H6 6444   1.883   3.852   6.684 -0.6034  0.1099  1.8317
   72CHL1    C7 6445   1.810   3.885   6.472 -0.0452 -0.1061 -0.2909
   72CHL1   H7A 6446   1.870   3.978   6.461  0.2399  0.2018  2.9467
   72CHL1   H7B 6447   1.877   3.809   6.425  0.3034  0.0215  0.0004
   72CHL1    C8 6448   1.677   3.891   6.399 -0.0151  0.1089  0.9922
   72CHL1    H8 6449   1.635   3.992   6.416 -0.6866  0.3636 -1.7411
   72CHL1   C14 6450   1.708   3.888   6.250  0.2200 -0.0796  0.3480
   72CHL1   H14 6451   1.751   3.788   6.228  1.1446  0.3263  0.2821
   72CHL1   C15 6452   1.808   3.992   6.184 -0.1899  0.6416 -0.3395
   72CHL1  H15A 6453   1.779   4.088   6.232 -1.5949  0.1570 -0.1828
   72CHL1  H15B 6454   1.916   3.977   6.204  0.1943  2.1625 -1.1256
   72CHL1   C16 6455   1.766   3.992   6.038  0.4731  0.6986  0.8793
   72CHL1  H16A 6456   1.732   4.092   6.004  1.3421  0.0483 -2.2497
   72CHL1  H16B 6457   1.842   3.953   5.966 -0.7924 -0.5777  0.1768
   72CHL1   C17 6458   1.643   3.899   6.020 -0.1809  0.5238  0.9135
   72CHL1   H17 6459   1.689   3.798   6.009  0.3076  0.8664 -0.4272
   72CHL1   C13 6460   1.580   3.897   6.161  0.4755 -0.4680  0.1610
   72CHL1   C18 6461   1.506   4.035   6.177 -0.0416  0.0756 -0.1115
   72CHL1  H18A 6462   1.568   4.111   6.125 -0.5450 -1.2481 -2.8333
   72CHL1  H18B 6463   1.418   4.032   6.109 -0.3436  1.0601  0.2242
   72CHL1  H18C 6464   1.490   4.069   6.281  0.3617 -0.4354  0.1255
   72CHL1   C12 6465   1.489   3.773   6.194 -0.1635 -0.6077  0.1558
   72CHL1  H12A 6466   1.399   3.774   6.129 -0.3086  0.4415  0.3585
   72CHL1  H12B 6467   1.547   3.679   6.181 -1.1325 -0.8726 -3.0914
   72CHL1   C11 6468   1.449   3.780   6.346 -0.4179  0.0395  0.2697
   72CHL1  H11A 6469   1.386   3.870   6.360  0.2546  0.2555  2.2181
   72CHL1  H11B 6470   1.391   3.688   6.367  1.4329 -0.7784  2.3084
   72CHL1    C9 6471   1.574   3.782   6.438 -0.8734 -0.1340 -0.6500
   72CHL1    H9 6472   1.618   3.682   6.418  1.3726  0.7474 -0.4456
   72CHL1   C10 6473   1.546   3.782   6.593  0.9264 -0.6817  0.1463
   72CHL1   C19 6474   1.438   3.891   6.622  0.8663 -0.1159  0.2501
   72CHL1  H19A 6475   1.339   3.849   6.593  0.4645 -0.0064  1.4231
   72CHL1  H19B 6476   1.425   3.907   6.731  0.4712 -1.0077  0.3402
   72CHL1  H19C 6477   1.458   3.980   6.557  0.3307  0.4985  0.9101
   72CHL1    C1 6478   1.497   3.640   6.634 -0.5835  0.8794  0.1328
   72CHL1   H1A 6479   1.395   3.607   6.603  0.9758 -1.4861 -3.1179
   72CHL1   H1B 6480   1.557   3.567   6.575 -1.0541  0.5171  0.0911
   72CHL1    C2 6481   1.495   3.590   6.778 -0.2598  0.8265 -0.2312
   72CHL1   H2A 6482   1.478   3.480   6.774  0.4707  0.6752  0.5928
   72CHL1   H2B 6483   1.411   3.636   6.834 -0.3039  0.0506  0.3568
   72CHL1   C20 6484   1.561   3.924   5.892  0.7468  0.4906 -1.0375
   72CHL1   H20 6485   1.456   3.889   5.905  0.9849  0.0323 -0.2225
   72CHL1   C21 6486   1.618   3.858   5.765 -0.3538 -0.0535  0.4383
   72CHL1  H21A 6487   1.550   3.869   5.678 -0.3139 -1.2949  0.2251
   72CHL1  H21B 6488   1.638   3.752   5.792  0.5004 -0.1535 -0.5423
   72CHL1  H21C 6489   1.709   3.914   5.737 -1.2210  0.3123 -1.9040
   72CHL1   C22 6490   1.536   4.071   5.847 -0.4508 -0.0051 -0.0521
   72CHL1  H22A 6491   1.532   4.140   5.934 -0.2502 -0.6089  0.4503
   72CHL1  H22B 6492   1.619   4.099   5.779 -0.4632 -0.5834 -0.3125
   72CHL1   C23 6493   1.402   4.100   5.773  0.3022  0.8465  0.2200
   72CHL1  H23A 6494   1.409   4.062   5.669 -1.0722  2.4216 -0.5066
   72CHL1  H23B 6495   1.324   4.038   5.820  1.2657 -2.5578 -2.2928
   72CHL1   C24 6496   1.347   4.243   5.772 -0.7011 -0.1066  0.5449
   72CHL1  H24A 6497   1.349   4.287   5.874  1.9646 -2.2390  1.5248
   72CHL1  H24B 6498   1.413   4.317   5.722  0.1909 -0.8995  0.5317
   72CHL1   C25 6499   1.208   4.254   5.707  0.0516  0.4075  0.5902
   72CHL1   H25 6500   1.145   4.198   5.780  2.6744 -0.4669  2.3661
   72CHL1   C26 6501   1.164   4.401   5.695  0.5563 -0.1946  0.4479
   72CHL1  H26A 6502   1.074   4.392   5.630 -1.4098  0.2756  2.9675
   72CHL1  H26B 6503   1.139   4.433   5.798  0.4002  0.3868  0.2285
   72CHL1  H26C 6504   1.249   4.461   5.657  1.2658 -0.2276  1.9200
   72CHL1   C27 6505   1.203   4.201   5.565  0.3734  0.2174  0.2175
   72CHL1  H27A 6506   1.097   4.176   5.542  0.3695  1.0589 -0.7315
   72CHL1  H27B 6507   1.246   4.276   5.496  0.1674 -1.4007 -1.7670
   72CHL1  H27C 6508   1.259   4.108   5.539 -1.4686 -1.0641  0.6027
   73CHL1    C3 6509   3.246   1.462   3.580  0.8248  0.2476 -0.1222
   73CHL1    H3 6510   3.238   1.572   3.591  1.1431  0.0976  1.8637
   73CHL1    O3 6511   3.266   1.447   3.442  0.3045 -0.2865 -0.0164
   73CHL1   H3' 6512   3.244   1.356   3.421 -1.1694 -0.7166  2.9270
   73CHL1    C4 6513   3.358   1.415   3.667  0.3430 -0.2228 -0.5684
   73CHL1   H4A 6514   3.381   1.311   3.633  0.0566  0.3172 -2.5463
   73CHL1   H4B 6515   3.442   1.476   3.628  0.0309  0.4547 -0.1845
   73CHL1    C5 6516   3.349   1.419   3.820  0.2150 -0.3493 -0.0704
   73CHL1    C6 6517   3.444   1.466   3.905 -0.3263  0.0459 -0.2355
   73CHL1    H6 6518   3.541   1.496   3.862  0.0893 -1.7483 -0.6294
   73CHL1    C7 6519   3.445   1.464   4.051 -0.0065  0.2435 -0.3912
   73CHL1   H7A 6520   3.533   1.421   4.104 -1.2384 -0.1828  1.3885
   73CHL1   H7B 6521   3.438   1.569   4.087  3.5980  0.1328  0.9841
   73CHL1    C8 6522   3.322   1.388   4.110  0.9720 -0.0998  0.5851
   73CHL1    H8 6523   3.356   1.283   4.113 -0.0897 -0.4522  0.7380
   73CHL1   C14 6524   3.291   1.439   4.248  0.2117 -0.6099 -0.0538
   73CHL1   H14 6525   3.239   1.535   4.231 -0.6700 -0.9869  0.4305
   73CHL1   C15 6526   3.403   1.456   4.355 -0.5805 -0.1118  1.0795
   73CHL1  H15A 6527   3.480   1.375   4.351  0.8526  1.2383 -0.6056
   73CHL1  H15B 6528   3.455   1.552   4.332  1.2359 -1.2833  0.0868
   73CHL1   C16 6529   3.327   1.462   4.477  0.0786 -0.5791 -0.5534
   73CHL1  H16A 6530   3.363   1.381   4.545 -0.7618  0.2096  0.8905
   73CHL1  H16B 6531   3.326   1.563   4.523 -1.3832 -0.0958 -1.5673
   73CHL1   C17 6532   3.178   1.432   4.453  0.0135 -0.4397  0.4289
   73CHL1   H17 6533   3.126   1.530   4.443  1.4372  0.3038  0.1641
   73CHL1   C13 6534   3.182   1.355   4.314  0.3025  0.8054  0.2097
   73CHL1   C18 6535   3.220   1.204   4.335 -0.6441  0.7636 -0.1636
   73CHL1  H18A 6536   3.139   1.152   4.391  0.5037  0.2041  1.0492
   73CHL1  H18B 6537   3.233   1.154   4.237 -1.7420  1.9468 -0.9397
   73CHL1  H18C 6538   3.317   1.190   4.388 -0.8056 -0.2711 -0.1192
   73CHL1   C12 6539   3.053   1.360   4.225 -0.8685 -0.5739 -0.0125
   73CHL1  H12A 6540   2.982   1.286   4.268  0.0569 -1.7893 -0.5196
   73CHL1  H12B 6541   3.008   1.461   4.217 -1.0405 -0.8341 -5.0336
   73CHL1   C11 6542   3.072   1.326   4.077 -0.1723  0.3688  1.0580
   73CHL1  H11A 6543   3.074   1.216   4.063  3.9612  0.3523  0.7110
   73CHL1  H11B 6544   2.988   1.368   4.017  0.0744  0.0980  0.5190
   73CHL1    C9 6545   3.197   1.392   4.014 -0.3433  1.0191  0.5441
   73CHL1    H9 6546   3.182   1.502   4.010  2.3580  1.4517 -0.3660
   73CHL1   C10 6547   3.217   1.352   3.867 -0.4671 -0.1326 -1.2425
   73CHL1   C19 6548   3.233   1.196   3.857 -0.1128  0.3061 -0.5515
   73CHL1  H19A 6549   3.270   1.177   3.754  0.6165  1.4236 -0.5191
   73CHL1  H19B 6550   3.302   1.160   3.936 -0.8025  0.2636  0.0431
   73CHL1  H19C 6551   3.138   1.142   3.875 -0.4915  1.2696  0.4729
   73CHL1    C1 6552   3.100   1.400   3.775  0.2451  0.1380 -0.1914
   73CHL1   H1A 6553   3.004   1.348   3.799 -0.3517  0.0421 -2.5125
   73CHL1   H1B 6554   3.092   1.509   3.792  2.4819  0.7426 -2.4723
   73CHL1    C2 6555   3.120   1.383   3.625  0.5187 -0.7252  0.0003
   73CHL1   H2A 6556   3.033   1.421   3.569  1.4485  0.0870 -0.9230
   73CHL1   H2B 6557   3.129   1.276   3.596  3.6356 -0.0832 -1.7861
   73CHL1   C20 6558   3.112   1.359   4.569 -0.1969  0.1281 -0.3038
   73CHL1   H20 6559   3.151   1.256   4.574 -0.6261  0.0097  1.2797
   73CHL1   C21 6560   2.955   1.359   4.555  0.5577  0.0675 -0.2271
   73CHL1  H21A 6561   2.908   1.454   4.586  2.4600  0.5366  1.4904
   73CHL1  H21B 6562   2.917   1.273   4.615 -0.7070  1.0398  0.4066
   73CHL1  H21C 6563   2.929   1.344   4.448  0.0101  1.2242 -0.2711
   73CHL1   C22 6564   3.147   1.419   4.702  0.1057 -0.3915  0.3768
   73CHL1  H22A 6565   3.252   1.452   4.716 -0.4522  0.9924  1.5794
   73CHL1  H22B 6566   3.084   1.508   4.727 -0.3859 -0.7738  0.5065
   73CHL1   C23 6567   3.109   1.331   4.820  0.7084 -0.3229  0.1160
   73CHL1  H23A 6568   3.004   1.299   4.812  0.6995 -0.4644  0.6995
   73CHL1  H23B 6569   3.173   1.241   4.819 -0.6062 -1.2782  0.1447
   73CHL1   C24 6570   3.114   1.409   4.946  0.2360 -0.0936  0.1851
   73CHL1  H24A 6571   3.215   1.454   4.954  0.5598 -0.7927  0.1967
   73CHL1  H24B 6572   3.038   1.488   4.931 -0.6313 -1.1204 -1.1418
   73CHL1   C25 6573   3.091   1.318   5.072 -0.2390 -0.0783  0.2867
   73CHL1   H25 6574   3.151   1.224   5.063  0.3301  0.3517 -0.5113
   73CHL1   C26 6575   3.132   1.393   5.200 -0.0999  0.5293  0.4035
   73CHL1  H26A 6576   3.098   1.324   5.280 -0.8960 -1.3031 -1.4152
   73CHL1  H26B 6577   3.242   1.406   5.205  0.3095 -1.6858 -1.1737
   73CHL1  H26C 6578   3.084   1.492   5.213  0.0121  0.6441 -0.0389
   73CHL1   C27 6579   2.949   1.263   5.077  0.3779  0.0231 -0.0209
   73CHL1  H27A 6580   2.943   1.178   5.148 -1.2408  0.2706  0.1926
   73CHL1  H27B 6581   2.863   1.330   5.100 -0.4611 -0.4646 -1.5557
   73CHL1  H27C 6582   2.935   1.218   4.976 -0.0390  2.5860 -1.1785
   74CHL1    C3 6583   3.973   1.769   3.953 -0.2212 -0.1430  0.5428
   74CHL1    H3 6584   4.068   1.720   3.983 -0.2278 -1.4863 -1.4770
   74CHL1    O3 6585   3.960   1.774   3.811  0.1685  0.0972 -0.2938
   74CHL1   H3' 6586   4.044   1.741   3.779  0.2475  0.3515 -0.3571
   74CHL1    C4 6587   3.870   1.663   3.989  0.3925 -0.2370 -0.4618
   74CHL1   H4A 6588   3.772   1.697   3.948  0.8838  0.6305 -0.9357
   74CHL1   H4B 6589   3.892   1.566   3.940 -1.1343 -1.6143  1.4456
   74CHL1    C5 6590   3.858   1.652   4.142  0.3180  0.3825 -0.1016
   74CHL1    C6 6591   3.858   1.531   4.204 -0.3814 -0.1699  0.6165
   74CHL1    H6 6592   3.891   1.444   4.146  1.0350 -0.4421  1.7703
   74CHL1    C7 6593   3.825   1.510   4.348 -0.6890  0.1835  0.8271
   74CHL1   H7A 6594   3.762   1.421   4.366  1.4814 -1.1195  2.4530
   74CHL1   H7B 6595   3.920   1.487   4.401  0.3078  0.4998 -0.7592
   74CHL1    C8 6596   3.767   1.635   4.416  0.0386 -1.3154  0.1517
   74CHL1    H8 6597   3.659   1.646   4.392  0.1413  0.3509  0.3705
   74CHL1   C14 6598   3.788   1.627   4.569 -0.4309 -0.0298 -0.0296
   74CHL1   H14 6599   3.899   1.623   4.573 -0.4270 -2.1520 -0.7611
   74CHL1   C15 6600   3.731   1.504   4.647  0.3035  0.5952  0.4211
   74CHL1  H15A 6601   3.628   1.474   4.619 -0.0519  0.6271  1.6433
   74CHL1  H15B 6602   3.804   1.422   4.627 -0.7096 -0.5873  1.3813
   74CHL1   C16 6603   3.727   1.554   4.793  0.5141  0.4266 -0.0199
   74CHL1  H16A 6604   3.621   1.548   4.826  1.1034 -0.8903  1.8375
   74CHL1  H16B 6605   3.779   1.491   4.869  0.8029  1.8485  0.9893
   74CHL1   C17 6606   3.782   1.697   4.795 -0.0410  0.0397  0.7356
   74CHL1   H17 6607   3.893   1.688   4.792  0.0429  0.3524  1.9904
   74CHL1   C13 6608   3.753   1.752   4.649 -0.1768  0.3927 -0.1526
   74CHL1   C18 6609   3.598   1.781   4.636 -0.5277 -0.3152  0.3776
   74CHL1  H18A 6610   3.584   1.879   4.686 -0.7627  1.5983 -3.1762
   74CHL1  H18B 6611   3.571   1.787   4.529  1.4244  1.7259 -0.0762
   74CHL1  H18C 6612   3.535   1.710   4.694 -0.7967  1.2344  2.0479
   74CHL1   C12 6613   3.828   1.879   4.596 -0.2151 -0.0701  0.1646
   74CHL1  H12A 6614   3.795   1.973   4.645 -0.6652 -0.7907  1.2915
   74CHL1  H12B 6615   3.934   1.851   4.609 -0.6178 -1.1215  1.3428
   74CHL1   C11 6616   3.812   1.889   4.442 -0.1218  0.0212  0.2993
   74CHL1  H11A 6617   3.707   1.914   4.418  0.1933  0.3961 -0.7387
   74CHL1  H11B 6618   3.875   1.977   4.417 -0.5601  0.2793  0.0833
   74CHL1    C9 6619   3.839   1.761   4.361  0.0510 -0.9485 -0.6739
   74CHL1    H9 6620   3.946   1.732   4.376  0.0280 -1.9619 -2.2089
   74CHL1   C10 6621   3.825   1.780   4.213 -0.4133  0.0254 -0.5599
   74CHL1   C19 6622   3.681   1.830   4.177 -1.0700  0.4115 -0.2527
   74CHL1  H19A 6623   3.653   1.921   4.234  2.1679 -0.1765  2.6188
   74CHL1  H19B 6624   3.675   1.866   4.072  1.0848  2.4919  0.2353
   74CHL1  H19C 6625   3.600   1.754   4.185  0.7795 -1.6187  0.2688
   74CHL1    C1 6626   3.928   1.890   4.165  0.0279 -0.4709  0.2131
   74CHL1   H1A 6627   3.902   1.993   4.198 -0.4317 -0.6597  0.4529
   74CHL1   H1B 6628   4.028   1.864   4.207  0.5419 -1.2011 -1.3509
   74CHL1    C2 6629   3.953   1.906   4.010 -0.0081 -0.2908 -0.5957
   74CHL1   H2A 6630   4.034   1.981   4.002  0.1990 -0.1455  1.9298
   74CHL1   H2B 6631   3.865   1.958   3.966  0.6641  0.6737 -0.8200
   74CHL1   C20 6632   3.722   1.776   4.912 -0.6415 -0.3238 -0.0533
   74CHL1   H20 6633   3.612   1.787   4.907 -0.5697 -0.0069 -1.3064
   74CHL1   C21 6634   3.775   1.923   4.915  0.4250 -0.5871 -0.3902
   74CHL1  H21A 6635   3.732   1.980   5.000 -1.9853 -1.0755 -1.1947
   74CHL1  H21B 6636   3.759   1.985   4.824  3.2598  0.3527 -0.3507
   74CHL1  H21C 6637   3.885   1.914   4.923  0.4893 -1.6614 -1.9622
   74CHL1   C22 6638   3.752   1.707   5.049  0.4508 -0.1046 -0.1692
   74CHL1  H22A 6639   3.717   1.772   5.132 -1.2809 -1.3108  0.0947
   74CHL1  H22B 6640   3.708   1.605   5.051  1.2769 -0.4678 -0.3875
   74CHL1   C23 6641   3.898   1.689   5.080 -1.0679  0.0296  0.0844
   74CHL1  H23A 6642   3.941   1.641   4.989 -1.5578  1.6842 -1.0745
   74CHL1  H23B 6643   3.963   1.778   5.093  0.3831 -0.9182 -0.3820
   74CHL1   C24 6644   3.936   1.579   5.194  0.0394 -0.3787  0.1140
   74CHL1  H24A 6645   3.914   1.476   5.160 -0.2898 -0.4914  0.6558
   74CHL1  H24B 6646   4.040   1.598   5.228 -1.1236  0.7981  3.4768
   74CHL1   C25 6647   3.853   1.600   5.326 -0.3499  0.0413 -0.6394
   74CHL1   H25 6648   3.744   1.592   5.304 -0.6639  2.9394 -0.5496
   74CHL1   C26 6649   3.897   1.498   5.440 -0.9243  0.5889  0.0940
   74CHL1  H26A 6650   3.856   1.400   5.409  1.1222 -1.7671  4.0914
   74CHL1  H26B 6651   4.008   1.500   5.437 -0.8845 -0.4436  0.5749
   74CHL1  H26C 6652   3.864   1.534   5.540  3.0578  0.8906  1.4790
   74CHL1   C27 6653   3.863   1.743   5.384  0.5252  0.3418  0.4621
   74CHL1  H27A 6654   3.840   1.829   5.317 -1.6306 -0.7748 -0.3264
   74CHL1  H27B 6655   3.787   1.748   5.465 -1.3418  0.4319 -1.2244
   74CHL1  H27C 6656   3.968   1.760   5.417  0.6426 -0.0588  0.2969
   75CHL1    C3 6657   4.157   5.073   6.678  0.5467  0.0485 -0.2128
   75CHL1    H3 6658   4.145   4.970   6.638 -0.9278 -0.1236  0.6033
   75CHL1    O3 6659   4.201   5.059   6.808 -0.0484 -0.1492  0.2034
   75CHL1   H3' 6660   4.151   4.994   6.857 -0.0446  0.8800  1.6143
   75CHL1    C4 6661   4.263   5.135   6.587  0.0967  0.2308  0.1369
   75CHL1   H4A 6662   4.299   5.229   6.634 -1.9195  2.2732 -2.1418
   75CHL1   H4B 6663   4.359   5.079   6.583  0.7600  1.3332  0.3285
   75CHL1    C5 6664   4.229   5.168   6.439 -0.0376  0.1477  0.0662
   75CHL1    C6 6665   4.303   5.127   6.331 -0.8895  0.0618 -0.1973
   75CHL1    H6 6666   4.394   5.068   6.349 -1.7392 -1.2532 -0.0658
   75CHL1    C7 6667   4.264   5.170   6.192  0.6860  0.4991  0.2262
   75CHL1   H7A 6668   4.357   5.200   6.139  0.4353 -1.5250 -1.5228
   75CHL1   H7B 6669   4.231   5.077   6.140 -0.4584  0.8115  0.3774
   75CHL1    C8 6670   4.146   5.266   6.191  0.3172  0.5016 -0.1823
   75CHL1    H8 6671   4.171   5.374   6.199  0.9870  0.2589  1.4070
   75CHL1   C14 6672   4.088   5.250   6.050  0.1181 -0.0669  0.3384
   75CHL1   H14 6673   4.058   5.143   6.049  1.7211 -0.5485  0.1273
   75CHL1   C15 6674   4.182   5.255   5.923  0.3907 -0.1204 -0.0597
   75CHL1  H15A 6675   4.256   5.336   5.933  0.6921 -0.3011 -0.7642
   75CHL1  H15B 6676   4.234   5.158   5.904 -0.8693 -0.6892 -0.7656
   75CHL1   C16 6677   4.086   5.291   5.808  0.3430 -0.7560 -0.5647
   75CHL1  H16A 6678   4.126   5.386   5.767  1.7118 -1.2226 -0.3698
   75CHL1  H16B 6679   4.096   5.219   5.724  4.7107  0.2530 -1.1547
   75CHL1   C17 6680   3.945   5.309   5.867 -0.1297 -0.0961 -0.3364
   75CHL1   H17 6681   3.900   5.208   5.865  0.5803 -0.4700  1.1329
   75CHL1   C13 6682   3.969   5.345   6.016  1.0234 -0.7640 -0.0720
   75CHL1   C18 6683   4.003   5.497   6.037 -0.0244 -0.1848 -0.1710
   75CHL1  H18A 6684   3.908   5.553   6.021 -0.5311 -1.1558 -0.6369
   75CHL1  H18B 6685   4.035   5.514   6.142  0.2997 -3.3923  0.3625
   75CHL1  H18C 6686   4.077   5.533   5.962 -1.0244  1.8230 -0.2621
   75CHL1   C12 6687   3.857   5.294   6.112  0.3590  0.0271 -1.2261
   75CHL1  H12A 6688   3.757   5.339   6.095  0.1341  0.7476  1.4315
   75CHL1  H12B 6689   3.841   5.184   6.108 -0.3653  0.1345 -1.4209
   75CHL1   C11 6690   3.905   5.313   6.257  0.4300  0.5838  0.1881
   75CHL1  H11A 6691   3.932   5.417   6.286  0.0020  0.9949 -0.8507
   75CHL1  H11B 6692   3.827   5.269   6.323  1.9665 -1.1969  0.9052
   75CHL1    C9 6693   4.035   5.226   6.289 -0.2005  0.7235 -0.2771
   75CHL1    H9 6694   4.010   5.122   6.261 -0.7013  1.1377 -1.4477
   75CHL1   C10 6695   4.087   5.232   6.430 -0.0530  0.0778 -0.3194
   75CHL1   C19 6696   4.106   5.379   6.477  0.1442  0.0593  1.0577
   75CHL1  H19A 6697   4.008   5.431   6.472  0.1126 -0.0536  0.3884
   75CHL1  H19B 6698   4.138   5.385   6.583  0.2324 -0.7998  1.0866
   75CHL1  H19C 6699   4.182   5.439   6.423  0.5512 -0.9261  0.5101
   75CHL1    C1 6700   3.985   5.161   6.524  0.0062  0.5149  0.0938
   75CHL1   H1A 6701   3.887   5.213   6.515 -0.2493  0.1061  0.5031
   75CHL1   H1B 6702   3.969   5.064   6.472  1.1883  1.2735 -1.7904
   75CHL1    C2 6703   4.028   5.147   6.671  0.4954  0.3436 -0.1651
   75CHL1   H2A 6704   3.942   5.099   6.722 -1.4472 -0.1614 -3.5908
   75CHL1   H2B 6705   4.039   5.246   6.720  0.5502 -0.1191  0.7811
   75CHL1   C20 6706   3.862   5.402   5.774  0.5179  0.0182  0.2389
   75CHL1   H20 6707   3.922   5.496   5.771 -0.2068  0.5457  1.7072
   75CHL1   C21 6708   3.723   5.430   5.829  0.0498 -0.0221 -0.1181
   75CHL1  H21A 6709   3.712   5.468   5.933 -0.9791  0.0938 -0.2607
   75CHL1  H21B 6710   3.672   5.331   5.828  0.4309 -0.2913  1.9305
   75CHL1  H21C 6711   3.669   5.501   5.763 -0.0861 -0.0046  0.0105
   75CHL1   C22 6712   3.841   5.334   5.629 -0.1181  0.1450  0.3950
   75CHL1  H22A 6713   3.779   5.406   5.572 -0.8322 -0.1786  0.7580
   75CHL1  H22B 6714   3.942   5.334   5.583 -0.1930  0.0957  0.2327
   75CHL1   C23 6715   3.791   5.194   5.623  0.3660  0.6410  0.1348
   75CHL1  H23A 6716   3.868   5.129   5.670 -0.0432  0.6785  0.8770
   75CHL1  H23B 6717   3.704   5.175   5.689  0.4810  0.6691  0.2943
   75CHL1   C24 6718   3.757   5.153   5.477 -0.0808 -0.5940 -0.1373
   75CHL1  H24A 6719   3.676   5.220   5.442 -0.6274 -1.1104  0.1132
   75CHL1  H24B 6720   3.849   5.168   5.417  0.0999 -1.9476 -0.2412
   75CHL1   C25 6721   3.724   5.006   5.465  0.6586 -0.0771  0.1404
   75CHL1   H25 6722   3.624   4.980   5.506  0.6944 -0.9529 -0.2983
   75CHL1   C26 6723   3.717   4.977   5.312 -0.3052  0.6298 -0.5639
   75CHL1  H26A 6724   3.820   4.990   5.273  0.7238 -2.0573  1.0358
   75CHL1  H26B 6725   3.697   4.869   5.297 -1.2186  0.6923  0.1171
   75CHL1  H26C 6726   3.646   5.047   5.262  0.0470  1.2496 -0.2116
   75CHL1   C27 6727   3.841   4.918   5.515  0.4944 -0.1709 -0.0692
   75CHL1  H27A 6728   3.933   4.966   5.476  0.1743 -1.0316 -1.9537
   75CHL1  H27B 6729   3.835   4.914   5.626 -0.1287 -2.2343 -0.1250
   75CHL1  H27C 6730   3.835   4.816   5.471  0.1142 -0.6515  1.0326
   76CHL1    C3 6731   0.806   4.695   4.083  0.3467  0.1418 -0.4623
   76CHL1    H3 6732   0.913   4.669   4.091  0.0931 -1.0524 -0.7739
   76CHL1    O3 6733   0.759   4.665   3.949  0.4764  0.6924 -0.1717
   76CHL1   H3' 6734   0.680   4.719   3.946 -0.2984 -0.2005  1.8286
   76CHL1    C4 6735   0.716   4.625   4.179 -0.2727  0.1587 -0.5093
   76CHL1   H4A 6736   0.610   4.646   4.151 -0.9429  0.8303  2.2335
   76CHL1   H4B 6737   0.729   4.515   4.182 -2.1003 -0.0688  0.2261
   76CHL1    C5 6738   0.723   4.668   4.323 -0.1331 -0.4358  0.0699
   76CHL1    C6 6739   0.734   4.575   4.424 -0.0507 -0.5350  0.2617
   76CHL1    H6 6740   0.719   4.469   4.402  2.6116 -0.9616  0.2760
   76CHL1    C7 6741   0.735   4.615   4.560 -0.5056  0.0166 -0.2404
   76CHL1   H7A 6742   0.650   4.556   4.601 -1.3883 -0.1105 -2.1450
   76CHL1   H7B 6743   0.832   4.592   4.608 -1.5727 -1.2392  1.4522
   76CHL1    C8 6744   0.712   4.767   4.594  0.2023 -0.4104 -0.7625
   76CHL1    H8 6745   0.606   4.798   4.586  1.1769  3.0266 -2.3673
   76CHL1   C14 6746   0.766   4.796   4.735  0.2765 -0.1969  0.0746
   76CHL1   H14 6747   0.870   4.755   4.733 -0.0408 -1.0133 -1.5367
   76CHL1   C15 6748   0.701   4.720   4.855  0.1730 -0.2369  0.2093
   76CHL1  H15A 6749   0.591   4.722   4.836  0.2507  0.2190 -0.2407
   76CHL1  H15B 6750   0.737   4.616   4.864  0.2557 -0.0375  2.6690
   76CHL1   C16 6751   0.749   4.803   4.974 -0.5743 -0.1676 -0.7928
   76CHL1  H16A 6752   0.671   4.848   5.039  0.8426 -0.1811  1.0166
   76CHL1  H16B 6753   0.815   4.743   5.040  0.6811  2.7827  0.8511
   76CHL1   C17 6754   0.831   4.917   4.917  0.0097  0.2586 -1.2434
   76CHL1   H17 6755   0.936   4.888   4.897 -0.4227 -0.3496 -2.7686
   76CHL1   C13 6756   0.768   4.944   4.785  0.1226  0.6229 -0.8172
   76CHL1   C18 6757   0.623   5.000   4.794  0.1685 -0.4440 -0.0305
   76CHL1  H18A 6758   0.606   5.106   4.822  1.0218 -0.7311  1.6869
   76CHL1  H18B 6759   0.575   4.990   4.694  1.5129  0.7126 -0.8257
   76CHL1  H18C 6760   0.570   4.944   4.874  0.7084  0.0973  0.7206
   76CHL1   C12 6761   0.848   5.017   4.679 -0.6335 -0.4129  0.7118
   76CHL1  H12A 6762   0.842   5.128   4.683 -1.2832 -0.1185 -3.6088
   76CHL1  H12B 6763   0.957   5.003   4.693 -0.5677  1.6861  3.2270
   76CHL1   C11 6764   0.798   4.995   4.540  0.1202  0.7548 -0.1788
   76CHL1  H11A 6765   0.693   5.032   4.543 -0.1154  0.1800 -1.0134
   76CHL1  H11B 6766   0.862   5.052   4.469  1.2006  0.5445  0.6083
   76CHL1    C9 6767   0.793   4.841   4.495  0.0234  0.1037  0.7230
   76CHL1    H9 6768   0.899   4.810   4.492  0.3372  1.1707 -2.1910
   76CHL1   C10 6769   0.739   4.821   4.343  0.5166 -0.4204  0.0456
   76CHL1   C19 6770   0.598   4.893   4.317  0.4605  0.0253  0.6002
   76CHL1  H19A 6771   0.607   5.003   4.332  2.6862 -0.4923  4.1697
   76CHL1  H19B 6772   0.571   4.872   4.211  4.6727  0.3509 -0.7217
   76CHL1  H19C 6773   0.513   4.854   4.376 -0.3900 -0.0621 -0.6457
   76CHL1    C1 6774   0.841   4.877   4.245  0.6951 -0.4307 -0.3577
   76CHL1   H1A 6775   0.844   4.985   4.270  0.8918 -0.3381 -0.7609
   76CHL1   H1B 6776   0.945   4.856   4.277 -0.1473 -0.6363  2.4436
   76CHL1    C2 6777   0.810   4.844   4.099 -0.0657 -0.0081 -0.8161
   76CHL1   H2A 6778   0.885   4.891   4.031 -0.9165 -1.1752 -2.6265
   76CHL1   H2B 6779   0.706   4.876   4.079 -1.4195 -2.6977  1.2682
   76CHL1   C20 6780   0.826   5.029   5.018 -0.5446  0.1248 -0.2001
   76CHL1   H20 6781   0.728   5.082   5.017  0.4549  2.0994 -1.2738
   76CHL1   C21 6782   0.923   5.139   4.970 -0.5908 -0.5327 -0.0759
   76CHL1  H21A 6783   0.893   5.180   4.872 -1.5991 -1.3985 -0.1478
   76CHL1  H21B 6784   1.018   5.085   4.949  0.8461  1.1778  1.7308
   76CHL1  H21C 6785   0.952   5.220   5.040  1.2976 -2.2620  1.2921
   76CHL1   C22 6786   0.859   5.007   5.164  0.2280  0.3457  0.5247
   76CHL1  H22A 6787   0.864   5.107   5.212  1.0515 -0.2852  1.7952
   76CHL1  H22B 6788   0.779   4.939   5.198 -0.6381  0.3528 -1.3728
   76CHL1   C23 6789   0.991   4.929   5.197 -0.7247  0.4193 -0.2202
   76CHL1  H23A 6790   1.003   4.856   5.114 -2.8334  1.8853 -1.9148
   76CHL1  H23B 6791   1.076   5.000   5.195 -0.1054 -0.2495  1.1362
   76CHL1   C24 6792   0.983   4.857   5.334 -0.0337  0.2328 -0.2323
   76CHL1  H24A 6793   1.004   4.929   5.417  1.9364 -1.5963  0.9533
   76CHL1  H24B 6794   0.878   4.827   5.355  0.1928  1.5876  3.6844
   76CHL1   C25 6795   1.081   4.737   5.353 -0.1793 -0.0150 -0.0883
   76CHL1   H25 6796   1.078   4.696   5.456  0.9254  0.1747  0.0375
   76CHL1   C26 6797   1.047   4.624   5.258 -0.5435  1.3857  0.1792
   76CHL1  H26A 6798   0.939   4.599   5.271 -0.2891 -0.0795 -0.3451
   76CHL1  H26B 6799   1.065   4.661   5.155 -1.6827  0.7507 -0.2734
   76CHL1  H26C 6800   1.099   4.530   5.288 -1.8257  0.8094  0.6846
   76CHL1   C27 6801   1.218   4.786   5.323 -0.2882  0.6768 -0.1070
   76CHL1  H27A 6802   1.230   4.894   5.345  2.1850  0.9760 -2.4386
   76CHL1  H27B 6803   1.303   4.733   5.373  0.1654  0.9140 -0.6102
   76CHL1  H27C 6804   1.235   4.787   5.213 -1.9779  2.0875 -0.3876
   77SOPE     N 6805   3.769   6.254   7.528  0.3574 -0.1465 -0.1367
   77SOPE   HN1 6806   3.859   6.234   7.576  0.5702  0.4659 -0.2747
   77SOPE   HN2 6807   3.713   6.328   7.575 -0.0509 -0.1767 -0.5770
   77SOPE   HN3 6808   3.704   6.173   7.525  0.5848 -0.5187  2.4556
   77SOPE   C12 6809   3.803   6.280   7.384  0.1046 -0.7918  0.2825
   77SOPE  H12A 6810   3.703   6.298   7.338  0.8170  3.6378  0.0955
   77SOPE  H12B 6811   3.850   6.188   7.344  0.9230 -0.4520  0.4540
   77SOPE   C11 6812   3.899   6.394   7.366 -0.8483 -0.3368 -0.0297
   77SOPE  H11A 6813   3.883   6.433   7.263 -0.1801 -0.8763 -0.3413
   77SOPE  H11B 6814   4.001   6.350   7.374 -0.9427 -0.6094 -0.3308
   77SOPE     P 6815   3.994   6.620   7.444  0.1450  0.1755  0.3949
   77SOPE   O13 6816   4.117   6.563   7.497  0.2441  0.2740 -0.5877
   77SOPE   O14 6817   3.939   6.734   7.519 -0.3757 -0.0357 -0.2974
   77SOPE   O12 6818   3.885   6.505   7.451  0.4495 -0.6460 -0.1775
   77SOPE   O11 6819   4.014   6.655   7.295  0.1271  0.4407 -0.3977
   77SOPE    C1 6820   4.140   6.704   7.250  0.1862 -0.1174  0.2131
   77SOPE    HA 6821   4.128   6.739   7.145 -0.9668 -0.2839  0.2758
   77SOPE    HB 6822   4.215   6.623   7.239 -0.4218 -1.1757  2.9099
   77SOPE    C2 6823   4.207   6.821   7.326  0.2147  0.7058  0.5031
   77SOPE    HS 6824   4.231   6.779   7.426  1.9875 -0.1524 -0.2431
   77SOPE   O21 6825   4.111   6.930   7.343 -0.1020  0.4883  0.2331
   77SOPE   C21 6826   4.115   6.993   7.460  0.1367 -0.7483 -0.1654
   77SOPE   O22 6827   4.204   6.988   7.544  0.3883  0.8098 -0.2204
   77SOPE   C22 6828   3.988   7.087   7.461  0.1110  0.2866  0.1703
   77SOPE   H2R 6829   4.028   7.186   7.491  0.4612  0.4126 -0.6813
   77SOPE   H2S 6830   3.926   7.037   7.539 -1.0697  0.8723 -0.3613
   77SOPE    C3 6831   4.337   6.872   7.254 -0.2876 -0.0271 -0.3147
   77SOPE    HX 6832   4.406   6.785   7.254 -0.0896  0.0742  1.5878
   77SOPE    HY 6833   4.396   6.938   7.322 -0.0699 -0.6268  0.0866
   77SOPE   O31 6834   4.332   6.937   7.120  0.6349 -0.2612 -0.9133
   77SOPE   C31 6835   4.280   7.060   7.116  0.4991  0.8278 -0.2100
   77SOPE   O32 6836   4.252   7.135   7.208  0.1084 -0.0486 -0.5241
   77SOPE   C32 6837   4.267   7.097   6.965  0.6890 -0.6556  0.2549
   77SOPE   H2X 6838   4.176   7.041   6.935 -0.3047  1.2743 -0.5200
   77SOPE   H2Y 6839   4.360   7.057   6.920  1.5729 -0.9833  2.2507
   77SOPE   C23 6840   3.909   7.101   7.326 -0.4237  0.1802 -0.4152
   77SOPE   H3R 6841   3.850   7.008   7.307 -0.5833 -0.2229  1.8046
   77SOPE   H3S 6842   3.974   7.112   7.237  2.5429 -2.9742  1.1419
   77SOPE   C24 6843   3.811   7.218   7.326  0.1470  0.4493  0.8169
   77SOPE   H4R 6844   3.737   7.185   7.403 -0.5203 -0.1564 -0.0542
   77SOPE   H4S 6845   3.856   7.317   7.347  0.6312  0.0407  1.7353
   77SOPE   C25 6846   3.724   7.226   7.194 -0.2656  0.0588 -0.3948
   77SOPE   H5R 6847   3.676   7.126   7.188  4.0694 -2.4822  2.1343
   77SOPE   H5S 6848   3.644   7.301   7.212 -0.2301  1.1547 -3.9666
   77SOPE   C26 6849   3.799   7.261   7.068 -0.3616  0.6603 -0.0188
   77SOPE   H6R 6850   3.845   7.361   7.082  1.7004 -0.1045 -0.9450
   77SOPE   H6S 6851   3.866   7.176   7.045 -1.0311  0.3452 -0.8188
   77SOPE   C27 6852   3.693   7.258   6.963 -0.5410  0.5028 -0.2605
   77SOPE   H7R 6853   3.623   7.172   6.970 -1.5179  1.3971  4.5703
   77SOPE   H7S 6854   3.638   7.352   6.982  3.0735  2.4062  1.9024
   77SOPE   C28 6855   3.746   7.267   6.818  0.5070  0.5910  0.4196
   77SOPE   H8R 6856   3.796   7.366   6.831  0.1279  0.7469  0.6990
   77SOPE   H8S 6857   3.813   7.181   6.798  0.8086  0.4988  1.7205
   77SOPE   C29 6858   3.639   7.276   6.716  0.6206 -0.4130 -0.0480
   77SOPE   H91 6859   3.539   7.245   6.750  2.3815 -2.3818  3.9976
   77SOPE  C210 6860   3.654   7.307   6.584 -0.4346 -0.1248 -0.9985
   77SOPE  H101 6861   3.572   7.319   6.511 -0.9411 -0.7178 -0.5417
   77SOPE  C211 6862   3.794   7.352   6.529  0.5107  0.2546  0.2434
   77SOPE  H11R 6863   3.829   7.264   6.471 -0.9617  0.2628 -0.7209
   77SOPE  H11S 6864   3.861   7.370   6.615 -0.7351  0.5117  1.1866
   77SOPE  C212 6865   3.779   7.484   6.450  0.2545  0.7589  0.1943
   77SOPE  H12R 6866   3.885   7.503   6.426  0.4747 -0.5083  0.1115
   77SOPE  H12S 6867   3.727   7.566   6.505  0.0420  1.9073 -1.6102
   77SOPE  C213 6868   3.718   7.469   6.307 -0.4588  0.4530 -0.2754
   77SOPE  H13R 6869   3.620   7.416   6.301  1.1064 -2.7299 -0.2334
   77SOPE  H13S 6870   3.786   7.407   6.244 -1.7957 -0.6082 -0.7176
   77SOPE  C214 6871   3.705   7.602   6.252 -0.6816 -0.7667 -0.3394
   77SOPE  H14R 6872   3.807   7.642   6.235 -0.9823  0.6104  0.8771
   77SOPE  H14S 6873   3.664   7.664   6.334 -1.3324 -0.1110 -1.1435
   77SOPE  C215 6874   3.617   7.616   6.123  0.9073  0.0172 -0.7433
   77SOPE  H15R 6875   3.512   7.592   6.147  0.6014  1.3223 -0.6956
   77SOPE  H15S 6876   3.644   7.542   6.044  0.4125 -0.1363 -0.7714
   77SOPE  C216 6877   3.612   7.751   6.050  0.3983  0.2484  0.2261
   77SOPE  H16R 6878   3.717   7.781   6.030  0.1549  1.1218  0.1895
   77SOPE  H16S 6879   3.565   7.837   6.103 -0.6533  0.0336 -0.3199
   77SOPE  C217 6880   3.541   7.742   5.918 -0.6206 -0.2350  0.7056
   77SOPE  H17R 6881   3.432   7.730   5.938 -0.9478 -0.9491 -1.2712
   77SOPE  H17S 6882   3.578   7.664   5.849 -0.9012  0.6026 -0.4132
   77SOPE  C218 6883   3.551   7.876   5.841  0.1083 -0.3175 -0.3512
   77SOPE  H18R 6884   3.509   7.955   5.907  1.5845 -0.0510  0.2895
   77SOPE  H18S 6885   3.492   7.864   5.747 -1.5904  1.0986  0.4627
   77SOPE  H18T 6886   3.655   7.908   5.819 -0.6530  1.1850 -2.0205
   77SOPE   C33 6887   4.220   7.245   6.942  0.5394 -0.1493 -0.2013
   77SOPE   H3X 6888   4.253   7.312   7.024  1.3043  0.1588 -0.7487
   77SOPE   H3Y 6889   4.110   7.259   6.939  0.7526  1.7792 -0.1685
   77SOPE   C34 6890   4.276   7.295   6.809 -0.6551  0.0486  0.2233
   77SOPE   H4X 6891   4.378   7.257   6.788  0.2034  1.8832  0.8848
   77SOPE   H4Y 6892   4.286   7.405   6.809  1.0002 -0.0793  0.8678
   77SOPE   C35 6893   4.198   7.240   6.689  0.6208  0.3928  0.0640
   77SOPE   H5X 6894   4.092   7.272   6.694  0.0730 -0.9976 -1.6421
   77SOPE   H5Y 6895   4.195   7.129   6.697  2.0924  0.2518 -1.0025
   77SOPE   C36 6896   4.264   7.288   6.557  0.4980  0.2027 -0.1303
   77SOPE   H6X 6897   4.349   7.222   6.529 -1.7806 -2.0847 -2.1349
   77SOPE   H6Y 6898   4.301   7.391   6.575 -2.1412  1.0112  1.0380
   77SOPE   C37 6899   4.169   7.290   6.437 -0.0868  0.2242  0.2298
   77SOPE   H7X 6900   4.088   7.365   6.453 -0.8832 -0.8216  1.2612
   77SOPE   H7Y 6901   4.115   7.195   6.417 -1.2042  0.5045  1.7379
   77SOPE   C38 6902   4.245   7.345   6.312 -0.3490  0.4245  0.2175
   77SOPE   H8X 6903   4.324   7.273   6.282  1.0991  1.2052  2.0295
   77SOPE   H8Y 6904   4.297   7.440   6.335  1.2154 -0.4747  0.5273
   77SOPE   C39 6905   4.146   7.386   6.198  0.3030 -0.3418  0.5963
   77SOPE   H9X 6906   4.058   7.447   6.227  0.4228  0.2437 -0.2114
   77SOPE   H9Y 6907   4.108   7.291   6.156  0.1582  1.8219 -5.0861
   77SOPE  C310 6908   4.224   7.446   6.080  0.5399 -0.3082  0.1421
   77SOPE  H10X 6909   4.296   7.368   6.046  0.1726 -1.1392  1.2163
   77SOPE  H10Y 6910   4.278   7.535   6.117 -1.7121  1.2978 -0.2268
   77SOPE  C311 6911   4.125   7.478   5.970 -0.3234 -0.0740 -0.2586
   77SOPE  H11X 6912   4.074   7.384   5.940  0.4623 -2.2491  4.3555
   77SOPE  H11Y 6913   4.189   7.516   5.887 -0.3747  1.7619  0.5021
   77SOPE  C312 6914   4.031   7.581   6.021 -0.2857  0.1798 -0.1306
   77SOPE  H12X 6915   4.080   7.637   6.103  0.1871  0.4272 -0.5727
   77SOPE  H12Y 6916   3.937   7.531   6.052 -1.0894  0.9609 -1.2038
   77SOPE  C313 6917   3.993   7.679   5.903  0.3082  0.4226 -0.3977
   77SOPE  H13X 6918   4.090   7.721   5.869  0.4496  2.3561  2.0719
   77SOPE  H13Y 6919   3.934   7.759   5.953  0.3725 -0.5888  1.3907
   77SOPE  C314 6920   3.917   7.596   5.795  0.1938 -0.0756 -0.2143
   77SOPE  H14X 6921   3.825   7.553   5.842  0.3457  0.0610  0.2103
   77SOPE  H14Y 6922   3.980   7.512   5.759  0.5156 -0.4629  1.1737
   77SOPE  C315 6923   3.885   7.678   5.669  0.0368 -1.2714 -0.1235
   77SOPE  H15X 6924   3.983   7.705   5.625  1.2021 -1.8074  2.0203
   77SOPE  H15Y 6925   3.834   7.772   5.701 -0.0546 -0.9624 -1.1138
   77SOPE  C316 6926   3.797   7.595   5.576 -0.0106  0.0572 -0.2618
   77SOPE  H16X 6927   3.761   7.660   5.494 -1.3675  1.5086  1.3945
   77SOPE  H16Y 6928   3.712   7.557   5.637 -1.3718  2.2112 -0.7128
   77SOPE  C317 6929   3.864   7.476   5.507 -0.8717  0.9249  0.0206
   77SOPE  H17X 6930   3.855   7.378   5.557  0.5048  0.7166 -0.1090
   77SOPE  H17Y 6931   3.971   7.502   5.501 -1.2366  2.6078  0.2492
   77SOPE  C318 6932   3.821   7.462   5.358  0.0703 -0.6525 -0.4466
   77SOPE  H18X 6933   3.897   7.409   5.297  2.1257  1.8113 -0.1740
   77SOPE  H18Y 6934   3.808   7.565   5.320  1.7182 -0.4837 -0.6016
   77SOPE  H18Z 6935   3.719   7.417   5.353  0.1465 -0.7892 -0.7711
   78SOPE     N 6936   2.746   6.699   7.677  0.1688  0.0879  0.3485
   78SOPE   HN1 6937   2.735   6.772   7.750 -1.0607  1.1025 -0.8010
   78SOPE   HN2 6938   2.649   6.664   7.659  0.7833 -2.1756  1.0602
   78SOPE   HN3 6939   2.795   6.613   7.710  1.2162  1.0016  1.2197
   78SOPE   C12 6940   2.800   6.763   7.550 -0.0037 -0.5359  0.7388
   78SOPE  H12A 6941   2.911   6.764   7.555  0.0373  0.0378 -0.1297
   78SOPE  H12B 6942   2.770   6.870   7.547 -0.3148 -0.6271 -2.1183
   78SOPE   C11 6943   2.757   6.695   7.420 -0.7710 -0.5545  0.5137
   78SOPE  H11A 6944   2.804   6.743   7.331  0.3555  1.3875  2.0719
   78SOPE  H11B 6945   2.647   6.695   7.405 -1.1626  2.3368  2.4843
   78SOPE     P 6946   2.770   6.441   7.359  0.1056 -0.0895  0.1766
   78SOPE   O13 6947   2.647   6.395   7.430  0.0812  0.1988  0.2773
   78SOPE   O14 6948   2.881   6.337   7.352 -0.0381 -0.1228 -0.0748
   78SOPE   O12 6949   2.819   6.562   7.433  0.3949 -0.1314 -0.3076
   78SOPE   O11 6950   2.730   6.498   7.224  0.2996 -0.5046  0.4740
   78SOPE    C1 6951   2.799   6.475   7.105 -0.4303  0.6567  0.1494
   78SOPE    HA 6952   2.869   6.389   7.116 -0.2129  0.9684  1.3588
   78SOPE    HB 6953   2.869   6.559   7.090  2.5139 -1.6051  0.2877
   78SOPE    C2 6954   2.699   6.437   6.988 -0.1000 -0.2646  0.3370
   78SOPE    HS 6955   2.767   6.430   6.900  2.6592  0.0907  2.3129
   78SOPE   O21 6956   2.611   6.552   6.972  0.4000  0.7198  0.3799
   78SOPE   C21 6957   2.558   6.562   6.850 -0.8743  0.4332 -0.3180
   78SOPE   O22 6958   2.567   6.476   6.763 -0.1116  0.1235 -0.1645
   78SOPE   C22 6959   2.492   6.691   6.827 -0.0586 -0.8338 -0.1421
   78SOPE   H2R 6960   2.429   6.709   6.916  0.4840 -2.3323  0.5772
   78SOPE   H2S 6961   2.425   6.687   6.739  0.9616  1.9761 -1.1837
   78SOPE    C3 6962   2.626   6.302   7.018 -0.1970 -0.6248  0.2837
   78SOPE    HX 6963   2.559   6.276   6.933 -0.4243 -2.8867  1.1011
   78SOPE    HY 6964   2.578   6.310   7.118 -0.0049  0.0988  0.3243
   78SOPE   O31 6965   2.733   6.200   7.019  0.1189 -0.4497 -0.6582
   78SOPE   C31 6966   2.680   6.083   7.069 -0.9205 -0.1396 -0.1489
   78SOPE   O32 6967   2.566   6.079   7.124 -1.1269 -0.6386  0.3687
   78SOPE   C32 6968   2.780   5.967   7.041 -0.2125 -0.3251 -0.3715
   78SOPE   H2X 6969   2.725   5.880   6.999 -1.7008 -0.3117  1.4011
   78SOPE   H2Y 6970   2.825   5.946   7.141  3.1956 -1.6113 -2.0263
   78SOPE   C23 6971   2.608   6.797   6.823 -0.1793 -0.1178 -0.7316
   78SOPE   H3R 6972   2.691   6.781   6.894  0.7901 -2.1872 -2.2142
   78SOPE   H3S 6973   2.568   6.898   6.849  1.1594  0.2509 -0.0059
   78SOPE   C24 6974   2.688   6.811   6.689 -0.2020  0.5665 -0.2579
   78SOPE   H4R 6975   2.749   6.903   6.700 -0.6800  1.1094 -1.9478
   78SOPE   H4S 6976   2.753   6.724   6.670  1.2749  1.0243  2.2242
   78SOPE   C25 6977   2.596   6.843   6.568 -0.7511 -0.2537 -0.4164
   78SOPE   H5R 6978   2.563   6.743   6.530  0.6214 -1.8315  2.2596
   78SOPE   H5S 6979   2.502   6.885   6.611 -1.6940 -2.1533 -0.4848
   78SOPE   C26 6980   2.657   6.942   6.468  0.6241 -0.1588  0.4300
   78SOPE   H6R 6981   2.577   6.973   6.398  1.5301 -0.4817 -0.7899
   78SOPE   H6S 6982   2.703   7.036   6.505  0.0575  0.4695 -0.4415
   78SOPE   C27 6983   2.779   6.881   6.395  0.0224  0.2229  0.0218
   78SOPE   H7R 6984   2.854   6.890   6.477  0.0165  1.3454 -0.0700
   78SOPE   H7S 6985   2.767   6.772   6.378  2.3659 -0.2347  0.9084
   78SOPE   C28 6986   2.825   6.954   6.266  0.7437  0.3893 -0.6458
   78SOPE   H8R 6987   2.847   7.061   6.284 -0.1540  0.9644 -2.7191
   78SOPE   H8S 6988   2.920   6.917   6.222 -1.1114 -0.5338 -4.1894
   78SOPE   C29 6989   2.723   6.939   6.152 -0.4079 -0.0021 -0.3731
   78SOPE   H91 6990   2.635   7.004   6.166 -0.7297 -0.6420  0.7050
   78SOPE  C210 6991   2.715   6.845   6.057  0.0164 -0.3300 -0.1774
   78SOPE  H101 6992   2.639   6.854   5.978  1.0223 -1.1200 -1.2602
   78SOPE  C211 6993   2.804   6.726   6.036  0.1031 -0.1977  0.2130
   78SOPE  H11R 6994   2.840   6.684   6.133 -2.3426 -1.7080  0.5492
   78SOPE  H11S 6995   2.895   6.756   5.979 -0.2815 -1.5073 -1.1465
   78SOPE  C212 6996   2.754   6.607   5.958 -0.3540  0.4437  0.2678
   78SOPE  H12R 6997   2.838   6.539   5.932 -0.2017  0.7107  0.0546
   78SOPE  H12S 6998   2.706   6.638   5.863 -1.0587  0.2847  0.5648
   78SOPE  C213 6999   2.652   6.509   6.027  0.0327 -0.1745 -0.6982
   78SOPE  H13R 7000   2.650   6.412   5.974 -2.1226 -2.1990  2.7159
   78SOPE  H13S 7001   2.553   6.560   6.028 -0.2955 -0.8074 -0.4743
   78SOPE  C214 7002   2.704   6.463   6.175  0.2520 -0.6880  0.1981
   78SOPE  H14R 7003   2.638   6.376   6.197  0.1866 -0.5429  0.6038
   78SOPE  H14S 7004   2.682   6.545   6.248  0.3384  0.0428 -0.5794
   78SOPE  C215 7005   2.845   6.414   6.187  0.0905 -0.0019 -0.2862
   78SOPE  H15R 7006   2.907   6.502   6.162  1.1933 -1.4243 -2.9664
   78SOPE  H15S 7007   2.863   6.338   6.108  3.0462  0.3638 -0.0708
   78SOPE  C216 7008   2.891   6.353   6.319  0.4998 -0.4162  0.4529
   78SOPE  H16R 7009   2.878   6.430   6.399 -0.3491 -0.1186  0.0411
   78SOPE  H16S 7010   3.001   6.337   6.324  0.4292 -0.8895  0.5007
   78SOPE  C217 7011   2.818   6.228   6.365  0.1238 -0.2160 -0.4296
   78SOPE  H17R 7012   2.840   6.145   6.294  2.1766  0.9463 -1.2673
   78SOPE  H17S 7013   2.710   6.254   6.373  0.2329  0.0420  0.2862
   78SOPE  C218 7014   2.857   6.195   6.508  0.4934 -0.4941 -0.4531
   78SOPE  H18R 7015   2.962   6.182   6.539  0.3140  1.6691  1.2700
   78SOPE  H18S 7016   2.796   6.111   6.547 -1.0105 -0.3466 -2.3146
   78SOPE  H18T 7017   2.817   6.282   6.564  0.4804  0.4414 -1.8463
   78SOPE   C33 7018   2.882   6.014   6.933 -0.1823 -0.1283  0.0745
   78SOPE   H3X 7019   2.933   6.112   6.943 -1.6724  0.8052 -0.9404
   78SOPE   H3Y 7020   2.819   6.020   6.842  2.9590  1.8708 -2.1620
   78SOPE   C34 7021   2.988   5.903   6.902  0.0058  0.9956  1.0267
   78SOPE   H4X 7022   2.933   5.806   6.898  2.2239 -0.2989 -1.1874
   78SOPE   H4Y 7023   3.064   5.894   6.983 -0.1358  0.2142  1.0836
   78SOPE   C35 7024   3.049   5.916   6.762  0.3357  0.6501  0.3960
   78SOPE   H5X 7025   3.136   5.985   6.755  1.5363 -0.5631  2.4443
   78SOPE   H5Y 7026   2.974   5.962   6.694 -0.2655  0.2148  0.7609
   78SOPE   C36 7027   3.091   5.786   6.698  0.4726 -0.0258  0.4825
   78SOPE   H6X 7028   3.027   5.700   6.726  0.1808  0.1574  0.3829
   78SOPE   H6Y 7029   3.192   5.763   6.739 -0.5047 -2.1466  1.8632
   78SOPE   C37 7030   3.092   5.798   6.543  0.0724  0.5171 -0.2242
   78SOPE   H7X 7031   2.985   5.791   6.514  0.0864  0.6082 -0.2964
   78SOPE   H7Y 7032   3.150   5.714   6.500  0.0588 -0.6570  1.8852
   78SOPE   C38 7033   3.160   5.921   6.484 -0.4449  0.2939 -0.0774
   78SOPE   H8X 7034   3.267   5.930   6.510 -0.5319 -0.8984  0.7717
   78SOPE   H8Y 7035   3.124   6.020   6.521  1.7161  1.4382 -0.8776
   78SOPE   C39 7036   3.159   5.922   6.334 -0.0955  0.3871  0.2432
   78SOPE   H9X 7037   3.056   5.888   6.307 -0.4265  2.1551 -0.8896
   78SOPE   H9Y 7038   3.241   5.860   6.293  1.3847  1.6405  1.2398
   78SOPE  C310 7039   3.155   6.063   6.280  0.5111 -0.1465  0.3536
   78SOPE  H10X 7040   3.238   6.129   6.312 -0.2701  1.4720 -0.8027
   78SOPE  H10Y 7041   3.065   6.111   6.324 -0.6601 -1.2641 -0.7317
   78SOPE  C311 7042   3.138   6.071   6.130 -0.5260  0.6604 -0.4489
   78SOPE  H11X 7043   3.053   6.009   6.095 -0.1103  0.5599 -1.3070
   78SOPE  H11Y 7044   3.226   6.026   6.078 -0.6727 -2.3615  1.6523
   78SOPE  C312 7045   3.132   6.210   6.065 -0.4455 -0.2986  0.4185
   78SOPE  H12X 7046   3.226   6.263   6.092 -0.4981  0.0820 -0.1094
   78SOPE  H12Y 7047   3.053   6.271   6.113 -3.6075 -1.5239 -2.8097
   78SOPE  C313 7048   3.107   6.212   5.916  0.4970  0.1201  0.6684
   78SOPE  H13X 7049   3.006   6.167   5.905  0.2486  1.1375 -1.9176
   78SOPE  H13Y 7050   3.195   6.169   5.863  1.1504  1.4517  0.6096
   78SOPE  C314 7051   3.078   6.356   5.870 -0.2454  0.0975 -0.3683
   78SOPE  H14X 7052   3.166   6.421   5.889 -1.2830  1.2784  0.5149
   78SOPE  H14Y 7053   3.002   6.407   5.933  2.5754  2.6411  1.2732
   78SOPE  C315 7054   3.034   6.366   5.728  0.7373  0.7149  0.2563
   78SOPE  H15X 7055   2.946   6.298   5.722  1.9771 -0.8577 -0.9200
   78SOPE  H15Y 7056   3.109   6.307   5.670 -1.1098 -0.3594 -1.1681
   78SOPE  C316 7057   3.021   6.503   5.676  0.2935 -0.3098  0.6472
   78SOPE  H16X 7058   3.118   6.552   5.696 -0.2834  0.9404  0.4967
   78SOPE  H16Y 7059   2.947   6.542   5.750 -0.8895 -0.4926 -0.4131
   78SOPE  C317 7060   2.982   6.505   5.531  0.1340 -1.3492  0.9655
   78SOPE  H17X 7061   2.907   6.427   5.507 -0.6966 -0.3167  0.0945
   78SOPE  H17Y 7062   3.074   6.492   5.470 -1.2962  1.2104 -2.0109
   78SOPE  C318 7063   2.920   6.638   5.483 -0.2754 -0.4938  0.0941
   78SOPE  H18X 7064   2.820   6.649   5.531 -0.5899 -0.0066 -0.6472
   78SOPE  H18Y 7065   2.899   6.627   5.374  1.5506  0.0134 -0.3385
   78SOPE  H18Z 7066   2.986   6.725   5.500 -1.0526  0.0086  0.6143
   79SOPE     N 7067   5.647   6.742   7.418  0.8710  0.0939 -0.6463
   79SOPE   HN1 7068   5.676   6.650   7.381  3.2754  0.9823 -1.1045
   79SOPE   HN2 7069   5.603   6.792   7.338 -1.1503  1.9643  1.4627
   79SOPE   HN3 7070   5.738   6.790   7.433  0.7774 -0.0896  0.5560
   79SOPE   C12 7071   5.547   6.734   7.533 -0.1978 -0.1390  0.1236
   79SOPE  H12A 7072   5.474   6.817   7.543  1.3303  1.0753  1.8258
   79SOPE  H12B 7073   5.607   6.719   7.625  1.4504  0.3801 -0.8382
   79SOPE   C11 7074   5.466   6.598   7.512 -0.4415  0.1416 -0.2150
   79SOPE  H11A 7075   5.417   6.593   7.413 -3.0055  2.4184  0.8122
   79SOPE  H11B 7076   5.381   6.604   7.584 -0.2768  0.1379 -0.0183
   79SOPE     P 7077   5.639   6.398   7.461 -0.0395  0.4902  0.6295
   79SOPE   O13 7078   5.568   6.276   7.409 -0.2790 -0.3014  0.1050
   79SOPE   O14 7079   5.754   6.378   7.549 -0.0934 -0.4929  0.0643
   79SOPE   O12 7080   5.543   6.480   7.546 -0.2315 -0.0879 -0.4009
   79SOPE   O11 7081   5.680   6.493   7.344 -0.0897  0.0344  0.1574
   79SOPE    C1 7082   5.629   6.485   7.213 -0.0862  0.5471  0.0892
   79SOPE    HA 7083   5.682   6.561   7.152  0.0745  0.1927 -0.2180
   79SOPE    HB 7084   5.519   6.501   7.220 -0.4542 -1.6465  0.3048
   79SOPE    C2 7085   5.667   6.352   7.138 -0.0832 -0.2632 -0.0817
   79SOPE    HS 7086   5.664   6.262   7.202 -0.4120  0.5585  1.1005
   79SOPE   O21 7087   5.798   6.365   7.077  0.3699 -0.1084  0.0468
   79SOPE   C21 7088   5.841   6.265   7.007 -0.2696 -0.2630  1.3507
   79SOPE   O22 7089   5.791   6.156   6.993  0.1645  0.1958  1.4708
   79SOPE   C22 7090   5.974   6.308   6.945  0.5010 -0.2653 -0.0007
   79SOPE   H2R 7091   6.053   6.255   7.001  0.5099 -0.4797 -0.2165
   79SOPE   H2S 7092   5.995   6.417   6.957 -1.4484  0.2708 -0.9812
   79SOPE    C3 7093   5.563   6.325   7.024  0.2102 -0.1985  0.1856
   79SOPE    HX 7094   5.465   6.321   7.075 -0.2717 -1.0669 -0.7633
   79SOPE    HY 7095   5.577   6.227   6.974 -0.4641 -0.7346  1.0263
   79SOPE   O31 7096   5.571   6.440   6.938 -0.1075  0.0427  0.3190
   79SOPE   C31 7097   5.514   6.428   6.816  0.4488 -0.0097  0.0181
   79SOPE   O32 7098   5.450   6.331   6.782 -0.4722 -0.0477 -0.1911
   79SOPE   C32 7099   5.557   6.551   6.728 -0.0381 -0.0502  0.1642
   79SOPE   H2X 7100   5.667   6.545   6.721 -0.0588 -1.4406  0.6939
   79SOPE   H2Y 7101   5.527   6.644   6.781 -1.2070 -0.0755 -0.4192
   79SOPE   C23 7102   5.981   6.256   6.794 -0.2133 -0.1063  0.1206
   79SOPE   H3R 7103   5.964   6.147   6.781  0.4576 -0.0325 -1.7108
   79SOPE   H3S 7104   6.089   6.272   6.774  0.2017  0.9047  2.7950
   79SOPE   C24 7105   5.899   6.337   6.691 -0.4887 -0.0179 -0.1453
   79SOPE   H4R 7106   5.794   6.330   6.725 -0.4793 -1.8875 -0.4310
   79SOPE   H4S 7107   5.934   6.443   6.686 -0.8156  0.1280  0.5913
   79SOPE   C25 7108   5.909   6.280   6.546 -0.2789 -0.2478  0.2454
   79SOPE   H5R 7109   6.012   6.273   6.506  0.0908 -2.7231  1.4414
   79SOPE   H5S 7110   5.872   6.175   6.552  0.8748 -0.6774 -0.0286
   79SOPE   C26 7111   5.835   6.362   6.443  0.3243 -0.5444  0.0757
   79SOPE   H6R 7112   5.729   6.331   6.455  0.5088 -0.5649  2.1726
   79SOPE   H6S 7113   5.846   6.472   6.457  0.3421 -0.2298 -2.1161
   79SOPE   C27 7114   5.869   6.340   6.293 -0.4252  0.6059 -0.0979
   79SOPE   H7R 7115   5.977   6.364   6.292 -0.0921 -0.7812 -1.1188
   79SOPE   H7S 7116   5.846   6.236   6.260 -0.5871  0.8654 -0.8219
   79SOPE   C28 7117   5.803   6.443   6.202  0.3434 -0.5167  0.9968
   79SOPE   H8R 7118   5.818   6.544   6.244 -2.2516 -1.3435  4.4170
   79SOPE   H8S 7119   5.859   6.424   6.108  0.9569 -0.6834  1.3933
   79SOPE   C29 7120   5.653   6.418   6.189  0.1670 -0.8922 -0.2843
   79SOPE   H91 7121   5.599   6.400   6.283 -0.8856  0.5763 -0.5804
   79SOPE  C210 7122   5.587   6.401   6.073  0.1140  0.0379  0.6534
   79SOPE  H101 7123   5.480   6.374   6.073  0.2510 -0.6026  2.5354
   79SOPE  C211 7124   5.636   6.432   5.930  0.5987  0.4591 -0.2503
   79SOPE  H11R 7125   5.634   6.336   5.873  0.3876 -0.1077  0.6883
   79SOPE  H11S 7126   5.740   6.473   5.925  0.8158 -0.1968 -1.6956
   79SOPE  C212 7127   5.538   6.528   5.847 -0.0797  0.0732  0.3180
   79SOPE  H12R 7128   5.531   6.618   5.911 -1.1798  1.5001 -1.7131
   79SOPE  H12S 7129   5.441   6.476   5.835 -0.7386  1.1379  0.9410
   79SOPE  C213 7130   5.595   6.577   5.712 -0.1704  0.1204  1.4600
   79SOPE  H13R 7131   5.699   6.613   5.731  1.4950 -2.9328 -0.9637
   79SOPE  H13S 7132   5.531   6.662   5.681 -0.3085 -0.5675 -0.2393
   79SOPE  C214 7133   5.601   6.465   5.604 -0.8268  0.0504  0.0175
   79SOPE  H14R 7134   5.504   6.415   5.583 -0.8176  0.8854 -2.1899
   79SOPE  H14S 7135   5.681   6.396   5.641  1.4414  2.1046 -0.7925
   79SOPE  C215 7136   5.667   6.519   5.473  1.4184 -0.1941 -0.7198
   79SOPE  H15R 7137   5.756   6.575   5.509  0.5050  1.3119 -0.7305
   79SOPE  H15S 7138   5.588   6.590   5.442  0.7335 -1.1888 -1.2892
   79SOPE  C216 7139   5.717   6.425   5.370  0.0439 -0.1052  0.2956
   79SOPE  H16R 7140   5.754   6.344   5.436  3.3324  0.1873 -0.9947
   79SOPE  H16S 7141   5.803   6.459   5.309 -0.4305 -0.3241 -0.5106
   79SOPE  C217 7142   5.598   6.368   5.290 -1.0477 -0.4887  0.5875
   79SOPE  H17R 7143   5.592   6.425   5.195  0.2447 -2.2433 -0.6106
   79SOPE  H17S 7144   5.505   6.398   5.342 -2.2024 -0.3890 -1.4489
   79SOPE  C218 7145   5.611   6.222   5.242  0.4914  0.8218  0.1298
   79SOPE  H18R 7146   5.695   6.214   5.169  0.7071 -2.1189  0.5786
   79SOPE  H18S 7147   5.514   6.190   5.197  0.4363 -0.1545  0.9243
   79SOPE  H18T 7148   5.644   6.148   5.318  0.8987  1.5276  0.6540
   79SOPE   C33 7149   5.489   6.555   6.588 -0.1470  1.0379  0.2622
   79SOPE   H3X 7150   5.380   6.579   6.593 -0.3369  0.1173  0.6635
   79SOPE   H3Y 7151   5.502   6.453   6.547  1.5745  1.2505  0.2326
   79SOPE   C34 7152   5.558   6.647   6.488 -0.2955  0.2432 -0.1412
   79SOPE   H4X 7153   5.651   6.600   6.449 -0.8847 -0.7688 -0.3577
   79SOPE   H4Y 7154   5.594   6.743   6.530 -1.3945  0.2828  0.7738
   79SOPE   C35 7155   5.463   6.684   6.373  0.0411  0.1273 -0.0597
   79SOPE   H5X 7156   5.383   6.737   6.429  1.3592  1.6708  0.4477
   79SOPE   H5Y 7157   5.409   6.601   6.322 -0.1992  0.7215 -0.7751
   79SOPE   C36 7158   5.528   6.771   6.276  0.1671  0.0008 -0.0013
   79SOPE   H6X 7159   5.631   6.733   6.264 -0.1117 -1.6833  2.2072
   79SOPE   H6Y 7160   5.538   6.876   6.311  0.4743  0.6429 -1.9046
   79SOPE   C37 7161   5.455   6.783   6.138  0.6303 -0.3211  0.1905
   79SOPE   H7X 7162   5.352   6.822   6.158  0.9389  0.7417 -0.2537
   79SOPE   H7Y 7163   5.451   6.685   6.087  3.4237  0.4711 -1.7605
   79SOPE   C38 7164   5.518   6.879   6.041  0.0164  0.1947 -0.0769
   79SOPE   H8X 7165   5.615   6.837   6.008 -0.8085 -1.6471 -0.2876
   79SOPE   H8Y 7166   5.544   6.976   6.088  3.4321 -1.2465  1.2616
   79SOPE   C39 7167   5.435   6.894   5.905  0.4701  0.0876 -1.0070
   79SOPE   H9X 7168   5.344   6.948   5.939  1.9435  1.1837  1.5644
   79SOPE   H9Y 7169   5.411   6.792   5.869  1.6268 -0.8671  0.7326
   79SOPE  C310 7170   5.520   6.960   5.802 -0.1385  0.2872 -0.2956
   79SOPE  H10X 7171   5.597   6.890   5.764 -1.4960 -1.3467 -0.1384
   79SOPE  H10Y 7172   5.550   7.057   5.848  0.1288  0.4091 -0.7188
   79SOPE  C311 7173   5.433   6.990   5.675 -0.2902 -0.2554  0.0978
   79SOPE  H11X 7174   5.333   7.032   5.700  0.3218 -0.3002  2.9580
   79SOPE  H11Y 7175   5.391   6.904   5.617  1.7266 -2.2773  1.4678
   79SOPE  C312 7176   5.512   7.083   5.581 -0.4290  0.3719  0.0118
   79SOPE  H12X 7177   5.586   7.023   5.524 -1.3229 -0.3793 -0.3817
   79SOPE  H12Y 7178   5.563   7.157   5.646  1.2423 -2.1408  1.7662
   79SOPE  C313 7179   5.418   7.146   5.472  0.0252 -0.2451 -0.0629
   79SOPE  H13X 7180   5.327   7.199   5.506 -0.7139 -1.5143  0.0052
   79SOPE  H13Y 7181   5.390   7.068   5.398 -0.0279 -0.7463  0.4797
   79SOPE  C314 7182   5.502   7.248   5.401  0.0035  0.3437 -0.1662
   79SOPE  H14X 7183   5.583   7.193   5.349  0.0273  0.6428 -0.4469
   79SOPE  H14Y 7184   5.545   7.320   5.473  0.1704  1.5063 -1.3984
   79SOPE  C315 7185   5.427   7.338   5.302 -0.4386  0.1597  0.4540
   79SOPE  H15X 7186   5.332   7.373   5.349 -1.4318 -2.8291  0.9137
   79SOPE  H15Y 7187   5.387   7.273   5.221  1.7636  1.5734 -1.9142
   79SOPE  C316 7188   5.510   7.453   5.232 -0.0188  0.0164  0.5750
   79SOPE  H16X 7189   5.546   7.537   5.294  0.9838  0.5469 -0.6817
   79SOPE  H16Y 7190   5.443   7.494   5.153 -2.8773 -2.3496  1.5797
   79SOPE  C317 7191   5.619   7.405   5.133  0.4202 -0.0057  0.3175
   79SOPE  H17X 7192   5.594   7.309   5.082  0.6204  0.5916 -0.9554
   79SOPE  H17Y 7193   5.710   7.394   5.196  1.4843  1.6796 -0.8392
   79SOPE  C318 7194   5.657   7.496   5.019  0.0980 -0.6522 -0.1677
   79SOPE  H18X 7195   5.706   7.591   5.051 -1.9051  0.6253 -0.6732
   79SOPE  H18Y 7196   5.570   7.545   4.970  0.0965  1.1001  1.4475
   79SOPE  H18Z 7197   5.732   7.447   4.953  0.1426 -1.5449  0.5381
   80SOPE     N 7198   3.338   5.933   3.248  0.7519  0.1576  0.4070
   80SOPE   HN1 7199   3.378   5.986   3.168 -3.6969  1.4805 -1.2912
   80SOPE   HN2 7200   3.309   5.834   3.233  0.3497 -0.2023  3.1637
   80SOPE   HN3 7201   3.255   5.991   3.273 -1.1359 -2.4075  0.4792
   80SOPE   C12 7202   3.414   5.933   3.377  0.2309  0.3910 -0.8503
   80SOPE  H12A 7203   3.487   5.850   3.363  0.7347  0.7699 -0.5228
   80SOPE  H12B 7204   3.341   5.903   3.455 -0.3028  2.2684 -0.5743
   80SOPE   C11 7205   3.502   6.061   3.394  0.6743  0.1555 -0.5361
   80SOPE  H11A 7206   3.579   6.034   3.469 -0.9508 -2.7517  0.2082
   80SOPE  H11B 7207   3.438   6.136   3.446  1.8641 -0.9230  2.7215
   80SOPE     P 7208   3.696   6.069   3.210 -0.3475 -0.2788  0.1635
   80SOPE   O13 7209   3.753   6.181   3.127 -0.1156 -0.3952 -0.3691
   80SOPE   O14 7210   3.662   5.946   3.129  0.0890 -0.2981  0.1539
   80SOPE   O12 7211   3.564   6.121   3.284 -0.3013  0.4548 -0.1692
   80SOPE   O11 7212   3.798   6.039   3.321 -0.3936 -0.0697 -0.0276
   80SOPE    C1 7213   3.851   6.134   3.414 -0.1668 -0.6084  0.0164
   80SOPE    HA 7214   3.790   6.129   3.506  0.9974  1.7142  1.0161
   80SOPE    HB 7215   3.839   6.234   3.367 -0.4039  0.8975  3.0361
   80SOPE    C2 7216   4.008   6.113   3.431  0.7578  0.2371  0.2242
   80SOPE    HS 7217   4.047   6.107   3.327  0.7230 -0.0531  0.2271
   80SOPE   O21 7218   4.037   5.991   3.494 -0.2250  0.3984 -0.8709
   80SOPE   C21 7219   4.160   5.941   3.476  0.1643  0.3709 -0.3686
   80SOPE   O22 7220   4.245   5.996   3.409  1.0550 -0.4515 -0.2467
   80SOPE   C22 7221   4.172   5.814   3.559 -0.4575  0.4437 -0.7283
   80SOPE   H2R 7222   4.227   5.741   3.496 -0.1331  1.2312 -1.3833
   80SOPE   H2S 7223   4.069   5.771   3.563 -0.1119 -0.4684  3.8963
   80SOPE    C3 7224   4.089   6.232   3.495  0.0037  0.1983 -0.0928
   80SOPE    HX 7225   4.068   6.326   3.440  2.4827  0.7515 -0.1774
   80SOPE    HY 7226   4.199   6.218   3.489  0.0329 -1.3260  2.4462
   80SOPE   O31 7227   4.066   6.256   3.639  0.2354 -0.0064  0.2256
   80SOPE   C31 7228   4.150   6.347   3.688  0.6246  0.0983 -0.5440
   80SOPE   O32 7229   4.239   6.406   3.629  0.3367  0.7758  0.0780
   80SOPE   C32 7230   4.117   6.384   3.836 -0.0698 -0.1313  0.8630
   80SOPE   H2X 7231   4.062   6.302   3.887  0.0892  0.2088  1.5957
   80SOPE   H2Y 7232   4.052   6.474   3.842  1.3959  1.1119 -0.9543
   80SOPE   C23 7233   4.228   5.837   3.702 -0.7111  0.3271 -0.6412
   80SOPE   H3R 7234   4.318   5.903   3.702  0.2910 -0.9999 -0.1893
   80SOPE   H3S 7235   4.269   5.744   3.747  0.5918  0.5462 -1.3193
   80SOPE   C24 7236   4.130   5.901   3.807 -0.2391  0.5216 -0.7345
   80SOPE   H4R 7237   4.122   6.010   3.786 -0.8583  0.5764 -0.2249
   80SOPE   H4S 7238   4.026   5.864   3.804  0.6268 -2.0344 -1.0281
   80SOPE   C25 7239   4.182   5.891   3.955 -0.1807  0.7990  0.3863
   80SOPE   H5R 7240   4.210   5.784   3.971  1.3946  1.1823  0.3901
   80SOPE   H5S 7241   4.275   5.952   3.959  1.6426 -1.7751  0.6758
   80SOPE   C26 7242   4.080   5.941   4.053 -0.3029  0.1622 -0.6157
   80SOPE   H6R 7243   4.063   6.047   4.025  1.2744 -0.6450 -5.7255
   80SOPE   H6S 7244   3.992   5.873   4.041  0.1954 -0.7251  0.5935
   80SOPE   C27 7245   4.135   5.936   4.199 -0.1547 -0.5708  0.3253
   80SOPE   H7R 7246   4.167   5.831   4.216 -1.1517 -1.1083 -0.9506
   80SOPE   H7S 7247   4.226   5.998   4.207 -1.4886  1.2230  2.9277
   80SOPE   C28 7248   4.050   5.983   4.320 -0.4414  0.4935 -0.7490
   80SOPE   H8R 7249   3.973   5.907   4.346  1.3882 -0.6099  1.7928
   80SOPE   H8S 7250   4.115   5.976   4.409  0.3432  1.8466 -1.1781
   80SOPE   C29 7251   3.996   6.120   4.297  0.3986 -0.2593  0.1826
   80SOPE   H91 7252   4.049   6.174   4.218 -1.0659 -0.1246 -0.7404
   80SOPE  C210 7253   3.897   6.180   4.364 -0.2289  0.4986 -0.1689
   80SOPE  H101 7254   3.876   6.287   4.347  1.7356  1.4777  2.7483
   80SOPE  C211 7255   3.816   6.106   4.468  0.5175 -0.4518  0.3373
   80SOPE  H11R 7256   3.802   6.173   4.555  2.6008 -1.2307  1.3445
   80SOPE  H11S 7257   3.876   6.023   4.510 -2.8123 -2.0878  2.2773
   80SOPE  C212 7258   3.675   6.056   4.412 -0.2624  0.0814 -0.0708
   80SOPE  H12R 7259   3.623   6.030   4.507  0.2778 -0.2544  0.1363
   80SOPE  H12S 7260   3.681   5.966   4.348 -1.0712 -0.1296  0.1295
   80SOPE  C213 7261   3.594   6.169   4.343 -0.3976 -0.3971  0.3897
   80SOPE  H13R 7262   3.642   6.189   4.245  0.2551  4.3731  1.4213
   80SOPE  H13S 7263   3.615   6.259   4.405  1.4031  0.4141 -1.3169
   80SOPE  C214 7264   3.447   6.139   4.333 -0.1325 -0.1268  0.2772
   80SOPE  H14R 7265   3.397   6.220   4.277  0.6690  0.0905 -0.1379
   80SOPE  H14S 7266   3.396   6.126   4.431  0.5957 -1.8449  0.4658
   80SOPE  C215 7267   3.411   6.026   4.238 -0.4297 -0.0522  0.2148
   80SOPE  H15R 7268   3.447   5.939   4.298 -0.3061  0.6093  1.1281
   80SOPE  H15S 7269   3.461   6.031   4.139 -1.0360  1.6558 -0.0337
   80SOPE  C216 7270   3.264   6.020   4.205 -0.2576 -0.2489  0.0685
   80SOPE  H16R 7271   3.220   6.108   4.154  0.7217  1.6002  2.2304
   80SOPE  H16S 7272   3.217   6.019   4.306  1.2830  1.2071  0.8468
   80SOPE  C217 7273   3.220   5.884   4.156 -0.1191  0.7800 -0.3732
   80SOPE  H17R 7274   3.117   5.855   4.185  0.3193 -0.9934 -0.4786
   80SOPE  H17S 7275   3.295   5.805   4.179 -1.0108  0.5506  2.0430
   80SOPE  C218 7276   3.205   5.896   4.007  0.0122  0.2356  0.0309
   80SOPE  H18R 7277   3.292   5.929   3.945  0.1266  0.8850  0.5244
   80SOPE  H18S 7278   3.130   5.975   3.989  0.7169  0.3285 -3.1078
   80SOPE  H18T 7279   3.167   5.797   3.973 -0.3577 -0.3355  1.9733
   80SOPE   C33 7280   4.240   6.414   3.931 -0.6036 -0.1271  1.1417
   80SOPE   H3X 7281   4.204   6.469   4.020 -0.9641  2.4029 -0.4596
   80SOPE   H3Y 7282   4.318   6.469   3.875 -1.6436  0.1278 -0.0996
   80SOPE   C34 7283   4.301   6.279   3.981 -0.5132  0.3007 -0.4711
   80SOPE   H4X 7284   4.337   6.213   3.898  0.2262  0.2302 -0.1084
   80SOPE   H4Y 7285   4.226   6.210   4.024  0.3783 -1.8853 -2.1870
   80SOPE   C35 7286   4.420   6.297   4.067 -0.9414  0.6178 -0.3611
   80SOPE   H5X 7287   4.492   6.361   4.011 -0.5053  0.0639 -0.4378
   80SOPE   H5Y 7288   4.470   6.199   4.080 -0.7588  0.8567  0.8403
   80SOPE   C36 7289   4.400   6.372   4.208  0.3340  0.4474  0.3747
   80SOPE   H6X 7290   4.336   6.463   4.209  2.2985  1.9038  1.8813
   80SOPE   H6Y 7291   4.502   6.408   4.232  0.7952 -1.2403  1.0933
   80SOPE   C37 7292   4.376   6.276   4.323  0.2601  0.4700  0.1580
   80SOPE   H7X 7293   4.453   6.197   4.336  0.2553  0.5036  0.3871
   80SOPE   H7Y 7294   4.287   6.220   4.287  0.6691  0.3289 -0.6510
   80SOPE   C38 7295   4.333   6.333   4.454  0.1530 -0.6794 -0.1432
   80SOPE   H8X 7296   4.266   6.419   4.435  0.6685 -0.0456  0.8296
   80SOPE   H8Y 7297   4.427   6.374   4.496  0.2629 -0.3155 -0.7391
   80SOPE   C39 7298   4.283   6.230   4.559  0.1406 -0.2629  0.2878
   80SOPE   H9X 7299   4.375   6.180   4.595 -0.2298 -1.3473 -0.2266
   80SOPE   H9Y 7300   4.220   6.154   4.508  0.9805 -1.9114  1.6008
   80SOPE  C310 7301   4.203   6.294   4.678  0.2175  0.6891  0.2661
   80SOPE  H10X 7302   4.138   6.375   4.639  0.6004  0.5168 -0.7565
   80SOPE  H10Y 7303   4.273   6.335   4.754 -1.4797 -0.1048  2.3533
   80SOPE  C311 7304   4.117   6.188   4.751  0.9366  0.0150  0.3120
   80SOPE  H11X 7305   4.169   6.092   4.770 -0.6858 -0.8791  0.4043
   80SOPE  H11Y 7306   4.027   6.162   4.692  0.6168 -1.6845  1.4674
   80SOPE  C312 7307   4.066   6.231   4.894 -0.3064  0.0391  0.6317
   80SOPE  H12X 7308   4.029   6.336   4.885 -0.4555 -0.0684 -0.1057
   80SOPE  H12Y 7309   4.155   6.227   4.960 -0.4521 -2.8066  0.7451
   80SOPE  C313 7310   3.959   6.142   4.958 -0.6797  0.3868 -0.6216
   80SOPE  H13X 7311   3.953   6.183   5.062  0.0237 -2.0233  0.4445
   80SOPE  H13Y 7312   3.997   6.038   4.961 -0.5616  0.2603 -3.7640
   80SOPE  C314 7313   3.825   6.139   4.894 -0.0101  0.6512  0.2507
   80SOPE  H14X 7314   3.827   6.081   4.799 -2.0836 -0.8844  1.0557
   80SOPE  H14Y 7315   3.770   6.235   4.887 -0.6152  0.2262 -1.2247
   80SOPE  C315 7316   3.734   6.052   4.976 -0.2558  0.4228  0.4937
   80SOPE  H15X 7317   3.737   6.093   5.079 -1.5687  1.5941  0.1019
   80SOPE  H15Y 7318   3.788   5.955   4.981  1.7440  1.4660  0.2401
   80SOPE  C316 7319   3.594   6.044   4.913  0.1352 -0.6199 -0.0662
   80SOPE  H16X 7320   3.539   5.972   4.977  0.2656 -0.2485  0.4715
   80SOPE  H16Y 7321   3.608   6.015   4.806 -1.4652  2.5388 -1.2690
   80SOPE  C317 7322   3.519   6.180   4.900 -0.6045  0.3743  0.1096
   80SOPE  H17X 7323   3.567   6.247   4.826 -0.3299 -2.0340 -2.0219
   80SOPE  H17Y 7324   3.543   6.233   4.995 -1.2676  1.7227 -0.4481
   80SOPE  C318 7325   3.366   6.156   4.880 -0.4620  0.3544  0.7990
   80SOPE  H18X 7326   3.326   6.259   4.867 -0.2009  0.5659  1.6018
   80SOPE  H18Y 7327   3.318   6.103   4.965  0.6569 -0.6139  0.8575
   80SOPE  H18Z 7328   3.345   6.089   4.794 -0.0372 -0.0255  0.9874
   81SOPE     N 7329   6.356   1.715   7.536 -0.9661 -0.2187  0.3179
   81SOPE   HN1 7330   6.265   1.732   7.487 -0.9262 -0.3353  0.2036
   81SOPE   HN2 7331   6.389   1.623   7.500 -0.8767 -0.2787  0.5511
   81SOPE   HN3 7332   6.326   1.705   7.635 -3.1360  0.3713 -0.2219
   81SOPE   C12 7333   6.437   1.841   7.517 -0.2441  0.4185 -0.1688
   81SOPE  H12A 7334   6.408   1.878   7.416 -1.0088 -0.8225 -0.4239
   81SOPE  H12B 7335   6.546   1.819   7.517 -0.4703 -0.8159 -0.3808
   81SOPE   C11 7336   6.416   1.943   7.628  0.1684  0.4920  0.1542
   81SOPE  H11A 7337   6.473   2.032   7.595  1.6979  0.0235  1.4228
   81SOPE  H11B 7338   6.451   1.918   7.731 -0.2975  0.9952  0.4365
   81SOPE     P 7339   6.207   2.118   7.647  0.1360 -0.3571 -0.0844
   81SOPE   O13 7340   6.309   2.200   7.717 -0.4688  0.2003  0.2206
   81SOPE   O14 7341   6.074   2.107   7.710 -0.0830 -0.5703  0.6159
   81SOPE   O12 7342   6.278   1.977   7.626  0.4182 -0.2214  0.0887
   81SOPE   O11 7343   6.180   2.173   7.498 -0.9201 -0.3691 -1.0524
   81SOPE    C1 7344   6.253   2.142   7.378 -0.0058  0.6192 -1.2450
   81SOPE    HA 7345   6.241   2.039   7.338  0.1146  0.0863  0.0377
   81SOPE    HB 7346   6.361   2.141   7.406 -0.5660  0.2366  1.1282
   81SOPE    C2 7347   6.234   2.247   7.260  0.1830  0.0733 -0.3176
   81SOPE    HS 7348   6.268   2.199   7.166 -2.4816 -0.7322 -0.9658
   81SOPE   O21 7349   6.291   2.379   7.280  0.7255  0.5830  0.4813
   81SOPE   C21 7350   6.414   2.394   7.256  0.0708  0.2308 -0.4125
   81SOPE   O22 7351   6.493   2.305   7.223 -0.3028  0.5652 -0.3578
   81SOPE   C22 7352   6.450   2.536   7.274 -0.0297 -0.3577 -0.1088
   81SOPE   H2R 7353   6.525   2.543   7.355 -0.5957  0.4722  0.3572
   81SOPE   H2S 7354   6.362   2.590   7.314  0.1522  0.2356 -0.4924
   81SOPE    C3 7355   6.083   2.281   7.231  0.8338 -0.1342 -0.4725
   81SOPE    HX 7356   6.054   2.361   7.304  2.7035  1.0157 -0.9418
   81SOPE    HY 7357   6.019   2.195   7.263 -0.4026  0.2814 -1.7322
   81SOPE   O31 7358   6.055   2.315   7.090 -0.2430  0.4520 -0.6450
   81SOPE   C31 7359   6.036   2.215   7.008  0.1426  0.2102  0.3672
   81SOPE   O32 7360   6.022   2.097   7.047  0.3480 -0.7290  0.4429
   81SOPE   C32 7361   6.036   2.266   6.861  0.2138 -0.1236 -0.0030
   81SOPE   H2X 7362   6.141   2.299   6.852 -0.0488  0.6022 -0.5263
   81SOPE   H2Y 7363   5.961   2.344   6.835  0.5778 -0.6482 -3.1205
   81SOPE   C23 7364   6.499   2.616   7.148  0.7412  0.5078 -0.4098
   81SOPE   H3R 7365   6.537   2.712   7.190  0.6782  0.1824  0.4029
   81SOPE   H3S 7366   6.402   2.642   7.098 -0.2693  0.2027  1.3285
   81SOPE   C24 7367   6.601   2.539   7.062 -0.6049  0.0156 -0.1523
   81SOPE   H4R 7368   6.669   2.493   7.137  1.2260  2.8476  0.0925
   81SOPE   H4S 7369   6.551   2.459   7.004  0.7048  0.1308 -1.4972
   81SOPE   C25 7370   6.679   2.625   6.967  0.6575  0.4624 -0.3677
   81SOPE   H5R 7371   6.702   2.723   7.014  0.2278 -0.6373  2.3035
   81SOPE   H5S 7372   6.779   2.579   6.953  1.1028  0.5246  2.1158
   81SOPE   C26 7373   6.604   2.648   6.842  0.0588 -0.8345  0.6374
   81SOPE   H6R 7374   6.588   2.547   6.800  2.6734 -0.3004 -1.9431
   81SOPE   H6S 7375   6.504   2.688   6.871  1.1674  2.2279  0.6599
   81SOPE   C27 7376   6.668   2.740   6.737  0.4751  0.1692 -0.3235
   81SOPE   H7R 7377   6.692   2.844   6.768 -0.3117  0.6319 -1.1997
   81SOPE   H7S 7378   6.764   2.700   6.699  0.2556  0.5003 -1.2552
   81SOPE   C28 7379   6.587   2.758   6.613  0.6374 -0.0070 -0.0660
   81SOPE   H8R 7380   6.488   2.794   6.646 -0.4575 -2.2966 -0.6471
   81SOPE   H8S 7381   6.622   2.838   6.544 -1.2056 -0.0897 -1.1545
   81SOPE   C29 7382   6.572   2.628   6.531  0.6365  0.0752  0.6505
   81SOPE   H91 7383   6.477   2.572   6.536 -0.2329  1.5053  0.8629
   81SOPE  C210 7384   6.670   2.571   6.456  0.4700 -1.1072  0.0152
   81SOPE  H101 7385   6.636   2.484   6.398 -2.2901 -0.8688  1.1046
   81SOPE  C211 7386   6.809   2.628   6.436  0.5846  0.8028 -0.2774
   81SOPE  H11R 7387   6.881   2.553   6.476 -0.4073 -1.1485 -1.9221
   81SOPE  H11S 7388   6.819   2.719   6.498 -2.8679  1.1277  0.0082
   81SOPE  C212 7389   6.843   2.657   6.291 -0.5879  0.9081 -0.0451
   81SOPE  H12R 7390   6.937   2.715   6.274 -1.2387  1.8531 -0.5085
   81SOPE  H12S 7391   6.756   2.704   6.241 -1.6524 -0.6959  0.2355
   81SOPE  C213 7392   6.859   2.534   6.204 -0.1429 -0.4328  0.6745
   81SOPE  H13R 7393   6.779   2.468   6.243  0.6278 -0.5186  2.1822
   81SOPE  H13S 7394   6.954   2.488   6.240 -0.5205 -1.5541  0.2871
   81SOPE  C214 7395   6.867   2.548   6.049  0.4004 -0.2682 -0.3897
   81SOPE  H14R 7396   6.934   2.471   6.006  1.9475  0.4284  0.6535
   81SOPE  H14S 7397   6.904   2.649   6.022  2.9469 -1.2242 -0.7067
   81SOPE  C215 7398   6.724   2.536   5.979 -0.7955  0.0636 -0.3851
   81SOPE  H15R 7399   6.652   2.599   6.035 -3.7349 -0.5219 -3.2232
   81SOPE  H15S 7400   6.684   2.433   5.989  0.3018 -0.2913  0.7227
   81SOPE  C216 7401   6.717   2.592   5.842  0.0144  0.1329 -0.4909
   81SOPE  H16R 7402   6.800   2.553   5.780 -0.2357 -1.4955  0.1296
   81SOPE  H16S 7403   6.730   2.702   5.834  0.0023  0.0729 -1.3517
   81SOPE  C217 7404   6.579   2.547   5.783 -0.1760 -0.0503  0.1736
   81SOPE  H17R 7405   6.496   2.587   5.844  0.4550  1.4897  0.0857
   81SOPE  H17S 7406   6.570   2.437   5.777  1.6728 -0.4570  2.9785
   81SOPE  C218 7407   6.565   2.589   5.631  0.4270 -0.3591 -1.0104
   81SOPE  H18R 7408   6.461   2.555   5.608 -0.5391  0.1975  2.0881
   81SOPE  H18S 7409   6.648   2.539   5.577  0.2225 -2.2772  0.3444
   81SOPE  H18T 7410   6.582   2.698   5.620  0.5214 -0.1486  0.9096
   81SOPE   C33 7411   6.012   2.156   6.753 -0.4833 -1.0209  0.1136
   81SOPE   H3X 7412   5.920   2.100   6.782 -0.7015 -0.2859  0.9035
   81SOPE   H3Y 7413   6.100   2.091   6.768  0.7968  0.9767  1.9802
   81SOPE   C34 7414   6.003   2.218   6.607 -0.3602 -0.1431 -0.1002
   81SOPE   H4X 7415   6.063   2.310   6.589 -1.3620  0.5919  0.2227
   81SOPE   H4Y 7416   5.898   2.255   6.605 -0.6832 -1.0059 -2.2884
   81SOPE   C35 7417   6.027   2.117   6.495 -0.0856  0.6451  0.1637
   81SOPE   H5X 7418   5.969   2.023   6.506 -0.1506  0.5650 -0.7911
   81SOPE   H5Y 7419   6.132   2.082   6.489 -0.2399  0.2303 -0.1998
   81SOPE   C36 7420   5.996   2.164   6.355 -0.5371  0.0923  0.4075
   81SOPE   H6X 7421   6.071   2.244   6.339  0.6256 -0.4019  2.8505
   81SOPE   H6Y 7422   5.895   2.210   6.350 -0.1727  1.2067  2.1756
   81SOPE   C37 7423   6.005   2.049   6.250  0.2236 -0.4554  0.9210
   81SOPE   H7X 7424   5.917   1.983   6.263 -1.5595  1.5827 -0.1382
   81SOPE   H7Y 7425   6.095   1.985   6.262 -0.0060 -0.9496  0.1063
   81SOPE   C38 7426   6.016   2.095   6.103 -0.2071 -0.2913  0.5187
   81SOPE   H8X 7427   6.093   2.174   6.096 -2.2633  1.7938  0.0086
   81SOPE   H8Y 7428   5.916   2.137   6.079 -0.8806 -1.6469  0.8333
   81SOPE   C39 7429   6.052   1.983   6.002  0.3674  0.0622 -0.4288
   81SOPE   H9X 7430   5.976   1.904   6.022  0.1912  0.3196 -0.0793
   81SOPE   H9Y 7431   6.151   1.941   6.031 -0.4880 -0.1840  2.4222
   81SOPE  C310 7432   6.032   2.023   5.858 -0.0875 -0.6590  0.4374
   81SOPE  H10X 7433   5.936   2.079   5.856 -0.1170 -0.7284 -0.4946
   81SOPE  H10Y 7434   6.031   1.924   5.806  1.2467  0.1919 -1.3106
   81SOPE  C311 7435   6.150   2.104   5.807 -0.5229 -0.1054  0.1137
   81SOPE  H11X 7436   6.238   2.048   5.846 -2.2763 -3.3217 -0.1645
   81SOPE  H11Y 7437   6.137   2.206   5.849 -1.4491 -0.4022  0.5779
   81SOPE  C312 7438   6.171   2.109   5.653  0.4423  0.1203  0.3315
   81SOPE  H12X 7439   6.090   2.162   5.600  1.3442  2.0850  0.8254
   81SOPE  H12Y 7440   6.179   2.005   5.616  2.4532 -0.4989  2.2313
   81SOPE  C313 7441   6.293   2.196   5.614  0.4929 -0.1457 -0.0538
   81SOPE  H13X 7442   6.392   2.146   5.628  0.5744  0.0193 -0.0445
   81SOPE  H13Y 7443   6.288   2.291   5.670 -2.3244 -1.3287  1.9478
   81SOPE  C314 7444   6.294   2.219   5.461  0.1379  0.5045 -0.8280
   81SOPE  H14X 7445   6.204   2.283   5.447  1.1717  2.9281  2.3427
   81SOPE  H14Y 7446   6.275   2.126   5.404  0.8823 -0.0724 -0.1627
   81SOPE  C315 7447   6.421   2.292   5.400  0.2769  0.7681  0.3038
   81SOPE  H15X 7448   6.506   2.223   5.420 -0.9634 -1.7288 -2.3170
   81SOPE  H15Y 7449   6.443   2.388   5.452  0.1006 -0.3228  2.5481
   81SOPE  C316 7450   6.401   2.317   5.252  0.1899 -0.0643  0.6949
   81SOPE  H16X 7451   6.308   2.377   5.238  0.8265  0.5271 -1.2767
   81SOPE  H16Y 7452   6.392   2.214   5.210  0.7758 -0.4407  1.4572
   81SOPE  C317 7453   6.509   2.390   5.170 -0.7213 -0.1429  0.4656
   81SOPE  H17X 7454   6.606   2.345   5.200  0.3988  2.6116  1.2941
   81SOPE  H17Y 7455   6.518   2.497   5.198 -0.0221  0.2444 -1.1607
   81SOPE  C318 7456   6.500   2.390   5.018  0.7838 -0.2965  0.1703
   81SOPE  H18X 7457   6.600   2.418   4.979  0.8550 -0.0595  0.5232
   81SOPE  H18Y 7458   6.431   2.469   4.983 -1.3770 -1.5566  1.3367
   81SOPE  H18Z 7459   6.479   2.286   4.983  2.1987 -1.0160  1.3528
   82SOPE     N 7460   3.685   4.651   7.518  0.5092  1.0523 -0.2807
   82SOPE   HN1 7461   3.662   4.724   7.588  0.5324  0.7799  0.0169
   82SOPE   HN2 7462   3.778   4.612   7.544 -0.0972 -0.1787  0.1355
   82SOPE   HN3 7463   3.694   4.712   7.434  0.2105 -0.7503 -1.7023
   82SOPE   C12 7464   3.574   4.550   7.486  0.0313 -0.5564 -0.1331
   82SOPE  H12A 7465   3.537   4.508   7.582 -1.3085  0.1404 -0.3293
   82SOPE  H12B 7466   3.612   4.470   7.418 -1.2897  0.4320 -2.1094
   82SOPE   C11 7467   3.456   4.629   7.420  0.0706 -0.1992 -0.4955
   82SOPE  H11A 7468   3.393   4.550   7.374  0.5128 -0.1601 -1.1729
   82SOPE  H11B 7469   3.496   4.696   7.341 -0.0094  2.2858  1.4206
   82SOPE     P 7470   3.248   4.750   7.518  0.1303 -0.5798  0.1075
   82SOPE   O13 7471   3.205   4.843   7.630 -0.4154  0.3660  0.5063
   82SOPE   O14 7472   3.162   4.633   7.492 -0.7683 -0.2368  0.0313
   82SOPE   O12 7473   3.396   4.708   7.524  0.0499  0.1810 -0.1450
   82SOPE   O11 7474   3.247   4.835   7.393  0.0381 -0.2277 -0.2755
   82SOPE    C1 7475   3.141   4.926   7.347 -0.7505  0.4369 -0.2432
   82SOPE    HA 7476   3.138   5.022   7.402 -1.7088 -0.3131  1.0691
   82SOPE    HB 7477   3.042   4.879   7.363  0.9655 -3.2080  0.9056
   82SOPE    C2 7478   3.142   4.956   7.198 -0.2574  0.4691  0.1174
   82SOPE    HS 7479   3.058   5.028   7.187 -1.9812 -1.3535  0.8054
   82SOPE   O21 7480   3.123   4.840   7.113 -0.1682  0.6400 -0.7711
   82SOPE   C21 7481   2.999   4.787   7.116  0.1537 -0.0152 -0.4695
   82SOPE   O22 7482   2.908   4.834   7.173  0.0745 -0.2995 -0.1027
   82SOPE   C22 7483   2.974   4.675   7.011 -0.6726 -0.1226 -0.3418
   82SOPE   H2R 7484   2.969   4.579   7.067  2.4497 -0.2670 -0.1173
   82SOPE   H2S 7485   3.065   4.666   6.949  0.3650  0.2633  1.0797
   82SOPE    C3 7486   3.275   5.022   7.153  0.7713 -0.6703 -0.3786
   82SOPE    HX 7487   3.352   4.944   7.169  1.9954  0.8918  2.1384
   82SOPE    HY 7488   3.286   5.109   7.222 -1.2899 -0.6198 -0.0423
   82SOPE   O31 7489   3.269   5.056   7.012 -0.0061  0.2169  0.2367
   82SOPE   C31 7490   3.393   5.120   6.986  0.7771 -0.0062 -0.5324
   82SOPE   O32 7491   3.464   5.153   7.073 -0.9319  0.5758  0.1007
   82SOPE   C32 7492   3.427   5.137   6.837 -0.4709  0.0476  0.3488
   82SOPE   H2X 7493   3.397   5.236   6.797  0.9176  0.5350  0.4469
   82SOPE   H2Y 7494   3.383   5.053   6.780 -0.3625 -0.7569  1.4093
   82SOPE   C23 7495   2.860   4.721   6.914 -0.6249  0.0823  0.0658
   82SOPE   H3R 7496   2.780   4.765   6.977  0.0052 -1.5834  2.1477
   82SOPE   H3S 7497   2.828   4.628   6.862  3.1995 -1.1710 -0.3603
   82SOPE   C24 7498   2.898   4.827   6.799 -0.4730  0.1587 -1.2957
   82SOPE   H4R 7499   2.952   4.916   6.838 -0.6787 -0.7408  1.2400
   82SOPE   H4S 7500   2.963   4.782   6.721  0.8511  2.0517 -1.3582
   82SOPE   C25 7501   2.767   4.872   6.725 -0.0276 -0.8583  0.4068
   82SOPE   H5R 7502   2.712   4.779   6.701  3.2658 -2.3336 -2.1960
   82SOPE   H5S 7503   2.705   4.934   6.794 -0.2607 -0.0530 -0.5048
   82SOPE   C26 7504   2.793   4.937   6.588  0.3809  0.0350 -0.6387
   82SOPE   H6R 7505   2.881   5.001   6.610  1.5071 -1.7668  0.3977
   82SOPE   H6S 7506   2.826   4.856   6.519 -0.1616 -0.6885 -0.0723
   82SOPE   C27 7507   2.672   5.016   6.532  0.1767  1.4709 -1.0201
   82SOPE   H7R 7508   2.590   4.942   6.523 -0.2057  1.7253  0.2737
   82SOPE   H7S 7509   2.622   5.084   6.604 -1.3693 -0.9625  0.3302
   82SOPE   C28 7510   2.700   5.091   6.402  0.6065  0.2475  0.3058
   82SOPE   H8R 7511   2.614   5.143   6.354 -0.5665 -1.6800  0.2315
   82SOPE   H8S 7512   2.775   5.171   6.419 -1.4372  2.3002  0.1466
   82SOPE   C29 7513   2.748   4.982   6.306  0.0534 -0.2345  0.4871
   82SOPE   H91 7514   2.690   4.888   6.311  1.7826 -1.3028  1.4203
   82SOPE  C210 7515   2.831   5.008   6.207  0.2681 -0.3643  0.2568
   82SOPE  H101 7516   2.833   4.922   6.139 -1.9321 -0.0568 -0.2951
   82SOPE  C211 7517   2.890   5.140   6.166 -0.1032 -0.4515 -0.5977
   82SOPE  H11R 7518   2.991   5.123   6.121 -0.7226 -0.9784 -1.8483
   82SOPE  H11S 7519   2.926   5.195   6.255  1.7370  0.1552 -1.6482
   82SOPE  C212 7520   2.801   5.237   6.086 -0.3249  0.5953 -0.0422
   82SOPE  H12R 7521   2.843   5.339   6.097 -0.3316  0.5076  0.8056
   82SOPE  H12S 7522   2.697   5.238   6.124  0.1919 -0.4357  1.4794
   82SOPE  C213 7523   2.802   5.213   5.937 -0.7914  0.1633 -0.3904
   82SOPE  H13R 7524   2.745   5.120   5.916  0.3611 -0.2826 -1.7148
   82SOPE  H13S 7525   2.904   5.192   5.900 -1.6476 -3.2263 -1.2267
   82SOPE  C214 7526   2.728   5.325   5.866  0.2715 -0.2975  0.6533
   82SOPE  H14R 7527   2.773   5.425   5.887 -0.2143  0.5074 -1.7956
   82SOPE  H14S 7528   2.623   5.322   5.900  0.0363  2.1650  0.3235
   82SOPE  C215 7529   2.740   5.316   5.712  0.2718 -0.7708  0.3041
   82SOPE  H15R 7530   2.674   5.247   5.655  1.5891 -3.6244  2.0247
   82SOPE  H15S 7531   2.839   5.270   5.692  1.1654  0.4526  1.7151
   82SOPE  C216 7532   2.742   5.458   5.651 -0.1072  0.1461  0.3664
   82SOPE  H16R 7533   2.819   5.511   5.710 -0.1112  0.3727  0.1708
   82SOPE  H16S 7534   2.646   5.511   5.666  0.0173  0.2638  0.7459
   82SOPE  C217 7535   2.790   5.450   5.506  0.0236 -0.1191  0.2129
   82SOPE  H17R 7536   2.724   5.383   5.446  0.5143 -0.6482  0.2503
   82SOPE  H17S 7537   2.885   5.397   5.525  0.1270 -0.3405 -0.8267
   82SOPE  C218 7538   2.824   5.586   5.432  0.5688  0.0995 -0.3437
   82SOPE  H18R 7539   2.733   5.641   5.400 -0.5011 -1.4409 -0.0625
   82SOPE  H18S 7540   2.871   5.565   5.334 -1.1599  1.2956 -1.4747
   82SOPE  H18T 7541   2.892   5.650   5.494  0.6633  0.4903 -0.8478
   82SOPE   C33 7542   3.577   5.136   6.815 -0.6636  0.4813 -0.1226
   82SOPE   H3X 7543   3.616   5.033   6.830 -2.5991 -0.4895 -1.3677
   82SOPE   H3Y 7544   3.618   5.212   6.886  4.1520  0.0267 -2.0981
   82SOPE   C34 7545   3.615   5.175   6.672  0.1118 -0.8683 -0.4504
   82SOPE   H4X 7546   3.721   5.209   6.675  0.2933 -1.3851 -0.8364
   82SOPE   H4Y 7547   3.558   5.270   6.666  1.9211  0.2285 -1.0027
   82SOPE   C35 7548   3.582   5.069   6.568 -0.0885 -0.8265  0.3252
   82SOPE   H5X 7549   3.473   5.051   6.569 -0.1203 -1.2000 -2.6120
   82SOPE   H5Y 7550   3.642   4.976   6.578 -1.6675 -1.8707  0.4061
   82SOPE   C36 7551   3.608   5.116   6.424  0.7490 -0.7326 -0.1321
   82SOPE   H6X 7552   3.711   5.091   6.391  0.8144 -2.8807  1.4564
   82SOPE   H6Y 7553   3.599   5.226   6.431  0.0097 -0.6582 -1.7532
   82SOPE   C37 7554   3.509   5.067   6.319 -0.1431 -0.2130 -0.4843
   82SOPE   H7X 7555   3.407   5.084   6.358  1.3109  2.0141  2.8705
   82SOPE   H7Y 7556   3.522   4.961   6.291  2.6024 -0.7380  2.2630
   82SOPE   C38 7557   3.514   5.157   6.196 -0.5282 -0.3314 -0.1522
   82SOPE   H8X 7558   3.602   5.120   6.139 -0.9565  1.7402 -2.2933
   82SOPE   H8Y 7559   3.541   5.261   6.225 -1.1764 -0.2562  0.2041
   82SOPE   C39 7560   3.385   5.155   6.115 -0.1170 -0.3338  0.8685
   82SOPE   H9X 7561   3.304   5.212   6.166  0.5205  1.9827 -0.5317
   82SOPE   H9Y 7562   3.353   5.050   6.099 -0.4300 -0.0605 -0.4816
   82SOPE  C310 7563   3.405   5.219   5.980  0.1162  0.7348 -0.0441
   82SOPE  H10X 7564   3.497   5.170   5.941 -0.2215  0.4857 -0.5295
   82SOPE  H10Y 7565   3.425   5.328   5.993 -0.3732  1.1839 -2.4782
   82SOPE  C311 7566   3.284   5.204   5.888 -0.0763  0.2941 -0.0994
   82SOPE  H11X 7567   3.206   5.268   5.934  0.9565  2.3509 -1.0630
   82SOPE  H11Y 7568   3.249   5.099   5.898 -0.6414  0.5845  1.2275
   82SOPE  C312 7569   3.302   5.246   5.745 -0.0847  0.1739  0.0596
   82SOPE  H12X 7570   3.207   5.251   5.688  0.4487 -1.3227 -1.0294
   82SOPE  H12Y 7571   3.368   5.172   5.694  0.9698 -1.2918  3.2709
   82SOPE  C313 7572   3.360   5.382   5.722 -0.0258  0.6130 -0.2901
   82SOPE  H13X 7573   3.427   5.403   5.807 -0.2626  1.0846 -0.2189
   82SOPE  H13Y 7574   3.276   5.454   5.729 -0.9791 -0.5010  0.2102
   82SOPE  C314 7575   3.438   5.384   5.592  0.8109 -0.2757 -0.3246
   82SOPE  H14X 7576   3.513   5.301   5.598  2.5355  1.3186  1.8115
   82SOPE  H14Y 7577   3.503   5.473   5.586  0.4262  0.0271 -0.0345
   82SOPE  C315 7578   3.356   5.370   5.466  0.0137 -0.3918 -0.1544
   82SOPE  H15X 7579   3.326   5.265   5.450  0.3599 -0.3275 -1.2962
   82SOPE  H15Y 7580   3.414   5.403   5.377  0.1609  0.3020  0.1871
   82SOPE  C316 7581   3.222   5.449   5.465 -0.2420  0.0600  0.3935
   82SOPE  H16X 7582   3.242   5.558   5.476 -0.5717  0.0933  0.6983
   82SOPE  H16Y 7583   3.165   5.414   5.554  1.9843 -0.4042  1.7135
   82SOPE  C317 7584   3.149   5.426   5.332 -0.1067  0.6803 -0.3260
   82SOPE  H17X 7585   3.229   5.435   5.255  3.6006  0.2415  3.1096
   82SOPE  H17Y 7586   3.077   5.506   5.306 -1.7349 -1.3017 -2.3726
   82SOPE  C318 7587   3.070   5.297   5.328  0.5441  0.6951 -0.3426
   82SOPE  H18X 7588   3.106   5.226   5.406 -1.1889 -0.9400 -0.9596
   82SOPE  H18Y 7589   3.067   5.243   5.232 -1.9220  0.5507 -0.2494
   82SOPE  H18Z 7590   2.965   5.308   5.362  0.3293  0.7874 -1.0262
   83SOPE     N 7591   1.157   0.803   2.926  0.6540 -0.1988 -0.2029
   83SOPE   HN1 7592   1.098   0.756   2.997 -1.4016  1.3632 -0.7693
   83SOPE   HN2 7593   1.176   0.899   2.963  0.6209  0.0360 -0.7758
   83SOPE   HN3 7594   1.097   0.808   2.841  2.5601 -1.2328 -1.7015
   83SOPE   C12 7595   1.284   0.736   2.907 -0.0731 -0.4919 -0.2959
   83SOPE  H12A 7596   1.334   0.770   2.814 -0.6289 -0.8559 -0.7346
   83SOPE  H12B 7597   1.265   0.627   2.899 -0.7563 -0.3719 -0.4010
   83SOPE   C11 7598   1.378   0.767   3.019 -0.1659  0.2994 -0.3543
   83SOPE  H11A 7599   1.472   0.714   2.993  0.7518  0.1968  2.8573
   83SOPE  H11B 7600   1.355   0.733   3.122  2.0954  1.9069  0.7541
   83SOPE     P 7601   1.373   1.010   3.123  0.1817 -0.3453  0.7037
   83SOPE   O13 7602   1.224   1.011   3.145  0.1369 -0.0099 -0.1899
   83SOPE   O14 7603   1.435   1.140   3.082  0.1852 -0.1405 -0.2802
   83SOPE   O12 7604   1.403   0.904   3.011 -0.4594  0.0710 -0.0225
   83SOPE   O11 7605   1.438   0.953   3.252 -0.3517  0.0256 -0.2973
   83SOPE    C1 7606   1.579   0.933   3.263 -0.6436  0.1727  0.6129
   83SOPE    HA 7607   1.639   1.025   3.277  0.8389 -0.4343 -1.3421
   83SOPE    HB 7608   1.607   0.886   3.166  1.3847  0.1096  1.1954
   83SOPE    C2 7609   1.622   0.835   3.373 -0.0949  0.0379  0.1087
   83SOPE    HS 7610   1.726   0.802   3.348 -1.0623 -2.9641 -0.3997
   83SOPE   O21 7611   1.537   0.726   3.386  0.1397 -0.1123  0.4188
   83SOPE   C21 7612   1.555   0.624   3.297 -0.2205  0.0679 -0.8044
   83SOPE   O22 7613   1.640   0.620   3.214  0.2906 -0.8365  0.9276
   83SOPE   C22 7614   1.455   0.511   3.330  0.8455 -0.2370  0.3890
   83SOPE   H2R 7615   1.386   0.509   3.243  0.0507 -1.0731  1.0131
   83SOPE   H2S 7616   1.396   0.535   3.422  0.3525 -3.8337  1.1572
   83SOPE    C3 7617   1.644   0.909   3.516  0.0224  0.6802  0.1300
   83SOPE    HX 7618   1.552   0.967   3.538  0.2796  1.2213 -0.1891
   83SOPE    HY 7619   1.722   0.987   3.500 -0.9142  1.3330 -1.4885
   83SOPE   O31 7620   1.686   0.820   3.623  0.5194  0.2714 -0.0966
   83SOPE   C31 7621   1.587   0.766   3.699  0.5210 -0.3023 -0.2178
   83SOPE   O32 7622   1.469   0.792   3.685  0.4641 -0.4635 -0.1903
   83SOPE   C32 7623   1.658   0.677   3.805 -0.1329 -0.1501 -0.0325
   83SOPE   H2X 7624   1.706   0.752   3.871 -1.3508 -0.7455  1.6145
   83SOPE   H2Y 7625   1.731   0.613   3.750  1.0466 -0.0061  1.3094
   83SOPE   C23 7626   1.507   0.369   3.353 -0.2640  0.1902  0.7692
   83SOPE   H3R 7627   1.566   0.332   3.266  2.1960  0.3115  2.2799
   83SOPE   H3S 7628   1.429   0.294   3.376  1.5348 -1.2162  2.7031
   83SOPE   C24 7629   1.612   0.378   3.470 -0.1133  0.2986 -0.5564
   83SOPE   H4R 7630   1.665   0.280   3.468 -0.0449  0.1863  2.4308
   83SOPE   H4S 7631   1.693   0.454   3.462 -1.6723  1.9748 -1.0394
   83SOPE   C25 7632   1.549   0.375   3.611 -0.4268 -0.0494 -0.0620
   83SOPE   H5R 7633   1.628   0.409   3.682 -0.7755 -1.1150  0.8668
   83SOPE   H5S 7634   1.472   0.455   3.615 -1.5041 -1.0717  0.1587
   83SOPE   C26 7635   1.486   0.246   3.669 -0.4457  0.8326  0.5206
   83SOPE   H6R 7636   1.451   0.274   3.770 -0.7225  0.2712  0.5880
   83SOPE   H6S 7637   1.402   0.222   3.599  1.2697  1.0875 -1.7302
   83SOPE   C27 7638   1.572   0.120   3.659 -0.3097  0.1906  0.1978
   83SOPE   H7R 7639   1.578   0.097   3.551  1.9855 -1.6805  0.6429
   83SOPE   H7S 7640   1.671   0.153   3.696 -0.2563 -0.4886  0.6711
   83SOPE   C28 7641   1.517  -0.008   3.734  0.2119 -0.2485  0.4277
   83SOPE   H8R 7642   1.594  -0.088   3.733 -0.7148 -1.1769  1.1352
   83SOPE   H8S 7643   1.496   0.010   3.841  1.4868  1.3125  0.4566
   83SOPE   C29 7644   1.396  -0.068   3.661  0.0133 -0.2778  0.2335
   83SOPE   H91 7645   1.418  -0.121   3.568 -3.1205 -0.6311 -0.4033
   83SOPE  C210 7646   1.275  -0.070   3.703  0.7658  0.0236  0.2633
   83SOPE  H101 7647   1.189  -0.115   3.651  0.2564 -0.7882  1.7463
   83SOPE  C211 7648   1.224   0.009   3.822  0.0181 -0.0103  0.5069
   83SOPE  H11R 7649   1.250   0.116   3.809 -2.6296  0.5439 -0.7966
   83SOPE  H11S 7650   1.258  -0.034   3.919  1.4315 -2.8843 -1.1290
   83SOPE  C212 7651   1.068   0.010   3.835  0.4126  0.9054  0.7050
   83SOPE  H12R 7652   1.041  -0.097   3.854  1.6086  0.8028  1.9673
   83SOPE  H12S 7653   1.026   0.055   3.743  1.0409 -1.8926 -1.0948
   83SOPE  C213 7654   1.024   0.096   3.957  0.5609 -0.0869 -0.4643
   83SOPE  H13R 7655   0.939   0.165   3.938  1.3644  1.9002  2.5381
   83SOPE  H13S 7656   1.110   0.159   3.988  0.7351 -1.4057  2.0196
   83SOPE  C214 7657   0.971   0.008   4.071 -0.1009  0.7715 -0.3730
   83SOPE  H14R 7658   1.036  -0.081   4.083 -1.1325 -0.1398 -1.3342
   83SOPE  H14S 7659   0.871  -0.035   4.048 -0.2087  0.1400  1.1768
   83SOPE  C215 7660   0.967   0.075   4.203 -0.1531  0.2285 -0.0110
   83SOPE  H15R 7661   0.875   0.137   4.210 -0.7244 -0.3998 -1.5422
   83SOPE  H15S 7662   1.060   0.137   4.209 -0.4416  0.5071  2.4870
   83SOPE  C216 7663   0.959  -0.023   4.317  0.1203 -0.5074 -0.5635
   83SOPE  H16R 7664   1.024  -0.107   4.285  1.1433  0.3834 -0.8660
   83SOPE  H16S 7665   0.855  -0.059   4.303  0.7589 -2.4387 -0.6487
   83SOPE  C217 7666   0.997   0.037   4.448 -0.4566 -0.2098  0.7286
   83SOPE  H17R 7667   0.941   0.132   4.455 -1.8705 -0.8246 -1.2805
   83SOPE  H17S 7668   1.104   0.064   4.433 -1.2600  2.3284 -0.9945
   83SOPE  C218 7669   0.974  -0.053   4.572  0.0503 -0.9366  0.4889
   83SOPE  H18R 7670   1.029  -0.149   4.562  1.6501  0.0921 -1.7011
   83SOPE  H18S 7671   0.871  -0.073   4.606 -0.3799 -0.7687 -0.6636
   83SOPE  H18T 7672   1.025   0.003   4.653  0.8961 -0.7624 -0.1390
   83SOPE   C33 7673   1.558   0.593   3.879  0.0393 -0.0025 -0.5707
   83SOPE   H3X 7674   1.493   0.532   3.813 -0.2217 -1.1550  0.7095
   83SOPE   H3Y 7675   1.484   0.651   3.938  0.2118  1.2413 -1.5321
   83SOPE   C34 7676   1.638   0.518   3.983  0.5850 -0.1697  0.2365
   83SOPE   H4X 7677   1.673   0.584   4.065  1.5389 -1.2139  0.6956
   83SOPE   H4Y 7678   1.726   0.475   3.930  1.1758 -0.3974  1.3727
   83SOPE   C35 7679   1.554   0.405   4.046 -0.0893 -0.0539  0.2589
   83SOPE   H5X 7680   1.528   0.331   3.966  0.6217  0.0079 -0.0384
   83SOPE   H5Y 7681   1.454   0.446   4.071 -0.4466  0.3929 -1.7455
   83SOPE   C36 7682   1.622   0.339   4.163 -0.0094 -0.1780 -0.0121
   83SOPE   H6X 7683   1.654   0.427   4.224  1.0417  1.8458 -3.2604
   83SOPE   H6Y 7684   1.707   0.275   4.130  1.0187  1.0126  0.2597
   83SOPE   C37 7685   1.526   0.261   4.256 -0.1337  0.2550  0.0393
   83SOPE   H7X 7686   1.454   0.337   4.293 -0.9876 -0.6157  0.2042
   83SOPE   H7Y 7687   1.598   0.213   4.327 -2.0858 -2.2067  0.5046
   83SOPE   C38 7688   1.444   0.153   4.187 -0.5756  0.5152 -0.1127
   83SOPE   H8X 7689   1.509   0.099   4.115 -0.5003 -2.0862  1.7841
   83SOPE   H8Y 7690   1.358   0.199   4.133 -2.5529 -1.9050  0.7713
   83SOPE   C39 7691   1.382   0.055   4.286  0.1257 -0.6316 -0.0306
   83SOPE   H9X 7692   1.277   0.033   4.255 -0.1036 -0.7228  0.7987
   83SOPE   H9Y 7693   1.382   0.101   4.387 -0.4582 -1.5799  0.4212
   83SOPE  C310 7694   1.461  -0.078   4.294  0.0331 -0.4158 -0.0944
   83SOPE  H10X 7695   1.456  -0.131   4.391 -0.7922 -1.6495 -0.7839
   83SOPE  H10Y 7696   1.568  -0.052   4.281 -0.1011  0.4169  0.4213
   83SOPE  C311 7697   1.415  -0.177   4.184 -0.1183  1.0376  0.0509
   83SOPE  H11X 7698   1.488  -0.260   4.172 -2.3070 -0.8391 -1.2486
   83SOPE  H11Y 7699   1.399  -0.124   4.088  1.4990  0.4135 -0.6115
   83SOPE  C312 7700   1.290  -0.260   4.229  0.2377 -0.6357  0.4036
   83SOPE  H12X 7701   1.204  -0.194   4.205  2.5497  3.0378  1.3384
   83SOPE  H12Y 7702   1.287  -0.278   4.338 -1.6618 -1.1966  0.2998
   83SOPE  C313 7703   1.273  -0.393   4.157  0.6182 -0.2784 -0.0483
   83SOPE  H13X 7704   1.183  -0.443   4.200  1.7650 -0.7215  1.9639
   83SOPE  H13Y 7705   1.361  -0.457   4.181  0.4396 -0.6169 -0.2755
   83SOPE  C314 7706   1.276  -0.370   4.001  0.0650  0.2215 -0.7225
   83SOPE  H14X 7707   1.372  -0.333   3.961  0.4413  1.8668  1.4849
   83SOPE  H14Y 7708   1.198  -0.295   3.973 -1.7156 -0.5905  1.6695
   83SOPE  C315 7709   1.238  -0.500   3.936  0.4336 -0.2807 -0.3607
   83SOPE  H15X 7710   1.133  -0.530   3.957 -0.1495  2.3038  0.8337
   83SOPE  H15Y 7711   1.301  -0.581   3.980 -0.3265 -0.3046  0.7338
   83SOPE  C316 7712   1.256  -0.515   3.778 -0.1895  0.6562 -0.2210
   83SOPE  H16X 7713   1.339  -0.449   3.747 -0.5617  2.0664  1.5536
   83SOPE  H16Y 7714   1.173  -0.464   3.725  1.0045  0.5270 -2.2836
   83SOPE  C317 7715   1.281  -0.650   3.725 -0.4584 -0.0548  0.8508
   83SOPE  H17X 7716   1.389  -0.665   3.747 -0.1754  0.8227  0.1258
   83SOPE  H17Y 7717   1.263  -0.641   3.616 -2.3633 -0.3475  1.1005
   83SOPE  C318 7718   1.185  -0.759   3.780 -0.0461 -0.0307 -0.4732
   83SOPE  H18X 7719   1.216  -0.790   3.882 -1.0199  2.5485  0.6856
   83SOPE  H18Y 7720   1.179  -0.855   3.724 -1.4255 -1.4163  1.8958
   83SOPE  H18Z 7721   1.084  -0.715   3.788  0.5783  1.6751 -1.5006
   84SOPE     N 7722   2.760   5.930   3.203  0.1389 -0.4035 -0.0647
   84SOPE   HN1 7723   2.862   5.924   3.218  0.3105  0.9610 -0.5138
   84SOPE   HN2 7724   2.713   5.839   3.184  0.8377 -1.4021  2.4889
   84SOPE   HN3 7725   2.742   5.993   3.123  0.2610 -2.2192 -1.5881
   84SOPE   C12 7726   2.699   6.004   3.322  1.0791 -0.1299 -0.5616
   84SOPE  H12A 7727   2.694   5.932   3.406 -1.2629 -0.1373 -0.6666
   84SOPE  H12B 7728   2.594   6.026   3.293 -0.6183 -1.6715  3.6203
   84SOPE   C11 7729   2.775   6.129   3.351 -0.6039  0.1043 -0.4778
   84SOPE  H11A 7730   2.751   6.163   3.454  2.0556  2.3065 -0.4920
   84SOPE  H11B 7731   2.742   6.214   3.288  0.4874 -0.5639 -2.0082
   84SOPE     P 7732   3.019   6.200   3.258 -0.0179 -0.0184  0.1204
   84SOPE   O13 7733   2.949   6.203   3.126 -0.4534 -0.3188  0.3106
   84SOPE   O14 7734   3.151   6.137   3.268  0.2030  0.1553 -0.0251
   84SOPE   O12 7735   2.919   6.115   3.349 -0.5017 -0.2929  0.2276
   84SOPE   O11 7736   3.025   6.346   3.325  0.3405 -0.2546  0.1974
   84SOPE    C1 7737   2.907   6.428   3.356  0.2193  0.5719 -0.8561
   84SOPE    HA 7738   2.866   6.395   3.453 -1.6910  2.2016 -1.0213
   84SOPE    HB 7739   2.830   6.425   3.276 -0.6184 -1.5815 -0.0275
   84SOPE    C2 7740   2.950   6.575   3.379 -0.5947 -0.0256 -0.1906
   84SOPE    HS 7741   2.976   6.618   3.280  0.9064 -3.1306 -1.2752
   84SOPE   O21 7742   3.060   6.574   3.474  0.7150 -0.0771 -0.5703
   84SOPE   C21 7743   3.157   6.662   3.444 -0.1880  0.2241  0.5744
   84SOPE   O22 7744   3.166   6.735   3.349  0.7292  0.0980  0.5667
   84SOPE   C22 7745   3.257   6.667   3.561  0.0205 -0.0015  0.1693
   84SOPE   H2R 7746   3.344   6.728   3.529  0.4909 -1.0969 -0.7173
   84SOPE   H2S 7747   3.294   6.563   3.577 -1.4459 -0.2318  2.6122
   84SOPE    C3 7748   2.828   6.653   3.427 -0.2556 -0.0448 -0.3578
   84SOPE    HX 7749   2.751   6.645   3.347  1.8298 -0.5298 -2.4013
   84SOPE    HY 7750   2.849   6.762   3.437 -1.7321  0.1609  0.8815
   84SOPE   O31 7751   2.782   6.608   3.554  0.5795 -0.1744  0.1969
   84SOPE   C31 7752   2.663   6.555   3.562  0.1140 -0.8752  0.6672
   84SOPE   O32 7753   2.583   6.532   3.474  0.5382 -0.1593  0.1034
   84SOPE   C32 7754   2.654   6.495   3.704  0.8156  0.6011 -0.6137
   84SOPE   H2X 7755   2.724   6.553   3.768  1.6531 -0.8519 -0.1802
   84SOPE   H2Y 7756   2.679   6.387   3.709  2.1303  0.9013 -0.4720
   84SOPE   C23 7757   3.204   6.721   3.694 -0.6220 -0.0798  0.3762
   84SOPE   H3R 7758   3.132   6.647   3.734  1.0121 -1.2437  1.2581
   84SOPE   H3S 7759   3.161   6.822   3.679 -0.4967 -0.1567 -0.5823
   84SOPE   C24 7760   3.325   6.728   3.789 -0.4106  0.1066 -0.0048
   84SOPE   H4R 7761   3.355   6.622   3.802 -0.7825 -0.1152 -0.8978
   84SOPE   H4S 7762   3.410   6.782   3.743 -1.1707  0.8510 -0.5738
   84SOPE   C25 7763   3.285   6.780   3.927  0.2534  0.6204 -0.1749
   84SOPE   H5R 7764   3.256   6.885   3.905  2.1026  1.1419 -0.3090
   84SOPE   H5S 7765   3.195   6.730   3.968  1.9736 -1.4239  1.3686
   84SOPE   C26 7766   3.396   6.752   4.031 -0.0694  0.3259  0.3258
   84SOPE   H6R 7767   3.446   6.653   4.026 -0.3420  0.2243 -0.8942
   84SOPE   H6S 7768   3.482   6.821   4.015 -0.6250  1.3086  1.4115
   84SOPE   C27 7769   3.351   6.784   4.177 -0.0790  0.0013 -0.0958
   84SOPE   H7R 7770   3.330   6.893   4.172 -2.4618 -0.4404 -3.3482
   84SOPE   H7S 7771   3.254   6.732   4.193  0.1189 -0.3035  0.1491
   84SOPE   C28 7772   3.451   6.757   4.286  0.6864  0.5207  0.1751
   84SOPE   H8R 7773   3.549   6.787   4.242 -0.8832  0.4049 -3.8996
   84SOPE   H8S 7774   3.428   6.814   4.378  1.9636 -1.7889  2.0453
   84SOPE   C29 7775   3.455   6.611   4.322 -0.2571 -0.2036  0.0454
   84SOPE   H91 7776   3.431   6.543   4.239  1.4074  0.2439 -0.8436
   84SOPE  C210 7777   3.483   6.578   4.453  0.3766 -0.8431  0.1329
   84SOPE  H101 7778   3.497   6.472   4.482  0.9179 -1.1273 -1.0893
   84SOPE  C211 7779   3.516   6.670   4.568  0.0000  0.3567  0.5751
   84SOPE  H11R 7780   3.429   6.737   4.588  0.7643  1.5079  0.1641
   84SOPE  H11S 7781   3.591   6.745   4.535 -2.9626  3.3107  0.0725
   84SOPE  C212 7782   3.553   6.611   4.705  0.7271  0.1730 -0.5516
   84SOPE  H12R 7783   3.624   6.527   4.687 -1.1807 -2.2509  2.2463
   84SOPE  H12S 7784   3.465   6.558   4.747 -0.1566  1.5551 -0.6193
   84SOPE  C213 7785   3.592   6.722   4.796 -0.1712 -0.1094  0.3597
   84SOPE  H13R 7786   3.538   6.816   4.771  0.8281 -0.1928 -2.4847
   84SOPE  H13S 7787   3.699   6.744   4.777 -0.1981 -0.8447 -0.7408
   84SOPE  C214 7788   3.566   6.693   4.944 -0.1724 -0.1120 -0.3658
   84SOPE  H14R 7789   3.463   6.656   4.958  0.2749 -1.6763 -0.9882
   84SOPE  H14S 7790   3.588   6.766   5.025  0.2765 -1.0693  0.4060
   84SOPE  C215 7791   3.649   6.574   4.989  0.8307  0.7473  0.1343
   84SOPE  H15R 7792   3.749   6.584   4.941  1.3370  1.7179  1.3353
   84SOPE  H15S 7793   3.608   6.482   4.943  0.9311  0.0332  1.4162
   84SOPE  C216 7794   3.658   6.557   5.139 -0.0413  0.0098  0.7101
   84SOPE  H16R 7795   3.556   6.531   5.175  0.2088 -1.3999  0.4618
   84SOPE  H16S 7796   3.700   6.646   5.191 -1.5007  0.7214  0.7483
   84SOPE  C217 7797   3.730   6.426   5.182 -0.2156  0.0505 -0.3609
   84SOPE  H17R 7798   3.696   6.335   5.128  0.0196 -0.5596  0.4926
   84SOPE  H17S 7799   3.707   6.412   5.290  0.1870  0.8061 -0.1654
   84SOPE  C218 7800   3.884   6.447   5.175  0.1774  0.0913  0.5145
   84SOPE  H18R 7801   3.918   6.440   5.069 -2.6679 -3.0235 -0.3531
   84SOPE  H18S 7802   3.933   6.361   5.226  0.1295  0.9662  2.0803
   84SOPE  H18T 7803   3.918   6.543   5.219 -0.5644  0.2006  0.8626
   84SOPE   C33 7804   2.517   6.495   3.783  0.6240  0.6598 -0.5634
   84SOPE   H3X 7805   2.537   6.439   3.877 -0.7803  0.1179 -0.5671
   84SOPE   H3Y 7806   2.442   6.440   3.723 -0.5060  1.1441  0.3811
   84SOPE   C34 7807   2.475   6.634   3.826  0.1189 -0.4590 -0.1909
   84SOPE   H4X 7808   2.427   6.692   3.744 -2.2996 -0.6982  0.9711
   84SOPE   H4Y 7809   2.559   6.700   3.857 -0.4116 -0.1533  0.6446
   84SOPE   C35 7810   2.367   6.637   3.940  0.1350  0.0824 -0.0530
   84SOPE   H5X 7811   2.294   6.559   3.908 -0.6501  0.5962  0.4558
   84SOPE   H5Y 7812   2.308   6.730   3.926 -0.5874  0.0554  2.3507
   84SOPE   C36 7813   2.417   6.611   4.085  0.3331 -0.6304 -0.2418
   84SOPE   H6X 7814   2.507   6.671   4.108  1.1586 -2.1943  0.7840
   84SOPE   H6Y 7815   2.442   6.505   4.107 -0.3619 -0.5827  0.8690
   84SOPE   C37 7816   2.299   6.642   4.176 -0.1893  0.5533 -1.3424
   84SOPE   H7X 7817   2.205   6.582   4.167 -0.5094  0.8027  0.0871
   84SOPE   H7Y 7818   2.266   6.747   4.160  1.8931  1.3502 -0.6667
   84SOPE   C38 7819   2.343   6.631   4.316 -0.0801  0.4667 -0.2952
   84SOPE   H8X 7820   2.439   6.683   4.333  1.5378 -2.7066  1.0026
   84SOPE   H8Y 7821   2.370   6.526   4.339 -1.1804  0.3134  0.3487
   84SOPE   C39 7822   2.242   6.691   4.413 -0.1653 -0.3066 -0.7870
   84SOPE   H9X 7823   2.162   6.613   4.415 -0.0101 -0.4630  0.5436
   84SOPE   H9Y 7824   2.205   6.792   4.386 -1.5792 -0.5828 -0.0108
   84SOPE  C310 7825   2.311   6.694   4.552  0.4508 -0.2861 -0.0745
   84SOPE  H10X 7826   2.394   6.768   4.538  0.4500 -0.2518  0.1013
   84SOPE  H10Y 7827   2.349   6.590   4.563 -2.6354 -1.5587 -0.4549
   84SOPE  C311 7828   2.211   6.744   4.663 -0.2053  0.1173  0.2849
   84SOPE  H11X 7829   2.113   6.692   4.656 -1.2847  1.8460  1.7178
   84SOPE  H11Y 7830   2.185   6.851   4.644  0.5977  0.6057  1.7325
   84SOPE  C312 7831   2.267   6.726   4.806  0.6400 -0.6476  0.2773
   84SOPE  H12X 7832   2.378   6.728   4.798  0.5419  1.2043 -1.4684
   84SOPE  H12Y 7833   2.223   6.639   4.860  2.3479 -1.5023  0.3636
   84SOPE  C313 7834   2.240   6.847   4.894 -0.7703  0.0641 -0.0176
   84SOPE  H13X 7835   2.132   6.871   4.898 -0.4231  1.8060 -0.4239
   84SOPE  H13Y 7836   2.286   6.942   4.862 -1.9616  1.2294  1.5560
   84SOPE  C314 7837   2.288   6.833   5.044  0.4358 -1.0180  0.1507
   84SOPE  H14X 7838   2.384   6.778   5.039  0.6065 -0.8070  1.0360
   84SOPE  H14Y 7839   2.211   6.776   5.100 -2.1711  0.7420 -1.3939
   84SOPE  C315 7840   2.305   6.967   5.111 -0.9600  0.0643 -0.3710
   84SOPE  H15X 7841   2.219   7.028   5.077  0.2174  1.3938 -1.0286
   84SOPE  H15Y 7842   2.405   7.008   5.086 -0.9658  0.2877 -0.0419
   84SOPE  C316 7843   2.281   6.963   5.265 -0.4153  0.9209 -0.4920
   84SOPE  H16X 7844   2.360   6.896   5.305 -1.9513 -0.7316 -0.1178
   84SOPE  H16Y 7845   2.192   6.899   5.281  0.6972 -0.7899 -0.9430
   84SOPE  C317 7846   2.271   7.097   5.337 -0.1776 -0.1245  0.2320
   84SOPE  H17X 7847   2.167   7.112   5.376 -0.0104 -0.5173  0.8328
   84SOPE  H17Y 7848   2.295   7.177   5.263  1.2702 -2.7542 -2.3184
   84SOPE  C318 7849   2.370   7.101   5.456 -0.1355 -0.1079  0.0054
   84SOPE  H18X 7850   2.322   7.056   5.546 -1.7326  0.7651 -0.3659
   84SOPE  H18Y 7851   2.398   7.205   5.483 -1.8122 -0.1810  2.4010
   84SOPE  H18Z 7852   2.465   7.051   5.430  1.3536  0.7622  3.2520
   85SOPE     N 7853   4.917   5.961   2.623  0.6789 -0.6839 -0.4887
   85SOPE   HN1 7854   4.932   5.858   2.621  2.0141 -0.5665  1.0758
   85SOPE   HN2 7855   4.977   6.014   2.557  0.6412  0.3849  0.3039
   85SOPE   HN3 7856   4.948   5.986   2.720  0.3805 -2.0103 -0.0291
   85SOPE   C12 7857   4.777   6.003   2.601  0.2665  0.6022  0.1607
   85SOPE  H12A 7858   4.708   5.917   2.612  0.2326  0.4807 -0.8709
   85SOPE  H12B 7859   4.766   6.045   2.499 -0.7835  2.6325  1.0716
   85SOPE   C11 7860   4.724   6.095   2.709  0.3011  0.4926  0.2955
   85SOPE  H11A 7861   4.621   6.130   2.687  1.2053  3.3146  0.1576
   85SOPE  H11B 7862   4.778   6.191   2.691 -0.7228  0.6098 -2.7877
   85SOPE     P 7863   4.845   6.109   2.938 -0.3942  0.1813 -0.0712
   85SOPE   O13 7864   4.803   6.250   2.975 -0.5217  0.7156  0.3354
   85SOPE   O14 7865   4.968   6.082   2.858 -0.9820  0.1329  0.3315
   85SOPE   O12 7866   4.739   6.051   2.839  0.0142  0.5989 -0.2992
   85SOPE   O11 7867   4.842   6.019   3.067  0.1973  0.3194  0.6960
   85SOPE    C1 7868   4.900   6.057   3.194 -0.4912  0.5027 -0.7512
   85SOPE    HA 7869   4.828   6.104   3.264  0.3955 -0.7435  1.1037
   85SOPE    HB 7870   4.982   6.128   3.169 -0.9378  1.1740 -0.3081
   85SOPE    C2 7871   4.956   5.929   3.257  0.9662  0.1291 -0.0398
   85SOPE    HS 7872   4.986   5.862   3.173 -0.2202 -0.7240  0.1961
   85SOPE   O21 7873   4.844   5.866   3.329  0.6459  0.0313 -0.3860
   85SOPE   C21 7874   4.859   5.737   3.360 -0.4580  0.4145  0.1283
   85SOPE   O22 7875   4.958   5.667   3.344  0.0082  0.3303 -0.3204
   85SOPE   C22 7876   4.721   5.675   3.402  0.6687  0.3666 -0.1412
   85SOPE   H2R 7877   4.668   5.661   3.306 -0.6969  1.6137  0.3916
   85SOPE   H2S 7878   4.663   5.761   3.442 -0.1796 -0.2235 -0.0878
   85SOPE    C3 7879   5.084   5.951   3.343 -0.0223  0.1398  0.4189
   85SOPE    HX 7880   5.174   5.962   3.279 -0.7427 -1.2140 -0.8877
   85SOPE    HY 7881   5.108   5.854   3.391 -0.4424 -0.4815 -0.5925
   85SOPE   O31 7882   5.066   6.064   3.429  0.5270 -0.0002 -0.5713
   85SOPE   C31 7883   5.127   6.052   3.542  0.6021  0.0705  0.6831
   85SOPE   O32 7884   5.203   5.964   3.573  0.2073  0.3469  0.3725
   85SOPE   C32 7885   5.089   6.164   3.629  0.4257 -0.2011 -0.1268
   85SOPE   H2X 7886   5.002   6.215   3.583  0.5290  0.2282  0.1423
   85SOPE   H2Y 7887   5.174   6.236   3.634  1.0259 -0.9426  0.8900
   85SOPE   C23 7888   4.726   5.538   3.482  0.1158 -0.2239 -0.4404
   85SOPE   H3R 7889   4.820   5.487   3.451  0.6638  0.2134  0.4683
   85SOPE   H3S 7890   4.632   5.488   3.449 -0.1471  0.3810 -0.6281
   85SOPE   C24 7891   4.722   5.559   3.630  0.0319  0.7343 -1.1337
   85SOPE   H4R 7892   4.801   5.634   3.654  0.1750 -0.1320  1.4293
   85SOPE   H4S 7893   4.626   5.604   3.661  0.9887  0.7413  2.2074
   85SOPE   C25 7894   4.759   5.427   3.705  0.9083  0.0346  0.4370
   85SOPE   H5R 7895   4.689   5.342   3.687 -0.4988  1.1003  0.7457
   85SOPE   H5S 7896   4.854   5.388   3.661  1.5270  0.9626  0.9181
   85SOPE   C26 7897   4.794   5.461   3.852 -0.3803  0.0035  0.0458
   85SOPE   H6R 7898   4.869   5.542   3.845  0.1268 -0.5815 -1.5029
   85SOPE   H6S 7899   4.700   5.500   3.898  0.3433  1.6284  0.2252
   85SOPE   C27 7900   4.837   5.334   3.928 -0.4269  0.0854  0.1340
   85SOPE   H7R 7901   4.785   5.238   3.910  1.1964 -0.6422 -0.8761
   85SOPE   H7S 7902   4.940   5.308   3.898 -0.1882  0.0797  0.9482
   85SOPE   C28 7903   4.830   5.364   4.077 -0.2366  0.1202 -0.0042
   85SOPE   H8R 7904   4.889   5.285   4.129 -3.3137 -1.6786  1.0407
   85SOPE   H8S 7905   4.880   5.461   4.098  1.6097 -0.6574 -0.5579
   85SOPE   C29 7906   4.690   5.377   4.117  0.1250  0.3596  0.2308
   85SOPE   H91 7907   4.633   5.456   4.065  0.9318  0.0460 -1.1677
   85SOPE  C210 7908   4.626   5.309   4.214 -0.4551  0.1387  0.1355
   85SOPE  H101 7909   4.516   5.307   4.223 -0.7652  0.7419 -2.6783
   85SOPE  C211 7910   4.687   5.188   4.285 -0.3470  0.9985  0.1149
   85SOPE  H11R 7911   4.742   5.121   4.215 -0.5424  1.2572 -0.2918
   85SOPE  H11S 7912   4.607   5.123   4.327  2.2588 -2.0041  0.7871
   85SOPE  C212 7913   4.769   5.222   4.406 -0.5462 -0.2372  0.3116
   85SOPE  H12R 7914   4.851   5.294   4.385 -0.1406 -1.1347 -1.2971
   85SOPE  H12S 7915   4.821   5.133   4.446 -0.9037 -0.7466 -0.3383
   85SOPE  C213 7916   4.692   5.289   4.525 -0.0950  0.4368 -0.0597
   85SOPE  H13R 7917   4.653   5.387   4.488 -0.4778 -0.2188 -1.4787
   85SOPE  H13S 7918   4.774   5.308   4.597  1.2874 -1.5151 -1.0376
   85SOPE  C214 7919   4.588   5.200   4.598 -0.1100 -0.2074  0.1257
   85SOPE  H14R 7920   4.642   5.103   4.602  3.0938  1.1564 -3.4344
   85SOPE  H14S 7921   4.502   5.186   4.530 -1.6584 -0.3805  2.0284
   85SOPE  C215 7922   4.521   5.240   4.740  0.3817 -0.4632  0.0628
   85SOPE  H15R 7923   4.443   5.165   4.762  1.3086 -1.4671  0.0256
   85SOPE  H15S 7924   4.464   5.334   4.729 -2.8990 -2.2025  0.9929
   85SOPE  C216 7925   4.619   5.244   4.844 -0.1124 -0.2022 -0.5593
   85SOPE  H16R 7926   4.678   5.338   4.844 -1.5355  0.7295  0.4510
   85SOPE  H16S 7927   4.696   5.169   4.814  0.7372 -1.0809  3.3237
   85SOPE  C217 7928   4.580   5.192   4.986  0.7903  0.7450  0.0513
   85SOPE  H17R 7929   4.565   5.081   4.984  0.4191  0.8030 -0.4822
   85SOPE  H17S 7930   4.485   5.228   5.030 -0.1100 -0.4445 -0.8353
   85SOPE  C218 7931   4.683   5.227   5.097 -0.1154 -0.3294  0.3214
   85SOPE  H18R 7932   4.710   5.334   5.085 -1.7527  0.0598 -0.0833
   85SOPE  H18S 7933   4.779   5.174   5.081  0.5497  0.3173  1.8946
   85SOPE  H18T 7934   4.641   5.209   5.199  1.0190 -1.7260  0.5731
   85SOPE   C33 7935   5.056   6.105   3.761  0.5306  0.0261  0.0645
   85SOPE   H3X 7936   5.143   6.067   3.819  0.5951  2.6661  1.8985
   85SOPE   H3Y 7937   4.984   6.021   3.754  1.4833 -1.0459  2.1313
   85SOPE   C34 7938   4.985   6.209   3.848  0.4030  0.2501 -0.9052
   85SOPE   H4X 7939   4.908   6.264   3.788  2.3995  2.4035 -1.6529
   85SOPE   H4Y 7940   5.059   6.286   3.879  1.3315 -1.0214  0.0887
   85SOPE   C35 7941   4.925   6.159   3.982  0.2340  0.1234  0.0251
   85SOPE   H5X 7942   5.018   6.125   4.033 -0.5366 -1.3171  0.5359
   85SOPE   H5Y 7943   4.855   6.075   3.964 -1.6141  1.5551  0.2592
   85SOPE   C36 7944   4.846   6.275   4.054  0.0040 -0.3676  0.6929
   85SOPE   H6X 7945   4.761   6.293   3.986  0.9311  0.9696 -0.1521
   85SOPE   H6Y 7946   4.912   6.364   4.050  1.8412 -1.7056 -0.3897
   85SOPE   C37 7947   4.805   6.250   4.198 -0.6820 -0.7830  0.4619
   85SOPE   H7X 7948   4.695   6.229   4.193 -0.7838 -0.6871  1.9350
   85SOPE   H7Y 7949   4.827   6.339   4.261  0.1632 -1.0772  0.5901
   85SOPE   C38 7950   4.877   6.133   4.256  0.2504  0.5934  0.1148
   85SOPE   H8X 7951   4.985   6.138   4.234  0.0762  0.6967 -0.7657
   85SOPE   H8Y 7952   4.852   6.035   4.210  1.6385 -0.1909  0.9668
   85SOPE   C39 7953   4.847   6.117   4.407  0.2552  0.2595  0.6430
   85SOPE   H9X 7954   4.860   6.221   4.444 -0.3854  0.6414 -0.1681
   85SOPE   H9Y 7955   4.928   6.060   4.457 -0.2810 -0.6502  0.4914
   85SOPE  C310 7956   4.708   6.056   4.428  0.4912  1.2284 -0.1458
   85SOPE  H10X 7957   4.681   5.968   4.365  0.1526  1.1428  0.1206
   85SOPE  H10Y 7958   4.627   6.123   4.393 -1.0115 -1.3516 -1.9803
   85SOPE  C311 7959   4.686   6.020   4.580 -0.0730 -0.5582 -0.2441
   85SOPE  H11X 7960   4.769   5.964   4.629 -1.0189 -0.1432  1.9227
   85SOPE  H11Y 7961   4.588   5.968   4.588 -0.7306  0.1587 -2.7707
   85SOPE  C312 7962   4.678   6.146   4.673 -0.1459 -0.3527 -0.6808
   85SOPE  H12X 7963   4.608   6.222   4.633  0.4163 -0.1825 -1.3632
   85SOPE  H12Y 7964   4.776   6.197   4.665  0.4652 -1.5387 -0.8476
   85SOPE  C313 7965   4.631   6.109   4.812  0.3299  0.0092 -0.0791
   85SOPE  H13X 7966   4.702   6.050   4.873 -1.1282 -0.1740  1.5239
   85SOPE  H13Y 7967   4.551   6.033   4.795  1.6031 -1.2147 -0.7787
   85SOPE  C314 7968   4.564   6.222   4.886 -0.2872 -0.3405 -0.2577
   85SOPE  H14X 7969   4.495   6.272   4.814 -1.1702  0.5035  1.1252
   85SOPE  H14Y 7970   4.640   6.301   4.906 -0.1592  0.5030 -3.4712
   85SOPE  C315 7971   4.481   6.185   5.004  0.4435 -0.0137 -0.1418
   85SOPE  H15X 7972   4.544   6.127   5.075  0.7432 -1.8004 -1.7953
   85SOPE  H15Y 7973   4.402   6.112   4.976  1.4868 -2.1189  2.0647
   85SOPE  C316 7974   4.426   6.305   5.079  0.5350  0.0845 -0.6581
   85SOPE  H16X 7975   4.367   6.364   5.007 -1.4889 -0.1949  0.7133
   85SOPE  H16Y 7976   4.518   6.361   5.108  0.7880 -0.2128 -0.8675
   85SOPE  C317 7977   4.340   6.265   5.196 -0.1216 -0.4083 -0.6021
   85SOPE  H17X 7978   4.389   6.192   5.265 -0.5522  0.5781  0.8106
   85SOPE  H17Y 7979   4.242   6.226   5.164 -1.9090  1.5503  2.0110
   85SOPE  C318 7980   4.307   6.384   5.285 -0.2483 -0.3104  0.1389
   85SOPE  H18X 7981   4.255   6.461   5.224  1.0687 -2.4153 -3.9859
   85SOPE  H18Y 7982   4.400   6.431   5.325  0.9380 -0.7560 -1.9714
   85SOPE  H18Z 7983   4.242   6.348   5.368 -0.3575 -0.3318  0.0444
   86SOPE     N 7984   6.616   0.278   2.643 -0.2167 -0.9849  0.5318
   86SOPE   HN1 7985   6.705   0.228   2.625  0.0728 -1.6160  3.3102
   86SOPE   HN2 7986   6.584   0.248   2.738 -0.1597 -0.9540  0.5607
   86SOPE   HN3 7987   6.548   0.239   2.574 -0.2462  0.0123 -0.0171
   86SOPE   C12 7988   6.633   0.427   2.635 -0.1999 -0.8560  0.6933
   86SOPE  H12A 7989   6.644   0.455   2.528 -1.3364  2.0846  1.2490
   86SOPE  H12B 7990   6.726   0.457   2.688 -0.8957  2.0805  0.3988
   86SOPE   C11 7991   6.514   0.501   2.706  0.4159  0.0360  0.0744
   86SOPE  H11A 7992   6.520   0.609   2.682  1.4153  0.0369  0.3138
   86SOPE  H11B 7993   6.528   0.497   2.816 -0.0571 -1.1991  0.1060
   86SOPE     P 7994   6.262   0.437   2.744  0.2271  0.2098 -0.0366
   86SOPE   O13 7995   6.269   0.313   2.821  0.1894 -0.4060 -0.2816
   86SOPE   O14 7996   6.148   0.464   2.655 -0.2222 -0.0536 -0.2287
   86SOPE   O12 7997   6.397   0.449   2.658 -0.4442  0.4602  0.4831
   86SOPE   O11 7998   6.268   0.561   2.844  0.0926  1.0327 -0.8431
   86SOPE    C1 7999   6.259   0.693   2.793 -0.1323 -1.0956 -0.2874
   86SOPE    HA 8000   6.157   0.725   2.825  0.6594  3.1458 -1.3644
   86SOPE    HB 8001   6.276   0.696   2.683 -1.5413  0.4062 -0.5161
   86SOPE    C2 8002   6.359   0.787   2.863  0.2667 -0.6019  1.2217
   86SOPE    HS 8003   6.456   0.762   2.814  0.1800 -1.3349  1.4151
   86SOPE   O21 8004   6.370   0.768   3.009  0.1664 -0.0890 -0.5352
   86SOPE   C21 8005   6.473   0.826   3.061  0.6238  0.1257 -0.6570
   86SOPE   O22 8006   6.559   0.884   3.001 -0.9697 -0.3534  0.9331
   86SOPE   C22 8007   6.464   0.813   3.222 -0.3685 -0.8165  0.1315
   86SOPE   H2R 8008   6.420   0.714   3.249  0.7716 -1.1210  0.9292
   86SOPE   H2S 8009   6.409   0.901   3.263 -0.4177  0.3738 -2.3420
   86SOPE    C3 8010   6.323   0.936   2.823  0.2962  0.4182  0.0202
   86SOPE    HX 8011   6.327   0.929   2.712  3.9834 -1.1228  0.1105
   86SOPE    HY 8012   6.393   1.015   2.859 -0.3677  1.1059 -0.1634
   86SOPE   O31 8013   6.188   0.979   2.868 -0.2082 -0.0245 -0.0698
   86SOPE   C31 8014   6.188   1.054   2.977  0.3230 -0.3155  0.1744
   86SOPE   O32 8015   6.274   1.112   3.037 -0.9732  0.2360 -0.3481
   86SOPE   C32 8016   6.034   1.074   2.997 -0.5690  0.0200  0.2944
   86SOPE   H2X 8017   5.993   0.985   3.049 -0.8586  0.1706  0.3306
   86SOPE   H2Y 8018   5.989   1.086   2.896  0.3553  2.0410  0.0655
   86SOPE   C23 8019   6.616   0.810   3.274  0.1719 -0.0625  0.2009
   86SOPE   H3R 8020   6.676   0.893   3.231  1.1781 -0.5743  0.5779
   86SOPE   H3S 8021   6.665   0.724   3.224  0.6941  1.5881 -2.3042
   86SOPE   C24 8022   6.624   0.810   3.426  0.1364  0.6613 -0.0457
   86SOPE   H4R 8023   6.577   0.903   3.464  1.6441  1.5983 -0.3988
   86SOPE   H4S 8024   6.574   0.733   3.489  0.5632  0.3333 -0.0982
   86SOPE   C25 8025   6.771   0.820   3.476 -0.3056  0.2737  0.1569
   86SOPE   H5R 8026   6.836   0.737   3.439 -0.3181  0.9433 -1.4681
   86SOPE   H5S 8027   6.812   0.915   3.437  2.5318 -1.0018 -0.2580
   86SOPE   C26 8028   6.781   0.805   3.631  0.0960  0.1966  0.1996
   86SOPE   H6R 8029   6.741   0.707   3.666 -2.1784 -0.2866 -3.3169
   86SOPE   H6S 8030   6.889   0.808   3.659  0.0356  0.9763  0.3559
   86SOPE   C27 8031   6.710   0.910   3.713  0.2215  0.0675  0.4060
   86SOPE   H7R 8032   6.743   1.009   3.674 -0.1285  0.8263  1.9861
   86SOPE   H7S 8033   6.600   0.904   3.698  0.4210 -2.7347 -0.6097
   86SOPE   C28 8034   6.740   0.903   3.858  0.1588  0.6561  0.3683
   86SOPE   H8R 8035   6.849   0.923   3.855  0.5164 -0.9903  1.2929
   86SOPE   H8S 8036   6.694   0.989   3.913 -2.0058 -0.6671  0.7430
   86SOPE   C29 8037   6.719   0.770   3.936  0.2859  0.3867  0.2109
   86SOPE   H91 8038   6.641   0.696   3.912 -0.1747  0.8058  0.4063
   86SOPE  C210 8039   6.786   0.749   4.048 -0.1335  0.2978 -0.1524
   86SOPE  H101 8040   6.770   0.656   4.104  0.5248 -0.5451 -1.3028
   86SOPE  C211 8041   6.888   0.843   4.106  0.5218  0.2390  0.1561
   86SOPE  H11R 8042   6.860   0.950   4.104 -0.7043 -0.0663 -1.5451
   86SOPE  H11S 8043   6.972   0.846   4.033  1.0808  0.1548  0.7881
   86SOPE  C212 8044   6.931   0.807   4.244 -0.4644  0.1947  0.4017
   86SOPE  H12R 8045   7.017   0.868   4.279 -0.1543 -0.6161  1.0943
   86SOPE  H12S 8046   6.968   0.703   4.251 -1.6159 -0.1208  2.7257
   86SOPE  C213 8047   6.826   0.814   4.359  0.5112  0.0535 -0.4361
   86SOPE  H13R 8048   6.739   0.748   4.335 -0.7909  1.0876  1.2158
   86SOPE  H13S 8049   6.796   0.920   4.365  1.7904  0.3914  0.2901
   86SOPE  C214 8050   6.893   0.770   4.491  0.2077 -0.2752  0.8272
   86SOPE  H14R 8051   6.970   0.839   4.533  1.4312 -1.9737  1.4809
   86SOPE  H14S 8052   6.954   0.683   4.460 -0.3910  0.3259 -2.3915
   86SOPE  C215 8053   6.798   0.729   4.609 -0.1428  0.7372 -0.0793
   86SOPE  H15R 8054   6.734   0.642   4.584  1.0030 -1.1630  3.0507
   86SOPE  H15S 8055   6.726   0.812   4.631 -0.0834  0.2392  2.3489
   86SOPE  C216 8056   6.888   0.705   4.734  0.2831 -0.3880 -0.4503
   86SOPE  H16R 8057   6.955   0.792   4.749 -0.0484 -0.4108  1.3209
   86SOPE  H16S 8058   6.948   0.611   4.729 -1.1433 -1.8160  4.4557
   86SOPE  C217 8059   6.793   0.691   4.855  1.0214 -0.2395  0.0279
   86SOPE  H17R 8060   6.716   0.611   4.852  0.4780  0.3023 -0.8052
   86SOPE  H17S 8061   6.725   0.778   4.867 -0.2500 -1.1179 -0.5366
   86SOPE  C218 8062   6.886   0.674   4.972  0.0245  0.5261 -0.1262
   86SOPE  H18R 8063   6.940   0.577   4.974  0.8970  1.0135  0.6971
   86SOPE  H18S 8064   6.829   0.663   5.067 -0.2564 -0.5708 -0.4037
   86SOPE  H18T 8065   6.962   0.754   4.968 -0.1968  0.6773 -2.4076
   86SOPE   C33 8066   6.008   1.196   3.087  0.3471  0.1547  0.3600
   86SOPE   H3X 8067   5.904   1.228   3.068  0.2125 -1.2304 -1.4162
   86SOPE   H3Y 8068   6.073   1.283   3.062  0.9128 -1.0532 -2.8068
   86SOPE   C34 8069   6.013   1.157   3.239 -0.1953 -0.1639  0.3909
   86SOPE   H4X 8070   6.110   1.101   3.241  0.6223  1.2296  2.1539
   86SOPE   H4Y 8071   5.935   1.086   3.272  0.5031 -1.1557 -0.0204
   86SOPE   C35 8072   6.005   1.271   3.339  0.2202  0.1550  0.3547
   86SOPE   H5X 8073   5.909   1.325   3.329 -0.2149 -0.6350  0.1524
   86SOPE   H5Y 8074   6.093   1.337   3.323  0.7255 -0.6581 -0.3269
   86SOPE   C36 8075   6.009   1.213   3.484  0.3669 -0.5002  0.1182
   86SOPE   H6X 8076   6.102   1.155   3.499 -0.0201 -1.3404 -0.6739
   86SOPE   H6Y 8077   5.919   1.149   3.495  0.2787 -0.8001 -1.9866
   86SOPE   C37 8078   6.005   1.327   3.586 -0.0886  0.4171  0.1683
   86SOPE   H7X 8079   5.921   1.392   3.555 -1.7895 -1.7068  0.0917
   86SOPE   H7Y 8080   6.104   1.375   3.569  0.8198 -1.1485  0.7679
   86SOPE   C38 8081   5.975   1.279   3.730  0.2698  0.4301 -0.3159
   86SOPE   H8X 8082   6.052   1.209   3.768 -0.2410 -0.6259 -1.1740
   86SOPE   H8Y 8083   5.872   1.237   3.732  0.5217 -0.1938 -0.3913
   86SOPE   C39 8084   5.987   1.403   3.822  0.5183  0.1850 -0.7714
   86SOPE   H9X 8085   5.892   1.460   3.814  0.7941  0.6761 -0.6530
   86SOPE   H9Y 8086   6.065   1.473   3.785  1.8580 -0.4250  0.7673
   86SOPE  C310 8087   6.019   1.371   3.965  0.3176 -0.6326  0.1747
   86SOPE  H10X 8088   6.098   1.294   3.976  0.7015 -0.4044 -0.9021
   86SOPE  H10Y 8089   5.922   1.327   3.997 -0.7784  1.9407  0.6912
   86SOPE  C311 8090   6.030   1.498   4.048 -0.4184  0.2392 -0.1073
   86SOPE  H11X 8091   5.948   1.570   4.034  1.2998  2.8343  2.1804
   86SOPE  H11Y 8092   6.123   1.556   4.027  0.1696 -0.9419 -0.9117
   86SOPE  C312 8093   6.033   1.466   4.199 -0.1218  0.0482 -0.4718
   86SOPE  H12X 8094   6.071   1.558   4.246  2.6520 -1.6030  0.7661
   86SOPE  H12Y 8095   6.111   1.390   4.220  0.1119 -0.2706 -2.3403
   86SOPE  C313 8096   5.902   1.433   4.267 -0.6884  0.2267 -0.1723
   86SOPE  H13X 8097   5.868   1.335   4.227  1.0865  0.1032 -1.4924
   86SOPE  H13Y 8098   5.827   1.511   4.242  0.0682  0.6901 -1.0408
   86SOPE  C314 8099   5.905   1.410   4.415  0.5312 -0.8969 -0.0790
   86SOPE  H14X 8100   5.947   1.493   4.476 -0.9654 -0.0312 -0.1836
   86SOPE  H14Y 8101   5.974   1.325   4.436  0.3432 -0.7470  1.2476
   86SOPE  C315 8102   5.769   1.373   4.467  0.5639  0.4482  0.6068
   86SOPE  H15X 8103   5.743   1.271   4.432  3.6306 -0.1182 -0.2987
   86SOPE  H15Y 8104   5.709   1.452   4.416  3.2990  1.2469 -1.6347
   86SOPE  C316 8105   5.751   1.385   4.621  0.6114 -0.3255 -0.0355
   86SOPE  H16X 8106   5.647   1.347   4.635 -1.5245  4.2380 -1.4873
   86SOPE  H16Y 8107   5.749   1.494   4.643  2.3399  0.1643 -1.9813
   86SOPE  C317 8108   5.857   1.312   4.697 -0.2550  0.0913 -0.4546
   86SOPE  H17X 8109   5.853   1.340   4.805  3.5421 -1.6342  0.2752
   86SOPE  H17Y 8110   5.953   1.365   4.681 -0.0919  0.7994  2.3213
   86SOPE  C318 8111   5.881   1.162   4.681 -0.4407  0.1552  0.2159
   86SOPE  H18X 8112   5.966   1.128   4.744  0.5319  0.0293 -1.1019
   86SOPE  H18Y 8113   5.892   1.144   4.572  1.4038 -1.2799  0.5792
   86SOPE  H18Z 8114   5.791   1.104   4.708  1.3392 -2.8796  0.0437
   87SOPE     N 8115   0.764   0.968   2.856 -0.5340  0.1075 -0.1078
   87SOPE   HN1 8116   0.814   0.885   2.818  1.2932  1.4787 -0.7883
   87SOPE   HN2 8117   0.661   0.951   2.847 -0.2738 -1.2975 -0.7586
   87SOPE   HN3 8118   0.774   1.050   2.793 -0.8077 -0.4911 -0.9477
   87SOPE   C12 8119   0.799   0.987   3.000 -0.2222 -0.1878 -0.5328
   87SOPE  H12A 8120   0.767   1.090   3.025  0.2797 -0.3061  0.6750
   87SOPE  H12B 8121   0.909   0.978   3.008 -0.2473 -0.3260 -0.3319
   87SOPE   C11 8122   0.718   0.883   3.076 -0.7827 -0.4773 -0.3737
   87SOPE  H11A 8123   0.608   0.902   3.071 -0.9193 -0.7116  1.2160
   87SOPE  H11B 8124   0.745   0.902   3.182 -0.9631  0.0047 -0.4123
   87SOPE     P 8125   0.847   0.656   3.108 -0.2750 -0.5224 -0.4795
   87SOPE   O13 8126   0.981   0.716   3.120 -0.5222 -0.0780 -0.7115
   87SOPE   O14 8127   0.837   0.522   3.047 -0.1698  0.3886  0.0225
   87SOPE   O12 8128   0.765   0.758   3.022 -0.4458 -0.7363  0.2281
   87SOPE   O11 8129   0.772   0.664   3.246  0.3819  0.1992  0.3388
   87SOPE    C1 8130   0.636   0.609   3.257  0.2608 -0.5711  0.1286
   87SOPE    HA 8131   0.598   0.554   3.168 -0.0409 -1.5465  0.8316
   87SOPE    HB 8132   0.557   0.687   3.265  0.6561 -0.2055  0.4555
   87SOPE    C2 8133   0.619   0.510   3.381  0.0072 -0.0115  0.0483
   87SOPE    HS 8134   0.688   0.422   3.387  0.7416  0.4374 -1.4162
   87SOPE   O21 8135   0.482   0.472   3.377  0.5723  0.3825 -0.0937
   87SOPE   C21 8136   0.446   0.376   3.290 -0.3891  0.6441 -0.5119
   87SOPE   O22 8137   0.527   0.314   3.219  0.3281 -0.4531  0.0835
   87SOPE   C22 8138   0.300   0.342   3.290  0.0726 -0.7413  0.0198
   87SOPE   H2R 8139   0.275   0.279   3.203 -1.6728  0.8319 -0.6704
   87SOPE   H2S 8140   0.242   0.436   3.280  0.2326 -0.4652  1.4168
   87SOPE    C3 8141   0.642   0.594   3.514 -0.3413  0.1300  0.0570
   87SOPE    HX 8142   0.565   0.673   3.531  1.0266  1.4470  0.3595
   87SOPE    HY 8143   0.736   0.651   3.498 -0.7609  0.2452 -2.3793
   87SOPE   O31 8144   0.657   0.506   3.626  0.0282  0.4838 -0.6570
   87SOPE   C31 8145   0.680   0.573   3.739 -0.3701 -0.4966  0.3536
   87SOPE   O32 8146   0.704   0.691   3.747  0.7792 -0.2549 -0.4632
   87SOPE   C32 8147   0.665   0.486   3.867  0.3473  0.9934  0.6964
   87SOPE   H2X 8148   0.759   0.427   3.879  0.3672  0.4495 -1.5850
   87SOPE   H2Y 8149   0.588   0.408   3.847  0.9319  0.8431 -1.1288
   87SOPE   C23 8150   0.245   0.265   3.412  0.8904 -0.3377  0.2818
   87SOPE   H3R 8151   0.329   0.198   3.441  3.2234  1.5664 -1.6755
   87SOPE   H3S 8152   0.160   0.198   3.386 -0.2142  0.5411  1.4498
   87SOPE   C24 8153   0.208   0.358   3.524  0.0859  0.7861 -0.5269
   87SOPE   H4R 8154   0.298   0.416   3.554  0.2505 -1.4373  4.1300
   87SOPE   H4S 8155   0.138   0.435   3.486  0.6860  1.5295 -0.1481
   87SOPE   C25 8156   0.160   0.287   3.649 -0.5337  1.0069  0.1271
   87SOPE   H5R 8157   0.072   0.228   3.616 -0.6229  1.5868 -0.6824
   87SOPE   H5S 8158   0.237   0.218   3.690  0.0344  0.9689 -0.9639
   87SOPE   C26 8159   0.124   0.383   3.767  1.0244  0.1226 -0.0915
   87SOPE   H6R 8160   0.219   0.439   3.786  1.2241 -0.7058  1.5766
   87SOPE   H6S 8161   0.054   0.462   3.734  0.1618 -0.5758  0.0348
   87SOPE   C27 8162   0.093   0.313   3.903 -0.4249 -0.0558  0.0376
   87SOPE   H7R 8163   0.017   0.378   3.951  0.2034  2.0136 -1.6306
   87SOPE   H7S 8164   0.051   0.210   3.890 -0.7098 -0.1063  1.2399
   87SOPE   C28 8165   0.220   0.316   3.992  0.2930 -0.4542 -0.1156
   87SOPE   H8R 8166   0.218   0.227   4.059  2.1927 -0.7537 -0.4077
   87SOPE   H8S 8167   0.308   0.299   3.926  1.1154  1.4519  0.4201
   87SOPE   C29 8168   0.236   0.444   4.066 -0.3077 -0.1343 -0.5986
   87SOPE   H91 8169   0.290   0.514   4.001 -1.0340 -0.1694 -1.2535
   87SOPE  C210 8170   0.189   0.487   4.186 -0.5004  0.3158 -1.1180
   87SOPE  H101 8171   0.229   0.581   4.226  0.2776 -0.2342 -0.5597
   87SOPE  C211 8172   0.108   0.407   4.275  0.1457  0.0839 -0.2284
   87SOPE  H11R 8173   0.069   0.320   4.218 -1.3270  1.8701 -2.0771
   87SOPE  H11S 8174   0.014   0.463   4.296  0.4676  0.5718 -0.0599
   87SOPE  C212 8175   0.175   0.363   4.403 -0.1029  0.6085  0.0036
   87SOPE  H12R 8176   0.280   0.329   4.389 -0.1582  0.9830 -1.4360
   87SOPE  H12S 8177   0.115   0.276   4.440  5.0293 -2.8263  1.3294
   87SOPE  C213 8178   0.176   0.472   4.504 -0.6367  0.6188 -0.2624
   87SOPE  H13R 8179   0.090   0.540   4.488 -1.8646 -0.0620  2.6857
   87SOPE  H13S 8180   0.260   0.541   4.479 -0.2287  0.1545 -0.1879
   87SOPE  C214 8181   0.184   0.415   4.641 -0.0409 -0.0530 -0.1875
   87SOPE  H14R 8182   0.268   0.345   4.658 -0.0262  0.2544  1.0847
   87SOPE  H14S 8183   0.087   0.361   4.652  0.1645 -0.4568 -0.3447
   87SOPE  C215 8184   0.175   0.520   4.758 -0.4178  0.0004 -0.3628
   87SOPE  H15R 8185   0.105   0.600   4.727 -0.3289  1.6043  3.1510
   87SOPE  H15S 8186   0.271   0.575   4.759  1.2245 -2.4938 -3.0871
   87SOPE  C216 8187   0.144   0.458   4.903  0.1449 -0.3589  0.4180
   87SOPE  H16R 8188   0.049   0.402   4.890  0.5290 -0.8635 -0.2252
   87SOPE  H16S 8189   0.124   0.540   4.975 -3.2551 -1.3597  0.7760
   87SOPE  C217 8190   0.249   0.365   4.970 -0.2530 -0.1660  0.0642
   87SOPE  H17R 8191   0.342   0.421   4.996  0.7283 -0.7055 -2.0463
   87SOPE  H17S 8192   0.281   0.289   4.896 -1.8836  1.4037 -2.4183
   87SOPE  C218 8193   0.194   0.315   5.100 -0.1723  0.7869 -0.2003
   87SOPE  H18R 8194   0.127   0.229   5.081 -0.5860  1.5899 -2.7449
   87SOPE  H18S 8195   0.139   0.390   5.162 -0.5897 -1.2521  2.0554
   87SOPE  H18T 8196   0.271   0.268   5.165 -0.7828 -0.5451 -0.4152
   87SOPE   C33 8197   0.628   0.560   3.994 -0.0432  0.1532 -0.2585
   87SOPE   H3X 8198   0.524   0.599   3.999 -0.1587  0.3807 -2.9769
   87SOPE   H3Y 8199   0.690   0.651   4.007 -1.0623  0.6334  1.6577
   87SOPE   C34 8200   0.640   0.478   4.119  0.6485  0.3653 -0.8743
   87SOPE   H4X 8201   0.715   0.396   4.110 -1.0689 -1.2531 -1.0961
   87SOPE   H4Y 8202   0.551   0.419   4.149  0.8090  0.3359 -0.4358
   87SOPE   C35 8203   0.668   0.562   4.245 -0.2530 -0.5179  0.1390
   87SOPE   H5X 8204   0.582   0.630   4.267  1.0887  1.7135 -1.0853
   87SOPE   H5Y 8205   0.761   0.622   4.233  1.0648 -2.4593  0.2117
   87SOPE   C36 8206   0.706   0.470   4.363  0.0047 -0.4065 -0.1352
   87SOPE   H6X 8207   0.763   0.533   4.434 -1.4917 -0.0490  0.8027
   87SOPE   H6Y 8208   0.774   0.386   4.335  2.2684  1.4806 -0.5737
   87SOPE   C37 8209   0.585   0.410   4.442 -0.0951 -0.4936  0.5874
   87SOPE   H7X 8210   0.556   0.334   4.366  1.1047 -0.7350  0.3425
   87SOPE   H7Y 8211   0.502   0.481   4.462 -0.6098 -0.8058 -0.4230
   87SOPE   C38 8212   0.633   0.343   4.569 -0.1534  0.0395  0.1481
   87SOPE   H8X 8213   0.735   0.305   4.545 -0.0992 -1.1548  2.0081
   87SOPE   H8Y 8214   0.585   0.255   4.616  1.8291 -1.1333  0.1292
   87SOPE   C39 8215   0.645   0.437   4.687  0.1577  0.6454  0.3006
   87SOPE   H9X 8216   0.546   0.473   4.723 -0.0198  3.2209 -2.3893
   87SOPE   H9Y 8217   0.704   0.527   4.660 -1.1413  0.5011 -3.6136
   87SOPE  C310 8218   0.714   0.371   4.811  0.2682 -0.6768 -0.0273
   87SOPE  H10X 8219   0.664   0.272   4.806 -0.8645 -0.0852 -1.0447
   87SOPE  H10Y 8220   0.675   0.422   4.902  1.0050 -1.8705  0.9899
   87SOPE  C311 8221   0.869   0.354   4.806  0.4894  0.4845 -0.0342
   87SOPE  H11X 8222   0.919   0.450   4.785  0.3885  1.0207  1.9822
   87SOPE  H11Y 8223   0.898   0.287   4.722 -0.5337  2.4549 -2.0468
   87SOPE  C312 8224   0.926   0.298   4.939 -0.5700 -0.2727 -0.1185
   87SOPE  H12X 8225   0.867   0.207   4.959 -2.0091  0.6289 -0.0752
   87SOPE  H12Y 8226   0.890   0.349   5.031  0.4630 -2.1930  1.4267
   87SOPE  C313 8227   1.080   0.266   4.928  0.9520  0.2491 -0.6633
   87SOPE  H13X 8228   1.140   0.357   4.908 -0.2616  1.4950  1.0982
   87SOPE  H13Y 8229   1.092   0.191   4.846 -1.2867 -0.9315 -0.0132
   87SOPE  C314 8230   1.142   0.211   5.065  0.3632  0.7290  0.8436
   87SOPE  H14X 8231   1.142   0.299   5.132  0.2706  0.9724  0.5231
   87SOPE  H14Y 8232   1.247   0.187   5.040 -0.3823 -1.5607 -0.3537
   87SOPE  C315 8233   1.077   0.092   5.137  0.0689 -0.0482  0.1459
   87SOPE  H15X 8234   1.047   0.024   5.055 -0.3052 -0.2366  0.4369
   87SOPE  H15Y 8235   0.983   0.111   5.195  0.8724  1.5955  0.9956
   87SOPE  C316 8236   1.177   0.027   5.240 -0.1123  0.7696 -0.1795
   87SOPE  H16X 8237   1.168   0.094   5.328  1.3443  0.3066  0.3633
   87SOPE  H16Y 8238   1.278   0.035   5.194 -0.1765 -5.4160 -2.3205
   87SOPE  C317 8239   1.150  -0.116   5.278  0.2864 -0.0031 -0.1833
   87SOPE  H17X 8240   1.138  -0.178   5.186 -2.4428  0.2829 -0.1275
   87SOPE  H17Y 8241   1.052  -0.130   5.330  0.4896 -0.8344 -0.0184
   87SOPE  C318 8242   1.267  -0.179   5.361 -0.2479  0.1635 -0.4388
   87SOPE  H18X 8243   1.262  -0.141   5.466  3.0028 -0.9300  0.2297
   87SOPE  H18Y 8244   1.366  -0.148   5.320 -0.6540  2.0840 -0.0972
   87SOPE  H18Z 8245   1.258  -0.289   5.358 -1.3819  0.1793  1.2760
   88SOPE     N 8246   0.623   2.918   3.026  0.1841 -0.1102 -0.0013
   88SOPE   HN1 8247   0.689   2.995   3.004  0.8365 -0.7943 -0.4797
   88SOPE   HN2 8248   0.678   2.830   3.028 -1.9265 -1.5398 -0.5841
   88SOPE   HN3 8249   0.553   2.914   2.949  0.3771  0.0748 -0.1856
   88SOPE   C12 8250   0.549   2.938   3.157 -0.0749 -0.0631 -0.6230
   88SOPE  H12A 8251   0.486   3.029   3.144  1.2289  0.8251 -0.8706
   88SOPE  H12B 8252   0.621   2.964   3.237 -0.1985  1.7903 -1.0475
   88SOPE   C11 8253   0.452   2.824   3.199 -0.1740 -0.1290  0.1263
   88SOPE  H11A 8254   0.368   2.812   3.127  1.6745  0.3448 -2.2186
   88SOPE  H11B 8255   0.396   2.858   3.289 -2.0471  1.9000 -1.6850
   88SOPE     P 8256   0.611   2.651   3.330 -0.2768  0.4700 -0.1898
   88SOPE   O13 8257   0.750   2.637   3.285 -0.3903  0.4101  0.6920
   88SOPE   O14 8258   0.553   2.530   3.389  0.2668 -0.5128  0.2386
   88SOPE   O12 8259   0.520   2.701   3.214  0.1624  0.0129 -0.0119
   88SOPE   O11 8260   0.603   2.769   3.435  0.2995  0.3333  0.6105
   88SOPE    C1 8261   0.719   2.777   3.527 -0.0093  0.0861  0.2440
   88SOPE    HA 8262   0.806   2.791   3.460  0.3237  0.8459  0.8241
   88SOPE    HB 8263   0.723   2.684   3.587  0.9659  0.1774  0.3311
   88SOPE    C2 8264   0.703   2.888   3.632 -0.0911 -0.4450 -0.4101
   88SOPE    HS 8265   0.806   2.908   3.670  0.0795 -0.5440 -0.8189
   88SOPE   O21 8266   0.611   2.847   3.731 -0.1658  0.0253  0.5390
   88SOPE   C21 8267   0.663   2.774   3.828  0.0698 -0.0507  0.3524
   88SOPE   O22 8268   0.779   2.736   3.839  0.2256  0.0905 -0.0614
   88SOPE   C22 8269   0.550   2.733   3.920 -0.3017  0.0780  0.6141
   88SOPE   H2R 8270   0.501   2.646   3.871 -1.1465  1.0612 -0.3449
   88SOPE   H2S 8271   0.471   2.810   3.914 -0.4084 -0.1066 -0.7425
   88SOPE    C3 8272   0.650   3.014   3.568 -0.7002  0.6913 -0.0929
   88SOPE    HX 8273   0.555   2.997   3.514  1.3573  0.2376 -3.9368
   88SOPE    HY 8274   0.728   3.051   3.497 -1.5870 -1.2324 -2.1760
   88SOPE   O31 8275   0.640   3.114   3.667 -0.4069 -0.3485  0.7308
   88SOPE   C31 8276   0.728   3.213   3.682 -0.8711 -0.2754  0.8857
   88SOPE   O32 8277   0.830   3.222   3.613  0.1424 -0.0657  0.0511
   88SOPE   C32 8278   0.705   3.291   3.810  0.9535 -0.1045 -0.1061
   88SOPE   H2X 8279   0.604   3.336   3.808  1.2490  0.7039  1.5672
   88SOPE   H2Y 8280   0.780   3.372   3.830 -0.8785  1.4402  0.8359
   88SOPE   C23 8281   0.599   2.694   4.069  0.0431 -0.7166  0.1327
   88SOPE   H3R 8282   0.535   2.733   4.151 -0.0686  1.2571 -0.8181
   88SOPE   H3S 8283   0.698   2.744   4.084 -0.9614  1.0805  1.1655
   88SOPE   C24 8284   0.620   2.548   4.085 -0.5654  0.4754  0.0198
   88SOPE   H4R 8285   0.524   2.493   4.071  0.1505 -0.7528 -0.1778
   88SOPE   H4S 8286   0.674   2.496   4.003  0.9868  0.6209  0.9165
   88SOPE   C25 8287   0.690   2.515   4.216 -0.2597 -0.1330 -1.2418
   88SOPE   H5R 8288   0.790   2.564   4.217  0.3175 -1.1569  1.4849
   88SOPE   H5S 8289   0.635   2.565   4.299  0.8267 -0.5465 -0.2268
   88SOPE   C26 8290   0.698   2.364   4.253  0.4766 -0.7042 -0.4910
   88SOPE   H6R 8291   0.605   2.303   4.245  1.7696 -3.3261  2.5616
   88SOPE   H6S 8292   0.764   2.325   4.172  0.5140  0.2217 -0.9299
   88SOPE   C27 8293   0.753   2.352   4.393 -0.1516 -0.0650  0.1496
   88SOPE   H7R 8294   0.806   2.256   4.410 -0.8963 -0.3737  0.8027
   88SOPE   H7S 8295   0.824   2.437   4.404  3.0593 -2.2481 -1.8025
   88SOPE   C28 8296   0.650   2.370   4.509  0.6332 -0.2169 -0.1419
   88SOPE   H8R 8297   0.709   2.332   4.596  2.1548  1.8810 -0.1737
   88SOPE   H8S 8298   0.640   2.480   4.521  1.1004 -0.0806 -0.9289
   88SOPE   C29 8299   0.518   2.291   4.491  0.1149 -0.0367  0.0473
   88SOPE   H91 8300   0.517   2.223   4.404  2.8534  1.0747 -0.9540
   88SOPE  C210 8301   0.426   2.275   4.587 -0.1775 -0.3733  0.4984
   88SOPE  H101 8302   0.337   2.213   4.568  1.2320 -1.9254 -1.5258
   88SOPE  C211 8303   0.423   2.327   4.723 -0.2252 -0.5704  0.4386
   88SOPE  H11R 8304   0.507   2.398   4.732  0.3285 -1.1410 -0.1429
   88SOPE  H11S 8305   0.448   2.243   4.791  1.7685 -0.9106 -0.6465
   88SOPE  C212 8306   0.297   2.392   4.786 -0.6709 -0.0026 -0.3228
   88SOPE  H12R 8307   0.207   2.334   4.757 -1.8025  2.5972 -2.5886
   88SOPE  H12S 8308   0.278   2.491   4.739  3.5599  1.6774  1.0389
   88SOPE  C213 8309   0.311   2.413   4.940 -0.0066  0.3690  0.2183
   88SOPE  H13R 8310   0.221   2.466   4.977 -0.7242 -0.9120  0.3670
   88SOPE  H13S 8311   0.401   2.475   4.960 -0.5440  0.9312  0.9190
   88SOPE  C214 8312   0.322   2.287   5.031 -0.0601  0.0209 -0.0037
   88SOPE  H14R 8313   0.418   2.244   4.996  1.9481  5.1491 -1.8662
   88SOPE  H14S 8314   0.230   2.227   5.018 -0.9237  0.9259  1.5495
   88SOPE  C215 8315   0.340   2.322   5.180  0.4271 -0.0735 -0.1314
   88SOPE  H15R 8316   0.240   2.358   5.211 -0.0730 -1.0371 -0.5893
   88SOPE  H15S 8317   0.413   2.402   5.202  0.5955  0.0757 -1.1790
   88SOPE  C216 8318   0.369   2.196   5.258 -0.2003  0.0410  0.7615
   88SOPE  H16R 8319   0.477   2.203   5.283  0.0129  2.4157 -0.5926
   88SOPE  H16S 8320   0.357   2.103   5.199  1.0456 -0.9021  1.9109
   88SOPE  C217 8321   0.281   2.184   5.385  0.5407 -0.9189  0.3598
   88SOPE  H17R 8322   0.281   2.278   5.445  1.3503 -0.9300  0.3919
   88SOPE  H17S 8323   0.317   2.122   5.470 -2.3224  2.7245  4.7491
   88SOPE  C218 8324   0.130   2.155   5.356  0.3935  0.2722 -0.0297
   88SOPE  H18R 8325   0.072   2.134   5.449  1.0485 -1.1649  0.0637
   88SOPE  H18S 8326   0.114   2.065   5.294 -1.2607 -1.2748  2.4383
   88SOPE  H18T 8327   0.073   2.237   5.306 -0.1643 -0.0001  0.1480
   88SOPE   C33 8328   0.715   3.203   3.931 -0.1841 -0.1627 -1.0806
   88SOPE   H3X 8329   0.655   3.109   3.927 -1.4145  0.6284 -1.9552
   88SOPE   H3Y 8330   0.651   3.253   4.007  1.2741  1.0042 -0.5877
   88SOPE   C34 8331   0.859   3.176   3.992 -0.3853 -0.1467  0.2273
   88SOPE   H4X 8332   0.912   3.272   4.011 -1.1712  0.4223 -0.3718
   88SOPE   H4Y 8333   0.923   3.116   3.924 -0.7512  0.8308 -1.0290
   88SOPE   C35 8334   0.865   3.103   4.127 -0.2521 -0.2650  0.0234
   88SOPE   H5X 8335   0.795   3.017   4.126 -0.9632  0.3162 -0.4123
   88SOPE   H5Y 8336   0.830   3.173   4.205 -0.5638 -2.5116  1.9954
   88SOPE   C36 8337   1.003   3.047   4.165 -0.0008 -0.2251  0.4684
   88SOPE   H6X 8338   1.072   3.134   4.158  1.9412 -1.7155  0.3668
   88SOPE   H6Y 8339   1.028   2.984   4.077 -0.6551  1.7718 -1.2183
   88SOPE   C37 8340   1.000   2.979   4.299 -0.2984 -0.3297  0.4881
   88SOPE   H7X 8341   1.035   3.055   4.372 -0.2303 -1.4296  1.6414
   88SOPE   H7Y 8342   1.083   2.905   4.304  1.8796  1.6433 -2.9726
   88SOPE   C38 8343   0.864   2.906   4.346 -0.5040  0.8441 -0.3457
   88SOPE   H8X 8344   0.832   2.828   4.274  2.0478 -0.2129 -0.4466
   88SOPE   H8Y 8345   0.782   2.980   4.358  0.2414  1.2107  3.6815
   88SOPE   C39 8346   0.878   2.839   4.489  0.1475  0.0076  0.1793
   88SOPE   H9X 8347   0.775   2.799   4.506 -0.4991  1.9160  1.0513
   88SOPE   H9Y 8348   0.892   2.926   4.556  0.5655  0.6274 -0.6969
   88SOPE  C310 8349   0.985   2.735   4.512  0.3496  1.0345  0.3920
   88SOPE  H10X 8350   1.091   2.767   4.502  1.6989 -2.4681  1.8189
   88SOPE  H10Y 8351   0.982   2.662   4.428 -3.2164  2.0169 -0.5064
   88SOPE  C311 8352   0.975   2.667   4.647 -0.8015  0.8440 -0.1657
   88SOPE  H11X 8353   0.876   2.616   4.650  0.2917 -1.3368  0.6404
   88SOPE  H11Y 8354   0.985   2.728   4.740  1.0724 -3.3037  2.6483
   88SOPE  C312 8355   1.090   2.559   4.668  0.3798 -0.6686 -0.3581
   88SOPE  H12X 8356   1.182   2.619   4.654 -0.2170  0.4295  0.2969
   88SOPE  H12Y 8357   1.076   2.487   4.584 -0.3366 -0.5668 -0.3346
   88SOPE  C313 8358   1.097   2.497   4.809  0.6496  0.1080 -0.1488
   88SOPE  H13X 8359   1.049   2.570   4.877  1.8784  0.4123  0.4186
   88SOPE  H13Y 8360   1.204   2.499   4.841  0.0760  0.1845  1.8505
   88SOPE  C314 8361   1.060   2.349   4.827  0.0457 -0.0790 -0.4325
   88SOPE  H14X 8362   1.069   2.312   4.932  0.4094 -1.6236 -0.9743
   88SOPE  H14Y 8363   1.126   2.297   4.755  1.1669  1.8643 -0.8740
   88SOPE  C315 8364   0.919   2.323   4.786 -0.5028 -0.3212 -0.0787
   88SOPE  H15X 8365   0.924   2.328   4.675 -0.6433 -2.0863 -0.1894
   88SOPE  H15Y 8366   0.839   2.389   4.824 -1.3701 -0.2544 -1.9016
   88SOPE  C316 8367   0.873   2.178   4.809 -0.5483  0.8813 -0.4860
   88SOPE  H16X 8368   0.940   2.110   4.752 -0.8673  1.6670 -1.8620
   88SOPE  H16Y 8369   0.772   2.162   4.766  0.8256  0.0437 -3.6677
   88SOPE  C317 8370   0.854   2.128   4.953  0.0626  0.8989 -0.7003
   88SOPE  H17X 8371   0.947   2.143   5.013  0.7529 -2.7677 -0.6120
   88SOPE  H17Y 8372   0.838   2.018   4.945  3.6686  0.2421 -0.6859
   88SOPE  C318 8373   0.734   2.197   5.018 -0.5202  0.6043 -0.4301
   88SOPE  H18X 8374   0.641   2.163   4.967  0.0042 -2.7142  0.5648
   88SOPE  H18Y 8375   0.736   2.308   5.023  0.0435  0.7417 -2.6178
   88SOPE  H18Z 8376   0.720   2.167   5.124 -0.2860  1.7736 -0.0590
   89SAPC     N 8377   4.806   1.371   7.779  0.6412  0.1321  0.4369
   89SAPC   C12 8378   4.907   1.319   7.678 -0.1473 -0.1680  0.0847
   89SAPC  H12A 8379   4.963   1.242   7.727  0.2221  0.0385 -0.0095
   89SAPC  H12B 8380   4.968   1.403   7.647 -1.4833 -0.1670 -2.9870
   89SAPC   C13 8381   4.720   1.478   7.714  0.2443 -0.1930  0.3542
   89SAPC  H13A 8382   4.661   1.441   7.632  1.2624 -3.6363  1.0323
   89SAPC  H13B 8383   4.642   1.518   7.777 -0.1117 -0.6535  0.2109
   89SAPC  H13C 8384   4.784   1.553   7.669  2.7922 -1.4977  1.5786
   89SAPC   C14 8385   4.722   1.257   7.815  0.9156  1.0030 -0.2948
   89SAPC  H14A 8386   4.656   1.282   7.896  3.0896  2.2612  1.2094
   89SAPC  H14B 8387   4.673   1.233   7.722  1.6430 -0.7413 -0.2693
   89SAPC  H14C 8388   4.780   1.170   7.841 -0.8590 -0.4211 -0.9172
   89SAPC   C15 8389   4.878   1.424   7.900 -0.0101  0.3186  0.1724
   89SAPC  H15A 8390   4.937   1.509   7.867 -0.5780 -0.0703 -2.0306
   89SAPC  H15B 8391   4.812   1.457   7.978  0.5620  1.5895  0.1612
   89SAPC  H15C 8392   4.962   1.363   7.928  0.8669  0.3312 -2.1408
   89SAPC   C11 8393   4.851   1.267   7.544 -0.3393  0.3637 -0.7322
   89SAPC  H11A 8394   4.935   1.247   7.474 -0.8996 -1.9194 -0.8401
   89SAPC  H11B 8395   4.784   1.344   7.499  0.4207  1.6435  0.2734
   89SAPC     P 8396   4.819   1.005   7.562  0.4845  0.2957 -0.1662
   89SAPC   O13 8397   4.956   0.997   7.617  0.5011 -0.2363  0.7882
   89SAPC   O14 8398   4.725   0.917   7.637  0.2497  0.4705 -0.0986
   89SAPC   O12 8399   4.763   1.152   7.563 -0.0705 -0.1687 -0.1505
   89SAPC   O11 8400   4.810   0.986   7.404  0.1936  0.0321  0.2091
   89SAPC    C1 8401   4.683   0.957   7.344  0.4448 -0.8121 -0.1562
   89SAPC    HA 8402   4.624   0.914   7.428  0.7955  0.6265  0.8706
   89SAPC    HB 8403   4.646   1.057   7.312  1.2461 -0.5617 -0.3146
   89SAPC    C2 8404   4.693   0.867   7.225  0.1641 -0.3208  0.0835
   89SAPC    HS 8405   4.764   0.788   7.259 -0.1410  0.1491  1.9268
   89SAPC   O21 8406   4.740   0.938   7.110  0.2640 -0.1285 -0.0950
   89SAPC   C21 8407   4.834   0.884   7.039  0.2012  0.0746 -0.3596
   89SAPC   O22 8408   4.878   0.770   7.064  0.4981  0.6668  0.2066
   89SAPC   C22 8409   4.872   0.976   6.931 -0.1173  0.2723  1.2308
   89SAPC   H2R 8410   4.904   1.073   6.975 -0.7242  0.7012  0.7482
   89SAPC   H2S 8411   4.946   0.934   6.859 -2.5637  1.9053 -2.6053
   89SAPC    C3 8412   4.561   0.796   7.184  0.4859  0.0904  0.4146
   89SAPC    HX 8413   4.481   0.869   7.158 -0.9065 -1.4317  0.2234
   89SAPC    HY 8414   4.514   0.757   7.277 -3.8976  3.9088  0.1431
   89SAPC   O31 8415   4.571   0.692   7.085  0.1827 -0.5012  0.0456
   89SAPC   C31 8416   4.627   0.578   7.123  0.0470 -0.0758 -0.9054
   89SAPC   O32 8417   4.650   0.548   7.243  0.6705  0.4753  0.1785
   89SAPC   C32 8418   4.667   0.487   7.011  0.5862 -0.6071 -0.0698
   89SAPC   H2X 8419   4.768   0.440   7.022  1.2138  0.8376  0.5808
   89SAPC   H2Y 8420   4.672   0.553   6.921  0.3060  1.2588  1.2223
   89SAPC   C23 8421   4.749   1.005   6.841 -0.3222  0.3763  0.4065
   89SAPC   H3R 8422   4.780   1.070   6.756  2.0505  0.2166  1.0716
   89SAPC   H3S 8423   4.682   1.062   6.909  1.0730  0.5916  1.6487
   89SAPC   C24 8424   4.674   0.881   6.793  0.1521  0.3036 -0.8485
   89SAPC   H4R 8425   4.590   0.917   6.730  0.7527 -0.3188 -2.0400
   89SAPC   H4S 8426   4.625   0.838   6.882  0.6715  3.0857  0.9136
   89SAPC   C25 8427   4.757   0.792   6.707 -0.3945  0.2678  0.0955
   89SAPC   H5R 8428   4.859   0.784   6.746 -0.3187 -1.2201 -0.3180
   89SAPC   C26 8429   4.726   0.744   6.581 -0.6014 -0.5348 -0.5214
   89SAPC   H6R 8430   4.813   0.693   6.536  0.6147 -0.5485  1.6981
   89SAPC   C27 8431   4.590   0.764   6.511  0.0390 -0.4010 -0.3269
   89SAPC   H7R 8432   4.519   0.765   6.596 -1.8217 -0.3980 -1.8148
   89SAPC   H7S 8433   4.558   0.677   6.450  1.5546 -1.7845  0.7661
   89SAPC   C28 8434   4.574   0.896   6.439  0.4093  0.6795 -0.4458
   89SAPC   H8R 8435   4.641   0.970   6.486  1.8544 -0.4649 -0.5984
   89SAPC   C29 8436   4.494   0.927   6.338  0.0887  0.1300  0.1609
   89SAPC   H9R 8437   4.506   1.015   6.273 -0.8784 -0.5099 -0.9364
   89SAPC  C210 8438   4.395   0.838   6.269 -0.1720  0.8288  0.0143
   89SAPC  H10R 8439   4.318   0.910   6.235  2.0580  1.1693 -5.2564
   89SAPC  H10S 8440   4.343   0.768   6.338  1.5990  0.6378  1.1981
   89SAPC  C211 8441   4.458   0.766   6.154  0.4045 -0.4621 -0.1746
   89SAPC  H11R 8442   4.527   0.685   6.181 -0.2891 -0.6887  0.9859
   89SAPC  C212 8443   4.417   0.783   6.030  0.1821 -0.3516  0.5102
   89SAPC  H12R 8444   4.471   0.730   5.949  2.9632  0.7347  1.5437
   89SAPC  C213 8445   4.318   0.882   5.982  0.0927 -0.5177  0.5672
   89SAPC  H13R 8446   4.288   0.960   6.055 -0.6844  0.7557 -1.0760
   89SAPC  H13S 8447   4.230   0.820   5.955 -0.7018  0.6276  0.4663
   89SAPC  C214 8448   4.362   0.947   5.856  0.5546  0.0424  0.5057
   89SAPC  H14R 8449   4.468   0.945   5.826  0.8988  1.6139  1.5017
   89SAPC  C215 8450   4.279   1.004   5.776  0.0105  0.4810  0.0411
   89SAPC  H15R 8451   4.309   1.056   5.683 -1.9090 -0.4314 -1.1508
   89SAPC  C216 8452   4.133   1.009   5.789  0.1116 -0.1864  0.2483
   89SAPC  H16R 8453   4.114   0.983   5.895  1.6131  0.6247  0.7482
   89SAPC  H16S 8454   4.085   0.928   5.731 -0.9802 -0.6358  1.7132
   89SAPC  C217 8455   4.051   1.136   5.767  0.7992 -0.2684  0.1956
   89SAPC  H17R 8456   4.118   1.218   5.801 -0.1612  0.2368  0.9473
   89SAPC  H17S 8457   3.964   1.147   5.835 -0.2525 -1.3831 -0.9121
   89SAPC  C218 8458   4.018   1.156   5.619  0.4523 -0.2771 -0.7700
   89SAPC  H18R 8459   4.114   1.156   5.564 -1.0809  1.8973 -3.6846
   89SAPC  H18S 8460   3.968   1.254   5.604 -0.1843 -0.1328  1.7625
   89SAPC  C219 8461   3.913   1.059   5.554  0.1718  0.0683  0.1810
   89SAPC  H19R 8462   3.972   0.967   5.534  3.1187  2.0062 -0.7391
   89SAPC  H19S 8463   3.890   1.087   5.449  0.9574  0.2703  0.0517
   89SAPC  C220 8464   3.791   1.026   5.639 -0.4971  0.0671 -0.4417
   89SAPC  H20R 8465   3.725   0.950   5.591  1.6858 -1.6572 -0.8559
   89SAPC  H20S 8466   3.733   1.118   5.662  0.5996  0.8348 -0.7009
   89SAPC  H20T 8467   3.826   0.985   5.736 -0.2743  1.1399 -0.0517
   89SAPC   C33 8468   4.574   0.363   7.000 -0.3875 -0.0387 -0.5458
   89SAPC   H3X 8469   4.474   0.394   6.966 -0.3414 -1.0630 -1.6906
   89SAPC   H3Y 8470   4.564   0.318   7.101 -0.4811 -0.2238 -0.6366
   89SAPC   C34 8471   4.632   0.258   6.905 -0.2509 -0.5087 -0.3377
   89SAPC   H4X 8472   4.573   0.165   6.920 -0.0404 -0.5634  0.1698
   89SAPC   H4Y 8473   4.729   0.229   6.951 -0.6755 -0.4301  0.6344
   89SAPC   C35 8474   4.641   0.300   6.762 -1.0073  0.1539  0.0955
   89SAPC   H5X 8475   4.723   0.374   6.751 -2.0460  1.3168 -0.1328
   89SAPC   H5Y 8476   4.548   0.352   6.728 -0.4644  0.0832 -1.5951
   89SAPC   C36 8477   4.681   0.181   6.675 -0.1739 -0.1100 -0.1471
   89SAPC   H6X 8478   4.610   0.096   6.678 -1.5477  1.0143  0.3261
   89SAPC   H6Y 8479   4.767   0.126   6.720 -0.8699 -0.1679  1.1734
   89SAPC   C37 8480   4.724   0.215   6.534  0.2680 -0.4899  0.4531
   89SAPC   H7X 8481   4.816   0.276   6.531 -0.7251  1.0484 -0.8447
   89SAPC   H7Y 8482   4.640   0.278   6.495  1.7761  0.8056 -0.8459
   89SAPC   C38 8483   4.751   0.087   6.450  0.2209  0.5110 -0.3356
   89SAPC   H8X 8484   4.665   0.016   6.448 -0.3001  1.1514 -0.9981
   89SAPC   H8Y 8485   4.839   0.032   6.490  1.3581  2.4937 -0.0032
   89SAPC   C39 8486   4.767   0.116   6.303 -0.1842 -0.4115  0.0354
   89SAPC   H9X 8487   4.815   0.027   6.257  2.0838  0.6951  0.1660
   89SAPC   H9Y 8488   4.838   0.201   6.299  1.3766 -1.7085 -0.5190
   89SAPC  C310 8489   4.639   0.151   6.235  0.6753 -0.0009  0.2120
   89SAPC  H10X 8490   4.605   0.253   6.265  0.1978 -0.0536 -0.1348
   89SAPC  H10Y 8491   4.554   0.090   6.273  0.6108 -2.3196 -3.1650
   89SAPC  C311 8492   4.651   0.147   6.088 -0.7999  0.3231  0.4818
   89SAPC  H11X 8493   4.556   0.157   6.031 -0.1300 -2.4789 -1.3052
   89SAPC  H11Y 8494   4.681   0.042   6.069  0.1256  0.5115  0.8614
   89SAPC  C312 8495   4.762   0.239   6.032 -0.6152  0.1088  0.1365
   89SAPC  H12X 8496   4.855   0.179   6.021 -1.4896 -1.4219  0.7381
   89SAPC  H12Y 8497   4.775   0.333   6.090  1.4100 -0.6525  1.0424
   89SAPC  C313 8498   4.733   0.283   5.889 -0.1964 -0.1805 -0.2742
   89SAPC  H13X 8499   4.715   0.191   5.829 -0.4644 -0.4172  0.1690
   89SAPC  H13Y 8500   4.819   0.325   5.831  0.7587 -2.1795 -0.3874
   89SAPC  C314 8501   4.611   0.382   5.883  0.8628  0.2604 -0.5496
   89SAPC  H14X 8502   4.650   0.475   5.930 -1.0297  0.7336  0.1789
   89SAPC  H14Y 8503   4.524   0.349   5.945 -0.6519  3.0935 -0.9812
   89SAPC  C315 8504   4.553   0.407   5.748 -0.4375 -0.1576 -0.6617
   89SAPC  H15X 8505   4.489   0.324   5.713 -0.0077 -0.6722 -0.2537
   89SAPC  H15Y 8506   4.626   0.412   5.664 -0.2839 -1.2527 -0.6024
   89SAPC  C316 8507   4.465   0.533   5.748 -0.3287  0.3655  0.0388
   89SAPC  H16X 8508   4.526   0.626   5.750  1.6227 -0.8121 -1.4228
   89SAPC  H16Y 8509   4.399   0.536   5.837  2.5530  1.0713  2.2802
   89SAPC  C317 8510   4.381   0.520   5.627  0.0174  0.1658  0.2335
   89SAPC  H17X 8511   4.325   0.425   5.634  1.0463 -0.5800 -1.1617
   89SAPC  H17Y 8512   4.443   0.503   5.536  1.5402 -1.0243  1.4442
   89SAPC  C318 8513   4.286   0.639   5.608  0.4239 -1.1687  0.6066
   89SAPC  H18X 8514   4.339   0.734   5.587 -3.7339  1.7934  2.0413
   89SAPC  H18Y 8515   4.217   0.647   5.695 -1.4188 -0.8830 -0.7995
   89SAPC  H18Z 8516   4.214   0.624   5.524  1.3668  0.8960 -0.6551
   90SAPC     N 8517   3.717   3.776   7.699  0.0219 -0.1659 -0.0354
   90SAPC   C12 8518   3.652   3.802   7.560 -0.2357 -0.0958  0.9455
   90SAPC  H12A 8519   3.659   3.909   7.548 -0.2418 -0.2322 -0.3265
   90SAPC  H12B 8520   3.551   3.762   7.559  0.9341 -3.3448  0.0609
   90SAPC   C13 8521   3.848   3.849   7.715 -0.5451  0.2923 -0.2909
   90SAPC  H13A 8522   3.921   3.817   7.642  0.7692  0.8397  0.7383
   90SAPC  H13B 8523   3.841   3.955   7.697  2.4336  0.3460 -1.6327
   90SAPC  H13C 8524   3.883   3.841   7.817 -2.0722  1.6114  0.3936
   90SAPC   C14 8525   3.618   3.834   7.804 -0.2428  1.7489  0.2756
   90SAPC  H14A 8526   3.654   3.803   7.901  0.1186 -3.3637 -1.1832
   90SAPC  H14B 8527   3.611   3.941   7.789 -0.1890  1.8102  0.6719
   90SAPC  H14C 8528   3.523   3.783   7.800  0.9798 -0.5930 -2.3369
   90SAPC   C15 8529   3.734   3.630   7.728 -0.4786  0.0585  0.6650
   90SAPC  H15A 8530   3.829   3.594   7.693 -0.2744  0.0586  1.2103
   90SAPC  H15B 8531   3.736   3.620   7.836  0.4430 -0.3919  0.6132
   90SAPC  H15C 8532   3.663   3.565   7.679  0.2415 -0.4195  0.2435
   90SAPC   C11 8533   3.721   3.734   7.432  1.4835 -0.0305  0.0476
   90SAPC  H11A 8534   3.671   3.724   7.334  1.0133  0.9080  0.1848
   90SAPC  H11B 8535   3.743   3.630   7.464  1.7124  0.1977  0.6517
   90SAPC     P 8536   3.860   3.950   7.368 -0.2521 -0.0833 -0.0055
   90SAPC   O13 8537   3.722   4.004   7.345 -0.1458 -0.0296  0.6793
   90SAPC   O14 8538   3.952   4.026   7.457 -0.4005  0.6278  0.5926
   90SAPC   O12 8539   3.849   3.799   7.414  0.0312  0.3665 -0.4021
   90SAPC   O11 8540   3.924   3.946   7.225 -0.4747 -0.1162 -0.0029
   90SAPC    C1 8541   3.873   3.855   7.125  0.2027  0.0572 -0.3338
   90SAPC    HA 8542   3.902   3.750   7.147 -1.1635  0.0942  1.9411
   90SAPC    HB 8543   3.762   3.865   7.119  0.0669 -1.4308 -0.7208
   90SAPC    C2 8544   3.949   3.887   6.991 -0.8739  0.3961  0.3793
   90SAPC    HS 8545   3.904   3.985   6.968 -0.5852  1.3040  3.2339
   90SAPC   O21 8546   3.932   3.783   6.891  0.5514  0.0771  0.0139
   90SAPC   C21 8547   3.811   3.784   6.827 -0.7768  0.7295 -0.2995
   90SAPC   O22 8548   3.732   3.874   6.836  0.0013  0.0248  0.2290
   90SAPC   C22 8549   3.784   3.638   6.759 -0.5092 -0.3778  0.7782
   90SAPC   H2R 8550   3.875   3.596   6.712 -0.3481  1.1780 -0.3621
   90SAPC   H2S 8551   3.749   3.574   6.843  0.6616 -1.2899  0.5870
   90SAPC    C3 8552   4.101   3.929   6.994 -0.0351  0.2014 -0.0205
   90SAPC    HX 8553   4.157   3.846   7.044 -1.7927 -0.6412  0.6300
   90SAPC    HY 8554   4.119   4.011   7.067  0.8295 -0.8419  0.9817
   90SAPC   O31 8555   4.168   3.951   6.872 -0.4923 -0.1223  0.2025
   90SAPC   C31 8556   4.286   4.021   6.865  0.6294  0.7027 -0.6806
   90SAPC   O32 8557   4.350   4.046   6.965 -0.8862  0.0609  0.4709
   90SAPC   C32 8558   4.334   4.050   6.725 -1.1886  0.2410 -0.2099
   90SAPC   H2X 8559   4.364   3.959   6.669  1.3258  0.8256  0.0659
   90SAPC   H2Y 8560   4.424   4.116   6.728 -0.4526 -0.7363 -0.1016
   90SAPC   C23 8561   3.677   3.645   6.641 -0.5203  0.6631 -0.3137
   90SAPC   H3R 8562   3.719   3.715   6.565  1.1515  0.0058 -0.0343
   90SAPC   H3S 8563   3.574   3.664   6.678 -0.7248  0.6824 -0.8764
   90SAPC   C24 8564   3.659   3.511   6.557 -1.0906  0.0805 -0.3998
   90SAPC   H4R 8565   3.571   3.523   6.490 -0.4877  1.8361 -0.9305
   90SAPC   H4S 8566   3.624   3.424   6.617  1.2098 -1.2290 -0.8189
   90SAPC   C25 8567   3.785   3.457   6.478  0.6759 -0.3509 -1.1144
   90SAPC   H5R 8568   3.869   3.430   6.544 -0.5256 -1.0001  0.1974
   90SAPC   C26 8569   3.802   3.431   6.346 -0.5410 -0.3935 -0.7637
   90SAPC   H6R 8570   3.904   3.398   6.321 -0.1818  0.9833 -1.2218
   90SAPC   C27 8571   3.696   3.442   6.236 -0.2874  0.6954 -0.2028
   90SAPC   H7R 8572   3.718   3.525   6.165 -5.9300  0.0013 -3.3365
   90SAPC   H7S 8573   3.597   3.468   6.279  0.2559  0.6399  1.1342
   90SAPC   C28 8574   3.675   3.312   6.161 -0.3940 -0.5776 -0.1846
   90SAPC   H8R 8575   3.625   3.229   6.214 -1.6055  0.3632  0.1943
   90SAPC   C29 8576   3.714   3.295   6.032  0.1232 -0.0627  0.1502
   90SAPC   H9R 8577   3.690   3.199   5.984 -1.3731 -0.1071  0.9367
   90SAPC  C210 8578   3.751   3.400   5.931  0.3853 -0.6155  0.3567
   90SAPC  H10R 8579   3.817   3.479   5.974 -0.0327  0.1307 -0.3713
   90SAPC  H10S 8580   3.656   3.451   5.908 -0.4024 -1.2331  2.0418
   90SAPC  C211 8581   3.826   3.346   5.816  0.2138  0.8555  0.2608
   90SAPC  H11R 8582   3.936   3.353   5.814  0.2482  0.9353  1.6373
   90SAPC  C212 8583   3.772   3.311   5.696 -0.3391  0.1934 -0.1187
   90SAPC  H12R 8584   3.840   3.261   5.626 -0.8623 -0.1973 -0.3591
   90SAPC  C213 8585   3.628   3.302   5.651  0.2027 -0.6812  0.1507
   90SAPC  H13R 8586   3.556   3.282   5.733  0.9831  0.4616  1.1412
   90SAPC  H13S 8587   3.614   3.218   5.580  0.0984 -0.9085  0.4398
   90SAPC  C214 8588   3.578   3.427   5.582  0.1508 -0.3301  0.4707
   90SAPC  H14R 8589   3.536   3.500   5.652  1.3727 -0.5077  1.4319
   90SAPC  C215 8590   3.580   3.451   5.457  0.8750 -0.5976  0.4284
   90SAPC  H15R 8591   3.552   3.551   5.422  1.8440 -0.9229 -1.4644
   90SAPC  C216 8592   3.608   3.358   5.342 -0.1759  0.6818 -0.3005
   90SAPC  H16R 8593   3.528   3.359   5.265 -1.1633  0.2062  0.6925
   90SAPC  H16S 8594   3.618   3.250   5.368  2.5788  1.4174  2.2720
   90SAPC  C217 8595   3.745   3.383   5.276  0.4927 -0.0133  0.2369
   90SAPC  H17R 8596   3.836   3.375   5.339  1.1833  0.5723 -0.6636
   90SAPC  H17S 8597   3.744   3.490   5.245 -1.6238 -0.1227 -0.2236
   90SAPC  C218 8598   3.772   3.290   5.154 -0.3618 -0.0366 -0.2643
   90SAPC  H18R 8599   3.698   3.315   5.075 -0.0187  1.2029 -0.2261
   90SAPC  H18S 8600   3.764   3.183   5.181  1.4577  0.1183  1.0870
   90SAPC  C219 8601   3.911   3.301   5.095 -0.5349  0.3798 -0.9937
   90SAPC  H19R 8602   3.984   3.289   5.177  0.2839 -0.9923 -1.8865
   90SAPC  H19S 8603   3.929   3.400   5.047  1.2200  1.4058  1.5522
   90SAPC  C220 8604   3.949   3.201   4.995 -0.5388 -0.4231  0.8692
   90SAPC  H20R 8605   3.904   3.231   4.898  1.2132  0.0329  0.1574
   90SAPC  H20S 8606   3.910   3.098   5.012  1.3286 -1.2640  0.3261
   90SAPC  H20T 8607   4.058   3.192   4.976 -1.0713 -1.1469 -2.5120
   90SAPC   C33 8608   4.236   4.133   6.632 -0.7437 -0.2928  0.1030
   90SAPC   H3X 8609   4.224   4.238   6.667  0.0354  0.0286 -0.5669
   90SAPC   H3Y 8610   4.133   4.094   6.652 -0.9213  0.9067  1.7712
   90SAPC   C34 8611   4.280   4.114   6.492 -0.0743  0.0716  0.5025
   90SAPC   H4X 8612   4.291   4.005   6.472  1.6004  0.5614 -1.5701
   90SAPC   H4Y 8613   4.383   4.154   6.483  0.1036 -0.0553  1.7571
   90SAPC   C35 8614   4.170   4.166   6.398  0.2164  0.2782  0.5403
   90SAPC   H5X 8615   4.148   4.266   6.442  2.4803 -0.7316  4.4242
   90SAPC   H5Y 8616   4.074   4.110   6.409 -0.4799  1.2063 -0.5991
   90SAPC   C36 8617   4.212   4.167   6.253  0.2392 -0.4472  0.3097
   90SAPC   H6X 8618   4.225   4.061   6.222 -2.7898 -0.1250 -2.5986
   90SAPC   H6Y 8619   4.312   4.214   6.243  0.3563 -0.6901  0.3246
   90SAPC   C37 8620   4.112   4.246   6.163 -0.0734 -0.4002 -0.0181
   90SAPC   H7X 8621   4.089   4.342   6.214  0.7942 -0.2525  0.0996
   90SAPC   H7Y 8622   4.019   4.184   6.161 -1.6813  1.8529  0.5534
   90SAPC   C38 8623   4.169   4.284   6.020  0.2780 -0.4435 -0.5662
   90SAPC   H8X 8624   4.220   4.193   5.981  3.5263  0.2219  1.7085
   90SAPC   H8Y 8625   4.246   4.361   6.045  0.8817 -1.3592  0.4925
   90SAPC   C39 8626   4.073   4.360   5.923  0.0064  0.3521  0.2804
   90SAPC   H9X 8627   4.129   4.400   5.835  0.1594 -1.2302 -0.3681
   90SAPC   H9Y 8628   4.045   4.449   5.983  1.0755  0.4239  0.6897
   90SAPC  C310 8629   3.964   4.268   5.858  0.1723 -0.2077  1.0729
   90SAPC  H10X 8630   3.886   4.246   5.933 -4.0026  3.7697 -1.5948
   90SAPC  H10Y 8631   4.013   4.178   5.816  1.9411  1.4697 -0.6982
   90SAPC  C311 8632   3.880   4.346   5.752  0.3122  1.1084  0.4476
   90SAPC  H11X 8633   3.954   4.386   5.680  1.5803  1.3670  1.8448
   90SAPC  H11Y 8634   3.828   4.432   5.799 -0.1223  1.3975 -0.5378
   90SAPC  C312 8635   3.788   4.253   5.668 -0.1825 -0.0330  0.5972
   90SAPC  H12X 8636   3.726   4.199   5.743 -1.1827 -0.0304 -0.2026
   90SAPC  H12Y 8637   3.844   4.174   5.614 -0.4537  0.7276 -0.8581
   90SAPC  C313 8638   3.682   4.331   5.586 -0.0925 -0.0535  0.3034
   90SAPC  H13X 8639   3.645   4.418   5.644  0.1932  0.3016 -0.0368
   90SAPC  H13Y 8640   3.592   4.266   5.580 -0.2299 -0.0581  1.9236
   90SAPC  C314 8641   3.737   4.380   5.454 -0.1015 -0.1251  0.1346
   90SAPC  H14X 8642   3.734   4.289   5.391 -0.9749  0.4139 -0.6208
   90SAPC  H14Y 8643   3.841   4.418   5.462  0.3188 -1.3756  0.8612
   90SAPC  C315 8644   3.647   4.490   5.378  0.2222 -0.6615 -0.1971
   90SAPC  H15X 8645   3.636   4.583   5.438 -0.8856 -0.1837 -1.0991
   90SAPC  H15Y 8646   3.541   4.457   5.371  0.0295 -0.1331  0.1733
   90SAPC  C316 8647   3.698   4.522   5.237 -0.6729  0.5828 -0.5358
   90SAPC  H16X 8648   3.725   4.424   5.190  0.5678 -0.2818  1.8066
   90SAPC  H16Y 8649   3.787   4.587   5.250 -1.5959  1.7187  0.2048
   90SAPC  C317 8650   3.588   4.598   5.162 -0.2212  0.3708 -0.0700
   90SAPC  H17X 8651   3.540   4.653   5.246  0.6284  1.4149 -0.2530
   90SAPC  H17Y 8652   3.521   4.518   5.123 -0.4869  0.6776 -0.2545
   90SAPC  C318 8653   3.642   4.690   5.050 -0.0812 -0.3374 -0.5584
   90SAPC  H18X 8654   3.676   4.626   4.966  0.8565 -0.4867 -0.0840
   90SAPC  H18Y 8655   3.728   4.745   5.095  0.3915 -1.0222 -0.6049
   90SAPC  H18Z 8656   3.566   4.754   5.001  0.5020 -1.1761 -2.6361
   91SAPC     N 8657   7.026   3.351   7.678  0.1065 -0.1995 -0.2301
   91SAPC   C12 8658   7.047   3.502   7.640  0.5869  0.0017  0.0544
   91SAPC  H12A 8659   7.123   3.546   7.703  0.4441  0.2830  0.0337
   91SAPC  H12B 8660   6.965   3.572   7.648  1.5142  1.4169 -1.9161
   91SAPC   C13 8661   6.965   3.342   7.816  0.8925  0.1707 -0.8521
   91SAPC  H13A 8662   6.858   3.348   7.810  0.9362 -0.3369 -3.2965
   91SAPC  H13B 8663   6.982   3.244   7.858  2.0862  0.6905 -0.0761
   91SAPC  H13C 8664   6.995   3.428   7.874 -0.2753  0.0091  0.0227
   91SAPC   C14 8665   6.954   3.272   7.572  0.0985  0.2597 -0.0666
   91SAPC  H14A 8666   6.975   3.167   7.588 -0.6012  0.0405 -0.5072
   91SAPC  H14B 8667   6.847   3.280   7.591  0.1904 -1.0522  1.1966
   91SAPC  H14C 8668   6.987   3.307   7.476  0.6483  0.2679  0.1225
   91SAPC   C15 8669   7.162   3.290   7.692  0.6674 -0.2401 -0.2132
   91SAPC  H15A 8670   7.211   3.262   7.600 -0.8978 -3.9128 -0.1042
   91SAPC  H15B 8671   7.226   3.357   7.749  1.3598 -0.9981 -0.0842
   91SAPC  H15C 8672   7.150   3.193   7.738 -0.6909 -0.5498 -1.1680
   91SAPC   C11 8673   7.089   3.549   7.492 -0.3790  0.3017 -0.0251
   91SAPC  H11A 8674   7.105   3.659   7.499 -1.4950  0.5036 -0.4751
   91SAPC  H11B 8675   6.999   3.528   7.431  0.0646 -0.8870 -0.2938
   91SAPC     P 8676   7.219   3.439   7.299 -0.1003  0.5746 -0.0294
   91SAPC   O13 8677   7.358   3.400   7.266  0.0542 -0.3640 -0.0349
   91SAPC   O14 8678   7.131   3.322   7.283  0.3940  0.2712  0.4532
   91SAPC   O12 8679   7.205   3.475   7.448  0.3205  0.2208 -0.0555
   91SAPC   O11 8680   7.152   3.569   7.222 -0.7652 -0.1929 -0.2021
   91SAPC    C1 8681   7.064   3.541   7.112  0.4546  0.6132  0.8914
   91SAPC    HA 8682   7.005   3.447   7.118  1.2952  0.0218  0.1533
   91SAPC    HB 8683   6.998   3.629   7.099 -1.9538 -1.3331 -0.9596
   91SAPC    C2 8684   7.140   3.530   6.977  0.6149  1.3620  0.3895
   91SAPC    HS 8685   7.197   3.438   7.003 -0.7531  0.5446  0.6113
   91SAPC   O21 8686   7.230   3.644   6.969  0.1401  0.7055  0.5412
   91SAPC   C21 8687   7.352   3.617   6.911  0.0363  0.2101 -0.7470
   91SAPC   O22 8688   7.381   3.517   6.848 -0.6926 -0.1092 -0.0740
   91SAPC   C22 8689   7.453   3.730   6.952 -0.6400  0.2709  0.2790
   91SAPC   H2R 8690   7.401   3.800   7.021 -0.5440  1.1311 -0.5053
   91SAPC   H2S 8691   7.535   3.672   7.000  0.0730 -0.8198 -2.1272
   91SAPC    C3 8692   7.028   3.529   6.864  0.5241  0.6097  0.0030
   91SAPC    HX 8693   6.981   3.629   6.852 -0.2587  0.1817 -0.6401
   91SAPC    HY 8694   6.952   3.454   6.894  0.3562  0.6925 -0.2158
   91SAPC   O31 8695   7.076   3.492   6.734  0.0014 -0.2355 -0.0537
   91SAPC   C31 8696   7.137   3.379   6.715  0.4064 -0.4509  0.3551
   91SAPC   O32 8697   7.141   3.295   6.804 -0.4235  0.0675 -0.1155
   91SAPC   C32 8698   7.200   3.363   6.585  0.3519 -0.0499  0.2511
   91SAPC   H2X 8699   7.258   3.457   6.571  0.2862  0.0003  0.3152
   91SAPC   H2Y 8700   7.111   3.374   6.521 -1.0200 -0.2561  2.0485
   91SAPC   C23 8701   7.509   3.791   6.820  0.0035  0.0754 -0.0719
   91SAPC   H3R 8702   7.535   3.702   6.759  1.4535  0.5159 -0.1398
   91SAPC   H3S 8703   7.600   3.853   6.830 -0.8815  1.9248 -2.4124
   91SAPC   C24 8704   7.400   3.859   6.731 -0.4542 -0.0669  0.1525
   91SAPC   H4R 8705   7.332   3.781   6.690 -0.9624  0.5677 -0.2324
   91SAPC   H4S 8706   7.454   3.899   6.643 -2.6169  1.9132 -0.3890
   91SAPC   C25 8707   7.343   3.980   6.803  0.4228  0.5877 -0.1831
   91SAPC   H5R 8708   7.412   4.040   6.863 -1.0540  1.0464  1.1155
   91SAPC   C26 8709   7.218   4.009   6.828  0.1408 -0.7203 -0.5597
   91SAPC   H6R 8710   7.193   4.108   6.868  1.1349 -0.7343  0.1135
   91SAPC   C27 8711   7.093   3.950   6.765 -0.3140 -0.5391  0.1995
   91SAPC   H7R 8712   7.016   3.924   6.841 -2.3598  1.5422 -1.0408
   91SAPC   H7S 8713   7.116   3.847   6.731 -0.0883 -0.2584 -0.5139
   91SAPC   C28 8714   7.053   4.029   6.649 -0.0421  0.7289  0.9915
   91SAPC   H8R 8715   7.096   4.009   6.550 -1.5725  3.2768 -0.2766
   91SAPC   C29 8716   6.969   4.131   6.651 -0.2493 -0.0419 -0.0750
   91SAPC   H9R 8717   6.952   4.180   6.554  0.8070  2.0856  0.7436
   91SAPC  C210 8718   6.899   4.200   6.763 -0.7027 -0.1567  0.8093
   91SAPC  H10R 8719   6.948   4.184   6.861 -1.1935 -0.9132  0.9380
   91SAPC  H10S 8720   6.803   4.147   6.782 -1.4896  0.4833 -1.1151
   91SAPC  C211 8721   6.872   4.345   6.748 -0.1806 -0.5494  0.6672
   91SAPC  H11R 8722   6.969   4.395   6.764  0.9930 -1.8614 -1.8085
   91SAPC  C212 8723   6.754   4.405   6.719  0.1920  0.3805  0.1269
   91SAPC  H12R 8724   6.754   4.515   6.714  0.1754  0.4841  1.8637
   91SAPC  C213 8725   6.626   4.336   6.687  0.7457  0.5776 -0.8485
   91SAPC  H13R 8726   6.617   4.238   6.738 -1.9633  0.3991 -1.5348
   91SAPC  H13S 8727   6.617   4.320   6.578  1.7011  0.8296 -0.9742
   91SAPC  C214 8728   6.512   4.421   6.755  0.2263  0.1167  0.2040
   91SAPC  H14R 8729   6.535   4.485   6.842 -2.2375  1.2288  0.1003
   91SAPC  C215 8730   6.383   4.421   6.711  0.2998  0.5570  0.7531
   91SAPC  H15R 8731   6.307   4.494   6.743 -1.7457 -0.9991 -0.3305
   91SAPC  C216 8732   6.328   4.332   6.601 -0.1079 -0.1946  0.7858
   91SAPC  H16R 8733   6.392   4.245   6.577  1.2401  1.5128 -2.4471
   91SAPC  H16S 8734   6.306   4.389   6.508 -2.4751 -2.0131  0.1338
   91SAPC  C217 8735   6.189   4.271   6.646 -0.4975  0.3233  0.1402
   91SAPC  H17R 8736   6.162   4.203   6.563  2.3782 -0.0017 -0.6453
   91SAPC  H17S 8737   6.126   4.362   6.649 -1.3645 -0.2967  1.8422
   91SAPC  C218 8738   6.175   4.215   6.791  0.3117  0.5678 -0.4455
   91SAPC  H18R 8739   6.074   4.171   6.800  1.2878 -1.7545 -0.2751
   91SAPC  H18S 8740   6.175   4.295   6.868 -0.9910 -1.7628  2.1531
   91SAPC  C219 8741   6.281   4.113   6.833 -0.2031 -0.0193  0.0041
   91SAPC  H19R 8742   6.280   4.071   6.936 -0.1123  0.0055  0.0148
   91SAPC  H19S 8743   6.373   4.175   6.832  0.4802 -1.0072 -0.0997
   91SAPC  C220 8744   6.294   3.997   6.732  0.1516 -0.4126  0.0216
   91SAPC  H20R 8745   6.395   3.956   6.756  0.3748 -0.7602 -1.4545
   91SAPC  H20S 8746   6.298   4.034   6.628 -1.8701 -1.8343 -0.6385
   91SAPC  H20T 8747   6.229   3.906   6.734  0.6054 -0.7378  1.1782
   91SAPC   C33 8748   7.282   3.229   6.571 -0.2623  0.6798  0.2373
   91SAPC   H3X 8749   7.225   3.139   6.600  0.8193 -0.7959 -1.9434
   91SAPC   H3Y 8750   7.375   3.232   6.632 -0.6085  1.7527  0.7393
   91SAPC   C34 8751   7.324   3.210   6.421 -0.6322  0.4590  0.1884
   91SAPC   H4X 8752   7.410   3.272   6.387  0.0950 -1.4955 -1.8095
   91SAPC   H4Y 8753   7.243   3.234   6.349  1.3262  3.6610 -1.2093
   91SAPC   C35 8754   7.380   3.069   6.387  0.6426  0.1079  0.2485
   91SAPC   H5X 8755   7.313   2.989   6.426  1.1292  0.2329  1.3702
   91SAPC   H5Y 8756   7.467   3.050   6.453  0.5014 -1.2584  0.0791
   91SAPC   C36 8757   7.415   3.046   6.237  0.0068 -0.3829  0.4761
   91SAPC   H6X 8758   7.460   2.945   6.229 -1.1581 -0.8410 -0.6683
   91SAPC   H6Y 8759   7.484   3.127   6.207 -0.8550  0.6902  1.2968
   91SAPC   C37 8760   7.293   3.033   6.145  0.1597 -0.0490  0.0197
   91SAPC   H7X 8761   7.322   3.009   6.041 -2.0329 -2.6543 -0.1026
   91SAPC   H7Y 8762   7.237   3.129   6.141  2.0022  1.2065  1.8684
   91SAPC   C38 8763   7.197   2.921   6.173 -0.1658  0.2944  0.2513
   91SAPC   H8X 8764   7.171   2.900   6.279 -4.0957  0.9165 -0.4138
   91SAPC   H8Y 8765   7.235   2.825   6.131  0.3784  0.1223  1.1121
   91SAPC   C39 8766   7.065   2.949   6.097 -0.5929 -0.7025 -0.2461
   91SAPC   H9X 8767   7.027   3.046   6.134  1.5431 -0.0304  0.3503
   91SAPC   H9Y 8768   6.981   2.883   6.127 -0.6231 -2.1410 -3.1095
   91SAPC  C310 8769   7.074   2.956   5.941 -0.1868 -0.2566 -0.0195
   91SAPC  H10X 8770   7.124   2.866   5.900 -0.0667 -0.0030 -0.4343
   91SAPC  H10Y 8771   7.132   3.042   5.901 -0.5869 -0.4424 -1.0501
   91SAPC  C311 8772   6.936   2.973   5.875 -0.6722  0.2380  0.2304
   91SAPC  H11X 8773   6.889   3.059   5.928 -1.8334 -0.1196 -0.1811
   91SAPC  H11Y 8774   6.883   2.877   5.891  0.4892 -0.4985 -0.2201
   91SAPC  C312 8775   6.948   3.022   5.727  0.2396  0.9798 -0.3179
   91SAPC  H12X 8776   7.011   2.951   5.670  2.7193  2.3450  0.5203
   91SAPC  H12Y 8777   6.988   3.126   5.726  0.6283  0.8330 -0.2304
   91SAPC  C313 8778   6.811   3.044   5.665  0.5802 -0.1842 -0.1714
   91SAPC  H13X 8779   6.751   3.120   5.720 -2.1887 -2.0049 -0.4655
   91SAPC  H13Y 8780   6.758   2.949   5.690 -1.2863  1.3727  2.2766
   91SAPC  C314 8781   6.804   3.080   5.516  0.5322 -0.0270  0.3271
   91SAPC  H14X 8782   6.854   3.005   5.450 -0.4878  1.7603 -2.6567
   91SAPC  H14Y 8783   6.861   3.174   5.501 -1.5237  1.9472  3.7443
   91SAPC  C315 8784   6.665   3.107   5.455  0.0797 -0.6429  0.0927
   91SAPC  H15X 8785   6.609   3.173   5.525  0.6673 -0.4365  0.3741
   91SAPC  H15Y 8786   6.616   3.008   5.460  0.4804 -0.8801 -0.5328
   91SAPC  C316 8787   6.677   3.163   5.304  0.2525 -0.2741 -0.3994
   91SAPC  H16X 8788   6.583   3.142   5.249 -0.1784  2.2930 -0.7959
   91SAPC  H16Y 8789   6.764   3.109   5.263  0.6624 -1.5554  1.9757
   91SAPC  C317 8790   6.713   3.313   5.295  0.3059 -0.6531  0.2379
   91SAPC  H17X 8791   6.803   3.346   5.352  0.3608  0.4781 -0.4550
   91SAPC  H17Y 8792   6.631   3.379   5.329  1.3869  1.4458 -0.9557
   91SAPC  C318 8793   6.741   3.366   5.153  0.6697  0.0245  0.3017
   91SAPC  H18X 8794   6.650   3.399   5.099  0.4338  0.6177  1.0361
   91SAPC  H18Y 8795   6.799   3.288   5.099  0.4089 -0.0131  0.0721
   91SAPC  H18Z 8796   6.802   3.459   5.151  1.2436 -0.3334  0.8546
   92SAPC     N 8797   1.431   0.940   7.580  0.0962 -0.2682  0.0624
   92SAPC   C12 8798   1.387   0.808   7.529 -0.2862 -0.0375  0.0940
   92SAPC  H12A 8799   1.394   0.726   7.599  0.6219 -0.0166  0.0317
   92SAPC  H12B 8800   1.460   0.780   7.455 -0.0404 -2.7671  1.2571
   92SAPC   C13 8801   1.436   1.023   7.450 -0.5206 -0.4604 -0.1129
   92SAPC  H13A 8802   1.338   1.029   7.404  0.0943 -0.5933 -1.4719
   92SAPC  H13B 8803   1.467   1.126   7.455 -3.0609  0.3350  2.0383
   92SAPC  H13C 8804   1.501   0.975   7.379  2.2470 -0.3200  2.1508
   92SAPC   C14 8805   1.342   1.007   7.677 -0.2095 -0.1988  0.0864
   92SAPC  H14A 8806   1.342   0.942   7.763  0.5710 -1.1663 -0.6434
   92SAPC  H14B 8807   1.387   1.097   7.717 -0.2380  0.4299 -1.2415
   92SAPC  H14C 8808   1.240   1.017   7.643 -0.3201  0.6168  0.6181
   92SAPC   C15 8809   1.573   0.934   7.628  0.0635  0.6504  0.0649
   92SAPC  H15A 8810   1.638   0.870   7.571 -1.5195  0.7337 -1.9551
   92SAPC  H15B 8811   1.614   1.032   7.607 -1.9944  1.2165 -1.6261
   92SAPC  H15C 8812   1.579   0.922   7.735  1.2053  3.8285  0.4493
   92SAPC   C11 8813   1.242   0.802   7.450 -0.2083  0.0515 -0.0046
   92SAPC  H11A 8814   1.221   0.704   7.403  2.1217 -0.1498 -0.7538
   92SAPC  H11B 8815   1.249   0.873   7.364 -0.1063 -0.3935 -0.3641
   92SAPC     P 8816   1.060   0.749   7.619  0.1299 -0.1536 -0.0744
   92SAPC   O13 8817   1.149   0.632   7.637  0.8724 -0.2179  0.2795
   92SAPC   O14 8818   1.023   0.821   7.744 -0.1126  0.0791 -0.4292
   92SAPC   O12 8819   1.138   0.853   7.532 -0.4836 -0.4447 -0.0869
   92SAPC   O11 8820   0.940   0.707   7.533  0.1831  0.4204  0.6142
   92SAPC    C1 8821   0.846   0.784   7.466  0.0595  0.4526  0.0614
   92SAPC    HA 8822   0.744   0.777   7.509  0.3977  1.8275  1.1522
   92SAPC    HB 8823   0.867   0.892   7.484  1.8605  0.1555 -0.0461
   92SAPC    C2 8824   0.832   0.745   7.314 -0.2940  0.0068  0.0393
   92SAPC    HS 8825   0.828   0.634   7.313 -2.2531  0.0455  0.6812
   92SAPC   O21 8826   0.953   0.793   7.249 -0.4916 -0.3239 -0.4941
   92SAPC   C21 8827   0.995   0.725   7.142  0.3458 -0.5744 -0.1464
   92SAPC   O22 8828   0.939   0.631   7.096  0.2746  0.2704 -0.0401
   92SAPC   C22 8829   1.109   0.806   7.076 -0.6727 -0.3899 -0.2300
   92SAPC   H2R 8830   1.066   0.908   7.072  2.3048  1.4536  4.7184
   92SAPC   H2S 8831   1.198   0.811   7.143 -1.1306  1.3041  0.2906
   92SAPC    C3 8832   0.703   0.808   7.262  0.4839  0.0692 -0.1964
   92SAPC    HX 8833   0.722   0.918   7.259  0.3866  0.1350  1.1640
   92SAPC    HY 8834   0.624   0.785   7.336  1.2257  2.3596  1.4333
   92SAPC   O31 8835   0.668   0.754   7.134  0.3432  0.2372  0.4855
   92SAPC   C31 8836   0.714   0.812   7.021 -0.1518 -0.4832 -0.7947
   92SAPC   O32 8837   0.793   0.902   7.022 -0.2705  0.3087 -0.1884
   92SAPC   C32 8838   0.619   0.767   6.912 -0.7176  0.1547 -0.4789
   92SAPC   H2X 8839   0.557   0.857   6.889 -0.6439  0.4202  0.3352
   92SAPC   H2Y 8840   0.567   0.673   6.940  0.6948 -0.7487 -0.7850
   92SAPC   C23 8841   1.147   0.741   6.936 -0.4137  0.1429 -0.1326
   92SAPC   H3R 8842   1.059   0.708   6.878 -0.3006 -1.1041  0.3815
   92SAPC   H3S 8843   1.199   0.644   6.949 -1.7952 -0.8349 -1.5802
   92SAPC   C24 8844   1.238   0.828   6.849 -0.5704  0.1157 -0.3939
   92SAPC   H4R 8845   1.295   0.760   6.782  2.0575 -0.9434  2.6806
   92SAPC   H4S 8846   1.311   0.855   6.928  1.3914  1.1200 -2.4362
   92SAPC   C25 8847   1.164   0.945   6.798 -0.3909  0.0647  0.3781
   92SAPC   H5R 8848   1.146   1.035   6.859  1.1718  1.1833 -0.7495
   92SAPC   C26 8849   1.141   0.961   6.667  0.8180 -0.1283 -0.3906
   92SAPC   H6R 8850   1.100   1.057   6.634  0.9318  0.0920  0.1042
   92SAPC   C27 8851   1.166   0.865   6.559  0.2810 -0.5198  0.3588
   92SAPC   H7R 8852   1.254   0.800   6.580  0.9229  0.6755  1.5575
   92SAPC   H7S 8853   1.196   0.922   6.468 -0.8195  1.5886  1.2446
   92SAPC   C28 8854   1.031   0.791   6.542 -0.0515  0.2208  0.1911
   92SAPC   H8R 8855   0.989   0.766   6.640  0.4959  3.0001  1.2270
   92SAPC   C29 8856   0.957   0.764   6.431 -0.0455 -0.0327  0.3739
   92SAPC   H9R 8857   0.858   0.726   6.458 -0.2933  0.1797 -0.2085
   92SAPC  C210 8858   0.971   0.787   6.280 -0.3489 -0.4866  0.4846
   92SAPC  H10R 8859   1.067   0.835   6.253 -0.0144 -0.4402  1.7149
   92SAPC  H10S 8860   0.887   0.857   6.260 -2.3672 -2.4086  1.8033
   92SAPC  C211 8861   0.915   0.676   6.193  0.4553 -0.3496 -0.3015
   92SAPC  H11R 8862   0.830   0.625   6.242  0.3033 -0.3397 -0.5549
   92SAPC  C212 8863   0.942   0.652   6.064 -0.3869  0.3906 -0.1842
   92SAPC  H12R 8864   0.897   0.573   6.002  0.9159 -1.2752  0.8631
   92SAPC  C213 8865   1.054   0.728   5.997  0.0005 -0.1289  0.3413
   92SAPC  H13R 8866   1.065   0.682   5.896 -0.6697  1.6276 -0.5848
   92SAPC  H13S 8867   1.145   0.694   6.050  0.4691  1.1965  0.4229
   92SAPC  C214 8868   1.055   0.877   5.977  0.3986 -0.0435  0.7531
   92SAPC  H14R 8869   1.145   0.935   6.003  0.9726 -0.6624  0.1996
   92SAPC  C215 8870   0.959   0.948   5.926 -0.3038  0.4932 -0.1103
   92SAPC  H15R 8871   0.970   1.057   5.915  0.7358  0.4737  0.6160
   92SAPC  C216 8872   0.824   0.895   5.888 -0.4169 -0.6399 -1.1558
   92SAPC  H16R 8873   0.767   0.888   5.984 -0.5370  0.0346 -1.1740
   92SAPC  H16S 8874   0.834   0.794   5.843 -0.9417  0.1001 -3.0440
   92SAPC  C217 8875   0.749   1.002   5.799  0.5883  0.4604 -0.1702
   92SAPC  H17R 8876   0.741   1.101   5.848  1.7834 -0.0240  1.0957
   92SAPC  H17S 8877   0.650   0.956   5.780  0.6741  0.9159 -1.8636
   92SAPC  C218 8878   0.820   1.011   5.664  0.2929 -0.0866  0.0172
   92SAPC  H18R 8879   0.928   1.036   5.677  0.3427 -0.0835 -0.3915
   92SAPC  H18S 8880   0.776   1.095   5.607 -0.8284 -0.4661  0.2918
   92SAPC  C219 8881   0.811   0.878   5.578  0.1103 -0.4236  0.3910
   92SAPC  H19R 8882   0.706   0.845   5.567  0.2854 -0.5859 -0.9493
   92SAPC  H19S 8883   0.866   0.797   5.632  2.7365  1.3352  0.5606
   92SAPC  C220 8884   0.879   0.880   5.438 -1.2487 -1.0530  0.1608
   92SAPC  H20R 8885   0.974   0.937   5.446 -2.0013  0.7848 -2.4066
   92SAPC  H20S 8886   0.822   0.935   5.360 -0.4236  0.4010  0.5479
   92SAPC  H20T 8887   0.893   0.776   5.402  1.2970 -0.9557  0.6699
   92SAPC   C33 8888   0.691   0.725   6.782  0.2518  0.1916  0.2666
   92SAPC   H3X 8889   0.745   0.630   6.805  0.9970  0.6780  0.5521
   92SAPC   H3Y 8890   0.766   0.799   6.747  1.1325  0.2821  2.2020
   92SAPC   C34 8891   0.581   0.689   6.671 -0.7800  0.1246 -0.6429
   92SAPC   H4X 8892   0.550   0.778   6.613  0.2603  0.1238 -1.2268
   92SAPC   H4Y 8893   0.488   0.657   6.722 -1.3339 -0.2678 -1.8693
   92SAPC   C35 8894   0.612   0.565   6.577  0.6504 -0.2615  0.2231
   92SAPC   H5X 8895   0.625   0.478   6.645  0.3792 -0.8275 -0.4363
   92SAPC   H5Y 8896   0.708   0.580   6.523 -0.2480  0.3498 -1.2635
   92SAPC   C36 8897   0.492   0.522   6.489  0.2481 -0.2184  0.1447
   92SAPC   H6X 8898   0.406   0.548   6.554  0.1852 -0.8421  0.3181
   92SAPC   H6Y 8899   0.503   0.413   6.468  1.9626 -0.0118 -0.1287
   92SAPC   C37 8900   0.472   0.605   6.363  0.7857  0.6858 -0.3437
   92SAPC   H7X 8901   0.504   0.709   6.382 -0.0168  1.1826 -1.5825
   92SAPC   H7Y 8902   0.362   0.621   6.355  1.1210  3.8708  0.1558
   92SAPC   C38 8903   0.529   0.553   6.238  0.0295  0.5096  0.0854
   92SAPC   H8X 8904   0.479   0.457   6.214  0.3229  0.8425 -2.0025
   92SAPC   H8Y 8905   0.633   0.525   6.266  0.1496 -0.4724 -1.2588
   92SAPC   C39 8906   0.497   0.650   6.119  0.1418  0.2943 -0.1157
   92SAPC   H9X 8907   0.520   0.750   6.161 -0.6150  0.7160 -0.6965
   92SAPC   H9Y 8908   0.386   0.645   6.115  0.0951 -0.3279  1.2220
   92SAPC  C310 8909   0.565   0.609   5.989  0.3033  0.0725 -0.0142
   92SAPC  H10X 8910   0.561   0.498   5.981  4.8212 -0.2789  0.1337
   92SAPC  H10Y 8911   0.673   0.627   5.971  0.7112 -2.0819  0.0041
   92SAPC  C311 8912   0.487   0.686   5.878 -0.0719  0.2933 -0.0119
   92SAPC  H11X 8913   0.492   0.791   5.913  0.1722  0.5331 -0.7677
   92SAPC  H11Y 8914   0.387   0.637   5.880  0.3842 -0.6467  1.8699
   92SAPC  C312 8915   0.548   0.676   5.736  0.9500 -0.2420  0.5786
   92SAPC  H12X 8916   0.656   0.701   5.743  0.3262  2.2472  3.6590
   92SAPC  H12Y 8917   0.501   0.737   5.657 -0.3637  0.8876  2.1663
   92SAPC  C313 8918   0.527   0.530   5.669  0.0074 -0.3172 -0.2474
   92SAPC  H13X 8919   0.418   0.511   5.670 -0.0461 -0.0246  0.5863
   92SAPC  H13Y 8920   0.577   0.466   5.744 -0.5476 -0.0865  0.3320
   92SAPC  C314 8921   0.599   0.503   5.533 -0.4129  0.0266 -0.7486
   92SAPC  H14X 8922   0.601   0.394   5.511  0.2823 -0.2857  0.7543
   92SAPC  H14Y 8923   0.707   0.527   5.546  0.2417 -0.8967 -3.6465
   92SAPC  C315 8924   0.535   0.583   5.421 -0.9788 -0.1060  0.5896
   92SAPC  H15X 8925   0.518   0.686   5.459 -0.2273 -0.3987  1.7567
   92SAPC  H15Y 8926   0.436   0.545   5.389 -1.7310  1.2359  1.2582
   92SAPC  C316 8927   0.628   0.596   5.298  0.9270 -0.5074 -0.2938
   92SAPC  H16X 8928   0.680   0.501   5.273  0.0219 -0.4935 -2.5580
   92SAPC  H16Y 8929   0.702   0.669   5.335  0.6811 -0.2018 -0.3947
   92SAPC  C317 8930   0.557   0.661   5.175  0.1115 -0.0693  0.0234
   92SAPC  H17X 8931   0.490   0.742   5.211 -0.0405  0.4197 -1.2864
   92SAPC  H17Y 8932   0.496   0.583   5.126  2.8530 -1.3968 -1.5361
   92SAPC  C318 8933   0.637   0.723   5.057 -0.0041 -0.2215 -0.1592
   92SAPC  H18X 8934   0.665   0.637   4.993 -0.6698 -0.2731 -0.3848
   92SAPC  H18Y 8935   0.738   0.753   5.092  0.7731 -0.8721 -1.7695
   92SAPC  H18Z 8936   0.598   0.810   5.000  0.9936  1.1300  1.1191
   93SAPC     N 8937   2.257   2.102   7.867  0.7576  0.1440  0.4231
   93SAPC   C12 8938   2.152   2.181   7.794 -0.3621  0.3682  0.0849
   93SAPC  H12A 8939   2.139   2.272   7.850 -1.4539  0.0998  0.2757
   93SAPC  H12B 8940   2.061   2.124   7.803  0.6697 -1.4586 -0.4374
   93SAPC   C13 8941   2.301   1.979   7.794 -0.3866 -0.0655  0.3630
   93SAPC  H13A 8942   2.351   1.996   7.700 -2.3458  0.4993 -0.6289
   93SAPC  H13B 8943   2.360   1.918   7.861 -0.1108 -0.5777 -0.3355
   93SAPC  H13C 8944   2.213   1.918   7.778 -0.9508  0.3433  1.7398
   93SAPC   C14 8945   2.375   2.197   7.888 -0.3387  0.0521  0.0136
   93SAPC  H14A 8946   2.396   2.244   7.793 -2.8314 -1.0758 -1.1729
   93SAPC  H14B 8947   2.351   2.271   7.962 -0.7892 -0.0490 -0.0273
   93SAPC  H14C 8948   2.464   2.138   7.910  2.2511  2.9497 -1.8231
   93SAPC   C15 8949   2.207   2.070   8.002 -0.2914 -0.3439  0.6351
   93SAPC  H15A 8950   2.276   2.004   8.053  3.3328  1.3704 -1.6075
   93SAPC  H15B 8951   2.190   2.164   8.051 -1.6243  1.2677 -2.6317
   93SAPC  H15C 8952   2.111   2.021   7.996  0.0564 -1.0429  0.5831
   93SAPC   C11 8953   2.185   2.215   7.647  1.0512  1.3181  0.3310
   93SAPC  H11A 8954   2.086   2.245   7.605  0.8264 -0.1760 -0.2648
   93SAPC  H11B 8955   2.209   2.123   7.589 -0.3112  1.4316 -0.4732
   93SAPC     P 8956   2.281   2.434   7.554  0.8692 -0.1247  0.2833
   93SAPC   O13 8957   2.161   2.514   7.582 -0.1027  0.2658  0.2002
   93SAPC   O14 8958   2.409   2.503   7.555 -0.2158 -0.0707 -0.5647
   93SAPC   O12 8959   2.289   2.309   7.641  0.0570 -0.3508 -0.6006
   93SAPC   O11 8960   2.259   2.373   7.402  0.1197 -0.1126  0.0698
   93SAPC    C1 8961   2.310   2.246   7.369 -0.7462  0.5283 -0.1065
   93SAPC    HA 8962   2.402   2.220   7.425 -2.2873  0.4464  2.5783
   93SAPC    HB 8963   2.240   2.163   7.394  1.1074 -1.2882 -0.6180
   93SAPC    C2 8964   2.362   2.240   7.225 -0.1807  0.0965  0.3529
   93SAPC    HS 8965   2.418   2.144   7.215 -0.0146  0.3478 -1.5409
   93SAPC   O21 8966   2.453   2.355   7.198  0.7218  0.3106 -0.0291
   93SAPC   C21 8967   2.573   2.331   7.248  0.4179 -0.1646 -0.1362
   93SAPC   O22 8968   2.608   2.235   7.313 -0.4804 -0.1796 -0.5732
   93SAPC   C22 8969   2.671   2.425   7.181 -0.2753  0.5697  0.3297
   93SAPC   H2R 8970   2.622   2.522   7.157 -0.3222  0.1121 -1.5845
   93SAPC   H2S 8971   2.752   2.450   7.253 -0.7487 -0.0999  1.1226
   93SAPC    C3 8972   2.243   2.240   7.125  0.6421 -0.2878 -0.2832
   93SAPC    HX 8973   2.179   2.327   7.147 -0.8448 -1.5612  0.6365
   93SAPC    HY 8974   2.186   2.151   7.160  0.9719 -0.5372 -0.3684
   93SAPC   O31 8975   2.281   2.230   6.985 -0.0567  0.4413 -0.4363
   93SAPC   C31 8976   2.201   2.288   6.903  0.5630  0.0604  0.1848
   93SAPC   O32 8977   2.100   2.347   6.936 -0.2988 -0.4197  0.2428
   93SAPC   C32 8978   2.250   2.281   6.759 -0.3342  0.1561 -0.1029
   93SAPC   H2X 8979   2.261   2.176   6.723  1.4676  0.7642 -1.4325
   93SAPC   H2Y 8980   2.345   2.339   6.753  0.0286 -0.2923  1.0811
   93SAPC   C23 8981   2.728   2.374   7.048 -1.0592 -0.0328 -0.2803
   93SAPC   H3R 8982   2.804   2.298   7.077 -0.4087 -0.1857 -2.2226
   93SAPC   H3S 8983   2.785   2.457   7.001 -0.3021  0.1789  0.9847
   93SAPC   C24 8984   2.633   2.311   6.946  0.5094 -0.0579  0.4282
   93SAPC   H4R 8985   2.570   2.391   6.902  0.4377  0.5483  1.5993
   93SAPC   H4S 8986   2.572   2.232   6.994  1.6085 -0.8118  0.6320
   93SAPC   C25 8987   2.722   2.257   6.835  0.3851 -0.5813  0.4272
   93SAPC   H5R 8988   2.777   2.164   6.856  0.8602 -0.1536  1.1196
   93SAPC   C26 8989   2.754   2.307   6.706 -0.2143  0.6893  0.0438
   93SAPC   H6R 8990   2.828   2.257   6.643  0.9257  0.4487  1.5261
   93SAPC   C27 8991   2.700   2.433   6.648  0.1369  0.2516  0.0119
   93SAPC   H7R 8992   2.782   2.507   6.640  0.8706 -0.3773  1.2723
   93SAPC   H7S 8993   2.625   2.484   6.712  0.7270  1.4427 -0.2169
   93SAPC   C28 8994   2.623   2.400   6.518 -0.5269 -0.2607  0.2458
   93SAPC   H8R 8995   2.527   2.348   6.531 -1.7180  1.5184 -0.9846
   93SAPC   C29 8996   2.676   2.414   6.391  0.7843  0.5743  0.0863
   93SAPC   H9R 8997   2.609   2.385   6.309  2.2846 -2.2093 -0.2691
   93SAPC  C210 8998   2.812   2.462   6.356  0.3361  0.5549 -0.4026
   93SAPC  H10R 8999   2.882   2.430   6.435 -1.2014 -0.8014  0.4808
   93SAPC  H10S 9000   2.813   2.573   6.351 -3.1097  0.6695 -1.6221
   93SAPC  C211 9001   2.853   2.392   6.231  0.0163  0.5941 -0.5400
   93SAPC  H11R 9002   2.879   2.287   6.251  2.6914  1.3818  0.5023
   93SAPC  C212 9003   2.860   2.443   6.113 -0.1475  0.2385 -0.3286
   93SAPC  H12R 9004   2.912   2.388   6.033  2.1480  0.7514  0.7469
   93SAPC  C213 9005   2.826   2.586   6.074  0.2172  0.2019  0.2329
   93SAPC  H13R 9006   2.733   2.606   6.130 -0.1706  0.6266 -0.5354
   93SAPC  H13S 9007   2.788   2.580   5.969  0.7847  0.9378 -0.0259
   93SAPC  C214 9008   2.932   2.696   6.083  0.4299  0.9022 -0.1337
   93SAPC  H14R 9009   3.030   2.648   6.065 -2.0021 -3.6432 -3.4939
   93SAPC  C215 9010   2.917   2.816   6.145 -0.0221 -0.6418  0.2761
   93SAPC  H15R 9011   2.995   2.894   6.150 -0.7523  0.0312  2.1718
   93SAPC  C216 9012   2.777   2.852   6.187  0.1328  0.4393 -0.1437
   93SAPC  H16R 9013   2.760   2.787   6.275 -1.4508 -0.3236 -0.9531
   93SAPC  H16S 9014   2.701   2.817   6.113 -2.0699  1.3236  1.5804
   93SAPC  C217 9015   2.743   2.999   6.211  1.1910 -0.0878  0.4534
   93SAPC  H17R 9016   2.639   3.008   6.248  0.7716  0.1201 -0.7370
   93SAPC  H17S 9017   2.741   3.056   6.115 -1.6505  1.4916  1.3474
   93SAPC  C218 9018   2.844   3.063   6.305 -0.6077  0.1797  0.6010
   93SAPC  H18R 9019   2.803   3.163   6.331  1.5489  0.7027  2.2883
   93SAPC  H18S 9020   2.943   3.072   6.256 -0.5271 -0.0442  0.7213
   93SAPC  C219 9021   2.849   2.987   6.435  0.0016  0.3234 -0.1507
   93SAPC  H19R 9022   2.911   2.895   6.420 -1.7236 -0.5930 -2.0142
   93SAPC  H19S 9023   2.753   2.955   6.480  0.6570 -3.8775 -1.2360
   93SAPC  C220 9024   2.928   3.059   6.550 -0.0811 -0.5302  0.0477
   93SAPC  H20R 9025   3.030   3.092   6.520 -0.7597 -0.6364 -2.5193
   93SAPC  H20S 9026   2.948   2.982   6.628  2.0644 -0.2035 -0.1127
   93SAPC  H20T 9027   2.862   3.143   6.580  0.5929  2.0791 -4.8574
   93SAPC   C33 9028   2.142   2.342   6.668 -0.3186  0.1941  0.4672
   93SAPC   H3X 9029   2.130   2.449   6.696 -2.1102  0.0028  0.5234
   93SAPC   H3Y 9030   2.043   2.299   6.695  0.0741 -0.7560  0.4154
   93SAPC   C34 9031   2.166   2.331   6.520  0.4204  0.4080  0.1475
   93SAPC   H4X 9032   2.249   2.394   6.482  1.6911 -1.3372 -0.0815
   93SAPC   H4Y 9033   2.080   2.373   6.463  1.8866  1.2327 -1.5457
   93SAPC   C35 9034   2.207   2.192   6.463  0.5154 -0.1056 -0.3564
   93SAPC   H5X 9035   2.126   2.123   6.496 -0.6329  1.2671 -0.2134
   93SAPC   H5Y 9036   2.310   2.177   6.502 -0.7736  0.6465  3.7270
   93SAPC   C36 9037   2.223   2.184   6.306  0.3054  0.0970  0.0336
   93SAPC   H6X 9038   2.132   2.226   6.257 -0.6376  0.2568  1.8190
   93SAPC   H6Y 9039   2.232   2.075   6.285 -0.0488  0.2793 -1.1612
   93SAPC   C37 9040   2.340   2.252   6.239 -0.1179  0.4869  0.2384
   93SAPC   H7X 9041   2.434   2.213   6.284 -0.4435  1.7671  2.1913
   93SAPC   H7Y 9042   2.340   2.360   6.266  1.6610  0.6876 -0.4925
   93SAPC   C38 9043   2.349   2.224   6.090  0.0212  0.3540  0.2614
   93SAPC   H8X 9044   2.262   2.280   6.051 -2.8499 -1.4104  3.5497
   93SAPC   H8Y 9045   2.343   2.113   6.082  1.4319  0.2633  0.1270
   93SAPC   C39 9046   2.481   2.273   6.022  0.1176 -0.0693 -0.5064
   93SAPC   H9X 9047   2.561   2.208   6.063 -0.0024 -0.6017 -1.1069
   93SAPC   H9Y 9048   2.498   2.380   6.046 -1.0356  0.0885 -0.3304
   93SAPC  C310 9049   2.475   2.243   5.873 -0.1477  0.1343  0.2643
   93SAPC  H10X 9050   2.396   2.301   5.822 -1.4581 -0.3754  1.6650
   93SAPC  H10Y 9051   2.449   2.137   5.852 -0.5464  0.4949 -1.1941
   93SAPC  C311 9052   2.606   2.277   5.805 -0.4184 -0.0304 -0.2288
   93SAPC  H11X 9053   2.684   2.203   5.834  0.1814  0.1270 -1.3495
   93SAPC  H11Y 9054   2.644   2.372   5.850  2.0370 -1.5992  1.2454
   93SAPC  C312 9055   2.602   2.280   5.652  0.2930 -0.0298  0.2986
   93SAPC  H12X 9056   2.574   2.178   5.617 -0.2568  1.3215 -3.7500
   93SAPC  H12Y 9057   2.709   2.295   5.626 -0.6649  3.3627 -2.3407
   93SAPC  C313 9058   2.516   2.399   5.589 -0.6247  0.7304  0.4316
   93SAPC  H13X 9059   2.409   2.372   5.589 -0.5472  0.2024 -2.0933
   93SAPC  H13Y 9060   2.546   2.419   5.484  1.6366 -1.0101  0.6485
   93SAPC  C314 9061   2.526   2.528   5.666 -0.9876 -0.8615  0.1086
   93SAPC  H14X 9062   2.634   2.549   5.680 -1.1220 -0.3811  0.4737
   93SAPC  H14Y 9063   2.480   2.507   5.766  0.5054 -1.4134  0.7143
   93SAPC  C315 9064   2.453   2.640   5.588 -0.2784  0.0897 -0.1160
   93SAPC  H15X 9065   2.354   2.592   5.574  0.2503 -1.2626  0.6608
   93SAPC  H15Y 9066   2.502   2.653   5.490 -0.2278 -0.1374 -0.1205
   93SAPC  C316 9067   2.458   2.774   5.660 -0.4247 -0.9125  0.0350
   93SAPC  H16X 9068   2.560   2.809   5.683 -0.7194 -1.4707  2.4467
   93SAPC  H16Y 9069   2.408   2.751   5.756 -0.3890  0.7285  0.4640
   93SAPC  C317 9070   2.367   2.887   5.603  0.2884  1.0765  0.9139
   93SAPC  H17X 9071   2.329   2.943   5.691  0.0136  1.2655  0.6758
   93SAPC  H17Y 9072   2.280   2.843   5.549  2.3338 -1.3562 -0.6267
   93SAPC  C318 9073   2.434   2.990   5.509  0.1296  0.0462  0.4000
   93SAPC  H18X 9074   2.369   3.080   5.497  1.3179  0.7602 -0.9682
   93SAPC  H18Y 9075   2.456   2.951   5.407  2.2169  0.4989  0.6300
   93SAPC  H18Z 9076   2.536   3.020   5.541 -0.0355  0.1155  0.8720
   94SAPC     N 9077   0.761   2.657   7.034 -0.4635  0.0956 -0.0246
   94SAPC   C12 9078   0.796   2.766   6.934  0.7035  0.2928 -0.5544
   94SAPC  H12A 9079   0.719   2.771   6.858  2.5383  2.8553 -2.4078
   94SAPC  H12B 9080   0.890   2.752   6.883  0.4526 -1.1734 -0.6758
   94SAPC   C13 9081   0.727   2.535   6.959 -0.5680 -0.0451 -0.8032
   94SAPC  H13A 9082   0.814   2.494   6.910  1.3789  2.5037  0.2598
   94SAPC  H13B 9083   0.689   2.458   7.024 -1.8433 -0.2554 -1.7590
   94SAPC  H13C 9084   0.648   2.553   6.888 -0.0572 -2.4989 -2.0766
   94SAPC   C14 9085   0.877   2.639   7.116 -0.7542  0.4090  0.1202
   94SAPC  H14A 9086   0.857   2.573   7.199 -0.0062 -0.6243 -0.4910
   94SAPC  H14B 9087   0.956   2.598   7.055 -0.2573 -0.7371  1.4778
   94SAPC  H14C 9088   0.915   2.728   7.164  1.7530  0.0341 -0.9655
   94SAPC   C15 9089   0.648   2.701   7.118 -0.2448 -0.5526 -0.2575
   94SAPC  H15A 9090   0.670   2.791   7.174 -1.0139  0.1053 -0.9861
   94SAPC  H15B 9091   0.564   2.748   7.067 -1.5898 -0.4289  1.9464
   94SAPC  H15C 9092   0.596   2.622   7.170 -0.2042  0.2539  1.0550
   94SAPC   C11 9093   0.812   2.911   6.994 -0.6588  0.4153  0.2007
   94SAPC  H11A 9094   0.723   2.935   7.056 -0.0161 -1.5622  1.9939
   94SAPC  H11B 9095   0.812   2.984   6.910  0.0666 -0.5953 -0.6992
   94SAPC     P 9096   1.073   2.924   7.007  0.3187  0.0295 -0.6937
   94SAPC   O13 9097   1.120   3.059   6.997  0.3479  0.4799 -0.0274
   94SAPC   O14 9098   1.159   2.831   7.080  0.4060 -0.3085  0.0241
   94SAPC   O12 9099   0.933   2.915   7.076  0.0098  0.4701 -0.1095
   94SAPC   O11 9100   1.044   2.871   6.867  0.3039 -0.2783 -0.1439
   94SAPC    C1 9101   1.052   2.933   6.743  0.0138 -0.0623 -0.3919
   94SAPC    HA 9102   0.981   3.018   6.732  0.4120  0.3471  0.1671
   94SAPC    HB 9103   1.153   2.979   6.740  1.0618 -2.0178  2.0285
   94SAPC    C2 9104   1.053   2.836   6.625 -0.0084  0.6757  0.0168
   94SAPC    HS 9105   0.951   2.794   6.615  0.3721 -0.4288  0.5901
   94SAPC   O21 9106   1.158   2.731   6.651  0.5278  0.1194 -0.0626
   94SAPC   C21 9107   1.128   2.646   6.744  0.5603 -0.4380  0.1346
   94SAPC   O22 9108   1.013   2.622   6.783 -0.3471  0.1936  0.4356
   94SAPC   C22 9109   1.260   2.599   6.805 -0.7463 -0.0155 -0.4828
   94SAPC   H2R 9110   1.328   2.555   6.729 -1.3318  0.4924 -1.3185
   94SAPC   H2S 9111   1.316   2.692   6.826  1.0079  0.0993 -4.7603
   94SAPC    C3 9112   1.083   2.919   6.493  0.1519  0.6560 -0.6674
   94SAPC    HX 9113   1.080   2.851   6.405 -0.6836 -1.9055  1.2166
   94SAPC    HY 9114   1.190   2.950   6.496  0.1305  0.6902  0.7146
   94SAPC   O31 9115   1.002   3.037   6.482  0.1549 -0.4783  0.2541
   94SAPC   C31 9116   0.888   3.027   6.411  0.0612  0.3051 -0.6549
   94SAPC   O32 9117   0.852   2.916   6.368  0.1050 -0.3442 -0.0029
   94SAPC   C32 9118   0.809   3.157   6.396 -0.4420 -0.7177  0.1764
   94SAPC   H2X 9119   0.789   3.201   6.496  1.9539 -1.3469  0.9999
   94SAPC   H2Y 9120   0.704   3.141   6.362 -1.0239  3.7558 -0.7918
   94SAPC   C23 9121   1.247   2.509   6.926 -0.2132  0.1461 -0.6138
   94SAPC   H3R 9122   1.151   2.534   6.977 -0.9193 -0.2438 -1.7110
   94SAPC   H3S 9123   1.339   2.537   6.981  0.1248 -1.6428 -0.2160
   94SAPC   C24 9124   1.273   2.360   6.897  0.3370  0.2912 -0.1992
   94SAPC   H4R 9125   1.342   2.320   6.974 -0.6140  0.8934  0.9985
   94SAPC   H4S 9126   1.318   2.347   6.797  0.8599  0.2548  0.0368
   94SAPC   C25 9127   1.156   2.270   6.888  0.5003  0.2219  0.5744
   94SAPC   H5R 9128   1.116   2.238   6.985 -1.6556 -2.8057 -1.1635
   94SAPC   C26 9129   1.102   2.215   6.773 -0.1383 -0.3101  0.3808
   94SAPC   H6R 9130   1.018   2.146   6.790 -0.1484 -0.2678  0.5048
   94SAPC   C27 9131   1.130   2.253   6.629 -0.5336  0.1556  0.0266
   94SAPC   H7R 9132   1.231   2.215   6.600 -0.2126  1.5936 -0.8558
   94SAPC   H7S 9133   1.131   2.364   6.631  2.4615  0.2031  0.9442
   94SAPC   C28 9134   1.027   2.202   6.527  0.1878  0.2316  0.3212
   94SAPC   H8R 9135   0.979   2.286   6.476  1.2404  1.3595  1.1296
   94SAPC   C29 9136   0.987   2.083   6.489 -0.0225 -0.6009  0.6120
   94SAPC   H9R 9137   0.896   2.072   6.428 -0.0817 -0.3767  0.6590
   94SAPC  C210 9138   1.046   1.956   6.533 -0.0441 -0.4900  0.1266
   94SAPC  H10R 9139   1.031   1.955   6.644 -3.2370 -2.2492 -0.1977
   94SAPC  H10S 9140   1.156   1.945   6.519 -0.1082  0.4956 -1.2589
   94SAPC  C211 9141   0.965   1.838   6.496 -0.3447 -0.4622  0.2502
   94SAPC  H11R 9142   0.889   1.806   6.568 -2.1656  1.5788 -0.6446
   94SAPC  C212 9143   0.972   1.775   6.375  0.9076 -0.0950  0.0332
   94SAPC  H12R 9144   0.909   1.687   6.355  2.5395 -0.6882 -3.2344
   94SAPC  C213 9145   1.051   1.796   6.254  0.2250  0.2822  0.8099
   94SAPC  H13R 9146   1.092   1.899   6.244  0.7096  0.2001  1.8333
   94SAPC  H13S 9147   0.986   1.786   6.164 -0.4305  0.2776  1.2731
   94SAPC  C214 9148   1.165   1.695   6.251 -0.4840  0.4371  0.0001
   94SAPC  H14R 9149   1.167   1.622   6.333 -0.4251  0.8479  0.3699
   94SAPC  C215 9150   1.243   1.665   6.144 -0.6375 -0.1420 -0.1276
   94SAPC  H15R 9151   1.315   1.583   6.151 -0.6916 -0.1379  0.6172
   94SAPC  C216 9152   1.256   1.754   6.021  0.3633  0.6883 -0.2370
   94SAPC  H16R 9153   1.340   1.826   6.029  1.9052 -1.0956  0.1967
   94SAPC  H16S 9154   1.159   1.807   6.003 -0.5049 -0.6789  0.2718
   94SAPC  C217 9155   1.279   1.671   5.889 -0.2098 -0.3746  0.3860
   94SAPC  H17R 9156   1.183   1.621   5.863 -1.3672  2.5109 -1.3960
   94SAPC  H17S 9157   1.361   1.599   5.910 -0.7841 -0.4848  2.4383
   94SAPC  C218 9158   1.306   1.772   5.771  0.4364  0.0782  0.1923
   94SAPC  H18R 9159   1.406   1.817   5.787  0.0101  1.0099  0.2745
   94SAPC  H18S 9160   1.230   1.852   5.780 -2.7141 -2.4495 -1.4278
   94SAPC  C219 9161   1.298   1.706   5.634 -0.2224 -0.0066  0.8674
   94SAPC  H19R 9162   1.210   1.637   5.636  1.1753 -2.0188 -1.3012
   94SAPC  H19S 9163   1.390   1.650   5.607  1.8548  2.5502  2.2188
   94SAPC  C220 9164   1.278   1.801   5.518  0.3452 -0.4562 -0.5364
   94SAPC  H20R 9165   1.321   1.900   5.542  0.3238 -0.8597  1.3199
   94SAPC  H20S 9166   1.168   1.804   5.500  0.4404  1.6448 -0.9248
   94SAPC  H20T 9167   1.327   1.770   5.422 -0.3929 -1.9520 -0.4721
   94SAPC   C33 9168   0.886   3.260   6.306 -0.9201  0.2761  0.0335
   94SAPC   H3X 9169   0.988   3.276   6.345  0.0790 -2.8465 -0.9694
   94SAPC   H3Y 9170   0.831   3.356   6.302  0.2363  0.9786  0.5899
   94SAPC   C34 9171   0.901   3.202   6.163 -0.6352  0.6059 -0.3437
   94SAPC   H4X 9172   0.802   3.210   6.113 -1.6603 -2.7839  0.8945
   94SAPC   H4Y 9173   0.918   3.092   6.162 -0.7771  0.5638 -2.4449
   94SAPC   C35 9174   1.014   3.275   6.090 -0.4721 -0.1354  0.6631
   94SAPC   H5X 9175   1.109   3.274   6.147  1.4836  0.3005 -2.3277
   94SAPC   H5Y 9176   0.989   3.383   6.083 -2.0206 -0.4503  1.1136
   94SAPC   C36 9177   1.043   3.239   5.942 -0.1752 -0.7205  0.2397
   94SAPC   H6X 9178   0.943   3.249   5.894 -0.5820 -1.5143  0.8933
   94SAPC   H6Y 9179   1.085   3.137   5.927  0.8035 -0.5189  1.4271
   94SAPC   C37 9180   1.149   3.338   5.878  0.5534  0.1123 -0.5018
   94SAPC   H7X 9181   1.241   3.317   5.936  1.3385  1.8411 -1.0577
   94SAPC   H7Y 9182   1.121   3.441   5.909  1.6045 -0.4263  2.5580
   94SAPC   C38 9183   1.161   3.319   5.724 -0.2804 -0.0824  0.2502
   94SAPC   H8X 9184   1.084   3.374   5.665  1.9738  2.6562 -0.3701
   94SAPC   H8Y 9185   1.140   3.211   5.709 -1.7246  0.0947  0.8348
   94SAPC   C39 9186   1.291   3.349   5.659  0.3376 -0.2662 -0.7384
   94SAPC   H9X 9187   1.368   3.294   5.717  1.1494  1.5607 -0.0093
   94SAPC   H9Y 9188   1.309   3.459   5.658  0.0768 -0.2320 -1.8182
   94SAPC  C310 9189   1.310   3.295   5.515 -0.4718 -0.0842 -0.1922
   94SAPC  H10X 9190   1.272   3.191   5.527 -1.8539  0.3876 -0.3223
   94SAPC  H10Y 9191   1.413   3.302   5.472 -1.0696 -1.5243 -2.0057
   94SAPC  C311 9192   1.217   3.363   5.407  0.0903  0.1607  0.5035
   94SAPC  H11X 9193   1.235   3.472   5.391 -0.9158 -0.0832 -3.2682
   94SAPC  H11Y 9194   1.114   3.359   5.450  0.1865 -1.1867  0.6568
   94SAPC  C312 9195   1.228   3.303   5.271 -0.7745 -0.7108  0.5532
   94SAPC  H12X 9196   1.208   3.193   5.271 -1.9444 -0.5580 -1.2729
   94SAPC  H12Y 9197   1.323   3.332   5.222 -0.1552 -2.1170  0.8776
   94SAPC  C313 9198   1.119   3.347   5.178 -0.0066 -0.5913  0.4023
   94SAPC  H13X 9199   1.140   3.454   5.155  0.8136 -1.3632 -2.9965
   94SAPC  H13Y 9200   1.016   3.342   5.218 -0.6144 -2.6839 -1.2467
   94SAPC  C314 9201   1.118   3.259   5.049  0.5914 -0.3842  0.6694
   94SAPC  H14X 9202   1.090   3.154   5.076 -1.2757 -0.0635  0.0633
   94SAPC  H14Y 9203   1.219   3.263   5.003  0.1734  1.2006 -0.1592
   94SAPC  C315 9204   1.023   3.310   4.942 -0.6322 -0.0120  0.7198
   94SAPC  H15X 9205   1.028   3.421   4.939  1.1123 -0.0444  1.3647
   94SAPC  H15Y 9206   0.918   3.287   4.971 -0.5457 -0.3105  0.7903
   94SAPC  C316 9207   1.056   3.263   4.801  0.4068 -0.0533  0.0137
   94SAPC  H16X 9208   1.161   3.296   4.786  0.2111  0.8180  0.4388
   94SAPC  H16Y 9209   0.979   3.308   4.734  0.1875 -0.2351  0.1432
   94SAPC  C317 9210   1.045   3.112   4.782 -0.1185  0.2151  0.7736
   94SAPC  H17X 9211   1.120   3.049   4.835 -0.6107 -1.9172 -0.9001
   94SAPC  H17Y 9212   1.064   3.085   4.676  0.1648 -1.0981  1.1434
   94SAPC  C318 9213   0.906   3.056   4.803 -0.4956  0.0902 -0.0957
   94SAPC  H18X 9214   0.907   2.945   4.808  2.8914 -0.0427 -0.9787
   94SAPC  H18Y 9215   0.834   3.104   4.734  0.1308  1.2869  0.0608
   94SAPC  H18Z 9216   0.873   3.083   4.905  0.0984 -0.1447  0.1612
   95SAPC     N 9217   4.783   2.129   3.010 -0.0406 -0.1598 -0.3101
   95SAPC   C12 9218   4.717   2.214   3.119  0.1621 -0.2660 -0.5295
   95SAPC  H12A 9219   4.626   2.172   3.158  0.0539  0.2623 -0.2142
   95SAPC  H12B 9220   4.679   2.303   3.071 -1.7577 -1.0775 -0.6142
   95SAPC   C13 9221   4.674   2.072   2.925  0.3331 -0.3757  0.1314
   95SAPC  H13A 9222   4.636   2.157   2.870 -0.5648 -0.6795  0.2573
   95SAPC  H13B 9223   4.728   2.005   2.860  1.7498 -0.7043  1.5665
   95SAPC  H13C 9224   4.595   2.019   2.977 -0.3753 -0.3645 -0.9097
   95SAPC   C14 9225   4.876   2.213   2.926  0.7604 -0.1896  0.4078
   95SAPC  H14A 9226   4.955   2.157   2.878 -1.2417 -2.1177 -0.8734
   95SAPC  H14B 9227   4.828   2.270   2.848  0.8049  0.4342  0.8316
   95SAPC  H14C 9228   4.922   2.289   2.987  0.2065 -0.2379  0.8939
   95SAPC   C15 9229   4.860   2.018   3.076 -0.1152  0.1144  0.7016
   95SAPC  H15A 9230   4.896   1.947   3.003  0.6528  1.5711 -0.4199
   95SAPC  H15B 9231   4.943   2.049   3.137 -0.4608  0.5698  0.9433
   95SAPC  H15C 9232   4.797   1.965   3.146  0.4396  1.1779  2.0525
   95SAPC   C11 9233   4.804   2.259   3.242 -0.5373  0.3368 -0.3830
   95SAPC  H11A 9234   4.832   2.173   3.307 -1.0432  1.5003  1.4331
   95SAPC  H11B 9235   4.737   2.314   3.311 -0.3894 -1.1921  1.0416
   95SAPC     P 9236   5.059   2.304   3.258 -0.5566  0.0592 -0.3218
   95SAPC   O13 9237   5.105   2.163   3.254  0.0618 -0.1876 -0.0320
   95SAPC   O14 9238   5.153   2.389   3.187  0.0553 -0.2099  1.0071
   95SAPC   O12 9239   4.918   2.327   3.198 -0.1529  0.0901 -0.0661
   95SAPC   O11 9240   5.045   2.349   3.405 -0.6431  0.2656 -0.5217
   95SAPC    C1 9241   4.980   2.465   3.444 -0.0553  0.3806  0.0579
   95SAPC    HA 9242   5.011   2.545   3.374  1.0588  0.6409  0.8213
   95SAPC    HB 9243   4.871   2.445   3.437  0.3616 -1.9235 -0.7012
   95SAPC    C2 9244   5.032   2.535   3.577  0.7535  0.7305  0.5830
   95SAPC    HS 9245   4.951   2.604   3.610 -1.3373 -1.1103 -0.4579
   95SAPC   O21 9246   5.155   2.590   3.544 -0.0325 -0.7432  0.0509
   95SAPC   C21 9247   5.175   2.712   3.601  0.1122 -0.1767 -0.5390
   95SAPC   O22 9248   5.093   2.777   3.660  0.6166 -0.1629 -0.3058
   95SAPC   C22 9249   5.324   2.752   3.595  0.3240 -0.3318 -0.2987
   95SAPC   H2R 9250   5.357   2.765   3.490 -1.1514 -0.5369 -0.8014
   95SAPC   H2S 9251   5.330   2.853   3.643 -0.3730 -0.9428  1.1294
   95SAPC    C3 9252   5.036   2.436   3.693  0.6515 -0.2152 -0.7559
   95SAPC    HX 9253   5.131   2.381   3.677  0.2871 -0.7431 -1.1510
   95SAPC    HY 9254   4.952   2.364   3.687 -0.8815  1.2960  1.0974
   95SAPC   O31 9255   5.050   2.494   3.823 -0.7485 -0.5868 -0.4743
   95SAPC   C31 9256   4.949   2.549   3.884 -0.7357  0.5075  0.1710
   95SAPC   O32 9257   4.837   2.551   3.840  0.2338  0.5164  0.4306
   95SAPC   C32 9258   4.998   2.614   4.007 -0.1842 -0.2889  0.2375
   95SAPC   H2X 9259   5.080   2.685   3.985  1.6237 -2.2945  0.1936
   95SAPC   H2Y 9260   5.029   2.534   4.078  0.4671  1.2439  1.7535
   95SAPC   C23 9261   5.421   2.649   3.656  0.0301  0.3565 -0.8252
   95SAPC   H3R 9262   5.524   2.674   3.625  0.4042  0.9286  0.7773
   95SAPC   H3S 9263   5.394   2.549   3.617  1.3436 -0.2823 -0.1614
   95SAPC   C24 9264   5.426   2.630   3.809 -0.2723  0.2054 -0.4650
   95SAPC   H4R 9265   5.330   2.576   3.828 -0.5321  1.4141  2.1092
   95SAPC   H4S 9266   5.422   2.734   3.848  1.9008 -0.2452  1.1054
   95SAPC   C25 9267   5.528   2.548   3.876  0.2638 -0.2708  0.3217
   95SAPC   H5R 9268   5.626   2.578   3.835 -1.8195  5.2319 -1.5337
   95SAPC   C26 9269   5.526   2.462   3.975  0.1619 -0.5639 -0.2298
   95SAPC   H6R 9270   5.620   2.410   3.996  1.1296  1.3761  0.4202
   95SAPC   C27 9271   5.403   2.413   4.056 -0.0662  0.2769  0.1216
   95SAPC   H7R 9272   5.427   2.309   4.088  0.6110  0.1316 -0.8185
   95SAPC   H7S 9273   5.308   2.410   3.999  0.4821 -3.1686 -0.8581
   95SAPC   C28 9274   5.377   2.495   4.179 -0.0758 -0.2763 -0.1935
   95SAPC   H8R 9275   5.331   2.592   4.154  0.1256 -0.0081  0.4701
   95SAPC   C29 9276   5.418   2.466   4.305  0.0954  0.3272  0.0166
   95SAPC   H9R 9277   5.397   2.540   4.384  0.0660 -0.3814  0.6896
   95SAPC  C210 9278   5.488   2.338   4.358  0.5317 -0.6286  0.4048
   95SAPC  H10R 9279   5.556   2.366   4.442 -1.6864 -0.0758  2.0884
   95SAPC  H10S 9280   5.545   2.289   4.276  1.1605 -0.7500  0.9020
   95SAPC  C211 9281   5.394   2.233   4.397 -0.6279  0.0408  0.8925
   95SAPC  H11R 9282   5.348   2.183   4.311 -0.5200  1.0079  0.2613
   95SAPC  C212 9283   5.377   2.190   4.522  0.7388 -0.3651  0.0839
   95SAPC  H12R 9284   5.302   2.113   4.542  1.1918 -0.2634  2.4787
   95SAPC  C213 9285   5.442   2.251   4.644  0.1603  0.1395  0.4870
   95SAPC  H13R 9286   5.373   2.240   4.730 -0.5723  0.3115 -0.0714
   95SAPC  H13S 9287   5.467   2.359   4.648  3.8744 -0.5554  0.2094
   95SAPC  C214 9288   5.569   2.172   4.669 -0.3014 -0.7187 -0.5072
   95SAPC  H14R 9289   5.641   2.166   4.586 -0.2568 -0.2018 -0.5153
   95SAPC  C215 9290   5.616   2.124   4.783 -0.1918  0.0995 -0.2787
   95SAPC  H15R 9291   5.710   2.067   4.771  0.1505  0.8273 -1.1032
   95SAPC  C216 9292   5.573   2.123   4.926 -0.3095 -0.4976 -0.4123
   95SAPC  H16R 9293   5.528   2.025   4.955  1.8876 -1.0144  1.5410
   95SAPC  H16S 9294   5.499   2.205   4.935  0.7396  0.6619 -1.8669
   95SAPC  C217 9295   5.688   2.157   5.024 -0.3526  0.5540  0.0965
   95SAPC  H17R 9296   5.775   2.093   4.999 -1.6842 -0.0753 -3.5288
   95SAPC  H17S 9297   5.650   2.131   5.126  0.9082  0.1751  0.4842
   95SAPC  C218 9298   5.729   2.306   5.001 -0.0455 -0.3257  0.3588
   95SAPC  H18R 9299   5.731   2.324   4.891 -0.0650 -2.2019  0.0223
   95SAPC  H18S 9300   5.833   2.308   5.040  0.9021 -0.9692 -1.9907
   95SAPC  C219 9301   5.640   2.407   5.075  0.0168  0.5430  0.1635
   95SAPC  H19R 9302   5.610   2.362   5.172 -2.0539  1.1368 -0.1389
   95SAPC  H19S 9303   5.539   2.424   5.032 -0.4246 -0.0037  0.9682
   95SAPC  C220 9304   5.703   2.540   5.104  0.3757 -0.6713  0.1258
   95SAPC  H20R 9305   5.813   2.550   5.104  0.3106  0.4067 -1.1565
   95SAPC  H20S 9306   5.657   2.579   5.197 -1.3324  1.3053 -1.4123
   95SAPC  H20T 9307   5.673   2.621   5.033  0.4809  2.4944  3.4130
   95SAPC   C33 9308   4.883   2.694   4.078  0.0785 -0.2770 -0.8350
   95SAPC   H3X 9309   4.817   2.623   4.131 -0.1108 -0.1163 -0.8581
   95SAPC   H3Y 9310   4.817   2.739   4.001 -1.6146  1.0376  1.2900
   95SAPC   C34 9311   4.943   2.802   4.169 -0.2149  0.2846  0.7565
   95SAPC   H4X 9312   4.863   2.848   4.231 -0.0512  3.1689 -0.9548
   95SAPC   H4Y 9313   4.975   2.880   4.097 -0.9574 -0.7905 -0.7967
   95SAPC   C35 9314   5.058   2.766   4.267 -0.2299 -0.0607  0.5749
   95SAPC   H5X 9315   5.095   2.858   4.317  3.3758 -1.0779  0.0187
   95SAPC   H5Y 9316   5.141   2.720   4.210 -2.5831 -3.9623 -0.0906
   95SAPC   C36 9317   5.007   2.678   4.378 -0.0570  0.4258 -0.4623
   95SAPC   H6X 9318   4.968   2.585   4.330  1.8450 -1.0874  0.7875
   95SAPC   H6Y 9319   4.919   2.725   4.426 -2.5407 -1.9799 -2.3740
   95SAPC   C37 9320   5.106   2.621   4.475  0.0526 -0.5607 -0.7256
   95SAPC   H7X 9321   5.144   2.702   4.541  1.1116 -1.9181  0.4093
   95SAPC   H7Y 9322   5.201   2.591   4.425  0.5782 -0.0453 -0.0565
   95SAPC   C38 9323   5.061   2.504   4.554 -0.3299  0.6379 -0.7991
   95SAPC   H8X 9324   5.150   2.439   4.574 -0.2935  1.0332  0.3924
   95SAPC   H8Y 9325   4.991   2.438   4.499  0.7091 -1.4905  0.2896
   95SAPC   C39 9326   4.997   2.545   4.692  0.2063  0.0110 -1.0591
   95SAPC   H9X 9327   4.922   2.626   4.677 -1.5178 -1.3514 -0.1160
   95SAPC   H9Y 9328   5.081   2.583   4.754 -1.7970  1.1763  1.0959
   95SAPC  C310 9329   4.946   2.418   4.762 -0.3036  0.1379 -1.0508
   95SAPC  H10X 9330   4.857   2.383   4.705 -0.3177  0.9941 -1.5734
   95SAPC  H10Y 9331   4.916   2.446   4.865  0.7878 -1.7942 -0.1507
   95SAPC  C311 9332   5.043   2.299   4.763 -0.1123  0.3614 -1.1627
   95SAPC  H11X 9333   5.142   2.341   4.792 -0.2245  0.6194 -1.1493
   95SAPC  H11Y 9334   5.065   2.257   4.663  0.5327 -0.5329 -0.6590
   95SAPC  C312 9335   5.001   2.178   4.854 -0.2228  0.6410  0.3981
   95SAPC  H12X 9336   4.910   2.139   4.804 -0.7732  1.7372  0.5111
   95SAPC  H12Y 9337   4.961   2.210   4.953 -0.7957  1.0854  0.0282
   95SAPC  C313 9338   5.115   2.088   4.870  0.3901  0.5643  0.8636
   95SAPC  H13X 9339   5.194   2.151   4.917  4.2694 -1.3550 -2.4709
   95SAPC  H13Y 9340   5.155   2.062   4.769  1.3549  1.7537  0.9063
   95SAPC  C314 9341   5.091   1.965   4.959 -0.3545 -0.3540 -0.1955
   95SAPC  H14X 9342   5.171   1.891   4.938 -1.4911 -1.4496 -0.8012
   95SAPC  H14Y 9343   4.994   1.922   4.926  0.2062 -1.8767  0.0550
   95SAPC  C315 9344   5.082   1.996   5.106 -0.5696  0.1196  0.0245
   95SAPC  H15X 9345   4.984   2.037   5.138 -0.6863 -0.4448  0.3842
   95SAPC  H15Y 9346   5.162   2.069   5.131 -1.1644 -0.2350  3.3902
   95SAPC  C316 9347   5.112   1.882   5.205  0.0601 -0.4013 -0.0300
   95SAPC  H16X 9348   5.083   1.787   5.157 -0.5435 -0.8602  1.1916
   95SAPC  H16Y 9349   5.055   1.884   5.301 -0.2718  0.1616 -0.2306
   95SAPC  C317 9350   5.260   1.880   5.264 -0.2111 -0.0254  0.0926
   95SAPC  H17X 9351   5.274   1.965   5.335 -0.9545 -0.1522  0.3999
   95SAPC  H17Y 9352   5.324   1.887   5.173 -0.7433 -3.2385 -0.6549
   95SAPC  C318 9353   5.289   1.746   5.345  0.4156 -0.0913 -0.0489
   95SAPC  H18X 9354   5.220   1.749   5.432 -2.3530  1.9957 -2.1411
   95SAPC  H18Y 9355   5.395   1.757   5.376  0.7431 -1.4523 -0.5951
   95SAPC  H18Z 9356   5.283   1.651   5.288 -0.1057 -0.5679  0.7832
   96SAPC     N 9357   5.870   5.187   2.693 -0.4474  0.2771  0.3200
   96SAPC   C12 9358   5.770   5.287   2.749 -0.3805  0.6646  0.5794
   96SAPC  H12A 9359   5.726   5.249   2.840  0.4631 -2.4942 -0.2083
   96SAPC  H12B 9360   5.694   5.297   2.672  1.0456 -1.2792 -1.1758
   96SAPC   C13 9361   5.948   5.259   2.587 -1.5214  0.2483  0.2567
   96SAPC  H13A 9362   5.891   5.324   2.522  2.0113  3.4135  0.0069
   96SAPC  H13B 9363   6.019   5.327   2.632 -0.4549  1.6601 -3.2185
   96SAPC  H13C 9364   6.007   5.194   2.524 -1.0146 -1.2836  2.1993
   96SAPC   C14 9365   5.962   5.139   2.797 -0.4272  0.3711 -0.4356
   96SAPC  H14A 9366   5.902   5.085   2.869  1.5099 -1.3199 -0.0100
   96SAPC  H14B 9367   6.042   5.077   2.759  0.2422 -0.9859  2.8384
   96SAPC  H14C 9368   6.001   5.224   2.851 -0.2169  0.2187 -0.3454
   96SAPC   C15 9369   5.800   5.072   2.616  0.3296 -0.3938 -0.2569
   96SAPC  H15A 9370   5.879   5.005   2.587  1.5361 -0.0805  2.0519
   96SAPC  H15B 9371   5.735   5.019   2.685  0.3328 -0.1189 -0.0410
   96SAPC  H15C 9372   5.752   5.106   2.525  1.0255  1.6303  0.0774
   96SAPC   C11 9373   5.820   5.432   2.779 -0.2900  0.0927  0.6545
   96SAPC  H11A 9374   5.737   5.480   2.836  0.0162  0.1873  1.0263
   96SAPC  H11B 9375   5.830   5.491   2.685  0.4279  0.1976  0.7896
   96SAPC     P 9376   5.949   5.422   3.016  0.0089 -0.2694 -0.1125
   96SAPC   O13 9377   5.841   5.327   3.053 -0.3097  0.0821  0.0181
   96SAPC   O14 9378   6.090   5.385   3.051 -0.2595 -0.3722 -0.7533
   96SAPC   O12 9379   5.940   5.437   2.854 -0.4469  0.8361  0.3604
   96SAPC   O11 9380   5.915   5.573   3.057 -0.1765 -0.4363  0.1589
   96SAPC    C1 9381   5.795   5.606   3.131  0.3844  0.0310  0.0269
   96SAPC    HA 9382   5.786   5.711   3.097  0.1335  0.0938  0.2857
   96SAPC    HB 9383   5.707   5.548   3.096 -0.8401 -0.0529  2.9602
   96SAPC    C2 9384   5.823   5.619   3.284 -0.3106  0.7826  0.5476
   96SAPC    HS 9385   5.770   5.702   3.333  1.0337  1.7168  0.4786
   96SAPC   O21 9386   5.971   5.616   3.314 -0.2706 -0.3375  0.5157
   96SAPC   C21 9387   6.024   5.729   3.312 -0.1847  0.2187  0.9884
   96SAPC   O22 9388   5.972   5.830   3.262  0.6217  0.1626 -0.4390
   96SAPC   C22 9389   6.162   5.735   3.365 -0.9919 -0.0938 -0.0583
   96SAPC   H2R 9390   6.183   5.633   3.403 -1.1420 -0.0772  0.0708
   96SAPC   H2S 9391   6.230   5.740   3.277 -0.6408 -0.5102  0.1894
   96SAPC    C3 9392   5.768   5.490   3.355 -0.2568  0.2235 -0.1800
   96SAPC    HX 9393   5.822   5.407   3.304 -0.2082 -0.1655  0.4936
   96SAPC    HY 9394   5.659   5.481   3.334 -0.1106 -0.8219 -0.5298
   96SAPC   O31 9395   5.785   5.501   3.499  0.2706  0.0741  0.0726
   96SAPC   C31 9396   5.877   5.429   3.551 -1.2663  0.0306 -0.4372
   96SAPC   O32 9397   5.954   5.352   3.489 -0.1227 -0.4696  0.1371
   96SAPC   C32 9398   5.879   5.443   3.703  0.2473  0.0325  0.4733
   96SAPC   H2X 9399   5.777   5.418   3.741 -0.7961  0.2476 -2.0225
   96SAPC   H2Y 9400   5.894   5.549   3.733 -0.6068  0.2005  0.3434
   96SAPC   C23 9401   6.210   5.846   3.459  0.0461 -0.7475  0.2624
   96SAPC   H3R 9402   6.180   5.939   3.405 -0.9645 -1.7801 -1.0246
   96SAPC   H3S 9403   6.321   5.852   3.467 -0.0918  3.1619  1.4011
   96SAPC   C24 9404   6.128   5.849   3.584 -0.1287 -0.1894 -0.5934
   96SAPC   H4R 9405   6.023   5.848   3.551 -0.4872 -1.9427  0.4468
   96SAPC   H4S 9406   6.133   5.940   3.648  0.1393 -0.9821  0.5506
   96SAPC   C25 9407   6.151   5.718   3.656 -0.6998  0.0876 -0.4844
   96SAPC   H5R 9408   6.095   5.633   3.615 -0.3981  0.4377 -1.6641
   96SAPC   C26 9409   6.216   5.699   3.773  0.1132 -0.3739  0.8012
   96SAPC   H6R 9410   6.221   5.595   3.807  1.4054 -1.3930 -2.1197
   96SAPC   C27 9411   6.275   5.805   3.864  0.0281  0.4447  0.1229
   96SAPC   H7R 9412   6.322   5.891   3.812  0.9530 -0.6956 -0.9843
   96SAPC   H7S 9413   6.359   5.759   3.921  1.4827  1.0622 -1.4372
   96SAPC   C28 9414   6.159   5.860   3.940 -0.2438  0.4918  0.3291
   96SAPC   H8R 9415   6.129   5.955   3.896  2.7885  0.6261 -1.7353
   96SAPC   C29 9416   6.114   5.821   4.060 -0.6649  0.2301 -0.5198
   96SAPC   H9R 9417   6.019   5.863   4.096 -1.1192 -1.2309  0.0372
   96SAPC  C210 9418   6.170   5.703   4.142  0.1194  0.4324  0.0490
   96SAPC  H10R 9419   6.222   5.635   4.071 -2.8542 -1.4616 -0.5177
   96SAPC  H10S 9420   6.085   5.642   4.180  1.1778 -2.0698 -1.3367
   96SAPC  C211 9421   6.279   5.731   4.242 -0.0625 -0.5008 -0.1214
   96SAPC  H11R 9422   6.349   5.804   4.200 -1.5381  0.2269 -1.4560
   96SAPC  C212 9423   6.279   5.691   4.370  0.3252  0.0919 -0.0408
   96SAPC  H12R 9424   6.371   5.708   4.428  0.2098 -0.6354  0.3598
   96SAPC  C213 9425   6.185   5.588   4.435 -0.0433 -0.3461 -0.3414
   96SAPC  H13R 9426   6.082   5.607   4.400 -1.1164 -1.6443  1.8604
   96SAPC  H13S 9427   6.182   5.613   4.543 -0.1809 -1.4741 -0.0671
   96SAPC  C214 9428   6.222   5.440   4.420  1.2668 -0.1567 -0.0333
   96SAPC  H14R 9429   6.139   5.383   4.376  1.6690 -0.9051  0.1645
   96SAPC  C215 9430   6.331   5.370   4.460  0.1618  0.3614  0.2456
   96SAPC  H15R 9431   6.329   5.266   4.424 -0.7338  0.0429  1.1746
   96SAPC  C216 9432   6.464   5.414   4.516  0.7058  0.0523  0.4409
   96SAPC  H16R 9433   6.504   5.331   4.578 -1.3429 -2.4772 -1.3803
   96SAPC  H16S 9434   6.461   5.513   4.566 -1.8414  0.0047  0.5505
   96SAPC  C217 9435   6.558   5.429   4.401 -0.1574  0.5005  0.3944
   96SAPC  H17R 9436   6.550   5.524   4.344 -0.8141 -1.0727 -2.3201
   96SAPC  H17S 9437   6.547   5.346   4.328  0.1248 -1.6574  2.6806
   96SAPC  C218 9438   6.708   5.440   4.455 -0.5255  0.2428  0.1050
   96SAPC  H18R 9439   6.723   5.368   4.538 -0.9352 -0.3550 -0.3331
   96SAPC  H18S 9440   6.721   5.543   4.495  1.6850  1.3203 -2.9835
   96SAPC  C219 9441   6.805   5.408   4.343  0.2806  0.2927 -0.3696
   96SAPC  H19R 9442   6.787   5.486   4.266 -0.9680 -0.1086 -0.4984
   96SAPC  H19S 9443   6.761   5.313   4.307  0.4371 -1.0193  2.6292
   96SAPC  C220 9444   6.956   5.413   4.376 -0.1762 -0.1449 -0.3163
   96SAPC  H20R 9445   6.979   5.322   4.435 -0.6454 -1.3434 -1.9004
   96SAPC  H20S 9446   6.973   5.508   4.431 -0.0248  0.9176 -2.0917
   96SAPC  H20T 9447   7.023   5.414   4.287  1.3042  0.2745  0.7840
   96SAPC   C33 9448   5.989   5.355   3.769  0.0928  0.2654  0.6725
   96SAPC   H3X 9449   6.085   5.379   3.718  0.3496 -1.7583  0.1364
   96SAPC   H3Y 9450   5.964   5.250   3.744 -0.9160  0.6940 -0.2065
   96SAPC   C34 9451   6.021   5.385   3.914 -0.2943  0.1370 -0.0874
   96SAPC   H4X 9452   6.022   5.496   3.923 -0.8280  0.3183 -1.8364
   96SAPC   H4Y 9453   6.116   5.341   3.951 -0.0719  0.2952 -0.4711
   96SAPC   C35 9454   5.902   5.321   3.987 -0.3030  0.8270  0.5573
   96SAPC   H5X 9455   5.884   5.218   3.950  1.2566  0.7486 -0.0507
   96SAPC   H5Y 9456   5.815   5.387   3.970 -0.8083 -0.1127 -0.5767
   96SAPC   C36 9457   5.922   5.314   4.139 -0.1351 -0.7210 -0.0340
   96SAPC   H6X 9458   5.959   5.411   4.179 -0.1243 -0.2679 -1.1072
   96SAPC   H6Y 9459   6.002   5.238   4.151  0.6591 -0.2411 -1.8581
   96SAPC   C37 9460   5.799   5.270   4.211  0.1158  0.2346  1.1015
   96SAPC   H7X 9461   5.706   5.326   4.191 -1.8998 -3.2061 -0.0266
   96SAPC   H7Y 9462   5.834   5.268   4.316  0.0548  0.5231  1.1285
   96SAPC   C38 9463   5.744   5.131   4.168 -0.1660 -0.4634  0.5524
   96SAPC   H8X 9464   5.828   5.060   4.178 -0.3388 -0.7653 -0.1010
   96SAPC   H8Y 9465   5.712   5.137   4.062  0.3889 -1.7653  0.2911
   96SAPC   C39 9466   5.628   5.080   4.251  0.6582 -0.2701  0.1497
   96SAPC   H9X 9467   5.614   4.971   4.234 -0.1426 -0.1476 -0.0041
   96SAPC   H9Y 9468   5.544   5.143   4.216  2.3989  1.5575 -1.0132
   96SAPC  C310 9469   5.656   5.090   4.403  0.3477  0.1599  0.1635
   96SAPC  H10X 9470   5.678   5.194   4.433  0.7594  0.0785  0.1442
   96SAPC  H10Y 9471   5.753   5.042   4.426 -0.1449 -1.1268 -0.3445
   96SAPC  C311 9472   5.549   5.028   4.485  0.2839  0.5007  0.6485
   96SAPC  H11X 9473   5.455   5.036   4.425 -0.7317 -5.2987  0.8724
   96SAPC  H11Y 9474   5.530   5.086   4.578 -2.0264 -0.3146  0.7742
   96SAPC  C312 9475   5.559   4.876   4.497 -0.1111 -0.2864 -0.0158
   96SAPC  H12X 9476   5.557   4.828   4.397 -1.1899  0.5729 -0.4241
   96SAPC  H12Y 9477   5.474   4.839   4.558  1.3989 -2.0719  1.1159
   96SAPC  C313 9478   5.677   4.834   4.579  0.6972 -0.2905  0.8600
   96SAPC  H13X 9479   5.682   4.888   4.676 -0.0403 -0.9532  1.2724
   96SAPC  H13Y 9480   5.773   4.860   4.529  0.4541 -0.4188  0.3169
   96SAPC  C314 9481   5.679   4.685   4.607  0.2811  0.2920  0.9924
   96SAPC  H14X 9482   5.651   4.612   4.528  1.4280  0.0038  0.8270
   96SAPC  H14Y 9483   5.605   4.663   4.686 -0.0404  0.5271  0.7583
   96SAPC  C315 9484   5.810   4.634   4.669 -0.4962  0.0459 -0.3683
   96SAPC  H15X 9485   5.821   4.683   4.769 -3.0311  0.7514 -0.3735
   96SAPC  H15Y 9486   5.899   4.667   4.613 -0.1645 -2.1909 -1.2720
   96SAPC  C316 9487   5.803   4.478   4.683 -0.5845 -0.0991 -0.0134
   96SAPC  H16X 9488   5.750   4.445   4.590  1.4299  0.4466 -1.4134
   96SAPC  H16Y 9489   5.752   4.452   4.778 -1.1743  1.9118  0.2793
   96SAPC  C317 9490   5.940   4.412   4.665  0.0919 -0.9968  0.2886
   96SAPC  H17X 9491   6.009   4.451   4.743  0.0981 -0.8594  0.2138
   96SAPC  H17Y 9492   5.986   4.457   4.574  0.9745  0.3526  1.3649
   96SAPC  C318 9493   5.948   4.257   4.671  0.8179  0.1125  0.6092
   96SAPC  H18X 9494   5.904   4.232   4.770 -2.0095  3.8741  0.5542
   96SAPC  H18Y 9495   6.047   4.207   4.670  1.0079  0.4181  1.9021
   96SAPC  H18Z 9496   5.890   4.203   4.592  1.4518  0.3569 -0.0380
   97SAPC     N 9497   4.672   4.021   3.326  0.1547  0.2045 -0.1918
   97SAPC   C12 9498   4.619   4.147   3.401  1.0634  0.0302  0.0237
   97SAPC  H12A 9499   4.579   4.214   3.326  0.0957 -0.3076  0.2172
   97SAPC  H12B 9500   4.702   4.206   3.437  2.5359 -2.1689  0.3997
   97SAPC   C13 9501   4.773   4.061   3.218  1.0516 -0.0483  0.2235
   97SAPC  H13A 9502   4.779   3.973   3.155  0.5163 -0.7547  1.1167
   97SAPC  H13B 9503   4.732   4.142   3.160 -2.7514 -2.1578 -0.4442
   97SAPC  H13C 9504   4.871   4.083   3.257 -0.1982  0.9360  3.0920
   97SAPC   C14 9505   4.730   3.929   3.424 -0.3588  0.1603  0.5182
   97SAPC  H14A 9506   4.660   3.923   3.507 -2.3265  0.8723 -1.0102
   97SAPC  H14B 9507   4.746   3.835   3.373  3.3524 -0.0963  1.8598
   97SAPC  H14C 9508   4.818   3.968   3.472 -0.5167  1.3911 -0.1536
   97SAPC   C15 9509   4.564   3.960   3.251  0.4526  0.9822  0.7127
   97SAPC  H15A 9510   4.604   3.881   3.189  1.9875  1.4738  1.0402
   97SAPC  H15B 9511   4.499   3.922   3.329 -0.2987  1.0164  0.1128
   97SAPC  H15C 9512   4.504   4.030   3.194  0.2973 -0.2226 -0.6605
   97SAPC   C11 9513   4.509   4.133   3.512 -0.1787  0.1428  0.7652
   97SAPC  H11A 9514   4.491   4.235   3.552  0.8224  1.0487 -0.9598
   97SAPC  H11B 9515   4.543   4.073   3.599  0.4416 -1.3940 -0.4682
   97SAPC     P 9516   4.267   4.143   3.385 -0.1454  0.4322  0.2631
   97SAPC   O13 9517   4.310   4.189   3.257  0.6057  0.7326 -0.2031
   97SAPC   O14 9518   4.153   4.043   3.387 -0.0726 -0.2588  0.1167
   97SAPC   O12 9519   4.389   4.070   3.462  0.0658  0.0507 -0.0301
   97SAPC   O11 9520   4.246   4.267   3.475  0.4373  0.1735 -0.7391
   97SAPC    C1 9521   4.138   4.284   3.561  0.2506  1.3097  0.5111
   97SAPC    HA 9522   4.105   4.391   3.559  1.4773  1.6980 -0.7152
   97SAPC    HB 9523   4.047   4.227   3.531  0.8634  0.6023 -0.0542
   97SAPC    C2 9524   4.157   4.239   3.712  0.2871  0.3491  0.4834
   97SAPC    HS 9525   4.069   4.282   3.765  0.4180  1.8725 -0.4850
   97SAPC   O21 9526   4.284   4.280   3.773  0.3373 -0.8027 -0.1706
   97SAPC   C21 9527   4.302   4.406   3.776  0.2038 -1.1778 -0.2841
   97SAPC   O22 9528   4.218   4.489   3.748 -1.1720 -0.0724 -0.5426
   97SAPC   C22 9529   4.449   4.430   3.821  0.6553  0.2224  0.4519
   97SAPC   H2R 9530   4.503   4.335   3.841  0.3255 -0.2049 -0.5826
   97SAPC   H2S 9531   4.493   4.491   3.738  0.4112  2.0336  1.5997
   97SAPC    C3 9532   4.162   4.083   3.744 -0.2686  0.2822 -1.0225
   97SAPC    HX 9533   4.250   4.033   3.697  0.0579  1.6051 -1.8582
   97SAPC    HY 9534   4.076   4.038   3.691  0.2906  0.0040 -1.7136
   97SAPC   O31 9535   4.151   4.063   3.884  0.4856 -0.1074  0.4658
   97SAPC   C31 9536   4.262   4.026   3.947 -0.0724 -0.1903  0.4100
   97SAPC   O32 9537   4.371   4.010   3.897  0.3503 -0.3075  0.3221
   97SAPC   C32 9538   4.236   4.001   4.093  0.3653 -0.6213 -0.4815
   97SAPC   H2X 9539   4.209   3.893   4.098  0.0731 -0.4962  1.8514
   97SAPC   H2Y 9540   4.157   4.071   4.126 -1.6105 -3.2945  0.8559
   97SAPC   C23 9541   4.461   4.526   3.939  0.4365  0.1356  0.2975
   97SAPC   H3R 9542   4.402   4.620   3.929  1.6990  0.9029 -0.1616
   97SAPC   H3S 9543   4.567   4.553   3.957  0.6044 -0.2807 -0.0526
   97SAPC   C24 9544   4.416   4.458   4.070  0.2097 -0.5676  0.8127
   97SAPC   H4R 9545   4.468   4.360   4.072  1.9503  0.3153  1.1942
   97SAPC   H4S 9546   4.312   4.424   4.052 -0.0561  1.4965 -2.3160
   97SAPC   C25 9547   4.440   4.536   4.194  0.2058  0.2850 -0.1332
   97SAPC   H5R 9548   4.542   4.563   4.225 -0.0568 -0.0407  1.1122
   97SAPC   C26 9549   4.349   4.542   4.289  0.9202 -0.4097 -0.3346
   97SAPC   H6R 9550   4.371   4.602   4.379 -1.0339 -1.5409  0.9883
   97SAPC   C27 9551   4.202   4.496   4.281 -0.2991 -0.5278  0.2196
   97SAPC   H7R 9552   4.160   4.451   4.188 -0.4905 -1.7761  0.8900
   97SAPC   H7S 9553   4.129   4.579   4.289 -0.6555 -0.7595 -0.5289
   97SAPC   C28 9554   4.160   4.400   4.384 -0.2738  0.0022  0.5971
   97SAPC   H8R 9555   4.163   4.295   4.353 -1.0936  1.1673 -4.1918
   97SAPC   C29 9556   4.113   4.438   4.505  0.1251 -0.1808 -0.4588
   97SAPC   H9R 9557   4.070   4.354   4.561  0.4741  0.3726  0.6578
   97SAPC  C210 9558   4.097   4.573   4.566  0.1219 -0.6432 -0.4596
   97SAPC  H10R 9559   4.022   4.560   4.648 -0.9408 -2.1407 -1.6198
   97SAPC  H10S 9560   4.040   4.644   4.502 -1.1584 -1.8085 -0.6602
   97SAPC  C211 9561   4.219   4.641   4.625 -0.7726  0.1167  0.7636
   97SAPC  H11R 9562   4.305   4.574   4.611 -1.6612 -0.8345 -0.4154
   97SAPC  C212 9563   4.233   4.743   4.710  0.0576 -0.6373  0.1493
   97SAPC  H12R 9564   4.338   4.773   4.723 -0.3274  0.7162  0.2628
   97SAPC  C213 9565   4.127   4.839   4.752 -0.6924  0.3945 -0.6191
   97SAPC  H13R 9566   4.044   4.830   4.679 -0.4601  0.3103 -0.8760
   97SAPC  H13S 9567   4.175   4.939   4.748  1.0411 -0.1274  2.7864
   97SAPC  C214 9568   4.084   4.813   4.894  0.2695  0.5113  0.1745
   97SAPC  H14R 9569   4.016   4.728   4.910 -0.2574  0.8938  0.0327
   97SAPC  C215 9570   4.106   4.891   5.001 -0.2437  0.6732  0.3421
   97SAPC  H15R 9571   4.060   4.865   5.097 -1.8889 -0.4289 -0.6962
   97SAPC  C216 9572   4.183   5.020   5.004  0.2822  0.2823  0.3137
   97SAPC  H16R 9573   4.207   5.054   4.901 -2.7909 -0.9082 -0.9142
   97SAPC  H16S 9574   4.272   5.009   5.070 -0.0416 -0.2766  0.6713
   97SAPC  C217 9575   4.116   5.141   5.080 -0.6871 -0.2699  0.0688
   97SAPC  H17R 9576   4.092   5.113   5.185 -1.5638 -2.9219 -0.7621
   97SAPC  H17S 9577   4.014   5.160   5.039 -0.0830  2.3570 -0.3974
   97SAPC  C218 9578   4.196   5.278   5.096 -0.9875  1.1805  0.7421
   97SAPC  H18R 9579   4.240   5.291   4.995 -0.2347 -2.2997  0.5021
   97SAPC  H18S 9580   4.277   5.258   5.169 -1.0815  0.2447  0.5959
   97SAPC  C219 9581   4.101   5.385   5.136  0.4888  0.0292 -0.1102
   97SAPC  H19R 9582   4.025   5.380   5.056 -0.3824 -0.2938  0.7189
   97SAPC  H19S 9583   4.171   5.472   5.134 -1.6267  1.8395  0.3228
   97SAPC  C220 9584   4.040   5.397   5.268  0.4324  0.3904 -0.2474
   97SAPC  H20R 9585   3.990   5.494   5.288  0.9795  0.5165  0.5855
   97SAPC  H20S 9586   4.122   5.395   5.343  0.8051 -2.8610 -0.5943
   97SAPC  H20T 9587   3.981   5.307   5.295  2.5208 -0.9833 -0.0071
   97SAPC   C33 9588   4.367   4.026   4.180  0.3270  0.1684 -0.0310
   97SAPC   H3X 9589   4.401   4.129   4.153 -0.0317  0.2200 -0.2885
   97SAPC   H3Y 9590   4.443   3.956   4.139 -0.5116 -0.3358 -0.7517
   97SAPC   C34 9591   4.347   4.006   4.325  0.3357  0.1519 -0.2324
   97SAPC   H4X 9592   4.354   3.899   4.354 -2.9722 -0.2836 -0.5968
   97SAPC   H4Y 9593   4.242   4.038   4.345  0.5186 -0.1537  1.3480
   97SAPC   C35 9594   4.450   4.076   4.414  0.2517 -0.3304  0.2971
   97SAPC   H5X 9595   4.460   4.186   4.401  0.8467 -0.1115  2.2751
   97SAPC   H5Y 9596   4.547   4.023   4.416  0.3853 -0.2872 -2.0261
   97SAPC   C36 9597   4.407   4.071   4.557 -0.0512 -0.1021  0.7572
   97SAPC   H6X 9598   4.397   3.961   4.571 -0.6431 -0.4310 -1.8050
   97SAPC   H6Y 9599   4.306   4.114   4.574 -0.1531  0.6987 -1.5234
   97SAPC   C37 9600   4.516   4.120   4.654  0.3276 -0.0149  0.1550
   97SAPC   H7X 9601   4.615   4.082   4.621  1.1363  0.0269  2.3561
   97SAPC   H7Y 9602   4.490   4.071   4.750  1.4357  0.0996  0.5162
   97SAPC   C38 9603   4.516   4.274   4.676  0.2162 -0.0502 -0.2054
   97SAPC   H8X 9604   4.419   4.288   4.729  1.7679  0.5661  2.6954
   97SAPC   H8Y 9605   4.519   4.330   4.580 -3.3382 -0.4507 -0.6944
   97SAPC   C39 9606   4.623   4.316   4.775 -0.8291 -0.5037 -0.1812
   97SAPC   H9X 9607   4.717   4.274   4.734 -1.5255 -2.4768  0.1109
   97SAPC   H9Y 9608   4.593   4.262   4.868 -2.9248 -0.1529 -0.5968
   97SAPC  C310 9609   4.631   4.465   4.774 -0.0945 -0.4760 -0.2702
   97SAPC  H10X 9610   4.617   4.499   4.669  3.1249 -2.5272 -1.5201
   97SAPC  H10Y 9611   4.735   4.493   4.800  0.0440 -0.6806 -0.5948
   97SAPC  C311 9612   4.537   4.540   4.877  0.0247  0.5942  0.2784
   97SAPC  H11X 9613   4.444   4.479   4.885  0.9282 -0.6864  1.3809
   97SAPC  H11Y 9614   4.514   4.641   4.837  0.9350  0.7666  0.1673
   97SAPC  C312 9615   4.601   4.570   5.013 -0.2414  0.0734  0.8113
   97SAPC  H12X 9616   4.669   4.656   4.996 -0.5170 -0.1709 -2.0797
   97SAPC  H12Y 9617   4.659   4.481   5.044  1.2937  1.3230  1.6058
   97SAPC  C313 9618   4.496   4.594   5.119 -0.1165  0.2115 -0.5913
   97SAPC  H13X 9619   4.545   4.611   5.217  0.8618  1.6841 -1.3078
   97SAPC  H13Y 9620   4.429   4.505   5.120  1.2720 -0.8751 -0.4420
   97SAPC  C314 9621   4.418   4.732   5.107  0.7725 -0.0431 -0.0464
   97SAPC  H14X 9622   4.345   4.721   5.024 -0.6235 -0.4126  1.1729
   97SAPC  H14Y 9623   4.488   4.817   5.095 -1.1172  1.2736 -2.8638
   97SAPC  C315 9624   4.337   4.770   5.235 -0.2482  0.3484 -0.2267
   97SAPC  H15X 9625   4.262   4.847   5.208 -1.0599 -0.2839  0.1836
   97SAPC  H15Y 9626   4.407   4.797   5.317  0.4921  0.0646 -0.7591
   97SAPC  C316 9627   4.246   4.653   5.286 -0.0446  0.0442 -0.5667
   97SAPC  H16X 9628   4.310   4.568   5.316 -1.1304 -0.8761 -0.8124
   97SAPC  H16Y 9629   4.182   4.618   5.203 -0.6031  0.8386 -0.4812
   97SAPC  C317 9630   4.173   4.688   5.417 -0.1614  0.8701 -0.1632
   97SAPC  H17X 9631   4.111   4.780   5.428 -2.3026 -0.6541  1.4755
   97SAPC  H17Y 9632   4.247   4.694   5.499  0.1044  0.8916 -0.4047
   97SAPC  C318 9633   4.080   4.568   5.449  0.7849  0.3051 -0.2690
   97SAPC  H18X 9634   4.008   4.558   5.364  1.2615  1.8011 -0.8892
   97SAPC  H18Y 9635   4.028   4.586   5.545 -0.8366  2.0009 -1.3925
   97SAPC  H18Z 9636   4.139   4.474   5.451 -0.6443 -0.6077  1.8167
   98SAPC     N 9637   0.379   1.418   2.620  0.6429  0.1032  0.1130
   98SAPC   C12 9638   0.358   1.441   2.768  0.1397 -0.5679  0.9872
   98SAPC  H12A 9639   0.288   1.523   2.779  0.2923 -0.1958 -0.5553
   98SAPC  H12B 9640   0.452   1.469   2.813  0.5693 -1.0019  0.3615
   98SAPC   C13 9641   0.262   1.344   2.554 -0.3791 -0.2937  0.0256
   98SAPC  H13A 9642   0.274   1.328   2.448 -1.6056  2.3640 -0.5928
   98SAPC  H13B 9643   0.245   1.247   2.599  1.4820 -0.2346  0.9462
   98SAPC  H13C 9644   0.171   1.401   2.550  0.4736  1.0734 -0.7954
   98SAPC   C14 9645   0.401   1.554   2.554 -0.1761 -0.6417 -0.2651
   98SAPC  H14A 9646   0.409   1.527   2.450 -0.8014 -2.6529  0.1701
   98SAPC  H14B 9647   0.318   1.623   2.552  0.8605  0.7165  0.9785
   98SAPC  H14C 9648   0.482   1.618   2.588 -0.8569  0.4361 -0.6123
   98SAPC   C15 9649   0.500   1.339   2.594 -0.0873  0.4325 -0.0337
   98SAPC  H15A 9650   0.590   1.391   2.620  0.0411  0.1256  0.1384
   98SAPC  H15B 9651   0.498   1.241   2.639 -0.2912  1.3330  2.0443
   98SAPC  H15C 9652   0.511   1.313   2.490 -0.6267  0.0809 -0.0084
   98SAPC   C11 9653   0.302   1.327   2.851  1.0365  1.2156  0.0818
   98SAPC  H11A 9654   0.201   1.300   2.814  0.4157  0.2590  2.3334
   98SAPC  H11B 9655   0.294   1.355   2.958  1.3150  2.3598 -0.1793
   98SAPC     P 9656   0.359   1.063   2.874  0.2706  0.3414  0.0093
   98SAPC   O13 9657   0.252   1.014   2.784  0.6305  0.1536 -0.2691
   98SAPC   O14 9658   0.488   0.986   2.860  0.2608  0.1288 -0.4217
   98SAPC   O12 9659   0.385   1.216   2.841  0.3381  0.0691  0.2808
   98SAPC   O11 9660   0.309   1.065   3.023  0.6706  0.0197  0.2521
   98SAPC    C1 9661   0.394   1.093   3.136  0.4170 -0.2360  0.1148
   98SAPC    HA 9662   0.470   1.014   3.155  0.0939 -0.3197  1.1509
   98SAPC    HB 9663   0.449   1.189   3.122  2.7637 -1.6583 -1.0100
   98SAPC    C2 9664   0.303   1.100   3.262  1.5292  0.4407  0.5909
   98SAPC    HS 9665   0.361   1.138   3.349  0.1612  1.9344  0.8954
   98SAPC   O21 9666   0.240   0.966   3.286  0.3195  0.7439 -0.6334
   98SAPC   C21 9667   0.309   0.876   3.345 -0.7659 -0.6041 -0.1564
   98SAPC   O22 9668   0.421   0.890   3.397  0.9852  0.3781  0.0429
   98SAPC   C22 9669   0.219   0.745   3.362  0.2181  0.0415 -0.5964
   98SAPC   H2R 9670   0.154   0.728   3.274 -1.3458 -0.2446  0.5653
   98SAPC   H2S 9671   0.288   0.658   3.364 -2.1713 -1.9471 -0.5777
   98SAPC    C3 9672   0.187   1.207   3.237  0.2228  0.7152  0.1286
   98SAPC    HX 9673   0.104   1.152   3.187 -0.4930  0.7923  1.1919
   98SAPC    HY 9674   0.227   1.288   3.173  0.4558  1.8234  1.6119
   98SAPC   O31 9675   0.143   1.269   3.363  0.1581  0.3151  0.0606
   98SAPC   C31 9676   0.071   1.193   3.442 -0.7077 -0.1242  0.6812
   98SAPC   O32 9677   0.012   1.089   3.418  0.6782 -0.4799 -0.1613
   98SAPC   C32 9678   0.083   1.252   3.586  0.7136  0.1740 -0.7533
   98SAPC   H2X 9679   0.076   1.363   3.585 -1.4240  0.0795 -0.5284
   98SAPC   H2Y 9680   0.182   1.223   3.627  1.8439  2.8734 -1.3239
   98SAPC   C23 9681   0.131   0.750   3.487 -0.1612  0.2432  0.2864
   98SAPC   H3R 9682   0.061   0.664   3.478  0.6583 -0.5998  1.6090
   98SAPC   H3S 9683   0.078   0.848   3.480  2.1949  1.7231  1.7171
   98SAPC   C24 9684   0.222   0.731   3.607 -0.0577  0.0097 -0.0513
   98SAPC   H4R 9685   0.328   0.762   3.591  0.5809 -0.5631  2.5655
   98SAPC   H4S 9686   0.231   0.628   3.647 -1.7046  0.1383  0.7358
   98SAPC   C25 9687   0.165   0.815   3.720  0.0477 -0.0781  0.8114
   98SAPC   H5R 9688   0.065   0.782   3.751 -0.4233  0.4534 -0.0978
   98SAPC   C26 9689   0.206   0.931   3.775 -0.3517 -0.2463  1.0128
   98SAPC   H6R 9690   0.150   0.965   3.864  0.8117 -0.2809  1.7801
   98SAPC   C27 9691   0.326   1.015   3.739  0.2649  0.7990 -0.4881
   98SAPC   H7R 9692   0.322   1.116   3.784 -0.4966  1.1312 -1.2683
   98SAPC   H7S 9693   0.324   1.037   3.630  2.2388  2.0696 -0.3126
   98SAPC   C28 9694   0.462   0.956   3.775  0.5673  0.1821 -0.0261
   98SAPC   H8R 9695   0.532   0.957   3.691  2.7648  0.0108  1.6909
   98SAPC   C29 9696   0.497   0.905   3.894 -0.0956 -0.1093  0.1677
   98SAPC   H9R 9697   0.599   0.863   3.900 -0.6249 -1.2412  1.8733
   98SAPC  C210 9698   0.414   0.892   4.017  0.7745 -0.1566  0.1397
   98SAPC  H10R 9699   0.364   0.793   4.016  1.2525 -0.4250  1.4077
   98SAPC  H10S 9700   0.333   0.967   4.028  0.3528 -0.6857  0.7143
   98SAPC  C211 9701   0.494   0.885   4.147 -0.3230  0.3636 -0.6175
   98SAPC  H11R 9702   0.603   0.894   4.137 -0.4435  2.9906 -0.1905
   98SAPC  C212 9703   0.444   0.865   4.267  0.3088  0.5048 -0.5773
   98SAPC  H12R 9704   0.510   0.860   4.355 -1.0772  0.3915  0.4929
   98SAPC  C213 9705   0.298   0.854   4.306  0.1051 -0.1728 -0.2614
   98SAPC  H13R 9706   0.288   0.766   4.373  1.3768 -0.0008  0.1891
   98SAPC  H13S 9707   0.246   0.826   4.212  0.6268  1.0692 -0.9452
   98SAPC  C214 9708   0.234   0.975   4.366 -0.1845 -0.0160  1.1176
   98SAPC  H14R 9709   0.191   1.044   4.291 -0.0468 -0.9626  0.1497
   98SAPC  C215 9710   0.205   0.992   4.497  0.6407 -0.3941 -0.2529
   98SAPC  H15R 9711   0.130   1.071   4.517  1.3864  0.3808 -0.4555
   98SAPC  C216 9712   0.239   0.905   4.615  0.0984 -0.0610 -0.4871
   98SAPC  H16R 9713   0.296   0.811   4.595  1.0022  0.5054 -0.6030
   98SAPC  H16S 9714   0.146   0.869   4.665  0.6675 -1.2502 -0.2360
   98SAPC  C217 9715   0.318   0.985   4.718  0.2051  0.2461 -0.0362
   98SAPC  H17R 9716   0.263   1.076   4.750 -0.9326  0.2837 -1.9295
   98SAPC  H17S 9717   0.415   1.020   4.676 -0.0105 -0.1627 -0.9060
   98SAPC  C218 9718   0.343   0.899   4.842  0.5014  0.1615  0.0603
   98SAPC  H18R 9719   0.424   0.942   4.905 -0.4204  1.4726  0.3976
   98SAPC  H18S 9720   0.386   0.800   4.814  0.6624  0.5001 -0.9185
   98SAPC  C219 9721   0.213   0.877   4.929 -0.6811 -0.3552 -0.1536
   98SAPC  H19R 9722   0.240   0.818   5.020  1.5429  0.6582 -0.0762
   98SAPC  H19S 9723   0.135   0.817   4.877  0.2989 -0.5488 -1.4490
   98SAPC  C220 9724   0.148   1.013   4.980  0.1317 -0.0174  0.3804
   98SAPC  H20R 9725   0.218   1.090   5.019 -1.7266  1.5259  0.8007
   98SAPC  H20S 9726   0.063   0.994   5.048 -0.8250  2.7677  0.1001
   98SAPC  H20T 9727   0.104   1.068   4.894  2.1964 -1.5643 -1.8175
   98SAPC   C33 9728  -0.038   1.217   3.674  0.4839 -0.4966  0.3141
   98SAPC   H3X 9729  -0.045   1.107   3.687 -0.2185 -0.7410 -1.7436
   98SAPC   H3Y 9730  -0.124   1.251   3.614 -0.0620 -0.7524  0.9335
   98SAPC   C34 9731  -0.043   1.292   3.809 -0.0105  0.1621  0.0397
   98SAPC   H4X 9732  -0.121   1.240   3.868  0.8982 -1.7337 -0.3434
   98SAPC   H4Y 9733  -0.062   1.401   3.799 -2.4125 -0.0700  1.2904
   98SAPC   C35 9734   0.083   1.266   3.891  0.0399 -0.3962 -0.1316
   98SAPC   H5X 9735   0.158   1.329   3.838 -1.6278  1.3333 -0.5580
   98SAPC   H5Y 9736   0.118   1.161   3.901  0.9835  0.1297  3.5382
   98SAPC   C36 9737   0.073   1.313   4.039  1.0253  0.5120  0.4334
   98SAPC   H6X 9738   0.033   1.416   4.042  1.0501  0.5860 -1.2168
   98SAPC   H6Y 9739   0.176   1.312   4.083  2.3297  1.6089 -2.3537
   98SAPC   C37 9740  -0.021   1.224   4.123  0.1483 -0.4713 -0.0045
   98SAPC   H7X 9741  -0.004   1.114   4.112 -0.2758 -0.5597  0.1934
   98SAPC   H7Y 9742  -0.120   1.249   4.081  0.4956  1.4561  0.2646
   98SAPC   C38 9743  -0.034   1.267   4.264  0.5230  0.2695 -0.1459
   98SAPC   H8X 9744  -0.077   1.369   4.270  1.3769  0.7244 -1.3072
   98SAPC   H8Y 9745   0.069   1.258   4.305  1.1872  1.0815 -1.5327
   98SAPC   C39 9746  -0.119   1.173   4.349 -0.0335  0.0791 -0.8088
   98SAPC   H9X 9747  -0.061   1.080   4.369 -0.9280 -0.6873 -1.6773
   98SAPC   H9Y 9748  -0.212   1.155   4.290 -0.5425 -1.0126  0.2823
   98SAPC  C310 9749  -0.164   1.245   4.475 -0.3708 -0.2247  0.1046
   98SAPC  H10X 9750  -0.218   1.339   4.451  2.5708  1.3297 -0.9042
   98SAPC  H10Y 9751  -0.071   1.292   4.514  0.6624 -0.4970 -1.8976
   98SAPC  C311 9752  -0.218   1.160   4.588 -0.1240  0.6201  0.4402
   98SAPC  H11X 9753  -0.164   1.064   4.599 -1.4160  0.1135  3.2871
   98SAPC  H11Y 9754  -0.328   1.145   4.588 -0.1385  0.7106 -0.3306
   98SAPC  C312 9755  -0.184   1.215   4.731  0.0175  0.7171  0.0482
   98SAPC  H12X 9756  -0.203   1.324   4.729 -0.5957  0.6117 -0.0734
   98SAPC  H12Y 9757  -0.080   1.192   4.764 -0.2390 -1.9380 -0.7534
   98SAPC  C313 9758  -0.275   1.147   4.839  0.5086 -0.1225  0.6594
   98SAPC  H13X 9759  -0.251   1.039   4.829  2.8488  0.2790  1.3279
   98SAPC  H13Y 9760  -0.379   1.169   4.808  0.5654  0.5328  0.9320
   98SAPC  C314 9761  -0.263   1.213   4.973  0.0980  0.1207 -0.2732
   98SAPC  H14X 9762  -0.305   1.313   4.947 -1.3588 -0.0208  1.3476
   98SAPC  H14Y 9763  -0.159   1.239   4.999  0.0194  0.2874 -0.1290
   98SAPC  C315 9764  -0.344   1.139   5.081  0.4550 -0.1594 -0.3492
   98SAPC  H15X 9765  -0.280   1.064   5.132  0.5731  1.9142  2.8278
   98SAPC  H15Y 9766  -0.432   1.088   5.037  0.7102  0.4244 -1.5822
   98SAPC  C316 9767  -0.395   1.240   5.190 -0.0093 -0.2013 -0.0877
   98SAPC  H16X 9768  -0.458   1.189   5.266 -1.1508  0.6361 -0.4431
   98SAPC  H16Y 9769  -0.456   1.313   5.132  2.1805  3.7646  2.1883
   98SAPC  C317 9770  -0.285   1.328   5.258  0.1147  0.6532 -0.3698
   98SAPC  H17X 9771  -0.249   1.414   5.198 -0.2549 -0.7593 -2.7349
   98SAPC  H17Y 9772  -0.205   1.262   5.298 -0.1655  0.2540 -0.4659
   98SAPC  C318 9773  -0.340   1.401   5.388  0.1424 -0.4751  0.5025
   98SAPC  H18X 9774  -0.439   1.450   5.379 -0.2583 -1.5675 -1.5073
   98SAPC  H18Y 9775  -0.275   1.486   5.418 -1.8174  0.4883  2.2436
   98SAPC  H18Z 9776  -0.342   1.326   5.470  1.7006  2.0688  3.0584
   99SAPC     N 9777   6.435   4.011   3.144  0.4447 -0.4339  0.6850
   99SAPC   C12 9778   6.306   4.016   3.223  0.1978  0.2693 -0.3982
   99SAPC  H12A 9779   6.277   3.912   3.233 -0.4783  0.4060 -0.8475
   99SAPC  H12B 9780   6.224   4.070   3.176  0.5946  1.0000 -0.2568
   99SAPC   C13 9781   6.532   3.920   3.218  0.6346 -0.4750 -0.1116
   99SAPC  H13A 9782   6.483   3.824   3.215 -1.2575  0.4643 -1.7834
   99SAPC  H13B 9783   6.626   3.915   3.166  1.6707 -1.6175  1.7855
   99SAPC  H13C 9784   6.541   3.951   3.321  0.4463  2.3201 -0.8455
   99SAPC   C14 9785   6.412   3.964   3.005  0.1923 -0.0676  0.0664
   99SAPC  H14A 9786   6.503   3.966   2.946 -1.4108  0.7935 -2.5436
   99SAPC  H14B 9787   6.371   3.864   3.003  0.8941 -0.3583 -0.6918
   99SAPC  H14C 9788   6.341   4.024   2.950  1.0624  0.6690 -0.2906
   99SAPC   C15 9789   6.496   4.148   3.124  0.0682 -0.3116  0.3074
   99SAPC  H15A 9790   6.432   4.213   3.067 -0.8742  0.6304  2.3150
   99SAPC  H15B 9791   6.521   4.194   3.219  0.8489 -2.3797  1.1697
   99SAPC  H15C 9792   6.586   4.145   3.064 -1.5675  2.4126 -2.5362
   99SAPC   C11 9793   6.313   4.068   3.369 -0.3449 -0.2263  0.1946
   99SAPC  H11A 9794   6.404   4.024   3.415 -0.8701 -0.4098  1.0766
   99SAPC  H11B 9795   6.229   4.027   3.429  0.2428 -0.2704  1.0000
   99SAPC     P 9796   6.194   4.302   3.325 -0.2224 -0.4164 -0.0786
   99SAPC   O13 9797   6.236   4.442   3.345  0.4021 -0.7906  0.0001
   99SAPC   O14 9798   6.157   4.257   3.188 -0.2216 -0.9198 -0.0123
   99SAPC   O12 9799   6.314   4.211   3.369 -0.3845 -0.2936  0.0585
   99SAPC   O11 9800   6.067   4.254   3.417  0.3816  0.2756  0.3451
   99SAPC    C1 9801   6.007   4.335   3.521  0.1691 -0.8488 -0.1571
   99SAPC    HA 9802   5.977   4.431   3.473 -3.1776 -1.3601  0.6328
   99SAPC    HB 9803   5.919   4.282   3.564  0.4780 -1.5257 -0.3588
   99SAPC    C2 9804   6.103   4.366   3.642  0.7297 -0.0968 -0.1180
   99SAPC    HS 9805   6.168   4.444   3.597 -1.4567  2.4199  0.8229
   99SAPC   O21 9806   6.165   4.239   3.666  0.1066  0.9008 -0.3713
   99SAPC   C21 9807   6.293   4.249   3.707 -0.2283 -0.4146  0.1587
   99SAPC   O22 9808   6.346   4.354   3.736 -0.0067  0.4689  0.1062
   99SAPC   C22 9809   6.360   4.108   3.735 -0.2444 -0.4431 -0.5120
   99SAPC   H2R 9810   6.283   4.030   3.746  1.4761 -1.9213  2.0329
   99SAPC   H2S 9811   6.395   4.083   3.632 -1.8815  0.6465 -1.3756
   99SAPC    C3 9812   6.021   4.411   3.769 -0.7672  0.6112  0.8261
   99SAPC    HX 9813   5.940   4.338   3.789 -1.6274  0.7063 -1.9539
   99SAPC    HY 9814   5.971   4.504   3.736  0.0618  0.1046 -2.1882
   99SAPC   O31 9815   6.097   4.430   3.892 -0.8210 -0.1235  0.0839
   99SAPC   C31 9816   6.163   4.547   3.889 -0.1405  0.0553 -0.1818
   99SAPC   O32 9817   6.172   4.617   3.787  0.3009 -0.0829  0.3528
   99SAPC   C32 9818   6.232   4.572   4.026  0.2061 -0.2169 -0.2059
   99SAPC   H2X 9819   6.152   4.567   4.103  0.3451 -3.1404 -0.1302
   99SAPC   H2Y 9820   6.276   4.674   4.025  1.1527 -0.6250 -1.0696
   99SAPC   C23 9821   6.464   4.111   3.847  0.2172 -0.1627  0.2637
   99SAPC   H3R 9822   6.533   4.196   3.829 -1.7928  1.2474 -1.1591
   99SAPC   H3S 9823   6.529   4.021   3.840  1.0930  0.3766  1.1505
   99SAPC   C24 9824   6.404   4.119   3.987 -0.5266 -0.6398  0.4418
   99SAPC   H4R 9825   6.316   4.184   3.968  0.0470  0.1930  0.6036
   99SAPC   H4S 9826   6.479   4.180   4.041  1.6548 -1.7797 -1.1398
   99SAPC   C25 9827   6.370   3.991   4.056 -0.6316  0.0950  0.7510
   99SAPC   H5R 9828   6.377   3.897   3.999 -1.4526  1.1165 -1.1487
   99SAPC   C26 9829   6.344   3.985   4.182 -0.2700 -0.3394  0.2974
   99SAPC   H6R 9830   6.305   3.889   4.219  2.4467 -0.7618  2.4160
   99SAPC   C27 9831   6.347   4.101   4.277  0.1118  0.2978  0.5369
   99SAPC   H7R 9832   6.271   4.082   4.356  0.0315 -2.8572 -0.1494
   99SAPC   H7S 9833   6.306   4.192   4.228  2.8486  2.2356  1.6498
   99SAPC   C28 9834   6.489   4.127   4.319  0.4138  0.3278  0.2221
   99SAPC   H8R 9835   6.561   4.131   4.236  1.3402 -1.8090  0.8384
   99SAPC   C29 9836   6.533   4.141   4.445  0.9073 -0.4140  0.1403
   99SAPC   H9R 9837   6.643   4.148   4.443  0.9292 -0.5034 -3.1220
   99SAPC  C210 9838   6.458   4.155   4.579 -0.4563 -0.3939 -0.0258
   99SAPC  H10R 9839   6.349   4.174   4.568 -0.2517  1.0124  0.1066
   99SAPC  H10S 9840   6.506   4.244   4.626 -1.0897 -0.7705  1.3917
   99SAPC  C211 9841   6.487   4.039   4.677 -0.8188 -0.0464 -0.7649
   99SAPC  H11R 9842   6.562   4.055   4.755  0.8628 -1.6937 -1.9670
   99SAPC  C212 9843   6.436   3.917   4.664  0.5095  0.7066  0.6671
   99SAPC  H12R 9844   6.459   3.844   4.743  0.0577 -0.7717 -0.5268
   99SAPC  C213 9845   6.336   3.872   4.559 -0.1371  0.5963  0.9935
   99SAPC  H13R 9846   6.395   3.831   4.474 -0.0332 -1.2784  1.9029
   99SAPC  H13S 9847   6.290   3.961   4.511 -0.0238 -0.6475 -1.6034
   99SAPC  C214 9848   6.232   3.779   4.617 -0.1713 -0.5984 -0.6947
   99SAPC  H14R 9849   6.269   3.680   4.647  0.0052  0.0971  1.5543
   99SAPC  C215 9850   6.100   3.790   4.604  0.5455 -0.3994 -0.8605
   99SAPC  H15R 9851   6.041   3.710   4.652 -0.3667  0.8540  0.1666
   99SAPC  C216 9852   6.010   3.900   4.546 -0.3244 -0.4841  0.1417
   99SAPC  H16R 9853   6.057   3.990   4.500 -1.6782  1.0442  1.6068
   99SAPC  H16S 9854   5.968   3.949   4.635  1.4895  1.7044 -0.1058
   99SAPC  C217 9855   5.898   3.833   4.472  0.6357 -0.2220 -0.1531
   99SAPC  H17R 9856   5.809   3.900   4.464  0.7412  0.5000  3.2591
   99SAPC  H17S 9857   5.857   3.740   4.515  0.5925  0.0602  0.4189
   99SAPC  C218 9858   5.932   3.805   4.324 -0.6618  0.1037  0.7365
   99SAPC  H18R 9859   6.015   3.869   4.289 -1.5044  0.1322 -1.3231
   99SAPC  H18S 9860   5.845   3.825   4.259  0.0453 -0.9999 -0.6113
   99SAPC  C219 9861   5.973   3.656   4.283 -0.6653  0.2373 -0.5443
   99SAPC  H19R 9862   6.067   3.638   4.339 -0.3929 -0.0160 -1.0751
   99SAPC  H19S 9863   6.004   3.656   4.176  3.3403 -1.2775  0.4700
   99SAPC  C220 9864   5.866   3.550   4.307 -0.2283  0.0739  0.2987
   99SAPC  H20R 9865   5.883   3.454   4.255  1.1870 -0.5073  1.7510
   99SAPC  H20S 9866   5.768   3.598   4.287  1.0787  3.4211  1.1379
   99SAPC  H20T 9867   5.857   3.528   4.416  1.4639 -1.0990  0.2358
   99SAPC   C33 9868   6.341   4.472   4.064 -0.7861 -0.0233  0.3376
   99SAPC   H3X 9869   6.411   4.463   3.978 -0.0920  2.4447  0.5706
   99SAPC   H3Y 9870   6.305   4.369   4.083  3.0203 -1.4480  0.7267
   99SAPC   C34 9871   6.433   4.504   4.185 -0.3145 -0.0061  0.1067
   99SAPC   H4X 9872   6.484   4.599   4.159 -0.7241  0.3725  0.6756
   99SAPC   H4Y 9873   6.509   4.423   4.193 -0.6683 -0.2495  1.2988
   99SAPC   C35 9874   6.360   4.529   4.319 -0.4024  0.0994 -0.7226
   99SAPC   H5X 9875   6.282   4.460   4.357 -0.0445  0.8157  1.4482
   99SAPC   H5Y 9876   6.300   4.622   4.306 -0.5701  0.1856  0.5427
   99SAPC   C36 9877   6.456   4.560   4.435  0.6277  0.0890 -0.7221
   99SAPC   H6X 9878   6.559   4.588   4.402  1.6421 -2.1613  0.3398
   99SAPC   H6Y 9879   6.469   4.456   4.473  1.3562  0.4276 -0.0226
   99SAPC   C37 9880   6.389   4.656   4.535 -0.3255  0.1667 -0.6564
   99SAPC   H7X 9881   6.290   4.614   4.563 -0.9824  1.0091 -1.6170
   99SAPC   H7Y 9882   6.377   4.750   4.476 -0.0296  0.5473 -0.1172
   99SAPC   C38 9883   6.482   4.687   4.647 -0.3983  0.2937 -0.1798
   99SAPC   H8X 9884   6.525   4.589   4.677  0.4847  0.4367 -0.9520
   99SAPC   H8Y 9885   6.422   4.731   4.729 -0.5210  0.5776 -0.4220
   99SAPC   C39 9886   6.602   4.775   4.609 -0.3770 -0.1808 -0.1506
   99SAPC   H9X 9887   6.670   4.728   4.534  0.1918 -0.0866  0.3003
   99SAPC   H9Y 9888   6.666   4.792   4.698 -0.7266  2.2942 -0.3098
   99SAPC  C310 9889   6.567   4.921   4.566  0.0760 -0.9899 -0.5448
   99SAPC  H10X 9890   6.523   4.969   4.656  1.9011 -0.5247  0.1384
   99SAPC  H10Y 9891   6.492   4.925   4.483 -0.3657  1.9244 -0.1058
   99SAPC  C311 9892   6.690   5.006   4.524 -0.1903  0.0531  0.5799
   99SAPC  H11X 9893   6.758   5.012   4.611  0.2922  1.3788  0.1397
   99SAPC  H11Y 9894   6.654   5.110   4.506  1.0528  0.2631 -1.0123
   99SAPC  C312 9895   6.768   4.966   4.396 -0.9473 -0.1252  0.7715
   99SAPC  H12X 9896   6.803   4.863   4.418 -0.9803 -0.4017 -0.3901
   99SAPC  H12Y 9897   6.860   5.023   4.372 -1.3722 -0.3614 -1.7660
   99SAPC  C313 9898   6.671   4.950   4.277  0.8544 -0.0476  0.1349
   99SAPC  H13X 9899   6.620   5.042   4.242  2.2470  0.7359  0.0819
   99SAPC  H13Y 9900   6.592   4.886   4.322  0.1877  0.8108  0.2224
   99SAPC  C314 9901   6.723   4.867   4.164 -0.2777  0.5300  0.1063
   99SAPC  H14X 9902   6.736   4.759   4.187 -1.5351  0.1556 -0.8382
   99SAPC  H14Y 9903   6.821   4.904   4.128  1.4130 -2.0090  1.7276
   99SAPC  C315 9904   6.640   4.865   4.035 -0.4399 -0.8758  0.2505
   99SAPC  H15X 9905   6.591   4.965   4.030  0.0702 -0.6813 -1.3140
   99SAPC  H15Y 9906   6.559   4.789   4.042 -1.5131  0.3460  2.2029
   99SAPC  C316 9907   6.727   4.851   3.908 -0.4317  0.4911 -0.1224
   99SAPC  H16X 9908   6.782   4.756   3.924 -3.1706 -1.2836 -0.5170
   99SAPC  H16Y 9909   6.800   4.934   3.898  1.0275 -0.5113  1.6165
   99SAPC  C317 9910   6.648   4.828   3.784 -0.1086  0.1381  0.0683
   99SAPC  H17X 9911   6.563   4.899   3.789  0.2291  0.4895  1.1610
   99SAPC  H17Y 9912   6.601   4.730   3.761  1.8945 -1.2831  1.6386
   99SAPC  C318 9913   6.736   4.858   3.658 -0.6702  0.3068 -0.3250
   99SAPC  H18X 9914   6.805   4.774   3.635  0.1349  0.4366  1.5401
   99SAPC  H18Y 9915   6.791   4.954   3.655 -1.6848  0.8820 -1.2979
   99SAPC  H18Z 9916   6.663   4.877   3.576  0.1398  3.5794 -0.4277
  100SAPC     N 9917   2.114   5.700   2.568 -0.4227  0.0988 -0.1913
  100SAPC   C12 9918   2.255   5.759   2.558  0.4394 -0.1498  0.1047
  100SAPC  H12A 9919   2.250   5.861   2.523 -0.0520 -0.3112 -0.3019
  100SAPC  H12B 9920   2.308   5.699   2.486 -0.2188 -0.2510 -0.3087
  100SAPC   C13 9921   2.121   5.552   2.597  0.2571 -0.0914  0.1006
  100SAPC  H13A 9922   2.166   5.534   2.693 -1.3132 -1.1627  0.6656
  100SAPC  H13B 9923   2.024   5.506   2.606 -0.4659  0.9132 -1.8530
  100SAPC  H13C 9924   2.176   5.494   2.524 -1.6473 -1.8270 -0.0274
  100SAPC   C14 9925   2.034   5.753   2.679 -0.3621  0.2649  0.5181
  100SAPC  H14A 9926   1.946   5.696   2.705 -1.0466 -0.3837 -2.7650
  100SAPC  H14B 9927   2.096   5.754   2.768 -0.0700 -0.2250  0.3245
  100SAPC  H14C 9928   2.011   5.857   2.660  0.1319  0.0648 -1.3492
  100SAPC   C15 9929   2.047   5.714   2.440  0.3429 -0.8108  0.3813
  100SAPC  H15A 9930   1.952   5.665   2.457 -0.1492  0.1078  0.3046
  100SAPC  H15B 9931   2.022   5.811   2.400  0.2370 -1.0713 -0.2005
  100SAPC  H15C 9932   2.097   5.661   2.360  1.8329  0.8441  0.1538
  100SAPC   C11 9933   2.338   5.756   2.693  0.1998 -0.0248  0.2590
  100SAPC  H11A 9934   2.446   5.771   2.671  0.0144 -1.2060 -1.6651
  100SAPC  H11B 9935   2.344   5.655   2.739  0.1909  0.7040  1.9437
  100SAPC     P 9936   2.312   6.014   2.766  0.2818  0.4909  0.1946
  100SAPC   O13 9937   2.438   6.035   2.833  0.3007 -0.2141  0.5620
  100SAPC   O14 9938   2.300   6.051   2.620  0.1372  0.3079  0.1213
  100SAPC   O12 9939   2.287   5.855   2.789  0.2742  0.5643  0.2311
  100SAPC   O11 9940   2.188   6.079   2.849 -0.3578  0.0586  0.0918
  100SAPC    C1 9941   2.082   6.004   2.914  0.3184 -0.4437  0.1947
  100SAPC    HA 9942   1.988   6.035   2.863 -0.1999  0.7219  1.7417
  100SAPC    HB 9943   2.098   5.895   2.902  1.0483 -0.6662  2.5499
  100SAPC    C2 9944   2.087   6.036   3.061 -0.7274  0.2532 -0.4206
  100SAPC    HS 9945   2.189   5.995   3.080 -0.5997  0.3777 -0.8340
  100SAPC   O21 9946   1.979   5.978   3.138 -0.0670 -0.0578  0.1221
  100SAPC   C21 9947   1.996   5.848   3.172  0.3629  0.2237  0.2285
  100SAPC   O22 9948   2.095   5.784   3.141 -0.0963  0.3528 -0.1170
  100SAPC   C22 9949   1.864   5.782   3.242  0.4169 -0.4851 -0.5195
  100SAPC   H2R 9950   1.786   5.788   3.163 -0.0126 -0.7555 -0.1221
  100SAPC   H2S 9951   1.901   5.678   3.257  2.4971  0.0451 -1.5954
  100SAPC    C3 9952   2.091   6.193   3.081 -1.0564  0.1000  0.3477
  100SAPC    HX 9953   2.013   6.237   3.015 -0.8681 -1.7012 -1.1724
  100SAPC    HY 9954   2.193   6.224   3.047 -0.1096  0.8199  3.5237
  100SAPC   O31 9955   2.094   6.209   3.223 -0.3211  0.1096 -0.3545
  100SAPC   C31 9956   1.982   6.253   3.278  1.0238 -0.3158 -0.1475
  100SAPC   O32 9957   1.874   6.270   3.220 -0.3657  0.0053  0.2819
  100SAPC   C32 9958   2.007   6.276   3.425  0.4124  0.2170  0.4905
  100SAPC   H2X 9959   2.088   6.349   3.441  0.0474  0.4478  1.3253
  100SAPC   H2Y 9960   2.046   6.181   3.467  3.6566  1.0891 -0.2573
  100SAPC   C23 9961   1.835   5.853   3.376  0.1287  0.1009  0.8671
  100SAPC   H3R 9962   1.734   5.841   3.418 -0.4021  1.9198  0.2193
  100SAPC   H3S 9963   1.832   5.961   3.350  0.3360 -0.6718 -2.9847
  100SAPC   C24 9964   1.937   5.834   3.479  0.0860  0.1392 -0.0566
  100SAPC   H4R 9965   2.033   5.872   3.438  1.5778  0.8149  3.6459
  100SAPC   H4S 9966   1.953   5.727   3.502  0.8129  0.6175  1.8782
  100SAPC   C25 9967   1.909   5.909   3.607  0.1482  0.6901 -0.2210
  100SAPC   H5R 9968   1.867   6.010   3.598 -0.6857  0.2013 -2.3263
  100SAPC   C26 9969   1.936   5.867   3.730  0.5062 -0.0774  0.2717
  100SAPC   H6R 9970   1.922   5.942   3.809 -1.1214 -1.6276  1.5732
  100SAPC   C27 9971   1.982   5.737   3.790 -0.1198  0.1752  0.4468
  100SAPC   H7R 9972   2.002   5.667   3.706  0.4312  0.8213  0.0328
  100SAPC   H7S 9973   1.890   5.710   3.846 -1.7636  2.3476 -1.0228
  100SAPC   C28 9974   2.101   5.751   3.881 -0.1798 -0.4621 -0.3048
  100SAPC   H8R 9975   2.103   5.842   3.944 -0.2280 -0.4221 -0.3615
  100SAPC   C29 9976   2.198   5.659   3.902  0.2289  0.3304  0.5760
  100SAPC   H9R 9977   2.277   5.683   3.974  1.0835  1.7311 -0.7758
  100SAPC  C210 9978   2.191   5.519   3.835  0.3151 -0.5149  0.2442
  100SAPC  H10R 9979   2.224   5.539   3.731 -0.9600 -0.3660 -0.1478
  100SAPC  H10S 9980   2.092   5.469   3.845  0.1259  0.0847  1.5802
  100SAPC  C211 9981   2.303   5.428   3.880 -0.3219 -0.0408 -0.9748
  100SAPC  H11R 9982   2.396   5.465   3.927 -1.4823  1.5977  0.1162
  100SAPC  C212 9983   2.280   5.295   3.894  0.3861  0.1726  0.8866
  100SAPC  H12R 9984   2.365   5.231   3.921 -0.9653 -2.4296 -0.7047
  100SAPC  C213 9985   2.151   5.216   3.857  0.1602 -0.4767 -1.1522
  100SAPC  H13R 9986   2.185   5.115   3.825  0.6486 -1.3793  1.8877
  100SAPC  H13S 9987   2.093   5.272   3.781  0.3160  1.6051  0.1929
  100SAPC  C214 9988   2.056   5.199   3.969 -0.0285  0.1228 -0.1145
  100SAPC  H14R 9989   1.976   5.274   3.981 -1.1226 -1.0947  0.6400
  100SAPC  C215 9990   2.057   5.112   4.068 -0.1040 -0.2296  0.1798
  100SAPC  H15R 9991   1.982   5.125   4.147  0.7432  0.3080  0.9172
  100SAPC  C216 9992   2.155   5.003   4.096  0.3864  0.6182 -0.3135
  100SAPC  H16R 9993   2.219   4.973   4.010 -1.0840 -1.3539 -0.8068
  100SAPC  H16S 9994   2.096   4.914   4.128 -0.3271  0.3142 -2.3311
  100SAPC  C217 9995   2.247   5.039   4.220  0.5573 -0.2785  0.2255
  100SAPC  H17R 9996   2.323   5.113   4.188 -0.3691 -0.3220 -2.2849
  100SAPC  H17S 9997   2.303   4.951   4.260  1.1844  0.3450  0.7418
  100SAPC  C218 9998   2.168   5.087   4.335  0.3565  0.1508 -0.1226
  100SAPC  H18R 9999   2.084   5.018   4.357  1.0905 -0.7733 -0.1340
  100SAPC  H18S10000   2.120   5.184   4.308 -0.6071 -0.0741  0.7207
  100SAPC  C21910001   2.246   5.107   4.465  0.2793  0.1658  0.8140
  100SAPC  H19R10002   2.180   5.161   4.537  1.3011  3.2056 -0.3431
  100SAPC  H19S10003   2.337   5.168   4.448  0.4877  0.1669  1.8554
  100SAPC  C22010004   2.295   4.976   4.526  0.4577  0.6442 -0.1998
  100SAPC  H20R10005   2.335   4.985   4.629  2.2845 -2.9042 -0.4452
  100SAPC  H20S10006   2.374   4.936   4.459 -0.2655  0.8408 -1.1856
  100SAPC  H20T10007   2.210   4.905   4.536  0.6492  0.2573 -1.1707
  100SAPC   C3310008   1.876   6.328   3.497  0.1690  0.1077 -0.8566
  100SAPC   H3X10009   1.791   6.256   3.493  0.2175  0.0098 -0.2478
  100SAPC   H3Y10010   1.831   6.417   3.448 -2.1633 -0.4419  0.1308
  100SAPC   C3410011   1.908   6.347   3.648  0.2371 -0.1595 -0.6409
  100SAPC   H4X10012   1.975   6.436   3.651  1.0120 -0.6331 -2.3862
  100SAPC   H4Y10013   1.958   6.253   3.681 -1.0544 -0.2817  1.0534
  100SAPC   C3510014   1.781   6.380   3.731  0.7547 -0.7339  0.5344
  100SAPC   H5X10015   1.754   6.283   3.779  1.6920 -0.4110  1.7660
  100SAPC   H5Y10016   1.699   6.419   3.667 -0.2109 -0.5241  1.8461
  100SAPC   C3610017   1.797   6.468   3.846 -0.5880  0.0770  0.6647
  100SAPC   H6X10018   1.784   6.572   3.808 -1.6098  0.3501  1.7210
  100SAPC   H6Y10019   1.896   6.465   3.896 -0.0619 -1.0939 -0.3899
  100SAPC   C3710020   1.697   6.441   3.956  0.0440  0.5094  0.5255
  100SAPC   H7X10021   1.728   6.343   3.998 -0.1449 -0.3338 -1.2195
  100SAPC   H7Y10022   1.593   6.427   3.919 -0.6711  1.6312  1.9981
  100SAPC   C3810023   1.700   6.544   4.062  0.1678  0.4628  0.0165
  100SAPC   H8X10024   1.629   6.623   4.030 -0.5640 -1.1048 -2.4690
  100SAPC   H8Y10025   1.799   6.595   4.068  0.1228  0.3886  1.8133
  100SAPC   C3910026   1.676   6.494   4.203  0.7523 -0.1854 -0.1332
  100SAPC   H9X10027   1.738   6.403   4.222  0.0055 -0.7660 -0.4092
  100SAPC   H9Y10028   1.568   6.469   4.213  0.9378 -2.1770 -2.2214
  100SAPC  C31010029   1.733   6.583   4.317  0.8272  0.2902  0.3527
  100SAPC  H10X10030   1.679   6.680   4.318 -0.9891 -0.6710  1.0168
  100SAPC  H10Y10031   1.842   6.594   4.304  0.7389 -0.0273 -0.7574
  100SAPC  C31110032   1.706   6.513   4.444 -0.3765 -0.0603 -0.1929
  100SAPC  H11X10033   1.758   6.416   4.429 -0.0050 -0.0245  0.7717
  100SAPC  H11Y10034   1.597   6.496   4.458 -0.2942  0.2588  0.9774
  100SAPC  C31210035   1.776   6.586   4.561  0.4883  0.4531  0.2542
  100SAPC  H12X10036   1.870   6.636   4.530 -0.8514  1.7538 -1.9954
  100SAPC  H12Y10037   1.801   6.498   4.624  0.4912  0.3597  0.1239
  100SAPC  C31310038   1.688   6.682   4.639  0.2611  0.8411  0.0299
  100SAPC  H13X10039   1.607   6.611   4.667 -0.6027  0.5787 -2.8587
  100SAPC  H13Y10040   1.651   6.758   4.566  0.0898 -1.0640 -1.9666
  100SAPC  C31410041   1.743   6.749   4.765  0.3646  0.1811  0.4172
  100SAPC  H14X10042   1.843   6.791   4.743  1.5047 -1.1784  2.6595
  100SAPC  H14Y10043   1.757   6.669   4.840  2.6680  1.1149  1.0541
  100SAPC  C31510044   1.642   6.859   4.810 -0.4262  0.2518 -0.2321
  100SAPC  H15X10045   1.542   6.812   4.806  0.7384 -2.3943 -4.4331
  100SAPC  H15Y10046   1.619   6.935   4.732  0.5602  2.6539  1.6688
  100SAPC  C31610047   1.672   6.937   4.939 -0.6899  0.5032 -0.6435
  100SAPC  H16X10048   1.765   6.997   4.930 -0.0978 -0.5212 -1.7643
  100SAPC  H16Y10049   1.701   6.860   5.014 -1.8213  1.0303  0.3702
  100SAPC  C31710050   1.551   7.004   4.997  0.2394 -0.1368 -0.3408
  100SAPC  H17X10051   1.587   7.035   5.098  0.2836  0.9525 -0.6751
  100SAPC  H17Y10052   1.474   6.926   5.010  0.5839 -0.3144  0.7725
  100SAPC  C31810053   1.492   7.110   4.908 -0.4395 -0.0878 -0.4594
  100SAPC  H18X10054   1.402   7.148   4.962  0.0996 -0.6897  0.9326
  100SAPC  H18Y10055   1.462   7.070   4.809  0.2599  0.4068 -0.8703
  100SAPC  H18Z10056   1.559   7.196   4.888 -2.1840  1.7244  1.0149
  101OSM      N10057   5.384   5.389   7.409 -0.0263 -0.1474 -0.0629
  101OSM    C1510058   5.309   5.268   7.445  0.2406  0.3964 -0.6748
  101OSM   H15A10059   5.321   5.235   7.548 -0.5520 -0.0961 -0.7278
  101OSM   H15B10060   5.332   5.176   7.394 -1.3942 -1.3541  1.5029
  101OSM   H15C10061   5.204   5.285   7.428 -0.0069  0.2784  0.5989
  101OSM    C1410062   5.351   5.498   7.508  0.0963  0.5882 -0.3966
  101OSM   H14A10063   5.413   5.584   7.485  0.2238  1.2104  2.0144
  101OSM   H14B10064   5.354   5.448   7.603 -1.1487 -0.1551 -0.7331
  101OSM   H14C10065   5.247   5.526   7.501 -0.7995 -1.7545  2.1096
  101OSM    C1310066   5.526   5.365   7.426 -0.3257  0.6302 -0.1225
  101OSM   H13A10067   5.553   5.344   7.529 -0.0427 -2.2640 -0.6775
  101OSM   H13B10068   5.588   5.445   7.390  2.3457 -1.6850 -1.0905
  101OSM   H13C10069   5.566   5.275   7.381  1.1348  1.2214 -0.0595
  101OSM    C1210070   5.362   5.430   7.265  0.3625  0.7835  0.7978
  101OSM   H12A10071   5.256   5.424   7.246  0.4237  0.4868  0.5582
  101OSM   H12B10072   5.398   5.346   7.209  0.4453  1.1982  0.2194
  101OSM    C1110073   5.403   5.567   7.218 -0.4811  0.0626 -0.5712
  101OSM   H11A10074   5.402   5.574   7.107 -1.0586  0.0009 -0.5746
  101OSM   H11B10075   5.508   5.583   7.250  0.0128 -0.2530 -1.9531
  101OSM      P10076   5.175   5.688   7.251  0.1128  0.5278 -0.3946
  101OSM    O1310077   5.105   5.597   7.348  0.9764  0.3232  0.0941
  101OSM    O1410078   5.137   5.830   7.255  0.0010  0.2266 -0.2551
  101OSM    O1110079   5.158   5.629   7.099 -0.4558 -0.4228 -0.0345
  101OSM    O1210080   5.333   5.673   7.275 -0.7999 -0.4562  0.1609
  101OSM    C1S10081   5.196   5.715   6.990  0.6366  0.4040 -0.3806
  101OSM    H1S10082   5.304   5.742   7.002  1.4039 -1.4743 -2.4394
  101OSM    H1T10083   5.139   5.810   6.990 -2.6688 -1.3436  2.7076
  101OSM     NF10084   5.258   5.703   6.745  0.3101  0.1861  0.3113
  101OSM    HNF10085   5.188   5.727   6.678 -0.2315  1.0771  1.1621
  101OSM    C2S10086   5.189   5.638   6.854  0.2481 -0.8886  0.2277
  101OSM    H2S10087   5.238   5.538   6.864 -0.7523 -1.6601 -1.8884
  101OSM    C3S10088   5.037   5.598   6.824 -0.2485  0.4625  0.0428
  101OSM    H3S10089   4.969   5.685   6.828 -1.7011 -0.6340  0.1973
  101OSM     O310090   4.992   5.503   6.922  0.0600  0.7102  0.1942
  101OSM    HO310091   5.077   5.484   6.964  0.5443 -0.7581 -1.3266
  101OSM    C4S10092   5.016   5.548   6.686  0.0289 -0.0896 -0.0421
  101OSM    H4S10093   4.979   5.627   6.618 -1.5257 -2.5369 -2.2122
  101OSM    C5S10094   5.034   5.421   6.640  0.5047 -0.2269  0.5131
  101OSM    H5S10095   5.069   5.340   6.706 -1.6889 -1.6026  0.0920
  101OSM    C6S10096   5.010   5.387   6.499  0.3901 -0.1322 -0.3982
  101OSM    H6S10097   4.904   5.359   6.479  0.3114  0.8260 -1.4405
  101OSM    H6T10098   5.086   5.310   6.474 -0.4215 -1.6943  1.6733
  101OSM    C7S10099   5.025   5.501   6.395  0.1533 -0.2451  0.0115
  101OSM    H7S10100   5.132   5.529   6.388 -0.4310  2.5560  1.1083
  101OSM    H7T10101   4.960   5.586   6.425 -0.7217 -0.0677 -2.1938
  101OSM    C8S10102   4.978   5.466   6.256  0.2422 -0.6856  0.5678
  101OSM    H8S10103   4.867   5.472   6.249  0.3187 -0.2507 -0.3516
  101OSM    H8T10104   4.997   5.358   6.235  1.7022 -0.5608  1.1258
  101OSM    C9S10105   5.034   5.536   6.135  0.0503 -0.1223  0.3374
  101OSM    H9S10106   5.143   5.515   6.126  0.4301  1.5538  0.6672
  101OSM    H9T10107   5.021   5.647   6.140  0.0558  0.0107 -1.6545
  101OSM   C10S10108   4.962   5.486   6.010  0.0125  0.0600 -0.8248
  101OSM   H10S10109   4.864   5.537   5.997 -2.4515 -4.2220 -0.9890
  101OSM   H10T10110   4.924   5.382   6.018 -1.3393  0.6297  0.5835
  101OSM   C11S10111   5.050   5.493   5.890 -0.6444 -0.2658 -0.0025
  101OSM   H11S10112   5.142   5.432   5.902 -0.0422  0.6511  0.1307
  101OSM   H11T10113   5.092   5.595   5.886 -1.0714 -0.1111 -0.9823
  101OSM   C12S10114   4.970   5.448   5.773  0.4228  0.4939  0.0614
  101OSM   H12S10115   4.875   5.506   5.774 -0.0169 -0.2213  0.1181
  101OSM   H12T10116   4.943   5.341   5.779  1.7089 -0.1713 -3.4742
  101OSM   C13S10117   5.056   5.470   5.651  0.4615 -0.0498  0.3641
  101OSM   H13S10118   5.138   5.394   5.650  1.9772  1.4500  2.0877
  101OSM   H13T10119   5.107   5.569   5.656  0.9858 -0.1108 -2.3223
  101OSM   C14S10120   4.990   5.441   5.513 -0.9731 -0.3720 -0.2030
  101OSM   H14S10121   5.066   5.465   5.436 -1.0234  1.1526  0.1976
  101OSM   H14T10122   4.900   5.503   5.494 -0.4484 -0.3133 -2.7964
  101OSM   C15S10123   4.955   5.295   5.508  0.3377  0.8029  0.2420
  101OSM   H15S10124   4.876   5.279   5.585 -0.6006  0.7608 -0.7128
  101OSM   H15T10125   5.040   5.232   5.542  1.6714  1.5209 -1.5979
  101OSM   C16S10126   4.905   5.237   5.374  0.4336  0.0863 -0.7700
  101OSM   H16S10127   4.968   5.278   5.292  0.4202  0.7308 -0.4690
  101OSM   H16T10128   4.801   5.271   5.357 -0.5255 -1.9029  0.7739
  101OSM   C17S10129   4.897   5.089   5.378  0.4999 -0.9079 -0.5278
  101OSM   H17S10130   4.813   5.070   5.307 -0.1324 -0.2163  0.0181
  101OSM   H17T10131   4.860   5.059   5.478  2.0833  1.7442  0.9443
  101OSM   C18S10132   5.020   5.021   5.330  0.8761 -0.3457  0.3961
  101OSM   H18S10133   5.094   5.061   5.403 -0.6982  0.9250  1.3725
  101OSM   H18T10134   5.035   5.063   5.229  1.3877  0.4261  0.7831
  101OSM   H18U10135   4.999   4.912   5.332  0.1224 -0.2421 -0.7878
  101OSM    C1F10136   5.391   5.717   6.744 -0.0164  1.0323 -0.2169
  101OSM     OF10137   5.459   5.666   6.828  0.6973  0.0478  0.1129
  101OSM    C2F10138   5.462   5.800   6.637  0.8051  0.0411 -0.1316
  101OSM    H2F10139   5.398   5.891   6.630  0.6919 -0.1229 -1.4252
  101OSM    H2G10140   5.448   5.750   6.539  0.3214  3.9695 -2.2975
  101OSM    C3F10141   5.608   5.826   6.670  0.6339  0.0381 -0.4383
  101OSM    H3F10142   5.660   5.728   6.670 -0.3551 -0.5178  0.6955
  101OSM    H3G10143   5.621   5.867   6.772  2.6063 -0.5677 -0.4127
  101OSM    C4F10144   5.670   5.913   6.568  0.3218 -0.3354  0.3016
  101OSM    H4F10145   5.773   5.930   6.604  0.2121 -0.3417  0.6175
  101OSM    H4G10146   5.619   6.011   6.575 -0.2325 -0.5730 -0.3042
  101OSM    C5F10147   5.665   5.861   6.423  0.1243 -0.0353  0.5399
  101OSM    H5F10148   5.563   5.827   6.397  0.1494 -0.6313  1.1861
  101OSM    H5G10149   5.717   5.764   6.407 -1.7678 -1.2731  1.4713
  101OSM    C6F10150   5.709   5.959   6.313 -0.9654  0.7593 -0.4915
  101OSM    H6F10151   5.819   5.972   6.325 -1.2924  2.4922  1.0095
  101OSM    H6G10152   5.674   6.061   6.337  1.6149  1.7279 -0.4813
  101OSM    C7F10153   5.662   5.931   6.168 -0.8476 -0.2628 -0.6011
  101OSM    H7F10154   5.552   5.918   6.159 -1.0429  0.3122  0.7126
  101OSM    H7G10155   5.705   5.836   6.129  2.8460 -0.1321  2.5215
  101OSM    C8F10156   5.710   6.047   6.066 -0.8755 -0.6073 -0.4460
  101OSM    H8F10157   5.685   6.140   6.120 -1.0787 -1.9330  1.8623
  101OSM    H8G10158   5.657   6.039   5.968  1.0649  0.3289 -1.6372
  101OSM    C9F10159   5.858   6.047   6.034 -1.0661 -0.3684 -0.4513
  101OSM    H9F10160   5.934   6.106   6.087 -0.2782 -2.1944  0.5638
  101OSM   C10F10161   5.908   6.002   5.915 -0.3117 -0.2828 -0.6073
  101OSM   H10F10162   6.017   6.015   5.921 -0.5964  2.0084  2.6507
  101OSM   C11F10163   5.839   5.926   5.805 -0.4101  0.7977  0.1631
  101OSM   H11F10164   5.748   5.884   5.853  0.8131 -1.9593  0.1962
  101OSM   H11G10165   5.889   5.833   5.772 -3.3140 -0.3452 -1.4670
  101OSM   C12F10166   5.771   6.005   5.686 -0.2810  0.0101 -0.0732
  101OSM   H12F10167   5.698   6.073   5.736  0.3738  0.7636 -0.1227
  101OSM   H12G10168   5.702   5.934   5.636  1.2664 -1.0915 -0.7360
  101OSM   C13F10169   5.869   6.071   5.592  0.6212  0.1577  0.2288
  101OSM   H13F10170   5.950   6.119   5.651  0.0933  0.8871  0.3728
  101OSM   H13G10171   5.821   6.150   5.531  1.3505 -1.0393 -2.0540
  101OSM   C14F10172   5.926   5.966   5.495 -0.6107 -0.2230  0.0201
  101OSM   H14F10173   5.864   5.874   5.501 -0.0632 -0.4836  3.8816
  101OSM   H14G10174   6.025   5.946   5.541 -0.9324  1.2482  1.4703
  101OSM   C15F10175   5.941   6.032   5.353  0.3558 -0.0080  0.1952
  101OSM   H15F10176   6.016   6.113   5.365 -0.7909  0.9112  1.3930
  101OSM   H15G10177   5.852   6.086   5.315 -0.5682  0.5663  2.9950
  101OSM   C16F10178   5.978   5.927   5.247  0.0564 -0.6915 -0.0714
  101OSM   H16F10179   6.070   5.877   5.285  0.9800  0.6022 -0.5248
  101OSM   H16G10180   6.000   5.983   5.153 -0.9645 -0.6002 -0.2676
  101OSM   C17F10181   5.878   5.811   5.234 -0.4564 -0.0451  0.0078
  101OSM   H17F10182   5.874   5.757   5.330  0.9092  1.3307  0.8927
  101OSM   H17G10183   5.913   5.733   5.163 -1.3811  0.1686 -0.7094
  101OSM   C18F10184   5.733   5.851   5.188 -0.0698  0.6933  0.4068
  101OSM   H18F10185   5.730   5.910   5.094  0.2316 -2.6772 -1.8560
  101OSM   H18G10186   5.671   5.886   5.273 -0.5519 -1.7096  1.1184
  101OSM   H18H10187   5.688   5.755   5.157 -0.6450  1.3536 -0.8708
  102OSM      N10188   0.182   6.093   7.639 -0.3674 -0.0868 -0.1388
  102OSM    C1510189   0.229   6.237   7.655 -0.0814  0.0952  0.4149
  102OSM   H15A10190   0.178   6.311   7.594  2.1819  2.0642  0.7692
  102OSM   H15B10191   0.336   6.245   7.643  0.0918 -1.3881  0.7250
  102OSM   H15C10192   0.232   6.264   7.759 -0.9241  1.7733  0.0340
  102OSM    C1410193   0.204   6.033   7.496 -0.3167  1.1089  0.7256
  102OSM   H14A10194   0.165   5.932   7.496 -0.5347  1.1701 -0.7586
  102OSM   H14B10195   0.305   6.039   7.460  0.0857 -1.8057  1.1834
  102OSM   H14C10196   0.131   6.083   7.433 -0.8585 -0.7688 -0.2022
  102OSM    C1310197   0.254   6.012   7.736 -0.1711  0.3399  0.7771
  102OSM   H13A10198   0.357   6.010   7.703 -0.5733 -0.0584 -0.5258
  102OSM   H13B10199   0.214   5.912   7.733 -1.4659  0.8155 -2.3114
  102OSM   H13C10200   0.250   6.056   7.834 -2.5338  1.5363  0.2276
  102OSM    C1210201   0.040   6.095   7.676 -0.1976 -0.0841 -0.2324
  102OSM   H12A10202   0.002   6.173   7.611  0.9494  0.9656  0.3278
  102OSM   H12B10203   0.020   6.141   7.772 -2.4600 -0.3973 -0.4859
  102OSM    C1110204  -0.034   5.961   7.661 -0.3395 -0.0367  0.8272
  102OSM   H11A10205  -0.139   5.953   7.695 -0.4569 -1.3606  0.1787
  102OSM   H11B10206   0.020   5.893   7.731  2.1499  0.3258 -0.6375
  102OSM      P10207  -0.133   5.910   7.430 -0.5594 -0.4629  0.0918
  102OSM    O1310208  -0.173   5.773   7.404  0.1326 -0.6327  0.2567
  102OSM    O1410209  -0.237   6.014   7.478 -0.3475  0.0358  0.8074
  102OSM    O1110210  -0.059   5.952   7.301  0.0039 -0.2074  0.3699
  102OSM    O1210211  -0.015   5.906   7.529  0.1790  0.6875 -0.8187
  102OSM    C1S10212   0.042   5.869   7.236 -0.1521  0.8158  0.2721
  102OSM    H1S10213   0.035   5.762   7.267 -0.8102  0.9182  0.4971
  102OSM    H1T10214   0.144   5.911   7.243 -0.4055  1.3950  0.5137
  102OSM     NF10215   0.078   5.773   6.999  0.5570 -0.2287  0.0198
  102OSM    HNF10216   0.148   5.812   6.940 -1.8982 -0.0962 -3.1005
  102OSM    C2S10217   0.005   5.870   7.082 -0.1525  0.6407 -0.3602
  102OSM    H2S10218  -0.104   5.848   7.073 -0.1239  0.2287  0.2124
  102OSM    C3S10219   0.024   6.010   7.021  0.2144  0.3968 -0.3574
  102OSM    H3S10220   0.133   6.028   7.020 -0.1069  2.6148 -2.3638
  102OSM     O310221  -0.015   6.119   7.105  0.3509  0.4469 -0.4952
  102OSM    HO310222  -0.043   6.068   7.182 -0.0475 -0.1089 -1.0050
  102OSM    C4S10223  -0.024   6.012   6.879  0.3863  0.6706 -0.0616
  102OSM    H4S10224   0.044   5.975   6.801  0.0245  0.0637 -0.0904
  102OSM    C5S10225  -0.140   6.074   6.833  0.6597 -0.4085 -0.5366
  102OSM    H5S10226  -0.202   6.110   6.917  1.8978  0.5419  0.0041
  102OSM    C6S10227  -0.203   6.095   6.700  0.3390  0.6899  0.2693
  102OSM    H6S10228  -0.195   6.203   6.677  0.8010  0.2168 -2.0275
  102OSM    H6T10229  -0.308   6.059   6.703  1.1772 -1.9438  0.4728
  102OSM    C7S10230  -0.139   6.028   6.582  0.0277  0.4256  0.0957
  102OSM    H7S10231  -0.142   5.917   6.589 -0.5028  0.4220 -0.1062
  102OSM    H7T10232  -0.032   6.058   6.580  0.2658 -0.4057  0.1575
  102OSM    C8S10233  -0.194   6.063   6.440  0.3516 -0.0276  0.2274
  102OSM    H8S10234  -0.299   6.030   6.431 -0.1911  1.3323  1.2495
  102OSM    H8T10235  -0.125   6.008   6.372  1.6634 -1.3420  2.4952
  102OSM    C9S10236  -0.165   6.210   6.408 -0.4607 -0.1966  0.2137
  102OSM    H9S10237  -0.085   6.263   6.465 -0.3245 -0.2548  0.0773
  102OSM    H9T10238  -0.255   6.270   6.434  0.7490  1.3540  0.9632
  102OSM   C10S10239  -0.129   6.237   6.262 -0.0131 -0.0922  0.0481
  102OSM   H10S10240  -0.039   6.176   6.243  0.0117 -0.6230  1.7249
  102OSM   H10T10241  -0.105   6.345   6.252  0.6575 -0.1295  1.1383
  102OSM   C11S10242  -0.243   6.215   6.164 -0.2829  0.5697  0.2604
  102OSM   H11S10243  -0.337   6.251   6.211 -0.3107  0.2055  0.4910
  102OSM   H11T10244  -0.262   6.107   6.144  4.6460 -0.4067 -0.6935
  102OSM   C12S10245  -0.229   6.289   6.026 -0.0928  0.3440 -0.2007
  102OSM   H12S10246  -0.121   6.281   5.998 -0.0013  0.5449  0.0898
  102OSM   H12T10247  -0.266   6.393   6.032 -0.2039  0.2773  0.2956
  102OSM   C13S10248  -0.312   6.235   5.909  0.5444  0.5085 -0.0630
  102OSM   H13S10249  -0.421   6.223   5.927  1.0444 -3.6756  1.0355
  102OSM   H13T10250  -0.274   6.135   5.879  3.4500  1.2005  0.9926
  102OSM   C14S10251  -0.301   6.319   5.782 -0.1487 -0.5972  0.1639
  102OSM   H14S10252  -0.198   6.327   5.739 -0.1964 -1.1207 -0.0542
  102OSM   H14T10253  -0.332   6.417   5.823 -4.3646 -1.6078 -0.2134
  102OSM   C15S10254  -0.391   6.269   5.670  0.2914 -0.3273 -0.3173
  102OSM   H15S10255  -0.490   6.235   5.708 -1.0444  2.2125 -1.2585
  102OSM   H15T10256  -0.353   6.176   5.622 -2.0486 -2.2183  1.2419
  102OSM   C16S10257  -0.414   6.377   5.559 -0.2747  0.8351 -0.0258
  102OSM   H16S10258  -0.459   6.470   5.601  1.5804  2.8472 -2.2249
  102OSM   H16T10259  -0.490   6.336   5.489  1.0064 -1.9645  0.0601
  102OSM   C17S10260  -0.291   6.420   5.490  0.9838 -0.9522  0.5597
  102OSM   H17S10261  -0.244   6.336   5.435 -1.3976 -0.9358 -1.7085
  102OSM   H17T10262  -0.222   6.453   5.571 -0.7977 -0.3855  1.8881
  102OSM   C18S10263  -0.314   6.529   5.390 -0.2406 -0.2509  0.1743
  102OSM   H18S10264  -0.388   6.483   5.320  0.8547 -1.9337  0.0393
  102OSM   H18T10265  -0.219   6.551   5.336 -0.3184 -0.8134 -0.2044
  102OSM   H18U10266  -0.357   6.617   5.442  0.6483 -0.1841  0.8189
  102OSM    C1F10267   0.054   5.642   7.002  0.3082  0.5990  0.5222
  102OSM     OF10268  -0.037   5.596   7.070 -0.0464 -0.2929 -0.0203
  102OSM    C2F10269   0.147   5.549   6.934  0.3211  1.1535 -0.4661
  102OSM    H2F10270   0.207   5.481   6.998 -1.0697 -0.0332 -0.3655
  102OSM    H2G10271   0.224   5.607   6.878  0.2984 -0.5529 -2.3691
  102OSM    C3F10272   0.078   5.454   6.827 -0.4230 -0.4924 -0.2678
  102OSM    H3F10273   0.021   5.376   6.882 -2.8555  1.3563  0.0384
  102OSM    H3G10274   0.157   5.394   6.778 -0.1042  0.0001 -0.3653
  102OSM    C4F10275  -0.010   5.529   6.726 -0.0429 -0.7829 -0.2526
  102OSM    H4F10276   0.050   5.617   6.694 -0.8176  0.0370  0.4642
  102OSM    H4G10277  -0.104   5.571   6.769 -0.4874 -0.3128 -1.6279
  102OSM    C5F10278  -0.056   5.443   6.609 -0.3486 -0.2278 -0.3282
  102OSM    H5F10279  -0.131   5.366   6.637  1.1461 -0.8316  2.2428
  102OSM    H5G10280   0.039   5.393   6.580  0.8249  2.4699 -1.5515
  102OSM    C6F10281  -0.125   5.530   6.495  0.0146 -0.4833 -0.2492
  102OSM    H6F10282  -0.052   5.604   6.457 -0.0859 -1.0458 -1.6173
  102OSM    H6G10283  -0.214   5.579   6.539 -0.0067 -0.6005 -0.1616
  102OSM    C7F10284  -0.188   5.453   6.379 -0.5455 -0.2321  0.6626
  102OSM    H7F10285  -0.221   5.529   6.305  1.6902 -2.3103 -2.7766
  102OSM    H7G10286  -0.281   5.399   6.408 -2.3423  1.4249 -1.5825
  102OSM    C8F10287  -0.078   5.361   6.310  0.4624 -0.9304 -0.2329
  102OSM    H8F10288  -0.055   5.284   6.387  1.2674  0.7870  1.3299
  102OSM    H8G10289   0.016   5.416   6.291  0.9012 -1.2496  0.9209
  102OSM    C9F10290  -0.128   5.305   6.184 -0.0840 -0.0453  0.3464
  102OSM    H9F10291  -0.228   5.260   6.192 -0.3777  0.7332  1.2393
  102OSM   C10F10292  -0.072   5.302   6.061  0.1434  0.5336  0.4590
  102OSM   H10F10293  -0.125   5.250   5.980 -1.5541  1.2514  1.0596
  102OSM   C11F10294   0.077   5.341   6.024  0.6172 -0.6213  0.3059
  102OSM   H11F10295   0.133   5.250   5.997  2.7063  0.3919  1.0308
  102OSM   H11G10296   0.127   5.393   6.109 -0.7787 -0.8812  1.3379
  102OSM   C12F10297   0.085   5.444   5.913 -0.1891  0.0942  0.7066
  102OSM   H12F10298   0.179   5.502   5.897  0.5720 -1.4185 -0.5483
  102OSM   H12G10299   0.003   5.518   5.926 -1.0457 -0.9888  1.6630
  102OSM   C13F10300   0.060   5.370   5.774  0.1678  0.5502  0.4888
  102OSM   H13F10301  -0.027   5.303   5.790  1.3230 -1.7653 -2.1093
  102OSM   H13G10302   0.148   5.301   5.768  1.6304  2.3663  0.2138
  102OSM   C14F10303   0.032   5.470   5.666 -0.2503  0.7055 -0.0948
  102OSM   H14F10304   0.124   5.523   5.634  0.9694 -1.4241 -0.3592
  102OSM   H14G10305  -0.033   5.548   5.709  0.6964  1.6184 -0.2746
  102OSM   C15F10306  -0.032   5.410   5.543  0.0188  0.1732 -0.8926
  102OSM   H15F10307  -0.128   5.366   5.576  0.3243 -0.5360 -0.9247
  102OSM   H15G10308   0.036   5.329   5.510  0.6125  0.3895 -0.2230
  102OSM   C16F10309  -0.058   5.515   5.439 -0.3125 -0.3381 -0.3215
  102OSM   H16F10310   0.028   5.566   5.390 -0.2646 -0.4237 -0.3272
  102OSM   H16G10311  -0.118   5.592   5.492  0.2860 -1.0411  1.4333
  102OSM   C17F10312  -0.135   5.468   5.316 -0.0269 -0.5550 -0.1491
  102OSM   H17F10313  -0.144   5.557   5.250  1.0356  1.1736  1.9396
  102OSM   H17G10314  -0.238   5.442   5.346 -1.5892  3.3297 -1.5535
  102OSM   C18F10315  -0.070   5.344   5.250 -0.0348 -0.4667 -0.0722
  102OSM   H18F10316   0.035   5.361   5.219  0.2810 -0.0269  1.1677
  102OSM   H18G10317  -0.135   5.315   5.165  0.3662  0.0066 -0.5445
  102OSM   H18H10318  -0.071   5.256   5.318 -0.7036  0.3764  1.0531
  103OSM      N10319   6.007   0.345   7.897 -0.4905  0.0793 -0.5013
  103OSM    C1510320   5.933   0.354   8.023  0.5971  0.7893 -0.0738
  103OSM   H15A10321   5.869   0.268   8.040  2.8353 -0.7482  1.0629
  103OSM   H15B10322   5.865   0.437   8.011  3.2593  3.3449  1.1930
  103OSM   H15C10323   5.995   0.372   8.109 -2.6148  2.0581  2.1845
  103OSM    C1410324   6.099   0.231   7.902 -0.0451  0.4416  0.5269
  103OSM   H14A10325   6.048   0.140   7.930  0.0739 -0.0023 -0.6795
  103OSM   H14B10326   6.190   0.243   7.958  0.2614 -0.3645  0.2154
  103OSM   H14C10327   6.135   0.212   7.802  0.8459  0.5508  0.8169
  103OSM    C1310328   5.911   0.333   7.788  0.4170  0.0654  0.6503
  103OSM   H13A10329   5.946   0.294   7.694 -0.9747 -0.7827  0.4542
  103OSM   H13B10330   5.858   0.425   7.767 -0.4675 -0.8436 -1.3190
  103OSM   H13C10331   5.842   0.255   7.816 -2.5801  1.1523 -2.7821
  103OSM    C1210332   6.092   0.471   7.876  0.0150 -0.1691  0.0406
  103OSM   H12A10333   6.153   0.475   7.965 -0.5088  2.5033  0.3688
  103OSM   H12B10334   6.031   0.560   7.876 -0.7945 -0.7121  0.9927
  103OSM    C1110335   6.180   0.473   7.751  0.1304 -0.4003  0.1963
  103OSM   H11A10336   6.246   0.384   7.745  0.6062 -0.1383  1.1507
  103OSM   H11B10337   6.254   0.554   7.774 -0.2264 -1.2302  5.8738
  103OSM      P10338   6.045   0.613   7.571 -0.1827 -0.0227  0.0789
  103OSM    O1310339   5.899   0.586   7.539 -0.1399  0.0022 -0.5908
  103OSM    O1410340   6.076   0.724   7.669  0.7007  0.6463 -0.5381
  103OSM    O1110341   6.115   0.628   7.434 -0.6259  0.3437  0.2079
  103OSM    O1210342   6.111   0.486   7.630  0.6622 -0.4358 -0.1229
  103OSM    C1S10343   6.215   0.541   7.375 -0.4577  0.0391  0.4019
  103OSM    H1S10344   6.232   0.453   7.441 -2.5084 -0.5109  0.2847
  103OSM    H1T10345   6.309   0.600   7.368 -0.9996  0.8618 -0.0624
  103OSM     NF10346   6.282   0.400   7.187  0.4150 -0.3433 -1.3252
  103OSM    HNF10347   6.348   0.450   7.131  1.8559  1.2381  1.5192
  103OSM    C2S10348   6.168   0.475   7.244 -0.3767 -0.4232 -0.4080
  103OSM    H2S10349   6.083   0.408   7.272 -1.2081 -0.0161 -1.8938
  103OSM    C3S10350   6.114   0.587   7.146  0.7688  0.0518  0.0612
  103OSM    H3S10351   6.200   0.644   7.103  2.2972 -0.9710  1.6248
  103OSM     O310352   6.026   0.684   7.207  0.0893  0.1316  0.3279
  103OSM    HO310353   6.038   0.651   7.296  0.3918 -1.6501 -0.3130
  103OSM    C4S10354   6.055   0.518   7.023 -0.6591 -0.8365 -0.2602
  103OSM    H4S10355   6.105   0.537   6.926 -2.1090  2.9698 -0.4442
  103OSM    C5S10356   5.946   0.455   7.010  0.0400 -0.1428 -0.2192
  103OSM    H5S10357   5.870   0.457   7.089  0.4011  2.2705  0.1429
  103OSM    C6S10358   5.905   0.383   6.881  0.0881 -0.3238  0.8185
  103OSM    H6S10359   5.868   0.284   6.916 -1.8087 -0.1639 -0.5872
  103OSM    H6T10360   5.993   0.371   6.814  0.7338  0.1858  1.5712
  103OSM    C7S10361   5.789   0.444   6.792  0.2583  1.2085  0.3238
  103OSM    H7S10362   5.701   0.461   6.858  1.2306  0.3310  1.9098
  103OSM    H7T10363   5.762   0.366   6.717  0.4854  1.4184  0.0211
  103OSM    C8S10364   5.833   0.576   6.726  0.2748  0.1956  0.0010
  103OSM    H8S10365   5.925   0.570   6.665  1.5973 -0.1924  1.9686
  103OSM    H8T10366   5.873   0.635   6.812  0.4240 -1.5839  1.1950
  103OSM    C9S10367   5.717   0.660   6.661 -0.1216  0.7537  0.7234
  103OSM    H9S10368   5.768   0.755   6.633  0.6166  0.8882  2.4038
  103OSM    H9T10369   5.635   0.681   6.733 -2.8622  0.0703 -1.9745
  103OSM   C10S10370   5.640   0.599   6.545  0.2290  0.2207 -0.1329
  103OSM   H10S10371   5.572   0.513   6.565 -0.0860  0.2805 -0.8978
  103OSM   H10T10372   5.709   0.567   6.464  1.3704  0.2522  0.8142
  103OSM   C11S10373   5.540   0.697   6.471 -0.0041 -1.1723  0.0366
  103OSM   H11S10374   5.593   0.793   6.452 -0.3001 -0.0884  3.8142
  103OSM   H11T10375   5.472   0.726   6.554 -1.0704  1.9118 -1.7416
  103OSM   C12S10376   5.475   0.650   6.344 -0.0069  0.3175 -0.2933
  103OSM   H12S10377   5.383   0.709   6.327 -2.0497 -2.7886 -0.9486
  103OSM   H12T10378   5.453   0.541   6.349 -1.1367  0.4463 -1.8449
  103OSM   C13S10379   5.557   0.679   6.219  0.6599 -0.5588  0.4634
  103OSM   H13S10380   5.651   0.620   6.215  0.1646 -1.2998 -1.8790
  103OSM   H13T10381   5.594   0.783   6.218  2.3764 -1.1306 -0.2809
  103OSM   C14S10382   5.487   0.653   6.083 -0.0572 -0.5460  0.0777
  103OSM   H14S10383   5.399   0.720   6.092  1.9349  2.0458  2.3278
  103OSM   H14T10384   5.451   0.548   6.078 -3.3405  0.3582  1.9848
  103OSM   C15S10385   5.571   0.693   5.966 -0.3092 -0.3253  0.4155
  103OSM   H15S10386   5.656   0.621   5.958 -0.7313 -0.7354 -0.5201
  103OSM   H15T10387   5.612   0.796   5.976 -0.6789  0.0842 -1.7099
  103OSM   C16S10388   5.489   0.703   5.831  0.6566 -0.1893 -0.7228
  103OSM   H16S10389   5.495   0.806   5.788 -1.9919  1.4172  2.3358
  103OSM   H16T10390   5.386   0.673   5.858  0.6833  1.5144  1.5768
  103OSM   C17S10391   5.532   0.601   5.723  0.1594  0.1440 -0.3647
  103OSM   H17S10392   5.544   0.505   5.779  0.9687  0.4355 -0.0215
  103OSM   H17T10393   5.633   0.635   5.692  1.1418 -3.4253 -1.5625
  103OSM   C18S10394   5.455   0.585   5.591  0.1033 -0.7445 -0.2522
  103OSM   H18S10395   5.411   0.677   5.548  2.5266  1.3444  1.4408
  103OSM   H18T10396   5.361   0.527   5.603 -0.9355  0.7183 -0.9508
  103OSM   H18U10397   5.518   0.533   5.515 -0.4883 -0.2167 -1.1249
  103OSM    C1F10398   6.311   0.276   7.219 -0.0450  0.3382  0.3199
  103OSM     OF10399   6.250   0.218   7.305 -0.5634 -0.0813 -0.5322
  103OSM    C2F10400   6.406   0.197   7.128  0.3250 -0.9775 -0.2227
  103OSM    H2F10401   6.441   0.107   7.184 -0.6198 -0.8581  0.5733
  103OSM    H2G10402   6.500   0.253   7.105  1.3688 -2.7190 -0.4068
  103OSM    C3F10403   6.335   0.174   6.993  0.1493 -0.3175 -0.1798
  103OSM    H3F10404   6.303   0.277   6.967  2.5254  0.9627  1.5454
  103OSM    H3G10405   6.248   0.108   7.013 -0.6660  0.6062 -0.5641
  103OSM    C4F10406   6.427   0.126   6.881 -0.3145 -0.0935 -0.1424
  103OSM    H4F10407   6.491   0.047   6.926 -0.4300  0.4364  0.9827
  103OSM    H4G10408   6.499   0.209   6.863 -0.9966  0.4327 -0.4928
  103OSM    C5F10409   6.360   0.070   6.744  0.1540 -0.7056 -0.3450
  103OSM    H5F10410   6.313   0.162   6.703  1.4952 -0.5415 -1.6330
  103OSM    H5G10411   6.287  -0.003   6.784 -0.9499 -1.1353 -2.9163
  103OSM    C6F10412   6.453   0.010   6.640  0.1722  0.3983 -0.0028
  103OSM    H6F10413   6.508  -0.075   6.686 -3.1681 -2.7884 -1.3733
  103OSM    H6G10414   6.529   0.086   6.612 -0.9631  0.8551 -2.0485
  103OSM    C7F10415   6.372  -0.041   6.518  0.5357 -0.0016 -0.0593
  103OSM    H7F10416   6.278  -0.088   6.553  0.9749 -1.0987 -0.2915
  103OSM    H7G10417   6.429  -0.125   6.473 -0.7098  0.1960 -2.1419
  103OSM    C8F10418   6.340   0.070   6.417  0.2169 -0.5295 -0.1546
  103OSM    H8F10419   6.424   0.138   6.390  0.9625 -1.2343  0.3491
  103OSM    H8G10420   6.279   0.140   6.478  3.6565  2.4342  0.2785
  103OSM    C9F10421   6.264   0.013   6.302 -0.6141 -0.1444 -0.3312
  103OSM    H9F10422   6.190  -0.063   6.327 -1.4953  0.8297  0.1146
  103OSM   C10F10423   6.287   0.045   6.171 -0.3018  0.1704 -0.8361
  103OSM   H10F10424   6.214   0.016   6.094  0.5104 -1.0375 -1.1775
  103OSM   C11F10425   6.389   0.147   6.131 -0.1516  0.3701 -0.0339
  103OSM   H11F10426   6.480   0.144   6.194  0.2918 -4.0486 -0.5797
  103OSM   H11G10427   6.341   0.248   6.127  0.5331  0.6579 -1.5505
  103OSM   C12F10428   6.446   0.116   5.991  0.4949  0.4331 -0.8053
  103OSM   H12F10429   6.489   0.014   5.990 -0.7262 -0.1066 -2.4055
  103OSM   H12G10430   6.522   0.193   5.965  0.6185  0.8619  0.7429
  103OSM   C13F10431   6.348   0.114   5.872  0.1387  0.2577 -0.0261
  103OSM   H13F10432   6.291   0.209   5.864  1.9023  1.4307  0.7909
  103OSM   H13G10433   6.268   0.039   5.892  1.0794 -0.1871  2.3214
  103OSM   C14F10434   6.408   0.092   5.734 -0.3118  0.0464  0.1578
  103OSM   H14F10435   6.466  -0.003   5.739 -0.7760 -0.1785  3.9446
  103OSM   H14G10436   6.479   0.177   5.726 -0.0258 -0.1247  0.7817
  103OSM   C15F10437   6.288   0.102   5.625 -0.6432  0.9815  0.6939
  103OSM   H15F10438   6.221   0.190   5.636 -0.1136  1.2891  1.5199
  103OSM   H15G10439   6.226   0.011   5.641  0.2005  0.1071 -0.7760
  103OSM   C16F10440   6.344   0.091   5.477  0.3383 -0.0421  0.5256
  103OSM   H16F10441   6.256   0.048   5.424  0.3055  0.5702  0.0663
  103OSM   H16G10442   6.434   0.027   5.465  1.4667  1.3965  1.0214
  103OSM   C17F10443   6.365   0.227   5.410  0.3417  0.0276 -0.3524
  103OSM   H17F10444   6.435   0.278   5.480  1.5485 -1.5422 -0.3493
  103OSM   H17G10445   6.263   0.272   5.415 -1.4391 -3.4741 -1.5923
  103OSM   C18F10446   6.400   0.237   5.257 -0.1700 -0.0417  0.2234
  103OSM   H18F10447   6.334   0.164   5.207  0.5549  1.1226 -2.5972
  103OSM   H18G10448   6.504   0.200   5.240 -0.2660 -0.7690  1.1574
  103OSM   H18H10449   6.391   0.340   5.216 -1.8995 -0.0504  0.5193
  104OSM      N10450   0.577   1.541   7.148 -0.3023 -0.0529 -0.6009
  104OSM    C1510451   0.457   1.563   7.057 -0.1733  0.1519  0.3185
  104OSM   H15A10452   0.370   1.563   7.121  0.1924 -1.0363  0.8508
  104OSM   H15B10453   0.449   1.473   6.997 -2.1192  0.3781  0.1623
  104OSM   H15C10454   0.476   1.656   7.006  2.4534 -0.6196 -0.2446
  104OSM    C1410455   0.700   1.525   7.062 -0.8270  0.2931 -0.4713
  104OSM   H14A10456   0.703   1.608   6.994 -2.4488  0.6607 -0.1450
  104OSM   H14B10457   0.703   1.437   7.000 -1.0016 -0.8492  1.0818
  104OSM   H14C10458   0.792   1.524   7.118 -0.0378 -1.2879 -1.7115
  104OSM    C1310459   0.596   1.662   7.229 -0.0198 -0.1187  0.2868
  104OSM   H13A10460   0.496   1.691   7.259  0.3899 -0.4314  2.0897
  104OSM   H13B10461   0.639   1.754   7.193  0.6939 -0.4464  0.2856
  104OSM   H13C10462   0.641   1.640   7.325  1.4783 -1.3134 -0.6492
  104OSM    C1210463   0.548   1.422   7.238  0.5738 -0.2880  0.2197
  104OSM   H12A10464   0.642   1.398   7.286 -0.1987  3.9029  4.6455
  104OSM   H12B10465   0.492   1.345   7.187 -0.2027 -0.4786  1.3359
  104OSM    C1110466   0.447   1.450   7.353  0.4066 -0.2470  0.0485
  104OSM   H11A10467   0.482   1.532   7.419 -2.8296  1.1383  0.2165
  104OSM   H11B10468   0.435   1.361   7.419 -2.1983  1.0711  1.4926
  104OSM      P10469   0.216   1.394   7.271 -0.2116  0.3764 -0.2766
  104OSM    O1310470   0.156   1.343   7.394  0.3260 -0.1429 -0.1573
  104OSM    O1410471   0.120   1.450   7.174  0.5282  0.2434 -0.3167
  104OSM    O1110472   0.304   1.278   7.202 -0.2386 -0.0948  0.4069
  104OSM    O1210473   0.321   1.498   7.310  0.2501 -0.3073  0.0134
  104OSM    C1S10474   0.237   1.156   7.162  0.4145 -0.4678 -0.4738
  104OSM    H1S10475   0.139   1.144   7.214 -2.0747  1.1829 -4.3181
  104OSM    H1T10476   0.303   1.071   7.190  1.3660  0.4851  0.2407
  104OSM     NF10477   0.118   1.024   6.974  0.2145 -0.0106 -0.4841
  104OSM    HNF10478   0.170   0.942   6.952  0.1153 -1.0757  2.7816
  104OSM    C2S10479   0.202   1.137   7.007  0.3736 -0.4133  0.0566
  104OSM    H2S10480   0.149   1.231   6.984  3.2044  1.1719 -0.5083
  104OSM    C3S10481   0.333   1.140   6.929  0.8423  0.2223  0.2210
  104OSM    H3S10482   0.379   1.041   6.949  0.7229 -0.2293 -1.5400
  104OSM     O310483   0.430   1.240   6.973  0.2839  0.2211 -0.4454
  104OSM    HO310484   0.391   1.258   7.059 -0.7363 -3.2937 -0.0423
  104OSM    C4S10485   0.308   1.155   6.787  0.2111  0.3010 -0.5150
  104OSM    H4S10486   0.276   1.258   6.768  3.8101  1.3604 -1.6833
  104OSM    C5S10487   0.316   1.068   6.684  0.3672 -0.1598 -0.4771
  104OSM    H5S10488   0.350   0.966   6.707  0.4966  0.2637  1.3641
  104OSM    C6S10489   0.288   1.106   6.547 -0.3504 -0.3948  0.7303
  104OSM    H6S10490   0.270   1.212   6.521 -2.3665 -1.0200 -0.6270
  104OSM    H6T10491   0.197   1.050   6.517  0.1342 -0.2744 -1.1172
  104OSM    C7S10492   0.409   1.064   6.457 -0.0099 -0.1232  0.3597
  104OSM    H7S10493   0.465   0.971   6.484  1.5483 -0.6432 -3.9118
  104OSM    H7T10494   0.485   1.144   6.468 -1.0061  0.9231 -0.2295
  104OSM    C8S10495   0.379   1.063   6.304 -0.0574 -0.1441 -0.2688
  104OSM    H8S10496   0.329   1.159   6.279  1.7255  0.4769 -1.6282
  104OSM    H8T10497   0.312   0.974   6.296 -1.1771  0.2738  3.0643
  104OSM    C9S10498   0.512   1.046   6.223  0.5544 -0.1678 -0.1713
  104OSM    H9S10499   0.562   0.955   6.262  0.3106 -0.1185  0.2704
  104OSM    H9T10500   0.568   1.137   6.252 -0.9348  1.4602 -2.1326
  104OSM   C10S10501   0.490   1.042   6.073  0.1118  0.6675  0.2295
  104OSM   H10S10502   0.407   0.970   6.056  1.4327 -0.5276 -1.6166
  104OSM   H10T10503   0.586   1.010   6.027 -1.4557  0.6277 -3.3958
  104OSM   C11S10504   0.450   1.170   6.003  0.8441 -0.6878  0.1531
  104OSM   H11S10505   0.532   1.242   5.990 -0.6088  1.2226  1.0975
  104OSM   H11T10506   0.378   1.224   6.068  1.5315  0.1117  0.2487
  104OSM   C12S10507   0.375   1.152   5.865  0.2664 -1.0716 -0.9975
  104OSM   H12S10508   0.272   1.115   5.883  0.0018  0.2045  0.3511
  104OSM   H12T10509   0.433   1.096   5.789  0.3131 -0.1788 -1.6311
  104OSM   C13S10510   0.345   1.294   5.799 -0.4962 -0.1691 -0.3428
  104OSM   H13S10511   0.442   1.345   5.781 -1.4209  1.7012 -0.2393
  104OSM   H13T10512   0.292   1.352   5.878 -1.8990 -2.0623  0.1873
  104OSM   C14S10513   0.261   1.284   5.676 -0.2508  0.0269 -0.1065
  104OSM   H14S10514   0.240   1.382   5.628  0.9420  0.3852  0.0717
  104OSM   H14T10515   0.160   1.249   5.707 -0.2965  0.1816 -0.0796
  104OSM   C15S10516   0.336   1.189   5.570 -0.2268 -0.5288 -0.2343
  104OSM   H15S10517   0.352   1.088   5.612  0.8570 -0.1023  0.4148
  104OSM   H15T10518   0.436   1.229   5.545 -0.9530  1.9855  0.5928
  104OSM   C16S10519   0.239   1.161   5.451  0.2970  0.0032 -0.3955
  104OSM   H16S10520   0.231   1.249   5.384  0.1244 -0.4578 -0.9964
  104OSM   H16T10521   0.138   1.142   5.494  0.9223  1.3398  1.7724
  104OSM   C17S10522   0.292   1.045   5.364 -0.2515  0.0402  0.6244
  104OSM   H17S10523   0.390   1.079   5.325 -0.0442 -0.4514  0.7066
  104OSM   H17T10524   0.218   1.042   5.281  0.6234  1.1360 -0.2276
  104OSM   C18S10525   0.304   0.908   5.436 -1.0259 -0.8458 -0.0688
  104OSM   H18S10526   0.204   0.892   5.482 -1.6544  2.5195 -0.0229
  104OSM   H18T10527   0.382   0.906   5.515 -1.2626  3.2900  0.4903
  104OSM   H18U10528   0.323   0.833   5.356  0.5714  0.6608 -1.1994
  104OSM    C1F10529  -0.012   1.016   7.003  0.1129 -0.0604 -0.1909
  104OSM     OF10530  -0.062   1.124   7.038 -0.2206 -0.6430  0.3394
  104OSM    C2F10531  -0.087   0.892   6.985 -0.4291  0.3667 -0.1405
  104OSM    H2F10532  -0.102   0.844   7.084  0.7926 -0.2332 -0.2135
  104OSM    H2G10533  -0.020   0.824   6.927 -1.3687  0.5137 -1.4289
  104OSM    C3F10534  -0.222   0.918   6.910  0.1097 -0.1952 -0.2342
  104OSM    H3F10535  -0.298   0.977   6.966 -0.9328 -0.1143 -1.6707
  104OSM    H3G10536  -0.271   0.819   6.894 -1.0483  0.4992 -1.1458
  104OSM    C4F10537  -0.219   0.978   6.772  0.5266  0.5778  0.2543
  104OSM    H4F10538  -0.157   0.909   6.711  0.6092 -1.1674  2.2204
  104OSM    H4G10539  -0.173   1.079   6.777  0.5263  0.5453  0.9283
  104OSM    C5F10540  -0.350   0.981   6.703 -0.1760  0.5804  0.3035
  104OSM    H5F10541  -0.414   1.051   6.762 -2.0287 -0.8751  0.1409
  104OSM    H5G10542  -0.409   0.887   6.697 -1.2846  1.2781 -0.0173
  104OSM    C6F10543  -0.329   1.038   6.559 -0.1655 -0.0742 -0.5535
  104OSM    H6F10544  -0.282   1.138   6.572  2.2412 -1.0451 -1.2927
  104OSM    H6G10545  -0.430   1.039   6.513  0.1191 -0.8940 -1.2269
  104OSM    C7F10546  -0.246   0.956   6.466  0.0239  0.1056  0.3231
  104OSM    H7F10547  -0.288   0.853   6.459  1.1396 -0.3446  0.0104
  104OSM    H7G10548  -0.146   0.945   6.513  0.3060  4.0360  0.9735
  104OSM    C8F10549  -0.223   1.016   6.322  0.1858 -0.8855  0.0853
  104OSM    H8F10550  -0.156   0.956   6.257  0.6407 -1.0426  0.6889
  104OSM    H8G10551  -0.165   1.106   6.352 -2.7033  0.8435  0.9479
  104OSM    C9F10552  -0.348   1.055   6.241 -0.2767 -0.3270 -0.2969
  104OSM    H9F10553  -0.435   1.077   6.305 -0.5081  1.1711 -1.0852
  104OSM   C10F10554  -0.368   1.056   6.104 -1.2313  0.0820 -0.2093
  104OSM   H10F10555  -0.460   1.093   6.057 -0.8918  0.3723 -0.6517
  104OSM   C11F10556  -0.250   1.025   6.015  0.4249 -1.0688  0.2707
  104OSM   H11F10557  -0.211   0.921   6.027  2.2647 -0.3634  0.7401
  104OSM   H11G10558  -0.169   1.095   6.046 -0.1427 -1.3170  2.4414
  104OSM   C12F10559  -0.319   1.047   5.879  0.2061 -0.5585  0.2911
  104OSM   H12F10560  -0.342   1.156   5.873  0.5107 -0.3793  1.9550
  104OSM   H12G10561  -0.411   0.986   5.866 -1.3214  2.0101 -2.3105
  104OSM   C13F10562  -0.239   1.015   5.750 -0.1082  0.2200  0.3479
  104OSM   H13F10563  -0.214   0.907   5.755 -0.4814  0.1666  1.3500
  104OSM   H13G10564  -0.145   1.074   5.751  1.3922 -2.0309  1.0024
  104OSM   C14F10565  -0.305   1.041   5.608 -0.1804  0.3925  0.1313
  104OSM   H14F10566  -0.353   1.140   5.626 -1.5502 -0.1460 -0.4040
  104OSM   H14G10567  -0.396   0.984   5.578  0.5517 -1.2689  0.9607
  104OSM   C15F10568  -0.207   1.041   5.485 -0.7107  0.1641 -1.0852
  104OSM   H15F10569  -0.125   1.112   5.506 -1.4529  0.8112 -0.2973
  104OSM   H15G10570  -0.252   1.072   5.388 -0.3389  1.1088 -0.9713
  104OSM   C16F10571  -0.142   0.905   5.465 -0.1772 -0.5915 -0.0883
  104OSM   H16F10572  -0.228   0.836   5.448 -2.9955  2.4269  0.7766
  104OSM   H16G10573  -0.091   0.879   5.560 -0.9796 -0.8498  0.2829
  104OSM   C17F10574  -0.043   0.900   5.344 -0.4777 -0.3333 -0.4340
  104OSM   H17F10575   0.050   0.948   5.382  1.1927 -3.2845 -0.5140
  104OSM   H17G10576  -0.090   0.966   5.267 -2.8103  1.3463  2.2194
  104OSM   C18F10577  -0.026   0.756   5.300  0.2989  0.2035 -0.7508
  104OSM   H18F10578   0.034   0.757   5.207  2.5881  0.3448  0.6253
  104OSM   H18G10579  -0.128   0.713   5.291  0.0804  0.6848 -0.6085
  104OSM   H18H10580   0.015   0.697   5.386 -1.3569  0.2745  0.1286
  105OSM      N10581   6.448   6.487   7.542  0.5980 -0.1127 -0.1065
  105OSM    C1510582   6.482   6.339   7.549  0.9611 -1.0325  0.7653
  105OSM   H15A10583   6.422   6.301   7.630 -1.5950 -0.0295 -0.5438
  105OSM   H15B10584   6.589   6.332   7.563  1.0922  1.2534  1.4716
  105OSM   H15C10585   6.446   6.280   7.466 -1.0731  3.0470 -1.5575
  105OSM    C1410586   6.490   6.539   7.414  0.0892  0.5596 -0.0099
  105OSM   H14A10587   6.454   6.490   7.324 -0.2608 -3.2752  2.0397
  105OSM   H14B10588   6.595   6.526   7.393 -0.4873  0.5790 -3.4730
  105OSM   H14C10589   6.464   6.643   7.398 -0.0277  0.6780  0.9015
  105OSM    C1310590   6.295   6.499   7.545  0.2154 -0.3061 -0.1777
  105OSM   H13A10591   6.263   6.600   7.524  0.9535 -0.4147 -2.0558
  105OSM   H13B10592   6.257   6.467   7.641 -1.3923  0.5320 -0.5109
  105OSM   H13C10593   6.261   6.433   7.466  3.8391 -0.9483 -1.4092
  105OSM    C1210594   6.502   6.567   7.655  0.6662 -0.0053 -0.3118
  105OSM   H12A10595   6.462   6.535   7.750 -1.5720 -0.9076 -1.4883
  105OSM   H12B10596   6.472   6.670   7.641  0.7082  0.1630  0.7585
  105OSM    C1110597   6.657   6.575   7.680 -0.0455  0.5683 -0.1504
  105OSM   H11A10598   6.675   6.645   7.765 -0.1782  0.0049  0.3438
  105OSM   H11B10599   6.700   6.608   7.583 -0.8582 -1.7048 -1.3616
  105OSM      P10600   6.858   6.420   7.731  0.2789  0.0619 -0.3717
  105OSM    O1310601   6.926   6.502   7.833  0.4083 -0.6636  0.0181
  105OSM    O1410602   6.877   6.279   7.761  0.2269 -0.2015  0.4186
  105OSM    O1110603   6.911   6.458   7.594 -0.2833  0.1163 -0.0926
  105OSM    O1210604   6.700   6.444   7.725  0.0333 -0.1378 -0.3987
  105OSM    C1S10605   6.873   6.393   7.477  0.2153 -0.6763 -0.0315
  105OSM    H1S10606   6.764   6.405   7.462  0.6526  1.0026 -2.5385
  105OSM    H1T10607   6.901   6.286   7.481 -2.1634 -1.4114 -1.4181
  105OSM     NF10608   6.897   6.390   7.233 -0.2061 -0.6402 -0.3110
  105OSM    HNF10609   6.949   6.314   7.194 -0.8440 -0.9449 -0.5701
  105OSM    C2S10610   6.950   6.452   7.357  0.0474  0.1225  0.0658
  105OSM    H2S10611   6.933   6.561   7.359  1.0647  0.2917 -0.1215
  105OSM    C3S10612   7.104   6.434   7.390 -0.2330  0.0451 -0.3357
  105OSM    H3S10613   7.133   6.334   7.430  2.7910  0.5942 -0.8837
  105OSM     O310614   7.148   6.520   7.495  0.5717 -0.4601  0.1422
  105OSM    HO310615   7.061   6.531   7.535  0.7520 -0.3508  0.5052
  105OSM    C4S10616   7.194   6.471   7.276 -0.1332 -0.2881  0.1230
  105OSM    H4S10617   7.189   6.573   7.236  4.1757 -0.2482 -0.7715
  105OSM    C5S10618   7.286   6.391   7.224  0.2854 -0.1900  0.8946
  105OSM    H5S10619   7.300   6.289   7.264  4.1831 -0.3487 -0.4570
  105OSM    C6S10620   7.357   6.406   7.094 -0.1945  0.0665  0.4090
  105OSM    H6S10621   7.467   6.412   7.102 -0.3646  1.8838  2.1061
  105OSM    H6T10622   7.332   6.502   7.046 -2.1134 -2.3728 -4.0555
  105OSM    C7S10623   7.306   6.320   6.981  0.0397  0.4397  1.0235
  105OSM    H7S10624   7.198   6.342   6.969 -0.9573 -3.8614  0.7383
  105OSM    H7T10625   7.306   6.214   7.015 -1.4253  0.4237  1.0257
  105OSM    C8S10626   7.392   6.342   6.859  1.3832  0.4802 -0.1102
  105OSM    H8S10627   7.498   6.332   6.889  1.0303  2.1275  1.9397
  105OSM    H8T10628   7.377   6.444   6.818  2.0209  0.6077 -0.0320
  105OSM    C9S10629   7.344   6.254   6.743 -0.3176  0.3010 -0.4157
  105OSM    H9S10630   7.233   6.252   6.737 -0.4323 -2.9267  0.8853
  105OSM    H9T10631   7.363   6.149   6.772  0.7089  1.1254  2.1905
  105OSM   C10S10632   7.407   6.296   6.613  0.5751 -0.5499  0.4393
  105OSM   H10S10633   7.518   6.295   6.623  0.5101 -0.3290  1.2824
  105OSM   H10T10634   7.390   6.403   6.588  3.1405 -0.5421 -1.7188
  105OSM   C11S10635   7.341   6.226   6.489  0.0966 -0.0358 -0.1464
  105OSM   H11S10636   7.233   6.252   6.481 -0.4502 -1.3211  2.2303
  105OSM   H11T10637   7.340   6.118   6.513 -1.5667  0.1144  0.6241
  105OSM   C12S10638   7.424   6.258   6.365 -0.0330 -0.2440 -0.5137
  105OSM   H12S10639   7.508   6.185   6.371 -2.6442 -3.4756 -0.1025
  105OSM   H12T10640   7.453   6.365   6.366 -3.9254  1.0455 -2.3504
  105OSM   C13S10641   7.356   6.226   6.231 -0.8206  0.5453  0.0540
  105OSM   H13S10642   7.255   6.270   6.239 -1.3446 -0.2309 -1.7380
  105OSM   H13T10643   7.360   6.116   6.215 -1.8145  0.5007  0.0770
  105OSM   C14S10644   7.408   6.296   6.102  0.1876 -0.1159  0.0357
  105OSM   H14S10645   7.516   6.273   6.087  0.0564 -1.2637  0.7124
  105OSM   H14T10646   7.402   6.406   6.116  2.5138 -0.1294  1.8117
  105OSM   C15S10647   7.327   6.265   5.983  0.2141 -0.6173 -0.4979
  105OSM   H15S10648   7.222   6.292   6.006  0.7667 -0.1913  1.7854
  105OSM   H15T10649   7.334   6.155   5.969 -0.6313 -0.7645  0.1739
  105OSM   C16S10650   7.364   6.349   5.863  0.1715 -0.4394 -0.9005
  105OSM   H16S10651   7.472   6.336   5.843  0.0231 -0.1832 -1.9025
  105OSM   H16T10652   7.357   6.459   5.877  0.1248 -0.6655  1.2343
  105OSM   C17S10653   7.284   6.310   5.741 -0.4220 -0.4650  0.0708
  105OSM   H17S10654   7.179   6.285   5.764 -0.5988 -0.2521 -0.4921
  105OSM   H17T10655   7.332   6.228   5.684 -1.2149 -1.2744  0.5377
  105OSM   C18S10656   7.281   6.415   5.625  0.1759 -0.8391  0.4953
  105OSM   H18S10657   7.230   6.379   5.533 -3.1253 -2.3077  2.6764
  105OSM   H18T10658   7.384   6.440   5.593  0.0212 -0.7248  0.0797
  105OSM   H18U10659   7.230   6.508   5.660 -1.3923 -1.0107 -1.1780
  105OSM    C1F10660   6.780   6.403   7.180  0.5369  0.9195  0.2189
  105OSM     OF10661   6.691   6.474   7.225 -0.0337 -0.2322 -0.2795
  105OSM    C2F10662   6.752   6.321   7.059  0.5878  0.8715  0.3845
  105OSM    H2F10663   6.766   6.215   7.090  0.8454  0.4500 -1.0857
  105OSM    H2G10664   6.831   6.342   6.984 -0.5226  2.9322 -0.2919
  105OSM    C3F10665   6.614   6.337   6.993 -0.3479 -0.3049  0.0182
  105OSM    H3F10666   6.603   6.442   6.958 -0.1048  0.3070  1.6611
  105OSM    H3G10667   6.537   6.320   7.072 -0.1186 -0.2549  0.2551
  105OSM    C4F10668   6.574   6.227   6.895 -0.2179  0.6174  0.8099
  105OSM    H4F10669   6.610   6.126   6.924  0.6262 -0.5637 -3.5290
  105OSM    H4G10670   6.634   6.249   6.803 -0.6852  1.6982  0.7481
  105OSM    C5F10671   6.428   6.214   6.860 -0.2028 -0.5324 -0.2010
  105OSM    H5F10672   6.381   6.311   6.834 -0.3208 -0.6235 -0.3278
  105OSM    H5G10673   6.373   6.190   6.953  2.1225  1.6219  1.8834
  105OSM    C6F10674   6.397   6.106   6.751 -0.2810  0.3730 -0.1240
  105OSM    H6F10675   6.289   6.086   6.733  0.4502 -1.1936 -3.8601
  105OSM    H6G10676   6.426   6.007   6.791  0.1249  0.4383 -0.2531
  105OSM    C7F10677   6.454   6.126   6.611  0.7483  0.1349 -0.1722
  105OSM    H7F10678   6.463   6.017   6.591 -0.0785  0.0173  0.0725
  105OSM    H7G10679   6.559   6.160   6.627  1.1999 -0.7364 -1.1467
  105OSM    C8F10680   6.378   6.205   6.500  0.3705 -0.2022 -0.0862
  105OSM    H8F10681   6.369   6.304   6.549  1.3812 -0.3514  0.4247
  105OSM    H8G10682   6.280   6.154   6.490  0.4564 -0.3972  0.0503
  105OSM    C9F10683   6.450   6.223   6.374  0.0014  1.1037 -0.2275
  105OSM    H9F10684   6.539   6.287   6.382 -0.9426  2.2300  2.6056
  105OSM   C10F10685   6.429   6.153   6.257 -0.4500 -0.7009 -0.3246
  105OSM   H10F10686   6.493   6.186   6.174 -1.6388 -1.7261 -1.6983
  105OSM   C11F10687   6.321   6.049   6.224  0.2440  0.3882  0.0196
  105OSM   H11F10688   6.217   6.084   6.240  0.3988  0.9448 -0.1708
  105OSM   H11G10689   6.340   5.967   6.295  1.0607  1.7910  1.4865
  105OSM   C12F10690   6.344   5.995   6.081 -0.2660  0.5240  0.1195
  105OSM   H12F10691   6.288   5.902   6.057  1.2156 -0.8772  1.8361
  105OSM   H12G10692   6.452   5.977   6.067 -0.4197 -1.4142  1.1198
  105OSM   C13F10693   6.287   6.102   5.987  0.3773  0.3465  0.3232
  105OSM   H13F10694   6.324   6.204   6.012  0.5198 -0.5104  4.1700
  105OSM   H13G10695   6.183   6.111   6.023  0.3925 -0.3728  0.5556
  105OSM   C14F10696   6.285   6.071   5.837 -0.0833  0.7220 -0.0205
  105OSM   H14F10697   6.227   5.976   5.838  2.1697 -0.8182  3.3017
  105OSM   H14G10698   6.383   6.045   5.792  0.6322  3.1907 -0.0397
  105OSM   C15F10699   6.194   6.169   5.758 -0.6060 -0.0087  0.0502
  105OSM   H15F10700   6.095   6.172   5.807 -0.2438 -1.5177  0.9270
  105OSM   H15G10701   6.181   6.135   5.652 -1.8575 -0.4004  0.3057
  105OSM   C16F10702   6.246   6.314   5.744  0.4711  0.4312 -0.4967
  105OSM   H16F10703   6.349   6.301   5.705  0.2717 -1.6239 -0.4544
  105OSM   H16G10704   6.252   6.365   5.842  2.3432  0.1754 -0.4569
  105OSM   C17F10705   6.151   6.399   5.663 -0.0014 -0.3584  0.1356
  105OSM   H17F10706   6.158   6.347   5.565  3.5889  0.2945 -0.0920
  105OSM   H17G10707   6.191   6.501   5.646 -0.3803 -0.3887 -1.0143
  105OSM   C18F10708   5.999   6.416   5.698  0.1409  0.5011  0.1361
  105OSM   H18F10709   5.938   6.443   5.610  0.1407  1.6584  0.4777
  105OSM   H18G10710   6.000   6.493   5.778 -0.6890 -0.4461  1.0898
  105OSM   H18H10711   5.963   6.322   5.746  1.8914  0.2707  1.1117
  106OSM      N10712   5.194   3.068   6.819 -0.3185 -0.1185  0.5591
  106OSM    C1510713   5.106   2.961   6.862 -0.5432  0.2283 -0.4495
  106OSM   H15A10714   5.042   2.925   6.783 -1.6709 -1.8983  1.3193
  106OSM   H15B10715   5.046   3.004   6.942  1.0732  2.1454 -0.1830
  106OSM   H15C10716   5.162   2.881   6.907  0.2834  1.7141  1.3348
  106OSM    C1410717   5.278   3.103   6.935  0.1510  0.1275 -0.2538
  106OSM   H14A10718   5.332   3.195   6.918  0.6011  0.0948  0.8573
  106OSM   H14B10719   5.345   3.022   6.959 -1.4124 -0.8879  0.8121
  106OSM   H14C10720   5.220   3.131   7.022 -0.3667 -1.7791  0.0586
  106OSM    C1310721   5.276   3.014   6.711 -0.7972  0.1447  0.7914
  106OSM   H13A10722   5.322   2.920   6.737 -2.5177 -0.8660  0.3524
  106OSM   H13B10723   5.348   3.088   6.678  0.2384 -0.2120  2.1670
  106OSM   H13C10724   5.204   2.981   6.638 -2.0752  0.0309  2.0697
  106OSM    C1210725   5.106   3.187   6.770 -0.0664 -0.0596  0.3642
  106OSM   H12A10726   5.070   3.178   6.668 -1.7224  1.2575  0.7867
  106OSM   H12B10727   5.182   3.264   6.774  1.9967 -1.9677  0.1324
  106OSM    C1110728   4.997   3.249   6.857 -0.3633 -0.5513  0.7389
  106OSM   H11A10729   4.924   3.176   6.897 -0.2724 -1.3607 -0.5230
  106OSM   H11B10730   4.937   3.316   6.792  2.9164  0.2299 -1.7593
  106OSM      P10731   5.148   3.452   6.941  0.1425  0.0269 -0.4354
  106OSM    O1310732   5.163   3.510   7.080  0.4885  0.3733 -0.0495
  106OSM    O1410733   5.265   3.413   6.864  0.0590  0.2169  0.7539
  106OSM    O1110734   5.051   3.540   6.850  0.0227  0.0199  0.5026
  106OSM    O1210735   5.058   3.323   6.964  0.1224  0.8411 -0.1365
  106OSM    C1S10736   4.930   3.611   6.894  0.3936  0.0058  0.7432
  106OSM    H1S10737   4.953   3.678   6.980 -0.9886  1.7397 -0.1566
  106OSM    H1T10738   4.852   3.540   6.929 -0.5330 -1.6077 -3.9279
  106OSM     NF10739   4.773   3.801   6.845 -0.4220 -0.4502 -0.0815
  106OSM    HNF10740   4.677   3.779   6.827 -0.1994  0.1904 -2.2760
  106OSM    C2S10741   4.871   3.704   6.784 -0.3870 -0.5566 -0.5222
  106OSM    H2S10742   4.951   3.769   6.742 -2.0361  3.3828  1.8367
  106OSM    C3S10743   4.800   3.620   6.681  0.8238 -0.6859 -0.2161
  106OSM    H3S10744   4.711   3.574   6.729 -0.6421 -0.8592 -2.9231
  106OSM     O310745   4.868   3.512   6.624 -0.0062  1.0948  0.3899
  106OSM    HO310746   4.943   3.497   6.681 -1.3730 -0.2038  1.9671
  106OSM    C4S10747   4.741   3.717   6.575 -0.7597  0.2477 -0.5506
  106OSM    H4S10748   4.673   3.791   6.620 -2.4784 -0.6539 -1.5705
  106OSM    C5S10749   4.774   3.732   6.448 -0.7273  0.5571  0.0499
  106OSM    H5S10750   4.850   3.660   6.412 -2.3639 -1.5193  0.5581
  106OSM    C6S10751   4.714   3.829   6.344 -0.8361  0.3760 -0.2233
  106OSM    H6S10752   4.632   3.771   6.296  1.0067 -0.8823 -1.9842
  106OSM    H6T10753   4.782   3.853   6.260  0.0288 -1.4802 -0.1173
  106OSM    C7S10754   4.638   3.956   6.387  0.3979  0.2733 -0.8647
  106OSM    H7S10755   4.711   4.030   6.426  1.3876  0.1242 -2.3674
  106OSM    H7T10756   4.565   3.931   6.467  1.4863 -2.1781 -0.5596
  106OSM    C8S10757   4.553   4.029   6.279  0.2068  0.9925  0.3535
  106OSM    H8S10758   4.535   4.135   6.308 -2.2195  0.8694 -0.4936
  106OSM    H8T10759   4.464   3.962   6.284  0.7168  0.2931  0.2183
  106OSM    C9S10760   4.616   4.029   6.138 -0.1099 -0.0204 -0.3150
  106OSM    H9S10761   4.623   3.925   6.100  0.0307 -0.6536  1.3644
  106OSM    H9T10762   4.724   4.054   6.143  0.0887 -0.6981 -0.9378
  106OSM   C10S10763   4.535   4.125   6.058 -0.3940  0.0687  0.6446
  106OSM   H10S10764   4.542   4.222   6.111 -0.9886  0.3470  0.2095
  106OSM   H10T10765   4.426   4.109   6.069 -0.7493  1.6498 -0.2483
  106OSM   C11S10766   4.589   4.124   5.909  0.5120 -0.3661 -0.0091
  106OSM   H11S10767   4.539   4.205   5.851 -0.9920 -0.1484  1.5454
  106OSM   H11T10768   4.583   4.029   5.851  1.4433 -0.6924  0.4096
  106OSM   C12S10769   4.740   4.164   5.894  0.7378  0.9179 -0.3549
  106OSM   H12S10770   4.806   4.092   5.946  2.0414  2.4924  0.2381
  106OSM   H12T10771   4.755   4.253   5.958  0.2551 -0.2877  1.5021
  106OSM   C13S10772   4.782   4.192   5.752 -0.0942  0.5713  0.3626
  106OSM   H13S10773   4.711   4.267   5.710 -0.2108 -0.5653 -1.5805
  106OSM   H13T10774   4.768   4.098   5.696  1.4809 -0.3840  1.5010
  106OSM   C14S10775   4.928   4.234   5.736 -0.2435 -0.3789  0.1468
  106OSM   H14S10776   5.002   4.157   5.768  1.3693  0.8883 -0.3945
  106OSM   H14T10777   4.951   4.327   5.793  2.7847  1.1351 -3.1246
  106OSM   C15S10778   4.963   4.269   5.589 -1.3088 -0.1248 -0.2665
  106OSM   H15S10779   4.910   4.360   5.555  0.7464  2.1476  2.1711
  106OSM   H15T10780   4.952   4.180   5.523  2.9845 -0.0200 -1.4633
  106OSM   C16S10781   5.112   4.314   5.567  0.8451 -1.0121  0.4800
  106OSM   H16S10782   5.185   4.233   5.589  1.9375 -0.2215 -0.1490
  106OSM   H16T10783   5.126   4.416   5.610  0.7251 -0.4001 -0.8996
  106OSM   C17S10784   5.148   4.353   5.423 -0.1518 -0.4737 -0.9812
  106OSM   H17S10785   5.095   4.449   5.404 -2.2975 -1.4064 -0.0042
  106OSM   H17T10786   5.113   4.269   5.360  2.1879 -1.3900 -1.1711
  106OSM   C18S10787   5.294   4.384   5.382  0.3437 -0.1086  0.2160
  106OSM   H18S10788   5.296   4.442   5.288  0.7619  0.0450  0.3181
  106OSM   H18T10789   5.344   4.287   5.365 -1.0851 -0.7652 -0.4197
  106OSM   H18U10790   5.339   4.441   5.467  0.5360  0.2034 -0.0935
  106OSM    C1F10791   4.797   3.900   6.935 -0.8805 -0.5133 -0.2476
  106OSM     OF10792   4.904   3.929   6.978 -0.7815  0.0943  0.1047
  106OSM    C2F10793   4.677   3.975   6.972  0.3986 -0.0906  0.1713
  106OSM    H2F10794   4.636   3.928   7.064 -1.5098  2.2678  0.6465
  106OSM    H2G10795   4.613   3.970   6.882  1.1490 -1.1681 -0.3160
  106OSM    C3F10796   4.704   4.124   7.009  0.2821  0.1984 -0.3464
  106OSM    H3F10797   4.787   4.136   7.082 -0.1368  1.1301 -0.0069
  106OSM    H3G10798   4.609   4.160   7.055  0.5013 -0.1697  0.4148
  106OSM    C4F10799   4.732   4.212   6.881 -0.6063 -0.0229  0.1487
  106OSM    H4F10800   4.676   4.188   6.787  2.1812  0.1945 -1.6713
  106OSM    H4G10801   4.838   4.190   6.860 -0.6657  0.2006 -0.4194
  106OSM    C5F10802   4.730   4.365   6.909 -0.7730 -0.3383 -0.1239
  106OSM    H5F10803   4.817   4.378   6.977  0.2292 -1.3863 -1.1612
  106OSM    H5G10804   4.641   4.396   6.968  0.2067 -2.1811  2.4775
  106OSM    C6F10805   4.735   4.440   6.772 -0.0307  0.8267 -0.3901
  106OSM    H6F10806   4.752   4.549   6.782 -0.3308  0.8751 -0.3930
  106OSM    H6G10807   4.631   4.424   6.735 -0.1205 -1.9830  0.7796
  106OSM    C7F10808   4.836   4.373   6.671 -0.3082 -0.4522 -0.1761
  106OSM    H7F10809   4.843   4.262   6.669  0.4822 -0.4061 -1.9823
  106OSM    H7G10810   4.938   4.413   6.690 -0.3488 -0.5477  0.2520
  106OSM    C8F10811   4.805   4.419   6.521 -0.1215 -0.3839 -0.2866
  106OSM    H8F10812   4.874   4.368   6.450 -1.3923 -1.3095 -0.8874
  106OSM    H8G10813   4.839   4.525   6.518 -4.9315  1.4905  1.5481
  106OSM    C9F10814   4.665   4.389   6.477  0.1927  0.5677  1.0657
  106OSM    H9F10815   4.627   4.295   6.520  1.8707 -0.2189  0.9297
  106OSM   C10F10816   4.605   4.438   6.366 -0.2387  0.2551  0.6078
  106OSM   H10F10817   4.504   4.403   6.341 -0.1320  1.2774 -1.4780
  106OSM   C11F10818   4.652   4.541   6.270 -0.7651 -0.0643 -0.5416
  106OSM   H11F10819   4.739   4.589   6.319 -4.9766  2.8458  5.3029
  106OSM   H11G10820   4.568   4.612   6.289 -0.1277  0.2799  1.1388
  106OSM   C12F10821   4.649   4.502   6.123 -0.2656 -0.3429  0.4644
  106OSM   H12F10822   4.549   4.453   6.113 -0.9478  0.6956  1.8171
  106OSM   H12G10823   4.729   4.428   6.101 -0.2482 -0.6756  1.5522
  106OSM   C13F10824   4.652   4.622   6.030  0.3952 -0.6607 -0.4086
  106OSM   H13F10825   4.753   4.667   6.039  0.1331 -0.2667  0.7608
  106OSM   H13G10826   4.583   4.698   6.073  0.2939 -1.9146  1.7492
  106OSM   C14F10827   4.621   4.574   5.886  1.2789  0.0730  0.6041
  106OSM   H14F10828   4.515   4.542   5.885  1.5146 -0.9286  2.4784
  106OSM   H14G10829   4.697   4.494   5.876  2.3602  1.2018 -0.5872
  106OSM   C15F10830   4.647   4.692   5.796  0.1640 -0.0346  0.2698
  106OSM   H15F10831   4.752   4.695   5.762  1.1949  0.9039  3.2266
  106OSM   H15G10832   4.637   4.787   5.854  1.7926 -0.9645  2.1850
  106OSM   C16F10833   4.546   4.720   5.689  0.3265 -0.7121 -0.3208
  106OSM   H16F10834   4.591   4.803   5.630 -0.5272  0.0423  0.0556
  106OSM   H16G10835   4.448   4.755   5.728  0.1948  0.2410 -1.4528
  106OSM   C17F10836   4.529   4.608   5.587 -0.1780  0.6808 -0.2308
  106OSM   H17F10837   4.454   4.634   5.509  0.5643  2.3493 -0.4316
  106OSM   H17G10838   4.484   4.523   5.643 -0.7872 -1.1345 -3.2553
  106OSM   C18F10839   4.657   4.553   5.523 -0.9161  0.0952 -0.4033
  106OSM   H18F10840   4.633   4.498   5.429  2.2830  1.4383 -2.1526
  106OSM   H18G10841   4.711   4.477   5.584 -2.4272 -0.8500 -0.1714
  106OSM   H18H10842   4.721   4.636   5.487  0.5485 -1.2473 -1.0556
  107OSM      N10843   3.037   2.734   7.608  0.2165  0.3241  0.5327
  107OSM    C1510844   2.952   2.656   7.702 -0.4304 -0.0542  0.2832
  107OSM   H15A10845   2.878   2.724   7.742  1.0868  2.0850 -0.4368
  107OSM   H15B10846   3.013   2.620   7.784  1.1650 -0.7672 -1.1493
  107OSM   H15C10847   2.908   2.572   7.651  0.4007  0.0006 -0.5473
  107OSM    C1410848   2.946   2.774   7.496  0.6100  0.1892  1.0717
  107OSM   H14A10849   2.900   2.680   7.468 -0.9795  1.9577 -3.2187
  107OSM   H14B10850   2.993   2.827   7.415 -0.9465 -0.8044 -0.5791
  107OSM   H14C10851   2.862   2.837   7.523  0.3434 -0.6009  2.1384
  107OSM    C1310852   3.088   2.853   7.686  0.7644 -0.6890  1.2630
  107OSM   H13A10853   3.137   2.917   7.614 -2.4717  1.5743  0.8065
  107OSM   H13B10854   3.158   2.810   7.756 -0.1107 -1.7661  1.5086
  107OSM   H13C10855   3.003   2.900   7.733  0.9417 -1.5176  2.4388
  107OSM    C1210856   3.145   2.646   7.556 -0.2179 -0.5576 -0.4395
  107OSM   H12A10857   3.192   2.695   7.472  0.1650 -0.8476 -0.3992
  107OSM   H12B10858   3.092   2.562   7.514 -0.9931 -0.9567  1.2280
  107OSM    C1110859   3.247   2.573   7.646  0.4329 -0.6237 -0.4285
  107OSM   H11A10860   3.320   2.512   7.589 -0.0806 -1.5364 -0.1359
  107OSM   H11B10861   3.185   2.512   7.715  1.8668 -3.0185 -1.1516
  107OSM      P10862   3.444   2.753   7.701  0.0972  0.1824  0.3648
  107OSM    O1310863   3.435   2.885   7.767 -0.2003  0.3953 -0.4951
  107OSM    O1410864   3.559   2.669   7.738 -0.2818 -0.3650 -0.0738
  107OSM    O1110865   3.438   2.770   7.539  0.2682 -0.0283 -1.1761
  107OSM    O1210866   3.314   2.669   7.729  0.5340 -0.6349  0.3736
  107OSM    C1S10867   3.546   2.838   7.471 -0.5949 -0.6186 -0.3117
  107OSM    H1S10868   3.645   2.807   7.511  0.3534  0.5998 -1.6064
  107OSM    H1T10869   3.527   2.947   7.476  1.8736 -0.1762  1.8238
  107OSM     NF10870   3.657   2.834   7.242 -0.8695  0.3299  0.4250
  107OSM    HNF10871   3.643   2.908   7.177  0.7652  0.9641  0.7341
  107OSM    C2S10872   3.541   2.801   7.319 -0.5754  0.0794  0.0849
  107OSM    H2S10873   3.551   2.691   7.305  2.5600  0.3270 -0.2865
  107OSM    C3S10874   3.409   2.846   7.252  0.4770  0.3708  0.2521
  107OSM    H3S10875   3.407   2.957   7.254  2.1760  0.4557 -0.7180
  107OSM     O310876   3.294   2.801   7.316  0.2606  0.5340 -0.4032
  107OSM    HO310877   3.330   2.753   7.390  0.5699 -0.3404 -1.1086
  107OSM    C4S10878   3.398   2.804   7.104 -1.0236 -0.6675  0.0219
  107OSM    H4S10879   3.392   2.694   7.097  0.6561 -0.7024 -1.4002
  107OSM    C5S10880   3.407   2.876   6.990  0.3934  0.4295  0.7330
  107OSM    H5S10881   3.412   2.986   6.986  1.9511  0.4046  1.2856
  107OSM    C6S10882   3.411   2.814   6.857 -0.0724  0.2325  0.6032
  107OSM    H6S10883   3.332   2.864   6.796  1.3144  0.8987 -0.7466
  107OSM    H6T10884   3.397   2.704   6.854 -2.2138  0.4751 -0.9852
  107OSM    C7S10885   3.538   2.833   6.770  0.4627  0.1418 -0.1801
  107OSM    H7S10886   3.620   2.809   6.841 -1.7640 -0.6047  2.3068
  107OSM    H7T10887   3.546   2.939   6.738  0.5192  1.5842  4.0434
  107OSM    C8S10888   3.530   2.742   6.647 -0.2884  0.1760  0.4763
  107OSM    H8S10889   3.423   2.746   6.618 -0.3129 -0.5778  0.4483
  107OSM    H8T10890   3.566   2.639   6.668  0.4642  0.2475 -0.3665
  107OSM    C9S10891   3.619   2.774   6.530 -0.2090 -0.4671 -0.3576
  107OSM    H9S10892   3.729   2.772   6.542 -0.2852 -0.7999  0.3328
  107OSM    H9T10893   3.592   2.877   6.498  1.2409  1.1987  3.2604
  107OSM   C10S10894   3.587   2.677   6.402  0.0447  0.1022 -0.0984
  107OSM   H10S10895   3.478   2.655   6.401 -0.3476  1.8130 -1.9155
  107OSM   H10T10896   3.644   2.582   6.408  0.8199  0.4995 -0.9260
  107OSM   C11S10897   3.609   2.739   6.261  0.1555 -0.0835  0.9383
  107OSM   H11S10898   3.532   2.819   6.253 -0.2054 -0.3579  1.5989
  107OSM   H11T10899   3.576   2.657   6.195 -1.8118  0.8801  0.6753
  107OSM   C12S10900   3.752   2.790   6.234 -0.1749  0.0988 -0.3142
  107OSM   H12S10901   3.814   2.698   6.234 -2.8753 -1.9144  2.1105
  107OSM   H12T10902   3.776   2.855   6.321 -0.1071  0.3655 -0.5331
  107OSM   C13S10903   3.769   2.884   6.111  0.7291 -0.4218 -0.1610
  107OSM   H13S10904   3.876   2.909   6.094  0.9228  0.1244  1.6595
  107OSM   H13T10905   3.726   2.979   6.147  0.4815 -1.0674  1.3222
  107OSM   C14S10906   3.717   2.822   5.974 -0.3590  0.2816 -0.1785
  107OSM   H14S10907   3.613   2.786   5.993  0.4475 -0.8019  2.7388
  107OSM   H14T10908   3.776   2.728   5.972 -0.5702  0.1375  0.3016
  107OSM   C15S10909   3.715   2.905   5.855  0.4647  0.7518  0.2089
  107OSM   H15S10910   3.647   2.988   5.883 -2.1552 -1.3307  0.5166
  107OSM   H15T10911   3.671   2.846   5.771  1.7395  0.6845 -0.4314
  107OSM   C16S10912   3.852   2.956   5.809  0.1502  0.1678  0.5935
  107OSM   H16S10913   3.902   3.018   5.886 -0.5850  1.6593 -0.0917
  107OSM   H16T10914   3.841   3.017   5.717  0.1156 -0.6266  0.0533
  107OSM   C17S10915   3.954   2.843   5.774  0.0933 -0.6828  0.6386
  107OSM   H17S10916   3.924   2.793   5.680  1.5337 -0.6901  0.1579
  107OSM   H17T10917   3.961   2.772   5.859  0.0095 -1.6834 -0.1737
  107OSM   C18S10918   4.096   2.905   5.746  0.3578 -0.7776  0.1426
  107OSM   H18S10919   4.091   2.949   5.644 -0.9296  0.6569  0.7834
  107OSM   H18T10920   4.159   2.814   5.745 -1.6677 -2.2765  0.7895
  107OSM   H18U10921   4.119   2.983   5.822 -1.4047 -0.9218  0.8879
  107OSM    C1F10922   3.780   2.784   7.266  1.1795  0.0161 -0.6199
  107OSM     OF10923   3.786   2.701   7.360 -0.2432 -0.3620  0.0788
  107OSM    C2F10924   3.898   2.825   7.189 -0.2741  0.3458  0.6585
  107OSM    H2F10925   3.959   2.880   7.264  1.8102  1.1148 -1.4907
  107OSM    H2G10926   3.870   2.899   7.111 -0.1771  0.4633  0.7340
  107OSM    C3F10927   3.969   2.696   7.129 -0.3689  0.9756  0.4669
  107OSM    H3F10928   3.961   2.609   7.196  0.4361 -0.0523 -0.7079
  107OSM    H3G10929   4.076   2.716   7.107 -0.9333  2.3129 -1.3216
  107OSM    C4F10930   3.912   2.646   6.992 -0.4429  0.0454 -0.1564
  107OSM    H4F10931   3.802   2.638   7.004 -0.2509 -1.1201  1.0082
  107OSM    H4G10932   3.956   2.546   6.975  0.7020  0.8785 -2.6229
  107OSM    C5F10933   3.961   2.742   6.886  0.7244  0.2881  0.0731
  107OSM    H5F10934   4.071   2.753   6.893  1.1202 -2.1130 -1.2925
  107OSM    H5G10935   3.909   2.841   6.891  2.0191  0.9118  2.0634
  107OSM    C6F10936   3.934   2.698   6.738  0.0564  0.2847  0.3688
  107OSM    H6F10937   3.826   2.686   6.718  0.0222 -0.1745  0.8010
  107OSM    H6G10938   3.961   2.591   6.740  1.8345  0.7008  1.2167
  107OSM    C7F10939   4.024   2.775   6.634  0.1649  0.2393 -0.4732
  107OSM    H7F10940   4.128   2.790   6.668 -0.0804 -0.0291  0.4178
  107OSM    H7G10941   3.970   2.870   6.612  1.0485  0.4295 -1.9707
  107OSM    C8F10942   4.027   2.710   6.491 -0.1924  0.0780  0.6860
  107OSM    H8F10943   3.927   2.671   6.461  0.3213 -1.3036  0.7056
  107OSM    H8G10944   4.104   2.631   6.503 -1.8727 -1.4336  2.1259
  107OSM    C9F10945   4.092   2.811   6.395 -0.2569  0.2367  0.9532
  107OSM    H9F10946   4.062   2.913   6.423 -0.5819  0.1755  0.8391
  107OSM   C10F10947   4.176   2.792   6.294  0.1516  0.9140  0.2011
  107OSM   H10F10948   4.190   2.879   6.228 -2.1432 -0.8523 -2.8560
  107OSM   C11F10949   4.237   2.667   6.239  0.2931 -0.0586 -0.1056
  107OSM   H11F10950   4.219   2.574   6.296  4.3866 -1.7934 -1.2634
  107OSM   H11G10951   4.347   2.682   6.237  0.3508 -0.2490  0.9664
  107OSM   C12F10952   4.193   2.632   6.099  0.4336 -0.1621 -0.0239
  107OSM   H12F10953   4.208   2.717   6.028 -0.9020  0.1043 -0.0119
  107OSM   H12G10954   4.083   2.624   6.102  0.3813  0.6582  0.8796
  107OSM   C13F10955   4.253   2.504   6.046 -0.6680  0.1847  0.1602
  107OSM   H13F10956   4.252   2.424   6.123  1.2795 -1.3351 -1.3110
  107OSM   H13G10957   4.358   2.526   6.018 -0.4321  1.3201  1.8229
  107OSM   C14F10958   4.186   2.423   5.939  0.0949  0.0652 -0.4625
  107OSM   H14F10959   4.090   2.395   5.986  0.4309 -1.6190 -0.7182
  107OSM   H14G10960   4.241   2.327   5.928 -1.5139 -1.0308  0.5763
  107OSM   C15F10961   4.176   2.489   5.802  0.6440  0.3109  0.3903
  107OSM   H15F10962   4.279   2.519   5.772  0.3643  2.3853  1.2972
  107OSM   H15G10963   4.115   2.581   5.812 -0.5791 -0.4450  0.0034
  107OSM   C16F10964   4.106   2.388   5.709  0.0390  0.3357 -0.2840
  107OSM   H16F10965   3.996   2.407   5.706  0.2448  2.7640  2.3807
  107OSM   H16G10966   4.137   2.293   5.757  1.9154  0.2170 -1.6283
  107OSM   C17F10967   4.150   2.378   5.565  0.1518  0.3306  0.1234
  107OSM   H17F10968   4.103   2.287   5.523 -0.4003  0.0060  1.4099
  107OSM   H17G10969   4.260   2.359   5.564  0.5657  2.3843  0.1702
  107OSM   C18F10970   4.107   2.504   5.492  0.5416  0.4049  0.2621
  107OSM   H18F10971   3.996   2.516   5.496  0.1264 -2.0955 -1.4885
  107OSM   H18G10972   4.130   2.499   5.383 -0.3473 -0.2787  0.0939
  107OSM   H18H10973   4.153   2.595   5.535 -1.5569  1.5667  0.2144
  108OSM      N10974   1.906   2.735   7.344  0.4686 -0.2793 -0.2273
  108OSM    C1510975   2.019   2.747   7.245  0.2835 -0.3060 -0.4601
  108OSM   H15A10976   2.115   2.752   7.294  0.3738  0.5181 -0.6973
  108OSM   H15B10977   2.015   2.842   7.193 -2.1678 -0.6795 -1.1006
  108OSM   H15C10978   2.021   2.664   7.177  1.7125 -1.0086  0.4096
  108OSM    C1410979   1.933   2.840   7.441  0.7530 -0.1226  0.0601
  108OSM   H14A10980   1.929   2.941   7.404  4.2318  0.2187  0.2854
  108OSM   H14B10981   2.028   2.832   7.491  1.8116  1.9405 -1.5084
  108OSM   H14C10982   1.860   2.827   7.520  1.0084  2.0396  0.7163
  108OSM    C1310983   1.765   2.736   7.287 -0.0188  0.0054  0.4026
  108OSM   H13A10984   1.751   2.651   7.223 -1.4811  1.0381 -0.6987
  108OSM   H13B10985   1.751   2.828   7.232  1.3232 -0.8371 -1.4686
  108OSM   H13C10986   1.688   2.715   7.360 -1.6415 -1.0564 -1.5138
  108OSM    C1210987   1.934   2.600   7.409  0.3346  0.1847  0.4254
  108OSM   H12A10988   1.868   2.577   7.491 -1.9257  0.5095 -1.2154
  108OSM   H12B10989   2.031   2.606   7.457  1.0136 -0.6055 -0.7693
  108OSM    C1110990   1.949   2.471   7.319  0.2034  0.9955  0.2019
  108OSM   H11A10991   1.999   2.393   7.379  0.8335  1.9086  0.8821
  108OSM   H11B10992   2.015   2.497   7.233  2.9179 -0.6607  1.6453
  108OSM      P10993   1.704   2.370   7.357  0.1456 -0.4529 -0.4561
  108OSM    O1310994   1.762   2.328   7.489  0.4614  0.0939 -0.2641
  108OSM    O1410995   1.580   2.457   7.369  0.0415  0.7957 -0.5516
  108OSM    O1110996   1.671   2.241   7.269  0.3914 -0.1674  0.6550
  108OSM    O1210997   1.814   2.443   7.269  0.7680 -0.1294 -1.2047
  108OSM    C1S10998   1.615   2.250   7.137 -0.8609 -0.2841  0.9945
  108OSM    H1S10999   1.604   2.358   7.111  1.3892 -0.2276 -0.0208
  108OSM    H1T11000   1.528   2.183   7.122 -2.7820  2.1533  0.6851
  108OSM     NF11001   1.662   2.223   6.897  0.0379 -0.1800 -0.1749
  108OSM    HNF11002   1.598   2.154   6.865  0.8257 -0.7630 -0.5268
  108OSM    C2S11003   1.717   2.195   7.028 -0.4917  0.3217 -0.5296
  108OSM    H2S11004   1.814   2.244   7.051  0.0744 -0.0817 -1.9255
  108OSM    C3S11005   1.719   2.040   7.056 -0.3102 -0.0814 -0.7743
  108OSM    H3S11006   1.616   2.012   7.026 -0.0414 -0.4924 -1.3239
  108OSM     O311007   1.736   1.988   7.191  0.2377  0.0830  0.2064
  108OSM    HO311008   1.723   2.063   7.250 -0.7386 -0.0512  0.1706
  108OSM    C4S11009   1.820   1.980   6.958  0.2016 -0.2748  0.6815
  108OSM    H4S11010   1.773   1.989   6.859  0.3072 -2.9842  0.3281
  108OSM    C5S11011   1.947   1.940   6.971 -0.1990 -0.2098  0.5645
  108OSM    H5S11012   1.994   1.966   7.066 -1.5091  0.5508  1.0356
  108OSM    C6S11013   2.036   1.894   6.856  0.4061  0.5502  0.5059
  108OSM    H6S11014   2.067   1.789   6.876  0.4816  0.5711  0.5015
  108OSM    H6T11015   2.129   1.952   6.876 -0.2851  1.2514  1.8010
  108OSM    C7S11016   1.997   1.905   6.708 -0.1770 -0.1560  0.0769
  108OSM    H7S11017   1.984   2.013   6.686 -0.3787 -0.6658 -2.6454
  108OSM    H7T11018   1.902   1.849   6.691 -0.5120  0.1025  1.0347
  108OSM    C8S11019   2.100   1.850   6.603 -0.2699  0.2482 -0.6674
  108OSM    H8S11020   2.156   1.774   6.661 -0.8638 -0.7939 -1.4359
  108OSM    H8T11021   2.186   1.920   6.594 -0.1358  0.5959  2.3331
  108OSM    C9S11022   2.039   1.791   6.470  0.6025  0.1575 -0.1848
  108OSM    H9S11023   2.000   1.875   6.408 -2.4349 -0.4382  0.7279
  108OSM    H9T11024   1.943   1.735   6.481  0.4815  0.4984  0.5322
  108OSM   C10S11025   2.133   1.704   6.392 -0.1115  0.0028  0.5271
  108OSM   H10S11026   2.155   1.616   6.456  2.6910  0.0543 -0.2466
  108OSM   H10T11027   2.226   1.763   6.377 -1.4713  2.0396 -0.3666
  108OSM   C11S11028   2.078   1.662   6.256 -0.3961 -0.0620 -0.0167
  108OSM   H11S11029   1.991   1.727   6.234 -1.0053  0.2663  2.9723
  108OSM   H11T11030   2.033   1.561   6.265 -0.3817  0.0801  2.4443
  108OSM   C12S11031   2.187   1.675   6.145  0.1839 -0.4556 -0.6156
  108OSM   H12S11032   2.286   1.637   6.178  0.9060 -0.5661 -2.7564
  108OSM   H12T11033   2.194   1.781   6.112  2.3608 -0.9461 -1.9192
  108OSM   C13S11034   2.161   1.590   6.021 -1.0253  0.1387 -0.1408
  108OSM   H13S11035   2.057   1.620   5.993 -2.1755 -1.9363  1.5745
  108OSM   H13T11036   2.165   1.481   6.043 -1.7170  0.5493  2.3443
  108OSM   C14S11037   2.250   1.629   5.908  0.3489  0.2842  0.0448
  108OSM   H14S11038   2.286   1.539   5.854  2.1552 -0.3707  2.1696
  108OSM   H14T11039   2.345   1.668   5.952  1.6888 -0.6809 -1.8462
  108OSM   C15S11040   2.184   1.737   5.822  0.2425  0.0491 -0.1577
  108OSM   H15S11041   2.261   1.785   5.758  0.5399  0.0189  0.1766
  108OSM   H15T11042   2.146   1.814   5.891  0.8322 -0.6560  0.9798
  108OSM   C16S11043   2.079   1.669   5.730 -0.0246 -0.3782  0.2663
  108OSM   H16S11044   1.999   1.618   5.788 -2.3926 -0.2578 -2.6480
  108OSM   H16T11045   2.139   1.594   5.674 -0.5009 -0.8558  0.3894
  108OSM   C17S11046   2.021   1.764   5.625  0.9855 -0.3299  0.2128
  108OSM   H17S11047   2.070   1.864   5.633 -1.7471  1.0052  1.7629
  108OSM   H17T11048   1.926   1.799   5.670  0.7554 -0.2113 -0.3522
  108OSM   C18S11049   2.001   1.710   5.483  0.6531  0.4554 -0.1722
  108OSM   H18S11050   1.968   1.783   5.406  0.7132  0.9088  0.2283
  108OSM   H18T11051   1.922   1.632   5.485  1.3968 -0.3148 -0.4674
  108OSM   H18U11052   2.090   1.656   5.444  1.7562  1.3842  0.9806
  108OSM    C1F11053   1.672   2.341   6.839 -0.1388 -0.1963 -0.5875
  108OSM     OF11054   1.722   2.439   6.896  0.0036  0.0350 -0.7006
  108OSM    C2F11055   1.623   2.337   6.702 -0.1498 -0.1400 -0.3084
  108OSM    H2F11056   1.514   2.357   6.702 -0.2233 -0.4704  0.5970
  108OSM    H2G11057   1.629   2.235   6.656  0.0625  0.7830 -2.4497
  108OSM    C3F11058   1.700   2.437   6.609 -0.4710 -0.3037  0.2769
  108OSM    H3F11059   1.806   2.403   6.610 -1.0829 -2.3020  1.1306
  108OSM    H3G11060   1.685   2.536   6.656 -0.1806 -0.1342  0.0128
  108OSM    C4F11061   1.639   2.426   6.468 -0.6315  1.0312  0.0732
  108OSM    H4F11062   1.656   2.522   6.415 -1.8165  0.2006 -1.9440
  108OSM    H4G11063   1.530   2.411   6.481 -0.5331 -0.2175 -0.3553
  108OSM    C5F11064   1.697   2.310   6.386  0.0958  0.4194 -0.3556
  108OSM    H5F11065   1.654   2.212   6.415  0.5741  0.3629  0.1993
  108OSM    H5G11066   1.796   2.286   6.429  1.4730 -0.6143 -3.7994
  108OSM    C6F11067   1.684   2.304   6.231 -1.1274  0.7701  0.2599
  108OSM    H6F11068   1.739   2.389   6.185  0.5396  0.0993  0.9100
  108OSM    H6G11069   1.576   2.306   6.208 -1.5326 -1.2685  1.7126
  108OSM    C7F11070   1.758   2.179   6.170 -0.8256 -0.0596 -0.8218
  108OSM    H7F11071   1.721   2.079   6.200 -1.2312  0.1785 -0.5179
  108OSM    H7G11072   1.864   2.183   6.203 -1.6487 -2.1262  2.4882
  108OSM    C8F11073   1.770   2.188   6.015  0.7568 -0.2500  0.6921
  108OSM    H8F11074   1.855   2.123   5.986 -0.3748 -2.2609  1.7136
  108OSM    H8G11075   1.807   2.290   5.990  3.1264 -1.6842 -2.3730
  108OSM    C9F11076   1.633   2.146   5.951 -0.6179 -0.3859  0.7084
  108OSM    H9F11077   1.584   2.057   5.995  0.8503 -0.4627  2.3152
  108OSM   C10F11078   1.583   2.199   5.836  0.3860  0.2979 -1.0459
  108OSM   H10F11079   1.485   2.157   5.808 -0.5922 -1.4904  3.9288
  108OSM   C11F11080   1.644   2.312   5.758 -0.7208 -0.1981  0.0820
  108OSM   H11F11081   1.701   2.268   5.674 -0.6364 -0.2814  0.1834
  108OSM   H11G11082   1.726   2.372   5.806 -1.9745  1.7900 -0.1367
  108OSM   C12F11083   1.548   2.414   5.691  0.1908  0.2678  0.3284
  108OSM   H12F11084   1.498   2.471   5.772 -1.6619  0.2277 -0.7151
  108OSM   H12G11085   1.470   2.363   5.629 -1.3136  0.1396  2.2331
  108OSM   C13F11086   1.622   2.522   5.615  0.7262 -0.0845  0.2454
  108OSM   H13F11087   1.708   2.550   5.679  2.0380 -0.3323 -1.3476
  108OSM   H13G11088   1.554   2.606   5.593 -1.4021 -1.8649 -0.3778
  108OSM   C14F11089   1.657   2.466   5.476 -0.0853 -0.8327  0.0355
  108OSM   H14F11090   1.561   2.429   5.434 -0.2414  0.7792 -1.1172
  108OSM   H14G11091   1.728   2.381   5.477  0.2473 -0.5507  0.6696
  108OSM   C15F11092   1.708   2.579   5.386 -0.2474  0.6682  0.0700
  108OSM   H15F11093   1.804   2.620   5.425 -0.1382 -0.7200  1.3713
  108OSM   H15G11094   1.624   2.652   5.387 -2.2583 -1.5220 -0.4174
  108OSM   C16F11095   1.732   2.536   5.240  0.4737  1.1675  0.1146
  108OSM   H16F11096   1.650   2.472   5.203  0.8479  0.6685  0.1344
  108OSM   H16G11097   1.822   2.471   5.227  0.0956  0.6996 -0.1661
  108OSM   C17F11098   1.766   2.662   5.149  0.6697  0.3560 -0.2939
  108OSM   H17F11099   1.704   2.751   5.173 -0.0565  0.0781 -1.0805
  108OSM   H17G11100   1.737   2.613   5.054  1.4963  0.0720 -0.4045
  108OSM   C18F11101   1.920   2.703   5.136 -0.5105  0.0804  0.3129
  108OSM   H18F11102   1.967   2.617   5.084 -1.1456 -0.0219 -0.1150
  108OSM   H18G11103   1.966   2.716   5.236 -0.8393  1.3687  0.3235
  108OSM   H18H11104   1.923   2.797   5.077  1.0155 -0.9603 -1.3781
  109OSM      N11105   6.204   4.195   7.419  0.4505  0.1185  0.6604
  109OSM    C1511106   6.332   4.149   7.474 -0.0387 -0.5023 -0.8996
  109OSM   H15A11107   6.413   4.203   7.428 -2.1040  0.4857 -3.5908
  109OSM   H15B11108   6.345   4.042   7.460  1.6719 -0.7484  1.7407
  109OSM   H15C11109   6.336   4.158   7.581  0.1839 -0.9791 -0.8637
  109OSM    C1411110   6.090   4.113   7.476 -0.1577 -0.3128 -0.1593
  109OSM   H14A11111   6.093   4.008   7.454 -0.8852 -0.8810  2.1861
  109OSM   H14B11112   5.998   4.162   7.448 -1.5312 -1.4926  2.0259
  109OSM   H14C11113   6.088   4.125   7.584 -1.2793 -2.1929  0.0602
  109OSM    C1311114   6.198   4.335   7.471 -0.4243  0.5961 -0.5832
  109OSM   H13A11115   6.113   4.388   7.432 -0.1293  2.7108  1.3989
  109OSM   H13B11116   6.286   4.391   7.443 -0.1118  1.5338  1.9297
  109OSM   H13C11117   6.188   4.334   7.579  0.1369  0.6749 -0.5270
  109OSM    C1211118   6.209   4.208   7.266  0.7791 -0.3934 -0.4750
  109OSM   H12A11119   6.249   4.116   7.227  0.8693 -1.6739  2.3954
  109OSM   H12B11120   6.283   4.286   7.251 -0.0898  0.5741  0.1370
  109OSM    C1111121   6.084   4.255   7.177  0.1845  0.4811  0.0308
  109OSM   H11A11122   6.008   4.177   7.200  2.2703 -2.0633 -1.2093
  109OSM   H11B11123   6.115   4.252   7.071  0.1258  0.3467  0.0173
  109OSM      P11124   5.896   4.414   7.237  0.2319  0.0796 -0.0481
  109OSM    O1311125   5.847   4.331   7.347  0.5767 -0.2050 -0.2362
  109OSM    O1411126   5.865   4.561   7.234 -0.0947 -0.3562 -0.0118
  109OSM    O1111127   5.835   4.355   7.098 -0.1740  0.0912 -0.0303
  109OSM    O1211128   6.053   4.392   7.218  0.0626  0.1526 -0.1617
  109OSM    C1S11129   5.696   4.381   7.070 -0.6972 -0.0867 -0.5643
  109OSM    H1S11130   5.671   4.489   7.078 -1.0433 -0.1144 -1.1986
  109OSM    H1T11131   5.634   4.329   7.146  0.3391 -0.4803  0.0326
  109OSM     NF11132   5.526   4.345   6.893  0.7373  0.6612 -0.3095
  109OSM    HNF11133   5.470   4.263   6.894  0.9105  0.5117  1.9593
  109OSM    C2S11134   5.664   4.324   6.927  0.1039 -0.4652 -0.0250
  109OSM    H2S11135   5.725   4.375   6.849 -0.6960 -0.6342 -0.7794
  109OSM    C3S11136   5.706   4.173   6.906  0.3607  0.1432 -0.1346
  109OSM    H3S11137   5.634   4.110   6.963 -0.2305 -0.8596 -1.9080
  109OSM     O311138   5.841   4.140   6.946  0.1756  0.2205 -0.4969
  109OSM    HO311139   5.859   4.220   6.996 -1.1143 -0.4774  1.1830
  109OSM    C4S11140   5.679   4.125   6.763 -0.0280 -0.1264 -0.1906
  109OSM    H4S11141   5.586   4.068   6.747  0.3962 -0.8356 -0.1737
  109OSM    C5S11142   5.772   4.140   6.657 -0.3507  0.0388  0.1625
  109OSM    H5S11143   5.875   4.167   6.682 -0.0565 -2.3204  1.9014
  109OSM    C6S11144   5.744   4.094   6.515 -1.0122  0.2620  0.9447
  109OSM    H6S11145   5.825   4.024   6.485  1.1647  1.9614  2.4791
  109OSM    H6T11146   5.748   4.189   6.458  0.9763  0.4528  1.3284
  109OSM    C7S11147   5.605   4.030   6.491 -0.0265 -0.5324  0.2141
  109OSM    H7S11148   5.529   4.111   6.500  2.0311  1.3956  1.1937
  109OSM    H7T11149   5.570   3.951   6.561  0.0181 -0.0445  0.8047
  109OSM    C8S11150   5.598   3.980   6.343  0.5007  0.2117 -0.0015
  109OSM    H8S11151   5.638   4.049   6.265  2.1601 -0.8883 -0.1586
  109OSM    H8T11152   5.492   3.951   6.327  0.9034 -1.8617  0.7656
  109OSM    C9S11153   5.690   3.854   6.309 -0.3188  0.2137  0.6581
  109OSM    H9S11154   5.685   3.788   6.398 -0.5815 -1.2727 -0.4266
  109OSM    H9T11155   5.797   3.882   6.293 -0.2988  0.5400  1.3032
  109OSM   C10S11156   5.651   3.774   6.186  0.3687 -0.7823 -0.3211
  109OSM   H10S11157   5.544   3.803   6.178 -0.4106 -3.4508 -0.2733
  109OSM   H10T11158   5.664   3.666   6.207  2.7843 -0.6355 -0.7482
  109OSM   C11S11159   5.711   3.816   6.043 -0.2258  0.3900 -0.0910
  109OSM   H11S11160   5.750   3.919   6.059 -0.3254  0.1706  1.7018
  109OSM   H11T11161   5.637   3.808   5.960 -1.2271  2.8586  0.4617
  109OSM   C12S11162   5.833   3.726   6.017 -0.1667 -0.2543  0.7622
  109OSM   H12S11163   5.803   3.619   6.010 -1.5499  0.1969 -1.5331
  109OSM   H12T11164   5.906   3.749   6.096  1.0373 -3.0664  0.5832
  109OSM   C13S11165   5.905   3.762   5.885 -0.0923  0.8340 -0.2651
  109OSM   H13S11166   5.930   3.870   5.894 -0.9798  0.9567  1.0868
  109OSM   H13T11167   5.847   3.753   5.791 -1.1352  2.7188  0.1404
  109OSM   C14S11168   6.033   3.688   5.860 -0.8147  0.0808  0.4229
  109OSM   H14S11169   6.083   3.678   5.959 -0.3647 -3.1991 -0.0439
  109OSM   H14T11170   6.107   3.758   5.814  0.1978 -1.1270  0.1668
  109OSM   C15S11171   6.025   3.549   5.783 -0.5807  0.1935 -1.4648
  109OSM   H15S11172   5.997   3.548   5.676 -0.0677 -1.1455 -1.6026
  109OSM   H15T11173   5.956   3.486   5.843  0.3417 -0.8133 -1.4241
  109OSM   C16S11174   6.168   3.489   5.783 -0.4361  0.5078  0.0284
  109OSM   H16S11175   6.176   3.385   5.746 -0.5998  0.5957 -0.2576
  109OSM   H16T11176   6.201   3.475   5.889  2.3532 -0.9814 -0.9282
  109OSM   C17S11177   6.273   3.586   5.721 -0.4430 -0.0423 -0.0887
  109OSM   H17S11178   6.297   3.670   5.789 -0.6691 -0.8522  1.0284
  109OSM   H17T11179   6.228   3.629   5.629 -2.1728 -0.5739  0.4720
  109OSM   C18S11180   6.406   3.518   5.677 -0.0329 -0.0456  0.6744
  109OSM   H18S11181   6.389   3.448   5.592 -1.0353  0.5786  0.3266
  109OSM   H18T11182   6.438   3.457   5.763  1.5685 -1.1954 -0.6649
  109OSM   H18U11183   6.491   3.585   5.650  0.6297 -0.3299  2.0153
  109OSM    C1F11184   5.463   4.463   6.880 -0.2372 -0.1587  0.0960
  109OSM     OF11185   5.526   4.572   6.870 -0.2276  0.6594  0.0886
  109OSM    C2F11186   5.314   4.460   6.876  0.6344 -0.2459  0.7594
  109OSM    H2F11187   5.278   4.539   6.945  1.9385  1.1014 -0.0381
  109OSM    H2G11188   5.280   4.366   6.925  0.2204 -1.0608 -1.0227
  109OSM    C3F11189   5.251   4.481   6.735 -0.9529  0.1273  0.2052
  109OSM    H3F11190   5.272   4.578   6.686  1.2802  0.0211  0.8140
  109OSM    H3G11191   5.143   4.470   6.756 -0.9763  0.0157  0.0341
  109OSM    C4F11192   5.292   4.375   6.628  0.5109  0.6117  0.3125
  109OSM    H4F11193   5.258   4.274   6.657  3.1324 -1.0454 -1.9152
  109OSM    H4G11194   5.401   4.380   6.604 -0.0780  2.9975 -2.3822
  109OSM    C5F11195   5.215   4.410   6.499 -0.2329 -0.4555 -0.8729
  109OSM    H5F11196   5.232   4.516   6.470  0.5291 -0.8138 -1.7954
  109OSM    H5G11197   5.107   4.395   6.521  0.4177 -2.1168  1.6356
  109OSM    C6F11198   5.237   4.322   6.376 -0.3624 -0.5152  0.5282
  109OSM    H6F11199   5.230   4.213   6.400 -0.8338 -1.1799 -2.2349
  109OSM    H6G11200   5.334   4.347   6.329 -1.9622  2.7855 -1.3913
  109OSM    C7F11201   5.135   4.351   6.269  0.1094  0.4580 -0.7852
  109OSM    H7F11202   5.121   4.461   6.268 -3.1754  0.1383 -1.7904
  109OSM    H7G11203   5.039   4.299   6.291  0.8117 -1.3496 -1.7533
  109OSM    C8F11204   5.184   4.301   6.123 -0.2205  0.4672 -0.0332
  109OSM    H8F11205   5.088   4.306   6.069 -0.5303  4.2853  0.6310
  109OSM    H8G11206   5.215   4.194   6.131 -0.7204  0.1905 -1.5628
  109OSM    C9F11207   5.279   4.387   6.055  0.5869 -0.4094 -0.3294
  109OSM    H9F11208   5.249   4.492   6.063  0.5400 -0.3554 -1.1469
  109OSM   C10F11209   5.396   4.350   6.004 -0.3565 -0.0794  0.6589
  109OSM   H10F11210   5.460   4.423   5.953 -0.7810 -0.8275 -0.9988
  109OSM   C11F11211   5.457   4.210   5.993 -0.1532  0.3452 -0.8070
  109OSM   H11F11212   5.394   4.130   6.038  3.1961 -1.3786  1.1715
  109OSM   H11G11213   5.558   4.193   6.036  0.1175 -1.0792 -1.9272
  109OSM   C12F11214   5.475   4.172   5.847  0.0118  0.0387  0.5528
  109OSM   H12F11215   5.536   4.251   5.799  0.7952 -0.7200  0.2739
  109OSM   H12G11216   5.378   4.176   5.793 -1.3419  0.9260  2.9085
  109OSM   C13F11217   5.547   4.039   5.833  0.9944 -0.0186  0.5394
  109OSM   H13F11218   5.479   3.966   5.882 -0.4970  1.6670  1.0774
  109OSM   H13G11219   5.654   4.032   5.860  0.9572  0.1479  0.7323
  109OSM   C14F11220   5.537   3.993   5.682  0.2447  0.3743 -0.1790
  109OSM   H14F11221   5.616   4.045   5.623  0.5068  1.1625  0.8344
  109OSM   H14G11222   5.436   4.027   5.652 -0.6691 -0.3460  1.8699
  109OSM   C15F11223   5.557   3.839   5.660 -1.0621  0.6475  1.0059
  109OSM   H15F11224   5.483   3.804   5.735  0.3180 -1.4234  1.4689
  109OSM   H15G11225   5.654   3.796   5.691 -2.0523 -3.1359 -0.6186
  109OSM   C16F11226   5.515   3.776   5.528 -0.7023 -0.0728  0.5285
  109OSM   H16F11227   5.596   3.794   5.453  0.2113 -1.2061  1.2154
  109OSM   H16G11228   5.420   3.817   5.488 -0.4717  1.4535  1.4663
  109OSM   C17F11229   5.481   3.627   5.548 -0.0708  0.1086  0.1946
  109OSM   H17F11230   5.400   3.595   5.618  1.4435 -2.6878  0.8209
  109OSM   H17G11231   5.569   3.569   5.582  0.7475  0.0468 -1.8917
  109OSM   C18F11232   5.444   3.564   5.411 -0.5227  0.2393 -0.2201
  109OSM   H18F11233   5.535   3.564   5.347 -0.0047 -1.7793  0.4441
  109OSM   H18G11234   5.361   3.615   5.359 -0.4873  1.9861  1.3492
  109OSM   H18H11235   5.430   3.456   5.432  2.4686 -0.4626 -1.2379
  110OSM      N11236   1.422   1.954   7.560 -0.5953 -0.2512  0.1992
  110OSM    C1511237   1.502   2.081   7.560  0.4736 -0.4883  0.3742
  110OSM   H15A11238   1.608   2.064   7.558  0.2705 -1.8069 -0.1227
  110OSM   H15B11239   1.474   2.151   7.638 -0.7433  0.4981 -0.8931
  110OSM   H15C11240   1.470   2.140   7.476 -0.1947 -0.3883  0.6855
  110OSM    C1411241   1.455   1.872   7.686 -0.6194  0.2498 -0.0534
  110OSM   H14A11242   1.553   1.827   7.676 -0.0192  1.6547 -0.6234
  110OSM   H14B11243   1.375   1.802   7.705 -0.8632 -0.0840 -2.1245
  110OSM   H14C11244   1.460   1.937   7.772  1.2815 -0.7355  0.6434
  110OSM    C1311245   1.275   1.977   7.552  0.0145 -0.2750 -0.6709
  110OSM   H13A11246   1.233   1.987   7.651  2.8794  1.5425  0.5050
  110OSM   H13B11247   1.227   1.894   7.501 -1.5387  1.1220 -1.6007
  110OSM   H13C11248   1.254   2.054   7.479  0.1127 -0.7527 -1.2145
  110OSM    C1211249   1.468   1.872   7.438 -0.3142  0.3766  0.4031
  110OSM   H12A11250   1.426   1.774   7.452 -1.0824  0.9139  2.1827
  110OSM   H12B11251   1.575   1.862   7.454 -0.3802 -0.5012  0.3398
  110OSM    C1111252   1.444   1.930   7.297  0.8772  0.2898  0.6356
  110OSM   H11A11253   1.512   1.871   7.233 -0.4467 -1.7585  1.0318
  110OSM   H11B11254   1.491   2.031   7.292  0.9517  0.2170 -0.1640
  110OSM      P11255   1.222   2.047   7.192 -0.1092 -0.3887 -0.0296
  110OSM    O1311256   1.077   2.035   7.222  0.8803 -0.2775 -0.7805
  110OSM    O1411257   1.270   2.181   7.229  0.0739  0.4421  0.0552
  110OSM    O1111258   1.243   2.019   7.043 -0.6012 -0.2710 -0.1633
  110OSM    O1211259   1.308   1.930   7.266  0.0771  0.0773 -0.1531
  110OSM    C1S11260   1.190   1.892   6.994  0.5305  0.2430 -0.0658
  110OSM    H1S11261   1.079   1.890   6.987  0.6004  0.0867 -1.5758
  110OSM    H1T11262   1.213   1.804   7.057  0.8571  0.0602 -0.4373
  110OSM     NF11263   1.198   1.717   6.837 -0.1252  0.7713  0.5998
  110OSM    HNF11264   1.264   1.643   6.840 -2.5746 -1.7610 -1.7264
  110OSM    C2S11265   1.238   1.855   6.857 -0.5188  1.6924  0.3989
  110OSM    H2S11266   1.185   1.908   6.775 -0.0359 -0.3524 -1.3256
  110OSM    C3S11267   1.392   1.889   6.835 -0.1068  0.1277  0.3602
  110OSM    H3S11268   1.449   1.830   6.911  2.6897  1.1290 -0.7977
  110OSM     O311269   1.434   2.029   6.863 -0.2760  0.2675 -0.1243
  110OSM    HO311270   1.362   2.075   6.907 -1.0095  0.1168 -1.1330
  110OSM    C4S11271   1.458   1.842   6.697  1.0465 -0.0485 -0.0888
  110OSM    H4S11272   1.494   1.739   6.694 -1.0031 -0.9066  1.8389
  110OSM    C5S11273   1.471   1.922   6.592 -0.4825  0.2335 -0.1318
  110OSM    H5S11274   1.441   2.028   6.598 -0.5774  0.3757 -2.2044
  110OSM    C6S11275   1.526   1.876   6.458 -0.1495 -0.0311 -0.3371
  110OSM    H6S11276   1.626   1.917   6.435 -1.4326  2.4364 -1.8834
  110OSM    H6T11277   1.460   1.916   6.378 -1.8746  0.9422  1.5021
  110OSM    C7S11278   1.552   1.718   6.441 -0.0363 -0.3149  0.4042
  110OSM    H7S11279   1.451   1.671   6.441 -1.3416  2.2939 -0.0651
  110OSM    H7T11280   1.607   1.676   6.528  1.0945 -1.5426 -0.8615
  110OSM    C8S11281   1.628   1.688   6.312  0.0261  0.1666 -0.1313
  110OSM    H8S11282   1.737   1.702   6.332  0.1395  2.9618 -2.1703
  110OSM    H8T11283   1.593   1.761   6.237  0.7138 -1.6201 -2.2929
  110OSM    C9S11284   1.613   1.537   6.273  0.0880 -0.1155 -0.5829
  110OSM    H9S11285   1.516   1.520   6.222  0.2033 -1.7484 -0.3055
  110OSM    H9T11286   1.624   1.475   6.364  3.5154  1.6766  0.3816
  110OSM   C10S11287   1.721   1.488   6.167  0.3713 -0.3438 -0.4950
  110OSM   H10S11288   1.757   1.384   6.184 -1.8080 -0.7962  1.8072
  110OSM   H10T11289   1.804   1.561   6.180  1.2097 -0.9596 -2.0553
  110OSM   C11S11290   1.671   1.501   6.022 -0.7951 -0.1576 -0.6727
  110OSM   H11S11291   1.642   1.607   6.006 -0.9523  0.3380  2.3178
  110OSM   H11T11292   1.587   1.431   6.003 -0.4073 -0.2320 -2.3397
  110OSM   C12S11293   1.778   1.466   5.920 -0.1676 -0.3360 -0.5171
  110OSM   H12S11294   1.867   1.527   5.947 -0.3819 -0.0333 -0.4818
  110OSM   H12T11295   1.743   1.497   5.819  0.8241 -2.8044 -1.6811
  110OSM   C13S11296   1.826   1.323   5.895  0.2285 -0.4134  0.6455
  110OSM   H13S11297   1.738   1.258   5.876 -1.4487  1.6757  0.7896
  110OSM   H13T11298   1.871   1.288   5.990  1.8217  1.5745  0.6812
  110OSM   C14S11299   1.938   1.305   5.795 -0.0188 -0.3929 -0.0918
  110OSM   H14S11300   1.989   1.207   5.810 -1.7415 -1.5575 -1.4457
  110OSM   H14T11301   2.015   1.384   5.807 -0.5386  0.1827 -0.5222
  110OSM   C15S11302   1.889   1.328   5.651  0.6753  0.5906  0.5492
  110OSM   H15S11303   1.860   1.436   5.645  0.8744  0.8320  2.9330
  110OSM   H15T11304   1.801   1.267   5.624  0.7608  0.5237  0.4211
  110OSM   C16S11305   1.990   1.303   5.535  0.6789 -0.6904 -0.5614
  110OSM   H16S11306   2.084   1.357   5.558 -0.6281  1.7157 -0.5303
  110OSM   H16T11307   1.941   1.327   5.438  3.4881  1.4288 -1.5670
  110OSM   C17S11308   2.025   1.156   5.518  0.5156 -0.1316  0.3530
  110OSM   H17S11309   1.937   1.090   5.505 -0.3779  1.2946 -1.1915
  110OSM   H17T11310   2.078   1.138   5.614  1.2426  2.0768  0.4257
  110OSM   C18S11311   2.119   1.144   5.399  0.4644 -0.2246  0.1750
  110OSM   H18S11312   2.160   1.041   5.386 -0.0814 -0.3701 -0.4403
  110OSM   H18T11313   2.190   1.228   5.411  0.2838 -0.2221  1.3440
  110OSM   H18U11314   2.051   1.167   5.314  1.0692 -0.2303 -0.3173
  110OSM    C1F11315   1.072   1.674   6.817 -0.3129 -0.3396  0.2496
  110OSM     OF11316   0.984   1.759   6.803  0.0720  0.6850 -0.1237
  110OSM    C2F11317   1.043   1.524   6.827 -0.6611 -1.2766  0.2576
  110OSM    H2F11318   0.958   1.499   6.893 -0.9549 -1.6660 -0.2661
  110OSM    H2G11319   1.134   1.472   6.867 -0.6762 -1.2675  0.3035
  110OSM    C3F11320   1.012   1.456   6.692 -0.4123 -0.4238  0.1727
  110OSM    H3F11321   1.105   1.470   6.632  0.3089  1.4579  1.6083
  110OSM    H3G11322   0.931   1.511   6.641  0.6155  0.3030 -0.7342
  110OSM    C4F11323   0.968   1.312   6.711 -0.1228  0.7094  0.4529
  110OSM    H4F11324   0.902   1.304   6.800 -0.3551  0.0204  0.2164
  110OSM    H4G11325   1.059   1.256   6.741 -0.7298 -0.0404  0.9266
  110OSM    C5F11326   0.882   1.276   6.588 -0.1964 -0.5311  0.2198
  110OSM    H5F11327   0.809   1.355   6.563 -0.2201 -0.7549 -0.4572
  110OSM    H5G11328   0.832   1.180   6.612 -0.6196 -0.0088  1.4713
  110OSM    C6F11329   0.963   1.253   6.457  0.5503  0.4380 -0.6580
  110OSM    H6F11330   1.052   1.187   6.470 -1.7688 -2.9138 -0.7000
  110OSM    H6G11331   0.995   1.357   6.433 -1.7125  1.3207 -0.0449
  110OSM    C7F11332   0.877   1.195   6.341 -0.1681 -0.7169  0.5774
  110OSM    H7F11333   0.784   1.256   6.333  0.4830  0.1444 -0.6715
  110OSM    H7G11334   0.856   1.086   6.344 -0.6590 -0.6736 -0.6467
  110OSM    C8F11335   0.949   1.188   6.199  0.1354  0.8578  0.0464
  110OSM    H8F11336   0.874   1.136   6.135  0.5289  0.3232  0.0128
  110OSM    H8G11337   1.049   1.140   6.201  0.5442  1.5748 -1.3939
  110OSM    C9F11338   0.989   1.327   6.159  0.0398  0.1018 -0.2544
  110OSM    H9F11339   0.927   1.412   6.191 -1.3299 -0.9655  0.0178
  110OSM   C10F11340   1.083   1.352   6.065 -0.4333  0.5741  0.5330
  110OSM   H10F11341   1.103   1.456   6.036  0.0989  1.1524  2.7942
  110OSM   C11F11342   1.176   1.252   5.989  0.3914  0.4226  0.5498
  110OSM   H11F11343   1.149   1.149   6.020  0.0245  0.4363  0.2865
  110OSM   H11G11344   1.277   1.288   6.017 -0.5057  2.1893  1.6527
  110OSM   C12F11345   1.155   1.254   5.836 -0.4598  0.2205 -0.2339
  110OSM   H12F11346   1.178   1.349   5.782  3.3331 -0.2139  0.3172
  110OSM   H12G11347   1.050   1.230   5.812 -0.4206  1.9574 -2.4796
  110OSM   C13F11348   1.259   1.150   5.773  0.0452 -0.0179  0.2556
  110OSM   H13F11349   1.249   1.051   5.823 -1.5837  0.1989  0.3969
  110OSM   H13G11350   1.360   1.190   5.799  0.0740  0.9012 -1.1566
  110OSM   C14F11351   1.243   1.134   5.621  0.7480 -0.7882 -0.2567
  110OSM   H14F11352   1.247   1.232   5.569 -0.8278 -1.0143 -0.8480
  110OSM   H14G11353   1.142   1.092   5.602  0.4689  0.2890 -1.2623
  110OSM   C15F11354   1.357   1.051   5.561 -0.6488 -0.1099  0.2937
  110OSM   H15F11355   1.355   0.948   5.603  2.2835 -0.4323 -0.1058
  110OSM   H15G11356   1.456   1.098   5.579  0.1915 -2.2106  1.4994
  110OSM   C16F11357   1.355   1.052   5.404  0.0997  0.3094 -1.0096
  110OSM   H16F11358   1.440   0.993   5.364 -0.7336 -1.1998 -0.6364
  110OSM   H16G11359   1.363   1.158   5.371 -1.7850  1.9764  3.0784
  110OSM   C17F11360   1.226   0.995   5.344 -0.2349 -0.3211 -0.1967
  110OSM   H17F11361   1.142   1.057   5.382 -0.1868 -1.2000  1.4098
  110OSM   H17G11362   1.217   0.889   5.376 -0.4927 -0.4263 -0.6142
  110OSM   C18F11363   1.221   1.003   5.185  0.0626  0.4646 -0.2314
  110OSM   H18F11364   1.182   1.099   5.146 -2.8294 -1.4381 -2.3502
  110OSM   H18G11365   1.136   0.937   5.157  0.4100 -0.3028  0.4539
  110OSM   H18H11366   1.312   0.968   5.131 -0.2524 -0.6509 -0.0626
  111OSM      N11367   1.811   6.933   7.693  0.1507  0.8879 -0.4913
  111OSM    C1511368   1.922   6.961   7.603 -0.6132  0.0062 -0.3194
  111OSM   H15A11369   1.896   7.036   7.530 -1.9506  2.8152  2.8022
  111OSM   H15B11370   1.952   6.876   7.544  0.2361 -0.6452  0.9994
  111OSM   H15C11371   2.014   6.977   7.657 -1.2285 -3.2035  1.9662
  111OSM    C1411372   1.835   6.799   7.755 -0.2087 -0.4411  0.6061
  111OSM   H14A11373   1.810   6.721   7.683 -1.7025  0.9171 -0.4191
  111OSM   H14B11374   1.774   6.788   7.844 -1.6486  0.1356 -0.2658
  111OSM   H14C11375   1.936   6.791   7.793 -0.3116 -1.7260  0.6725
  111OSM    C1311376   1.808   7.038   7.800  0.2184  0.5447 -0.3532
  111OSM   H13A11377   1.762   7.128   7.761 -0.2783 -0.2945 -1.7777
  111OSM   H13B11378   1.906   7.076   7.826 -0.7312  1.4116  2.2578
  111OSM   H13C11379   1.753   7.012   7.889 -0.6225 -3.0477 -1.7684
  111OSM    C1211380   1.672   6.928   7.633  0.4620  0.3989 -0.2397
  111OSM   H12A11381   1.641   7.031   7.624  1.2509  0.6145 -0.6597
  111OSM   H12B11382   1.598   6.899   7.706 -0.4816  1.2075 -0.8517
  111OSM    C1111383   1.649   6.838   7.508  0.6091 -0.3775  0.6102
  111OSM   H11A11384   1.734   6.845   7.437 -0.4319 -1.4547 -0.7891
  111OSM   H11B11385   1.560   6.877   7.455  2.5075  0.2943 -2.3230
  111OSM      P11386   1.622   6.578   7.443  0.1037  0.4419 -0.1459
  111OSM    O1311387   1.706   6.469   7.494  0.7171  0.4563  0.1423
  111OSM    O1411388   1.480   6.555   7.403 -0.0895 -0.2687  0.2772
  111OSM    O1111389   1.693   6.631   7.326 -0.6578  0.3117  0.2108
  111OSM    O1211390   1.631   6.704   7.549  0.4356  0.3982 -0.1586
  111OSM    C1S11391   1.712   6.529   7.215  0.1281 -0.3384 -0.1006
  111OSM    H1S11392   1.615   6.508   7.165 -1.3329  0.3452  2.3061
  111OSM    H1T11393   1.755   6.432   7.248 -1.3678 -0.6258  1.0858
  111OSM     NF11394   1.768   6.527   6.961 -0.0893 -0.2817  0.1822
  111OSM    HNF11395   1.849   6.484   6.922  1.4569  0.9647  1.8724
  111OSM    C2S11396   1.789   6.592   7.097 -0.3750  0.1533  1.1643
  111OSM    H2S11397   1.770   6.700   7.079  2.2475  0.4534 -0.2223
  111OSM    C3S11398   1.938   6.576   7.130  0.3141  0.2506 -0.5460
  111OSM    H3S11399   1.966   6.469   7.143 -0.3195  0.0730 -0.5773
  111OSM     O311400   1.972   6.634   7.263 -0.2543  0.6915  0.7044
  111OSM    HO311401   1.884   6.658   7.293 -1.5910 -1.0775 -1.4872
  111OSM    C4S11402   2.032   6.631   7.024 -0.0855 -0.5582 -0.0899
  111OSM    H4S11403   2.044   6.575   6.931  0.6684  0.9330 -0.9255
  111OSM    C5S11404   2.074   6.758   7.023 -0.3832 -0.1216  0.3084
  111OSM    H5S11405   2.030   6.823   7.100  1.0446  1.4042 -0.1128
  111OSM    C6S11406   2.152   6.827   6.918  0.0714 -1.0673  0.4290
  111OSM    H6S11407   2.259   6.839   6.945 -0.4967  2.1557  1.7297
  111OSM    H6T11408   2.098   6.924   6.909 -0.7733 -1.5392  0.2423
  111OSM    C7S11409   2.149   6.771   6.771 -0.3539  0.2284  0.2968
  111OSM    H7S11410   2.048   6.739   6.737  0.3386 -0.2291 -1.4373
  111OSM    H7T11411   2.207   6.676   6.770 -0.3745  0.1443  2.4716
  111OSM    C8S11412   2.205   6.875   6.670 -0.5348  0.0041 -0.5652
  111OSM    H8S11413   2.290   6.928   6.718 -0.0226 -2.1058  1.0141
  111OSM    H8T11414   2.116   6.937   6.643 -1.1115 -0.9907 -1.0016
  111OSM    C9S11415   2.226   6.806   6.537  0.4321  0.3008  0.3352
  111OSM    H9S11416   2.144   6.741   6.499  1.8665 -1.0222 -0.6102
  111OSM    H9T11417   2.315   6.740   6.548  0.3265 -0.1585 -1.3311
  111OSM   C10S11418   2.256   6.906   6.429  0.1952 -0.2409  0.6008
  111OSM   H10S11419   2.360   6.943   6.439  0.5397 -0.8203 -0.6615
  111OSM   H10T11420   2.200   7.001   6.421  1.0101  0.0956 -2.2752
  111OSM   C11S11421   2.263   6.830   6.292 -0.4776 -0.5026 -0.5130
  111OSM   H11S11422   2.198   6.743   6.271 -0.1281 -0.9336  0.1464
  111OSM   H11T11423   2.366   6.787   6.290  0.1926  0.9752  0.2948
  111OSM   C12S11424   2.261   6.931   6.180 -0.3394 -0.2869  0.5227
  111OSM   H12S11425   2.342   7.006   6.190 -0.3297 -0.2429  0.1340
  111OSM   H12T11426   2.168   6.987   6.206 -0.0488 -1.0312  3.5955
  111OSM   C13S11427   2.273   6.851   6.050  0.3995  0.3131 -0.1280
  111OSM   H13S11428   2.195   6.773   6.037  1.5681 -0.6419 -2.0122
  111OSM   H13T11429   2.370   6.797   6.058 -0.3230 -1.4209 -1.9294
  111OSM   C14S11430   2.285   6.942   5.927 -0.1184 -0.1359  0.3796
  111OSM   H14S11431   2.385   6.989   5.929  0.1371 -0.6605  0.1769
  111OSM   H14T11432   2.204   7.018   5.928 -1.1096 -1.1329 -0.7717
  111OSM   C15S11433   2.267   6.868   5.795  0.2462  0.4886  0.4669
  111OSM   H15S11434   2.244   6.936   5.710  0.6921  1.8023  1.3655
  111OSM   H15T11435   2.176   6.804   5.800  0.5077  0.0464 -0.2287
  111OSM   C16S11436   2.399   6.792   5.760  0.0690  0.2417 -0.1284
  111OSM   H16S11437   2.418   6.714   5.837 -1.5859 -1.0547 -0.9699
  111OSM   H16T11438   2.484   6.864   5.766  2.4513 -2.4165  0.6266
  111OSM   C17S11439   2.406   6.732   5.621  1.0707 -0.8831 -0.0217
  111OSM   H17S11440   2.331   6.784   5.557  0.1038 -1.9568  0.2179
  111OSM   H17T11441   2.373   6.626   5.625  1.2786 -0.9240  1.0368
  111OSM   C18S11442   2.540   6.753   5.552  0.1538  0.7791 -0.0133
  111OSM   H18S11443   2.582   6.853   5.573  1.2464 -0.1095  2.5074
  111OSM   H18T11444   2.522   6.719   5.448 -0.6037 -0.3735  0.4676
  111OSM   H18U11445   2.612   6.687   5.605  0.3333  0.8640 -0.1519
  111OSM    C1F11446   1.647   6.527   6.906  0.2321 -0.7008 -0.9143
  111OSM     OF11447   1.548   6.583   6.963 -0.2387 -0.1457  0.7787
  111OSM    C2F11448   1.636   6.467   6.775  0.5983  0.1118  0.1028
  111OSM    H2F11449   1.606   6.554   6.712  1.4684  1.0145  0.8960
  111OSM    H2G11450   1.550   6.397   6.777 -0.6778  1.6271  1.8988
  111OSM    C3F11451   1.759   6.392   6.720 -0.4333 -0.3253  0.2324
  111OSM    H3F11452   1.782   6.308   6.790  0.0828 -2.1732 -2.0318
  111OSM    H3G11453   1.840   6.467   6.716 -0.6819  0.1307  2.3422
  111OSM    C4F11454   1.743   6.321   6.586 -0.1669 -0.2377  0.8852
  111OSM    H4F11455   1.655   6.253   6.589 -0.3660 -0.1957 -1.5630
  111OSM    H4G11456   1.835   6.265   6.561 -2.1031 -2.6909 -1.3238
  111OSM    C5F11457   1.710   6.407   6.462 -0.3515  0.1945  0.6733
  111OSM    H5F11458   1.761   6.506   6.470 -2.8702  1.6201  0.2245
  111OSM    H5G11459   1.603   6.438   6.463 -0.1048  1.1189  0.1318
  111OSM    C6F11460   1.740   6.336   6.330  0.1901  0.0036 -0.4020
  111OSM    H6F11461   1.668   6.251   6.330  1.2354 -0.9463  1.9180
  111OSM    H6G11462   1.837   6.284   6.338 -0.3642 -0.7686  2.0314
  111OSM    C7F11463   1.746   6.420   6.202  0.2216  0.8036 -0.5292
  111OSM    H7F11464   1.843   6.474   6.204  1.4378 -1.2478  2.6366
  111OSM    H7G11465   1.662   6.493   6.206 -2.2479 -1.7690 -2.1960
  111OSM    C8F11466   1.724   6.341   6.066  0.5251  0.3242  0.4030
  111OSM    H8F11467   1.631   6.282   6.054  0.4216  0.8052 -1.4117
  111OSM    H8G11468   1.803   6.264   6.059 -2.2521 -2.6192 -0.9302
  111OSM    C9F11469   1.740   6.430   5.949 -0.3820  0.2027  0.4052
  111OSM    H9F11470   1.775   6.532   5.970 -3.6824  1.3895  0.7839
  111OSM   C10F11471   1.695   6.410   5.821 -1.0113  0.8453  0.1797
  111OSM   H10F11472   1.709   6.487   5.743 -0.3180  0.1721 -0.3750
  111OSM   C11F11473   1.624   6.288   5.762  0.6702  0.3921 -0.5352
  111OSM   H11F11474   1.523   6.321   5.729 -0.1480  0.6721  2.0229
  111OSM   H11G11475   1.607   6.213   5.842  1.6199 -0.8538 -1.4662
  111OSM   C12F11476   1.691   6.214   5.642 -0.0046 -0.2311 -0.7043
  111OSM   H12F11477   1.617   6.142   5.600 -0.6920  0.0886 -0.0750
  111OSM   H12G11478   1.784   6.163   5.677  0.0168 -0.0166 -0.4420
  111OSM   C13F11479   1.726   6.303   5.522 -0.3275 -0.0491  1.5185
  111OSM   H13F11480   1.811   6.247   5.478  0.5752  1.9713  0.5467
  111OSM   H13G11481   1.761   6.403   5.554 -1.8084  0.8116  0.5782
  111OSM   C14F11482   1.605   6.321   5.432  0.0491  0.5069  0.8117
  111OSM   H14F11483   1.524   6.364   5.495 -1.5941  0.0771 -0.9261
  111OSM   H14G11484   1.579   6.217   5.403  3.9468 -1.0759  2.3715
  111OSM   C15F11485   1.633   6.402   5.307 -0.1047 -0.6889 -0.5039
  111OSM   H15F11486   1.718   6.364   5.246  1.0700 -0.3916  0.8797
  111OSM   H15G11487   1.663   6.504   5.339 -1.4693  0.1618 -1.8031
  111OSM   C16F11488   1.510   6.419   5.207 -0.6888 -0.1050 -0.1764
  111OSM   H16F11489   1.414   6.383   5.251 -0.5380 -1.3052 -0.7718
  111OSM   H16G11490   1.528   6.336   5.135 -1.7403 -0.5449  0.0459
  111OSM   C17F11491   1.501   6.547   5.129  0.3147 -0.2108 -0.6236
  111OSM   H17F11492   1.561   6.537   5.035  1.5283  0.2845  0.0729
  111OSM   H17G11493   1.548   6.626   5.191 -1.8343  1.9044 -1.5462
  111OSM   C18F11494   1.359   6.595   5.117 -0.3176  0.6595 -0.2718
  111OSM   H18F11495   1.347   6.702   5.088  2.3295  1.5309  1.4868
  111OSM   H18G11496   1.318   6.588   5.220 -0.3576  3.4175 -0.0293
  111OSM   H18H11497   1.309   6.528   5.043  0.6368  1.3004 -1.5497
  112OSM      N11498   4.699   4.935   7.916 -0.4024 -0.5431 -0.0685
  112OSM    C1511499   4.631   4.944   8.049 -0.2516 -0.3307  0.9901
  112OSM   H15A11500   4.594   4.848   8.079  2.2017 -0.7810  2.9511
  112OSM   H15B11501   4.543   5.004   8.034 -0.7310 -1.5075 -1.3137
  112OSM   H15C11502   4.700   4.978   8.125  1.2067  1.5761 -1.0303
  112OSM    C1411503   4.699   5.072   7.854 -0.2228 -0.5386 -0.5460
  112OSM   H14A11504   4.609   5.132   7.854  0.1532  0.0598  0.7397
  112OSM   H14B11505   4.741   5.069   7.754  3.2693 -0.1559  0.7536
  112OSM   H14C11506   4.776   5.126   7.907 -2.9051  2.9077  0.1457
  112OSM    C1311507   4.844   4.897   7.936  0.2725  0.3785 -0.0840
  112OSM   H13A11508   4.854   4.794   7.966 -0.4249  0.7506  1.5767
  112OSM   H13B11509   4.891   4.961   8.009  0.6802 -2.5864  2.4666
  112OSM   H13C11510   4.896   4.886   7.842  1.7317 -2.9175  0.9602
  112OSM    C1211511   4.632   4.857   7.810  0.2910  0.3987  0.2389
  112OSM   H12A11512   4.528   4.882   7.797 -0.6272 -3.2737 -0.7582
  112OSM   H12B11513   4.629   4.757   7.852  0.2597  0.4442  0.3455
  112OSM    C1111514   4.701   4.839   7.674  0.1481  0.3837 -0.1973
  112OSM   H11A11515   4.692   4.937   7.622  0.4429  0.1433 -0.7088
  112OSM   H11B11516   4.641   4.765   7.617  1.6753 -1.7087  0.7783
  112OSM      P11517   4.885   4.657   7.642 -0.0439  0.0315  0.0256
  112OSM    O1311518   5.030   4.659   7.610  0.1039  0.1785 -0.5010
  112OSM    O1411519   4.843   4.580   7.758 -0.2813 -0.5718  0.0149
  112OSM    O1111520   4.810   4.605   7.506 -0.1618 -0.1238  0.1642
  112OSM    O1211521   4.837   4.799   7.668 -0.3718  0.4615 -0.2949
  112OSM    C1S11522   4.847   4.675   7.385 -0.6719  0.0384  0.8799
  112OSM    H1S11523   4.951   4.636   7.375 -1.3703 -2.0840  1.3322
  112OSM    H1T11524   4.837   4.786   7.387  0.6636  0.2326 -0.7133
  112OSM     NF11525   4.808   4.692   7.147 -0.5113 -0.0552 -0.7297
  112OSM    HNF11526   4.748   4.765   7.113  0.6880  0.9814 -0.7051
  112OSM    C2S11527   4.758   4.618   7.264 -0.2220  0.4645 -0.2525
  112OSM    H2S11528   4.780   4.509   7.261 -1.5750  0.1617  0.2868
  112OSM    C3S11529   4.605   4.651   7.289 -0.1028  0.1442  0.0218
  112OSM    H3S11530   4.594   4.761   7.297  1.5165  0.3118  0.4823
  112OSM     O311531   4.562   4.613   7.418  0.1281 -0.2806 -0.1717
  112OSM    HO311532   4.645   4.612   7.466 -0.9638 -0.3895  1.8244
  112OSM    C4S11533   4.529   4.590   7.177 -0.4099  0.7508  0.0370
  112OSM    H4S11534   4.533   4.650   7.084  2.4216  1.3565  0.4597
  112OSM    C5S11535   4.460   4.477   7.169 -0.1303 -0.7563 -0.1058
  112OSM    H5S11536   4.446   4.411   7.257 -0.5335 -0.6885 -0.1181
  112OSM    C6S11537   4.394   4.422   7.045 -0.4991 -0.0203  0.0401
  112OSM    H6S11538   4.287   4.400   7.067 -0.8202  1.5219  0.1685
  112OSM    H6T11539   4.440   4.325   7.018  1.3817  0.7668  0.2368
  112OSM    C7S11540   4.397   4.517   6.918 -0.5653  0.0680 -0.1407
  112OSM    H7S11541   4.502   4.547   6.898  0.1296 -2.8952 -1.4108
  112OSM    H7T11542   4.333   4.604   6.946  1.7672  1.4058  1.3626
  112OSM    C8S11543   4.348   4.453   6.786  0.2019  0.3464 -0.6982
  112OSM    H8S11544   4.284   4.365   6.809 -0.1406  0.7094 -0.2562
  112OSM    H8T11545   4.440   4.420   6.733  0.9502  1.3486 -0.0824
  112OSM    C9S11546   4.262   4.561   6.710  0.5290  0.9414  0.8675
  112OSM    H9S11547   4.188   4.623   6.765  0.1111  2.7590 -1.5665
  112OSM    H9T11548   4.208   4.510   6.627  2.0294  1.9481 -0.8302
  112OSM   C10S11549   4.349   4.652   6.633 -0.1458 -0.2107 -0.2016
  112OSM   H10S11550   4.454   4.628   6.662  0.0787  0.7436 -0.1910
  112OSM   H10T11551   4.321   4.752   6.672 -2.5763 -1.4024  1.3643
  112OSM   C11S11552   4.324   4.657   6.483  0.0600  0.1561  0.2129
  112OSM   H11S11553   4.349   4.556   6.445 -0.4277 -0.1057  0.5810
  112OSM   H11T11554   4.407   4.723   6.447  0.5849 -0.3159  0.5338
  112OSM   C12S11555   4.183   4.694   6.434 -0.4215 -0.1748 -0.3846
  112OSM   H12S11556   4.134   4.758   6.511  1.6660 -2.2640  2.9691
  112OSM   H12T11557   4.125   4.599   6.427 -0.8833 -0.0833  1.6389
  112OSM   C13S11558   4.194   4.758   6.293  0.6656 -0.0860  0.1627
  112OSM   H13S11559   4.252   4.852   6.297 -0.9952  0.9969 -0.0038
  112OSM   H13T11560   4.095   4.784   6.251  0.6877  2.0555  1.2874
  112OSM   C14S11561   4.259   4.670   6.184  0.3256  0.1289 -0.0956
  112OSM   H14S11562   4.183   4.591   6.171 -2.0789  2.0168  1.5165
  112OSM   H14T11563   4.358   4.634   6.220  0.1459 -0.2944 -0.0264
  112OSM   C15S11564   4.277   4.737   6.052 -0.0730  0.2001 -0.2250
  112OSM   H15S11565   4.302   4.654   5.982  1.3206 -0.2563  0.7673
  112OSM   H15T11566   4.361   4.810   6.058  0.7428 -0.8436  2.6221
  112OSM   C16S11567   4.150   4.808   6.005  0.2463  0.9800  0.1174
  112OSM   H16S11568   4.130   4.890   6.077  0.9445  2.0100 -0.8368
  112OSM   H16T11569   4.067   4.734   6.014 -0.6373  1.6166 -2.1159
  112OSM   C17S11570   4.158   4.847   5.863 -0.8199  0.0463 -0.1572
  112OSM   H17S11571   4.194   4.766   5.795 -0.6065 -0.4184  0.5012
  112OSM   H17T11572   4.228   4.932   5.848 -2.5879  1.6017  0.0884
  112OSM   C18S11573   4.022   4.900   5.818 -0.2319 -0.0671  0.3967
  112OSM   H18S11574   4.035   4.936   5.713 -0.0142  0.1528  0.4964
  112OSM   H18T11575   3.995   4.991   5.876  0.6962 -0.0884  0.8767
  112OSM   H18U11576   3.940   4.825   5.817 -2.0642  1.7893 -1.8022
  112OSM    C1F11577   4.932   4.665   7.095  0.0326 -0.4778  0.1294
  112OSM     OF11578   4.992   4.559   7.122  0.1727 -0.0510  0.4139
  112OSM    C2F11579   4.990   4.770   6.998  0.5923 -0.0287  0.2149
  112OSM    H2F11580   5.098   4.779   7.020  0.5161  0.5393  0.3755
  112OSM    H2G11581   4.932   4.864   7.015 -3.4176 -1.8041 -2.1660
  112OSM    C3F11582   4.977   4.731   6.843  0.4440 -0.3371 -0.3710
  112OSM    H3F11583   4.872   4.747   6.811  0.4147 -1.2800 -0.7655
  112OSM    H3G11584   5.001   4.623   6.833  1.7519 -0.4045  2.3722
  112OSM    C4F11585   5.055   4.823   6.750  0.6883 -0.7332  1.1035
  112OSM    H4F11586   5.159   4.845   6.783  0.3247  0.5637  1.4308
  112OSM    H4G11587   5.000   4.919   6.760  1.4426 -0.0358 -0.9502
  112OSM    C5F11588   5.028   4.775   6.609  0.3665  1.3861  1.0158
  112OSM    H5F11589   4.919   4.795   6.594 -0.3075 -0.7073  2.5228
  112OSM    H5G11590   5.043   4.667   6.588 -1.7633  0.9532  1.4451
  112OSM    C6F11591   5.098   4.857   6.501 -0.0253  0.5563  0.6324
  112OSM    H6F11592   5.207   4.836   6.504  0.0199  0.7774  0.4772
  112OSM    H6G11593   5.076   4.963   6.526 -0.4806  0.5595  0.2268
  112OSM    C7F11594   5.045   4.838   6.362  0.4667 -0.1525  1.4574
  112OSM    H7F11595   4.973   4.920   6.343  1.5927  0.6094  0.3421
  112OSM    H7G11596   4.984   4.745   6.357 -0.6864  0.6466  0.1264
  112OSM    C8F11597   5.150   4.834   6.249  0.2540  0.4088 -0.2246
  112OSM    H8F11598   5.096   4.828   6.152 -0.1635  0.5278 -0.0009
  112OSM    H8G11599   5.197   4.734   6.264 -0.2294  0.0391 -1.0977
  112OSM    C9F11600   5.244   4.952   6.240 -0.8700  0.7917 -0.0818
  112OSM    H9F11601   5.321   4.950   6.318 -1.1503  0.5706  0.1942
  112OSM   C10F11602   5.244   5.059   6.160  0.0133 -0.4503 -0.9010
  112OSM   H10F11603   5.330   5.127   6.168  1.3711 -1.8976 -2.3883
  112OSM   C11F11604   5.158   5.095   6.033 -0.0021  0.0839 -0.3868
  112OSM   H11F11605   5.088   5.180   6.051  0.5182  0.3667  0.3336
  112OSM   H11G11606   5.088   5.010   6.018 -0.9191  0.7932 -0.2550
  112OSM   C12F11607   5.235   5.111   5.911 -0.2367  0.2456  0.5690
  112OSM   H12F11608   5.303   5.023   5.909 -0.4220  0.0384  2.3435
  112OSM   H12G11609   5.303   5.199   5.916  0.6722 -0.4982  1.6594
  112OSM   C13F11610   5.157   5.106   5.779 -0.2495 -0.2454  0.9418
  112OSM   H13F11611   5.232   5.118   5.698  1.1695 -0.9684  2.1106
  112OSM   H13G11612   5.096   5.199   5.781 -1.5585 -1.0642  0.6625
  112OSM   C14F11613   5.064   4.984   5.749 -0.0549  0.6244 -0.2451
  112OSM   H14F11614   4.977   5.012   5.685 -1.6473 -0.7159  1.2438
  112OSM   H14G11615   5.021   4.941   5.842 -1.6868  1.9157 -0.3646
  112OSM   C15F11616   5.151   4.874   5.683 -0.2007 -1.1015 -0.2103
  112OSM   H15F11617   5.250   4.921   5.667 -0.5183  0.0428  1.0262
  112OSM   H15G11618   5.116   4.852   5.580 -1.3327 -2.0452  0.3425
  112OSM   C16F11619   5.173   4.745   5.754  0.4355  0.3190  0.2570
  112OSM   H16F11620   5.222   4.762   5.852 -1.2984 -0.9477  1.4069
  112OSM   H16G11621   5.239   4.671   5.703  1.3023  0.7173  0.7730
  112OSM   C17F11622   5.047   4.669   5.787 -0.0642 -1.0303  0.4846
  112OSM   H17F11623   4.999   4.617   5.701  1.8479 -0.2292 -1.1675
  112OSM   H17G11624   4.975   4.747   5.819  0.2208 -0.1614 -0.8817
  112OSM   C18F11625   5.057   4.576   5.901  0.5589 -0.8853  0.2937
  112OSM   H18F11626   5.083   4.633   5.993 -2.0010  1.1520 -0.1461
  112OSM   H18G11627   5.129   4.499   5.865 -0.6500 -1.1945 -1.6226
  112OSM   H18H11628   4.963   4.518   5.914 -0.1930  0.4103  0.7686
  113OSM      N11629   4.766   5.567   7.215  0.5889 -0.2013 -0.3923
  113OSM    C1511630   4.631   5.505   7.199 -0.2704  0.2337 -0.0330
  113OSM   H15A11631   4.551   5.576   7.180 -1.6662 -1.0380  0.8503
  113OSM   H15B11632   4.589   5.449   7.281 -1.8845  3.5215  1.5943
  113OSM   H15C11633   4.635   5.442   7.111  0.5412 -1.9650  1.5235
  113OSM    C1411634   4.802   5.653   7.099  0.5221  0.9580 -0.1904
  113OSM   H14A11635   4.775   5.608   7.005  1.1004  0.5650 -0.1731
  113OSM   H14B11636   4.909   5.662   7.087  1.1456 -1.3397  2.4515
  113OSM   H14C11637   4.751   5.748   7.109 -2.3924 -0.4872 -0.1942
  113OSM    C1311638   4.758   5.647   7.340 -0.5015 -0.0153 -0.3158
  113OSM   H13A11639   4.843   5.713   7.352 -0.4559 -0.0535 -0.4332
  113OSM   H13B11640   4.750   5.582   7.426  5.1963 -0.3922  0.3465
  113OSM   H13C11641   4.676   5.717   7.333  1.6073  2.5566 -1.0454
  113OSM    C1211642   4.877   5.462   7.222 -0.0993 -0.0081  0.0988
  113OSM   H12A11643   4.958   5.520   7.262 -0.3615 -0.1202  0.8168
  113OSM   H12B11644   4.883   5.427   7.120 -4.0087  0.8312 -0.5825
  113OSM    C1111645   4.850   5.345   7.316  0.8547 -0.4699 -0.3250
  113OSM   H11A11646   4.815   5.385   7.414  0.5245  1.5522 -1.2007
  113OSM   H11B11647   4.948   5.298   7.336 -0.2323 -2.7176  0.0364
  113OSM      P11648   4.726   5.124   7.362  0.4631  0.1712 -0.0242
  113OSM    O1311649   4.838   5.040   7.340 -0.1697  0.2774  0.3023
  113OSM    O1411650   4.702   5.171   7.499  0.0712 -0.3745 -0.1796
  113OSM    O1111651   4.598   5.050   7.311  0.0269 -0.1142 -0.4840
  113OSM    O1211652   4.747   5.250   7.270  0.7356 -0.2467 -0.3464
  113OSM    C1S11653   4.488   5.115   7.248 -0.0907  0.5493  0.2192
  113OSM    H1S11654   4.473   5.216   7.293 -0.6022  1.5270 -2.0027
  113OSM    H1T11655   4.394   5.062   7.274 -0.5208  1.5862  0.8698
  113OSM     NF11656   4.370   5.176   7.037  0.1881 -0.3838  0.3363
  113OSM    HNF11657   4.321   5.124   6.968 -1.1710  0.1889  0.8507
  113OSM    C2S11658   4.495   5.127   7.089 -0.5822  0.5286  1.2399
  113OSM    H2S11659   4.578   5.197   7.067  0.9169 -1.5032  0.0276
  113OSM    C3S11660   4.541   4.988   7.031 -0.2872 -0.7514 -0.0904
  113OSM    H3S11661   4.459   4.920   7.063  1.0044 -1.3372  2.2028
  113OSM     O311662   4.647   4.916   7.103 -0.2342  0.5259  0.0207
  113OSM    HO311663   4.673   4.971   7.177  0.1861  2.4093 -1.4339
  113OSM    C4S11664   4.560   4.997   6.881  0.4944 -0.2421  0.8725
  113OSM    H4S11665   4.474   4.972   6.818  1.7875  0.1132 -1.1395
  113OSM    C5S11666   4.681   5.015   6.822  0.2686  0.0045 -1.4888
  113OSM    H5S11667   4.769   5.018   6.888 -0.3402 -0.0127 -0.6589
  113OSM    C6S11668   4.711   5.009   6.672 -1.0202 -0.4309  0.5071
  113OSM    H6S11669   4.820   4.988   6.665 -1.0876 -0.8052  0.5646
  113OSM    H6T11670   4.687   5.113   6.642 -0.0101  0.4714  2.6213
  113OSM    C7S11671   4.630   4.912   6.587  0.0358  0.3745  0.9270
  113OSM    H7S11672   4.527   4.952   6.591  0.8840  3.0594 -1.0836
  113OSM    H7T11673   4.634   4.808   6.625 -2.2523 -0.6038 -1.2882
  113OSM    C8S11674   4.672   4.897   6.441  0.1863  0.0082  0.0830
  113OSM    H8S11675   4.601   4.828   6.390  1.5033 -0.6550 -0.9122
  113OSM    H8T11676   4.766   4.838   6.441 -0.2208 -0.6685 -0.9505
  113OSM    C9S11677   4.680   5.036   6.370 -0.6116 -0.9167 -0.2650
  113OSM    H9S11678   4.775   5.084   6.401  0.2595 -0.3321 -3.4983
  113OSM    H9T11679   4.595   5.097   6.407 -0.6322 -1.5615  0.7850
  113OSM   C10S11680   4.673   5.020   6.218 -0.1224  0.0954 -0.1064
  113OSM   H10S11681   4.569   5.012   6.180  0.4108 -1.0415 -1.4260
  113OSM   H10T11682   4.723   4.923   6.202 -1.4609 -0.9110  1.4197
  113OSM   C11S11683   4.737   5.136   6.136  0.6425 -0.9678 -0.5979
  113OSM   H11S11684   4.841   5.145   6.177  0.4643 -0.2681 -0.2759
  113OSM   H11T11685   4.673   5.226   6.146  1.5323 -0.3630 -0.1908
  113OSM   C12S11686   4.739   5.106   5.980  0.1663  0.3936 -0.6112
  113OSM   H12S11687   4.783   5.006   5.959  0.3521  0.7514 -2.0296
  113OSM   H12T11688   4.806   5.177   5.927 -0.2273  1.0001 -0.3052
  113OSM   C13S11689   4.607   5.123   5.917 -0.3969  0.0454  0.2779
  113OSM   H13S11690   4.562   5.222   5.936 -0.3158 -0.0593  1.0717
  113OSM   H13T11691   4.538   5.039   5.941 -0.1660  0.2801  1.8755
  113OSM   C14S11692   4.617   5.109   5.759  0.2491 -0.0561 -0.2073
  113OSM   H14S11693   4.672   5.015   5.735  2.6899  1.4078 -0.6709
  113OSM   H14T11694   4.686   5.189   5.724  0.2168 -0.0343 -0.2211
  113OSM   C15S11695   4.479   5.113   5.703 -0.6300 -0.5884  1.3602
  113OSM   H15S11696   4.418   5.194   5.748  1.5991  1.0709  1.5799
  113OSM   H15T11697   4.433   5.014   5.724  0.2957 -1.1075  1.0115
  113OSM   C16S11698   4.483   5.133   5.547 -0.2612 -0.4213 -0.1696
  113OSM   H16S11699   4.534   5.048   5.497  2.3273  0.2202  1.2403
  113OSM   H16T11700   4.539   5.228   5.537  0.4556 -0.7309  0.7804
  113OSM   C17S11701   4.348   5.167   5.483 -0.6805  0.1220 -0.7943
  113OSM   H17S11702   4.373   5.161   5.375 -0.4087 -1.3231 -0.6707
  113OSM   H17T11703   4.321   5.272   5.509 -1.7812 -0.0310 -1.2513
  113OSM   C18S11704   4.221   5.082   5.521  0.0896 -0.5356  0.0898
  113OSM   H18S11705   4.215   4.979   5.482 -1.4153 -0.9953  1.4504
  113OSM   H18T11706   4.130   5.139   5.492  0.9258  1.9734  1.9940
  113OSM   H18U11707   4.216   5.075   5.632  1.0005  1.0648  0.2743
  113OSM    C1F11708   4.322   5.299   7.057  0.3577 -0.4676 -0.0721
  113OSM     OF11709   4.362   5.375   7.141 -0.3841  0.3937 -0.5433
  113OSM    C2F11710   4.212   5.335   6.967 -1.0681  0.2208 -0.0500
  113OSM    H2F11711   4.120   5.309   7.024  0.2659 -1.9145  1.2939
  113OSM    H2G11712   4.220   5.280   6.870 -1.5038  3.1148 -1.8305
  113OSM    C3F11713   4.216   5.483   6.939  0.1229 -0.3062 -0.2855
  113OSM    H3F11714   4.314   5.516   6.898  1.3897  0.4398  2.9487
  113OSM    H3G11715   4.213   5.540   7.035  1.1871  0.6867 -0.8163
  113OSM    C4F11716   4.098   5.528   6.849 -0.0609 -0.0397 -0.1155
  113OSM    H4F11717   4.007   5.519   6.912  0.0337 -0.5064 -0.0412
  113OSM    H4G11718   4.086   5.465   6.758 -1.0462  0.2242 -0.1793
  113OSM    C5F11719   4.110   5.672   6.792 -0.4525  0.1036  0.0841
  113OSM    H5F11720   4.198   5.695   6.728 -0.8520  0.5613 -0.3115
  113OSM    H5G11721   4.124   5.745   6.875 -1.7462  2.3748 -1.5996
  113OSM    C6F11722   3.979   5.719   6.725 -0.5659  0.6639  0.0901
  113OSM    H6F11723   3.903   5.721   6.806 -2.2011 -0.3946 -1.3505
  113OSM    H6G11724   3.962   5.640   6.649  1.2004 -0.2826  0.6092
  113OSM    C7F11725   3.997   5.857   6.658  0.2075  0.4259  0.3337
  113OSM    H7F11726   4.024   5.931   6.736 -0.3180  0.8279  0.1373
  113OSM    H7G11727   3.894   5.883   6.627 -0.2131 -0.4040  1.0080
  113OSM    C8F11728   4.091   5.878   6.532 -0.3622  0.1053 -0.2804
  113OSM    H8F11729   4.193   5.852   6.566 -0.6828 -2.4880 -1.1095
  113OSM    H8G11730   4.094   5.985   6.501 -0.8083 -0.0583 -0.9197
  113OSM    C9F11731   4.057   5.782   6.418 -0.3179 -0.1452 -0.0488
  113OSM    H9F11732   4.050   5.675   6.439  0.0723  0.0526  1.1550
  113OSM   C10F11733   4.030   5.815   6.295  0.3467 -0.6802  0.2712
  113OSM   H10F11734   4.013   5.743   6.213 -2.8413  0.8090 -0.5260
  113OSM   C11F11735   4.014   5.959   6.256  0.0888 -1.0187 -0.3237
  113OSM   H11F11736   4.118   5.999   6.255  0.1500 -1.1786 -0.7205
  113OSM   H11G11737   3.943   6.005   6.328  1.3526  2.5511 -1.1220
  113OSM   C12F11738   3.951   5.984   6.119 -0.8057 -0.3170 -0.9344
  113OSM   H12F11739   3.937   6.094   6.108  0.1753  0.1155  1.4530
  113OSM   H12G11740   3.852   5.937   6.101  0.4660 -3.1517 -1.0463
  113OSM   C13F11741   4.067   5.945   6.018  0.0779 -0.0623  0.5722
  113OSM   H13F11742   4.086   5.836   6.026 -1.8199 -0.5243 -0.4231
  113OSM   H13G11743   4.157   6.006   6.038  0.0575 -0.3400  1.5790
  113OSM   C14F11744   4.025   5.967   5.868  0.1459 -0.1196  0.7450
  113OSM   H14F11745   3.948   5.900   5.825  2.5404 -1.4903 -1.7094
  113OSM   H14G11746   4.118   5.952   5.810 -0.0204  1.7258 -0.0917
  113OSM   C15F11747   3.978   6.107   5.850 -0.3044 -0.5666 -0.3040
  113OSM   H15F11748   4.040   6.188   5.894 -0.6492 -0.0781 -0.7109
  113OSM   H15G11749   3.871   6.116   5.878 -0.1768 -1.5090  0.5489
  113OSM   C16F11750   3.984   6.149   5.700  0.2621 -0.4715  0.1603
  113OSM   H16F11751   3.936   6.062   5.650  2.9018 -0.7352 -2.1252
  113OSM   H16G11752   4.087   6.171   5.667 -0.3235  0.6886 -0.9697
  113OSM   C17F11753   3.905   6.277   5.683  0.3116  0.4534  0.5748
  113OSM   H17F11754   3.936   6.365   5.743  1.4369  1.2123 -1.0567
  113OSM   H17G11755   3.803   6.254   5.720  0.4049  0.5421  0.8900
  113OSM   C18F11756   3.911   6.318   5.532  0.0850 -0.5093 -0.3610
  113OSM   H18F11757   4.019   6.337   5.518 -0.0425  1.6725  1.1464
  113OSM   H18G11758   3.856   6.413   5.520  0.8765 -0.1600 -1.3319
  113OSM   H18H11759   3.864   6.240   5.467  0.8458 -1.3643  0.0870
  114OSM      N11760   6.926   4.878   7.698  0.1114 -0.5301  0.0585
  114OSM    C1511761   7.062   4.817   7.731 -0.5310 -0.2342  0.2975
  114OSM   H15A11762   7.061   4.774   7.830 -0.9717  1.0072  0.8540
  114OSM   H15B11763   7.135   4.896   7.734  0.5763 -1.2424  0.5774
  114OSM   H15C11764   7.086   4.745   7.654  0.2736 -0.5899  0.8659
  114OSM    C1411765   6.830   4.763   7.687 -0.4757 -0.0127 -0.0357
  114OSM   H14A11766   6.857   4.704   7.601 -1.6339 -0.2382 -0.2518
  114OSM   H14B11767   6.729   4.801   7.685 -0.8328 -0.7322  1.8455
  114OSM   H14C11768   6.835   4.694   7.770  0.4067  0.4971  0.3550
  114OSM    C1311769   6.876   4.965   7.807 -0.4291  0.1687 -0.5716
  114OSM   H13A11770   6.850   4.910   7.897  1.0933 -3.6267 -2.2432
  114OSM   H13B11771   6.787   5.019   7.776 -0.4570 -0.2218 -1.1791
  114OSM   H13C11772   6.954   5.033   7.840 -0.1719 -0.0111 -0.8152
  114OSM    C1211773   6.933   4.957   7.563 -0.5091 -0.6771 -0.0737
  114OSM   H12A11774   6.980   5.050   7.590 -0.9301 -0.0445 -1.4334
  114OSM   H12B11775   6.830   4.965   7.533 -0.9041  1.9510  1.7064
  114OSM    C1111776   7.002   4.907   7.436  0.2224  0.2063 -0.3644
  114OSM   H11A11777   7.112   4.919   7.442  0.5595 -1.3660 -2.4558
  114OSM   H11B11778   6.970   4.982   7.360 -0.9979  1.3020  1.1569
  114OSM      P11779   7.046   4.666   7.332  0.0442  0.0337 -0.0021
  114OSM    O1311780   7.169   4.631   7.410 -0.2912 -0.0324 -0.5853
  114OSM    O1411781   6.960   4.557   7.281 -0.3799  0.3670 -0.2913
  114OSM    O1111782   7.113   4.752   7.218  0.4175 -0.0478 -0.2975
  114OSM    O1211783   6.961   4.775   7.406 -0.3307  0.7229 -0.4977
  114OSM    C1S11784   7.202   4.689   7.123 -0.5268 -0.9904 -0.1523
  114OSM    H1S11785   7.190   4.579   7.119 -0.0279 -1.2111  2.5476
  114OSM    H1T11786   7.309   4.704   7.148 -0.3031 -1.7514 -0.6390
  114OSM     NF11787   7.266   4.690   6.882 -0.3303  0.3371 -0.1621
  114OSM    HNF11788   7.337   4.748   6.843 -2.0950  1.3729 -2.0216
  114OSM    C2S11789   7.192   4.757   6.980  0.2339  0.4325 -0.6269
  114OSM    H2S11790   7.083   4.757   6.955 -0.4921 -0.4610  2.1660
  114OSM    C3S11791   7.234   4.909   6.997 -0.2540  0.9391 -0.2085
  114OSM    H3S11792   7.344   4.918   7.002 -0.2969  0.7920  1.9072
  114OSM     O311793   7.164   4.974   7.100 -0.3878 -0.0480  0.3586
  114OSM    HO311794   7.116   4.903   7.143 -1.0585 -0.5370 -1.1406
  114OSM    C4S11795   7.206   4.969   6.861  0.0584 -0.9764 -0.0329
  114OSM    H4S11796   7.295   4.968   6.797  1.1213  3.1776  1.0934
  114OSM    C5S11797   7.099   5.033   6.813 -0.2782  0.0378  0.3214
  114OSM    H5S11798   7.009   5.055   6.873 -0.5083  3.7046 -1.0571
  114OSM    C6S11799   7.098   5.084   6.671 -0.0199  0.1561  0.0711
  114OSM    H6S11800   7.123   5.191   6.653 -0.4317  0.2176 -0.1400
  114OSM    H6T11801   6.997   5.074   6.625  0.0841  1.6681 -0.5563
  114OSM    C7S11802   7.182   4.988   6.580 -0.0772 -0.4615  0.6008
  114OSM    H7S11803   7.160   4.880   6.592 -1.3466 -0.2763  0.1326
  114OSM    H7T11804   7.289   5.005   6.603 -0.4589 -0.1988  2.3495
  114OSM    C8S11805   7.156   5.019   6.431  0.0980 -0.6355  0.0931
  114OSM    H8S11806   7.191   5.125   6.429 -2.1039  0.3258  4.0406
  114OSM    H8T11807   7.048   5.037   6.417 -0.1018  0.4708  2.4797
  114OSM    C9S11808   7.215   4.916   6.330  0.4938 -0.1436 -0.3451
  114OSM    H9S11809   7.165   4.824   6.368  1.2832 -1.0816 -1.5168
  114OSM    H9T11810   7.325   4.910   6.339  0.5592  1.3483  0.0866
  114OSM   C10S11811   7.168   4.941   6.188 -0.0884  0.0293  0.1326
  114OSM   H10S11812   7.204   5.043   6.162 -0.0306 -0.4591 -1.8328
  114OSM   H10T11813   7.057   4.948   6.186 -0.1207 -0.3706  0.3671
  114OSM   C11S11814   7.218   4.830   6.092 -0.4492  0.1150 -0.9343
  114OSM   H11S11815   7.162   4.736   6.115 -0.5254  0.4157  0.1786
  114OSM   H11T11816   7.326   4.812   6.111 -0.7580 -0.3728  0.5049
  114OSM   C12S11817   7.198   4.853   5.944 -0.1469 -0.1969  0.2161
  114OSM   H12S11818   7.250   4.947   5.916 -1.3276  0.1885 -0.7372
  114OSM   H12T11819   7.088   4.864   5.938 -1.1138 -4.4491  4.0580
  114OSM   C13S11820   7.244   4.736   5.858 -0.2178 -0.5996  0.4568
  114OSM   H13S11821   7.198   4.640   5.891 -1.0536 -0.9489 -1.5563
  114OSM   H13T11822   7.352   4.734   5.883  0.0093  0.6293 -0.3423
  114OSM   C14S11823   7.206   4.763   5.715 -0.3318  0.7675  0.0461
  114OSM   H14S11824   7.230   4.866   5.681 -2.0698  1.3810  0.5887
  114OSM   H14T11825   7.095   4.759   5.714 -0.3579 -2.4135  2.0715
  114OSM   C15S11826   7.239   4.663   5.614 -0.0768 -0.1607 -0.4575
  114OSM   H15S11827   7.192   4.567   5.645 -0.6926 -0.0799 -1.1103
  114OSM   H15T11828   7.347   4.649   5.588  0.5579  1.0493  1.4053
  114OSM   C16S11829   7.170   4.695   5.485  0.3340 -0.1941  0.2053
  114OSM   H16S11830   7.059   4.702   5.495 -0.1032 -0.7145 -3.1968
  114OSM   H16T11831   7.184   4.610   5.415  3.2188  0.6261 -0.3351
  114OSM   C17S11832   7.232   4.810   5.406  0.2142  0.6290  0.3960
  114OSM   H17S11833   7.324   4.768   5.360  0.9121  0.9119  1.4961
  114OSM   H17T11834   7.265   4.885   5.481  2.2366 -2.1789  2.5386
  114OSM   C18S11835   7.140   4.882   5.308 -0.0041 -0.0493  0.1692
  114OSM   H18S11836   7.050   4.919   5.362  0.4456  0.2245  0.7400
  114OSM   H18T11837   7.132   4.830   5.210  0.0596  1.0062 -0.4034
  114OSM   H18U11838   7.190   4.979   5.294 -0.3957  0.0450 -0.6338
  114OSM    C1F11839   7.241   4.565   6.842  0.0684  0.0917  0.3847
  114OSM     OF11840   7.161   4.498   6.902 -0.6045  0.7439 -0.3336
  114OSM    C2F11841   7.333   4.511   6.734 -0.7147 -0.6927  0.3652
  114OSM    H2F11842   7.398   4.434   6.782  0.4743 -0.9750 -1.6067
  114OSM    H2G11843   7.405   4.589   6.702  0.1970 -1.4115  0.5983
  114OSM    C3F11844   7.243   4.443   6.630 -1.1241  0.8429 -0.3503
  114OSM    H3F11845   7.182   4.363   6.677  2.1087 -1.5738  0.0695
  114OSM    H3G11846   7.315   4.394   6.561 -0.3685  1.3189  0.0972
  114OSM    C4F11847   7.149   4.530   6.548 -0.6881 -0.2062 -0.4497
  114OSM    H4F11848   7.207   4.609   6.496  1.0166 -0.2315  1.3285
  114OSM    H4G11849   7.073   4.570   6.619  1.4800  0.3799  1.6756
  114OSM    C5F11850   7.070   4.440   6.448 -0.3535  0.0156  0.4905
  114OSM    H5F11851   6.998   4.373   6.500 -0.6479  1.6777  2.3353
  114OSM    H5G11852   7.141   4.375   6.393  1.5205  2.6965 -0.5003
  114OSM    C6F11853   6.988   4.507   6.334 -0.3672 -0.2021  0.1798
  114OSM    H6F11854   7.057   4.551   6.259 -0.3736 -0.9438 -0.2788
  114OSM    H6G11855   6.930   4.584   6.389  1.3455 -0.1913  2.0856
  114OSM    C7F11856   6.890   4.411   6.270 -0.4509 -1.6627 -0.2415
  114OSM    H7F11857   6.819   4.377   6.348  0.3986 -1.6231  0.5734
  114OSM    H7G11858   6.938   4.322   6.223 -1.4345 -1.7139 -1.1735
  114OSM    C8F11859   6.794   4.486   6.167 -0.3086  0.5207 -0.9561
  114OSM    H8F11860   6.754   4.571   6.227  2.3094  1.3528 -0.2364
  114OSM    H8G11861   6.712   4.415   6.142  0.9512 -1.2980 -0.0993
  114OSM    C9F11862   6.854   4.539   6.040  0.7289  0.5258  0.2264
  114OSM    H9F11863   6.934   4.612   6.061  0.7796  1.4417 -2.7791
  114OSM   C10F11864   6.832   4.504   5.916 -0.6646  0.1793 -0.0730
  114OSM   H10F11865   6.901   4.539   5.838  1.2598 -4.4199 -0.7659
  114OSM   C11F11866   6.745   4.394   5.873 -0.6208  0.4772 -0.5085
  114OSM   H11F11867   6.678   4.421   5.788 -0.8894  0.6045 -0.2593
  114OSM   H11G11868   6.674   4.360   5.952  1.5476 -0.2957  1.1925
  114OSM   C12F11869   6.815   4.253   5.832  0.3887  0.1653  0.2134
  114OSM   H12F11870   6.876   4.236   5.923  0.2325 -0.7642  0.1599
  114OSM   H12G11871   6.883   4.253   5.744  1.2345 -0.2077  0.8468
  114OSM   C13F11872   6.718   4.131   5.809  0.6044  0.5307  0.1965
  114OSM   H13F11873   6.679   4.091   5.905 -2.3349 -0.1732 -1.1717
  114OSM   H13G11874   6.787   4.052   5.771  0.4128 -0.3473  1.5988
  114OSM   C14F11875   6.617   4.136   5.696  0.2619  0.9365  0.4145
  114OSM   H14F11876   6.662   4.173   5.602 -0.3335  2.0223  0.5397
  114OSM   H14G11877   6.553   4.225   5.715 -0.8322  0.2926 -0.1579
  114OSM   C15F11878   6.532   4.007   5.671  1.0327  0.9700 -0.4840
  114OSM   H15F11879   6.475   3.966   5.756  0.6727  2.0024 -0.2175
  114OSM   H15G11880   6.608   3.931   5.644  0.7665  0.5321 -0.0131
  114OSM   C16F11881   6.429   4.029   5.561 -0.2727 -0.6240  0.2616
  114OSM   H16F11882   6.406   3.931   5.515  0.0905 -0.7753  0.4080
  114OSM   H16G11883   6.473   4.086   5.476  0.1220 -0.2495  0.7149
  114OSM   C17F11884   6.297   4.098   5.602 -0.4416 -0.0517  0.2963
  114OSM   H17F11885   6.241   4.124   5.509  0.2070 -0.5069 -0.2266
  114OSM   H17G11886   6.336   4.194   5.642  3.1313 -1.3293  0.1881
  114OSM   C18F11887   6.204   4.017   5.688  0.2592  0.0078  0.9150
  114OSM   H18F11888   6.205   3.912   5.651 -0.3921 -0.4684  2.1726
  114OSM   H18G11889   6.101   4.058   5.689  0.7836  1.3853  0.9144
  114OSM   H18H11890   6.250   4.006   5.789 -0.2234 -1.0241  1.0296
  115OSM      N11891   0.974   6.002   7.196  0.0946 -0.4492  0.3361
  115OSM    C1511892   1.107   5.971   7.274 -0.0724  0.9292 -0.2736
  115OSM   H15A11893   1.160   6.062   7.299  1.9385 -0.2798  0.1026
  115OSM   H15B11894   1.170   5.909   7.211  0.9818  1.9771 -0.2943
  115OSM   H15C11895   1.080   5.923   7.366  1.3406 -0.3073 -0.4611
  115OSM    C1411896   1.014   6.063   7.065  0.1277 -0.2730 -0.5001
  115OSM   H14A11897   1.075   6.149   7.087 -0.0883 -0.2918  0.1782
  115OSM   H14B11898   0.928   6.102   7.012 -0.9119 -1.0234  0.5802
  115OSM   H14C11899   1.069   5.990   7.006 -1.9418 -0.9591 -1.6898
  115OSM    C1311900   0.913   5.871   7.159 -0.1967 -0.0979 -0.6138
  115OSM   H13A11901   0.981   5.808   7.104  0.9185  1.0435 -0.5763
  115OSM   H13B11902   0.831   5.887   7.090 -0.7782  1.0117  0.2991
  115OSM   H13C11903   0.876   5.833   7.254  0.4805  2.4801  0.7670
  115OSM    C1211904   0.869   6.082   7.279  0.3290 -0.5813  0.0976
  115OSM   H12A11905   0.782   6.094   7.215  0.9977  0.3113 -0.6604
  115OSM   H12B11906   0.902   6.184   7.292 -0.0822 -0.1425 -1.9592
  115OSM    C1111907   0.806   6.024   7.405  0.0547 -0.4673  0.3203
  115OSM   H11A11908   0.776   6.104   7.477 -1.5257  0.5996 -1.4422
  115OSM   H11B11909   0.895   5.978   7.454 -1.1391 -1.8991  1.2577
  115OSM      P11910   0.563   5.959   7.336  0.1198  0.0126 -0.1364
  115OSM    O1311911   0.490   5.835   7.335  0.1195  0.4091 -0.4173
  115OSM    O1411912   0.521   6.074   7.424  0.5249  0.4572 -0.2693
  115OSM    O1111913   0.583   6.010   7.190  0.2045 -0.1489  0.1867
  115OSM    O1211914   0.710   5.925   7.380  0.1068  0.0172  0.2534
  115OSM    C1S11915   0.544   5.930   7.077 -0.2460  0.4195  0.8141
  115OSM    H1S11916   0.444   5.887   7.098 -0.8263  1.0314 -0.6173
  115OSM    H1T11917   0.619   5.849   7.060  1.1801  1.2888  2.5442
  115OSM     NF11918   0.518   5.926   6.829  0.1293 -0.5577 -0.5659
  115OSM    HNF11919   0.602   5.900   6.781 -0.6934 -0.8316 -1.9229
  115OSM    C2S11920   0.544   6.016   6.944 -0.7357  0.5608 -0.2216
  115OSM    H2S11921   0.456   6.083   6.948 -1.2899 -0.0913 -1.0797
  115OSM    C3S11922   0.674   6.103   6.937  0.1416  0.1772  1.2519
  115OSM    H3S11923   0.764   6.043   6.963 -0.2814 -0.2718  1.6984
  115OSM     O311924   0.675   6.202   7.035 -0.0735 -0.1469 -0.0837
  115OSM    HO311925   0.650   6.154   7.114  3.0740 -0.6227  0.7808
  115OSM    C4S11926   0.695   6.167   6.806 -0.0293  0.2246  0.4663
  115OSM    H4S11927   0.670   6.273   6.791  0.3581  0.4278  1.1888
  115OSM    C5S11928   0.772   6.113   6.705  0.2611  0.4943 -0.1491
  115OSM    H5S11929   0.826   6.019   6.725  0.9611  1.0275  0.5199
  115OSM    C6S11930   0.818   6.192   6.583  0.1200 -0.0159  0.1179
  115OSM    H6S11931   0.929   6.188   6.575  0.0182 -0.3061 -1.3985
  115OSM    H6T11932   0.775   6.295   6.573 -0.8116 -0.5325 -1.6976
  115OSM    C7S11933   0.764   6.116   6.460  0.2760 -0.5124 -0.1360
  115OSM    H7S11934   0.653   6.117   6.466  0.2658  0.4507 -0.3411
  115OSM    H7T11935   0.802   6.012   6.448  1.6238  0.0358 -0.8177
  115OSM    C8S11936   0.794   6.182   6.330 -0.3735 -0.6966  0.1998
  115OSM    H8S11937   0.903   6.196   6.313 -0.2060 -3.4988 -1.7887
  115OSM    H8T11938   0.746   6.282   6.328 -1.5964 -1.2729 -0.7292
  115OSM    C9S11939   0.735   6.105   6.210  0.6279  0.0668 -0.4193
  115OSM    H9S11940   0.627   6.092   6.230  0.2265  1.9510 -1.1584
  115OSM    H9T11941   0.781   6.004   6.219  1.1704  0.3767  0.5279
  115OSM   C10S11942   0.743   6.180   6.079  0.1900 -0.1344 -0.5334
  115OSM   H10S11943   0.846   6.184   6.038  0.5876  2.5484  0.5290
  115OSM   H10T11944   0.700   6.282   6.085 -1.6761 -0.8330 -1.3002
  115OSM   C11S11945   0.671   6.118   5.955  0.1996  0.3931 -1.0045
  115OSM   H11S11946   0.563   6.106   5.978  0.3927 -1.3973 -0.9048
  115OSM   H11T11947   0.698   6.010   5.952  0.2853  0.4243 -1.3325
  115OSM   C12S11948   0.700   6.194   5.827 -0.2532  0.4979  0.5054
  115OSM   H12S11949   0.807   6.177   5.802 -0.5493 -1.7121  0.5366
  115OSM   H12T11950   0.695   6.304   5.839 -1.9101  0.7351 -1.6430
  115OSM   C13S11951   0.591   6.145   5.723  0.0929 -0.1533  0.2444
  115OSM   H13S11952   0.590   6.226   5.647 -0.6193  0.7195  1.1457
  115OSM   H13T11953   0.489   6.141   5.768  0.0601 -1.7729  0.0957
  115OSM   C14S11954   0.615   6.008   5.653 -0.2631  0.2147 -0.8314
  115OSM   H14S11955   0.524   5.974   5.599  0.2612 -1.7511 -0.5642
  115OSM   H14T11956   0.634   5.928   5.728  0.1228  2.8338  2.0453
  115OSM   C15S11957   0.731   6.010   5.549 -0.1598 -0.4389 -0.1991
  115OSM   H15S11958   0.814   6.045   5.613 -0.7243  3.5351 -1.3473
  115OSM   H15T11959   0.713   6.096   5.481 -1.0515 -0.2858  0.2147
  115OSM   C16S11960   0.759   5.881   5.468  0.8784 -0.5113  0.3527
  115OSM   H16S11961   0.829   5.914   5.388 -1.2094  1.5157 -0.7691
  115OSM   H16T11962   0.666   5.848   5.418  0.5030  0.0072  0.6931
  115OSM   C17S11963   0.816   5.764   5.547  0.0948 -0.5740 -1.4264
  115OSM   H17S11964   0.730   5.730   5.609 -0.6359  0.7717 -1.6625
  115OSM   H17T11965   0.891   5.788   5.625 -0.6882  1.4842 -1.2490
  115OSM   C18S11966   0.860   5.648   5.461  0.0556  0.6276 -0.0881
  115OSM   H18S11967   0.904   5.687   5.367  0.9517 -0.6399 -0.2321
  115OSM   H18T11968   0.766   5.599   5.427  0.8922 -1.5524  0.5193
  115OSM   H18U11969   0.913   5.564   5.511 -0.7726 -0.9106 -1.6709
  115OSM    C1F11970   0.405   5.854   6.817  0.0573 -0.1063 -0.1560
  115OSM     OF11971   0.315   5.856   6.901  0.2084  0.3498 -0.3096
  115OSM    C2F11972   0.389   5.781   6.688 -0.0089 -0.0705  0.2320
  115OSM    H2F11973   0.360   5.679   6.722  0.1008 -0.5270 -0.9883
  115OSM    H2G11974   0.494   5.772   6.652  1.0555  1.2582  2.7272
  115OSM    C3F11975   0.270   5.831   6.600 -0.4587 -0.6286  0.2186
  115OSM    H3F11976   0.254   5.938   6.626  2.4294 -0.0135 -0.1988
  115OSM    H3G11977   0.177   5.774   6.623 -1.6073  0.5154 -1.3982
  115OSM    C4F11978   0.295   5.811   6.451 -0.3698  0.9958 -0.6067
  115OSM    H4F11979   0.304   5.701   6.434 -1.7600  0.6436  0.7327
  115OSM    H4G11980   0.394   5.856   6.431  0.6678 -0.8416  0.0825
  115OSM    C5F11981   0.187   5.872   6.368  0.3603  0.6815  0.7537
  115OSM    H5F11982   0.201   5.979   6.392  0.9521  0.1624  2.9000
  115OSM    H5G11983   0.080   5.845   6.383  0.0092  1.2834 -0.4893
  115OSM    C6F11984   0.211   5.836   6.217  0.4773 -0.2215  0.4937
  115OSM    H6F11985   0.189   5.729   6.198  0.1376  0.3432 -2.7659
  115OSM    H6G11986   0.319   5.843   6.197  0.2840 -0.2632 -0.6160
  115OSM    C7F11987   0.117   5.915   6.116  0.0970  0.2033  0.2685
  115OSM    H7F11988   0.147   6.022   6.129  1.1903 -0.0115 -0.2995
  115OSM    H7G11989   0.010   5.898   6.137  0.1744  0.1426  0.6180
  115OSM    C8F11990   0.134   5.876   5.966 -0.0170  0.0210 -0.4773
  115OSM    H8F11991   0.111   5.771   5.938 -2.2681  0.4641 -0.4448
  115OSM    H8G11992   0.244   5.879   5.948  0.0022 -0.8005 -0.5324
  115OSM    C9F11993   0.063   5.975   5.878 -0.4337  0.5159 -0.1122
  115OSM    H9F11994  -0.025   6.025   5.922 -1.5864 -1.4774 -0.0082
  115OSM   C10F11995   0.092   6.002   5.749 -0.6042 -0.2403 -0.0942
  115OSM   H10F11996   0.035   6.088   5.712  0.4254  2.2017  3.3934
  115OSM   C11F11997   0.191   5.930   5.657  0.2848 -0.1401 -0.1698
  115OSM   H11F11998   0.252   5.860   5.719 -0.6974 -2.2089 -1.4334
  115OSM   H11G11999   0.260   6.008   5.618 -3.2877  3.6115  0.3199
  115OSM   C12F12000   0.135   5.854   5.541 -0.4712  0.3388 -0.0703
  115OSM   H12F12001   0.075   5.766   5.573  3.2461 -2.4638 -0.1682
  115OSM   H12G12002   0.218   5.818   5.477  0.5944  1.8728  0.3798
  115OSM   C13F12003   0.053   5.930   5.442 -0.0705  0.8845  0.4131
  115OSM   H13F12004   0.108   6.021   5.409 -0.4671  1.3260  0.9485
  115OSM   H13G12005  -0.038   5.974   5.488 -0.1024  2.7246 -1.2621
  115OSM   C14F12006  -0.002   5.844   5.329 -0.2892 -0.1008  0.1905
  115OSM   H14F12007  -0.069   5.766   5.370  1.2225 -0.4577  2.1234
  115OSM   H14G12008   0.084   5.788   5.287 -0.6571 -0.8165  0.3714
  115OSM   C15F12009  -0.082   5.927   5.217 -0.4265 -0.4844  0.3697
  115OSM   H15F12010  -0.097   5.866   5.126  1.1881  0.2670 -0.4442
  115OSM   H15G12011  -0.018   6.013   5.186  0.8480 -1.4190  0.3233
  115OSM   C16F12012  -0.219   5.972   5.268  0.0252  0.4205  0.6748
  115OSM   H16F12013  -0.204   6.036   5.358 -0.1111  0.2286  0.8378
  115OSM   H16G12014  -0.270   5.878   5.299 -1.7350 -0.0338 -3.1647
  115OSM   C17F12015  -0.307   6.044   5.162  0.2413 -0.2287 -0.1254
  115OSM   H17F12016  -0.243   6.128   5.127 -0.4791  0.6190  0.5377
  115OSM   H17G12017  -0.390   6.090   5.220  0.3137 -0.3496  0.0772
  115OSM   C18F12018  -0.345   5.952   5.043  0.2714 -0.3209 -0.2462
  115OSM   H18F12019  -0.414   5.996   4.968 -0.7315 -0.7979  0.3789
  115OSM   H18G12020  -0.418   5.874   5.073  1.1036 -0.5028  1.4777
  115OSM   H18H12021  -0.258   5.913   4.986 -1.8722 -2.4241 -2.3510
  116OSM      N12022   2.037   4.000   7.419  0.3884 -0.4361  0.2557
  116OSM    C1512023   1.910   4.059   7.368 -0.0879  0.4532  0.2066
  116OSM   H15A12024   1.917   4.111   7.273 -0.7126  2.3178  1.1241
  116OSM   H15B12025   1.874   4.129   7.442 -1.7185 -0.1226  0.0034
  116OSM   H15C12026   1.836   3.981   7.357  0.5476 -0.7583  3.5759
  116OSM    C1412027   2.131   4.112   7.457 -0.1170 -0.2552  0.7045
  116OSM   H14A12028   2.209   4.077   7.524 -1.6358 -0.0584  2.6833
  116OSM   H14B12029   2.078   4.194   7.503  0.7625  1.8234 -1.7478
  116OSM   H14C12030   2.180   4.157   7.372 -0.4386 -1.4040 -0.1162
  116OSM    C1312031   2.006   3.916   7.539  0.1096  0.3962  0.2214
  116OSM   H13A12032   1.954   3.969   7.617  1.4979  1.6345  0.3401
  116OSM   H13B12033   2.102   3.889   7.581 -0.2794 -0.5036  0.5673
  116OSM   H13C12034   1.961   3.821   7.514  3.4962 -2.0031  2.3821
  116OSM    C1212035   2.109   3.916   7.316  0.1490  0.1925  0.0943
  116OSM   H12A12036   2.115   3.968   7.222  1.7390  2.0331  1.1308
  116OSM   H12B12037   2.046   3.829   7.303  0.1740 -0.2155  2.2430
  116OSM    C1112038   2.246   3.859   7.349  0.4851 -0.2116 -0.1559
  116OSM   H11A12039   2.319   3.940   7.372  0.5857  0.3815 -2.3646
  116OSM   H11B12040   2.272   3.804   7.256 -0.0511 -1.8985  0.6411
  116OSM      P12041   2.371   3.717   7.527  0.5368 -0.5422  0.2742
  116OSM    O1312042   2.425   3.824   7.619 -0.0706 -1.0494 -0.2036
  116OSM    O1412043   2.338   3.591   7.593  0.8124  0.1376 -0.1747
  116OSM    O1112044   2.465   3.681   7.404  0.1383 -0.1212 -0.8073
  116OSM    O1212045   2.244   3.766   7.458 -0.1079 -0.3229 -0.1845
  116OSM    C1S12046   2.412   3.584   7.307  0.2067 -0.2829  0.2588
  116OSM    H1S12047   2.303   3.596   7.289 -0.0116 -0.9391  1.0524
  116OSM    H1T12048   2.416   3.483   7.353  0.5079 -1.4236 -2.0831
  116OSM     NF12049   2.422   3.514   7.070 -0.2397 -0.3687  0.6092
  116OSM    HNF12050   2.488   3.453   7.027  1.3687  1.7088  0.0050
  116OSM    C2S12051   2.488   3.603   7.167  0.1151 -0.1427 -0.7621
  116OSM    H2S12052   2.463   3.709   7.149 -2.2884 -0.3502  0.8120
  116OSM    C3S12053   2.641   3.585   7.183  0.1189 -0.3984  0.0721
  116OSM    H3S12054   2.658   3.476   7.195  1.0297 -0.2918 -0.1374
  116OSM     O312055   2.705   3.646   7.297 -0.1516 -0.1311  0.4687
  116OSM    HO312056   2.626   3.656   7.350  0.6356 -0.1876  1.6719
  116OSM    C4S12057   2.718   3.632   7.061  0.2460  0.0924 -0.5025
  116OSM    H4S12058   2.762   3.546   7.010 -1.3012 -2.3399  2.0075
  116OSM    C5S12059   2.748   3.760   7.029 -0.1961 -0.2650 -0.0236
  116OSM    H5S12060   2.709   3.843   7.089 -0.7687 -0.6728  0.1815
  116OSM    C6S12061   2.838   3.808   6.920  0.2835  0.1777  0.2283
  116OSM    H6S12062   2.929   3.850   6.967 -0.8631  2.8790  0.2101
  116OSM    H6T12063   2.783   3.888   6.867  0.9808  0.6067  0.1419
  116OSM    C7S12064   2.889   3.700   6.818  0.6435  0.0818 -0.4192
  116OSM    H7S12065   2.939   3.614   6.866 -0.3722  0.6575  1.7909
  116OSM    H7T12066   2.967   3.755   6.762  1.3912 -1.3849 -0.8354
  116OSM    C8S12067   2.772   3.648   6.723 -0.4768  0.5764 -0.6433
  116OSM    H8S12068   2.714   3.732   6.678 -3.4752 -1.5427 -1.0454
  116OSM    H8T12069   2.697   3.590   6.781  0.3745  2.7750  3.0731
  116OSM    C9S12070   2.826   3.553   6.614  0.6952 -0.4666  0.7652
  116OSM    H9S12071   2.861   3.455   6.654  1.1088 -0.6252  0.0478
  116OSM    H9T12072   2.914   3.600   6.564 -0.7929 -1.0227 -2.6406
  116OSM   C10S12073   2.719   3.541   6.504 -0.1535  0.1910  0.4930
  116OSM   H10S12074   2.700   3.644   6.466 -3.0230 -1.0279 -1.8569
  116OSM   H10T12075   2.623   3.501   6.545  0.6719 -1.0556  1.2589
  116OSM   C11S12076   2.761   3.457   6.386  0.2263  0.4027  0.3552
  116OSM   H11S12077   2.788   3.355   6.419  2.7572  0.7784 -0.4121
  116OSM   H11T12078   2.861   3.494   6.355  0.0566 -0.7735 -1.7688
  116OSM   C12S12079   2.658   3.448   6.266 -0.2315  0.2974 -0.4881
  116OSM   H12S12080   2.624   3.553   6.254 -1.2886  0.3787  2.4301
  116OSM   H12T12081   2.576   3.386   6.306 -0.3374  1.2067  0.7484
  116OSM   C13S12082   2.732   3.389   6.147  0.9768 -0.2844  0.3867
  116OSM   H13S12083   2.752   3.280   6.146 -0.6475 -0.6459 -2.3818
  116OSM   H13T12084   2.830   3.441   6.145 -0.4510  2.6044 -1.5080
  116OSM   C14S12085   2.660   3.409   6.013  0.3280  0.1543  0.3640
  116OSM   H14S12086   2.623   3.512   5.997  0.2755  0.1316  0.3402
  116OSM   H14T12087   2.564   3.353   6.011 -0.5635  1.5532 -2.8120
  116OSM   C15S12088   2.754   3.361   5.903 -0.3372 -0.4163 -0.2861
  116OSM   H15S12089   2.795   3.266   5.944 -0.5710  0.8340  3.0697
  116OSM   H15T12090   2.842   3.428   5.891  0.6844 -1.9416 -2.0375
  116OSM   C16S12091   2.694   3.341   5.763  0.5327 -0.1894  0.5411
  116OSM   H16S12092   2.783   3.325   5.699 -0.7726  0.6188 -1.5600
  116OSM   H16T12093   2.640   3.434   5.736  0.3778  0.3379  2.5162
  116OSM   C17S12094   2.596   3.225   5.761  0.4153  0.1857 -0.1612
  116OSM   H17S12095   2.552   3.212   5.660 -0.7555  0.4653  0.3016
  116OSM   H17T12096   2.510   3.243   5.828  0.4738 -2.0475  0.6082
  116OSM   C18S12097   2.644   3.090   5.807  0.6995 -0.2819  0.7786
  116OSM   H18S12098   2.709   3.089   5.897 -0.4899 -1.7942  1.6770
  116OSM   H18T12099   2.705   3.033   5.734  0.9132  0.5804  0.2600
  116OSM   H18U12100   2.556   3.024   5.823  1.7970 -2.9088 -2.8938
  116OSM    C1F12101   2.300   3.522   7.022 -0.1153 -0.3106 -0.2272
  116OSM     OF12102   2.232   3.618   7.063  0.2595  0.5900 -0.0560
  116OSM    C2F12103   2.262   3.427   6.902  0.0687 -0.1748 -0.0109
  116OSM    H2F12104   2.271   3.320   6.932 -0.3443  0.0513  0.9511
  116OSM    H2G12105   2.336   3.459   6.825  2.6578  1.2696  2.8688
  116OSM    C3F12106   2.123   3.461   6.846  0.6650  0.3795 -1.0314
  116OSM    H3F12107   2.097   3.569   6.842 -2.1835 -0.2670 -2.3455
  116OSM    H3G12108   2.044   3.419   6.911 -0.0984  1.5898 -1.1466
  116OSM    C4F12109   2.109   3.407   6.701  0.2905 -0.0568  0.0748
  116OSM    H4F12110   2.104   3.296   6.701 -0.2122 -0.0374  0.3208
  116OSM    H4G12111   2.185   3.458   6.637 -1.0513  1.7970 -0.1324
  116OSM    C5F12112   1.971   3.444   6.630  0.0987  0.4060 -0.7918
  116OSM    H5F12113   1.957   3.554   6.636 -1.6004  0.1955 -0.4456
  116OSM    H5G12114   1.890   3.391   6.685  1.8020 -0.0630  1.4160
  116OSM    C6F12115   1.975   3.408   6.481  0.4653 -0.1542  0.3830
  116OSM    H6F12116   1.968   3.298   6.464 -0.7920 -0.0464  0.0917
  116OSM    H6G12117   2.076   3.435   6.442  0.4810  1.0041  1.1861
  116OSM    C7F12118   1.866   3.484   6.402 -0.5884 -0.5886  0.3420
  116OSM    H7F12119   1.882   3.591   6.425  1.3174  0.3022 -4.1023
  116OSM    H7G12120   1.767   3.441   6.430 -0.3104 -0.4891  1.5447
  116OSM    C8F12121   1.879   3.484   6.246  0.3878 -0.5034  0.0052
  116OSM    H8F12122   1.980   3.523   6.221  0.3297 -1.0398 -1.1325
  116OSM    H8G12123   1.798   3.541   6.197  1.6314  3.0040  1.7264
  116OSM    C9F12124   1.876   3.340   6.191  0.3177  0.3562 -0.0861
  116OSM    H9F12125   1.881   3.250   6.254 -2.9742 -1.3496 -1.9843
  116OSM   C10F12126   1.848   3.310   6.064  0.5643 -0.6439  0.1160
  116OSM   H10F12127   1.846   3.207   6.024 -2.0138 -0.2615 -0.9254
  116OSM   C11F12128   1.809   3.406   5.955  0.0951 -0.0610 -0.1165
  116OSM   H11F12129   1.781   3.505   5.996 -0.5047 -0.2350 -0.1029
  116OSM   H11G12130   1.718   3.373   5.901 -0.4042  3.5151 -1.7698
  116OSM   C12F12131   1.930   3.434   5.865 -0.2870 -0.1536 -1.1438
  116OSM   H12F12132   1.959   3.342   5.812  1.7794  1.3067 -2.6977
  116OSM   H12G12133   2.011   3.472   5.931  1.0548 -3.3316 -0.7931
  116OSM   C13F12134   1.897   3.541   5.761  0.0842  0.8464 -0.4764
  116OSM   H13F12135   1.984   3.599   5.722  2.1536 -0.3476  2.0344
  116OSM   H13G12136   1.840   3.624   5.808 -0.5547 -1.0439  2.4033
  116OSM   C14F12137   1.820   3.474   5.642 -0.0090  0.2089  0.8394
  116OSM   H14F12138   1.741   3.408   5.684  1.2970 -2.8249 -1.1027
  116OSM   H14G12139   1.896   3.406   5.598  0.1390  1.3104 -0.6626
  116OSM   C15F12140   1.762   3.574   5.542  0.4192  0.5011 -0.3533
  116OSM   H15F12141   1.822   3.667   5.532 -1.4138  1.6175 -1.4114
  116OSM   H15G12142   1.664   3.608   5.581  1.0407  0.9626  0.8618
  116OSM   C16F12143   1.767   3.514   5.400  0.2243  0.0129 -0.8408
  116OSM   H16F12144   1.725   3.411   5.408  0.6587 -0.0824  0.4954
  116OSM   H16G12145   1.874   3.493   5.381  0.2399 -0.3576 -0.3886
  116OSM   C17F12146   1.692   3.597   5.304  0.4336 -0.0882  0.0507
  116OSM   H17F12147   1.717   3.566   5.201 -1.6824  1.2381 -0.9223
  116OSM   H17G12148   1.721   3.703   5.318  0.6707  0.3234 -3.0459
  116OSM   C18F12149   1.542   3.572   5.315  0.3003 -0.9656  0.5468
  116OSM   H18F12150   1.512   3.573   5.422 -0.0780 -2.3241  0.4742
  116OSM   H18G12151   1.532   3.469   5.275 -0.3202 -1.6789  2.4346
  116OSM   H18H12152   1.469   3.632   5.257  0.4686 -1.3439 -0.0718
  117OSM      N12153   1.099   0.308   7.537  0.1541 -0.6389  0.2260
  117OSM    C1512154   1.115   0.165   7.514  0.0542  0.2084 -0.3439
  117OSM   H15A12155   1.033   0.121   7.569 -0.8810  0.6126 -1.3757
  117OSM   H15B12156   1.206   0.129   7.560 -0.6146 -0.0971  0.7863
  117OSM   H15C12157   1.119   0.132   7.412  2.3541 -0.1511 -0.1971
  117OSM    C1412158   1.203   0.386   7.465 -0.4170 -0.1030  0.0673
  117OSM   H14A12159   1.292   0.352   7.515  0.5308 -1.8636 -2.6233
  117OSM   H14B12160   1.187   0.492   7.483  0.1870  0.0564 -0.2929
  117OSM   H14C12161   1.212   0.378   7.358 -2.9860 -1.3248 -0.1356
  117OSM    C1312162   0.969   0.343   7.481  0.0356  0.3585  0.4394
  117OSM   H13A12163   0.955   0.450   7.471  0.9623  0.4578  0.0773
  117OSM   H13B12164   0.888   0.319   7.548 -2.9140  3.0466 -1.8761
  117OSM   H13C12165   0.952   0.297   7.385 -0.2619  3.2620 -1.0169
  117OSM    C1212166   1.106   0.334   7.683 -0.0396 -0.3652 -0.8005
  117OSM   H12A12167   1.024   0.279   7.727  1.6157 -2.0312  0.3669
  117OSM   H12B12168   1.103   0.441   7.696 -0.7258 -0.5672  0.9150
  117OSM    C1112169   1.230   0.277   7.765 -0.0801 -0.0654  0.2612
  117OSM   H11A12170   1.210   0.169   7.780  0.0605 -0.3161 -1.2365
  117OSM   H11B12171   1.220   0.327   7.864 -2.4255  1.2889 -0.5720
  117OSM      P12172   1.458   0.181   7.690  0.0506 -0.0359  0.0112
  117OSM    O1312173   1.548   0.174   7.810  0.3553 -0.5796  0.1318
  117OSM    O1412174   1.400   0.054   7.647 -0.4329  0.6819  0.2053
  117OSM    O1112175   1.558   0.236   7.584  0.0513  0.7182 -0.3356
  117OSM    O1212176   1.352   0.297   7.700 -0.2633 -0.4411 -0.2731
  117OSM    C1S12177   1.521   0.210   7.446  0.0214  0.0405 -0.5054
  117OSM    H1S12178   1.435   0.278   7.430  0.1678  0.3163 -0.1369
  117OSM    H1T12179   1.510   0.105   7.413  1.7587  0.0276 -1.1535
  117OSM     NF12180   1.592   0.265   7.222  0.1775 -0.2786  0.4179
  117OSM    HNF12181   1.627   0.191   7.166 -1.8039 -0.6054 -0.5111
  117OSM    C2S12182   1.634   0.268   7.359 -0.0718  0.8607  0.9895
  117OSM    H2S12183   1.643   0.376   7.387 -0.8052  0.7877  1.5498
  117OSM    C3S12184   1.761   0.190   7.393  0.9351  0.1729  0.6895
  117OSM    H3S12185   1.739   0.082   7.388  1.8084 -0.0787  1.9076
  117OSM     O312186   1.823   0.205   7.520  0.2677  0.3312 -0.7377
  117OSM    HO312187   1.748   0.236   7.571 -0.1689  0.6554 -1.5541
  117OSM    C4S12188   1.869   0.227   7.293 -0.6117  0.0556  0.0482
  117OSM    H4S12189   1.954   0.289   7.326 -0.2067 -0.5788  0.2191
  117OSM    C5S12190   1.885   0.166   7.174  0.2145  0.6688  0.7419
  117OSM    H5S12191   1.833   0.071   7.152  1.2231  0.5238 -1.2630
  117OSM    C6S12192   1.991   0.191   7.074  0.2815 -0.3703 -0.1539
  117OSM    H6S12193   1.938   0.214   6.979 -0.6209 -0.3127  0.3563
  117OSM    H6T12194   2.049   0.099   7.050  0.2902 -1.0378  2.2355
  117OSM    C7S12195   2.088   0.316   7.099  0.0505  0.5200  0.5922
  117OSM    H7S12196   2.146   0.286   7.189  0.1392 -0.3538  0.2557
  117OSM    H7T12197   2.047   0.417   7.119  1.2241  1.3404 -0.9628
  117OSM    C8S12198   2.191   0.332   6.991 -0.2993 -0.0807 -0.2275
  117OSM    H8S12199   2.207   0.234   6.942 -0.3717  0.0698 -0.5537
  117OSM    H8T12200   2.280   0.379   7.039 -0.5003 -1.6166  1.7889
  117OSM    C9S12201   2.126   0.413   6.882 -0.0769 -0.1939 -0.0901
  117OSM    H9S12202   2.094   0.509   6.927  0.6935 -0.9979  2.3042
  117OSM    H9T12203   2.031   0.373   6.839  0.6427  0.0717 -2.0443
  117OSM   C10S12204   2.224   0.440   6.772 -0.3417  0.2726 -0.0147
  117OSM   H10S12205   2.304   0.491   6.828  2.0118 -1.8639 -1.2370
  117OSM   H10T12206   2.172   0.502   6.695 -1.1696  1.2995  1.3348
  117OSM   C11S12207   2.279   0.319   6.695  0.6564 -0.0531 -0.7604
  117OSM   H11S12208   2.189   0.272   6.647  0.1604  0.3407 -0.2206
  117OSM   H11T12209   2.315   0.257   6.780 -0.5899  2.2554  1.5820
  117OSM   C12S12210   2.377   0.350   6.585 -0.2401 -0.4411  0.5504
  117OSM   H12S12211   2.444   0.262   6.571 -0.4375 -0.7103  1.2456
  117OSM   H12T12212   2.450   0.430   6.609 -2.0658  1.5171 -0.0767
  117OSM   C13S12213   2.306   0.393   6.455 -0.0213  0.3858  0.7298
  117OSM   H13S12214   2.278   0.500   6.450 -1.8536  0.0449  2.5768
  117OSM   H13T12215   2.212   0.335   6.447 -0.9296  2.0477 -2.2504
  117OSM   C14S12216   2.389   0.341   6.331 -0.0456  0.0708 -0.1586
  117OSM   H14S12217   2.423   0.236   6.347  3.5223  1.3946  1.9895
  117OSM   H14T12218   2.477   0.409   6.332 -0.7226  0.9617  1.2907
  117OSM   C15S12219   2.301   0.352   6.204  0.0041 -0.9373  0.7513
  117OSM   H15S12220   2.283   0.458   6.174  0.7454 -1.3249 -1.2130
  117OSM   H15T12221   2.203   0.304   6.223  0.7735 -3.2754 -0.7541
  117OSM   C16S12222   2.357   0.286   6.075 -0.5144 -0.0218 -0.3059
  117OSM   H16S12223   2.274   0.293   6.002 -2.6361 -1.3479  1.8399
  117OSM   H16T12224   2.383   0.178   6.087  1.7223  0.5678  0.8447
  117OSM   C17S12225   2.476   0.355   6.010 -0.1084  0.0178 -0.3009
  117OSM   H17S12226   2.470   0.345   5.899 -0.7124  3.2645 -0.6547
  117OSM   H17T12227   2.571   0.308   6.042  1.5044  1.7687 -2.2207
  117OSM   C18S12228   2.483   0.507   6.032 -0.3757 -0.7604 -0.4222
  117OSM   H18S12229   2.559   0.554   5.966 -0.0690  0.3320  0.6659
  117OSM   H18T12230   2.499   0.540   6.137 -0.7518 -0.6086 -0.4113
  117OSM   H18U12231   2.396   0.561   5.989 -0.2973 -1.3735 -1.3751
  117OSM    C1F12232   1.497   0.343   7.171 -0.3963 -0.8765  0.0111
  117OSM     OF12233   1.473   0.448   7.231  0.4946 -0.5919 -0.3949
  117OSM    C2F12234   1.434   0.315   7.039  0.2142  0.6209  0.7863
  117OSM    H2F12235   1.386   0.215   7.034 -0.0302  0.7989 -1.2094
  117OSM    H2G12236   1.520   0.324   6.969 -0.8060  0.3203 -0.5557
  117OSM    C3F12237   1.317   0.417   7.007  0.4609  0.0612 -0.2050
  117OSM    H3F12238   1.361   0.519   7.009  0.3396  0.1148 -0.2580
  117OSM    H3G12239   1.236   0.390   7.078 -0.2502  0.8695 -0.6813
  117OSM    C4F12240   1.250   0.394   6.869  1.4581  0.4900  0.0563
  117OSM    H4F12241   1.159   0.456   6.857  1.9856  1.7096  1.8775
  117OSM    H4G12242   1.226   0.285   6.865  0.4151  0.7354 -0.8372
  117OSM    C5F12243   1.329   0.431   6.747  0.3798  0.7379 -0.2832
  117OSM    H5F12244   1.420   0.367   6.747 -0.3461 -0.3296  0.7967
  117OSM    H5G12245   1.365   0.534   6.768 -1.1284  0.8261  2.3126
  117OSM    C6F12246   1.260   0.426   6.609 -0.1813 -0.5517  0.0857
  117OSM    H6F12247   1.169   0.488   6.617  1.5715  1.9678  2.2929
  117OSM    H6G12248   1.229   0.325   6.575 -0.8257 -0.9544  1.7828
  117OSM    C7F12249   1.351   0.475   6.499 -0.2604 -0.4021  0.5413
  117OSM    H7F12250   1.445   0.415   6.494  0.3103  0.5140 -0.1549
  117OSM    H7G12251   1.388   0.576   6.524 -0.9166  0.2260 -0.8805
  117OSM    C8F12252   1.273   0.476   6.372  0.1226 -0.3441 -0.4481
  117OSM    H8F12253   1.173   0.519   6.392  0.2788  1.0290 -2.4111
  117OSM    H8G12254   1.253   0.371   6.341 -2.8122 -0.4951  1.5320
  117OSM    C9F12255   1.335   0.570   6.264 -0.4263  0.8352  0.8170
  117OSM    H9F12256   1.335   0.677   6.288 -2.7098  1.0956 -0.1756
  117OSM   C10F12257   1.389   0.534   6.146  0.5572  0.1094  0.5925
  117OSM   H10F12258   1.440   0.606   6.082  0.3307 -1.1974 -1.1344
  117OSM   C11F12259   1.391   0.396   6.083  0.0053 -0.4375  0.0159
  117OSM   H11F12260   1.346   0.315   6.144 -0.2703 -0.5183 -0.2913
  117OSM   H11G12261   1.497   0.368   6.062 -0.2200  0.8167 -3.5738
  117OSM   C12F12262   1.310   0.376   5.954  0.7779 -0.4930 -0.0322
  117OSM   H12F12263   1.348   0.435   5.868  1.1246  0.1284  0.5369
  117OSM   H12G12264   1.203   0.404   5.967  1.4912  1.5751  2.0097
  117OSM   C13F12265   1.322   0.232   5.908 -0.1298  0.0448 -0.1175
  117OSM   H13F12266   1.223   0.186   5.889  0.5499 -1.3242 -0.4068
  117OSM   H13G12267   1.383   0.170   5.977  1.3896 -1.6824 -2.8530
  117OSM   C14F12268   1.397   0.227   5.772 -0.1930  0.0780  0.2484
  117OSM   H14F12269   1.497   0.275   5.783  0.0964 -0.6083  0.7094
  117OSM   H14G12270   1.341   0.291   5.701  0.1789  0.7415  0.5448
  117OSM   C15F12271   1.416   0.085   5.724  0.2437  0.3692  0.2455
  117OSM   H15F12272   1.315   0.045   5.698  0.1840 -1.4209  2.8283
  117OSM   H15G12273   1.454   0.033   5.814 -1.2039  0.0665  0.7172
  117OSM   C16F12274   1.518   0.075   5.609  0.0534 -0.0090  1.2102
  117OSM   H16F12275   1.501  -0.026   5.565  1.3049  0.7098 -1.0477
  117OSM   H16G12276   1.625   0.088   5.638  0.7299 -1.7560 -0.3227
  117OSM   C17F12277   1.501   0.184   5.506 -0.6111 -0.5341 -0.0090
  117OSM   H17F12278   1.528   0.282   5.549 -0.9071  1.2543 -3.4739
  117OSM   H17G12279   1.394   0.180   5.474 -0.2792  1.3209 -1.5067
  117OSM   C18F12280   1.576   0.161   5.370  0.5172 -0.2801 -0.1322
  117OSM   H18F12281   1.556   0.245   5.300  0.1408  0.0390  0.3553
  117OSM   H18G12282   1.546   0.066   5.321 -0.8713  0.2682 -0.3867
  117OSM   H18H12283   1.687   0.151   5.377  0.6605  0.7139 -0.7981
  118OSM      N12284   0.050   6.894   7.779 -0.1140 -0.0704  0.0277
  118OSM    C1512285  -0.030   6.940   7.893  0.1279  0.7996  0.2594
  118OSM   H15A12286  -0.022   6.855   7.959  1.3830 -1.5308 -2.6933
  118OSM   H15B12287  -0.131   6.961   7.861  0.8202  0.2501 -2.5755
  118OSM   H15C12288   0.007   7.026   7.946 -0.8287 -0.7840  3.7828
  118OSM    C1412289   0.191   6.862   7.821 -0.7176  0.4791 -0.0057
  118OSM   H14A12290   0.189   6.780   7.891  1.0964 -1.8466 -2.4534
  118OSM   H14B12291   0.251   6.947   7.852  0.8138 -1.2688  2.1245
  118OSM   H14C12292   0.242   6.831   7.731 -0.4682  0.4031  0.1607
  118OSM    C1312293  -0.020   6.779   7.722  0.1027 -0.4863 -0.6794
  118OSM   H13A12294  -0.024   6.700   7.796  0.0663  0.6770  0.5911
  118OSM   H13B12295   0.037   6.752   7.634 -0.5251 -1.6112 -0.7592
  118OSM   H13C12296  -0.123   6.798   7.698  0.1843 -1.4552 -1.9032
  118OSM    C1212297   0.053   6.996   7.668 -0.0786 -0.0898  0.8913
  118OSM   H12A12298   0.116   7.075   7.705  2.2191 -1.2479 -0.3742
  118OSM   H12B12299  -0.051   7.025   7.661 -1.3885 -4.1551  1.0574
  118OSM    C1112300   0.101   6.964   7.520  0.4213  0.3560 -0.1894
  118OSM   H11A12301   0.109   7.060   7.464  1.8048  0.6656  0.4779
  118OSM   H11B12302   0.030   6.901   7.463 -1.0347  0.2934  1.6078
  118OSM      P12303   0.358   6.981   7.522 -0.0691  0.1693  0.0941
  118OSM    O1312304   0.346   7.115   7.565  0.3447  0.4276 -0.0222
  118OSM    O1412305   0.467   6.901   7.588  0.3881 -0.1759  0.1455
  118OSM    O1112306   0.393   7.004   7.362  0.0811  0.3208 -0.5903
  118OSM    O1212307   0.227   6.901   7.535  0.9597 -0.3554  0.1052
  118OSM    C1S12308   0.407   6.887   7.278 -0.1352 -0.3912 -0.3947
  118OSM    H1S12309   0.312   6.839   7.246 -1.9809  2.2027  0.8044
  118OSM    H1T12310   0.454   6.800   7.329  1.3138  1.0528  0.8562
  118OSM     NF12311   0.427   6.835   7.034  0.3898  0.1491 -0.1738
  118OSM    HNF12312   0.492   6.772   6.992 -0.4703 -0.3543 -0.8044
  118OSM    C2S12313   0.489   6.923   7.144 -0.2126  0.3592  0.0666
  118OSM    H2S12314   0.465   7.030   7.127  1.3617  0.6279 -0.6607
  118OSM    C3S12315   0.647   6.919   7.163  0.3679  0.0520  0.0234
  118OSM    H3S12316   0.682   6.817   7.189  2.1142  0.2080 -1.4724
  118OSM     O312317   0.690   7.002   7.272  0.5421  0.5237  0.3345
  118OSM    HO312318   0.607   7.004   7.321 -0.5159 -0.0686 -1.3631
  118OSM    C4S12319   0.725   6.964   7.050  0.1087 -0.6712 -0.0955
  118OSM    H4S12320   0.699   7.056   6.996  1.3382 -1.6053 -2.4289
  118OSM    C5S12321   0.827   6.889   6.998  0.2250 -0.5723 -0.4427
  118OSM    H5S12322   0.850   6.788   7.035 -1.7384 -0.5783  0.9559
  118OSM    C6S12323   0.905   6.922   6.868  0.3012  0.2387 -0.3260
  118OSM    H6S12324   0.856   6.993   6.798 -1.0289  1.8679  2.1508
  118OSM    H6T12325   0.928   6.823   6.823 -0.8834 -0.7459  1.1344
  118OSM    C7S12326   1.043   6.988   6.885  0.4471  1.0091 -0.3209
  118OSM    H7S12327   1.111   6.936   6.956  0.7933  0.0148 -1.3640
  118OSM    H7T12328   1.025   7.084   6.938 -2.8265  0.4966 -0.2931
  118OSM    C8S12329   1.115   7.025   6.751 -0.0018 -0.6108  0.4666
  118OSM    H8S12330   1.217   7.058   6.781  0.0676 -1.3157  1.0537
  118OSM    H8T12331   1.056   7.110   6.712  0.2569 -0.7008 -0.1258
  118OSM    C9S12332   1.129   6.913   6.652  0.6486 -0.2807 -1.2193
  118OSM    H9S12333   1.035   6.854   6.648 -0.8675  1.9318  0.0779
  118OSM    H9T12334   1.209   6.837   6.670 -1.0647 -1.5623  1.6123
  118OSM   C10S12335   1.156   6.982   6.518  0.3359 -0.4593 -0.6661
  118OSM   H10S12336   1.251   7.040   6.514 -0.9107  2.0854  2.4233
  118OSM   H10T12337   1.086   7.067   6.502  1.9138  0.8382 -0.9023
  118OSM   C11S12338   1.170   6.883   6.401 -0.3958  0.6753 -0.1647
  118OSM   H11S12339   1.081   6.817   6.400 -1.2296  1.7743 -0.9477
  118OSM   H11T12340   1.259   6.818   6.413 -0.7063 -0.0490 -1.5725
  118OSM   C12S12341   1.175   6.965   6.266  0.4423 -0.3427 -1.5133
  118OSM   H12S12342   1.265   7.030   6.268  0.7317 -0.7692 -0.1417
  118OSM   H12T12343   1.085   7.029   6.261 -0.0301 -0.9067 -0.5267
  118OSM   C13S12344   1.181   6.869   6.151  0.1436 -0.6467  0.6010
  118OSM   H13S12345   1.095   6.800   6.154  0.0939 -0.7257 -1.4211
  118OSM   H13T12346   1.277   6.813   6.152  0.1852 -0.5728  1.2723
  118OSM   C14S12347   1.190   6.951   6.020  0.5848  0.7896  0.9930
  118OSM   H14S12348   1.289   7.002   6.016  0.9382  0.0336 -0.7871
  118OSM   H14T12349   1.102   7.018   6.023 -0.8635 -1.0062  0.7229
  118OSM   C15S12350   1.184   6.869   5.889 -0.7180 -0.1110 -0.0170
  118OSM   H15S12351   1.194   6.928   5.795  2.2192 -1.5339 -0.7217
  118OSM   H15T12352   1.085   6.820   5.874  0.2602 -2.5069  0.7411
  118OSM   C16S12353   1.290   6.757   5.872  0.1543  0.1150  0.6944
  118OSM   H16S12354   1.257   6.663   5.921 -1.3418  1.3262  2.1617
  118OSM   H16T12355   1.381   6.790   5.927 -0.0893 -0.1145  1.2469
  118OSM   C17S12356   1.317   6.715   5.726 -0.0864 -0.5748 -0.0220
  118OSM   H17S12357   1.350   6.807   5.673 -2.0108 -0.0441 -0.3884
  118OSM   H17T12358   1.225   6.679   5.674  0.8928 -1.4282 -1.2391
  118OSM   C18S12359   1.433   6.614   5.711 -0.3631 -0.6091  0.2542
  118OSM   H18S12360   1.524   6.663   5.750  0.4051 -0.0294 -2.1194
  118OSM   H18T12361   1.454   6.589   5.605  4.1144  1.6072  0.3986
  118OSM   H18U12362   1.411   6.521   5.769 -0.0727 -0.0457  1.2939
  118OSM    C1F12363   0.309   6.854   6.975  0.5470 -0.3422 -0.9937
  118OSM     OF12364   0.248   6.958   6.998 -0.0945 -0.2789  0.7443
  118OSM    C2F12365   0.264   6.755   6.868 -0.1616  0.0654 -0.2988
  118OSM    H2F12366   0.317   6.660   6.888  2.6814  0.9841 -2.7886
  118OSM    H2G12367   0.291   6.782   6.764 -1.2682  0.2004 -0.5640
  118OSM    C3F12368   0.116   6.718   6.868  0.2171 -0.8049 -0.4887
  118OSM    H3F12369   0.057   6.812   6.868  0.5933 -0.5650  0.1984
  118OSM    H3G12370   0.085   6.674   6.965 -0.3003  2.6405  1.0495
  118OSM    C4F12371   0.073   6.634   6.744  0.0414 -0.2989 -0.3887
  118OSM    H4F12372   0.156   6.565   6.717  2.6621  2.6823 -0.5633
  118OSM    H4G12373   0.054   6.692   6.651  1.5516  0.9901  0.0608
  118OSM    C5F12374  -0.055   6.564   6.767 -0.0762 -1.0349 -1.4282
  118OSM    H5F12375  -0.132   6.634   6.807 -1.2698 -3.1415  0.1204
  118OSM    H5G12376  -0.037   6.489   6.846 -1.1054  0.2155  0.0681
  118OSM    C6F12377  -0.112   6.504   6.640 -0.7967  0.0605  0.0021
  118OSM    H6F12378  -0.078   6.400   6.622 -1.4336 -1.3734  5.3441
  118OSM    H6G12379  -0.098   6.561   6.546 -0.9450 -2.2678 -1.4859
  118OSM    C7F12380  -0.261   6.487   6.651  1.0994 -0.1120 -0.4353
  118OSM    H7F12381  -0.291   6.463   6.755  2.4878  0.5156  0.1272
  118OSM    H7G12382  -0.295   6.407   6.582  1.5537 -2.1556  1.5916
  118OSM    C8F12383  -0.348   6.611   6.611  0.8882 -0.9137  0.7890
  118OSM    H8F12384  -0.343   6.667   6.708  2.7269 -0.2645  0.3510
  118OSM    H8G12385  -0.456   6.591   6.593  0.6549  1.5190 -0.9299
  118OSM    C9F12386  -0.296   6.695   6.495 -0.0659  0.1131  0.7842
  118OSM    H9F12387  -0.228   6.776   6.526  0.8126 -0.6681  0.9332
  118OSM   C10F12388  -0.324   6.683   6.362 -0.7110 -0.3431 -0.4745
  118OSM   H10F12389  -0.283   6.758   6.293 -0.1939  0.3868  0.5879
  118OSM   C11F12390  -0.418   6.582   6.305 -0.8204  0.0616  0.3490
  118OSM   H11F12391  -0.505   6.559   6.370 -2.1581 -3.1926 -2.3088
  118OSM   H11G12392  -0.366   6.484   6.304 -3.0657 -1.1702  0.3144
  118OSM   C12F12393  -0.464   6.617   6.160 -0.2406 -0.1506 -0.5321
  118OSM   H12F12394  -0.518   6.526   6.128  3.8867 -2.9186 -0.4118
  118OSM   H12G12395  -0.371   6.633   6.102  0.1585  0.4859  0.2487
  118OSM   C13F12396  -0.547   6.751   6.136  0.5052 -0.2375 -0.4805
  118OSM   H13F12397  -0.475   6.827   6.174 -0.2388 -0.6398  1.8762
  118OSM   H13G12398  -0.644   6.747   6.189  1.0717 -1.7592  0.5213
  118OSM   C14F12399  -0.586   6.787   5.993  0.0189  0.0850 -0.3808
  118OSM   H14F12400  -0.516   6.854   5.939 -1.6360  3.6295  1.5676
  118OSM   H14G12401  -0.683   6.840   5.985 -0.7519 -1.2210 -0.0892
  118OSM   C15F12402  -0.592   6.658   5.904 -0.4392 -0.4245  1.4165
  118OSM   H15F12403  -0.657   6.585   5.958 -0.8161 -0.5659  0.7767
  118OSM   H15G12404  -0.491   6.613   5.896 -1.0886 -1.6355 -0.6628
  118OSM   C16F12405  -0.648   6.669   5.759  0.3091  0.0115  0.3641
  118OSM   H16F12406  -0.746   6.721   5.755  0.4228  0.2213  0.2714
  118OSM   H16G12407  -0.673   6.569   5.718 -1.5364  0.6328 -0.1480
  118OSM   C17F12408  -0.550   6.748   5.670  0.1487 -0.2483 -0.8599
  118OSM   H17F12409  -0.448   6.705   5.679  0.4607  0.9244  2.6065
  118OSM   H17G12410  -0.545   6.849   5.715 -1.1985  1.3976 -4.0771
  118OSM   C18F12411  -0.580   6.771   5.518  0.2090 -0.1509  0.0428
  118OSM   H18F12412  -0.560   6.690   5.446 -0.4770  0.6471 -1.0786
  118OSM   H18G12413  -0.536   6.866   5.482 -0.2081 -0.5853 -1.6891
  118OSM   H18H12414  -0.689   6.790   5.508  0.0271 -0.1713  1.6328
  119OSM      N12415   4.898   3.694   7.522  0.3632  0.5876 -0.2636
  119OSM    C1512416   4.954   3.592   7.616 -0.0710  0.5249 -0.1484
  119OSM   H15A12417   4.879   3.525   7.654  0.7831 -0.2058  0.3007
  119OSM   H15B12418   5.010   3.636   7.697 -0.5610 -0.5538  0.7921
  119OSM   H15C12419   5.025   3.530   7.563 -0.1107  0.0497  0.3448
  119OSM    C1412420   4.808   3.785   7.584 -0.3888  0.5161  0.4827
  119OSM   H14A12421   4.764   3.847   7.508  1.4181 -0.8319 -1.7806
  119OSM   H14B12422   4.857   3.851   7.654 -1.4696  1.8830  0.0071
  119OSM   H14C12423   4.728   3.729   7.631  0.9211 -1.9242 -0.0283
  119OSM    C1312424   5.016   3.783   7.480  0.4422  0.6172 -0.1930
  119OSM   H13A12425   5.092   3.735   7.420  0.9196  0.3927  0.5699
  119OSM   H13B12426   5.073   3.820   7.563  1.8638  2.4445 -1.8910
  119OSM   H13C12427   4.973   3.865   7.425 -3.4566 -0.5570  0.7404
  119OSM    C1212428   4.837   3.635   7.397 -0.3727 -0.2125  0.6806
  119OSM   H12A12429   4.749   3.576   7.417  0.0669 -0.9890  0.3589
  119OSM   H12B12430   4.903   3.565   7.349  0.6127  0.9829  0.2300
  119OSM    C1112431   4.801   3.745   7.286  0.0329 -0.2002  0.0246
  119OSM   H11A12432   4.775   3.685   7.196  0.0404  0.3376 -0.3393
  119OSM   H11B12433   4.879   3.818   7.255 -0.0665  0.0362  0.3312
  119OSM      P12434   4.540   3.758   7.323  0.6462 -0.2393 -0.0092
  119OSM    O1312435   4.512   3.652   7.425  0.0934  0.9592  0.0012
  119OSM    O1412436   4.444   3.869   7.314  0.5316 -0.1599 -0.5224
  119OSM    O1112437   4.548   3.684   7.181  0.5963 -0.1206  0.6566
  119OSM    O1212438   4.688   3.815   7.336 -0.2964  0.5468 -0.2175
  119OSM    C1S12439   4.443   3.686   7.087 -0.2935 -0.0368 -0.4366
  119OSM    H1S12440   4.438   3.784   7.036 -1.2329  0.7302  1.0681
  119OSM    H1T12441   4.349   3.671   7.143 -0.5913  0.2824 -0.8456
  119OSM     NF12442   4.370   3.591   6.880 -0.3743  0.1196 -0.5020
  119OSM    HNF12443   4.273   3.571   6.896 -0.7210  2.0348  0.0577
  119OSM    C2S12444   4.459   3.565   6.987 -0.5620 -0.4630 -0.1839
  119OSM    H2S12445   4.562   3.566   6.945 -0.6050 -2.4427 -0.4387
  119OSM    C3S12446   4.449   3.423   7.060 -0.2507 -0.0451  0.3054
  119OSM    H3S12447   4.349   3.416   7.106 -0.3776 -1.1792 -0.1274
  119OSM     O312448   4.538   3.409   7.173 -0.3361 -0.1624  0.3838
  119OSM    HO312449   4.580   3.495   7.178  1.8592 -0.9572 -2.2854
  119OSM    C4S12450   4.464   3.310   6.964  0.3442 -0.5100 -0.2377
  119OSM    H4S12451   4.374   3.260   6.926  1.4684 -1.9089 -1.1946
  119OSM    C5S12452   4.589   3.286   6.914  0.2177 -0.0516 -0.3592
  119OSM    H5S12453   4.669   3.349   6.957 -1.6415 -0.0285  3.4868
  119OSM    C6S12454   4.636   3.191   6.810 -0.1718 -0.8205 -0.0691
  119OSM    H6S12455   4.715   3.122   6.847 -0.2445 -0.4636  0.7655
  119OSM    H6T12456   4.677   3.254   6.728  1.4837 -2.2382 -0.4022
  119OSM    C7S12457   4.521   3.103   6.750  0.3241  0.1437 -0.2317
  119OSM    H7S12458   4.435   3.167   6.722 -1.6957 -2.2908  0.0592
  119OSM    H7T12459   4.483   3.043   6.836  1.2815 -0.4893 -0.2343
  119OSM    C8S12460   4.569   3.015   6.637 -0.0380 -0.1622 -0.1628
  119OSM    H8S12461   4.496   2.932   6.633  0.9607 -1.0148 -1.2308
  119OSM    H8T12462   4.666   2.969   6.663  1.1484  2.6309  0.7953
  119OSM    C9S12463   4.577   3.079   6.497 -0.5733  0.6331 -1.2135
  119OSM    H9S12464   4.640   3.170   6.497 -0.3998  0.5149 -1.9582
  119OSM    H9T12465   4.474   3.114   6.476 -1.1335 -0.0333  0.2668
  119OSM   C10S12466   4.627   2.975   6.399 -0.2869 -0.0103 -0.4881
  119OSM   H10S12467   4.695   2.903   6.449  0.3595  0.3525 -0.8289
  119OSM   H10T12468   4.699   3.027   6.332  0.9292 -1.5822 -0.4690
  119OSM   C11S12469   4.536   2.885   6.317  0.1449 -0.0920  0.1047
  119OSM   H11S12470   4.450   2.943   6.276 -0.9478 -1.2219  0.7172
  119OSM   H11T12471   4.485   2.822   6.393  1.0363  0.7690  1.4705
  119OSM   C12S12472   4.607   2.794   6.216  0.1249  0.0899 -0.1045
  119OSM   H12S12473   4.548   2.702   6.194  1.7369 -0.7105 -1.2978
  119OSM   H12T12474   4.686   2.746   6.277 -2.1235 -2.8618  0.7509
  119OSM   C13S12475   4.663   2.855   6.085  0.1528 -0.4106  0.9002
  119OSM   H13S12476   4.698   2.772   6.020 -0.2788  0.4441 -0.4685
  119OSM   H13T12477   4.743   2.929   6.107 -0.7295  1.4470 -1.7102
  119OSM   C14S12478   4.555   2.926   6.004  0.1040  0.5460 -0.0524
  119OSM   H14S12479   4.488   2.974   6.078  0.1469 -2.4625  2.1343
  119OSM   H14T12480   4.486   2.852   5.957  1.4573 -0.5062 -0.4352
  119OSM   C15S12481   4.608   3.030   5.906 -0.7144  0.3273  0.6225
  119OSM   H15S12482   4.680   3.085   5.971  0.2030 -1.9817  1.6580
  119OSM   H15T12483   4.537   3.111   5.877  0.9275  2.3878  2.0208
  119OSM   C16S12484   4.667   2.966   5.783 -0.3504  0.2087 -0.2421
  119OSM   H16S12485   4.687   2.859   5.805 -0.1271  0.1946 -0.5107
  119OSM   H16T12486   4.761   3.025   5.772 -0.9402  1.0648 -0.8007
  119OSM   C17S12487   4.598   2.980   5.651 -0.0307  0.4706  0.1143
  119OSM   H17S12488   4.655   2.931   5.569 -1.5489 -1.5065  0.1690
  119OSM   H17T12489   4.594   3.088   5.625  0.8522  0.2903 -0.8320
  119OSM   C18S12490   4.463   2.920   5.649  0.1571 -0.0592  0.9359
  119OSM   H18S12491   4.403   2.954   5.736  1.1267  1.9566  0.8739
  119OSM   H18T12492   4.466   2.809   5.650 -0.3137 -0.0974  3.2640
  119OSM   H18U12493   4.407   2.941   5.555  0.9055  0.7517  0.6533
  119OSM    C1F12494   4.395   3.682   6.789 -0.0899 -0.9118 -0.0778
  119OSM     OF12495   4.492   3.759   6.798  0.7194  0.2208 -0.4017
  119OSM    C2F12496   4.293   3.677   6.678 -0.0209 -0.0297 -0.1870
  119OSM    H2F12497   4.244   3.776   6.689  0.0512 -0.0271  0.1168
  119OSM    H2G12498   4.213   3.604   6.702 -1.4824  1.5695  0.0033
  119OSM    C3F12499   4.352   3.627   6.545 -0.0285 -0.0238  0.6423
  119OSM    H3F12500   4.413   3.535   6.556  2.4965  1.3405 -0.8769
  119OSM    H3G12501   4.416   3.712   6.513 -0.9690  1.5158  2.5908
  119OSM    C4F12502   4.256   3.604   6.431  0.2732  0.0241  0.1897
  119OSM    H4F12503   4.192   3.517   6.457 -0.6356 -0.6885 -3.7341
  119OSM    H4G12504   4.305   3.579   6.334  0.4114  1.3248 -0.0937
  119OSM    C5F12505   4.187   3.734   6.393 -0.6553 -0.5513 -0.0949
  119OSM    H5F12506   4.257   3.788   6.326 -0.1105  1.1504  1.7765
  119OSM    H5G12507   4.177   3.809   6.474  0.7453  0.0557 -0.4712
  119OSM    C6F12508   4.056   3.704   6.316  0.3014  0.1110  0.4974
  119OSM    H6F12509   3.982   3.648   6.377 -1.8390  1.4229 -0.7563
  119OSM    H6G12510   4.072   3.637   6.230 -0.1185 -0.8779  1.1733
  119OSM    C7F12511   3.988   3.838   6.273  0.4544  0.2461  0.0918
  119OSM    H7F12512   4.056   3.877   6.194  0.6005  0.5010  0.3375
  119OSM    H7G12513   3.983   3.897   6.368 -0.8154  0.0371  0.1685
  119OSM    C8F12514   3.846   3.824   6.205 -0.3173 -0.2691  0.3769
  119OSM    H8F12515   3.773   3.777   6.274 -0.8189 -0.9503 -0.5766
  119OSM    H8G12516   3.863   3.749   6.124  0.3978  1.1060 -0.8052
  119OSM    C9F12517   3.800   3.963   6.158 -0.1361  0.3359  0.0645
  119OSM    H9F12518   3.837   4.052   6.212  1.0005  1.7886 -2.8917
  119OSM   C10F12519   3.740   3.976   6.038  0.3882  0.1559 -0.2299
  119OSM   H10F12520   3.693   4.073   6.013  0.7336  0.3084 -0.2959
  119OSM   C11F12521   3.695   3.869   5.943 -0.1129 -0.9135  0.2900
  119OSM   H11F12522   3.622   3.929   5.884  2.0710  0.3219 -1.2951
  119OSM   H11G12523   3.648   3.793   6.009  1.2819  1.0066  3.7157
  119OSM   C12F12524   3.803   3.820   5.848 -0.7902 -0.1479 -0.2167
  119OSM   H12F12525   3.884   3.771   5.906 -1.7990  0.9617  2.2504
  119OSM   H12G12526   3.835   3.916   5.801  1.2486 -0.6947 -0.0689
  119OSM   C13F12527   3.753   3.728   5.740  0.0921 -0.3245  1.0736
  119OSM   H13F12528   3.671   3.661   5.774  0.2793 -1.3429 -0.4047
  119OSM   H13G12529   3.833   3.652   5.727 -0.5857 -1.0330  0.9777
  119OSM   C14F12530   3.710   3.804   5.611 -0.3982  0.3372  0.6439
  119OSM   H14F12531   3.723   3.914   5.617  0.5461  0.3306 -0.7717
  119OSM   H14G12532   3.601   3.782   5.607 -0.3010  0.0148 -0.8017
  119OSM   C15F12533   3.780   3.753   5.483  0.2622  0.5312  0.4064
  119OSM   H15F12534   3.774   3.643   5.478  0.4539  0.3207  3.1458
  119OSM   H15G12535   3.889   3.773   5.496  0.3165  0.3512  0.2147
  119OSM   C16F12536   3.717   3.818   5.354 -0.1630 -0.6520  0.0028
  119OSM   H16F12537   3.616   3.856   5.377  1.4247  4.2799 -0.1429
  119OSM   H16G12538   3.719   3.735   5.279  2.0529  0.3838 -1.1814
  119OSM   C17F12539   3.787   3.946   5.309  0.5116  0.0844 -0.3883
  119OSM   H17F12540   3.811   4.010   5.397 -0.5326 -0.2634  0.1668
  119OSM   H17G12541   3.716   4.005   5.248  0.2523 -0.6592 -0.8217
  119OSM   C18F12542   3.915   3.931   5.216  0.3349 -0.3459 -0.0067
  119OSM   H18F12543   3.969   4.028   5.214 -1.3193  0.6023 -1.9822
  119OSM   H18G12544   3.884   3.892   5.117  0.0882  1.5824 -0.7505
  119OSM   H18H12545   3.978   3.855   5.267  0.3271 -0.3909 -0.0646
  120OSM      N12546   0.143   1.842   7.424 -0.5746  1.1121 -0.1844
  120OSM    C1512547   0.146   1.851   7.279 -0.3482 -0.6841  0.4927
  120OSM   H15A12548   0.158   1.957   7.259 -1.9587 -0.9273 -2.2630
  120OSM   H15B12549   0.059   1.814   7.226 -0.5814 -1.0018  1.0881
  120OSM   H15C12550   0.240   1.809   7.246 -0.4418 -1.1805  0.8511
  120OSM    C1412551   0.014   1.907   7.463 -0.0573 -0.3731 -0.0173
  120OSM   H14A12552  -0.022   1.888   7.564  0.4816  0.6072  0.3719
  120OSM   H14B12553  -0.061   1.863   7.398 -0.1027 -1.3955  0.6978
  120OSM   H14C12554   0.013   2.014   7.453 -1.2713 -0.4864 -1.5723
  120OSM    C1312555   0.123   1.698   7.462  0.0019 -0.1789 -0.0542
  120OSM   H13A12556   0.052   1.655   7.392  0.7429  1.7671 -2.1154
  120OSM   H13B12557   0.098   1.696   7.567  1.4156  0.9893  0.3389
  120OSM   H13C12558   0.216   1.645   7.450  0.9277  1.7873 -2.5052
  120OSM    C1212559   0.259   1.903   7.491 -0.1124  0.3301  0.0380
  120OSM   H12A12560   0.241   1.883   7.595  0.7257 -0.6287  0.0217
  120OSM   H12B12561   0.258   2.007   7.464  0.1939  0.5616  0.8882
  120OSM    C1112562   0.397   1.859   7.444 -0.6382 -0.3471  0.0134
  120OSM   H11A12563   0.400   1.748   7.448 -1.4735 -0.4822 -1.9678
  120OSM   H11B12564   0.476   1.881   7.519 -0.2226 -1.9662  0.0884
  120OSM      P12565   0.520   2.041   7.292  0.1102 -0.4599 -0.0756
  120OSM    O1312566   0.459   2.162   7.342  0.8521  0.3523 -0.6695
  120OSM    O1412567   0.656   2.014   7.351 -0.0552 -0.1890  0.0324
  120OSM    O1112568   0.543   2.050   7.139  0.2174 -0.3348  0.6467
  120OSM    O1212569   0.433   1.908   7.315 -0.5115 -0.0029  0.0556
  120OSM    C1S12570   0.589   1.941   7.059  0.2602 -0.5342 -0.3622
  120OSM    H1S12571   0.510   1.863   7.060  2.6075 -3.0639 -0.5377
  120OSM    H1T12572   0.684   1.894   7.093  0.2382  0.0535  0.5691
  120OSM     NF12573   0.687   1.871   6.827  0.5045 -0.9784 -0.1474
  120OSM    HNF12574   0.784   1.851   6.817  0.6970 -0.1650 -0.0353
  120OSM    C2S12575   0.627   1.983   6.908  0.1001  0.3581 -0.2491
  120OSM    H2S12576   0.534   2.021   6.861  0.1652  0.6805 -0.1210
  120OSM    C3S12577   0.724   2.108   6.906  0.4748  0.4472 -0.6989
  120OSM    H3S12578   0.825   2.065   6.920 -0.1712 -1.4080 -1.4515
  120OSM     O312579   0.711   2.206   7.011 -0.3708  0.2457 -0.3431
  120OSM    HO312580   0.660   2.156   7.075  0.8791  1.5127  1.7330
  120OSM    C4S12581   0.731   2.183   6.777 -0.2690 -0.2663 -0.3841
  120OSM    H4S12582   0.802   2.137   6.705 -0.8292 -0.6291 -0.7136
  120OSM    C5S12583   0.658   2.286   6.734 -0.1329 -0.1529  0.1854
  120OSM    H5S12584   0.572   2.320   6.794  1.0817  0.3117  1.7032
  120OSM    C6S12585   0.661   2.339   6.592 -0.5722 -0.0923 -0.7388
  120OSM    H6S12586   0.565   2.350   6.538  0.4420  0.6980 -2.5058
  120OSM    H6T12587   0.728   2.278   6.527 -0.9031  1.3133 -2.4947
  120OSM    C7S12588   0.728   2.483   6.582  0.3256  0.7404 -0.3991
  120OSM    H7S12589   0.825   2.458   6.631 -0.2066  1.0948  0.8901
  120OSM    H7T12590   0.685   2.545   6.665 -2.7872 -2.4395  0.6116
  120OSM    C8S12591   0.732   2.554   6.450  0.0750 -0.1782 -0.2033
  120OSM    H8S12592   0.760   2.660   6.469 -0.9128  0.4282 -1.8739
  120OSM    H8T12593   0.632   2.572   6.406  0.7111  0.6288 -1.3903
  120OSM    C9S12594   0.820   2.488   6.336  0.8393 -0.3188  0.3578
  120OSM    H9S12595   0.778   2.391   6.305 -1.2249  0.4467  0.6002
  120OSM    H9T12596   0.920   2.463   6.378  0.3065 -0.2570  1.7262
  120OSM   C10S12597   0.837   2.587   6.221  0.3418 -0.0216 -0.4861
  120OSM   H10S12598   0.938   2.574   6.178 -0.2348 -1.6751 -1.3996
  120OSM   H10T12599   0.843   2.696   6.244 -0.2422 -0.0253 -0.3082
  120OSM   C11S12600   0.724   2.573   6.117  0.5449 -0.0554  0.2816
  120OSM   H11S12601   0.629   2.577   6.174 -0.2163 -0.5647 -0.9006
  120OSM   H11T12602   0.726   2.472   6.069 -1.0623  0.2867 -0.5971
  120OSM   C12S12603   0.720   2.682   6.011 -0.4773  0.3845  0.0595
  120OSM   H12S12604   0.789   2.651   5.929 -0.0985 -1.1286  0.9152
  120OSM   H12T12605   0.757   2.780   6.048  1.1888  0.4445 -1.6162
  120OSM   C13S12606   0.587   2.714   5.949  0.3405 -0.2379  0.1027
  120OSM   H13S12607   0.520   2.729   6.036 -0.8324 -1.2249 -0.5979
  120OSM   H13T12608   0.554   2.621   5.897  1.5297 -2.7355  3.4699
  120OSM   C14S12609   0.593   2.846   5.862  0.3558  0.1196 -0.2128
  120OSM   H14S12610   0.665   2.846   5.778  0.3799  0.6130 -0.1971
  120OSM   H14T12611   0.629   2.924   5.933 -1.0924 -0.9821  1.8551
  120OSM   C15S12612   0.458   2.893   5.812 -0.1289 -0.6334 -0.4470
  120OSM   H15S12613   0.399   2.920   5.902  1.6494 -3.4844  1.7828
  120OSM   H15T12614   0.405   2.810   5.760 -1.3233  0.7534 -1.4924
  120OSM   C16S12615   0.450   3.006   5.715  0.2032 -0.0762  0.0994
  120OSM   H16S12616   0.344   3.039   5.718  0.0422 -0.6556  0.9891
  120OSM   H16T12617   0.477   2.980   5.610 -0.2851  1.9478 -0.5813
  120OSM   C17S12618   0.537   3.123   5.744 -0.6640 -0.8754 -0.2198
  120OSM   H17S12619   0.521   3.201   5.667 -0.0758 -0.1758  0.3546
  120OSM   H17T12620   0.647   3.108   5.741 -0.1136  1.7351  2.2089
  120OSM   C18S12621   0.504   3.179   5.882  0.3131  0.3950 -0.6663
  120OSM   H18S12622   0.400   3.219   5.891  0.2997  0.5554 -1.5088
  120OSM   H18T12623   0.575   3.263   5.894  1.9067 -0.6419 -2.3550
  120OSM   H18U12624   0.514   3.112   5.970  0.4863 -0.0025 -0.9831
  120OSM    C1F12625   0.607   1.768   6.803  0.6656  0.5919  0.1580
  120OSM     OF12626   0.489   1.760   6.841 -0.2071 -0.0637 -0.0389
  120OSM    C2F12627   0.660   1.643   6.727 -0.0345 -0.1095  0.4692
  120OSM    H2F12628   0.734   1.588   6.789  1.2075 -0.4661 -1.2368
  120OSM    H2G12629   0.725   1.682   6.645 -0.2775  2.1145  1.2570
  120OSM    C3F12630   0.548   1.557   6.667  0.3711 -0.8304 -0.1386
  120OSM    H3F12631   0.465   1.545   6.739  0.8482  0.4914  0.6712
  120OSM    H3G12632   0.590   1.456   6.648  1.4181 -0.4894  0.3387
  120OSM    C4F12633   0.497   1.609   6.524  0.4312 -0.5505 -0.4811
  120OSM    H4F12634   0.433   1.700   6.527  1.3457  0.2114 -2.4689
  120OSM    H4G12635   0.430   1.526   6.495  0.8375 -1.1492  0.2649
  120OSM    C5F12636   0.603   1.639   6.416  0.3435  0.8606  0.4196
  120OSM    H5F12637   0.697   1.582   6.426  1.7276  2.2585 -2.9543
  120OSM    H5G12638   0.625   1.748   6.418 -1.5022  1.2752  0.3755
  120OSM    C6F12639   0.558   1.604   6.270  0.7861 -0.0513  0.5324
  120OSM    H6F12640   0.458   1.650   6.259 -0.6783 -2.7033  1.8807
  120OSM    H6G12641   0.546   1.494   6.257  0.9530 -0.3566  2.5338
  120OSM    C7F12642   0.651   1.664   6.157  0.1477  0.6538 -0.4162
  120OSM    H7F12643   0.744   1.602   6.159 -0.8150 -0.8674 -0.5982
  120OSM    H7G12644   0.672   1.768   6.190 -0.9045  0.6047  0.4756
  120OSM    C8F12645   0.576   1.666   6.016 -0.6230 -0.0118 -0.4153
  120OSM    H8F12646   0.479   1.719   6.026  0.3054  1.7404 -0.2924
  120OSM    H8G12647   0.563   1.558   5.992  2.9791 -0.9561  1.1236
  120OSM    C9F12648   0.673   1.724   5.919 -0.8011  0.0173 -0.2840
  120OSM    H9F12649   0.673   1.834   5.928  1.6301  0.1122 -0.7074
  120OSM   C10F12650   0.778   1.664   5.857  0.2429 -1.0771 -0.0417
  120OSM   H10F12651   0.830   1.729   5.785 -0.2530  0.3000  0.7982
  120OSM   C11F12652   0.803   1.524   5.859 -0.1621 -0.5371 -0.4789
  120OSM   H11F12653   0.761   1.475   5.950 -1.0435 -0.6202 -0.9200
  120OSM   H11G12654   0.913   1.524   5.870 -0.0953  0.6287 -0.9907
  120OSM   C12F12655   0.760   1.448   5.734  0.3645 -0.6135 -0.0432
  120OSM   H12F12656   0.662   1.468   5.687 -0.0131  0.3960  1.1184
  120OSM   H12G12657   0.749   1.341   5.762 -0.7893 -1.1364 -2.3123
  120OSM   C13F12658   0.864   1.455   5.635 -0.1381  0.2688 -1.7448
  120OSM   H13F12659   0.934   1.371   5.648 -2.1642 -1.0740  1.7852
  120OSM   H13G12660   0.922   1.550   5.637  0.8467 -0.3080  0.9161
  120OSM   C14F12661   0.811   1.445   5.492  0.3110 -0.0390  0.4607
  120OSM   H14F12662   0.750   1.535   5.466  0.5039  0.1821  0.7621
  120OSM   H14G12663   0.745   1.356   5.497 -0.2418  0.4152  2.1096
  120OSM   C15F12664   0.920   1.428   5.382  0.5398 -0.3865  0.0312
  120OSM   H15F12665   0.882   1.447   5.279  1.2061  1.3514  0.0644
  120OSM   H15G12666   0.961   1.325   5.381  1.0150 -0.2217 -1.5777
  120OSM   C16F12667   1.044   1.518   5.400  0.0311  0.4127 -0.6942
  120OSM   H16F12668   1.091   1.494   5.498  0.0294 -0.4851 -0.9098
  120OSM   H16G12669   1.002   1.621   5.398  0.6924  0.6772 -1.5728
  120OSM   C17F12670   1.147   1.507   5.292 -0.2228 -0.4033  0.1141
  120OSM   H17F12671   1.214   1.594   5.277  0.9020 -1.1931  0.4284
  120OSM   H17G12672   1.098   1.503   5.192  1.8683 -2.0769 -0.9245
  120OSM   C18F12673   1.231   1.387   5.319  0.6165 -0.4495  0.0259
  120OSM   H18F12674   1.272   1.401   5.422 -1.8889  0.8954  0.9195
  120OSM   H18G12675   1.315   1.384   5.246 -0.3878  1.5092 -1.3191
  120OSM   H18H12676   1.168   1.299   5.295 -2.2394  1.7332 -0.9938
  121OSM      N12677   1.554   5.331   7.795  0.6936  0.5969  0.3857
  121OSM    C1512678   1.638   5.441   7.848  0.5930 -0.0155 -0.5070
  121OSM   H15A12679   1.743   5.416   7.852  0.5072 -0.3148  3.0910
  121OSM   H15B12680   1.617   5.454   7.954  1.5136  0.8325 -0.4099
  121OSM   H15C12681   1.641   5.539   7.802  3.5931  0.2257 -0.0291
  121OSM    C1412682   1.575   5.208   7.879 -0.4168  0.5210 -0.0824
  121OSM   H14A12683   1.563   5.240   7.981  1.2568  3.3780 -0.6669
  121OSM   H14B12684   1.672   5.162   7.864 -0.7175  0.0172 -0.5264
  121OSM   H14C12685   1.501   5.135   7.849 -0.1683 -0.3218  1.2712
  121OSM    C1312686   1.410   5.372   7.805 -0.3253 -0.4548  0.2729
  121OSM   H13A12687   1.384   5.449   7.735  0.3718 -0.2101  0.2776
  121OSM   H13B12688   1.398   5.407   7.907  1.6874  2.5244 -0.3900
  121OSM   H13C12689   1.349   5.283   7.790 -2.3999  0.9234  0.0806
  121OSM    C1212690   1.587   5.295   7.653 -0.1352 -0.0275  0.0487
  121OSM   H12A12691   1.687   5.256   7.649  0.2419  0.9615 -0.8204
  121OSM   H12B12692   1.584   5.378   7.584  1.5623 -1.1493 -1.4587
  121OSM    C1112693   1.498   5.193   7.575  0.5099  0.6520  0.0768
  121OSM   H11A12694   1.477   5.100   7.633  1.0464  0.0345 -0.7036
  121OSM   H11B12695   1.555   5.169   7.483 -0.2162  0.2161 -0.2669
  121OSM      P12696   1.254   5.172   7.493  0.4262  0.2850  0.2118
  121OSM    O1312697   1.224   5.076   7.602  0.2611 -0.1175 -0.0783
  121OSM    O1412698   1.144   5.263   7.450 -0.1495 -0.4660  0.0825
  121OSM    O1112699   1.307   5.088   7.367  0.3992 -0.1594  0.3599
  121OSM    O1212700   1.378   5.260   7.541  0.0893 -0.8798 -0.2735
  121OSM    C1S12701   1.331   5.158   7.243 -0.4058 -0.4942  0.4409
  121OSM    H1S12702   1.439   5.178   7.228 -0.3300 -0.8268  0.5293
  121OSM    H1T12703   1.280   5.256   7.236  1.2717  0.3937  0.2357
  121OSM     NF12704   1.331   5.130   6.997 -0.0692  0.0658 -0.1767
  121OSM    HNF12705   1.268   5.188   6.945  0.0116 -1.5194 -2.1926
  121OSM    C2S12706   1.282   5.074   7.119 -0.5464  0.3182  0.3281
  121OSM    H2S12707   1.320   4.971   7.133  3.0235  1.5262  0.6382
  121OSM    C3S12708   1.127   5.060   7.125 -0.3727 -0.8723 -0.0295
  121OSM    H3S12709   1.100   5.168   7.121  2.5835 -0.0539 -0.1244
  121OSM     O312710   1.074   5.016   7.250 -0.1209  0.2497  0.4983
  121OSM    HO312711   1.146   5.019   7.314 -1.2747 -1.8678  2.0438
  121OSM    C4S12712   1.063   4.992   7.007 -0.4885  0.0199 -0.7432
  121OSM    H4S12713   1.042   5.064   6.926 -0.7949  1.2867  0.4375
  121OSM    C5S12714   1.034   4.864   6.998 -0.3442  0.2553  0.1642
  121OSM    H5S12715   1.057   4.797   7.082  3.1493  0.3001 -0.6076
  121OSM    C6S12716   0.966   4.800   6.873 -0.8256 -0.2102 -0.1333
  121OSM    H6S12717   0.882   4.738   6.910 -0.5499 -0.5932 -0.1433
  121OSM    H6T12718   1.045   4.738   6.825 -1.2690 -0.1774 -0.9181
  121OSM    C7S12719   0.920   4.902   6.774 -0.0426 -0.2803 -0.5325
  121OSM    H7S12720   0.996   4.977   6.746  0.7535 -0.9925 -0.3082
  121OSM    H7T12721   0.827   4.955   6.804  1.1221  2.4247 -1.4471
  121OSM    C8S12722   0.878   4.856   6.633  0.3516  0.3674  0.1775
  121OSM    H8S12723   0.963   4.814   6.575  1.0132  0.1061  1.3039
  121OSM    H8T12724   0.824   4.923   6.563  1.5373 -0.3509 -1.4886
  121OSM    C9S12725   0.782   4.736   6.634  0.4823 -0.2442  0.0511
  121OSM    H9S12726   0.694   4.751   6.701 -0.2968 -1.5164 -0.6492
  121OSM    H9T12727   0.839   4.656   6.687 -1.0314 -1.0002  0.5861
  121OSM   C10S12728   0.753   4.685   6.491  0.9123  0.8794  0.1483
  121OSM   H10S12729   0.828   4.605   6.475  2.2246  2.2650 -0.9433
  121OSM   H10T12730   0.761   4.755   6.405 -2.6003 -0.6732 -1.6513
  121OSM   C11S12731   0.618   4.617   6.497  0.0477 -0.0482  0.7802
  121OSM   H11S12732   0.546   4.702   6.496 -1.7388 -1.5037 -0.0718
  121OSM   H11T12733   0.614   4.549   6.585  1.4944  0.3116  1.1644
  121OSM   C12S12734   0.578   4.531   6.375 -0.1042  0.0754 -0.4098
  121OSM   H12S12735   0.484   4.473   6.387  0.2898 -0.1567  1.9827
  121OSM   H12T12736   0.671   4.478   6.344  1.3227  0.4641  2.7718
  121OSM   C13S12737   0.527   4.626   6.262 -0.2885  0.5624  1.1102
  121OSM   H13S12738   0.597   4.703   6.222  0.4095 -2.1230 -3.5631
  121OSM   H13T12739   0.441   4.684   6.301 -0.9896  0.5321 -0.3652
  121OSM   C14S12740   0.490   4.557   6.124  0.2795  0.9206 -0.1567
  121OSM   H14S12741   0.577   4.494   6.097  0.0165  0.3525  0.2721
  121OSM   H14T12742   0.472   4.631   6.044  1.6457  0.2296 -1.1399
  121OSM   C15S12743   0.365   4.468   6.143  0.4766 -0.6086  0.1923
  121OSM   H15S12744   0.281   4.539   6.157 -0.1501 -0.9341 -1.6235
  121OSM   H15T12745   0.375   4.410   6.237  0.3998 -0.3134  0.3848
  121OSM   C16S12746   0.327   4.379   6.031 -0.0574 -0.6244  0.1123
  121OSM   H16S12747   0.406   4.301   6.019  2.0680  1.2890  0.8722
  121OSM   H16T12748   0.311   4.446   5.944 -1.9688 -0.4766  0.5338
  121OSM   C17S12749   0.197   4.298   6.050  0.8531 -0.4342  0.6392
  121OSM   H17S12750   0.106   4.358   6.073  2.0162  1.2192  1.1124
  121OSM   H17T12751   0.211   4.226   6.133 -2.0347 -0.8045  0.8954
  121OSM   C18S12752   0.156   4.221   5.919 -0.5525 -0.5518 -0.8881
  121OSM   H18S12753   0.129   4.288   5.835 -1.3013 -0.4627 -0.5865
  121OSM   H18T12754   0.078   4.144   5.938  0.8445 -1.6109  0.9507
  121OSM   H18U12755   0.241   4.157   5.886  1.4251  1.6349 -0.3051
  121OSM    C1F12756   1.453   5.122   6.966  0.0058 -0.0468  0.1779
  121OSM     OF12757   1.526   5.055   7.041 -0.1528 -0.5066 -0.0734
  121OSM    C2F12758   1.508   5.210   6.852 -0.5400  0.0815  0.6817
  121OSM    H2F12759   1.430   5.285   6.826 -2.6482 -2.3144 -0.4468
  121OSM    H2G12760   1.510   5.141   6.765  1.3957  0.9509  0.0000
  121OSM    C3F12761   1.660   5.255   6.861  0.3005  0.0999  0.0732
  121OSM    H3F12762   1.728   5.166   6.867  1.5467  0.9147 -1.1597
  121OSM    H3G12763   1.673   5.306   6.958 -0.5733 -1.0666  0.8364
  121OSM    C4F12764   1.687   5.349   6.750  0.0200  0.3978  0.0797
  121OSM    H4F12765   1.773   5.416   6.770  0.1298  0.1694  0.3695
  121OSM    H4G12766   1.602   5.409   6.711 -0.6826 -0.9707 -0.5928
  121OSM    C5F12767   1.733   5.271   6.624 -0.3798 -0.7116 -0.4937
  121OSM    H5F12768   1.655   5.193   6.608 -4.0450  2.0917  1.8219
  121OSM    H5G12769   1.832   5.230   6.655  0.8061  0.6266 -2.3223
  121OSM    C6F12770   1.749   5.362   6.498  0.1687  0.0137 -0.0188
  121OSM    H6F12771   1.784   5.462   6.530 -0.1658  0.6152 -1.4829
  121OSM    H6G12772   1.647   5.364   6.454 -0.1152 -1.0917  0.5484
  121OSM    C7F12773   1.844   5.308   6.392  0.3653  0.1856  0.3370
  121OSM    H7F12774   1.826   5.201   6.365  2.8263 -0.0164 -0.7331
  121OSM    H7G12775   1.944   5.311   6.440  0.8092 -0.4282 -0.5236
  121OSM    C8F12776   1.836   5.394   6.269 -0.1665  0.0670 -0.0636
  121OSM    H8F12777   1.924   5.365   6.208  0.6523 -3.6434  2.5627
  121OSM    H8G12778   1.848   5.502   6.292  1.8179  0.0940 -0.9957
  121OSM    C9F12779   1.706   5.385   6.196 -0.2488  0.2315 -0.0455
  121OSM    H9F12780   1.618   5.346   6.249 -0.2953  0.7354  0.2506
  121OSM   C10F12781   1.694   5.409   6.064 -0.3453  0.2903 -0.0251
  121OSM   H10F12782   1.590   5.408   6.029  0.4425 -0.9753 -2.6338
  121OSM   C11F12783   1.798   5.436   5.957 -0.4488 -0.0506  0.4014
  121OSM   H11F12784   1.895   5.455   6.008 -0.4751  2.0771 -0.2422
  121OSM   H11G12785   1.772   5.522   5.892  1.3537  0.8403  0.7819
  121OSM   C12F12786   1.834   5.309   5.869  0.0456  0.2468 -0.2310
  121OSM   H12F12787   1.749   5.305   5.797 -1.9056  4.2166  1.5367
  121OSM   H12G12788   1.837   5.227   5.944 -0.4061  2.7836  2.7626
  121OSM   C13F12789   1.970   5.287   5.795 -0.0852  0.6746  0.2619
  121OSM   H13F12790   2.048   5.311   5.871  1.8797  2.1990 -2.0883
  121OSM   H13G12791   1.979   5.372   5.724 -0.1760 -0.1092 -0.7085
  121OSM   C14F12792   1.990   5.151   5.721 -0.3131 -0.2109 -0.2697
  121OSM   H14F12793   1.918   5.148   5.636 -0.7141  2.0532 -0.0652
  121OSM   H14G12794   1.962   5.066   5.787 -2.9259 -1.4784 -2.7661
  121OSM   C15F12795   2.137   5.136   5.668 -0.1474 -0.0568 -0.0990
  121OSM   H15F12796   2.217   5.165   5.740  1.3819 -1.9063 -0.9555
  121OSM   H15G12797   2.153   5.193   5.574  2.9931  1.0375  0.9363
  121OSM   C16F12798   2.189   4.988   5.636 -0.2463 -0.1603 -0.3051
  121OSM   H16F12799   2.108   4.946   5.573 -0.9630  1.5181 -0.5536
  121OSM   H16G12800   2.209   4.919   5.721 -0.7210  0.2807  0.1714
  121OSM   C17F12801   2.309   4.977   5.541 -0.8029  0.1648  0.3148
  121OSM   H17F12802   2.292   5.039   5.450 -1.0420  2.0110  1.5584
  121OSM   H17G12803   2.322   4.870   5.517 -3.5269  0.1694 -1.6408
  121OSM   C18F12804   2.426   5.044   5.609  0.3048 -0.0853  0.1935
  121OSM   H18F12805   2.425   5.154   5.592 -0.6959 -0.2452 -0.9443
  121OSM   H18G12806   2.529   5.019   5.574  0.2592 -1.2893  0.8532
  121OSM   H18H12807   2.416   5.015   5.716 -1.0240  1.3511  0.4894
  122OSM      N12808   6.881   0.999   7.570 -0.2834  0.5910 -0.0088
  122OSM    C1512809   6.754   1.063   7.611  0.1360  0.3045  0.7027
  122OSM   H15A12810   6.704   1.118   7.534  1.2228  1.4674  0.7904
  122OSM   H15B12811   6.780   1.124   7.697  1.3046  0.7186  0.0822
  122OSM   H15C12812   6.671   1.000   7.640  0.9563  0.0225  2.6698
  122OSM    C1412813   6.997   1.097   7.580  0.4479 -0.0520 -0.2361
  122OSM   H14A12814   6.985   1.177   7.509  0.1731 -0.3185 -0.4925
  122OSM   H14B12815   7.093   1.052   7.558  1.1676  0.7500  1.1296
  122OSM   H14C12816   7.002   1.131   7.683 -0.5725 -1.8803  0.4683
  122OSM    C1312817   6.905   0.893   7.670 -0.2027 -0.7769  0.1835
  122OSM   H13A12818   7.000   0.844   7.655  0.8148  0.8114  1.0661
  122OSM   H13B12819   6.827   0.819   7.675 -1.3173  0.3644  0.3503
  122OSM   H13C12820   6.905   0.933   7.771 -0.3501  0.4789 -0.2973
  122OSM    C1212821   6.871   0.936   7.430 -0.1060 -0.4381 -0.4542
  122OSM   H12A12822   6.828   1.005   7.359  0.4409 -1.7532 -2.1230
  122OSM   H12B12823   6.803   0.852   7.432  0.2690 -0.7621 -1.2256
  122OSM    C1112824   7.004   0.891   7.369 -0.2318  0.3545 -0.1715
  122OSM   H11A12825   7.063   0.982   7.347  1.2423 -1.0674 -2.5620
  122OSM   H11B12826   6.980   0.838   7.275 -1.0956  1.3855 -0.5422
  122OSM      P12827   7.219   0.786   7.473 -0.1390  0.5320  0.0265
  122OSM    O1312828   7.269   0.911   7.529 -0.3471  0.4109  0.2507
  122OSM    O1412829   7.247   0.664   7.554 -0.2641  0.0874  0.2408
  122OSM    O1112830   7.285   0.762   7.329 -1.0618  0.0926 -0.5590
  122OSM    O1212831   7.069   0.791   7.454 -0.1227  0.2239  0.7951
  122OSM    C1S12832   7.225   0.691   7.221 -1.3164 -0.5968 -0.4399
  122OSM    H1S12833   7.180   0.765   7.152 -0.0973  0.5934  0.0029
  122OSM    H1T12834   7.150   0.617   7.258 -1.6243  0.7116  1.6697
  122OSM     NF12835   7.288   0.578   7.018  0.0872  0.0968  0.2187
  122OSM    HNF12836   7.260   0.482   7.019  0.4353 -0.0010  0.4652
  122OSM    C2S12837   7.338   0.619   7.147  0.3052  0.3413  0.0711
  122OSM    H2S12838   7.419   0.693   7.130 -0.7139  1.7442  1.0210
  122OSM    C3S12839   7.386   0.496   7.235  0.2514 -0.4883  0.3948
  122OSM    H3S12840   7.290   0.449   7.265  0.5663 -1.5178 -0.1559
  122OSM     O312841   7.434   0.541   7.355  0.0316 -0.2153  0.4906
  122OSM    HO312842   7.404   0.632   7.356  0.0504 -0.1880  2.0925
  122OSM    C4S12843   7.486   0.400   7.163 -0.1660 -0.7464  0.2379
  122OSM    H4S12844   7.441   0.302   7.143 -1.6699  0.0808 -0.6436
  122OSM    C5S12845   7.619   0.414   7.147 -0.5697 -0.2533 -0.3690
  122OSM    H5S12846   7.682   0.491   7.193 -0.0646  0.4919 -2.2354
  122OSM    C6S12847   7.709   0.301   7.087  1.2370 -0.4605 -0.7040
  122OSM    H6S12848   7.647   0.213   7.060  0.1720  0.2599 -0.6614
  122OSM    H6T12849   7.788   0.278   7.162 -0.9817  1.0654  2.3317
  122OSM    C7S12850   7.771   0.357   6.955 -0.2679  0.0454  0.1538
  122OSM    H7S12851   7.825   0.451   6.977  0.0307  0.0425 -0.5497
  122OSM    H7T12852   7.698   0.379   6.874  0.6705 -0.2544 -0.7858
  122OSM    C8S12853   7.883   0.273   6.898  0.5609  0.7587  0.6270
  122OSM    H8S12854   7.863   0.164   6.887  0.4885  0.8385 -0.0344
  122OSM    H8T12855   7.965   0.279   6.973  2.3611 -0.1427 -1.1892
  122OSM    C9S12856   7.940   0.323   6.761  0.2312 -0.7973  0.4977
  122OSM    H9S12857   8.048   0.298   6.769  0.0025 -2.1640 -0.2815
  122OSM    H9T12858   7.928   0.433   6.758  0.2120 -0.8187 -0.5910
  122OSM   C10S12859   7.890   0.262   6.629  0.2047 -0.3875 -0.5583
  122OSM   H10S12860   7.783   0.291   6.625  0.2309 -0.0248  0.8020
  122OSM   H10T12861   7.889   0.151   6.627  2.3504 -0.7264  3.9223
  122OSM   C11S12862   7.965   0.320   6.505  0.0880 -0.3591 -0.1248
  122OSM   H11S12863   8.068   0.279   6.502  0.1284 -0.2012 -1.1616
  122OSM   H11T12864   7.972   0.430   6.500  1.4654 -0.3709  1.0618
  122OSM   C12S12865   7.893   0.264   6.381 -0.0493 -0.2556  0.0234
  122OSM   H12S12866   7.794   0.312   6.366 -0.1618 -0.3632  0.4058
  122OSM   H12T12867   7.878   0.155   6.391  1.3670 -0.6001 -1.3469
  122OSM   C13S12868   7.978   0.291   6.250 -0.1279  0.1985 -0.3987
  122OSM   H13S12869   8.070   0.230   6.245  1.2644  2.2563 -0.9709
  122OSM   H13T12870   7.997   0.401   6.254 -1.1528  0.3526  1.4068
  122OSM   C14S12871   7.887   0.274   6.128  0.1057 -0.6109  0.2070
  122OSM   H14S12872   7.840   0.368   6.092  2.9588  1.2926  1.1429
  122OSM   H14T12873   7.812   0.194   6.146 -2.6720  2.0806  1.7090
  122OSM   C15S12874   7.973   0.232   6.009  0.4359 -0.2066 -0.3169
  122OSM   H15S12875   8.015   0.135   6.043  4.3117  1.3637 -0.1076
  122OSM   H15T12876   8.055   0.307   5.998  0.5336 -0.4704 -1.5372
  122OSM   C16S12877   7.884   0.215   5.880 -0.1523 -0.2432 -0.1183
  122OSM   H16S12878   7.852   0.319   5.856  2.4935  0.4337 -1.0357
  122OSM   H16T12879   7.789   0.161   5.902 -1.4810  1.7645 -0.6339
  122OSM   C17S12880   7.969   0.162   5.766 -0.2660  0.7680 -0.2305
  122OSM   H17S12881   8.019   0.071   5.804  0.7907  1.9401  1.2671
  122OSM   H17T12882   8.054   0.229   5.739 -0.2734  0.5864 -0.7258
  122OSM   C18S12883   7.891   0.152   5.630 -0.6969 -0.4899  0.5602
  122OSM   H18S12884   7.854   0.255   5.614  0.1808  0.0355  1.7515
  122OSM   H18T12885   7.809   0.077   5.640 -1.3082 -0.1952 -1.7906
  122OSM   H18U12886   7.963   0.110   5.557  1.6113  0.1083  2.3961
  122OSM    C1F12887   7.266   0.660   6.919  0.1056  0.3110  0.3967
  122OSM     OF12888   7.305   0.776   6.915  0.1987 -0.2482  0.1149
  122OSM    C2F12889   7.188   0.594   6.809  0.1051  0.3050  0.3212
  122OSM    H2F12890   7.081   0.584   6.838  0.6871  1.5102  3.3129
  122OSM    H2G12891   7.227   0.491   6.793 -2.3588 -0.2369 -3.4639
  122OSM    C3F12892   7.184   0.694   6.685  0.0399 -0.6067  0.9894
  122OSM    H3F12893   7.291   0.723   6.677 -0.0860  0.2498  2.1673
  122OSM    H3G12894   7.144   0.795   6.706  2.6452  0.4143  1.4110
  122OSM    C4F12895   7.134   0.631   6.548  0.6267  0.3071 -0.8102
  122OSM    H4F12896   7.027   0.603   6.552  1.0755 -2.2132 -3.3998
  122OSM    H4G12897   7.200   0.542   6.539 -1.1685 -1.4225  1.6909
  122OSM    C5F12898   7.151   0.731   6.436  0.4091  0.2276  0.5808
  122OSM    H5F12899   7.258   0.748   6.411  0.4922 -1.8661 -0.7044
  122OSM    H5G12900   7.093   0.824   6.452  0.6193  0.4985 -0.2190
  122OSM    C6F12901   7.094   0.683   6.304  0.3019  0.0314 -1.2114
  122OSM    H6F12902   6.985   0.704   6.308  0.4849  0.9278 -0.4920
  122OSM    H6G12903   7.099   0.575   6.277 -0.2170 -0.1634 -0.5689
  122OSM    C7F12904   7.146   0.758   6.179  1.2483  0.3783  0.1717
  122OSM    H7F12905   7.238   0.707   6.145  0.5008 -1.0256  0.1283
  122OSM    H7G12906   7.176   0.863   6.198  1.1245  0.6793 -1.1899
  122OSM    C8F12907   7.052   0.753   6.056 -0.6562 -0.3589 -0.4228
  122OSM    H8F12908   6.952   0.782   6.095 -1.3730 -0.0338 -2.3837
  122OSM    H8G12909   7.046   0.644   6.033  0.5264 -1.1414  2.4836
  122OSM    C9F12910   7.088   0.834   5.933 -0.0700  0.1844 -0.7021
  122OSM    H9F12911   7.072   0.941   5.956 -0.7899  0.0087 -0.3482
  122OSM   C10F12912   7.127   0.792   5.810 -0.2694  0.4935 -0.6620
  122OSM   H10F12913   7.159   0.864   5.734  1.5170  1.9324  1.3404
  122OSM   C11F12914   7.131   0.646   5.767 -0.1980  0.0165 -0.1767
  122OSM   H11F12915   7.125   0.578   5.855  4.0743 -1.4944 -0.8038
  122OSM   H11G12916   7.235   0.631   5.730 -0.3506 -2.0191  0.1370
  122OSM   C12F12917   7.029   0.611   5.661  1.1968 -0.1884 -0.0731
  122OSM   H12F12918   7.035   0.678   5.573  0.2412 -0.7003 -0.5417
  122OSM   H12G12919   6.928   0.629   5.704  0.8884 -0.0238 -0.8437
  122OSM   C13F12920   7.022   0.464   5.619 -0.2116 -0.1004 -0.9473
  122OSM   H13F12921   6.999   0.398   5.705  1.5399  0.3163 -0.1261
  122OSM   H13G12922   7.120   0.422   5.587 -0.8028 -2.7389  0.4987
  122OSM   C14F12923   6.914   0.448   5.510 -0.0081 -0.1831  0.6382
  122OSM   H14F12924   6.935   0.521   5.430  1.4728 -1.2159  0.0360
  122OSM   H14G12925   6.815   0.470   5.556 -0.1096  1.1138 -0.1732
  122OSM   C15F12926   6.920   0.310   5.430 -0.1725  0.3894 -0.4132
  122OSM   H15F12927   6.908   0.237   5.513  1.4134  0.3792 -0.1546
  122OSM   H15G12928   7.022   0.301   5.386  0.2033  1.2891  0.2275
  122OSM   C16F12929   6.815   0.289   5.317  0.1295  0.0411 -0.4962
  122OSM   H16F12930   6.723   0.337   5.358  1.0384  1.0876  0.3788
  122OSM   H16G12931   6.795   0.181   5.301 -2.6388  0.4785 -0.6193
  122OSM   C17F12932   6.859   0.359   5.183 -0.0704 -0.3460  0.6447
  122OSM   H17F12933   6.952   0.306   5.151 -0.9067 -0.6777 -1.4103
  122OSM   H17G12934   6.885   0.467   5.181  0.0965 -0.2799  3.2898
  122OSM   C18F12935   6.750   0.318   5.079 -0.0455 -1.1153 -0.1890
  122OSM   H18F12936   6.721   0.212   5.092  0.3697 -1.1713  0.3334
  122OSM   H18G12937   6.772   0.342   4.973 -2.4634  1.6942 -0.1973
  122OSM   H18H12938   6.663   0.380   5.110  2.0962  1.3850  1.1841
  123OSM      N12939   5.901   6.995   3.076  1.3428  0.0658 -0.6990
  123OSM    C1512940   6.005   7.095   3.045  0.5358  0.6407 -1.2591
  123OSM   H15A12941   6.093   7.048   3.005 -1.5394 -4.2673 -0.7302
  123OSM   H15B12942   6.041   7.143   3.135  2.9999 -0.5006 -1.5559
  123OSM   H15C12943   5.972   7.173   2.978  0.9545  0.9288 -1.1317
  123OSM    C1412944   5.960   6.889   3.165  0.1902  0.4698  0.4055
  123OSM   H14A12945   6.016   6.935   3.245  0.1121  1.6991 -0.2106
  123OSM   H14B12946   6.029   6.824   3.114  1.3014  1.7746  0.1865
  123OSM   H14C12947   5.892   6.816   3.205 -0.4824  0.8296 -0.0622
  123OSM    C1312948   5.780   7.047   3.149 -1.0862 -0.1804  0.0945
  123OSM   H13A12949   5.713   6.966   3.174 -0.9584  0.0817  1.3563
  123OSM   H13B12950   5.741   7.132   3.094 -0.3120  1.3121  1.7614
  123OSM   H13C12951   5.803   7.090   3.245 -0.6049 -0.2251  0.0005
  123OSM    C1212952   5.842   6.936   2.948 -0.4115  0.4242  0.0241
  123OSM   H12A12953   5.777   7.006   2.897 -1.4368 -0.5627 -0.0620
  123OSM   H12B12954   5.778   6.854   2.977  1.6272 -0.3619  2.7801
  123OSM    C1112955   5.941   6.868   2.850 -0.0117  0.1647  0.2738
  123OSM   H11A12956   6.040   6.918   2.848  0.2693 -0.3917 -0.0365
  123OSM   H11B12957   5.894   6.874   2.750  0.1966  0.1064  0.1725
  123OSM      P12958   5.897   6.607   2.838  0.2192  0.3665 -0.1119
  123OSM    O1312959   5.797   6.659   2.736 -0.4263 -0.1036  0.3110
  123OSM    O1412960   6.000   6.509   2.800  0.9107 -0.1418  0.7031
  123OSM    O1112961   5.819   6.558   2.970 -0.5587 -0.0857 -0.4368
  123OSM    O1212962   5.961   6.737   2.897 -0.1747 -0.4241  0.6538
  123OSM    C1S12963   5.886   6.502   3.084 -1.0502 -0.1060 -0.2679
  123OSM    H1S12964   5.939   6.582   3.140  0.5188 -1.4317  0.2184
  123OSM    H1T12965   5.971   6.439   3.052 -0.9078 -0.5986  1.0191
  123OSM     NF12966   5.836   6.406   3.299 -0.3563  0.5120 -0.1600
  123OSM    HNF12967   5.865   6.313   3.319 -0.2538  0.8690  1.6058
  123OSM    C2S12968   5.783   6.424   3.163  0.5524  0.0613 -0.0885
  123OSM    H2S12969   5.696   6.494   3.164 -1.3647 -2.0866 -2.7067
  123OSM    C3S12970   5.734   6.295   3.091  0.0987  0.1305 -0.2639
  123OSM    H3S12971   5.805   6.211   3.099  0.7018  0.2846 -2.9465
  123OSM     O312972   5.720   6.306   2.949 -0.4124  0.4802 -0.1316
  123OSM    HO312973   5.758   6.393   2.934 -0.1835  0.2775 -0.7291
  123OSM    C4S12974   5.606   6.252   3.161 -0.4340 -0.4770  0.0339
  123OSM    H4S12975   5.640   6.215   3.259  0.2075  0.3871  0.1509
  123OSM    C5S12976   5.479   6.252   3.119 -0.8287  0.0041 -0.2971
  123OSM    H5S12977   5.449   6.278   3.016 -1.1247 -0.2719 -0.2851
  123OSM    C6S12978   5.370   6.204   3.205 -0.3714  0.6631  0.6043
  123OSM    H6S12979   5.411   6.144   3.290  2.0846  0.0655 -0.8852
  123OSM    H6T12980   5.305   6.130   3.154  1.2365 -0.3771 -0.0224
  123OSM    C7S12981   5.281   6.315   3.262 -1.2132  0.0184  0.3803
  123OSM    H7S12982   5.197   6.279   3.326  0.1139 -0.5412  1.8816
  123OSM    H7T12983   5.240   6.367   3.172  2.3773 -0.1125 -1.5030
  123OSM    C8S12984   5.356   6.432   3.337 -0.4894  0.8189 -0.1712
  123OSM    H8S12985   5.275   6.502   3.367  0.8505  3.0925 -1.5671
  123OSM    H8T12986   5.409   6.492   3.259 -0.9422 -0.0574 -1.1853
  123OSM    C9S12987   5.455   6.394   3.446  0.7235 -0.4200 -0.3618
  123OSM    H9S12988   5.501   6.490   3.479 -0.9319 -0.1478  1.3242
  123OSM    H9T12989   5.533   6.327   3.403 -0.3068 -2.0340  0.1918
  123OSM   C10S12990   5.400   6.341   3.571 -0.1559 -0.3058 -0.2642
  123OSM   H10S12991   5.379   6.234   3.551 -0.9950 -0.3029  0.5341
  123OSM   H10T12992   5.298   6.384   3.583 -0.8957 -1.3874 -2.2453
  123OSM   C11S12993   5.467   6.361   3.707  0.1909  0.4027 -0.1978
  123OSM   H11S12994   5.487   6.469   3.719 -1.9513  1.4019 -3.9101
  123OSM   H11T12995   5.558   6.297   3.706 -0.9633 -1.3418 -1.8833
  123OSM   C12S12996   5.381   6.294   3.809  0.1461  0.8715 -0.3419
  123OSM   H12S12997   5.397   6.185   3.804  0.1332  0.8039  0.8781
  123OSM   H12T12998   5.274   6.318   3.790  0.4874  4.1969  1.2858
  123OSM   C13S12999   5.407   6.331   3.953 -0.3962 -0.2940 -0.2964
  123OSM   H13S13000   5.393   6.439   3.974 -1.0785 -0.7434  1.7833
  123OSM   H13T13001   5.514   6.328   3.984 -0.5854  0.0823  0.3968
  123OSM   C14S13002   5.339   6.249   4.056  0.8330 -0.4506 -0.8428
  123OSM   H14S13003   5.380   6.146   4.044  1.0880 -0.3358 -0.9818
  123OSM   H14T13004   5.230   6.247   4.036  0.7170  2.4934 -0.9457
  123OSM   C15S13005   5.372   6.302   4.204  0.4974  0.4738  0.4957
  123OSM   H15S13006   5.303   6.389   4.210 -2.5710 -1.4585 -2.5397
  123OSM   H15T13007   5.477   6.335   4.219  0.5499 -0.3532  2.1283
  123OSM   C16S13008   5.336   6.193   4.306  0.0412 -0.0662  0.1936
  123OSM   H16S13009   5.383   6.095   4.286  2.7836  1.3907 -1.1278
  123OSM   H16T13010   5.228   6.166   4.302  0.2382 -0.9763  0.7922
  123OSM   C17S13011   5.374   6.222   4.451  0.0179  0.0149 -0.0503
  123OSM   H17S13012   5.304   6.293   4.499 -1.0085  0.5617 -2.2154
  123OSM   H17T13013   5.480   6.254   4.438 -0.6954  1.6121 -2.9324
  123OSM   C18S13014   5.380   6.088   4.540  0.7505 -0.3509 -0.3232
  123OSM   H18S13015   5.475   6.069   4.594 -0.8095 -1.0380  2.3084
  123OSM   H18T13016   5.380   6.002   4.469  2.6078  0.6351 -1.6099
  123OSM   H18U13017   5.295   6.081   4.611 -0.1992 -1.9058 -1.5492
  123OSM    C1F13018   5.868   6.508   3.380 -1.1106 -0.3729 -0.3839
  123OSM     OF13019   5.834   6.619   3.344 -0.2796 -0.6788 -1.0889
  123OSM    C2F13020   5.941   6.471   3.511  0.2899 -0.9164 -0.3038
  123OSM    H2F13021   6.000   6.554   3.553  0.3555 -0.7825 -0.6576
  123OSM    H2G13022   6.016   6.392   3.491  2.7921  1.2908 -0.0524
  123OSM    C3F13023   5.841   6.436   3.622  0.1818 -0.1905  0.6368
  123OSM    H3F13024   5.798   6.336   3.599  0.4445 -0.4037  1.0613
  123OSM    H3G13025   5.764   6.516   3.623 -0.5661 -0.8847  0.1375
  123OSM    C4F13026   5.917   6.429   3.756 -0.0942 -0.3428 -0.0178
  123OSM    H4F13027   5.967   6.523   3.786  1.0320 -1.0593  0.4395
  123OSM    H4G13028   5.992   6.347   3.749  1.0390  0.8334 -2.9042
  123OSM    C5F13029   5.815   6.391   3.867  0.0386  0.1336 -0.0573
  123OSM    H5F13030   5.772   6.296   3.831 -0.9197  1.3178 -2.2000
  123OSM    H5G13031   5.735   6.468   3.876  0.0815  0.5386 -2.5331
  123OSM    C6F13032   5.882   6.364   4.001  0.0898 -0.1191 -0.5138
  123OSM    H6F13033   5.915   6.463   4.041 -0.0916  1.4139 -3.8512
  123OSM    H6G13034   5.970   6.298   3.986  1.1806  0.5930  2.0686
  123OSM    C7F13035   5.789   6.303   4.104 -0.7977  0.3722 -0.7112
  123OSM    H7F13036   5.758   6.199   4.081 -0.6868  0.1242  0.2062
  123OSM    H7G13037   5.693   6.360   4.103  0.0516  2.0208  1.4865
  123OSM    C8F13038   5.850   6.312   4.244 -0.1997 -0.4993  0.2274
  123OSM    H8F13039   5.786   6.300   4.333  1.7715 -0.8612  1.6758
  123OSM    H8G13040   5.910   6.405   4.249  1.3503 -1.2798 -2.1462
  123OSM    C9F13041   5.947   6.195   4.256 -0.7859 -0.8048  0.3508
  123OSM    H9F13042   5.988   6.172   4.156 -0.9638 -0.0624  0.1006
  123OSM   C10F13043   5.987   6.135   4.373  0.1899  0.6231 -0.4185
  123OSM   H10F13044   6.068   6.062   4.388 -1.3417 -0.7901  1.4882
  123OSM   C11F13045   5.945   6.193   4.507 -0.1741 -1.1152 -0.1483
  123OSM   H11F13046   5.836   6.181   4.527 -0.4018  0.3316 -0.3952
  123OSM   H11G13047   5.972   6.301   4.512  1.7426 -1.6138  1.7049
  123OSM   C12F13048   6.010   6.119   4.622  0.3685 -0.4000 -0.1764
  123OSM   H12F13049   6.120   6.133   4.615  0.4522 -0.9892 -0.0665
  123OSM   H12G13050   5.983   6.011   4.622  0.7000 -0.5226  1.6714
  123OSM   C13F13051   5.963   6.174   4.757  0.3073 -0.2068 -0.7351
  123OSM   H13F13052   6.000   6.105   4.836 -0.2428  1.1423  0.7687
  123OSM   H13G13053   5.852   6.174   4.764  0.2488  2.9198 -0.0889
  123OSM   C14F13054   6.018   6.308   4.801 -0.2774  0.4799  1.1030
  123OSM   H14F13055   5.979   6.328   4.903  0.2872  1.8335  1.0758
  123OSM   H14G13056   5.982   6.391   4.736  0.6859  1.2141  1.4746
  123OSM   C15F13057   6.167   6.338   4.827 -0.0980  0.1951  0.0361
  123OSM   H15F13058   6.186   6.445   4.853  2.5116 -0.3402  0.6295
  123OSM   H15G13059   6.240   6.325   4.744 -0.0413  0.0378  0.1104
  123OSM   C16F13060   6.225   6.249   4.939 -0.0617 -0.0700 -0.3548
  123OSM   H16F13061   6.204   6.144   4.910 -3.1732 -0.3457  2.2913
  123OSM   H16G13062   6.172   6.267   5.035  1.0602  0.2123  0.2290
  123OSM   C17F13063   6.373   6.277   4.967 -0.0387 -0.1419  0.5283
  123OSM   H17F13064   6.380   6.387   4.979 -2.0211 -0.0720  1.2997
  123OSM   H17G13065   6.428   6.238   4.879 -0.1566 -1.1824  0.9025
  123OSM   C18F13066   6.422   6.196   5.094  0.1631  0.7039  0.1322
  123OSM   H18F13067   6.357   6.213   5.182  1.0935  0.8516  0.7955
  123OSM   H18G13068   6.523   6.225   5.128  1.9041 -4.2059 -0.0803
  123OSM   H18H13069   6.432   6.086   5.081  2.2767  0.1373  4.7391
  124OSM      N13070   2.776   0.552   2.974 -0.7421 -0.1781 -0.2168
  124OSM    C1513071   2.820   0.452   3.078  0.5893  0.3649 -0.2260
  124OSM   H15A13072   2.851   0.359   3.034  0.0994  1.5601 -3.3842
  124OSM   H15B13073   2.756   0.419   3.158  0.8946  0.7439  0.1810
  124OSM   H15C13074   2.905   0.501   3.124  2.0894 -1.5591 -0.8234
  124OSM    C1413075   2.896   0.557   2.878 -0.0531 -0.1349  0.6156
  124OSM   H14A13076   2.939   0.465   2.843  0.8456 -0.0436  1.4438
  124OSM   H14B13077   2.975   0.608   2.931 -0.3339  2.8458 -1.5869
  124OSM   H14C13078   2.867   0.606   2.787  2.2708 -2.9453 -1.8313
  124OSM    C1313079   2.657   0.499   2.901  1.3358  1.1802  0.3235
  124OSM   H13A13080   2.633   0.560   2.814 -3.3507 -3.1038 -1.9090
  124OSM   H13B13081   2.570   0.501   2.965  1.1861 -0.0985  0.1720
  124OSM   H13C13082   2.683   0.407   2.851 -1.4257  0.3733  0.2018
  124OSM    C1213083   2.754   0.689   3.029  0.2351  0.2084 -0.4136
  124OSM   H12A13084   2.668   0.675   3.094  0.5627  1.5451  0.3368
  124OSM   H12B13085   2.723   0.766   2.961 -2.6123  0.5168  1.0558
  124OSM    C1113086   2.851   0.746   3.137  0.1104  0.0373 -0.0668
  124OSM   H11A13087   2.847   0.689   3.232  0.6136  1.9520  1.1789
  124OSM   H11B13088   2.791   0.831   3.177  1.2723  0.4518  0.8797
  124OSM      P13089   3.122   0.717   3.136 -0.0334 -0.0871 -0.3879
  124OSM    O1313090   3.151   0.595   3.055  0.3155 -0.1225 -0.6446
  124OSM    O1413091   3.212   0.831   3.135  0.0796  0.4220 -0.6592
  124OSM    O1113092   3.090   0.669   3.293 -0.3219 -0.0969  0.1048
  124OSM    O1213093   2.981   0.775   3.082  0.4967 -0.0229 -0.6392
  124OSM    C1S13094   3.064   0.771   3.393  0.1587 -0.0327  0.2129
  124OSM    H1S13095   2.980   0.833   3.355  1.2119  1.2951 -0.0029
  124OSM    H1T13096   3.153   0.831   3.420  0.5171  0.2346 -1.4358
  124OSM     NF13097   2.971   0.804   3.623  0.4043  0.5411  0.1690
  124OSM    HNF13098   3.012   0.785   3.712 -0.2446 -2.0343  0.0103
  124OSM    C2S13099   3.011   0.705   3.527 -1.0100  0.7860  0.0714
  124OSM    H2S13100   2.927   0.640   3.493  0.8105 -0.2265 -2.8459
  124OSM    C3S13101   3.122   0.610   3.586 -0.2437  0.3894 -0.2975
  124OSM    H3S13102   3.205   0.680   3.614 -0.8892  0.8248  0.5645
  124OSM     O313103   3.188   0.532   3.488 -0.2819 -0.0156 -0.3844
  124OSM    HO313104   3.154   0.571   3.407  0.9475  1.9869 -0.0156
  124OSM    C4S13105   3.088   0.534   3.711  0.0164  1.0074  0.0626
  124OSM    H4S13106   3.103   0.576   3.812  0.1227  0.9908  0.0538
  124OSM    C5S13107   3.033   0.415   3.706  1.0805 -0.4642 -0.6533
  124OSM    H5S13108   3.008   0.370   3.609 -2.2241 -0.7758  0.2076
  124OSM    C6S13109   3.020   0.334   3.833  0.0765 -0.1907  0.9238
  124OSM    H6S13110   2.961   0.241   3.815  0.9847 -0.7902  1.0028
  124OSM    H6T13111   2.972   0.402   3.907 -0.5543  0.6676 -0.2394
  124OSM    C7S13112   3.157   0.284   3.895  0.1832 -1.3529 -0.4889
  124OSM    H7S13113   3.201   0.385   3.909  1.3087 -1.3935 -3.1811
  124OSM    H7T13114   3.218   0.236   3.816  2.5158  0.1046  0.3246
  124OSM    C8S13115   3.142   0.208   4.022  0.1750 -0.6699  0.3443
  124OSM    H8S13116   3.239   0.163   4.053  0.5852  0.9962  1.6039
  124OSM    H8T13117   3.074   0.125   3.992 -0.3639  0.0809 -0.5625
  124OSM    C9S13118   3.083   0.291   4.137 -0.0472  0.6685  0.6296
  124OSM    H9S13119   2.978   0.312   4.107  0.3494  1.2631 -0.3901
  124OSM    H9T13120   3.137   0.387   4.152  0.8222  0.5052 -1.1756
  124OSM   C10S13121   3.089   0.209   4.264 -0.2856 -0.6285 -0.6306
  124OSM   H10S13122   3.196   0.196   4.291 -0.6465 -0.3274  1.0441
  124OSM   H10T13123   3.036   0.112   4.253  1.3037 -1.8805  1.8091
  124OSM   C11S13124   3.019   0.279   4.388  0.2592  0.5217  0.0919
  124OSM   H11S13125   2.910   0.259   4.382  0.1505  0.7025  1.2911
  124OSM   H11T13126   3.046   0.387   4.387 -0.1895  0.6584 -1.6608
  124OSM   C12S13127   3.072   0.220   4.525  0.1554 -0.4384  0.1982
  124OSM   H12S13128   3.020   0.282   4.601 -0.4811  0.8472 -1.2187
  124OSM   H12T13129   3.181   0.240   4.535  0.0594  0.2735 -0.1151
  124OSM   C13S13130   3.060   0.073   4.552 -0.0717 -0.0616  0.1486
  124OSM   H13S13131   2.966   0.040   4.505 -0.1889  0.1795  0.2107
  124OSM   H13T13132   3.038   0.062   4.660 -4.3956 -2.7030 -0.7830
  124OSM   C14S13133   3.178  -0.011   4.499  0.4491  0.5763  0.6787
  124OSM   H14S13134   3.274   0.037   4.528  1.8949 -1.0513 -1.1274
  124OSM   H14T13135   3.167  -0.013   4.388 -0.5690 -0.5208  0.7830
  124OSM   C15S13136   3.186  -0.157   4.548  0.3778  0.3165 -0.3283
  124OSM   H15S13137   3.274  -0.211   4.506 -0.0420 -0.0288 -0.7681
  124OSM   H15T13138   3.098  -0.213   4.512  0.0335  1.1616 -0.8379
  124OSM   C16S13139   3.190  -0.156   4.703  0.8473 -0.6524 -0.4017
  124OSM   H16S13140   3.103  -0.101   4.746  1.3858  0.7171 -0.9903
  124OSM   H16T13141   3.281  -0.099   4.734  0.3519  0.9427 -1.7179
  124OSM   C17S13142   3.180  -0.299   4.760  0.1436 -0.6261 -0.1383
  124OSM   H17S13143   3.274  -0.353   4.735  1.5709  1.9610 -0.7088
  124OSM   H17T13144   3.092  -0.343   4.709 -1.0963  1.8523 -0.2967
  124OSM   C18S13145   3.166  -0.297   4.914 -0.4893  0.5431  0.8167
  124OSM   H18S13146   3.073  -0.249   4.950 -0.5620  1.7972 -0.9234
  124OSM   H18T13147   3.255  -0.249   4.961 -0.4204  0.1783  1.0649
  124OSM   H18U13148   3.181  -0.403   4.944  0.8396  0.1378 -1.0720
  124OSM    C1F13149   2.861   0.873   3.606  0.0599 -0.0895 -1.0517
  124OSM     OF13150   2.792   0.858   3.507  0.2197  0.3593  0.4790
  124OSM    C2F13151   2.832   0.977   3.709 -0.4761  0.0229 -0.0051
  124OSM    H2F13152   2.900   1.062   3.688 -0.5018  0.0789  0.1368
  124OSM    H2G13153   2.861   0.931   3.806  1.8601  2.0818  0.3711
  124OSM    C3F13154   2.686   1.016   3.691  0.4242  0.1514 -0.5057
  124OSM    H3F13155   2.621   0.932   3.724  0.4510  0.0345 -0.7510
  124OSM    H3G13156   2.655   1.040   3.588 -2.6447  0.3015  0.3759
  124OSM    C4F13157   2.650   1.129   3.781 -0.3601  0.5455 -0.5674
  124OSM    H4F13158   2.714   1.216   3.758 -2.8797  3.1079  1.4502
  124OSM    H4G13159   2.673   1.109   3.888  0.1739  0.4873 -0.6907
  124OSM    C5F13160   2.497   1.161   3.776 -0.1777 -0.1571  0.2654
  124OSM    H5F13161   2.441   1.065   3.781  1.3232 -1.0859  0.1698
  124OSM    H5G13162   2.474   1.197   3.673 -2.1887 -1.2597  0.2798
  124OSM    C6F13163   2.462   1.265   3.890  0.2936 -0.1423 -0.2704
  124OSM    H6F13164   2.353   1.275   3.869 -0.0722 -0.6836  1.2939
  124OSM    H6G13165   2.515   1.362   3.876  0.8381  0.1414  3.0386
  124OSM    C7F13166   2.476   1.218   4.038  0.1581 -0.7262  0.4271
  124OSM    H7F13167   2.520   1.117   4.053 -0.1854 -1.0398 -0.6466
  124OSM    H7G13168   2.381   1.221   4.095 -0.3635  0.5810 -0.4568
  124OSM    C8F13169   2.592   1.289   4.111 -0.1116 -0.2583  0.3963
  124OSM    H8F13170   2.679   1.315   4.047  0.4725 -0.3835  1.1201
  124OSM    H8G13171   2.634   1.229   4.195 -1.4154 -1.3508  0.2915
  124OSM    C9F13172   2.543   1.426   4.161  0.8730 -0.2274  0.3196
  124OSM    H9F13173   2.506   1.493   4.082 -2.9482 -2.0890  0.2672
  124OSM   C10F13174   2.531   1.466   4.286  0.2465 -0.2122  0.2131
  124OSM   H10F13175   2.501   1.569   4.311 -1.8363 -1.3150  2.7001
  124OSM   C11F13176   2.556   1.382   4.412 -0.9737 -0.8183  0.0578
  124OSM   H11F13177   2.615   1.289   4.397 -0.7959 -0.7010  0.0230
  124OSM   H11G13178   2.464   1.347   4.463 -1.1598 -0.0228  0.2872
  124OSM   C12F13179   2.621   1.477   4.514  0.2578  0.2207  0.2519
  124OSM   H12F13180   2.554   1.566   4.525 -1.3251 -0.9428  0.4843
  124OSM   H12G13181   2.713   1.514   4.465 -0.9345  1.8836 -0.8795
  124OSM   C13F13182   2.639   1.417   4.653 -0.6287 -0.0988  0.7494
  124OSM   H13F13183   2.709   1.331   4.655  0.7408  0.9603  0.4222
  124OSM   H13G13184   2.536   1.393   4.685 -0.5579 -2.9653 -0.8323
  124OSM   C14F13185   2.675   1.524   4.758 -0.4020  0.0247  0.8826
  124OSM   H14F13186   2.602   1.608   4.765 -1.3796 -0.6248 -0.8082
  124OSM   H14G13187   2.776   1.560   4.727 -1.1491  0.4566 -1.2734
  124OSM   C15F13188   2.670   1.466   4.900 -0.3302  0.6934 -0.3327
  124OSM   H15F13189   2.750   1.391   4.919  0.2184  1.4546  0.4267
  124OSM   H15G13190   2.568   1.423   4.907  0.0643 -0.0600  1.4287
  124OSM   C16F13191   2.683   1.567   5.018  0.1367 -0.3256 -0.1369
  124OSM   H16F13192   2.687   1.509   5.113 -2.5391  0.5852  0.5999
  124OSM   H16G13193   2.591   1.627   5.029  0.1795 -0.4231  0.8634
  124OSM   C17F13194   2.803   1.655   5.012  0.3584  0.1783 -0.0623
  124OSM   H17F13195   2.794   1.717   4.920 -0.3299  0.4479  0.1797
  124OSM   H17G13196   2.900   1.601   5.000 -0.3868 -1.2753  0.2564
  124OSM   C18F13197   2.807   1.766   5.124 -0.0106  0.3120 -0.3055
  124OSM   H18F13198   2.820   1.712   5.221  1.4790  2.9784  1.0950
  124OSM   H18G13199   2.722   1.836   5.134 -0.7126 -0.6094  0.3807
  124OSM   H18H13200   2.893   1.835   5.115 -0.1964  0.8974  1.9071
  125OSM      N13201   3.840   4.404   3.140  0.0156  0.0126  0.1738
  125OSM    C1513202   3.859   4.472   3.001 -0.0839  0.4245  0.0877
  125OSM   H15A13203   3.960   4.457   2.968 -0.5961 -0.1752 -1.3005
  125OSM   H15B13204   3.837   4.578   3.005  1.3830  0.7265  0.4999
  125OSM   H15C13205   3.789   4.443   2.924  1.4858  0.9341 -1.5864
  125OSM    C1413206   3.925   4.480   3.239  0.5147  0.3167  0.0052
  125OSM   H14A13207   3.906   4.450   3.341 -0.6138 -2.0908 -0.8246
  125OSM   H14B13208   3.910   4.586   3.228  2.6487  0.5560 -1.2971
  125OSM   H14C13209   4.032   4.477   3.223  0.3206  0.7193 -1.5527
  125OSM    C1313210   3.695   4.428   3.176  0.2186 -0.1986 -0.1982
  125OSM   H13A13211   3.642   4.382   3.095 -1.6607  3.4761 -1.2651
  125OSM   H13B13212   3.669   4.531   3.195  1.3251  0.1255 -0.3581
  125OSM   H13C13213   3.666   4.370   3.263 -0.1268  2.9827  1.9876
  125OSM    C1213214   3.875   4.251   3.134  0.3468 -0.3474 -0.4342
  125OSM   H12A13215   3.978   4.246   3.104  1.1326 -0.7413  2.1113
  125OSM   H12B13216   3.806   4.200   3.068  1.0604 -1.2738 -0.4825
  125OSM    C1113217   3.866   4.178   3.266 -0.3411  0.2251  0.2998
  125OSM   H11A13218   3.942   4.224   3.331  0.1534 -0.5076  0.2530
  125OSM   H11B13219   3.908   4.076   3.254 -1.9509 -0.5353  0.7260
  125OSM      P13220   3.623   4.080   3.313 -0.2823  0.2707 -0.0223
  125OSM    O1313221   3.516   4.122   3.405 -0.0249  0.6926  0.7378
  125OSM    O1413222   3.587   4.058   3.175 -0.0129  0.4504 -0.2353
  125OSM    O1113223   3.688   3.954   3.372  0.0969  0.5488 -0.2534
  125OSM    O1213224   3.740   4.179   3.334 -0.3111 -0.5100 -0.1785
  125OSM    C1S13225   3.744   3.953   3.506  0.2520  0.3535 -0.3371
  125OSM    H1S13226   3.782   4.054   3.535 -1.2199  1.1216 -0.9717
  125OSM    H1T13227   3.839   3.895   3.513 -1.7425 -3.1829 -0.5867
  125OSM     NF13228   3.684   3.936   3.749  0.4840  0.2901 -0.1778
  125OSM    HNF13229   3.706   3.847   3.789  1.4166  0.3840 -0.4394
  125OSM    C2S13230   3.633   3.910   3.612 -0.4780  0.1412  0.0620
  125OSM    H2S13231   3.551   3.984   3.605  0.9233  1.6574 -1.1339
  125OSM    C3S13232   3.580   3.763   3.585 -0.4261 -0.0625 -0.2927
  125OSM    H3S13233   3.665   3.700   3.617  0.7983  1.5446 -0.2516
  125OSM     O313234   3.566   3.728   3.445  0.4383  0.5437  0.2292
  125OSM    HO313235   3.594   3.802   3.391 -2.3071 -0.2142 -2.5397
  125OSM    C4S13236   3.478   3.710   3.680  0.5463  0.0353  0.6105
  125OSM    H4S13237   3.519   3.700   3.782 -0.1477 -2.6179  0.7067
  125OSM    C5S13238   3.344   3.702   3.670  1.0226 -0.1002  0.1973
  125OSM    H5S13239   3.299   3.728   3.573  1.6337  0.4885  0.0680
  125OSM    C6S13240   3.250   3.680   3.788 -0.8343  0.2928 -0.6843
  125OSM    H6S13241   3.216   3.575   3.790  0.8904 -0.3160 -1.5978
  125OSM    H6T13242   3.160   3.744   3.789  0.8267  2.7988 -0.2756
  125OSM    C7S13243   3.311   3.684   3.935  0.1329  0.2713  0.5224
  125OSM    H7S13244   3.390   3.606   3.947  0.3075 -0.2160 -2.9061
  125OSM    H7T13245   3.225   3.655   3.998 -1.9794  1.3618 -1.7282
  125OSM    C8S13246   3.362   3.819   3.978 -0.6092  0.1208 -1.2257
  125OSM    H8S13247   3.274   3.881   4.006 -0.7645 -0.1381 -1.1294
  125OSM    H8T13248   3.417   3.865   3.894  3.6230  1.2160  1.8270
  125OSM    C9S13249   3.453   3.819   4.104  0.4053 -1.0592 -0.5733
  125OSM    H9S13250   3.507   3.916   4.117  1.9655 -2.0463  0.6448
  125OSM    H9T13251   3.541   3.753   4.091  1.9484  0.5320  1.2252
  125OSM   C10S13252   3.383   3.795   4.238 -1.1608 -0.0765  0.1342
  125OSM   H10S13253   3.338   3.694   4.230  0.5056 -0.7877 -1.0298
  125OSM   H10T13254   3.296   3.863   4.245 -0.5996  0.7044 -0.3654
  125OSM   C11S13255   3.475   3.820   4.357 -0.2629  0.4820  0.2696
  125OSM   H11S13256   3.516   3.919   4.330 -0.1414  0.4777  0.4368
  125OSM   H11T13257   3.546   3.734   4.352 -1.7832 -0.8146  0.3614
  125OSM   C12S13258   3.412   3.816   4.491 -0.0127  0.5803  0.0328
  125OSM   H12S13259   3.352   3.725   4.512  1.2259 -0.1233  0.6782
  125OSM   H12T13260   3.339   3.899   4.485  0.1421  0.6475 -1.2778
  125OSM   C13S13261   3.503   3.843   4.607 -0.4176 -0.4167 -0.2794
  125OSM   H13S13262   3.580   3.916   4.575 -1.5145 -0.2620 -2.7952
  125OSM   H13T13263   3.561   3.755   4.641 -0.7829 -0.2059  0.9494
  125OSM   C14S13264   3.423   3.901   4.724  0.0238  0.2088  0.6057
  125OSM   H14S13265   3.367   3.813   4.763 -0.3099  0.3369  0.4210
  125OSM   H14T13266   3.352   3.975   4.682  1.4303  0.9408 -0.5735
  125OSM   C15S13267   3.506   3.965   4.839 -0.0869 -0.5139 -0.7302
  125OSM   H15S13268   3.539   4.058   4.787 -1.6598 -0.5251 -1.8151
  125OSM   H15T13269   3.590   3.897   4.864  0.4891 -0.1668 -1.6580
  125OSM   C16S13270   3.432   4.003   4.974  0.0367 -0.1038  0.2786
  125OSM   H16S13271   3.425   3.912   5.037 -3.6377  1.0849  1.8544
  125OSM   H16T13272   3.331   4.043   4.947 -1.1352 -1.1400  2.7949
  125OSM   C17S13273   3.504   4.115   5.060 -0.3907 -0.6876 -0.3171
  125OSM   H17S13274   3.506   4.210   5.001  2.2446 -1.9557 -2.4881
  125OSM   H17T13275   3.610   4.086   5.069  0.4468  1.7430 -1.3394
  125OSM   C18S13276   3.445   4.132   5.195  0.6461 -0.2960 -0.0007
  125OSM   H18S13277   3.446   4.030   5.239  1.0567 -0.7826 -1.1025
  125OSM   H18T13278   3.341   4.172   5.198  0.0624 -1.6416 -1.1586
  125OSM   H18U13279   3.511   4.194   5.259 -0.0654 -0.8212  1.2962
  125OSM    C1F13280   3.729   4.047   3.799  0.1571 -0.6471  0.3321
  125OSM     OF13281   3.704   4.154   3.744 -0.1572 -0.1029 -0.8448
  125OSM    C2F13282   3.807   4.040   3.928  0.8105  0.6211  0.1112
  125OSM    H2F13283   3.907   4.000   3.901 -0.3483 -1.7412 -1.0566
  125OSM    H2G13284   3.757   3.980   4.007  1.1231 -0.5838 -0.5805
  125OSM    C3F13285   3.832   4.180   3.980  0.1083 -0.2100  0.2772
  125OSM    H3F13286   3.747   4.248   3.961 -1.0512 -2.2079 -2.1501
  125OSM    H3G13287   3.917   4.220   3.920 -0.8363  0.8040 -0.4126
  125OSM    C4F13288   3.860   4.183   4.129  0.1999 -0.1986  0.4374
  125OSM    H4F13289   3.885   4.288   4.154 -0.5225  0.6243 -1.9440
  125OSM    H4G13290   3.953   4.126   4.148  1.4412  1.4742 -0.3693
  125OSM    C5F13291   3.744   4.130   4.220  0.2260  0.4290  0.1439
  125OSM    H5F13292   3.760   4.022   4.241  1.5508  0.7008  0.6667
  125OSM    H5G13293   3.657   4.138   4.152 -0.8586 -1.3408  1.2518
  125OSM    C6F13294   3.738   4.193   4.363 -0.1343  0.2008  0.1893
  125OSM    H6F13295   3.648   4.148   4.409  0.5264 -0.7948  0.5476
  125OSM    H6G13296   3.726   4.303   4.360  1.8598  0.4709  0.5497
  125OSM    C7F13297   3.858   4.153   4.452  0.5763  0.3313 -0.1302
  125OSM    H7F13298   3.947   4.213   4.420 -0.4264  1.0786 -1.6109
  125OSM    H7G13299   3.873   4.044   4.438 -1.8929 -0.0281 -0.3386
  125OSM    C8F13300   3.840   4.179   4.605  0.0864  0.6374 -0.0980
  125OSM    H8F13301   3.925   4.134   4.661 -0.2980 -0.9637 -0.7481
  125OSM    H8G13302   3.753   4.119   4.639 -0.1091  1.7227  1.4590
  125OSM    C9F13303   3.803   4.316   4.638  0.3729  0.4293 -0.5916
  125OSM    H9F13304   3.763   4.369   4.550  1.0185  0.8145 -0.6568
  125OSM   C10F13305   3.816   4.380   4.755  0.5236 -0.7328  0.3245
  125OSM   H10F13306   3.766   4.478   4.758 -1.1501 -1.4117 -2.3354
  125OSM   C11F13307   3.860   4.321   4.878 -0.0740  0.2463 -0.1776
  125OSM   H11F13308   3.845   4.212   4.893 -1.5190  0.4733  0.1719
  125OSM   H11G13309   3.797   4.366   4.958  2.5117  0.5942  1.7909
  125OSM   C12F13310   4.004   4.357   4.908 -0.4482 -0.2459  0.1389
  125OSM   H12F13311   4.030   4.464   4.896 -2.3834  0.1479 -1.0460
  125OSM   H12G13312   4.077   4.302   4.845  1.7111 -1.2827  3.3233
  125OSM   C13F13313   4.033   4.329   5.063  0.0139  0.1328  0.3505
  125OSM   H13F13314   4.010   4.224   5.092  2.0285 -0.3531  0.3448
  125OSM   H13G13315   3.979   4.395   5.134  0.3160 -0.3203  1.0048
  125OSM   C14F13316   4.182   4.316   5.088 -0.0585  0.0690  0.3508
  125OSM   H14F13317   4.235   4.413   5.073 -0.6833  0.4274  0.4141
  125OSM   H14G13318   4.220   4.245   5.011  0.1807  1.2349 -0.6360
  125OSM   C15F13319   4.216   4.259   5.227  0.1114 -0.0943 -0.0426
  125OSM   H15F13320   4.152   4.169   5.243  1.4460 -1.2027 -0.6535
  125OSM   H15G13321   4.180   4.333   5.301 -0.6382 -1.7128  1.2946
  125OSM   C16F13322   4.356   4.209   5.246 -1.0328  0.1822  0.4115
  125OSM   H16F13323   4.421   4.288   5.201  0.0301 -0.4467  0.8183
  125OSM   H16G13324   4.372   4.123   5.178 -1.3253  0.6203 -0.2198
  125OSM   C17F13325   4.390   4.174   5.385  0.8634  0.4487 -0.1361
  125OSM   H17F13326   4.492   4.132   5.388  0.1535 -1.3243  0.1950
  125OSM   H17G13327   4.317   4.098   5.421  0.9662 -0.4596 -1.7350
  125OSM   C18F13328   4.392   4.286   5.490 -0.0274  0.0755 -0.8966
  125OSM   H18F13329   4.378   4.255   5.596 -2.7929  0.6162 -1.0273
  125OSM   H18G13330   4.311   4.358   5.461 -0.3873  0.5096  1.0230
  125OSM   H18H13331   4.487   4.342   5.481 -0.0939  0.3029 -0.2434
  126OSM      N13332   1.381   4.216   3.045 -0.0024  0.1888  0.2514
  126OSM    C1513333   1.479   4.145   3.131  0.3233  0.1789 -0.3310
  126OSM   H15A13334   1.454   4.128   3.235  1.4892 -1.7341 -0.3112
  126OSM   H15B13335   1.581   4.180   3.136  0.2347  0.3069  1.6465
  126OSM   H15C13336   1.469   4.041   3.102 -0.6987 -0.7316  2.8527
  126OSM    C1413337   1.434   4.202   2.904 -0.3851 -0.0317 -0.2177
  126OSM   H14A13338   1.468   4.102   2.884  0.1793 -0.3691  2.0683
  126OSM   H14B13339   1.517   4.270   2.896  1.1749 -1.7027  0.9256
  126OSM   H14C13340   1.354   4.229   2.836  0.9232  0.4012 -1.6396
  126OSM    C1313341   1.247   4.137   3.053  0.2019  0.2253 -0.6127
  126OSM   H13A13342   1.258   4.036   3.017  0.4646  0.4280 -1.1106
  126OSM   H13B13343   1.165   4.181   2.997 -1.4614  1.4483  2.5586
  126OSM   H13C13344   1.214   4.136   3.155  2.2079  1.7070  0.1207
  126OSM    C1213345   1.362   4.365   3.078  0.1159  0.2293  0.0831
  126OSM   H12A13346   1.291   4.407   3.008  1.5206  1.2037 -0.8230
  126OSM   H12B13347   1.451   4.421   3.053 -0.4501  0.4213 -1.6775
  126OSM    C1113348   1.316   4.391   3.219 -0.4220  0.6886 -0.2233
  126OSM   H11A13349   1.346   4.496   3.239 -0.6118  0.2327  2.9528
  126OSM   H11B13350   1.375   4.327   3.288 -0.0371  0.1143 -1.0717
  126OSM      P13351   1.083   4.479   3.184 -0.2671 -0.0395  0.4377
  126OSM    O1313352   1.106   4.501   3.038  0.2850  0.1101 -0.1826
  126OSM    O1413353   0.942   4.449   3.227 -0.0039  0.5618  0.3521
  126OSM    O1113354   1.138   4.604   3.261  0.0363  0.6841 -0.5470
  126OSM    O1213355   1.176   4.361   3.226 -0.2697 -0.1622  0.7670
  126OSM    C1S13356   1.153   4.614   3.403 -0.4957  0.9666 -0.1020
  126OSM    H1S13357   1.240   4.553   3.435 -0.0078  1.3003 -0.7721
  126OSM    H1T13358   1.060   4.585   3.456 -0.7435  1.0265 -0.5009
  126OSM     NF13359   1.201   4.759   3.596 -0.4514 -0.2993  0.1141
  126OSM    HNF13360   1.112   4.763   3.642 -0.7853  0.7468 -0.5886
  126OSM    C2S13361   1.187   4.753   3.444 -0.0649 -0.5429 -0.3077
  126OSM    H2S13362   1.285   4.781   3.400 -0.2814  0.8570  0.0673
  126OSM    C3S13363   1.086   4.851   3.391  0.5157 -0.4752 -0.2272
  126OSM    H3S13364   0.987   4.808   3.417  0.4778  0.1102  0.5930
  126OSM     O313365   1.092   4.877   3.257 -0.4240  0.0096  0.3924
  126OSM    HO313366   1.121   4.792   3.221 -0.4153 -0.0853  0.6198
  126OSM    C4S13367   1.104   4.991   3.469  1.0856 -0.2994  0.2129
  126OSM    H4S13368   1.036   5.003   3.554  0.5516 -0.1547 -0.2306
  126OSM    C5S13369   1.183   5.091   3.430 -0.9055 -0.1777 -0.0216
  126OSM    H5S13370   1.238   5.076   3.336 -0.2982 -0.9624  0.4463
  126OSM    C6S13371   1.195   5.231   3.488 -0.8976  1.0468 -0.3906
  126OSM    H6S13372   1.134   5.293   3.419 -0.7925  0.7400 -0.7596
  126OSM    H6T13373   1.305   5.248   3.482 -0.5490  0.0033  2.0726
  126OSM    C7S13374   1.162   5.261   3.636  0.2703 -0.3011 -1.4128
  126OSM    H7S13375   1.057   5.229   3.657  0.0278  1.4839  0.4190
  126OSM    H7T13376   1.159   5.370   3.661 -1.1993 -1.3636  4.3871
  126OSM    C8S13377   1.242   5.200   3.754  0.0682 -0.5912  0.4759
  126OSM    H8S13378   1.349   5.229   3.745  0.1299 -1.2638 -1.2295
  126OSM    H8T13379   1.240   5.089   3.743 -0.1807 -0.4081 -1.8006
  126OSM    C9S13380   1.180   5.256   3.895 -0.8484  0.9453  0.4413
  126OSM    H9S13381   1.080   5.211   3.911 -0.9245 -0.4095 -3.0333
  126OSM    H9T13382   1.171   5.367   3.892 -0.2021  0.9810 -0.7320
  126OSM   C10S13383   1.267   5.218   4.025 -0.0384 -0.0427  0.2440
  126OSM   H10S13384   1.365   5.269   4.021  0.0446  0.0239  2.1962
  126OSM   H10T13385   1.298   5.113   4.011 -0.6539 -0.5123  2.1112
  126OSM   C11S13386   1.195   5.255   4.156  0.1042 -0.8504 -0.3648
  126OSM   H11S13387   1.093   5.212   4.163  0.1274 -0.6825  1.2797
  126OSM   H11T13388   1.182   5.365   4.148  1.7103 -0.5383  0.7402
  126OSM   C12S13389   1.262   5.215   4.282  0.0029  0.6537  0.4378
  126OSM   H12S13390   1.361   5.265   4.271 -0.1679  0.7838 -0.5255
  126OSM   H12T13391   1.270   5.106   4.297  3.8599  0.3583 -2.3188
  126OSM   C13S13392   1.182   5.265   4.406 -1.5509 -0.2941  0.4120
  126OSM   H13S13393   1.078   5.227   4.397 -1.4968 -0.2001 -0.6955
  126OSM   H13T13394   1.185   5.376   4.409  0.0868 -0.2318 -1.6345
  126OSM   C14S13395   1.243   5.210   4.539 -0.6014  0.2860 -0.3555
  126OSM   H14S13396   1.352   5.226   4.527 -0.1608 -1.3323  1.2501
  126OSM   H14T13397   1.233   5.101   4.557 -0.0225  0.4229  0.9004
  126OSM   C15S13398   1.209   5.279   4.670  0.5121  0.1954  0.1565
  126OSM   H15S13399   1.104   5.252   4.696 -0.0401  2.9180  1.0862
  126OSM   H15T13400   1.216   5.389   4.656 -0.5863  0.0794 -1.6131
  126OSM   C16S13401   1.304   5.237   4.787 -0.3467 -0.0671 -0.4856
  126OSM   H16S13402   1.406   5.260   4.750  0.2294 -0.3752  0.8510
  126OSM   H16T13403   1.297   5.129   4.815 -0.5369  0.2837  0.9036
  126OSM   C17S13404   1.286   5.314   4.924  0.7884 -0.6225  0.7393
  126OSM   H17S13405   1.175   5.310   4.933  0.6084  1.0160 -0.2800
  126OSM   H17T13406   1.316   5.420   4.907 -2.4512  0.1785 -0.8308
  126OSM   C18S13407   1.363   5.239   5.031  0.3866  0.2641 -0.3386
  126OSM   H18S13408   1.472   5.240   5.006  0.6166 -0.5258  0.5836
  126OSM   H18T13409   1.325   5.135   5.035  1.9900 -0.3123  1.8109
  126OSM   H18U13410   1.351   5.297   5.125 -0.5429  0.4991 -0.5937
  126OSM    C1F13411   1.309   4.698   3.655 -0.0458 -0.4224 -0.7765
  126OSM     OF13412   1.406   4.677   3.587  0.0339  0.8985  0.2632
  126OSM    C2F13413   1.313   4.671   3.796  1.0562  0.1087 -0.3785
  126OSM    H2F13414   1.419   4.662   3.831 -0.2392  0.0254  4.1005
  126OSM    H2G13415   1.252   4.582   3.821  1.8685 -1.0790 -2.4333
  126OSM    C3F13416   1.250   4.780   3.889 -0.1889 -0.4302  0.0493
  126OSM    H3F13417   1.140   4.775   3.873 -0.0455  0.6569 -1.4881
  126OSM    H3G13418   1.281   4.882   3.859 -0.8075 -0.3512 -0.3351
  126OSM    C4F13419   1.290   4.761   4.039 -0.0531 -0.0269  0.0392
  126OSM    H4F13420   1.400   4.776   4.047  0.3961 -2.9662  0.5227
  126OSM    H4G13421   1.260   4.656   4.061 -0.2607  0.0289  0.0228
  126OSM    C5F13422   1.216   4.856   4.132  0.2018  0.1399 -0.0812
  126OSM    H5F13423   1.111   4.865   4.095  0.0501 -0.6330  0.1461
  126OSM    H5G13424   1.254   4.960   4.123 -0.9652  0.5655 -0.3407
  126OSM    C6F13425   1.206   4.814   4.281 -0.4453 -0.2178  0.0945
  126OSM    H6F13426   1.154   4.716   4.289  0.6309 -0.6885  1.9389
  126OSM    H6G13427   1.143   4.892   4.326  0.1235 -0.5722  1.5497
  126OSM    C7F13428   1.337   4.798   4.363 -0.5895 -0.1098  1.2100
  126OSM    H7F13429   1.365   4.904   4.377 -1.7726  0.2352  1.0221
  126OSM    H7G13430   1.426   4.759   4.308 -2.4406 -1.6611 -0.8388
  126OSM    C8F13431   1.333   4.710   4.492  0.4167  0.3982 -0.1997
  126OSM    H8F13432   1.434   4.682   4.531  0.5901  1.1240 -0.0999
  126OSM    H8G13433   1.289   4.611   4.468 -0.0922  0.2483  1.2686
  126OSM    C9F13434   1.250   4.787   4.597 -0.0160 -0.7414  0.3501
  126OSM    H9F13435   1.246   4.894   4.574 -0.9863 -1.0926 -1.2557
  126OSM   C10F13436   1.197   4.735   4.707  0.1780 -0.0411 -1.0860
  126OSM   H10F13437   1.141   4.812   4.762  0.1503  0.2022 -1.4510
  126OSM   C11F13438   1.203   4.596   4.768 -0.4022 -0.3942 -0.0870
  126OSM   H11F13439   1.231   4.526   4.687 -0.2511  0.6362 -0.9376
  126OSM   H11G13440   1.106   4.555   4.805 -0.3397  0.2662  0.8456
  126OSM   C12F13441   1.316   4.582   4.876 -0.1892 -0.0449 -0.8248
  126OSM   H12F13442   1.293   4.653   4.959 -2.3625 -1.9585  0.3360
  126OSM   H12G13443   1.412   4.615   4.831  0.2891 -0.2336  0.0264
  126OSM   C13F13444   1.320   4.442   4.944 -0.0572 -0.5779 -0.0128
  126OSM   H13F13445   1.316   4.355   4.874  0.9310 -2.0209  1.6434
  126OSM   H13G13446   1.224   4.436   4.999 -0.4802 -0.0306 -0.6610
  126OSM   C14F13447   1.441   4.448   5.043  0.5380  0.4773 -0.2078
  126OSM   H14F13448   1.426   4.531   5.116  0.7993  0.1917  0.1695
  126OSM   H14G13449   1.532   4.461   4.981 -1.0535 -2.3968 -3.4652
  126OSM   C15F13450   1.444   4.328   5.145 -0.1517  0.1068  0.9284
  126OSM   H15F13451   1.447   4.233   5.087  0.6432 -0.2771  1.5728
  126OSM   H15G13452   1.354   4.325   5.209 -1.1326  0.9649 -0.3475
  126OSM   C16F13453   1.575   4.341   5.227 -0.2334  0.2386  0.9812
  126OSM   H16F13454   1.560   4.420   5.303 -0.4069 -0.5195  1.7435
  126OSM   H16G13455   1.659   4.369   5.160  0.4830  0.0300  1.7687
  126OSM   C17F13456   1.631   4.219   5.303 -0.3483  0.5188  0.4039
  126OSM   H17F13457   1.724   4.247   5.357  0.6619 -0.1716 -0.8958
  126OSM   H17G13458   1.655   4.143   5.226 -0.4238 -1.7173  2.4817
  126OSM   C18F13459   1.531   4.163   5.405  0.2673  0.0334 -0.6551
  126OSM   H18F13460   1.439   4.136   5.350 -0.8632  1.8563  0.2399
  126OSM   H18G13461   1.498   4.235   5.483 -1.2900 -2.5790  1.2491
  126OSM   H18H13462   1.572   4.080   5.466  1.2608  1.1927  0.3182
  127OSM      N13463   2.163   6.866   2.831 -0.2973  0.0836 -0.5709
  127OSM    C1513464   2.019   6.892   2.851  0.2940  0.1235 -0.2629
  127OSM   H15A13465   2.004   6.962   2.932  0.8600 -0.8891  0.7423
  127OSM   H15B13466   1.956   6.810   2.882 -0.0695  0.5426  0.1220
  127OSM   H15C13467   1.986   6.937   2.758 -0.7884 -0.6869 -0.2899
  127OSM    C1413468   2.223   6.992   2.766  0.9528  0.8986 -0.0176
  127OSM   H14A13469   2.329   6.975   2.754  0.4821 -2.3701 -0.4163
  127OSM   H14B13470   2.194   7.075   2.829 -0.1169  1.9356 -1.7545
  127OSM   H14C13471   2.190   7.022   2.667  2.5020  0.3800 -0.7153
  127OSM    C1313472   2.228   6.849   2.960 -0.8069  0.6689 -0.1647
  127OSM   H13A13473   2.206   6.938   3.018 -0.1346  0.6526  0.1309
  127OSM   H13B13474   2.336   6.846   2.956 -0.6682  0.7694  2.0720
  127OSM   H13C13475   2.195   6.761   3.013 -1.2651  0.9808  0.0743
  127OSM    C1213476   2.186   6.745   2.747  0.1164  0.1181  0.5900
  127OSM   H12A13477   2.151   6.752   2.646  2.0339  0.6368 -0.0759
  127OSM   H12B13478   2.127   6.665   2.791 -0.5801  0.0177 -0.5023
  127OSM    C1113479   2.331   6.692   2.736 -0.0772 -0.1235  0.4619
  127OSM   H11A13480   2.396   6.782   2.735 -3.0583  2.2064 -0.9648
  127OSM   H11B13481   2.349   6.649   2.635  2.7225  2.8884 -0.4858
  127OSM      P13482   2.340   6.451   2.821 -0.0993 -0.0512  0.1293
  127OSM    O1313483   2.213   6.415   2.760  0.3380  0.2309  0.1715
  127OSM    O1413484   2.459   6.392   2.755  0.4260  0.2189 -0.3227
  127OSM    O1113485   2.331   6.414   2.977 -0.5109  0.1080  0.3630
  127OSM    O1213486   2.367   6.601   2.837 -0.1373  0.1371 -0.1391
  127OSM    C1S13487   2.380   6.506   3.074  0.3969  0.2052  0.0060
  127OSM    H1S13488   2.331   6.604   3.055 -1.4291 -0.9324 -1.5869
  127OSM    H1T13489   2.491   6.511   3.069  0.4045 -0.1498 -0.1498
  127OSM     NF13490   2.353   6.579   3.309 -0.0785 -0.3226  0.3484
  127OSM    HNF13491   2.423   6.582   3.380  0.3760 -1.5879 -0.0218
  127OSM    C2S13492   2.351   6.461   3.219  0.9037  0.0915  0.5776
  127OSM    H2S13493   2.245   6.429   3.217  0.8542  0.2593 -1.2740
  127OSM    C3S13494   2.443   6.349   3.259 -0.1362  0.8116 -0.4346
  127OSM    H3S13495   2.545   6.392   3.262  0.3215 -0.1769 -1.1519
  127OSM     O313496   2.457   6.253   3.159 -0.1014 -0.8167 -0.5673
  127OSM    HO313497   2.418   6.291   3.080  0.4165 -0.5322 -0.6929
  127OSM    C4S13498   2.398   6.285   3.394  0.8055  0.5547 -0.1121
  127OSM    H4S13499   2.443   6.337   3.480 -0.8776  0.0378  1.1357
  127OSM    C5S13500   2.326   6.171   3.414  0.1706  0.1229 -0.1889
  127OSM    H5S13501   2.291   6.113   3.328 -1.2351  2.6608 -1.4626
  127OSM    C6S13502   2.295   6.104   3.544 -0.1200  0.1950  0.1516
  127OSM    H6S13503   2.381   6.035   3.558 -0.8196 -0.9352 -0.8876
  127OSM    H6T13504   2.204   6.042   3.532 -0.4653  0.5278  0.9784
  127OSM    C7S13505   2.279   6.193   3.662 -0.0404 -0.3962 -0.2240
  127OSM    H7S13506   2.225   6.288   3.641 -0.3931 -0.4278  0.5190
  127OSM    H7T13507   2.382   6.220   3.692  0.1703 -1.9802  0.5802
  127OSM    C8S13508   2.211   6.130   3.787 -0.2503  0.1039  0.1966
  127OSM    H8S13509   2.268   6.039   3.816 -0.4295  0.0621  0.4152
  127OSM    H8T13510   2.108   6.101   3.757 -0.0947  0.8606 -1.1391
  127OSM    C9S13511   2.213   6.223   3.913 -0.3227  0.7314  0.5121
  127OSM    H9S13512   2.181   6.326   3.885  1.6218  1.7795  1.8721
  127OSM    H9T13513   2.318   6.252   3.936 -1.4514  2.6840  3.9003
  127OSM   C10S13514   2.138   6.172   4.032 -0.0084  0.0132 -0.5852
  127OSM   H10S13515   2.175   6.074   4.070 -0.4847 -0.8673 -2.2861
  127OSM   H10T13516   2.031   6.149   4.013  0.1268  0.2381 -1.7009
  127OSM   C11S13517   2.163   6.262   4.152 -0.3847  0.0794  0.1959
  127OSM   H11S13518   2.139   6.370   4.142 -2.2748  0.0209  3.0041
  127OSM   H11T13519   2.274   6.252   4.161 -0.6076 -0.5052  4.5754
  127OSM   C12S13520   2.085   6.230   4.281 -0.3990  0.0496 -0.2087
  127OSM   H12S13521   2.089   6.119   4.295 -1.6270 -0.0188 -0.2843
  127OSM   H12T13522   1.976   6.247   4.268  0.0552  1.6762 -2.5871
  127OSM   C13S13523   2.141   6.288   4.410 -1.2994  0.3854  0.1247
  127OSM   H13S13524   2.190   6.384   4.384  2.2359 -1.2169  0.2797
  127OSM   H13T13525   2.230   6.229   4.439 -0.6034  0.5671 -1.5195
  127OSM   C14S13526   2.036   6.292   4.516  0.0332 -0.3754 -0.1394
  127OSM   H14S13527   1.989   6.191   4.518 -1.3240  0.2346  1.1129
  127OSM   H14T13528   1.966   6.372   4.483  1.9277  0.2099 -3.0582
  127OSM   C15S13529   2.105   6.322   4.649 -0.8835 -0.4971 -0.2309
  127OSM   H15S13530   2.177   6.403   4.624 -0.5489 -1.3361 -2.2626
  127OSM   H15T13531   2.161   6.233   4.685  0.3274  1.8561  4.3800
  127OSM   C16S13532   2.026   6.355   4.778  0.0427  0.1559 -0.3585
  127OSM   H16S13533   1.969   6.450   4.767 -0.5853 -0.3509 -1.7750
  127OSM   H16T13534   2.103   6.355   4.857  0.2758 -1.5783 -0.5596
  127OSM   C17S13535   1.916   6.249   4.804 -0.4527 -0.2924 -0.5061
  127OSM   H17S13536   1.958   6.146   4.796  0.3075 -0.1271  1.0984
  127OSM   H17T13537   1.831   6.263   4.734  0.9181  1.0133 -2.0013
  127OSM   C18S13538   1.849   6.270   4.945 -0.4264  1.0421 -0.1365
  127OSM   H18S13539   1.778   6.356   4.945 -2.6029 -0.6719 -0.0192
  127OSM   H18T13540   1.919   6.291   5.029 -2.5995  1.4093  1.6659
  127OSM   H18U13541   1.780   6.185   4.964  0.3985 -0.5133 -3.3933
  127OSM    C1F13542   2.271   6.681   3.292 -0.6026  0.0485  0.1193
  127OSM     OF13543   2.167   6.665   3.233  0.6299 -0.3805  0.1968
  127OSM    C2F13544   2.306   6.817   3.345  0.2223  0.9220 -0.6441
  127OSM    H2F13545   2.222   6.849   3.410 -0.4577  1.7284 -1.8668
  127OSM    H2G13546   2.307   6.873   3.248  2.9537  0.9304 -0.6739
  127OSM    C3F13547   2.423   6.821   3.441 -0.7881 -0.2546  0.0312
  127OSM    H3F13548   2.521   6.779   3.411  0.1432 -0.2088  2.7793
  127OSM    H3G13549   2.398   6.771   3.536 -0.6330 -0.2389  0.0797
  127OSM    C4F13550   2.472   6.966   3.490  0.1805 -0.6323 -0.6244
  127OSM    H4F13551   2.497   7.032   3.404  1.7120 -2.1825 -1.4267
  127OSM    H4G13552   2.561   6.946   3.555  1.0180  0.4856 -1.3869
  127OSM    C5F13553   2.368   7.044   3.581 -0.4119  1.1886  0.4346
  127OSM    H5F13554   2.265   7.016   3.549  0.2796 -1.1494  0.0936
  127OSM    H5G13555   2.385   7.154   3.572  1.9769  0.6711 -3.5420
  127OSM    C6F13556   2.393   7.001   3.721 -0.5567 -0.1426 -0.0865
  127OSM    H6F13557   2.500   7.024   3.740 -0.1833 -0.7487 -1.3313
  127OSM    H6G13558   2.377   6.891   3.728 -0.8262 -0.1678 -1.0287
  127OSM    C7F13559   2.311   7.085   3.827 -0.0769  0.0738  0.5534
  127OSM    H7F13560   2.218   7.032   3.856 -0.0574  0.1299  0.7145
  127OSM    H7G13561   2.280   7.176   3.771  1.1705  0.1091 -0.1383
  127OSM    C8F13562   2.394   7.130   3.950 -0.2566  0.2595 -0.0866
  127OSM    H8F13563   2.329   7.200   4.006 -3.7290 -1.1702 -1.9938
  127OSM    H8G13564   2.484   7.182   3.911 -0.6849  0.7768 -0.3976
  127OSM    C9F13565   2.424   7.004   4.033  0.4592 -0.1221 -0.4544
  127OSM    H9F13566   2.431   6.914   3.970 -2.0765  2.1237 -4.3837
  127OSM   C10F13567   2.424   7.002   4.170 -0.5808 -0.4238  0.1960
  127OSM   H10F13568   2.453   6.904   4.212 -1.5664 -1.3398 -1.1857
  127OSM   C11F13569   2.414   7.124   4.261 -0.2394  0.2097 -0.1439
  127OSM   H11F13570   2.323   7.100   4.321  0.4742  0.0423  0.9005
  127OSM   H11G13571   2.401   7.221   4.210 -0.1325 -0.3711 -1.3078
  127OSM   C12F13572   2.534   7.132   4.366 -0.0967  0.1730  0.0730
  127OSM   H12F13573   2.622   7.170   4.309 -0.3447  2.9847  1.3984
  127OSM   H12G13574   2.582   7.045   4.416  2.4009  1.8920  0.8562
  127OSM   C13F13575   2.497   7.226   4.480  0.7024  0.0186  0.1576
  127OSM   H13F13576   2.426   7.177   4.549  0.3936  2.0507  1.3713
  127OSM   H13G13577   2.433   7.311   4.449  1.2280  1.2912  2.3149
  127OSM   C14F13578   2.616   7.269   4.569 -0.1886 -0.5379 -0.2326
  127OSM   H14F13579   2.691   7.311   4.499  1.4014  1.1177  2.3013
  127OSM   H14G13580   2.659   7.171   4.599  1.7975 -0.3948 -2.3714
  127OSM   C15F13581   2.576   7.345   4.693  0.7761  0.3453  0.2739
  127OSM   H15F13582   2.511   7.293   4.766 -0.4606  0.3713 -0.7727
  127OSM   H15G13583   2.516   7.433   4.661 -0.6494 -0.4012  0.8507
  127OSM   C16F13584   2.687   7.410   4.766 -0.1731  0.6322 -0.3459
  127OSM   H16F13585   2.660   7.501   4.824  1.5450  1.0799 -0.1869
  127OSM   H16G13586   2.765   7.446   4.696  0.1659  3.2618  1.2547
  127OSM   C17F13587   2.753   7.321   4.878  1.2586 -0.5369  0.9198
  127OSM   H17F13588   2.770   7.222   4.830  0.5297  0.3558 -1.3298
  127OSM   H17G13589   2.673   7.306   4.953  0.0554 -0.4761 -0.3032
  127OSM   C18F13590   2.870   7.387   4.941  0.7063  0.1558 -0.1567
  127OSM   H18F13591   2.949   7.396   4.864  0.1943  0.4383 -0.6503
  127OSM   H18G13592   2.914   7.328   5.025 -1.1629  1.6154  1.9722
  127OSM   H18H13593   2.848   7.490   4.978  1.5520 -0.1676  1.3316
  128OSM      N13594   1.986   5.070   2.731 -0.3400  0.3766 -0.1048
  128OSM    C1513595   1.909   5.194   2.689  0.8929 -0.4878  0.4323
  128OSM   H15A13596   1.904   5.211   2.582  0.0869  2.1098  0.8109
  128OSM   H15B13597   1.941   5.281   2.744 -2.1378 -0.6738  2.6930
  128OSM   H15C13598   1.808   5.178   2.722  0.4792  2.3137  0.7755
  128OSM    C1413599   1.940   4.955   2.643  0.0654  0.0374  0.4227
  128OSM   H14A13600   1.941   4.980   2.538  1.9781  1.7725  0.7860
  128OSM   H14B13601   1.844   4.921   2.680  0.2848  0.1188  1.0864
  128OSM   H14C13602   2.007   4.870   2.652 -0.8816 -0.6943  0.7437
  128OSM    C1313603   2.130   5.088   2.690  0.4324 -0.0807  0.0044
  128OSM   H13A13604   2.131   5.121   2.587 -0.5708  2.7916  0.8387
  128OSM   H13B13605   2.183   4.995   2.707 -0.5870 -0.5063  0.9624
  128OSM   H13C13606   2.172   5.162   2.756  1.7272 -2.8665  2.5516
  128OSM    C1213607   1.973   5.057   2.878  0.9001  0.1949  0.5006
  128OSM   H12A13608   2.053   5.116   2.920  0.9945 -0.1120  0.7602
  128OSM   H12B13609   1.986   4.953   2.902 -2.0605 -0.4587 -0.3011
  128OSM    C1113610   1.829   5.088   2.938  0.4263  1.1630 -0.0447
  128OSM   H11A13611   1.792   5.188   2.909 -1.6948  0.2954 -0.4848
  128OSM   H11B13612   1.820   5.075   3.048 -2.2455 -2.1307 -0.4869
  128OSM      P13613   1.729   4.847   2.936  0.5714 -0.0600  0.0334
  128OSM    O1313614   1.643   4.755   2.857 -0.2361  0.0304 -0.0894
  128OSM    O1413615   1.867   4.803   2.965 -0.0312  0.1127  0.0675
  128OSM    O1113616   1.647   4.881   3.065  0.1212  0.6609 -0.1141
  128OSM    O1213617   1.751   4.990   2.870 -0.0948 -0.1177  0.1527
  128OSM    C1S13618   1.593   4.774   3.145  0.3620  0.0890 -0.5061
  128OSM    H1S13619   1.621   4.672   3.110 -1.5129 -0.8231  0.4635
  128OSM    H1T13620   1.483   4.770   3.130  0.2003 -0.9663  0.7417
  128OSM     NF13621   1.584   4.668   3.379  0.3671  0.1666  0.4873
  128OSM    HNF13622   1.505   4.666   3.440  0.3076 -2.4157  0.4215
  128OSM    C2S13623   1.616   4.794   3.299  0.1388  0.8388 -1.0714
  128OSM    H2S13624   1.725   4.812   3.305  0.0625  1.0262 -0.1264
  128OSM    C3S13625   1.548   4.923   3.348 -0.2396 -0.5349  0.3431
  128OSM    H3S13626   1.438   4.906   3.356 -0.6645  1.9127  0.2676
  128OSM     O313627   1.546   5.031   3.259 -0.1035 -0.2238  0.0554
  128OSM    HO313628   1.599   4.993   3.188 -0.3602  1.8915 -1.3389
  128OSM    C4S13629   1.594   4.970   3.489 -0.3635  0.2993 -0.3778
  128OSM    H4S13630   1.545   4.911   3.568  0.4859  0.4084  0.2351
  128OSM    C5S13631   1.691   5.058   3.516  0.0548 -0.2713 -0.0051
  128OSM    H5S13632   1.728   5.118   3.432 -1.6814  0.5283 -0.2398
  128OSM    C6S13633   1.737   5.093   3.652 -0.6890 -0.5270 -0.0465
  128OSM    H6S13634   1.739   5.204   3.660  1.1260 -0.5157 -0.3548
  128OSM    H6T13635   1.847   5.078   3.653 -0.6053  0.0098  1.1030
  128OSM    C7S13636   1.663   5.012   3.765  0.1355  0.5060 -0.6630
  128OSM    H7S13637   1.679   4.902   3.765  3.7021  0.8580  1.9789
  128OSM    H7T13638   1.554   5.030   3.766 -0.3025 -1.8712  0.6592
  128OSM    C8S13639   1.708   5.063   3.899 -0.3004 -0.3876  0.6078
  128OSM    H8S13640   1.697   5.174   3.898 -1.1429 -0.4421 -1.1183
  128OSM    H8T13641   1.814   5.031   3.906  0.3503  1.0249 -1.6749
  128OSM    C9S13642   1.636   5.007   4.013  0.6086  0.4754  0.3731
  128OSM    H9S13643   1.654   4.898   4.023  0.7520  0.2758 -1.5516
  128OSM    H9T13644   1.526   5.021   4.012  0.4359 -0.6896  1.3663
  128OSM   C10S13645   1.687   5.074   4.144  0.3829 -0.2815 -0.0244
  128OSM   H10S13646   1.674   5.181   4.119  0.7892 -0.7773 -2.6724
  128OSM   H10T13647   1.789   5.049   4.181 -0.2507 -1.5625  0.9516
  128OSM   C11S13648   1.590   5.053   4.264 -0.0814  1.0635  0.4109
  128OSM   H11S13649   1.600   4.947   4.293 -1.1392  1.1514  1.1527
  128OSM   H11T13650   1.487   5.067   4.225 -1.1098  0.6025  2.7814
  128OSM   C12S13651   1.611   5.132   4.389  0.2364 -0.0449  0.4903
  128OSM   H12S13652   1.521   5.183   4.428  1.0602 -0.1116  2.6502
  128OSM   H12T13653   1.684   5.205   4.350  0.4426  0.6403  2.1008
  128OSM   C13S13654   1.682   5.055   4.507  0.3266 -0.6035  0.3438
  128OSM   H13S13655   1.706   5.132   4.583  3.5877  1.4189 -2.3907
  128OSM   H13T13656   1.774   5.013   4.460  0.6374  1.1919 -0.7314
  128OSM   C14S13657   1.595   4.945   4.570  0.4252 -0.3825 -0.0870
  128OSM   H14S13658   1.585   4.862   4.498 -3.7875 -1.2151  1.1997
  128OSM   H14T13659   1.493   4.987   4.581  0.6561  0.0771  0.3469
  128OSM   C15S13660   1.635   4.879   4.711  0.0987 -0.1094 -0.3866
  128OSM   H15S13661   1.744   4.882   4.728  0.2170 -1.0263 -0.9332
  128OSM   H15T13662   1.610   4.771   4.703 -1.1342 -0.0102  1.4506
  128OSM   C16S13663   1.550   4.933   4.832 -0.0956  0.3768 -0.3073
  128OSM   H16S13664   1.448   4.897   4.810  0.1749 -1.5047  1.2288
  128OSM   H16T13665   1.554   5.044   4.837 -4.6843  0.6506  2.2520
  128OSM   C17S13666   1.592   4.872   4.967 -0.1853  0.2484  0.5921
  128OSM   H17S13667   1.679   4.930   5.003  0.2859 -0.8464  1.2530
  128OSM   H17T13668   1.614   4.763   4.960 -2.7182 -0.3616  1.2160
  128OSM   C18S13669   1.494   4.886   5.086  0.2293 -0.2245  0.9185
  128OSM   H18S13670   1.411   4.819   5.057  0.4840 -0.5581  0.9487
  128OSM   H18T13671   1.463   4.992   5.095  1.0431  0.1835 -0.6863
  128OSM   H18U13672   1.542   4.845   5.177  1.2655  0.5117  0.7309
  128OSM    C1F13673   1.632   4.545   3.358  0.5505  0.1509 -0.3739
  128OSM     OF13674   1.708   4.522   3.268  0.2499  0.3335  0.6412
  128OSM    C2F13675   1.592   4.447   3.463  0.1663 -0.0118  0.5884
  128OSM    H2F13676   1.547   4.362   3.408 -1.2069  0.0519  1.5797
  128OSM    H2G13677   1.515   4.475   3.538 -1.6649 -0.7333 -0.9344
  128OSM    C3F13678   1.712   4.385   3.540 -0.0079 -0.1929 -0.3185
  128OSM    H3F13679   1.777   4.336   3.464 -1.8231 -0.1894 -1.9535
  128OSM    H3G13680   1.674   4.304   3.606  1.1369  0.1222  0.7755
  128OSM    C4F13681   1.801   4.488   3.609 -0.3526 -0.4413 -0.0039
  128OSM    H4F13682   1.872   4.528   3.533  0.9592  0.9768  1.8798
  128OSM    H4G13683   1.863   4.443   3.689 -0.6251 -1.3248 -0.2871
  128OSM    C5F13684   1.731   4.605   3.690  0.4743 -0.4373 -0.1578
  128OSM    H5F13685   1.648   4.650   3.631  0.2389  0.2521  0.6826
  128OSM    H5G13686   1.814   4.675   3.716  1.2946 -0.6639 -1.9499
  128OSM    C6F13687   1.677   4.556   3.826 -0.3920  0.6164  0.4157
  128OSM    H6F13688   1.586   4.493   3.821  0.5513 -0.7109 -1.3888
  128OSM    H6G13689   1.638   4.648   3.874  0.2146  0.9723  0.2351
  128OSM    C7F13690   1.780   4.472   3.914  0.1386  0.1182 -0.1089
  128OSM    H7F13691   1.795   4.371   3.872 -0.4698 -0.3486  0.7662
  128OSM    H7G13692   1.719   4.450   4.004  1.7090 -1.3305  0.6345
  128OSM    C8F13693   1.909   4.548   3.948 -0.0328 -0.2419  0.2706
  128OSM    H8F13694   1.977   4.559   3.861 -0.7843 -0.5010 -0.3597
  128OSM    H8G13695   1.973   4.486   4.015 -0.9405 -0.9333  0.5146
  128OSM    C9F13696   1.895   4.692   4.000 -0.0421  0.5564 -0.3461
  128OSM    H9F13697   1.931   4.776   3.940 -1.6208 -0.1370 -2.3432
  128OSM   C10F13698   1.867   4.709   4.128  1.2584 -0.5494  0.1737
  128OSM   H10F13699   1.874   4.812   4.166  1.3867  0.0202 -1.3287
  128OSM   C11F13700   1.831   4.609   4.236 -0.2406  0.4810 -0.0114
  128OSM   H11F13701   1.893   4.618   4.329  1.7138  1.7706 -1.3520
  128OSM   H11G13702   1.860   4.507   4.203 -0.6613  0.0828  0.7988
  128OSM   C12F13703   1.682   4.630   4.277  0.1573 -0.7127  0.2968
  128OSM   H12F13704   1.617   4.639   4.187 -1.5185  0.1825  1.5518
  128OSM   H12G13705   1.670   4.728   4.328 -0.3510  0.3119 -1.6764
  128OSM   C13F13706   1.626   4.513   4.363  0.4264  0.6419  0.2892
  128OSM   H13F13707   1.657   4.418   4.314  1.9058  1.4480 -0.4154
  128OSM   H13G13708   1.515   4.515   4.370  0.3950 -1.6492  1.5315
  128OSM   C14F13709   1.689   4.516   4.503  0.6656  0.2375  0.1349
  128OSM   H14F13710   1.677   4.625   4.524 -0.5167  0.0286  0.6181
  128OSM   H14G13711   1.792   4.477   4.490  0.0199 -0.8130 -2.2413
  128OSM   C15F13712   1.611   4.449   4.614 -0.1285 -0.2380 -0.3352
  128OSM   H15F13713   1.504   4.476   4.600 -0.3179 -1.0574 -0.5532
  128OSM   H15G13714   1.631   4.491   4.714 -2.9365 -1.5518  0.8720
  128OSM   C16F13715   1.634   4.297   4.618 -0.1167  0.0102 -0.6459
  128OSM   H16F13716   1.733   4.296   4.668  0.1277  1.3630 -1.0601
  128OSM   H16G13717   1.634   4.257   4.514  1.0971 -0.7101 -0.3846
  128OSM   C17F13718   1.535   4.236   4.716 -0.9559 -0.4485 -0.2329
  128OSM   H17F13719   1.437   4.287   4.720 -0.3111  0.7707  2.0803
  128OSM   H17G13720   1.577   4.233   4.819 -2.6660 -2.2191  0.4773
  128OSM   C18F13721   1.507   4.085   4.684 -0.1088  0.4317  0.1003
  128OSM   H18F13722   1.600   4.033   4.715  0.3246  1.6685  0.9812
  128OSM   H18G13723   1.481   4.076   4.577  1.3434 -0.5517 -0.1971
  128OSM   H18H13724   1.414   4.049   4.733 -1.7710  1.2948 -2.2530
  129OSM      N13725   3.582   3.027   3.463  0.7647 -0.5357  0.3158
  129OSM    C1513726   3.437   3.010   3.428 -0.2411 -0.2065 -0.9631
  129OSM   H15A13727   3.379   3.076   3.490  0.3421  0.8782 -1.5447
  129OSM   H15B13728   3.401   2.910   3.448  0.4878 -0.4382 -0.7588
  129OSM   H15C13729   3.414   3.038   3.326 -0.5765 -1.1430 -1.1505
  129OSM    C1413730   3.627   3.160   3.424 -0.7206 -1.0436 -0.0904
  129OSM   H14A13731   3.716   3.186   3.480 -0.1607 -1.2984 -0.8445
  129OSM   H14B13732   3.562   3.243   3.448  1.1686 -0.1028  2.2516
  129OSM   H14C13733   3.650   3.164   3.319  2.4059  0.3327  0.5297
  129OSM    C1313734   3.593   3.009   3.607  0.2697  0.4808  0.4135
  129OSM   H13A13735   3.550   2.917   3.643 -1.0442  0.8959 -0.0121
  129OSM   H13B13736   3.525   3.084   3.645 -1.7257 -0.2693 -1.4639
  129OSM   H13C13737   3.684   3.038   3.657 -0.1737  1.6417  0.5886
  129OSM    C1213738   3.667   2.919   3.403  0.5350  0.1065  0.3811
  129OSM   H12A13739   3.621   2.822   3.415  1.8285 -0.4649  0.9615
  129OSM   H12B13740   3.757   2.923   3.463  0.6556 -0.5706  0.2505
  129OSM    C1113741   3.711   2.939   3.262  0.2107 -0.0821 -0.3294
  129OSM   H11A13742   3.626   2.971   3.197  1.5507 -0.9932 -2.6578
  129OSM   H11B13743   3.751   2.846   3.216 -0.9515 -1.4650  1.3588
  129OSM      P13744   3.956   3.029   3.290  0.1305 -0.2706 -0.0342
  129OSM    O1313745   4.016   2.943   3.184 -0.7778 -0.0174  0.2745
  129OSM    O1413746   4.007   3.161   3.322 -0.5881  0.1948  0.0496
  129OSM    O1113747   3.941   2.945   3.421 -0.0771 -0.4418 -0.3933
  129OSM    O1213748   3.804   3.047   3.259  0.0780  0.2163  0.7174
  129OSM    C1S13749   3.971   2.986   3.558 -0.3214  0.4366  0.7716
  129OSM    H1S13750   3.884   3.042   3.599 -1.3694  0.4939 -1.3942
  129OSM    H1T13751   4.055   3.058   3.567  1.1329 -1.1951  0.7268
  129OSM     NF13752   4.025   2.932   3.779 -0.1475  0.1462  0.3103
  129OSM    HNF13753   4.094   3.003   3.790 -1.7256  2.1516 -1.7571
  129OSM    C2S13754   4.026   2.876   3.648  0.1786 -0.1997 -0.2111
  129OSM    H2S13755   3.963   2.784   3.649  1.6691 -1.2676 -0.1803
  129OSM    C3S13756   4.165   2.829   3.604 -0.0760 -0.2744  0.3882
  129OSM    H3S13757   4.220   2.925   3.608 -1.9652  0.8731  0.0388
  129OSM     O313758   4.174   2.780   3.469 -0.0161 -0.0837 -0.2901
  129OSM    HO313759   4.080   2.792   3.451  0.0065  1.9371  0.6680
  129OSM    C4S13760   4.239   2.733   3.702 -0.4951 -0.7443  0.0165
  129OSM    H4S13761   4.168   2.671   3.759  0.1409 -1.5709 -0.0803
  129OSM    C5S13762   4.373   2.718   3.713  0.3161 -0.3271  0.3375
  129OSM    H5S13763   4.437   2.787   3.655 -1.4328  0.6111 -0.5631
  129OSM    C6S13764   4.436   2.613   3.799  0.4609 -0.1068  0.1215
  129OSM    H6S13765   4.540   2.601   3.763  0.7518  0.1325  0.8632
  129OSM    H6T13766   4.386   2.520   3.766 -0.1743  0.1033  0.4611
  129OSM    C7S13767   4.421   2.638   3.948  1.0053  0.2640 -0.3261
  129OSM    H7S13768   4.314   2.644   3.979  1.1330 -0.3230  0.2451
  129OSM    H7T13769   4.457   2.741   3.971 -0.2033  1.1221 -2.0530
  129OSM    C8S13770   4.487   2.534   4.036 -0.2761  0.1068 -0.0231
  129OSM    H8S13771   4.593   2.534   4.003 -0.4191  3.1111 -0.7389
  129OSM    H8T13772   4.440   2.437   4.011 -1.1628  1.2254 -3.1503
  129OSM    C9S13773   4.497   2.562   4.187 -0.3365  0.4471 -0.5615
  129OSM    H9S13774   4.395   2.567   4.229 -0.4904  0.9942 -0.9808
  129OSM    H9T13775   4.555   2.655   4.208 -1.6858  1.2806 -0.3651
  129OSM   C10S13776   4.561   2.450   4.270 -0.2735 -0.6605 -0.6895
  129OSM   H10S13777   4.666   2.434   4.238  0.5684  2.7963 -0.1475
  129OSM   H10T13778   4.504   2.356   4.256 -2.2194  0.5428 -1.2240
  129OSM   C11S13779   4.558   2.489   4.421 -0.3776  0.3147  0.8509
  129OSM   H11S13780   4.452   2.505   4.453 -0.4824  0.0473  0.6385
  129OSM   H11T13781   4.609   2.583   4.451 -0.1083  0.5201 -0.2156
  129OSM   C12S13782   4.589   2.372   4.515  0.2468 -0.2209  0.0683
  129OSM   H12S13783   4.695   2.341   4.510  0.0845 -0.7804 -0.0216
  129OSM   H12T13784   4.537   2.281   4.479  0.9327 -0.7601  0.4130
  129OSM   C13S13785   4.544   2.408   4.653 -0.4209  0.7840  0.5073
  129OSM   H13S13786   4.433   2.417   4.655 -0.9334 -3.6977  0.7179
  129OSM   H13T13787   4.591   2.504   4.686 -0.1686  1.2163 -1.0558
  129OSM   C14S13788   4.580   2.308   4.761 -0.3147  0.0061 -0.1732
  129OSM   H14S13789   4.690   2.296   4.748 -0.1302  2.0689 -0.7213
  129OSM   H14T13790   4.539   2.205   4.745  1.3445 -0.7324  0.1237
  129OSM   C15S13791   4.557   2.367   4.901 -0.6051 -0.2384 -0.5929
  129OSM   H15S13792   4.600   2.469   4.911 -1.4331  0.1836 -1.2229
  129OSM   H15T13793   4.617   2.303   4.969 -1.0911 -0.7564 -0.6422
  129OSM   C16S13794   4.412   2.360   4.951  0.5065  1.0312 -0.3984
  129OSM   H16S13795   4.375   2.258   4.973  1.1390  0.4790 -1.8201
  129OSM   H16T13796   4.348   2.392   4.866  0.9549 -1.7429 -1.8753
  129OSM   C17S13797   4.394   2.449   5.073 -0.5756 -0.3834  0.4470
  129OSM   H17S13798   4.292   2.493   5.076 -0.1502  0.7556 -0.6061
  129OSM   H17T13799   4.470   2.529   5.063 -1.7821  0.6312 -1.1015
  129OSM   C18S13800   4.425   2.386   5.206 -0.2777 -0.5556  0.3036
  129OSM   H18S13801   4.531   2.354   5.219 -0.5932 -1.3508  1.0280
  129OSM   H18T13802   4.377   2.286   5.207 -0.1428 -0.6938 -2.0848
  129OSM   H18U13803   4.384   2.457   5.281 -0.4933  1.0491 -1.2734
  129OSM    C1F13804   3.914   2.949   3.860 -0.1571  0.1076  0.5383
  129OSM     OF13805   3.804   2.905   3.819  0.5080 -0.1701  0.6987
  129OSM    C2F13806   3.939   3.007   3.996  0.1607 -0.5284  0.2280
  129OSM    H2F13807   3.875   3.097   4.008  0.7352  0.0424 -0.8037
  129OSM    H2G13808   4.048   3.032   3.998  0.0216  0.0780  0.7083
  129OSM    C3F13809   3.920   2.913   4.117 -0.3049 -0.5454 -0.4040
  129OSM    H3F13810   3.953   2.810   4.094 -0.9727 -0.5332 -1.4840
  129OSM    H3G13811   3.810   2.918   4.137 -0.2218  3.5129 -0.0240
  129OSM    C4F13812   3.993   2.964   4.244  0.1595  0.5657 -0.3245
  129OSM    H4F13813   3.954   3.063   4.275 -2.0660 -0.5823  0.7880
  129OSM    H4G13814   4.100   2.970   4.212 -0.0005  0.9950 -0.7945
  129OSM    C5F13815   3.952   2.873   4.363  0.5265 -0.1149 -0.6253
  129OSM    H5F13816   3.960   2.767   4.333 -0.0569  0.0006 -1.2228
  129OSM    H5G13817   3.845   2.894   4.389  1.2703  0.3056  2.5746
  129OSM    C6F13818   4.034   2.889   4.490 -0.3845 -0.0791 -0.6610
  129OSM    H6F13819   3.992   2.963   4.561 -1.8927 -2.8023  1.4710
  129OSM    H6G13820   4.138   2.900   4.454 -0.4741 -0.1672 -0.9556
  129OSM    C7F13821   4.036   2.752   4.565 -0.6083 -0.4752  0.5130
  129OSM    H7F13822   4.047   2.674   4.486 -1.7306 -0.1109 -0.0188
  129OSM    H7G13823   3.936   2.733   4.608 -1.4361  2.2639 -0.0142
  129OSM    C8F13824   4.154   2.753   4.665  0.7123 -0.4952 -0.0046
  129OSM    H8F13825   4.239   2.803   4.614  0.6950  0.3119  0.7335
  129OSM    H8G13826   4.190   2.648   4.677 -0.7571 -0.8304  2.1598
  129OSM    C9F13827   4.103   2.813   4.797  0.2352 -0.3377 -0.5439
  129OSM    H9F13828   4.131   2.919   4.809  1.2322 -0.8183  2.2620
  129OSM   C10F13829   4.063   2.750   4.908  0.6557 -0.0947 -0.0137
  129OSM   H10F13830   4.041   2.811   4.997  0.5000 -0.5369  0.2569
  129OSM   C11F13831   4.044   2.599   4.919  0.3414 -0.0620  0.3036
  129OSM   H11F13832   4.083   2.566   5.017 -0.6809 -0.0005  0.7463
  129OSM   H11G13833   4.091   2.546   4.833 -0.8281  1.4101 -1.3258
  129OSM   C12F13834   3.897   2.557   4.916 -1.0414  0.1978  0.4069
  129OSM   H12F13835   3.863   2.591   4.816 -2.0443 -1.3035  0.2062
  129OSM   H12G13836   3.835   2.611   4.991 -0.7325  1.5989 -0.3122
  129OSM   C13F13837   3.869   2.402   4.930  0.6506 -0.0429 -0.2630
  129OSM   H13F13838   3.915   2.338   4.852  1.6794 -3.1959  2.6580
  129OSM   H13G13839   3.759   2.390   4.918  0.6171  0.2279 -0.2312
  129OSM   C14F13840   3.920   2.339   5.057 -0.1297 -1.0206  0.4992
  129OSM   H14F13841   4.030   2.350   5.064  0.1659 -4.0169  2.1632
  129OSM   H14G13842   3.899   2.230   5.051  1.3258 -1.2582 -1.2475
  129OSM   C15F13843   3.852   2.392   5.183  0.3393 -0.0101 -0.3253
  129OSM   H15F13844   3.741   2.392   5.171  0.4411  0.2201 -1.2778
  129OSM   H15G13845   3.875   2.498   5.210 -0.3774  0.1417 -0.2815
  129OSM   C16F13846   3.900   2.306   5.305 -0.0574  0.5734 -0.0399
  129OSM   H16F13847   3.882   2.366   5.397 -1.5469  2.8804 -1.6957
  129OSM   H16G13848   4.009   2.294   5.287  0.2055 -2.9334  2.8363
  129OSM   C17F13849   3.828   2.170   5.313 -0.6752 -0.3405  0.4085
  129OSM   H17F13850   3.859   2.106   5.228  2.2254  1.4639 -0.0284
  129OSM   H17G13851   3.720   2.198   5.310 -0.4168  0.8198  1.0026
  129OSM   C18F13852   3.844   2.099   5.451  0.2220  0.5147  0.6772
  129OSM   H18F13853   3.782   2.163   5.517 -1.9807 -1.4734  0.6492
  129OSM   H18G13854   3.951   2.103   5.483  0.1730 -2.0598  1.3653
  129OSM   H18H13855   3.813   1.993   5.454  1.2334  0.2241  2.1728
  130OSM      N13856   3.515   0.049   2.680 -0.3936 -0.1850 -0.1944
  130OSM    C1513857   3.559   0.056   2.538  0.1522 -0.4760 -0.3677
  130OSM   H15A13858   3.615  -0.032   2.511 -1.4310 -0.9409 -2.3767
  130OSM   H15B13859   3.627   0.139   2.527  1.2439 -0.6591  3.6452
  130OSM   H15C13860   3.479   0.079   2.469  0.8005 -1.6436 -1.5558
  130OSM    C1413861   3.411  -0.057   2.696  0.0744 -0.3414  0.4950
  130OSM   H14A13862   3.331  -0.056   2.623  0.8593  0.6818 -0.3990
  130OSM   H14B13863   3.367  -0.043   2.793  1.3491 -2.4723  1.4369
  130OSM   H14C13864   3.460  -0.153   2.699  1.0367  0.1582  2.0049
  130OSM    C1313865   3.637   0.001   2.760  0.3967  1.0433  0.2787
  130OSM   H13A13866   3.599   0.020   2.859  0.6966 -0.2952  0.6758
  130OSM   H13B13867   3.724   0.061   2.740  0.6493  0.3881 -0.6361
  130OSM   H13C13868   3.656  -0.105   2.749 -1.3430  0.4403  2.4104
  130OSM    C1213869   3.464   0.180   2.733 -0.4013  0.0978 -0.3562
  130OSM   H12A13870   3.397   0.220   2.658  1.0565  0.6571 -1.4046
  130OSM   H12B13871   3.544   0.252   2.730  0.0861 -0.4610 -1.4929
  130OSM    C1113872   3.407   0.179   2.874  0.4224  0.0979 -0.1648
  130OSM   H11A13873   3.326   0.104   2.868  1.9836 -1.6033 -0.7052
  130OSM   H11B13874   3.359   0.277   2.899 -0.9401 -0.8266  1.0285
  130OSM      P13875   3.621   0.265   2.999 -0.2033  0.0260 -0.2165
  130OSM    O1313876   3.709   0.218   3.111  0.5255 -0.0259 -0.9137
  130OSM    O1413877   3.681   0.315   2.873 -0.3888 -0.4949  0.1007
  130OSM    O1113878   3.525   0.383   3.042  0.5201 -0.0072  0.4110
  130OSM    O1213879   3.512   0.150   2.970 -0.3874  0.0020 -0.8260
  130OSM    C1S13880   3.429   0.364   3.149 -0.3416 -0.3014 -0.0114
  130OSM    H1S13881   3.378   0.265   3.151  0.3011 -0.6556 -0.4815
  130OSM    H1T13882   3.353   0.444   3.142  1.0564  1.0424 -0.3972
  130OSM     NF13883   3.411   0.332   3.393 -0.5251 -0.6302  0.6192
  130OSM    HNF13884   3.345   0.395   3.433  0.5922  0.6228  0.5255
  130OSM    C2S13885   3.491   0.387   3.291  0.3351  0.2055 -0.6965
  130OSM    H2S13886   3.588   0.333   3.301  0.1314  0.0260  0.5474
  130OSM    C3S13887   3.523   0.533   3.320  1.1140 -0.1724  0.2228
  130OSM    H3S13888   3.432   0.596   3.316  1.1038 -0.2302 -1.7433
  130OSM     O313889   3.605   0.586   3.214 -0.0646 -0.5034  0.0747
  130OSM    HO313890   3.604   0.510   3.156  3.1861  0.8561 -2.0373
  130OSM    C4S13891   3.583   0.558   3.454 -0.1124  0.0630  0.4799
  130OSM    H4S13892   3.690   0.531   3.459 -0.5545 -2.1325 -0.6202
  130OSM    C5S13893   3.524   0.601   3.565  0.1805  0.6520 -0.3146
  130OSM    H5S13894   3.422   0.642   3.560 -0.4789 -0.9793 -0.8646
  130OSM    C6S13895   3.579   0.618   3.705 -0.2373  0.0486  1.4254
  130OSM    H6S13896   3.585   0.725   3.734 -4.0278  0.3118  1.6328
  130OSM    H6T13897   3.685   0.584   3.700 -0.9480 -2.1880 -2.5548
  130OSM    C7S13898   3.502   0.525   3.809 -0.0157  0.1261 -0.7538
  130OSM    H7S13899   3.514   0.417   3.789  2.2363  0.2846 -0.5588
  130OSM    H7T13900   3.392   0.536   3.805 -0.0144  1.6684  1.5589
  130OSM    C8S13901   3.546   0.555   3.954 -0.0311 -0.3796  0.0036
  130OSM    H8S13902   3.534   0.664   3.970 -0.9427 -0.4164 -0.3927
  130OSM    H8T13903   3.650   0.520   3.973 -0.4066 -1.0543  0.9110
  130OSM    C9S13904   3.447   0.491   4.059  0.3398 -0.1841  0.6039
  130OSM    H9S13905   3.422   0.386   4.032  1.4196 -0.1933 -0.4714
  130OSM    H9T13906   3.351   0.545   4.053 -0.3464 -1.5086 -1.3073
  130OSM   C10S13907   3.508   0.500   4.204  0.4959 -0.1052 -0.1272
  130OSM   H10S13908   3.556   0.600   4.214  0.9082 -0.4523  1.7185
  130OSM   H10T13909   3.603   0.441   4.204  1.6945  1.6956  1.9128
  130OSM   C11S13910   3.415   0.468   4.324  0.3569 -0.9639  0.6718
  130OSM   H11S13911   3.333   0.396   4.302 -0.3828 -0.4966  1.8363
  130OSM   H11T13912   3.354   0.557   4.348 -0.5864 -0.9703 -1.4597
  130OSM   C12S13913   3.489   0.433   4.462  0.2227 -0.7934  0.1328
  130OSM   H12S13914   3.563   0.354   4.438 -0.2725 -1.0765 -0.5096
  130OSM   H12T13915   3.405   0.406   4.529  0.6202  1.9209  1.8590
  130OSM   C13S13916   3.550   0.554   4.529  0.2453 -1.4490 -0.0351
  130OSM   H13S13917   3.476   0.627   4.568 -0.1151 -1.7588 -0.1373
  130OSM   H13T13918   3.609   0.609   4.452 -2.8516  2.8314  0.2608
  130OSM   C14S13919   3.637   0.504   4.642 -0.0568  0.1353 -0.3326
  130OSM   H14S13920   3.712   0.439   4.592 -0.3626  0.4875 -1.2545
  130OSM   H14T13921   3.578   0.426   4.695  0.6519  1.4441  2.5946
  130OSM   C15S13922   3.701   0.610   4.735  0.4180 -0.2970  0.2929
  130OSM   H15S13923   3.611   0.663   4.772 -0.1738 -2.3717  2.0100
  130OSM   H15T13924   3.766   0.679   4.676 -1.1611 -0.2741 -1.5121
  130OSM   C16S13925   3.798   0.554   4.844  0.2276 -0.6508  0.2150
  130OSM   H16S13926   3.865   0.638   4.872 -0.9520  0.3876  0.0272
  130OSM   H16T13927   3.856   0.470   4.801  0.9801  0.4231 -0.9053
  130OSM   C17S13928   3.724   0.511   4.974  0.3167 -0.1945  0.8247
  130OSM   H17S13929   3.798   0.449   5.029 -0.1042  0.1067  1.7380
  130OSM   H17T13930   3.645   0.440   4.942  1.0844  0.2151 -2.3663
  130OSM   C18S13931   3.674   0.630   5.057  0.7224  0.9012 -0.4225
  130OSM   H18S13932   3.756   0.704   5.071 -0.2218  1.5748  1.9069
  130OSM   H18T13933   3.640   0.595   5.156 -1.6880 -0.7325 -1.7277
  130OSM   H18U13934   3.589   0.685   5.011  0.0169 -0.0058 -0.2266
  130OSM    C1F13935   3.387   0.204   3.404  0.0553 -0.1444  0.3875
  130OSM     OF13936   3.434   0.124   3.322 -0.1526 -0.4464  0.3504
  130OSM    C2F13937   3.303   0.154   3.515 -0.3183  0.1867 -0.3144
  130OSM    H2F13938   3.271   0.233   3.586 -0.8209 -0.9025  0.7153
  130OSM    H2G13939   3.360   0.069   3.559  2.1014  1.5640 -0.6199
  130OSM    C3F13940   3.172   0.092   3.458  0.7836  0.4708 -0.6308
  130OSM    H3F13941   3.172   0.001   3.395 -2.6358 -0.5995  0.6753
  130OSM    H3G13942   3.106   0.161   3.400 -1.9084  0.2404  1.8997
  130OSM    C4F13943   3.080   0.055   3.576  0.0274 -0.7269 -0.4124
  130OSM    H4F13944   3.076   0.135   3.654 -2.9271 -1.4007  0.2371
  130OSM    H4G13945   3.130  -0.033   3.622 -0.9883 -0.4579  1.3198
  130OSM    C5F13946   2.924   0.031   3.542  0.1490 -0.0109 -0.0606
  130OSM    H5F13947   2.922  -0.046   3.462 -0.9322 -0.0401 -0.0217
  130OSM    H5G13948   2.879   0.118   3.489 -1.9465 -0.8633  0.2109
  130OSM    C6F13949   2.834   0.001   3.663 -0.3624 -0.0658  0.3178
  130OSM    H6F13950   2.734  -0.029   3.623 -0.8843  0.6879  1.0301
  130OSM    H6G13951   2.817   0.093   3.722 -0.1020 -0.0931  0.4363
  130OSM    C7F13952   2.905  -0.107   3.745 -0.6169  0.2097  0.9770
  130OSM    H7F13953   3.001  -0.070   3.789  0.0910 -1.7579  1.1935
  130OSM    H7G13954   2.934  -0.194   3.682 -2.1727  0.4100 -0.0534
  130OSM    C8F13955   2.823  -0.176   3.861 -0.1680  0.3979  0.0652
  130OSM    H8F13956   2.887  -0.259   3.897  1.1309  0.7613 -1.3030
  130OSM    H8G13957   2.738  -0.235   3.821  1.2299 -1.9427  0.3166
  130OSM    C9F13958   2.768  -0.081   3.959  0.4986 -0.4604 -0.6693
  130OSM    H9F13959   2.690  -0.015   3.918  1.9042  1.2306 -0.7708
  130OSM   C10F13960   2.829  -0.056   4.073  0.3085  0.2749 -0.2071
  130OSM   H10F13961   2.792   0.020   4.142  2.0309 -0.7063  1.9043
  130OSM   C11F13962   2.942  -0.142   4.127 -0.3491 -0.1426 -0.1572
  130OSM   H11F13963   3.039  -0.087   4.127 -2.0613  3.1041 -0.7831
  130OSM   H11G13964   2.967  -0.232   4.067 -1.6854  0.1585 -1.2290
  130OSM   C12F13965   2.919  -0.209   4.271 -0.8578  0.2391  0.1877
  130OSM   H12F13966   2.941  -0.132   4.347  0.4507 -2.4575  2.7306
  130OSM   H12G13967   2.998  -0.286   4.279 -0.1570  0.9064 -0.1815
  130OSM   C13F13968   2.776  -0.259   4.299 -0.4648 -0.2969  0.1212
  130OSM   H13F13969   2.748  -0.328   4.216  0.6665 -0.0621 -0.4717
  130OSM   H13G13970   2.711  -0.169   4.301  0.0536  0.3262 -3.6413
  130OSM   C14F13971   2.772  -0.325   4.435  0.4234 -0.8243 -0.9535
  130OSM   H14F13972   2.861  -0.390   4.447 -0.0414 -1.5695 -1.4892
  130OSM   H14G13973   2.681  -0.389   4.443 -0.1587  0.0844 -0.0294
  130OSM   C15F13974   2.764  -0.218   4.545 -0.0704  0.3248  0.0551
  130OSM   H15F13975   2.682  -0.147   4.518 -1.7684 -1.1920  1.0447
  130OSM   H15G13976   2.862  -0.165   4.549  0.7556 -1.1717  0.4680
  130OSM   C16F13977   2.734  -0.275   4.679  0.3058  0.1796 -0.0285
  130OSM   H16F13978   2.806  -0.352   4.715  0.2802  0.9221  1.7495
  130OSM   H16G13979   2.633  -0.321   4.672  0.5602 -0.1773 -1.7306
  130OSM   C17F13980   2.730  -0.163   4.780  0.7381 -0.4439  0.0481
  130OSM   H17F13981   2.796  -0.085   4.737 -0.3628  1.7231  2.0018
  130OSM   H17G13982   2.772  -0.198   4.877  0.3785 -1.4958 -0.1674
  130OSM   C18F13983   2.592  -0.094   4.813  0.5414 -0.2077  0.2351
  130OSM   H18F13984   2.525  -0.054   4.734 -0.9567  0.5189  1.7915
  130OSM   H18G13985   2.607  -0.003   4.875 -2.0694  0.7009 -0.3510
  130OSM   H18H13986   2.532  -0.166   4.872  1.8894 -0.4664  1.3491
  131OSM      N13987   6.230   2.737   3.004 -0.2700  0.5061  1.0528
  131OSM    C1513988   6.226   2.593   3.014 -0.2349 -0.2433 -0.5284
  131OSM   H15A13989   6.141   2.550   2.963  0.1054 -0.9956 -0.4684
  131OSM   H15B13990   6.222   2.551   3.114 -1.8747  1.4809  0.1900
  131OSM   H15C13991   6.315   2.551   2.969  0.0714 -0.9227  0.6600
  131OSM    C1413992   6.218   2.762   2.857  0.3215 -0.2637  0.2345
  131OSM   H14A13993   6.203   2.868   2.840  0.8851 -0.2995 -0.5774
  131OSM   H14B13994   6.130   2.714   2.818 -0.0056  0.5892 -0.0994
  131OSM   H14C13995   6.313   2.742   2.810  0.2965 -0.7207  0.3799
  131OSM    C1313996   6.117   2.798   3.084 -0.1496  0.3666 -0.3056
  131OSM   H13A13997   6.129   2.775   3.189 -2.1173 -1.4608 -0.3962
  131OSM   H13B13998   6.017   2.757   3.074  0.2658 -1.4044  1.9384
  131OSM   H13C13999   6.120   2.905   3.070  0.6172  0.2688 -0.9422
  131OSM    C1214000   6.361   2.796   3.064  0.6590 -0.1099  0.2395
  131OSM   H12A14001   6.442   2.755   3.006  1.5890 -0.5673  1.8121
  131OSM   H12B14002   6.385   2.758   3.162  0.9450  1.6713  0.8987
  131OSM    C1114003   6.392   2.951   3.067 -0.7389  0.0879  0.2615
  131OSM   H11A14004   6.363   2.998   2.970 -2.9599 -0.4193  0.6185
  131OSM   H11B14005   6.502   2.966   3.067 -1.0587  2.9736  0.4145
  131OSM      P14006   6.386   3.028   3.314  0.3899 -0.2413  0.1137
  131OSM    O1314007   6.472   2.913   3.338 -0.3194  0.3771 -0.0537
  131OSM    O1414008   6.448   3.155   3.320 -0.0106 -0.6490 -0.4719
  131OSM    O1114009   6.268   3.029   3.418  0.1885 -0.1289  0.0244
  131OSM    O1214010   6.322   3.009   3.176  0.2851 -0.1930  0.1237
  131OSM    C1S14011   6.200   2.908   3.459 -0.0790  0.8596  0.4257
  131OSM    H1S14012   6.237   2.829   3.390  0.6505  1.2093  0.3976
  131OSM    H1T14013   6.091   2.925   3.461 -0.3723 -0.6786  2.8465
  131OSM     NF14014   6.169   2.759   3.648  0.1401  0.5586 -0.5831
  131OSM    HNF14015   6.073   2.771   3.670 -0.1888 -3.7241  1.2517
  131OSM    C2S14016   6.227   2.889   3.616 -0.2761  0.1235  0.5163
  131OSM    H2S14017   6.337   2.886   3.628  0.5726 -0.7201 -4.9978
  131OSM    C3S14018   6.171   3.009   3.692 -0.8594 -0.2792 -0.2610
  131OSM    H3S14019   6.060   3.015   3.685 -1.0389 -2.1062  0.4330
  131OSM     O314020   6.223   3.138   3.649 -0.2179 -0.2333  0.0175
  131OSM    HO314021   6.268   3.123   3.566 -0.3477  1.9143 -0.4889
  131OSM    C4S14022   6.211   2.988   3.836  0.2210 -0.7381 -0.6003
  131OSM    H4S14023   6.295   2.919   3.852  2.0111  1.8335  2.1300
  131OSM    C5S14024   6.155   3.039   3.949 -0.4690  0.1728  0.2559
  131OSM    H5S14025   6.069   3.107   3.938 -0.6916 -0.2051 -0.4416
  131OSM    C6S14026   6.194   3.025   4.090 -0.0989 -0.3495  0.3528
  131OSM    H6S14027   6.285   2.967   4.116 -0.4514 -0.7656  0.6749
  131OSM    H6T14028   6.117   2.973   4.150  0.2518  1.8512  2.9410
  131OSM    C7S14029   6.194   3.162   4.158  0.5258  0.4218 -0.5207
  131OSM    H7S14030   6.094   3.209   4.146  0.0260 -0.1722  1.0950
  131OSM    H7T14031   6.268   3.233   4.115  0.5926  1.6223  1.4153
  131OSM    C8S14032   6.223   3.132   4.304  0.0034 -0.6760 -0.5034
  131OSM    H8S14033   6.330   3.121   4.329 -0.0119  0.3537  0.0663
  131OSM    H8T14034   6.174   3.039   4.342 -0.8507  0.6892  1.9182
  131OSM    C9S14035   6.186   3.254   4.399 -1.1280  0.3875  0.3523
  131OSM    H9S14036   6.076   3.264   4.401 -1.2006  0.8442 -2.1922
  131OSM    H9T14037   6.219   3.349   4.353  1.0183  0.1688  1.3147
  131OSM   C10S14038   6.235   3.239   4.541 -0.4229  0.5871  0.1541
  131OSM   H10S14039   6.345   3.234   4.532 -0.5794  0.3229 -2.2635
  131OSM   H10T14040   6.197   3.145   4.586 -1.3698  1.5597  1.4922
  131OSM   C11S14041   6.193   3.353   4.637  0.2830 -0.7666  0.5926
  131OSM   H11S14042   6.082   3.354   4.647  0.2550 -1.5364  0.4076
  131OSM   H11T14043   6.219   3.454   4.599  1.5563 -1.3968 -0.3006
  131OSM   C12S14044   6.259   3.327   4.777  0.1214  0.6215  0.6095
  131OSM   H12S14045   6.365   3.307   4.753  0.1439  1.0560  0.3406
  131OSM   H12T14046   6.200   3.250   4.831 -2.5904  1.0769 -1.4770
  131OSM   C13S14047   6.256   3.448   4.873  0.6804 -0.3400 -0.2936
  131OSM   H13S14048   6.150   3.466   4.902  1.5335  0.9471  2.2636
  131OSM   H13T14049   6.295   3.540   4.826 -2.5385 -0.1808 -3.0274
  131OSM   C14S14050   6.338   3.429   5.008  0.1738  0.1447  0.2319
  131OSM   H14S14051   6.445   3.417   4.981  0.4138  3.1921 -0.4942
  131OSM   H14T14052   6.289   3.340   5.054 -0.3686  1.1752  1.7069
  131OSM   C15S14053   6.327   3.546   5.110 -0.1835  1.2217 -0.1857
  131OSM   H15S14054   6.220   3.552   5.140  0.1657 -0.5798  1.6754
  131OSM   H15T14055   6.360   3.644   5.070  0.2901  1.3921  0.6033
  131OSM   C16S14056   6.393   3.532   5.248 -0.4236  0.2074 -0.1025
  131OSM   H16S14057   6.361   3.620   5.307 -0.2057  0.6423 -0.6253
  131OSM   H16T14058   6.504   3.540   5.240 -0.5379  1.2898 -0.6955
  131OSM   C17S14059   6.354   3.405   5.318  0.6166  0.0351 -0.3602
  131OSM   H17S14060   6.422   3.379   5.402 -2.0058 -1.3940  1.4558
  131OSM   H17T14061   6.355   3.309   5.262  1.0556  0.1535 -0.5644
  131OSM   C18S14062   6.208   3.409   5.374 -0.5144  0.1785  0.1100
  131OSM   H18S14063   6.192   3.491   5.447  1.8236  0.8435 -0.0343
  131OSM   H18T14064   6.192   3.312   5.425  1.7072 -0.7193 -0.7680
  131OSM   H18U14065   6.136   3.416   5.289  0.8682 -3.3038 -1.5533
  131OSM    C1F14066   6.235   2.644   3.636 -0.7212  0.0027 -0.2552
  131OSM     OF14067   6.351   2.655   3.602  0.0600 -0.0030 -0.3818
  131OSM    C2F14068   6.168   2.516   3.668  1.1918  0.2183 -0.2769
  131OSM    H2F14069   6.115   2.479   3.577 -0.5135  0.2842  0.6469
  131OSM    H2G14070   6.085   2.546   3.735  1.8293 -0.5501  0.8906
  131OSM    C3F14071   6.254   2.408   3.734 -0.5677  0.5830 -0.0443
  131OSM    H3F14072   6.331   2.380   3.659  1.0802 -0.6926  1.9799
  131OSM    H3G14073   6.203   2.312   3.756 -3.3169  1.8638 -0.3794
  131OSM    C4F14074   6.332   2.444   3.856 -0.8023 -0.3556 -0.0439
  131OSM    H4F14075   6.383   2.540   3.837 -1.7993 -0.0497 -1.3320
  131OSM    H4G14076   6.408   2.372   3.892  0.4165  1.5513  1.3742
  131OSM    C5F14077   6.242   2.465   3.980  0.2787  0.9197  1.1022
  131OSM    H5F14078   6.189   2.372   4.010  2.9475 -0.5732  1.4766
  131OSM    H5G14079   6.166   2.544   3.961 -0.3921  0.0959  0.3116
  131OSM    C6F14080   6.325   2.507   4.102  0.4460 -0.2603  0.0929
  131OSM    H6F14081   6.381   2.419   4.140 -0.8398 -0.6784  1.0634
  131OSM    H6G14082   6.244   2.535   4.172 -0.8620  0.9326 -1.8049
  131OSM    C7F14083   6.402   2.637   4.088  0.2325  0.3266  0.2630
  131OSM    H7F14084   6.332   2.709   4.041  1.0395  0.4317 -0.8033
  131OSM    H7G14085   6.484   2.636   4.013 -0.0531  1.1727 -0.0725
  131OSM    C8F14086   6.458   2.698   4.212 -0.3659  0.0440 -0.6607
  131OSM    H8F14087   6.518   2.789   4.191  0.6699 -0.6510 -0.7919
  131OSM    H8G14088   6.526   2.621   4.255  1.1479 -0.4764 -3.7205
  131OSM    C9F14089   6.351   2.722   4.319  0.1808 -0.3087  0.0421
  131OSM    H9F14090   6.287   2.807   4.287 -1.2514 -1.1745  0.5129
  131OSM   C10F14091   6.329   2.662   4.433 -0.1576 -0.0368  0.5147
  131OSM   H10F14092   6.243   2.694   4.494 -0.3210 -0.9767  0.8041
  131OSM   C11F14093   6.406   2.536   4.465  0.3362 -0.2582 -0.1243
  131OSM   H11F14094   6.510   2.564   4.490  1.2573 -3.8761  0.6494
  131OSM   H11G14095   6.420   2.463   4.382  0.2799 -0.7236  0.2701
  131OSM   C12F14096   6.344   2.470   4.588 -0.2234 -0.6865 -0.5215
  131OSM   H12F14097   6.347   2.538   4.676 -1.4242 -0.1593 -0.8619
  131OSM   H12G14098   6.411   2.384   4.608  1.0418  0.7157  1.7185
  131OSM   C13F14099   6.203   2.409   4.560 -1.0091  0.4817 -0.3528
  131OSM   H13F14100   6.237   2.323   4.498  1.3301  0.6301  0.6526
  131OSM   H13G14101   6.138   2.479   4.504 -1.9024 -0.5155 -0.6125
  131OSM   C14F14102   6.122   2.364   4.686 -0.6075  0.6414  0.2150
  131OSM   H14F14103   6.013   2.349   4.671 -0.4555 -0.7341  0.3579
  131OSM   H14G14104   6.117   2.457   4.747  0.5610  1.2215 -0.5349
  131OSM   C15F14105   6.195   2.265   4.778  0.1816 -0.1351 -0.7591
  131OSM   H15F14106   6.261   2.325   4.845 -1.2809 -0.8540  1.4341
  131OSM   H15G14107   6.251   2.186   4.724 -0.1092 -1.9266  1.4338
  131OSM   C16F14108   6.099   2.189   4.876  0.0560 -0.9179  0.0395
  131OSM   H16F14109   6.057   2.100   4.824  0.4578 -1.9687  1.4421
  131OSM   H16G14110   6.018   2.251   4.919  1.2982  0.9447 -0.1809
  131OSM   C17F14111   6.175   2.146   4.998  0.5670 -0.1192 -0.0042
  131OSM   H17F14112   6.099   2.103   5.065 -0.6706  0.6726 -0.8578
  131OSM   H17G14113   6.217   2.233   5.052 -0.9862  0.2185  0.6899
  131OSM   C18F14114   6.286   2.047   4.964 -0.9199  0.0568 -0.9222
  131OSM   H18F14115   6.355   2.104   4.899  0.8101  2.1507  2.4860
  131OSM   H18G14116   6.239   1.957   4.919 -0.0252  0.0259 -1.8243
  131OSM   H18H14117   6.340   2.004   5.051 -1.8652  0.0528 -0.3224
  132OSM      N14118   0.603   2.343   2.995  0.5008  0.1500  0.0816
  132OSM    C1514119   0.582   2.490   2.960  0.0067  0.7709 -0.1349
  132OSM   H15A14120   0.510   2.512   2.884 -1.1155  0.5889  0.8413
  132OSM   H15B14121   0.670   2.545   2.929 -0.0285  1.1924  0.4830
  132OSM   H15C14122   0.540   2.554   3.037 -0.2905  1.8710 -1.1898
  132OSM    C1414123   0.477   2.281   3.012  0.3186  0.3129  0.4825
  132OSM   H14A14124   0.481   2.174   3.002 -1.7016  0.2461 -0.1967
  132OSM   H14B14125   0.413   2.305   2.928  1.7125 -2.7948 -1.6494
  132OSM   H14C14126   0.423   2.299   3.105  0.3339 -0.2808  0.6106
  132OSM    C1314127   0.682   2.280   2.887 -0.3661 -0.2880 -0.3322
  132OSM   H13A14128   0.770   2.340   2.865 -1.0494  1.2537  0.9433
  132OSM   H13B14129   0.622   2.275   2.797 -1.6750  0.2623  0.4844
  132OSM   H13C14130   0.720   2.183   2.915 -0.7355 -0.4167 -0.2769
  132OSM    C1214131   0.673   2.353   3.130  0.1945 -0.0693 -0.3754
  132OSM   H12A14132   0.605   2.400   3.200 -2.3012 -1.6121 -1.6528
  132OSM   H12B14133   0.759   2.419   3.129  0.9196 -0.9410  0.8351
  132OSM    C1114134   0.715   2.225   3.199  0.2838  0.2308 -0.2097
  132OSM   H11A14135   0.621   2.166   3.207  1.6199 -2.0559 -0.4353
  132OSM   H11B14136   0.757   2.252   3.298 -1.7874 -1.4241  1.2214
  132OSM      P14137   0.864   2.013   3.127 -0.5167 -0.0322 -0.0598
  132OSM    O1314138   0.873   1.952   2.992 -0.4778 -0.2357 -0.2711
  132OSM    O1414139   0.993   2.026   3.198 -0.1060  0.1176 -0.8685
  132OSM    O1114140   0.755   1.947   3.209  0.3178  0.5362  0.2822
  132OSM    O1214141   0.818   2.165   3.119  0.0253 -0.9431 -1.0154
  132OSM    C1S14142   0.763   1.925   3.347  0.1084  0.6971  0.7447
  132OSM    H1S14143   0.821   2.007   3.395  0.1037  0.5513  0.9972
  132OSM    H1T14144   0.812   1.827   3.360  0.7672  0.7442 -1.0543
  132OSM     NF14145   0.638   1.931   3.551 -0.0423 -0.8326 -0.4317
  132OSM    HNF14146   0.623   1.847   3.603 -2.2018 -0.0554  0.2891
  132OSM    C2S14147   0.622   1.928   3.407  0.7239  0.3920 -0.4510
  132OSM    H2S14148   0.583   2.028   3.375 -1.0048  0.1815  0.8636
  132OSM    C3S14149   0.528   1.824   3.339 -0.2811 -0.1609  0.1914
  132OSM    H3S14150   0.586   1.729   3.336 -0.8688 -0.5292 -2.7887
  132OSM     O314151   0.485   1.851   3.204 -0.3903 -0.1240 -0.5738
  132OSM    HO314152   0.558   1.904   3.173  0.2974  0.7300  2.2640
  132OSM    C4S14153   0.409   1.785   3.430 -0.2665  0.3006 -0.3278
  132OSM    H4S14154   0.367   1.872   3.485  0.6038 -0.1005  1.0245
  132OSM    C5S14155   0.363   1.664   3.459 -0.6031 -0.0079  0.0663
  132OSM    H5S14156   0.421   1.586   3.407  3.6814  2.1185  1.2424
  132OSM    C6S14157   0.247   1.646   3.543 -0.3187 -0.1170 -0.5691
  132OSM    H6S14158   0.185   1.564   3.499 -1.4311 -1.0703  2.5476
  132OSM    H6T14159   0.182   1.735   3.553  0.1165  0.0611  0.8290
  132OSM    C7S14160   0.280   1.597   3.694  0.4503 -0.1833 -0.2848
  132OSM    H7S14161   0.336   1.501   3.699  0.3204 -0.4462 -2.6615
  132OSM    H7T14162   0.179   1.579   3.736 -0.2845  1.3615 -1.2644
  132OSM    C8S14163   0.360   1.690   3.792  0.4010 -0.3900 -0.1607
  132OSM    H8S14164   0.315   1.783   3.834  0.3836  0.1326 -1.2819
  132OSM    H8T14165   0.451   1.727   3.739  0.3790  1.1522  0.8222
  132OSM    C9S14166   0.408   1.620   3.920 -0.2340  0.0178  0.0258
  132OSM    H9S14167   0.488   1.683   3.964 -0.7926  1.5065 -1.0236
  132OSM    H9T14168   0.457   1.524   3.894  1.0241  0.2977  1.2386
  132OSM   C10S14169   0.306   1.623   4.035 -0.0702 -0.1021  0.4068
  132OSM   H10S14170   0.215   1.565   4.008  0.1239 -0.0685 -0.3211
  132OSM   H10T14171   0.279   1.730   4.048  2.5190  0.6179  0.4015
  132OSM   C11S14172   0.365   1.565   4.161 -1.0081  0.3379 -0.3645
  132OSM   H11S14173   0.458   1.617   4.193  0.3272 -0.7321 -2.3155
  132OSM   H11T14174   0.387   1.457   4.150 -1.7162  0.1462  0.0581
  132OSM   C12S14175   0.268   1.570   4.281 -0.2132 -0.2052 -0.2530
  132OSM   H12S14176   0.185   1.502   4.253 -1.9345  2.1871 -1.2028
  132OSM   H12T14177   0.231   1.670   4.311 -0.9619 -0.8013  0.9085
  132OSM   C13S14178   0.315   1.506   4.415  0.5152  0.8803 -0.5063
  132OSM   H13S14179   0.402   1.568   4.446  2.8304 -2.5942  0.4601
  132OSM   H13T14180   0.360   1.406   4.400 -1.6804 -0.6780  2.4506
  132OSM   C14S14181   0.215   1.493   4.537 -0.1321 -0.4463 -0.4508
  132OSM   H14S14182   0.140   1.415   4.512  0.1091 -0.9330  0.3254
  132OSM   H14T14183   0.174   1.591   4.570  1.0035 -0.4555  1.0915
  132OSM   C15S14184   0.285   1.442   4.665 -0.1936 -0.1338  0.1115
  132OSM   H15S14185   0.354   1.527   4.686  0.1448 -0.2032 -0.6548
  132OSM   H15T14186   0.339   1.349   4.637 -1.4083 -1.2692  1.3957
  132OSM   C16S14187   0.189   1.415   4.780  0.1282  0.1227 -1.0157
  132OSM   H16S14188   0.108   1.346   4.750 -0.6255 -0.1118  1.3570
  132OSM   H16T14189   0.156   1.519   4.802  1.2650 -0.0968  2.2529
  132OSM   C17S14190   0.261   1.346   4.898  0.1960  0.1315  0.5365
  132OSM   H17S14191   0.304   1.248   4.866  1.3459  0.8110 -0.0518
  132OSM   H17T14192   0.190   1.323   4.980  0.7518  0.3400  1.0836
  132OSM   C18S14193   0.370   1.439   4.950 -0.1344 -0.3123 -0.1978
  132OSM   H18S14194   0.406   1.398   5.046 -1.1662  1.5536  1.0390
  132OSM   H18T14195   0.333   1.543   4.960 -0.3876 -0.5029  0.9206
  132OSM   H18U14196   0.456   1.451   4.879  0.6257  1.5335  0.9607
  132OSM    C1F14197   0.697   2.037   3.614  0.1263 -0.3190 -0.3893
  132OSM     OF14198   0.709   2.142   3.558  0.6347 -0.5574 -0.5564
  132OSM    C2F14199   0.759   2.020   3.748 -0.3279 -0.0379 -0.4554
  132OSM    H2F14200   0.804   2.114   3.786  1.3133 -0.6624 -0.7666
  132OSM    H2G14201   0.850   1.959   3.731  0.7198  0.2954  3.2362
  132OSM    C3F14202   0.688   1.959   3.867 -0.1644  0.7194 -0.3594
  132OSM    H3F14203   0.678   1.850   3.850 -1.8084  0.9612 -1.0933
  132OSM    H3G14204   0.587   2.004   3.878 -0.2526  0.3695  0.3066
  132OSM    C4F14205   0.751   1.987   4.001  0.8871  0.1782  0.4207
  132OSM    H4F14206   0.763   2.097   4.009 -0.6838  0.3920  0.1004
  132OSM    H4G14207   0.851   1.938   4.006  2.3878  3.0212  0.8433
  132OSM    C5F14208   0.653   1.971   4.125 -0.4458 -0.2958  0.4677
  132OSM    H5F14209   0.595   1.877   4.107  0.7452 -0.8435 -0.6917
  132OSM    H5G14210   0.585   2.058   4.134  1.3742  1.4143 -1.2992
  132OSM    C6F14211   0.726   1.955   4.253  0.4200  0.4286 -0.1511
  132OSM    H6F14212   0.784   2.049   4.266  2.1936 -0.8028  1.5330
  132OSM    H6G14213   0.794   1.868   4.240  0.5633  0.7548 -1.8835
  132OSM    C7F14214   0.627   1.944   4.374 -0.1141 -0.2296  0.1866
  132OSM    H7F14215   0.578   1.845   4.371  0.3773 -0.4614 -0.6116
  132OSM    H7G14216   0.552   2.024   4.355 -0.2588 -0.4138 -0.0198
  132OSM    C8F14217   0.694   1.957   4.509  0.7031 -0.0406  0.2163
  132OSM    H8F14218   0.613   1.957   4.585 -1.7882 -1.0568 -2.2516
  132OSM    H8G14219   0.748   2.054   4.519  2.5386 -1.1662  1.9289
  132OSM    C9F14220   0.785   1.852   4.556  0.1948  1.9699  0.2942
  132OSM    H9F14221   0.890   1.868   4.526 -0.1232 -0.2586 -2.3184
  132OSM   C10F14222   0.753   1.746   4.629 -0.3206 -0.5692 -0.2848
  132OSM   H10F14223   0.834   1.673   4.642 -1.0612 -1.2182  0.9035
  132OSM   C11F14224   0.618   1.709   4.674  0.0035 -0.3295  0.4281
  132OSM   H11F14225   0.603   1.601   4.651  3.1182 -0.3179 -2.2958
  132OSM   H11G14226   0.540   1.775   4.632  1.4990  3.1124  2.5652
  132OSM   C12F14227   0.598   1.739   4.828  0.6887  0.6003  0.1869
  132OSM   H12F14228   0.488   1.723   4.835  0.2751  2.9148 -0.1477
  132OSM   H12G14229   0.617   1.846   4.851  2.4029  0.2581  0.5478
  132OSM   C13F14230   0.685   1.642   4.908  0.1962 -0.0711  0.4087
  132OSM   H13F14231   0.789   1.658   4.873 -0.7533  2.2564 -1.6716
  132OSM   H13G14232   0.660   1.544   4.864  1.5174 -0.7729  1.1709
  132OSM   C14F14233   0.664   1.634   5.060 -0.0452  0.9675 -0.1499
  132OSM   H14F14234   0.736   1.564   5.107 -0.0313  1.3611  0.4253
  132OSM   H14G14235   0.562   1.594   5.075  0.3496  0.6265  2.0090
  132OSM   C15F14236   0.656   1.763   5.131  0.8603 -0.1920 -0.4025
  132OSM   H15F14237   0.572   1.816   5.080  0.2015 -1.5022 -0.7164
  132OSM   H15G14238   0.747   1.824   5.111  0.3269  0.7689  0.0144
  132OSM   C16F14239   0.629   1.758   5.283 -0.5772  0.3782 -0.1250
  132OSM   H16F14240   0.718   1.716   5.335  0.5175  1.1499 -1.2992
  132OSM   H16G14241   0.545   1.689   5.304 -1.2655  1.3832  0.5072
  132OSM   C17F14242   0.598   1.891   5.360  0.2508 -0.0090  0.0586
  132OSM   H17F14243   0.490   1.911   5.342  0.0815 -2.3639 -2.0756
  132OSM   H17G14244   0.642   1.987   5.325 -0.2399 -0.4039 -1.7538
  132OSM   C18F14245   0.612   1.876   5.507  0.0213  0.4501 -0.5224
  132OSM   H18F14246   0.552   1.786   5.531 -0.8002  0.1469 -3.3661
  132OSM   H18G14247   0.581   1.956   5.577 -0.8248  0.2980 -0.7040
  132OSM   H18H14248   0.718   1.850   5.528 -0.5186 -2.7395 -1.2018
  133OSM      N14249   5.545   4.172   3.344 -0.3385 -0.1977  0.0343
  133OSM    C1514250   5.664   4.090   3.394 -0.8635  0.2740  0.5384
  133OSM   H15A14251   5.740   4.091   3.318 -1.1867  2.1324  0.1955
  133OSM   H15B14252   5.643   3.985   3.412 -0.0161  0.0333  0.1626
  133OSM   H15C14253   5.695   4.111   3.495 -0.8625 -0.3141  0.6661
  133OSM    C1414254   5.583   4.313   3.323  0.1973 -0.0792  0.6155
  133OSM   H14A14255   5.502   4.375   3.288 -2.0836 -2.0962  1.9954
  133OSM   H14B14256   5.655   4.322   3.243 -0.6546 -2.3930 -0.4972
  133OSM   H14C14257   5.613   4.361   3.415  1.3829 -0.7252  0.5837
  133OSM    C1314258   5.503   4.137   3.207  0.3402  0.1948  0.0691
  133OSM   H13A14259   5.423   4.196   3.164  1.4604  1.7310 -0.0162
  133OSM   H13B14260   5.455   4.042   3.221 -2.0840  1.4717  0.8958
  133OSM   H13C14261   5.582   4.114   3.136 -0.6866 -0.7157 -0.8010
  133OSM    C1214262   5.441   4.168   3.458  0.0256 -0.0191  0.8950
  133OSM   H12A14263   5.353   4.227   3.437 -0.7547 -1.7911 -1.2560
  133OSM   H12B14264   5.483   4.213   3.546  0.6988 -0.3520  0.7489
  133OSM    C1114265   5.395   4.028   3.500 -0.4684  0.4710 -0.3846
  133OSM   H11A14266   5.342   4.048   3.596 -0.5326  0.1418 -0.3501
  133OSM   H11B14267   5.477   3.967   3.544  0.0369  2.2058  1.1762
  133OSM      P14268   5.168   4.007   3.379 -0.1808 -0.4101 -0.0836
  133OSM    O1314269   5.158   4.125   3.296  0.8651  0.2395 -0.0191
  133OSM    O1414270   5.096   3.884   3.345  0.1470  0.5035 -0.3940
  133OSM    O1114271   5.122   4.050   3.526  0.1433  0.9642  0.2344
  133OSM    O1214272   5.319   3.965   3.395 -0.3856 -0.2088 -0.7353
  133OSM    C1S14273   5.086   3.948   3.624  0.5697  0.5769  0.2123
  133OSM    H1S14274   5.164   3.871   3.640 -1.1878 -1.1744  0.8172
  133OSM    H1T14275   4.996   3.892   3.591 -0.1135  0.7957  1.5850
  133OSM     NF14276   5.060   3.893   3.864  0.3962 -0.1555 -0.4073
  133OSM    HNF14277   4.974   3.864   3.906 -1.4911  1.3048 -2.9233
  133OSM    C2S14278   5.046   3.997   3.768 -0.0766 -0.0223  0.0365
  133OSM    H2S14279   5.117   4.076   3.803  1.0772 -0.5622 -0.9984
  133OSM    C3S14280   4.904   4.067   3.754  0.2335 -0.3282 -0.0224
  133OSM    H3S14281   4.832   3.986   3.727  1.8195 -1.2885 -1.6127
  133OSM     O314282   4.898   4.161   3.650 -0.0174  0.4757  0.4350
  133OSM    HO314283   4.983   4.156   3.606  0.4183 -2.2564  1.3764
  133OSM    C4S14284   4.850   4.134   3.882  0.0337  0.2799  0.2160
  133OSM    H4S14285   4.806   4.055   3.945  1.7216 -0.1870  0.8593
  133OSM    C5S14286   4.849   4.265   3.914 -0.0179 -0.5259 -0.1257
  133OSM    H5S14287   4.887   4.334   3.837 -0.3316  0.3954  0.5266
  133OSM    C6S14288   4.792   4.313   4.040 -0.3672 -0.5298 -0.0607
  133OSM    H6S14289   4.686   4.282   4.047  0.1189 -2.0309  1.2927
  133OSM    H6T14290   4.794   4.423   4.029 -1.1113 -0.6216 -1.2793
  133OSM    C7S14291   4.866   4.255   4.167 -0.4540  0.5554  0.0930
  133OSM    H7S14292   4.832   4.325   4.247 -1.7635  0.2170 -0.1505
  133OSM    H7T14293   4.972   4.286   4.150 -1.3086  1.7385 -4.3781
  133OSM    C8S14294   4.840   4.109   4.216  0.8739  0.7300  0.1285
  133OSM    H8S14295   4.893   4.035   4.152  1.2736  0.3865  0.8375
  133OSM    H8T14296   4.730   4.097   4.219  0.6549  2.3097 -0.5823
  133OSM    C9S14297   4.892   4.087   4.354  0.0305  0.5703 -0.1593
  133OSM    H9S14298   4.826   4.138   4.428  0.0078  0.0442  0.1885
  133OSM    H9T14299   4.995   4.122   4.378  0.0026  0.1939  0.5317
  133OSM   C10S14300   4.910   3.944   4.400  0.3354 -0.6884 -0.2699
  133OSM   H10S14301   4.984   3.899   4.330 -0.2450 -2.4982  0.2522
  133OSM   H10T14302   4.812   3.893   4.394 -1.5335  2.3780  1.2846
  133OSM   C11S14303   4.963   3.927   4.548 -0.3279  0.5501 -0.4561
  133OSM   H11S14304   5.066   3.968   4.552  0.2781 -0.4962 -3.0468
  133OSM   H11T14305   4.975   3.817   4.560  0.0330  0.4034 -1.9476
  133OSM   C12S14306   4.867   3.976   4.652 -0.0901 -0.8781  0.5996
  133OSM   H12S14307   4.762   3.941   4.639 -0.9867  1.8570 -0.0540
  133OSM   H12T14308   4.858   4.086   4.653  0.6288 -0.8161  1.7064
  133OSM   C13S14309   4.913   3.921   4.787 -0.3176  0.7075 -0.4825
  133OSM   H13S14310   5.015   3.964   4.801 -1.2802  2.3070  2.1713
  133OSM   H13T14311   4.923   3.810   4.788  1.4820  0.8442  0.5510
  133OSM   C14S14312   4.850   3.955   4.927  0.0850 -0.0478 -0.4457
  133OSM   H14S14313   4.894   3.888   5.004  0.0193  0.3534 -0.0549
  133OSM   H14T14314   4.744   3.925   4.936 -1.2498  4.1227 -0.1972
  133OSM   C15S14315   4.866   4.118   4.944  0.1310  0.4337 -0.5948
  133OSM   H15S14316   4.823   4.162   4.852  2.2620  0.6283 -1.5568
  133OSM   H15T14317   4.976   4.134   4.949  0.3999 -1.5519  1.6231
  133OSM   C16S14318   4.800   4.161   5.076 -0.4615 -0.2740 -0.5284
  133OSM   H16S14319   4.807   4.076   5.148  2.7871 -0.6539 -1.1700
  133OSM   H16T14320   4.690   4.175   5.062 -0.6952 -1.3835  0.0555
  133OSM   C17S14321   4.851   4.292   5.142  0.2626  0.6011  0.8651
  133OSM   H17S14322   4.835   4.377   5.071  0.2250  0.1856  0.3702
  133OSM   H17T14323   4.961   4.287   5.158  0.5616  0.8919 -0.8813
  133OSM   C18S14324   4.779   4.324   5.276 -0.0570  0.1704 -0.0068
  133OSM   H18S14325   4.779   4.228   5.332  0.6444 -0.2796 -0.7704
  133OSM   H18T14326   4.674   4.353   5.258  0.3148  1.5100 -0.1176
  133OSM   H18U14327   4.847   4.404   5.313 -0.5914 -0.2208  1.9224
  133OSM    C1F14328   5.174   3.833   3.896  0.3002 -0.2941 -0.8583
  133OSM     OF14329   5.284   3.867   3.854  0.0885 -0.3172 -0.2052
  133OSM    C2F14330   5.162   3.724   3.998  0.4123  0.4672  0.7135
  133OSM    H2F14331   5.106   3.645   3.943  1.9084 -0.3906  0.3529
  133OSM    H2G14332   5.097   3.760   4.081  0.1253  0.0020  0.6993
  133OSM    C3F14333   5.299   3.671   4.036  0.1960  0.6459 -0.1564
  133OSM    H3F14334   5.365   3.754   4.070 -1.4849  2.2077 -0.5151
  133OSM    H3G14335   5.335   3.613   3.949 -0.6747  0.1868 -0.2240
  133OSM    C4F14336   5.306   3.582   4.162  0.2445  0.5717 -0.2449
  133OSM    H4F14337   5.381   3.502   4.147  0.2060 -0.0652  2.5060
  133OSM    H4G14338   5.206   3.533   4.156  0.1644  0.7134 -0.0643
  133OSM    C5F14339   5.305   3.655   4.293 -0.0105  0.4042 -0.3858
  133OSM    H5F14340   5.253   3.753   4.286  1.6384  1.2148 -2.0319
  133OSM    H5G14341   5.405   3.685   4.331  0.3720 -1.5925  0.3175
  133OSM    C6F14342   5.237   3.565   4.405  0.2660  0.3527  0.5232
  133OSM    H6F14343   5.281   3.463   4.411 -0.2530  0.1626  1.2050
  133OSM    H6G14344   5.128   3.563   4.384 -0.1442  0.1512  2.5172
  133OSM    C7F14345   5.263   3.633   4.538  0.1723  0.0635  0.2975
  133OSM    H7F14346   5.240   3.741   4.524  1.5404  0.3173 -0.2210
  133OSM    H7G14347   5.370   3.641   4.565  0.2237  1.3403 -0.1919
  133OSM    C8F14348   5.179   3.572   4.656 -0.5785  0.1882  0.2864
  133OSM    H8F14349   5.218   3.472   4.683 -0.1843  0.6315  1.3998
  133OSM    H8G14350   5.076   3.558   4.617 -0.6112 -1.7539  0.9779
  133OSM    C9F14351   5.187   3.666   4.775 -0.4983 -0.6007  0.6155
  133OSM    H9F14352   5.115   3.749   4.779  1.8092  1.5722 -0.3660
  133OSM   C10F14353   5.254   3.645   4.886  0.3776 -0.6595  0.1116
  133OSM   H10F14354   5.239   3.714   4.971  1.2496  1.1823 -1.1610
  133OSM   C11F14355   5.346   3.526   4.910  0.3294 -0.2278  1.1587
  133OSM   H11F14356   5.416   3.519   4.823 -0.9600 -0.6022  0.1181
  133OSM   H11G14357   5.292   3.430   4.924 -0.6556 -0.4172 -2.7617
  133OSM   C12F14358   5.445   3.555   5.022 -0.2751  0.1115 -0.4354
  133OSM   H12F14359   5.497   3.463   5.058  1.6051  1.1696 -0.3326
  133OSM   H12G14360   5.393   3.583   5.116  0.7065 -1.0917  0.5154
  133OSM   C13F14361   5.558   3.651   4.992  0.5631 -0.2180  0.0485
  133OSM   H13F14362   5.519   3.728   4.921  0.7891  0.3135  0.4926
  133OSM   H13G14363   5.643   3.606   4.937 -0.0869  0.5036 -1.6220
  133OSM   C14F14364   5.624   3.701   5.118 -0.1366 -0.4062  0.2867
  133OSM   H14F14365   5.659   3.609   5.171 -0.4364 -1.3925 -1.1596
  133OSM   H14G14366   5.550   3.755   5.181 -1.0217 -0.6906 -0.4992
  133OSM   C15F14367   5.740   3.799   5.096  0.3271  0.5985 -0.1939
  133OSM   H15F14368   5.704   3.883   5.032 -3.1942 -2.4365 -2.6208
  133OSM   H15G14369   5.808   3.739   5.031 -1.7538 -3.4770  1.0735
  133OSM   C16F14370   5.822   3.833   5.217 -0.5095  0.1283  0.8090
  133OSM   H16F14371   5.751   3.828   5.303 -0.2517 -1.3594  0.9582
  133OSM   H16G14372   5.865   3.932   5.194 -2.2782  1.3114  2.2647
  133OSM   C17F14373   5.925   3.721   5.237 -0.0099  0.7581 -0.6414
  133OSM   H17F14374   5.989   3.711   5.147 -0.7578  2.9909 -1.4998
  133OSM   H17G14375   5.872   3.625   5.255 -0.4888  0.3750 -3.6253
  133OSM   C18F14376   6.014   3.754   5.348 -0.2936 -0.0205 -0.6052
  133OSM   H18F14377   6.094   3.677   5.350 -0.4476 -0.1979  2.3087
  133OSM   H18G14378   5.955   3.754   5.442 -2.4470 -1.7180 -1.8466
  133OSM   H18H14379   6.049   3.858   5.334 -2.0993  0.7587  0.3106
  134OSM      N14380   4.440   6.045   3.045  0.8620  0.5205 -0.4657
  134OSM    C1514381   4.414   5.954   2.927 -0.4923 -0.2694 -0.2446
  134OSM   H15A14382   4.362   6.010   2.851  1.6757  2.2297 -0.0511
  134OSM   H15B14383   4.352   5.870   2.951  0.3052 -1.1691 -1.2276
  134OSM   H15C14384   4.509   5.917   2.891  2.0821  3.2671  2.1726
  134OSM    C1414385   4.306   6.062   3.110  0.5891  0.5891  0.0627
  134OSM   H14A14386   4.265   5.963   3.124 -0.9779  1.1547 -0.2997
  134OSM   H14B14387   4.237   6.113   3.045 -0.8917 -1.9598 -0.5325
  134OSM   H14C14388   4.325   6.110   3.204 -0.7949  1.3789 -0.0332
  134OSM    C1314389   4.527   5.967   3.143 -0.9216  0.5014 -0.2098
  134OSM   H13A14390   4.492   5.866   3.158  0.7587 -0.0204  0.4314
  134OSM   H13B14391   4.536   6.022   3.235  1.3090  1.6510 -1.0400
  134OSM   H13C14392   4.628   5.957   3.106 -0.1514  0.7733  1.6675
  134OSM    C1214393   4.495   6.184   3.009 -0.2653 -0.4535 -1.3160
  134OSM   H12A14394   4.601   6.182   2.988  0.3030 -1.5544  1.2683
  134OSM   H12B14395   4.485   6.246   3.097  0.8144  0.2793 -1.6845
  134OSM    C1114396   4.412   6.264   2.898  0.2324  0.6288 -0.4635
  134OSM   H11A14397   4.425   6.201   2.808 -2.1822  1.6319 -1.5948
  134OSM   H11B14398   4.468   6.357   2.874  1.2720  0.5581  1.4740
  134OSM      P14399   4.255   6.427   3.002  0.3598 -0.1545  0.1402
  134OSM    O1314400   4.293   6.534   2.908 -0.5892  0.1371  0.1157
  134OSM    O1414401   4.121   6.443   3.060 -0.2135  0.1176 -0.2793
  134OSM    O1114402   4.358   6.433   3.120  0.4584 -0.0188  0.0170
  134OSM    O1214403   4.275   6.284   2.934 -0.4338  0.5964 -0.1428
  134OSM    C1S14404   4.346   6.379   3.246  0.1922 -0.8367  0.5092
  134OSM    H1S14405   4.360   6.269   3.253  2.1422 -0.5970  0.9925
  134OSM    H1T14406   4.243   6.399   3.282  0.7414  2.3108  0.6459
  134OSM     NF14407   4.465   6.349   3.464  0.3063  0.2921  0.2527
  134OSM    HNF14408   4.409   6.372   3.543  0.0329  1.4462 -0.2441
  134OSM    C2S14409   4.454   6.436   3.354 -0.2263 -0.3292 -0.4296
  134OSM    H2S14410   4.543   6.440   3.288 -0.1341  1.0470 -0.2507
  134OSM    C3S14411   4.419   6.579   3.395 -0.5843 -0.5224 -0.2848
  134OSM    H3S14412   4.322   6.594   3.448 -0.7626  0.6675 -0.9061
  134OSM     O314413   4.404   6.660   3.275 -0.4047 -0.5457  0.5094
  134OSM    HO314414   4.373   6.599   3.208 -0.1689  0.0921 -0.1936
  134OSM    C4S14415   4.523   6.645   3.484 -0.0301  0.5666 -0.0882
  134OSM    H4S14416   4.615   6.681   3.436  1.6680 -0.3283  2.2907
  134OSM    C5S14417   4.503   6.682   3.618  0.1822  0.3102  1.0006
  134OSM    H5S14418   4.403   6.668   3.661 -1.3464  1.4887 -1.8602
  134OSM    C6S14419   4.593   6.768   3.700 -0.2490  0.5452 -0.1614
  134OSM    H6S14420   4.559   6.873   3.714 -1.0991  0.2830 -0.2484
  134OSM    H6T14421   4.694   6.778   3.653  0.6328  0.9730  1.7257
  134OSM    C7S14422   4.615   6.717   3.847 -0.1484  0.0314 -0.6882
  134OSM    H7S14423   4.660   6.616   3.843 -0.8568 -0.3256  0.0717
  134OSM    H7T14424   4.511   6.708   3.887  0.4054 -0.9719  0.6094
  134OSM    C8S14425   4.710   6.810   3.920  0.1684  0.4526 -0.1728
  134OSM    H8S14426   4.660   6.909   3.934 -1.5569  0.0550 -2.7723
  134OSM    H8T14427   4.797   6.819   3.851 -0.8485  0.2591 -1.5289
  134OSM    C9S14428   4.743   6.766   4.067 -0.4534  0.8818 -0.7932
  134OSM    H9S14429   4.766   6.854   4.132  1.7069  0.9375 -1.5523
  134OSM    H9T14430   4.833   6.701   4.071 -0.6397  0.6797  1.3452
  134OSM   C10S14431   4.623   6.693   4.134  0.3224  0.2366 -0.5488
  134OSM   H10S14432   4.603   6.599   4.079 -0.1735 -0.3282  0.5644
  134OSM   H10T14433   4.532   6.756   4.128 -1.5007 -1.9940  1.4815
  134OSM   C11S14434   4.654   6.651   4.283 -0.3013 -0.2378  0.3151
  134OSM   H11S14435   4.750   6.594   4.288  0.7932  1.6100  1.7833
  134OSM   H11T14436   4.563   6.604   4.325  1.0697 -0.7692  2.9499
  134OSM   C12S14437   4.684   6.764   4.382  0.0535 -0.3184 -0.3748
  134OSM   H12S14438   4.779   6.815   4.355 -2.0866  3.0668 -2.3800
  134OSM   H12T14439   4.694   6.720   4.483  0.5446  0.5507 -0.0307
  134OSM   C13S14440   4.571   6.872   4.376  0.0465 -0.0740 -0.7196
  134OSM   H13S14441   4.476   6.815   4.367 -0.0783  0.2990 -1.9807
  134OSM   H13T14442   4.586   6.936   4.287  0.0255 -1.5260 -1.7919
  134OSM   C14S14443   4.569   6.958   4.510 -0.2676  0.4795  0.7597
  134OSM   H14S14444   4.541   6.884   4.587 -0.6879 -1.4681 -1.1698
  134OSM   H14T14445   4.490   7.036   4.503  0.8604  1.5375 -1.3138
  134OSM   C15S14446   4.706   7.015   4.557  0.0950  0.3241  0.7903
  134OSM   H15S14447   4.739   7.094   4.486  3.3664 -3.9731 -3.2113
  134OSM   H15T14448   4.777   6.931   4.539 -0.8653 -0.1656 -1.0142
  134OSM   C16S14449   4.687   7.060   4.699  0.3177  0.5857 -0.0154
  134OSM   H16S14450   4.677   6.965   4.756  2.0219  0.1378 -0.3955
  134OSM   H16T14451   4.588   7.111   4.702 -0.5185 -0.9910  0.1966
  134OSM   C17S14452   4.804   7.153   4.750  0.1010 -0.2710 -0.2218
  134OSM   H17S14453   4.813   7.239   4.681 -0.1994 -0.2020 -0.1766
  134OSM   H17T14454   4.898   7.098   4.731 -1.3261 -2.4160 -1.6312
  134OSM   C18S14455   4.782   7.199   4.892 -0.3851  0.0023  0.0510
  134OSM   H18S14456   4.858   7.262   4.943 -1.7978  0.0860  2.1557
  134OSM   H18T14457   4.788   7.109   4.958 -0.4354  1.0736  1.5548
  134OSM   H18U14458   4.688   7.256   4.883 -0.4354 -0.2460 -1.1905
  134OSM    C1F14459   4.526   6.232   3.451 -0.1065 -0.2898 -1.2192
  134OSM     OF14460   4.592   6.204   3.353 -0.4042  0.1818 -0.2216
  134OSM    C2F14461   4.516   6.138   3.565 -0.9614 -0.1227  0.0717
  134OSM    H2F14462   4.458   6.052   3.525 -0.6614 -0.3163  0.0449
  134OSM    H2G14463   4.455   6.179   3.647  0.8031 -0.3443  1.5570
  134OSM    C3F14464   4.653   6.085   3.615 -0.3535 -0.0996 -0.5929
  134OSM    H3F14465   4.707   6.153   3.684 -2.6381  0.4453  0.7569
  134OSM    H3G14466   4.718   6.076   3.525 -3.4438  0.9688 -3.1015
  134OSM    C4F14467   4.642   5.940   3.668  0.2294  0.5409  0.1207
  134OSM    H4F14468   4.739   5.886   3.669 -1.4037 -2.6328  0.6339
  134OSM    H4G14469   4.580   5.870   3.607  0.1597  0.6292  0.0879
  134OSM    C5F14470   4.596   5.945   3.811 -0.5252  0.4086  0.1590
  134OSM    H5F14471   4.496   5.992   3.802  0.4982  2.8407  0.7538
  134OSM    H5G14472   4.646   6.035   3.853 -2.3253  2.2469 -1.4470
  134OSM    C6F14473   4.593   5.818   3.896 -1.0988  0.2493 -0.6370
  134OSM    H6F14474   4.691   5.765   3.894 -1.3320 -0.2605  0.6461
  134OSM    H6G14475   4.506   5.760   3.860 -1.7952 -1.1581  2.9788
  134OSM    C7F14476   4.565   5.848   4.045 -0.2221 -0.1696  0.0174
  134OSM    H7F14477   4.467   5.897   4.061  0.7484  1.4783  1.2379
  134OSM    H7G14478   4.642   5.916   4.088 -0.0838 -0.6431  0.5134
  134OSM    C8F14479   4.576   5.709   4.120  0.7300 -1.2086 -0.2478
  134OSM    H8F14480   4.658   5.641   4.089  1.4067 -1.7771  2.4775
  134OSM    H8G14481   4.477   5.663   4.102 -0.2284 -0.0923  1.7385
  134OSM    C9F14482   4.597   5.722   4.273  0.7587 -0.3991  0.0630
  134OSM    H9F14483   4.686   5.785   4.286  0.0195  0.7753 -0.3937
  134OSM   C10F14484   4.512   5.664   4.365  0.0757 -0.1866 -0.2483
  134OSM   H10F14485   4.548   5.689   4.466 -0.8983  0.7737 -0.1148
  134OSM   C11F14486   4.388   5.578   4.362  1.1582 -0.1302 -0.1174
  134OSM   H11F14487   4.398   5.487   4.298 -0.4153  0.9863 -2.0637
  134OSM   H11G14488   4.313   5.648   4.321  2.0788  0.2119 -1.3002
  134OSM   C12F14489   4.337   5.507   4.488 -0.3132  0.1250 -0.2605
  134OSM   H12F14490   4.427   5.454   4.526  0.4983  2.7332  1.8268
  134OSM   H12G14491   4.244   5.446   4.485 -2.1956  2.8049 -0.2259
  134OSM   C13F14492   4.300   5.612   4.597 -0.5037  0.0257 -0.8730
  134OSM   H13F14493   4.365   5.701   4.609  0.5542 -0.2936 -3.4397
  134OSM   H13G14494   4.289   5.562   4.695 -4.2679  0.2857 -1.0278
  134OSM   C14F14495   4.149   5.648   4.575  0.5585  0.3937 -0.2929
  134OSM   H14F14496   4.082   5.565   4.545 -1.2771  1.0075  1.8218
  134OSM   H14G14497   4.158   5.723   4.494  1.8428 -2.1285 -2.6529
  134OSM   C15F14498   4.078   5.723   4.690 -0.1436  0.3463  0.3509
  134OSM   H15F14499   3.996   5.781   4.643 -1.8052 -1.9215  0.2366
  134OSM   H15G14500   4.147   5.792   4.743 -0.5766  0.7297  0.4232
  134OSM   C16F14501   4.019   5.635   4.803  0.4312  0.0290  1.0124
  134OSM   H16F14502   4.096   5.573   4.852 -0.0553  0.0651  1.8440
  134OSM   H16G14503   3.962   5.567   4.737  3.7150 -2.1032  0.1684
  134OSM   C17F14504   3.935   5.716   4.903 -0.0317 -0.6504  0.3501
  134OSM   H17F14505   3.828   5.687   4.894  0.1044 -0.9669 -0.2983
  134OSM   H17G14506   3.933   5.819   4.861 -2.6317  0.3512  2.5849
  134OSM   C18F14507   3.982   5.731   5.045 -0.1630 -0.1145 -0.2156
  134OSM   H18F14508   4.093   5.732   5.049 -0.0803 -1.3848 -1.3005
  134OSM   H18G14509   3.945   5.646   5.106  0.7490  0.7356  1.6125
  134OSM   H18H14510   3.936   5.819   5.095  0.4677 -0.0849  0.3342
  135OSM      N14511   6.903   5.200   3.095 -0.1345  0.2491  0.3310
  135OSM    C1514512   6.824   5.079   3.132 -0.8984 -0.0606 -0.0056
  135OSM   H15A14513   6.734   5.086   3.192 -2.0113 -3.5284 -1.0601
  135OSM   H15B14514   6.889   5.024   3.198  0.7141  0.3649 -1.1983
  135OSM   H15C14515   6.799   5.026   3.041 -2.1831  2.5925 -1.3108
  135OSM    C1414516   6.813   5.284   3.010  0.4349 -0.4978 -0.0069
  135OSM   H14A14517   6.864   5.374   2.979  1.4824  0.1378  3.2431
  135OSM   H14B14518   6.723   5.313   3.063 -1.8402 -2.2867 -2.5891
  135OSM   H14C14519   6.774   5.229   2.926 -1.9075  0.1594  0.5651
  135OSM    C1314520   6.958   5.271   3.212 -0.5684  0.0641  0.6372
  135OSM   H13A14521   7.038   5.212   3.255  1.8606  1.1786 -2.0604
  135OSM   H13B14522   6.883   5.301   3.284  0.8440  2.3315  1.2624
  135OSM   H13C14523   7.018   5.356   3.184  1.4776 -1.4313  0.2431
  135OSM    C1214524   7.018   5.162   3.000 -0.4482  0.0764  0.1028
  135OSM   H12A14525   7.075   5.251   2.980  1.9054 -1.5812 -1.0268
  135OSM   H12B14526   6.973   5.135   2.905  0.0199  0.1538 -0.1442
  135OSM    C1114527   7.115   5.046   3.022 -0.5661  0.4369 -0.3953
  135OSM   H11A14528   7.196   5.038   2.946  2.7289  1.0578  2.7763
  135OSM   H11B14529   7.055   4.954   3.039  0.7838 -0.2292  1.0702
  135OSM      P14530   7.288   4.962   3.196  0.3627 -0.3076  0.1810
  135OSM    O1314531   7.210   4.839   3.226  0.2110 -0.6217  0.4585
  135OSM    O1414532   7.391   4.949   3.090 -0.1114 -0.3282 -0.1215
  135OSM    O1114533   7.356   5.019   3.330 -0.2785  0.1277 -0.3132
  135OSM    O1214534   7.189   5.074   3.139 -0.0566 -0.1593 -0.0864
  135OSM    C1S14535   7.331   5.155   3.368  0.2283 -0.2014 -0.0819
  135OSM    H1S14536   7.222   5.175   3.359  0.6354  1.4195 -2.5569
  135OSM    H1T14537   7.370   5.231   3.297 -0.3965  1.9728  1.7722
  135OSM     NF14538   7.332   5.328   3.536 -0.1849 -0.4394 -0.6122
  135OSM    HNF14539   7.395   5.400   3.509  0.7813 -1.0036  0.0668
  135OSM    C2S14540   7.377   5.195   3.508 -0.3088  0.4485 -0.2766
  135OSM    H2S14541   7.324   5.127   3.577  0.4667  1.0716  0.9660
  135OSM    C3S14542   7.533   5.173   3.518  0.0289 -0.5581 -0.2547
  135OSM    H3S14543   7.576   5.256   3.459 -1.6939 -0.3204 -1.2478
  135OSM     O314544   7.581   5.049   3.468 -0.2183  0.0471  0.5280
  135OSM    HO314545   7.507   5.010   3.421 -0.4487  0.8387  0.2215
  135OSM    C4S14546   7.578   5.191   3.658  0.1452 -0.2269 -0.2408
  135OSM    H4S14547   7.610   5.296   3.664 -0.2548 -0.0610 -0.8561
  135OSM    C5S14548   7.607   5.106   3.755 -0.3008 -0.2259 -0.1078
  135OSM    H5S14549   7.586   4.999   3.738 -2.0520  0.0175  0.3042
  135OSM    C6S14550   7.670   5.137   3.886 -0.5562 -0.1648 -0.0784
  135OSM    H6S14551   7.738   5.056   3.920  0.9693  1.5108  1.0495
  135OSM    H6T14552   7.583   5.130   3.955  2.4240 -2.1139  3.8894
  135OSM    C7S14553   7.737   5.267   3.901 -0.4453  0.4869 -0.6168
  135OSM    H7S14554   7.656   5.344   3.893 -0.5718  0.2742 -1.5472
  135OSM    H7T14555   7.810   5.287   3.820  0.7189 -1.6387 -0.1449
  135OSM    C8S14556   7.812   5.282   4.034  0.5971  0.3457  0.7712
  135OSM    H8S14557   7.886   5.200   4.046  0.1295 -0.3278 -0.7957
  135OSM    H8T14558   7.736   5.278   4.115  3.0021  0.5864  3.2144
  135OSM    C9S14559   7.889   5.411   4.054 -0.5716  0.1306  0.1453
  135OSM    H9S14560   7.975   5.418   3.984  0.2896  1.4077  1.2826
  135OSM    H9T14561   7.925   5.415   4.159  1.1496 -0.5167 -0.3922
  135OSM   C10S14562   7.806   5.538   4.061  0.0017  0.1583  1.0045
  135OSM   H10S14563   7.726   5.541   4.138 -0.1080  1.9357  0.8636
  135OSM   H10T14564   7.745   5.555   3.970 -0.1677 -1.3127  0.8233
  135OSM   C11S14565   7.899   5.663   4.089 -0.4024  0.3785  0.2400
  135OSM   H11S14566   7.830   5.741   4.128 -1.0486  0.4079 -0.9403
  135OSM   H11T14567   7.944   5.691   3.992 -1.2135 -0.0869 -0.2760
  135OSM   C12S14568   8.024   5.648   4.187  0.2801 -0.3109  0.4226
  135OSM   H12S14569   8.093   5.733   4.168  0.8700 -0.7180  0.7070
  135OSM   H12T14570   8.080   5.555   4.165  0.6801  0.0533 -0.1321
  135OSM   C13S14571   7.978   5.656   4.338 -0.2197  0.0565 -0.0647
  135OSM   H13S14572   7.929   5.558   4.357  0.2860 -0.8263 -2.9446
  135OSM   H13T14573   7.912   5.745   4.340  1.3253  1.2521 -0.2280
  135OSM   C14S14574   8.087   5.682   4.444 -0.5829 -0.4005  0.1263
  135OSM   H14S14575   8.171   5.740   4.401 -0.5426 -0.4202  0.1794
  135OSM   H14T14576   8.132   5.581   4.456  1.2492  0.6276  2.6847
  135OSM   C15S14577   8.033   5.743   4.569 -0.3252  0.0415 -0.1871
  135OSM   H15S14578   7.975   5.662   4.618  1.8160 -1.9965 -0.8312
  135OSM   H15T14579   7.968   5.821   4.523 -0.0709  1.3027  1.4954
  135OSM   C16S14580   8.130   5.794   4.669  0.1375  0.5492 -0.1745
  135OSM   H16S14581   8.082   5.841   4.757  0.1849 -1.1843  0.8093
  135OSM   H16T14582   8.186   5.880   4.625  0.6065 -0.6005 -1.9437
  135OSM   C17S14583   8.224   5.690   4.727  0.2892  0.6225 -0.1636
  135OSM   H17S14584   8.260   5.622   4.647 -0.7276  2.6669 -2.5134
  135OSM   H17T14585   8.169   5.627   4.800  2.8953 -0.9278  0.5807
  135OSM   C18S14586   8.341   5.762   4.799 -0.0489  0.4748 -0.3798
  135OSM   H18S14587   8.303   5.841   4.867  2.2643  1.0251  0.3792
  135OSM   H18T14588   8.409   5.819   4.731 -0.7007  4.3435  1.9429
  135OSM   H18U14589   8.394   5.691   4.865  0.0735  2.0396  1.2724
  135OSM    C1F14590   7.205   5.370   3.563 -0.3562  0.7750 -0.0991
  135OSM     OF14591   7.115   5.286   3.580  0.2966 -0.0556  0.5186
  135OSM    C2F14592   7.174   5.512   3.576  0.1164  0.3212 -0.3546
  135OSM    H2F14593   7.236   5.568   3.503  2.7804 -2.4169 -0.3891
  135OSM    H2G14594   7.216   5.550   3.672  0.4214 -3.4657  1.1720
  135OSM    C3F14595   7.025   5.550   3.564  0.5548 -0.1099  0.2190
  135OSM    H3F14596   6.970   5.499   3.645 -0.8457  1.3720  0.2554
  135OSM    H3G14597   6.982   5.530   3.463  1.3752  3.5695 -1.0144
  135OSM    C4F14598   7.001   5.703   3.582  1.1705  0.2844  0.1491
  135OSM    H4F14599   6.891   5.704   3.571  1.0066 -2.4685  0.6492
  135OSM    H4G14600   7.054   5.754   3.499 -0.1751  0.7719 -0.4232
  135OSM    C5F14601   7.049   5.766   3.707  0.2958 -0.3800  0.4113
  135OSM    H5F14602   7.004   5.868   3.711 -1.1151 -0.8699 -1.6753
  135OSM    H5G14603   7.159   5.763   3.714  0.2560  0.9896  2.9598
  135OSM    C6F14604   7.002   5.692   3.828 -0.0960 -0.6174 -0.3214
  135OSM    H6F14605   7.055   5.594   3.820  1.0912 -0.0908  0.8381
  135OSM    H6G14606   6.892   5.676   3.830 -0.7934  2.9368 -2.4802
  135OSM    C7F14607   7.046   5.759   3.961 -0.8719  0.7007 -0.3874
  135OSM    H7F14608   7.010   5.863   3.945  0.2815  1.1196 -0.3089
  135OSM    H7G14609   7.156   5.770   3.961 -0.7989  0.0936  0.4704
  135OSM    C8F14610   7.000   5.690   4.083  0.4489 -0.3633 -0.3097
  135OSM    H8F14611   7.037   5.585   4.078  0.6986 -0.3474  0.8972
  135OSM    H8G14612   6.891   5.675   4.097  0.4846  0.7351  1.2696
  135OSM    C9F14613   7.039   5.761   4.210 -0.4877  0.3027 -0.1336
  135OSM    H9F14614   7.148   5.777   4.217 -0.3558 -0.0155 -1.2545
  135OSM   C10F14615   6.960   5.813   4.302 -0.2278  0.1522 -0.5492
  135OSM   H10F14616   7.000   5.893   4.367 -1.6615  0.1215  0.4450
  135OSM   C11F14617   6.808   5.806   4.315 -0.3905 -0.3236  0.5980
  135OSM   H11F14618   6.784   5.799   4.423 -1.3661  0.5127  0.4453
  135OSM   H11G14619   6.769   5.707   4.282 -0.4940 -0.2772  0.5816
  135OSM   C12F14620   6.726   5.928   4.260 -0.5666  0.1517 -0.0166
  135OSM   H12F14621   6.762   6.016   4.319  1.6204 -1.9626  2.0056
  135OSM   H12G14622   6.620   5.904   4.283  0.4100 -2.6668  2.1109
  135OSM   C13F14623   6.738   5.953   4.107 -0.1176 -0.1062 -0.4623
  135OSM   H13F14624   6.831   5.906   4.067 -1.4184 -3.8924  0.5620
  135OSM   H13G14625   6.733   6.064   4.102 -0.3127  0.0092  1.5273
  135OSM   C14F14626   6.614   5.904   4.025  0.0156  0.4917 -0.7347
  135OSM   H14F14627   6.533   5.928   4.097 -0.3490 -2.4836 -0.0415
  135OSM   H14G14628   6.621   5.793   4.019  0.5484  0.5099 -0.4835
  135OSM   C15F14629   6.594   5.970   3.893  0.4965  0.0730 -0.2819
  135OSM   H15F14630   6.571   6.078   3.910  0.6854  0.1883 -0.7436
  135OSM   H15G14631   6.514   5.930   3.827 -0.9722  1.9398  0.2730
  135OSM   C16F14632   6.709   5.964   3.795 -0.4052 -0.3235  0.5720
  135OSM   H16F14633   6.735   5.860   3.763 -1.8839 -0.0543 -1.7038
  135OSM   H16G14634   6.795   6.016   3.843 -0.4978  1.4610 -1.0974
  135OSM   C17F14635   6.683   6.040   3.665  0.4907  0.1891 -0.0002
  135OSM   H17F14636   6.669   6.148   3.687 -0.7106  0.2432 -0.9378
  135OSM   H17G14637   6.593   6.003   3.612 -1.5243  1.4686  2.3058
  135OSM   C18F14638   6.810   6.035   3.579 -0.2995  0.0125 -0.2984
  135OSM   H18F14639   6.900   6.063   3.637 -0.0487 -3.3260  1.1518
  135OSM   H18G14640   6.806   6.092   3.484  0.3699 -0.6761 -0.7568
  135OSM   H18H14641   6.823   5.931   3.541  2.3537 -0.0485  0.5756
  136OSM      N14642   4.286   1.653   3.015  0.2294 -0.4217  0.0686
  136OSM    C1514643   4.180   1.756   3.002 -0.2497 -0.0499 -0.5655
  136OSM   H15A14644   4.227   1.849   2.971  1.3990 -0.1057  1.5106
  136OSM   H15B14645   4.129   1.779   3.095 -1.5224  0.6550 -1.4089
  136OSM   H15C14646   4.104   1.729   2.931 -0.3322 -0.4643 -0.3219
  136OSM    C1414647   4.228   1.522   3.063  0.4688 -0.1432 -0.9413
  136OSM   H14A14648   4.297   1.439   3.066  0.6075 -0.0089 -0.2752
  136OSM   H14B14649   4.153   1.487   2.993  0.2418 -1.5746 -0.0238
  136OSM   H14C14650   4.178   1.531   3.158 -1.0554 -1.0710 -1.6033
  136OSM    C1314651   4.335   1.646   2.873  0.2103  0.3646  0.5184
  136OSM   H13A14652   4.408   1.567   2.871  1.1248  0.9482  3.9438
  136OSM   H13B14653   4.371   1.741   2.837 -0.4712  0.4052 -0.0813
  136OSM   H13C14654   4.251   1.604   2.819  0.7851  0.4448 -0.4466
  136OSM    C1214655   4.397   1.699   3.116  0.4899 -0.2371  0.6227
  136OSM   H12A14656   4.457   1.612   3.139  0.6793 -0.3817 -0.3863
  136OSM   H12B14657   4.359   1.738   3.209  2.0643  0.4640  1.0153
  136OSM    C1114658   4.480   1.824   3.070 -0.8970  0.2246 -0.7604
  136OSM   H11A14659   4.527   1.781   2.979 -0.9714 -3.0788  0.6258
  136OSM   H11B14660   4.570   1.837   3.133  0.5664 -0.8981 -2.5415
  136OSM      P14661   4.364   2.055   3.151 -0.2401 -0.2608  0.3090
  136OSM    O1314662   4.412   2.185   3.111  0.2336 -0.1486  0.5214
  136OSM    O1414663   4.219   2.032   3.174  0.2760 -0.1591 -0.4245
  136OSM    O1114664   4.443   2.003   3.275 -0.2469 -0.0140 -0.5827
  136OSM    O1214665   4.413   1.948   3.044 -0.0854 -0.1247 -0.5089
  136OSM    C1S14666   4.466   2.077   3.392 -0.3272 -0.3248  0.6519
  136OSM    H1S14667   4.377   2.134   3.427 -0.5934 -1.3985  1.8004
  136OSM    H1T14668   4.544   2.152   3.370 -0.4915 -0.1940  0.5128
  136OSM     NF14669   4.503   2.039   3.635  0.3235  0.2174  0.0531
  136OSM    HNF14670   4.589   2.065   3.679  1.1100  0.2189 -1.4222
  136OSM    C2S14671   4.516   1.978   3.498 -0.2484 -0.6514 -0.6133
  136OSM    H2S14672   4.437   1.901   3.494 -1.4170  0.5540 -2.6149
  136OSM    C3S14673   4.659   1.928   3.470  0.2646  0.4620 -0.4842
  136OSM    H3S14674   4.725   2.018   3.474 -2.6653  2.7469  3.1138
  136OSM     O314675   4.676   1.880   3.339  1.0236  0.0857  0.1177
  136OSM    HO314676   4.590   1.891   3.299  0.3887  0.3433  1.5033
  136OSM    C4S14677   4.711   1.828   3.571  0.3413  0.2387  0.1926
  136OSM    H4S14678   4.767   1.891   3.641 -0.3055  1.5018 -0.3809
  136OSM    C5S14679   4.704   1.689   3.577 -0.2884 -0.2108 -0.2106
  136OSM    H5S14680   4.662   1.638   3.488 -1.3764 -1.9915  1.2492
  136OSM    C6S14681   4.753   1.602   3.685 -0.4973  0.2541  0.5322
  136OSM    H6S14682   4.847   1.559   3.645  0.1713  2.0080  0.1307
  136OSM    H6T14683   4.687   1.516   3.710  0.8160 -0.5212  1.4525
  136OSM    C7S14684   4.767   1.656   3.820 -0.5983 -0.0706 -0.7879
  136OSM    H7S14685   4.670   1.706   3.843  0.4289  2.2332 -1.1531
  136OSM    H7T14686   4.841   1.738   3.812  1.8554 -2.1030 -0.0654
  136OSM    C8S14687   4.789   1.558   3.934  0.1925 -0.5157  0.8565
  136OSM    H8S14688   4.890   1.513   3.930 -0.2880 -1.5462 -1.7933
  136OSM    H8T14689   4.726   1.467   3.920 -0.9322  0.1751  1.2897
  136OSM    C9S14690   4.765   1.606   4.079 -0.4568 -0.2991  0.0524
  136OSM    H9S14691   4.743   1.519   4.145 -0.8707  0.3249  0.7608
  136OSM    H9T14692   4.673   1.669   4.080  0.1858  0.6735 -0.3070
  136OSM   C10S14693   4.879   1.695   4.138 -0.8309 -0.5172 -0.2768
  136OSM   H10S14694   4.896   1.788   4.081  0.1823  1.6474  3.2634
  136OSM   H10T14695   4.978   1.644   4.132 -1.3111 -1.6761  0.8880
  136OSM   C11S14696   4.869   1.717   4.297 -0.2283 -0.2560  0.1570
  136OSM   H11S14697   4.959   1.763   4.342 -1.6945  1.1892  1.7864
  136OSM   H11T14698   4.848   1.617   4.341  2.5349 -0.8064  0.3861
  136OSM   C12S14699   4.754   1.799   4.341  0.5739 -0.3559 -0.4442
  136OSM   H12S14700   4.659   1.746   4.318 -1.4007  2.6919  0.0301
  136OSM   H12T14701   4.742   1.892   4.281 -0.0995  0.0824  0.3609
  136OSM   C13S14702   4.751   1.825   4.494  0.0149  0.5339  0.3227
  136OSM   H13S14703   4.830   1.897   4.524 -1.6274  2.4629  0.1625
  136OSM   H13T14704   4.758   1.728   4.548 -3.7693 -0.3438 -0.5094
  136OSM   C14S14705   4.610   1.878   4.540 -0.2280  0.0614  0.9847
  136OSM   H14S14706   4.527   1.825   4.487  0.3597 -1.5442  1.6143
  136OSM   H14T14707   4.613   1.982   4.503  0.7628 -0.3986 -0.3269
  136OSM   C15S14708   4.594   1.867   4.692 -0.1759 -0.1029  0.0721
  136OSM   H15S14709   4.599   1.759   4.719  3.4691  0.3150  1.5281
  136OSM   H15T14710   4.489   1.901   4.705 -0.1296  0.6340 -1.2788
  136OSM   C16S14711   4.694   1.942   4.771 -0.2171 -0.4888  0.1098
  136OSM   H16S14712   4.696   2.048   4.737  0.0518 -0.9067 -1.2581
  136OSM   H16T14713   4.794   1.896   4.754  0.2706  0.6897 -0.3106
  136OSM   C17S14714   4.676   1.942   4.927 -0.7182 -0.7669 -0.1269
  136OSM   H17S14715   4.585   2.001   4.954 -0.0251 -0.0373  0.6640
  136OSM   H17T14716   4.761   1.982   4.986  1.0601 -1.2121 -2.2668
  136OSM   C18S14717   4.650   1.800   4.982 -0.5769  0.4164 -0.4636
  136OSM   H18S14718   4.640   1.799   5.092  2.0852  2.4673 -0.0904
  136OSM   H18T14719   4.718   1.722   4.939 -0.3708  0.9095 -1.0582
  136OSM   H18U14720   4.549   1.765   4.951 -0.5286 -3.4036  2.9015
  136OSM    C1F14721   4.389   2.067   3.702  0.4797 -0.1748  0.1851
  136OSM     OF14722   4.285   2.011   3.666  0.2613 -0.0935  0.0325
  136OSM    C2F14723   4.396   2.160   3.823 -0.2663 -0.1089 -0.1481
  136OSM    H2F14724   4.342   2.255   3.802  0.6612  0.9844  2.1136
  136OSM    H2G14725   4.498   2.200   3.840 -0.6343  1.3448 -1.1402
  136OSM    C3F14726   4.338   2.074   3.936  0.2756  0.2178 -0.6301
  136OSM    H3F14727   4.406   1.988   3.956  1.7755  1.8622  1.7446
  136OSM    H3G14728   4.241   2.022   3.915 -0.0970  0.3636  0.6762
  136OSM    C4F14729   4.332   2.148   4.068  0.5476 -0.3561  0.1529
  136OSM    H4F14730   4.257   2.230   4.071 -0.2081 -1.0214 -0.2348
  136OSM    H4G14731   4.430   2.199   4.081  0.1053  0.3342  0.8335
  136OSM    C5F14732   4.315   2.055   4.186  0.0271  0.2773 -0.2878
  136OSM    H5F14733   4.409   1.997   4.201  0.0365  0.2591 -0.4128
  136OSM    H5G14734   4.236   1.979   4.167  0.4688 -0.4777  0.7728
  136OSM    C6F14735   4.282   2.132   4.314  0.3171 -0.7303  0.3880
  136OSM    H6F14736   4.255   2.235   4.280  0.3949 -0.1685  1.9258
  136OSM    H6G14737   4.373   2.127   4.378  1.1711 -1.7274 -0.8663
  136OSM    C7F14738   4.164   2.080   4.394 -0.1253  0.2302 -0.5402
  136OSM    H7F14739   4.198   1.978   4.420 -0.7284  0.2953  0.5492
  136OSM    H7G14740   4.073   2.069   4.331 -0.5377  0.6749 -0.0239
  136OSM    C8F14741   4.124   2.164   4.517 -0.1628  0.6153 -0.5081
  136OSM    H8F14742   4.035   2.115   4.562 -0.0960 -1.3211 -2.3384
  136OSM    H8G14743   4.092   2.262   4.474 -0.2433  0.5365 -0.6285
  136OSM    C9F14744   4.236   2.177   4.611 -0.2780 -0.4941 -0.3236
  136OSM    H9F14745   4.304   2.261   4.591 -1.1956  0.9346  2.1374
  136OSM   C10F14746   4.242   2.110   4.728 -0.4048  0.3494 -0.3769
  136OSM   H10F14747   4.328   2.124   4.796 -0.0919 -0.3482 -0.6224
  136OSM   C11F14748   4.153   2.001   4.780  0.0758  0.2081 -0.2873
  136OSM   H11F14749   4.113   1.939   4.697  0.1751  1.3753 -1.2364
  136OSM   H11G14750   4.059   2.039   4.825 -1.1920 -1.6328 -1.2644
  136OSM   C12F14751   4.222   1.912   4.886 -0.2617 -0.4472 -0.4184
  136OSM   H12F14752   4.319   1.874   4.849 -0.6048  0.5140 -2.4014
  136OSM   H12G14753   4.154   1.824   4.888  1.6504 -1.9948  0.7012
  136OSM   C13F14754   4.224   1.955   5.030  0.6454  0.1838  0.0769
  136OSM   H13F14755   4.126   1.993   5.066  1.0971 -0.0133  1.5692
  136OSM   H13G14756   4.295   2.041   5.029  0.0858  0.6637  0.4756
  136OSM   C14F14757   4.270   1.844   5.124 -0.2950  0.1523  0.1801
  136OSM   H14F14758   4.366   1.805   5.084 -0.7703 -2.2611  1.2053
  136OSM   H14G14759   4.199   1.759   5.120 -1.4172  1.0903 -0.6448
  136OSM   C15F14760   4.278   1.896   5.269  1.1174  0.5113  0.0355
  136OSM   H15F14761   4.282   1.795   5.314  1.2972 -1.6150 -4.3385
  136OSM   H15G14762   4.189   1.953   5.305 -0.0667 -1.3654  0.2375
  136OSM   C16F14763   4.411   1.968   5.298 -0.8416 -0.8328  0.1707
  136OSM   H16F14764   4.417   2.059   5.234 -0.8489 -0.8050  0.2097
  136OSM   H16G14765   4.501   1.907   5.276  0.9900  1.3746  1.1480
  136OSM   C17F14766   4.413   2.005   5.448 -0.2202  0.1987 -0.2604
  136OSM   H17F14767   4.432   1.911   5.504 -1.2508  0.2269  0.1597
  136OSM   H17G14768   4.311   2.031   5.482 -1.1152 -4.2057  1.0441
  136OSM   C18F14769   4.505   2.114   5.495  0.2265  0.4570  0.0871
  136OSM   H18F14770   4.481   2.143   5.600 -3.0257 -1.7493  0.1190
  136OSM   H18G14771   4.487   2.190   5.416  0.6193 -1.0343 -1.5109
  136OSM   H18H14772   4.614   2.091   5.494  0.4587  1.0854  2.9080
  137OSM      N14773   6.844   2.316   2.917  0.6553 -0.0198 -0.3056
  137OSM    C1514774   6.766   2.207   2.981 -0.3555  0.3996  0.5800
  137OSM   H15A14775   6.816   2.173   3.071 -2.7192 -1.3541  1.3548
  137OSM   H15B14776   6.747   2.126   2.912  2.4464  0.8142 -0.8340
  137OSM   H15C14777   6.667   2.240   3.009  0.5224  2.9456  0.9452
  137OSM    C1414778   6.986   2.269   2.888 -0.6208  0.4992  0.0483
  137OSM   H14A14779   7.037   2.353   2.843  1.0397 -0.5167 -0.0492
  137OSM   H14B14780   6.979   2.187   2.818 -2.0235  0.4013  0.2837
  137OSM   H14C14781   7.042   2.226   2.970 -2.9186 -3.0800 -0.0625
  137OSM    C1314782   6.775   2.363   2.791  0.0992 -0.2885  0.1143
  137OSM   H13A14783   6.845   2.430   2.745 -0.1644 -0.6599 -0.8525
  137OSM   H13B14784   6.678   2.407   2.810 -1.1271 -2.5078 -0.6833
  137OSM   H13C14785   6.752   2.279   2.727 -1.8637 -0.4999  1.0204
  137OSM    C1214786   6.847   2.438   3.009  0.3413 -0.0087  0.0855
  137OSM   H12A14787   6.905   2.417   3.097 -0.5595 -0.7712  0.5084
  137OSM   H12B14788   6.752   2.452   3.059  1.5984  0.5474  2.4714
  137OSM    C1114789   6.893   2.574   2.952  0.0529 -0.1544 -0.5625
  137OSM   H11A14790   6.907   2.640   3.040  1.1199 -1.7613  0.5250
  137OSM   H11B14791   6.815   2.619   2.887  0.7920  2.8008  0.4394
  137OSM      P14792   7.163   2.591   2.935  0.5164  0.2554 -0.1636
  137OSM    O1314793   7.258   2.513   2.853  0.4128  0.2628  0.3780
  137OSM    O1414794   7.185   2.735   2.942 -0.1455  0.0211 -0.1899
  137OSM    O1114795   7.162   2.526   3.078 -0.1971 -0.3433  0.2732
  137OSM    O1214796   7.016   2.567   2.883 -0.1820  0.1288  0.1645
  137OSM    C1S14797   7.240   2.588   3.178  0.0636 -0.7920 -0.0504
  137OSM    H1S14798   7.195   2.689   3.191  0.2782  0.0205 -4.2371
  137OSM    H1T14799   7.344   2.605   3.143  0.5855  0.4035  1.9354
  137OSM     NF14800   7.294   2.595   3.414  0.3797 -0.5520 -0.3573
  137OSM    HNF14801   7.389   2.574   3.438  1.4186  0.9899 -2.7565
  137OSM    C2S14802   7.236   2.513   3.311 -0.2684 -0.1489 -0.0035
  137OSM    H2S14803   7.134   2.500   3.353  0.6305  0.0512  2.3917
  137OSM    C3S14804   7.297   2.369   3.302  0.1250  0.6824  0.9910
  137OSM    H3S14805   7.395   2.366   3.249 -0.6290  0.5924 -0.4498
  137OSM     O314806   7.220   2.287   3.215 -0.7956  0.0589  0.2735
  137OSM    HO314807   7.166   2.356   3.175  0.5524  0.8562 -0.2299
  137OSM    C4S14808   7.297   2.300   3.435 -0.3418 -0.1448 -0.5561
  137OSM    H4S14809   7.202   2.248   3.452 -1.2382  1.4001 -0.6212
  137OSM    C5S14810   7.391   2.310   3.535  0.0844 -0.4198  0.2001
  137OSM    H5S14811   7.480   2.373   3.521  0.3068 -0.8542 -0.3213
  137OSM    C6S14812   7.373   2.249   3.677 -0.6669 -0.0036  0.6371
  137OSM    H6S14813   7.394   2.322   3.758 -1.2670  0.1533  0.6531
  137OSM    H6T14814   7.459   2.180   3.688 -2.5745 -2.3601  1.8999
  137OSM    C7S14815   7.251   2.157   3.696 -0.4556  0.3793 -0.1251
  137OSM    H7S14816   7.243   2.087   3.609  2.6485 -0.4539  0.1083
  137OSM    H7T14817   7.155   2.212   3.687 -1.1643 -0.9787 -1.2492
  137OSM    C8S14818   7.278   2.064   3.821  0.0229 -0.9567 -0.0542
  137OSM    H8S14819   7.383   2.026   3.818  0.1499 -0.7514  1.2042
  137OSM    H8T14820   7.225   1.966   3.816  3.1336 -3.1113  3.7500
  137OSM    C9S14821   7.245   2.130   3.958 -0.1394 -0.5130 -0.2788
  137OSM    H9S14822   7.135   2.139   3.966 -0.1661  0.9035 -1.6793
  137OSM    H9T14823   7.290   2.232   3.954  0.1895 -0.6747 -1.1100
  137OSM   C10S14824   7.298   2.041   4.067  0.0556 -0.4375  0.1782
  137OSM   H10S14825   7.404   2.072   4.075 -0.9334  3.5179  0.0636
  137OSM   H10T14826   7.285   1.935   4.036  2.3870 -0.6821 -0.1698
  137OSM   C11S14827   7.218   2.064   4.197  0.0254 -0.4345  0.1333
  137OSM   H11S14828   7.123   2.008   4.192 -0.1184 -0.5160  2.6935
  137OSM   H11T14829   7.181   2.167   4.216  1.0079 -0.1970  0.8795
  137OSM   C12S14830   7.298   2.009   4.312 -0.9128  0.6035  0.1920
  137OSM   H12S14831   7.389   2.070   4.329 -0.9224  1.0928 -1.3323
  137OSM   H12T14832   7.323   1.903   4.289  1.4290  1.1650 -0.0842
  137OSM   C13S14833   7.226   2.008   4.447 -0.0104 -0.4507  0.2020
  137OSM   H13S14834   7.124   1.968   4.426 -1.4148  2.4540  1.0153
  137OSM   H13T14835   7.210   2.115   4.472  0.8291  0.2057 -1.8660
  137OSM   C14S14836   7.288   1.922   4.558  0.1141  0.5313  0.0032
  137OSM   H14S14837   7.397   1.938   4.573 -0.1952  1.8201  1.0265
  137OSM   H14T14838   7.262   1.814   4.551  0.1463  0.5156  0.1239
  137OSM   C15S14839   7.232   1.959   4.700 -0.0168 -0.1026  0.7052
  137OSM   H15S14840   7.128   1.921   4.713 -0.6823  2.0796  2.3633
  137OSM   H15T14841   7.228   2.068   4.716 -0.8809 -0.3050  2.1295
  137OSM   C16S14842   7.311   1.892   4.815 -0.7848 -0.3081 -0.4146
  137OSM   H16S14843   7.416   1.929   4.816 -0.9228  0.0897  0.9373
  137OSM   H16T14844   7.327   1.785   4.789  0.1043 -0.1528 -0.5568
  137OSM   C17S14845   7.240   1.905   4.950 -0.1652  0.1903  0.3174
  137OSM   H17S14846   7.146   1.846   4.955  0.3700 -0.7043  0.1074
  137OSM   H17T14847   7.200   2.008   4.966  0.6380  0.9694 -2.1110
  137OSM   C18S14848   7.321   1.861   5.065 -0.0989 -0.1198 -0.0417
  137OSM   H18S14849   7.395   1.941   5.087 -0.5112 -0.1669  1.6052
  137OSM   H18T14850   7.379   1.766   5.054  2.3167  0.9454  2.3027
  137OSM   H18U14851   7.261   1.874   5.157  1.7475  1.1667  1.0387
  137OSM    C1F14852   7.257   2.717   3.456 -0.1770 -0.7732  0.0183
  137OSM     OF14853   7.155   2.762   3.411  0.0735  0.7620 -0.0316
  137OSM    C2F14854   7.354   2.795   3.547  0.2480 -0.1371  0.4688
  137OSM    H2F14855   7.384   2.884   3.487  0.2764 -0.5696 -0.1659
  137OSM    H2G14856   7.449   2.745   3.576  0.1873 -1.3873 -1.3328
  137OSM    C3F14857   7.287   2.843   3.675 -0.3992 -0.4314 -0.7037
  137OSM    H3F14858   7.198   2.906   3.652 -0.8560 -1.7456 -2.8854
  137OSM    H3G14859   7.362   2.902   3.732  0.3917 -1.1646 -0.9609
  137OSM    C4F14860   7.248   2.727   3.762  0.0817  0.7857  0.2646
  137OSM    H4F14861   7.338   2.665   3.785  0.0523 -0.0501 -1.7003
  137OSM    H4G14862   7.178   2.656   3.715  0.0745  0.9658  0.0014
  137OSM    C5F14863   7.177   2.772   3.890 -0.2190  0.6204 -0.5637
  137OSM    H5F14864   7.087   2.827   3.856 -0.0288 -0.1003 -2.3635
  137OSM    H5G14865   7.239   2.846   3.944  0.8362 -2.0760  2.1870
  137OSM    C6F14866   7.141   2.655   3.982  0.5752  0.3355  0.5343
  137OSM    H6F14867   7.091   2.571   3.929 -1.4431  1.2553  0.9007
  137OSM    H6G14868   7.066   2.689   4.056  0.5897 -0.6225  1.0134
  137OSM    C7F14869   7.263   2.595   4.057 -0.2625 -0.0914  0.3982
  137OSM    H7F14870   7.329   2.669   4.107 -1.0080 -1.1715  3.1767
  137OSM    H7G14871   7.326   2.545   3.981 -1.1024  0.7911 -0.9097
  137OSM    C8F14872   7.226   2.493   4.163  0.6683 -0.2356 -0.0174
  137OSM    H8F14873   7.317   2.437   4.190  1.7274  1.6965  0.5601
  137OSM    H8G14874   7.150   2.421   4.126  0.1042 -0.4926  1.5837
  137OSM    C9F14875   7.159   2.558   4.282  0.5000 -0.1232 -0.4956
  137OSM    H9F14876   7.056   2.525   4.304  0.9195 -0.6227  0.8206
  137OSM   C10F14877   7.227   2.641   4.370 -0.5822 -0.2612  0.0639
  137OSM   H10F14878   7.179   2.683   4.460  1.1814  2.5737 -0.2088
  137OSM   C11F14879   7.376   2.679   4.362 -0.0759  0.1311  0.0829
  137OSM   H11F14880   7.395   2.784   4.331  1.7706  0.1866  1.2459
  137OSM   H11G14881   7.431   2.618   4.287  0.0023  0.3053 -0.0013
  137OSM   C12F14882   7.449   2.653   4.500  0.0295 -0.2731  0.5992
  137OSM   H12F14883   7.558   2.643   4.484  0.3818  0.6278  2.2382
  137OSM   H12G14884   7.427   2.549   4.534  2.7579 -0.9182  0.6323
  137OSM   C13F14885   7.424   2.756   4.617 -0.1199 -0.5963 -0.0593
  137OSM   H13F14886   7.326   2.733   4.663  0.8068 -0.1398  2.3111
  137OSM   H13G14887   7.429   2.857   4.570 -0.1713 -1.5391 -2.2134
  137OSM   C14F14888   7.534   2.750   4.726  0.2010  0.0830  0.4157
  137OSM   H14F14889   7.627   2.806   4.699  2.0372 -1.4820  3.0785
  137OSM   H14G14890   7.563   2.644   4.737  0.2658  0.3027  2.7339
  137OSM   C15F14891   7.479   2.800   4.860 -0.2860 -0.4341 -0.1099
  137OSM   H15F14892   7.415   2.722   4.906  2.3599 -2.6756  0.0878
  137OSM   H15G14893   7.417   2.889   4.840  1.3792  0.9095  0.4171
  137OSM   C16F14894   7.584   2.824   4.972 -0.0037 -0.5222  0.4795
  137OSM   H16F14895   7.529   2.859   5.063 -0.6908 -2.3465  0.8083
  137OSM   H16G14896   7.657   2.898   4.933  0.4296 -0.8840  0.5985
  137OSM   C17F14897   7.671   2.712   5.017  0.3102  0.8472  0.0554
  137OSM   H17F14898   7.682   2.629   4.945  0.5633  0.8951  0.0397
  137OSM   H17G14899   7.625   2.664   5.106 -0.0262  0.2605 -0.4239
  137OSM   C18F14900   7.810   2.766   5.056 -0.1802 -0.7752 -0.0708
  137OSM   H18F14901   7.874   2.681   5.089 -0.0661 -0.9775 -0.8084
  137OSM   H18G14902   7.803   2.844   5.135 -4.0779  0.6688 -1.6078
  137OSM   H18H14903   7.855   2.820   4.971 -0.5029 -0.5632 -0.1077
  138OSM      N14904   1.326   3.019   2.887  0.3885 -0.5268  0.7318
  138OSM    C1514905   1.443   2.926   2.857 -0.6878 -0.1656  0.7558
  138OSM   H15A14906   1.418   2.840   2.797 -0.6189  0.2526  0.1183
  138OSM   H15B14907   1.489   2.894   2.949 -0.7198 -0.6989  0.5905
  138OSM   H15C14908   1.513   2.986   2.800 -1.3781 -0.0557 -0.0034
  138OSM    C1414909   1.228   2.958   2.981 -0.0952  0.3021 -0.7189
  138OSM   H14A14910   1.145   3.021   3.008  1.0765  0.6485  2.5277
  138OSM   H14B14911   1.283   2.936   3.071  0.5935 -0.5033 -1.3162
  138OSM   H14C14912   1.188   2.863   2.948 -4.3966  1.9762 -0.9544
  138OSM    C1314913   1.374   3.140   2.967 -0.2949  0.5800  0.2171
  138OSM   H13A14914   1.431   3.204   2.901  0.7297 -1.1338 -0.6190
  138OSM   H13B14915   1.438   3.101   3.045 -0.0059  1.5055  0.4555
  138OSM   H13C14916   1.287   3.187   3.009 -2.1788 -1.5781 -1.0680
  138OSM    C1214917   1.255   3.064   2.762 -0.0889  0.5222  0.4056
  138OSM   H12A14918   1.202   2.981   2.718  0.6831  0.3856 -0.2873
  138OSM   H12B14919   1.329   3.100   2.692 -1.3934  0.4219 -1.0707
  138OSM    C1114920   1.141   3.163   2.792 -0.1461 -0.3558 -0.1894
  138OSM   H11A14921   1.106   3.200   2.694 -1.6543  1.3504  0.9079
  138OSM   H11B14922   1.172   3.257   2.843  0.0476 -1.5766  2.1225
  138OSM      P14923   0.902   3.203   2.897  0.0428  0.3678 -0.5400
  138OSM    O1314924   0.878   3.297   2.782  0.2760  0.6103  0.1418
  138OSM    O1414925   0.789   3.117   2.943  0.0641 -0.7603  0.4023
  138OSM    O1114926   0.957   3.286   3.023 -0.2515 -0.3264 -0.2128
  138OSM    O1214927   1.028   3.113   2.862  0.3163 -0.5507  0.5735
  138OSM    C1S14928   0.952   3.214   3.149 -0.5762 -0.4184 -0.1768
  138OSM    H1S14929   1.008   3.118   3.142 -2.7437 -1.6602 -1.6527
  138OSM    H1T14930   0.848   3.178   3.164 -0.6430 -0.4620 -0.7228
  138OSM     NF14931   1.027   3.215   3.391  0.5007 -0.2865 -0.0243
  138OSM    HNF14932   0.948   3.210   3.452 -0.9786  1.1506 -1.7050
  138OSM    C2S14933   1.009   3.296   3.265  0.4488 -0.4486  0.0754
  138OSM    H2S14934   1.104   3.342   3.231  1.1667 -2.3487 -0.6210
  138OSM    C3S14935   0.910   3.414   3.295  0.0306 -0.8328 -0.5053
  138OSM    H3S14936   0.811   3.366   3.311 -1.2553  1.8642  0.1541
  138OSM     O314937   0.904   3.499   3.179  0.2611  0.1008  0.5378
  138OSM    HO314938   0.929   3.440   3.107 -2.5078 -1.9379  1.0639
  138OSM    C4S14939   0.950   3.489   3.423 -0.9445  0.0332 -0.4692
  138OSM    H4S14940   0.937   3.425   3.512 -1.7147  0.8636  0.0251
  138OSM    C5S14941   0.997   3.618   3.433 -0.2849  0.4552  0.3541
  138OSM    H5S14942   1.014   3.677   3.342  0.0180 -1.7652 -1.0919
  138OSM    C6S14943   1.041   3.695   3.555  0.4844 -0.4587  0.0784
  138OSM    H6S14944   0.974   3.776   3.592  1.3344 -0.0586  0.7898
  138OSM    H6T14945   1.140   3.743   3.535 -0.3869  1.3041 -0.2891
  138OSM    C7S14946   1.052   3.601   3.675  0.5514 -0.2307  0.3210
  138OSM    H7S14947   1.105   3.506   3.651 -1.3396 -1.6440  1.4573
  138OSM    H7T14948   0.950   3.584   3.715  0.3073  0.6307  0.0790
  138OSM    C8S14949   1.123   3.668   3.787 -0.5708  0.0086 -0.4782
  138OSM    H8S14950   1.125   3.593   3.869  1.3928  0.4766 -0.0585
  138OSM    H8T14951   1.067   3.763   3.804  0.1091  0.9404 -2.9519
  138OSM    C9S14952   1.278   3.691   3.755 -0.5376 -0.5841 -0.6883
  138OSM    H9S14953   1.308   3.760   3.838 -0.6619 -1.5100  0.1420
  138OSM    H9T14954   1.291   3.753   3.664 -0.7599  1.3149  0.5171
  138OSM   C10S14955   1.376   3.566   3.756  0.0322  0.1148 -0.4162
  138OSM   H10S14956   1.475   3.606   3.727  0.4054 -1.7290 -1.9850
  138OSM   H10T14957   1.351   3.480   3.689 -0.9797  0.2240 -0.1975
  138OSM   C11S14958   1.399   3.511   3.891  0.3624  0.7474 -0.7306
  138OSM   H11S14959   1.303   3.461   3.918 -0.0917  1.5623 -0.8014
  138OSM   H11T14960   1.416   3.600   3.955 -0.2828  0.0704  0.4306
  138OSM   C12S14961   1.513   3.411   3.901  0.6168  0.5682 -0.1235
  138OSM   H12S14962   1.557   3.414   4.003 -0.7391  0.0655  0.4895
  138OSM   H12T14963   1.585   3.439   3.821  2.7894  0.9941  1.8481
  138OSM   C13S14964   1.480   3.252   3.883 -0.0847 -0.7954  0.4913
  138OSM   H13S14965   1.580   3.205   3.900  1.5335  2.1265 -0.3374
  138OSM   H13T14966   1.445   3.237   3.778 -1.0476  2.4870  0.2488
  138OSM   C14S14967   1.383   3.204   3.988  0.2291 -0.1331  0.3547
  138OSM   H14S14968   1.331   3.109   3.963  1.6910 -1.0213  0.5730
  138OSM   H14T14969   1.300   3.271   4.020 -2.4952 -3.0457 -0.0962
  138OSM   C15S14970   1.462   3.184   4.118 -0.6688  0.0262  0.2607
  138OSM   H15S14971   1.509   3.278   4.153  1.9308 -1.4608  1.0612
  138OSM   H15T14972   1.548   3.114   4.109 -1.3592 -1.3637  3.3939
  138OSM   C16S14973   1.373   3.125   4.224  0.2625  0.4501 -0.8644
  138OSM   H16S14974   1.354   3.021   4.189  0.2813  0.2274 -0.2285
  138OSM   H16T14975   1.279   3.182   4.244  0.2328  0.4064 -0.8772
  138OSM   C17S14976   1.447   3.108   4.353 -0.1193  0.0932  0.4322
  138OSM   H17S14977   1.472   3.212   4.381 -0.6220  0.8392 -1.6909
  138OSM   H17T14978   1.541   3.054   4.325 -1.4846 -1.0431 -2.3138
  138OSM   C18S14979   1.366   3.042   4.461 -0.1355  0.6969  0.4901
  138OSM   H18S14980   1.353   2.932   4.454  3.2486  0.2161  0.5093
  138OSM   H18T14981   1.268   3.095   4.457 -1.5050 -1.7534 -2.1843
  138OSM   H18U14982   1.416   3.061   4.559  0.4055 -0.5080  0.4602
  138OSM    C1F14983   1.126   3.122   3.412 -0.0010 -0.4464  0.2308
  138OSM     OF14984   1.215   3.104   3.331 -0.4938  0.1220  0.2638
  138OSM    C2F14985   1.092   3.020   3.518  0.3235  0.0905 -0.2199
  138OSM    H2F14986   1.130   2.924   3.477 -0.1990 -0.7737  1.2439
  138OSM    H2G14987   0.984   3.026   3.544  0.5897 -2.5448  1.8857
  138OSM    C3F14988   1.167   3.046   3.649  0.2203  0.0490  0.4130
  138OSM    H3F14989   1.140   3.151   3.674  1.0397  0.4276 -0.2720
  138OSM    H3G14990   1.275   3.062   3.632  1.0411 -2.8686  2.1398
  138OSM    C4F14991   1.130   2.946   3.753  0.2020 -0.0863 -0.0780
  138OSM    H4F14992   1.022   2.920   3.745  0.3161 -0.1902 -1.5899
  138OSM    H4G14993   1.144   2.984   3.857 -0.7037  0.1970 -0.0472
  138OSM    C5F14994   1.205   2.805   3.741  0.0913 -0.2530  0.0259
  138OSM    H5F14995   1.212   2.776   3.634  1.5478  2.0700 -0.5767
  138OSM    H5G14996   1.147   2.724   3.790  0.6598 -0.0124  1.1146
  138OSM    C6F14997   1.353   2.802   3.777 -0.3663 -0.0483  0.2150
  138OSM    H6F14998   1.361   2.816   3.887 -1.8337 -1.1569  0.4951
  138OSM    H6G14999   1.414   2.884   3.736  2.4888 -2.1378 -0.0040
  138OSM    C7F15000   1.424   2.670   3.738 -0.2375  0.5282  0.8713
  138OSM    H7F15001   1.430   2.669   3.627 -2.3492 -1.0135  0.7082
  138OSM    H7G15002   1.369   2.578   3.768 -0.4474 -0.9062 -3.3440
  138OSM    C8F15003   1.568   2.659   3.793  0.0083  0.1151 -1.1409
  138OSM    H8F15004   1.560   2.660   3.904 -1.3782 -0.6405 -1.2209
  138OSM    H8G15005   1.617   2.752   3.756 -0.1327  1.2969  1.4484
  138OSM    C9F15006   1.651   2.544   3.729  0.1631 -0.6775 -0.1971
  138OSM    H9F15007   1.673   2.564   3.623 -2.5037  0.6244 -0.6049
  138OSM   C10F15008   1.694   2.432   3.790 -0.2655  0.0860 -0.5945
  138OSM   H10F15009   1.754   2.358   3.736  0.3420  0.3652 -0.3127
  138OSM   C11F15010   1.670   2.392   3.939 -0.5121  0.7046  0.2325
  138OSM   H11F15011   1.641   2.287   3.957 -2.0250  1.5497  3.5104
  138OSM   H11G15012   1.582   2.447   3.978  0.3682  2.3184  0.0775
  138OSM   C12F15013   1.784   2.429   4.041 -0.2875  0.0942 -0.0856
  138OSM   H12F15014   1.799   2.539   4.045 -1.5360  0.2826 -0.1052
  138OSM   H12G15015   1.882   2.384   4.013  0.3527  0.6435  1.2336
  138OSM   C13F15016   1.753   2.386   4.184  0.7267  0.3915  0.7249
  138OSM   H13F15017   1.777   2.279   4.196  1.1315  0.4928  0.8480
  138OSM   H13G15018   1.644   2.400   4.195  0.3512 -2.4750  1.2832
  138OSM   C14F15019   1.835   2.466   4.289 -0.2337 -0.1150 -0.7565
  138OSM   H14F15020   1.789   2.568   4.290 -1.3129 -0.5832  0.5862
  138OSM   H14G15021   1.941   2.479   4.258  0.5419  1.5410  2.2163
  138OSM   C15F15022   1.827   2.403   4.431  0.3899 -0.0133 -0.3426
  138OSM   H15F15023   1.890   2.469   4.495  0.7692  1.3872 -2.0736
  138OSM   H15G15024   1.872   2.301   4.426  3.0256  1.0939 -1.3260
  138OSM   C16F15025   1.683   2.404   4.486  0.4142  0.3641 -0.1475
  138OSM   H16F15026   1.621   2.358   4.407 -0.0221  0.2969  0.2292
  138OSM   H16G15027   1.648   2.507   4.512  0.5655  0.5250 -0.5774
  138OSM   C17F15028   1.657   2.324   4.614  0.8230  0.0536 -0.1166
  138OSM   H17F15029   1.723   2.368   4.692  2.5027 -0.0539 -1.4211
  138OSM   H17G15030   1.682   2.215   4.612 -1.4454 -0.6186  2.0794
  138OSM   C18F15031   1.514   2.343   4.674  0.5993 -0.2321 -0.4290
  138OSM   H18F15032   1.504   2.297   4.775  1.4276  1.2139  0.3407
  138OSM   H18G15033   1.431   2.290   4.624 -1.6406 -0.7469  3.4170
  138OSM   H18H15034   1.486   2.450   4.681  1.1721 -0.1891  2.1269
  139OSM      N15035   2.809   5.207   3.030 -0.3008 -0.4723 -0.0402
  139OSM    C1515036   2.793   5.212   2.883  0.4684  0.2738 -0.1125
  139OSM   H15A15037   2.693   5.197   2.844  0.2427 -0.0957  0.5882
  139OSM   H15B15038   2.863   5.146   2.834  0.7094 -0.7470  1.5593
  139OSM   H15C15039   2.812   5.310   2.841 -2.4705  0.3626 -1.4816
  139OSM    C1415040   2.933   5.285   3.065  0.8824  0.0980  0.0482
  139OSM   H14A15041   2.957   5.285   3.171  0.7868  1.6253  0.0846
  139OSM   H14B15042   2.924   5.385   3.028 -2.0194 -0.4948 -1.1530
  139OSM   H14C15043   3.020   5.243   3.018  0.9923  0.0640  0.2801
  139OSM    C1315044   2.693   5.280   3.087 -0.7144  0.2158 -0.3280
  139OSM   H13A15045   2.707   5.277   3.195  1.7641 -0.8456 -0.6085
  139OSM   H13B15046   2.602   5.229   3.060  0.3064 -2.8661  1.5204
  139OSM   H13C15047   2.690   5.386   3.066 -0.4511  0.3012  0.0358
  139OSM    C1215048   2.814   5.061   3.079 -0.7824  0.0723  0.1249
  139OSM   H12A15049   2.897   5.004   3.040 -0.6745  0.0762  0.3468
  139OSM   H12B15050   2.724   5.013   3.044  0.3485 -0.2339 -2.5891
  139OSM    C1115051   2.814   5.033   3.236  1.0734 -0.2242 -0.1258
  139OSM   H11A15052   2.793   4.926   3.258 -0.6060  0.1540  0.2942
  139OSM   H11B15053   2.723   5.080   3.281  1.4541 -0.0896  0.5193
  139OSM      P15054   3.068   5.007   3.292  0.1024 -0.4011 -0.0572
  139OSM    O1315055   3.043   4.867   3.240  0.1988  0.0530 -0.4536
  139OSM    O1415056   3.171   5.083   3.213 -0.0760 -0.3456  0.0499
  139OSM    O1115057   3.105   4.997   3.441 -0.9694 -0.0940  0.4646
  139OSM    O1215058   2.930   5.086   3.299 -0.2286  0.7879 -0.3294
  139OSM    C1S15059   3.180   5.114   3.489 -0.3138  0.5018 -0.6102
  139OSM    H1S15060   3.137   5.211   3.456  1.2587  1.6364  0.5493
  139OSM    H1T15061   3.288   5.115   3.465  0.1817  2.3303  1.4017
  139OSM     NF15062   3.216   5.266   3.672 -0.2559  0.1045 -0.0940
  139OSM    HNF15063   3.313   5.268   3.696 -0.6926 -0.3676  1.9361
  139OSM    C2S15064   3.174   5.129   3.641 -0.1835 -0.0402  0.0206
  139OSM    H2S15065   3.069   5.118   3.676 -0.9907  2.5393 -1.3858
  139OSM    C3S15066   3.256   5.024   3.718  0.6199  0.7514  0.6237
  139OSM    H3S15067   3.363   5.052   3.706  1.5785 -1.7028  2.5312
  139OSM     O315068   3.259   4.892   3.657 -0.3813 -0.0301  0.2767
  139OSM    HO315069   3.206   4.917   3.581 -1.5217  0.7834  1.3005
  139OSM    C4S15070   3.228   5.030   3.864 -0.1160 -0.0543  0.1077
  139OSM    H4S15071   3.253   5.131   3.902  1.0871 -0.0328 -0.7101
  139OSM    C5S15072   3.170   4.937   3.943  0.0991 -0.2330  0.8505
  139OSM    H5S15073   3.155   4.834   3.908  1.7065  0.5339 -2.5132
  139OSM    C6S15074   3.172   4.953   4.094 -0.2089  0.0145  0.4124
  139OSM    H6S15075   3.232   4.870   4.137 -0.0206  0.8035  1.7562
  139OSM    H6T15076   3.068   4.939   4.130 -0.5452  1.7449  0.2389
  139OSM    C7S15077   3.231   5.085   4.159 -0.3471  0.2520 -0.3090
  139OSM    H7S15078   3.167   5.160   4.108 -1.4193 -1.3701 -1.4260
  139OSM    H7T15079   3.337   5.099   4.126 -1.0275  0.4706 -2.5489
  139OSM    C8S15080   3.210   5.094   4.312  0.2024 -1.1635  0.4614
  139OSM    H8S15081   3.290   5.164   4.344  0.4814 -0.6573 -1.2670
  139OSM    H8T15082   3.233   4.995   4.356  0.1530 -0.8148  1.2988
  139OSM    C9S15083   3.066   5.126   4.347  0.0883 -0.0354 -0.0418
  139OSM    H9S15084   2.994   5.064   4.290 -0.4980 -0.3102  0.9742
  139OSM    H9T15085   3.044   5.229   4.311 -0.2308  0.7577  2.2669
  139OSM   C10S15086   3.049   5.096   4.498  0.3865 -0.5346 -0.0485
  139OSM   H10S15087   3.126   5.143   4.563  0.3178 -1.3544  0.6412
  139OSM   H10T15088   3.050   4.986   4.515 -1.3773 -0.2109  2.9320
  139OSM   C11S15089   2.905   5.149   4.548 -0.3044 -0.3739  1.0290
  139OSM   H11S15090   2.915   5.260   4.549 -0.4482 -0.2957  3.9528
  139OSM   H11T15091   2.882   5.136   4.656 -0.3768  2.5502  1.4468
  139OSM   C12S15092   2.791   5.105   4.452 -0.4993  0.0165 -0.1722
  139OSM   H12S15093   2.802   4.994   4.453 -0.9675 -0.0344 -0.4033
  139OSM   H12T15094   2.819   5.142   4.352  0.6607 -1.2180 -0.3306
  139OSM   C13S15095   2.647   5.135   4.495 -0.6013  0.8604 -0.7035
  139OSM   H13S15096   2.647   5.132   4.606  0.7120 -2.5656 -0.6777
  139OSM   H13T15097   2.581   5.054   4.458 -3.2621  1.9371  1.3178
  139OSM   C14S15098   2.599   5.271   4.451 -0.2634  0.0141 -0.0362
  139OSM   H14S15099   2.670   5.355   4.469 -0.2459 -0.0834  0.3554
  139OSM   H14T15100   2.511   5.304   4.511 -1.1562 -0.2869 -1.1549
  139OSM   C15S15101   2.573   5.282   4.301 -0.1182  0.3378 -0.7668
  139OSM   H15S15102   2.469   5.243   4.298 -0.1264  0.3294 -0.3733
  139OSM   H15T15103   2.631   5.218   4.230 -2.1813 -1.0411 -1.2846
  139OSM   C16S15104   2.585   5.423   4.247  0.1599 -0.6280 -0.7233
  139OSM   H16S15105   2.565   5.437   4.139 -2.2522 -0.3216 -0.2876
  139OSM   H16T15106   2.690   5.453   4.269 -0.3995  0.6496  0.3247
  139OSM   C17S15107   2.505   5.535   4.311 -0.0092 -0.4663 -0.0701
  139OSM   H17S15108   2.532   5.626   4.253  0.1588 -1.3663 -1.4457
  139OSM   H17T15109   2.546   5.545   4.414 -0.3043  0.0910 -0.0019
  139OSM   C18S15110   2.351   5.504   4.321  0.8344 -0.1492  0.0597
  139OSM   H18S15111   2.334   5.415   4.385  1.9448  0.3780  1.1206
  139OSM   H18T15112   2.312   5.474   4.221 -0.8393  0.5872  0.4589
  139OSM   H18U15113   2.291   5.595   4.346  0.2159 -0.4584 -0.2687
  139OSM    C1F15114   3.138   5.369   3.643 -0.4022  0.4952 -0.1101
  139OSM     OF15115   3.022   5.340   3.628  0.3071  0.4206  0.4684
  139OSM    C2F15116   3.201   5.509   3.659  0.2194 -0.2645  0.5939
  139OSM    H2F15117   3.262   5.523   3.568  0.3959  0.5085  0.8208
  139OSM    H2G15118   3.270   5.502   3.746  1.9249 -0.9940 -0.7549
  139OSM    C3F15119   3.097   5.622   3.676  0.1612 -0.0343  0.1202
  139OSM    H3F15120   3.049   5.617   3.775 -1.0947  3.0806 -0.2247
  139OSM    H3G15121   3.010   5.609   3.608 -0.5522  0.8358  0.8369
  139OSM    C4F15122   3.155   5.761   3.662 -0.1905  0.1797 -0.3881
  139OSM    H4F15123   3.206   5.757   3.563  0.8659  1.0956  0.1046
  139OSM    H4G15124   3.237   5.787   3.732  0.5815  0.0940 -1.2349
  139OSM    C5F15125   3.037   5.869   3.659 -0.7233 -0.1044 -0.5165
  139OSM    H5F15126   2.990   5.877   3.760 -0.5069 -0.7683 -0.3529
  139OSM    H5G15127   2.958   5.826   3.595 -1.0503 -0.3465  0.0364
  139OSM    C6F15128   3.093   6.003   3.606 -0.5434  0.4681  0.7907
  139OSM    H6F15129   3.003   6.066   3.590 -1.3514 -0.8760 -0.1346
  139OSM    H6G15130   3.144   5.992   3.508 -1.7928  1.1000  0.0350
  139OSM    C7F15131   3.198   6.058   3.705 -0.4300  0.2832 -0.4321
  139OSM    H7F15132   3.282   5.986   3.714  1.3258  2.3673  0.6981
  139OSM    H7G15133   3.154   6.034   3.804 -2.2350 -1.9233 -1.6639
  139OSM    C8F15134   3.225   6.209   3.690  0.7048 -0.0674 -0.9334
  139OSM    H8F15135   3.272   6.227   3.591  2.5273 -0.3568 -0.1589
  139OSM    H8G15136   3.302   6.240   3.764  1.9312 -0.6998 -1.9149
  139OSM    C9F15137   3.096   6.293   3.703  0.0989  0.3171  0.0212
  139OSM    H9F15138   3.040   6.303   3.609  1.0909 -0.8257 -0.7171
  139OSM   C10F15139   3.065   6.376   3.805  0.2294 -0.0827  0.2238
  139OSM   H10F15140   2.967   6.424   3.795  1.2493  1.5708 -4.7617
  139OSM   C11F15141   3.139   6.389   3.935  0.3321 -1.1690 -0.9969
  139OSM   H11F15142   3.202   6.480   3.940  0.3240 -1.2462  1.4366
  139OSM   H11G15143   3.209   6.308   3.963  1.3590  0.1137  0.2304
  139OSM   C12F15144   3.042   6.410   4.056 -0.2006  0.0488 -0.0588
  139OSM   H12F15145   3.003   6.309   4.079 -2.1016  0.1706 -2.4219
  139OSM   H12G15146   2.959   6.478   4.028  0.4779  1.0306  0.2719
  139OSM   C13F15147   3.122   6.460   4.176  0.1234  0.5226 -0.3723
  139OSM   H13F15148   3.129   6.570   4.172  0.0922  0.5919  1.0773
  139OSM   H13G15149   3.228   6.429   4.169 -0.0831 -0.1549 -0.6062
  139OSM   C14F15150   3.062   6.421   4.313  0.2724  0.2137  0.8062
  139OSM   H14F15151   3.077   6.312   4.319  3.1808  0.4388 -0.7944
  139OSM   H14G15152   2.954   6.448   4.301  0.0031 -0.3359  1.8627
  139OSM   C15F15153   3.119   6.495   4.435 -0.4851 -0.2607  0.2301
  139OSM   H15F15154   3.122   6.606   4.432  1.3663 -0.1566  2.5599
  139OSM   H15G15155   3.221   6.466   4.470 -1.7040 -3.6776  1.3691
  139OSM   C16F15156   3.033   6.456   4.562  0.5385  0.5910  0.0932
  139OSM   H16F15157   2.926   6.484   4.547  1.2740  3.2160 -0.9015
  139OSM   H16G15158   3.075   6.518   4.645  0.1283 -1.8151  2.2207
  139OSM   C17F15159   3.041   6.308   4.591 -0.1784 -0.4645 -0.3044
  139OSM   H17F15160   3.144   6.279   4.562  0.1082  0.0822  0.1426
  139OSM   H17G15161   2.968   6.254   4.527 -0.8923 -1.9076  1.6340
  139OSM   C18F15162   3.017   6.266   4.738 -0.7769  0.2206 -0.0458
  139OSM   H18F15163   3.099   6.300   4.804  0.5857 -0.5417 -1.2870
  139OSM   H18G15164   3.009   6.157   4.758  0.8350  0.7414  4.6369
  139OSM   H18H15165   2.916   6.287   4.778  0.1274  0.1672  2.4498
  140OSM      N15166   5.405   1.898   2.684 -0.4062  0.0781 -0.4521
  140OSM    C1515167   5.335   2.016   2.738  0.5633  0.3055  0.2875
  140OSM   H15A15168   5.284   1.989   2.829  1.5372  0.7933  0.9820
  140OSM   H15B15169   5.254   2.035   2.668 -0.5149  0.4752  1.5397
  140OSM   H15C15170   5.382   2.111   2.755  1.0583 -0.1209  1.3780
  140OSM    C1415171   5.504   1.854   2.788  0.3014 -0.0360  0.1887
  140OSM   H14A15172   5.547   1.759   2.764  1.7635  0.2338  1.5722
  140OSM   H14B15173   5.460   1.839   2.886 -1.2919  1.4038 -0.2387
  140OSM   H14C15174   5.585   1.924   2.803  1.9591 -1.4651 -1.6447
  140OSM    C1315175   5.314   1.778   2.670 -0.0809 -0.0230  0.0115
  140OSM   H13A15176   5.240   1.799   2.595  0.8506 -1.4046 -1.3519
  140OSM   H13B15177   5.265   1.751   2.762 -0.2462 -1.9655 -0.6134
  140OSM   H13C15178   5.375   1.692   2.648  1.6342  0.7997  1.3126
  140OSM    C1215179   5.478   1.938   2.556  0.0987 -0.2953 -0.1341
  140OSM   H12A15180   5.528   2.030   2.583 -1.4268  0.0222  1.8281
  140OSM   H12B15181   5.400   1.962   2.485 -0.1722 -2.2466 -0.5476
  140OSM    C1115182   5.568   1.846   2.474 -0.3322 -0.5514 -0.9931
  140OSM   H11A15183   5.653   1.811   2.537  0.6944  0.6812 -1.6394
  140OSM   H11B15184   5.616   1.892   2.385 -1.9601 -1.4447 -2.3822
  140OSM      P15185   5.546   1.581   2.450 -0.1518 -0.2119  0.2302
  140OSM    O1315186   5.446   1.486   2.390  0.1736 -0.9482 -0.1769
  140OSM    O1415187   5.686   1.573   2.400 -0.4874 -0.0778  0.1667
  140OSM    O1115188   5.550   1.559   2.602  0.8089  0.0550 -0.3986
  140OSM    O1215189   5.493   1.729   2.433 -0.6815  0.0884  0.1785
  140OSM    C1S15190   5.668   1.547   2.678  0.4072 -0.5109  0.0244
  140OSM    H1S15191   5.714   1.646   2.697 -1.1665  0.1866  0.3784
  140OSM    H1T15192   5.744   1.479   2.635 -1.1194 -1.1599 -1.7782
  140OSM     NF15193   5.770   1.494   2.901  0.3278  0.4367 -0.1027
  140OSM    HNF15194   5.837   1.422   2.887 -0.7713 -0.4956 -0.7407
  140OSM    C2S15195   5.643   1.489   2.828  0.0021  0.3157 -0.0359
  140OSM    H2S15196   5.560   1.546   2.875 -1.1230 -0.5679 -0.8664
  140OSM    C3S15197   5.587   1.342   2.811  0.1271 -0.0480 -0.4398
  140OSM    H3S15198   5.661   1.286   2.749  0.2240 -0.4673  0.0505
  140OSM     O315199   5.466   1.330   2.742  0.2067 -0.1978 -0.2180
  140OSM    HO315200   5.469   1.396   2.673 -0.7148 -1.3803 -1.4596
  140OSM    C4S15201   5.583   1.269   2.946  0.4325  0.0164  0.0650
  140OSM    H4S15202   5.686   1.241   2.971  0.6773 -0.2631 -1.2157
  140OSM    C5S15203   5.479   1.251   3.034  0.6288 -0.6831  0.6442
  140OSM    H5S15204   5.380   1.289   3.004  1.7270  0.8528 -1.3494
  140OSM    C6S15205   5.498   1.194   3.171 -0.3047 -0.4782 -0.4475
  140OSM    H6S15206   5.428   1.110   3.188  0.1563 -1.5716 -3.3490
  140OSM    H6T15207   5.462   1.272   3.242 -1.4526 -2.0064  0.7138
  140OSM    C7S15208   5.636   1.135   3.207 -0.3846  0.3937 -0.3801
  140OSM    H7S15209   5.711   1.207   3.169  1.0776 -0.1084  1.3745
  140OSM    H7T15210   5.668   1.037   3.165 -0.8208  0.2872 -0.4733
  140OSM    C8S15211   5.650   1.121   3.361 -0.3438 -0.2471 -0.8052
  140OSM    H8S15212   5.649   1.219   3.413  2.2697 -0.6958  0.2736
  140OSM    H8T15213   5.751   1.082   3.387 -0.8067 -0.0624  1.5330
  140OSM    C9S15214   5.540   1.033   3.417  0.0705 -1.0785 -0.3749
  140OSM    H9S15215   5.547   0.931   3.374  4.0542 -0.6542 -1.1766
  140OSM    H9T15216   5.439   1.070   3.389  1.0549  0.8741 -1.5607
  140OSM   C10S15217   5.552   1.029   3.568 -1.2690 -1.2580 -0.2858
  140OSM   H10S15218   5.485   0.953   3.614 -1.7507 -2.5665 -2.9684
  140OSM   H10T15219   5.534   1.129   3.614  1.7107 -0.6987 -0.1397
  140OSM   C11S15220   5.694   0.980   3.623 -0.2006 -0.2503  0.2831
  140OSM   H11S15221   5.764   1.062   3.597 -0.1075  0.1381  1.7241
  140OSM   H11T15222   5.724   0.884   3.575  0.9241  0.0050  0.4453
  140OSM   C12S15223   5.680   0.971   3.776  0.7480 -0.0292  0.4464
  140OSM   H12S15224   5.591   0.918   3.817  0.5950 -0.4643 -0.4358
  140OSM   H12T15225   5.675   1.077   3.811 -0.0621  0.5205 -1.2194
  140OSM   C13S15226   5.809   0.914   3.846  0.2373  0.2257  0.1311
  140OSM   H13S15227   5.894   0.974   3.808  0.9019  0.8155  2.4136
  140OSM   H13T15228   5.818   0.807   3.818  3.1708  0.3039  0.4250
  140OSM   C14S15229   5.787   0.938   3.993 -0.0055 -0.0500  0.2256
  140OSM   H14S15230   5.692   0.892   4.029  0.9005 -0.4021  2.2603
  140OSM   H14T15231   5.785   1.045   4.022 -1.2151 -0.4286  1.6728
  140OSM   C15S15232   5.905   0.877   4.067 -0.1625  0.2152 -1.1329
  140OSM   H15S15233   5.992   0.938   4.033 -0.0058  0.0458 -1.0410
  140OSM   H15T15234   5.918   0.771   4.035 -0.0906  0.5017 -2.0814
  140OSM   C16S15235   5.889   0.870   4.219 -0.2218 -0.2203 -0.0424
  140OSM   H16S15236   5.960   0.794   4.258  1.5547  1.1779 -0.4247
  140OSM   H16T15237   5.786   0.829   4.227  0.0319 -1.3844 -2.1730
  140OSM   C17S15238   5.893   1.014   4.291 -0.5274 -0.5253  0.4801
  140OSM   H17S15239   5.853   1.010   4.394 -2.4987 -0.3896 -0.2240
  140OSM   H17T15240   5.815   1.083   4.252 -1.6576 -1.2129  1.4794
  140OSM   C18S15241   6.027   1.083   4.276  0.0985 -0.3799 -0.3648
  140OSM   H18S15242   6.070   1.125   4.370 -1.0277 -2.2689  1.0598
  140OSM   H18T15243   6.003   1.164   4.203 -0.7418 -0.7551 -0.5119
  140OSM   H18U15244   6.089   1.008   4.224  0.4609  0.5884 -1.3789
  140OSM    C1F15245   5.818   1.609   2.944  0.8858  0.3631  0.2285
  140OSM     OF15246   5.747   1.707   2.937  0.4696  0.0623 -0.4414
  140OSM    C2F15247   5.965   1.617   2.985  0.6329  0.2398  0.2646
  140OSM    H2F15248   6.007   1.701   2.926 -0.9710  0.6299 -0.3780
  140OSM    H2G15249   6.019   1.524   2.956  0.5846  0.5808 -0.9839
  140OSM    C3F15250   5.969   1.643   3.136 -0.3613  0.2968  1.1137
  140OSM    H3F15251   5.913   1.562   3.187  0.8797 -0.4400  1.3475
  140OSM    H3G15252   5.929   1.742   3.168  0.7714  1.2514 -0.2671
  140OSM    C4F15253   6.109   1.625   3.199 -0.0621  0.5865  0.3320
  140OSM    H4F15254   6.194   1.691   3.172  1.5643 -1.5070  0.0822
  140OSM    H4G15255   6.139   1.522   3.172 -2.0582 -0.1687  0.7737
  140OSM    C5F15256   6.089   1.609   3.355  0.7642 -0.1982 -0.9928
  140OSM    H5F15257   6.184   1.579   3.404  1.2352 -0.0843 -1.8260
  140OSM    H5G15258   6.010   1.536   3.383 -0.3959  0.4138 -2.5209
  140OSM    C6F15259   6.059   1.742   3.428  0.2880  0.6092 -0.4193
  140OSM    H6F15260   5.962   1.788   3.397 -1.4076 -1.1853  1.9012
  140OSM    H6G15261   6.137   1.814   3.396 -0.5865  0.9934 -1.8097
  140OSM    C7F15262   6.058   1.717   3.589 -0.7324  0.1312  0.6679
  140OSM    H7F15263   6.161   1.692   3.621 -0.3569 -1.3176 -1.4789
  140OSM    H7G15264   5.998   1.627   3.614 -2.3025  0.1144 -2.6555
  140OSM    C8F15265   6.010   1.847   3.666 -0.2624  0.3624 -0.1921
  140OSM    H8F15266   6.031   1.814   3.769  2.2118 -0.0972 -0.7710
  140OSM    H8G15267   5.905   1.879   3.651 -0.9884 -1.9203 -0.2863
  140OSM    C9F15268   6.104   1.964   3.631  0.5012  0.1379 -0.4921
  140OSM    H9F15269   6.098   1.990   3.525 -0.7377 -0.7146 -0.6605
  140OSM   C10F15270   6.197   2.016   3.713 -0.2338  0.0411  0.9279
  140OSM   H10F15271   6.262   2.102   3.691  0.3720 -0.1150  2.0313
  140OSM   C11F15272   6.240   1.950   3.848 -0.5256 -0.2157  0.2941
  140OSM   H11F15273   6.348   1.925   3.849 -0.3126  0.6265  2.2360
  140OSM   H11G15274   6.196   1.849   3.858 -1.5012  0.1540 -0.0756
  140OSM   C12F15275   6.210   2.029   3.975  0.2053  0.2040  0.1712
  140OSM   H12F15276   6.100   2.048   3.977 -0.1141 -0.6222 -3.1968
  140OSM   H12G15277   6.273   2.120   3.976  1.6647 -0.7522 -0.7401
  140OSM   C13F15278   6.253   1.961   4.104  0.1255 -0.4264 -0.0980
  140OSM   H13F15279   6.362   1.944   4.094  0.0397 -0.1148 -1.8223
  140OSM   H13G15280   6.193   1.867   4.100 -0.1534 -0.3157  1.1885
  140OSM   C14F15281   6.224   2.047   4.230 -0.3506 -0.0582  0.0767
  140OSM   H14F15282   6.115   2.043   4.247 -0.3506 -0.2577  0.0310
  140OSM   H14G15283   6.254   2.151   4.205  1.2322 -0.4079  0.4044
  140OSM   C15F15284   6.295   1.984   4.358  0.3790  0.4448  0.0085
  140OSM   H15F15285   6.260   1.880   4.372 -1.2897  0.7035 -1.7512
  140OSM   H15G15286   6.267   2.047   4.445  0.0317  0.8828 -0.4120
  140OSM   C16F15287   6.452   1.987   4.356  0.3812 -0.3454 -0.4463
  140OSM   H16F15288   6.492   2.091   4.350 -0.9445  0.2035 -0.1956
  140OSM   H16G15289   6.487   1.928   4.269 -0.3149 -0.5850 -0.5720
  140OSM   C17F15290   6.501   1.915   4.478  0.1155  0.3827  0.1145
  140OSM   H17F15291   6.612   1.928   4.481  0.0970  0.4020  2.1176
  140OSM   H17G15292   6.482   1.806   4.470 -0.8970  0.4781  1.0266
  140OSM   C18F15293   6.453   1.964   4.612  0.6338 -0.0645  0.0790
  140OSM   H18F15294   6.348   1.930   4.627  2.0239 -3.5100  3.3927
  140OSM   H18G15295   6.461   2.075   4.618 -0.0931  0.0464 -0.7305
  140OSM   H18H15296   6.503   1.915   4.698  0.0416 -0.8499 -0.0071
  141OSM      N15297   0.194   5.985   2.770 -0.8159 -0.3480  0.6365
  141OSM    C1515298   0.097   6.096   2.743 -0.2943  0.3925 -0.3198
  141OSM   H15A15299   0.110   6.133   2.642  0.4812  2.1370  0.3789
  141OSM   H15B15300   0.129   6.172   2.812  0.6879  0.0792 -0.4035
  141OSM   H15C15301  -0.005   6.063   2.757 -0.1839 -0.1117 -0.6782
  141OSM    C1415302   0.179   5.875   2.670 -0.3855 -0.0624 -0.3263
  141OSM   H14A15303   0.228   5.880   2.573 -2.7293 -0.3664 -1.5895
  141OSM   H14B15304   0.073   5.862   2.658 -0.7300  0.9802  1.3396
  141OSM   H14C15305   0.216   5.781   2.707  0.7482  0.0494 -1.1135
  141OSM    C1315306   0.332   6.043   2.749  0.0112 -1.1810 -0.3796
  141OSM   H13A15307   0.418   5.979   2.765 -0.0739 -0.7174  2.4338
  141OSM   H13B15308   0.339   6.135   2.804 -3.0065 -2.1905  2.0170
  141OSM   H13C15309   0.330   6.078   2.647 -1.1166  0.5040  0.1933
  141OSM    C1215310   0.170   5.940   2.912 -0.3295  0.2710 -0.4123
  141OSM   H12A15311   0.132   6.026   2.965  1.5163  1.1621 -0.4495
  141OSM   H12B15312   0.257   5.909   2.969 -0.1378  3.0248  0.9459
  141OSM    C1115313   0.063   5.828   2.936  0.0055  0.1079 -0.4314
  141OSM   H11A15314   0.069   5.796   3.043 -0.9950 -0.1922 -0.4509
  141OSM   H11B15315   0.084   5.735   2.879 -1.7941  0.1890 -1.2850
  141OSM      P15316  -0.145   5.989   2.994  0.2152 -0.1770  0.0025
  141OSM    O1315317  -0.223   6.060   2.892  0.0379  0.2296 -0.2615
  141OSM    O1415318  -0.216   5.934   3.113  0.8386 -0.0840 -0.2977
  141OSM    O1115319  -0.028   6.078   3.058  0.2340 -0.4593 -1.0807
  141OSM    O1215320  -0.076   5.872   2.908 -0.2431 -0.9189  0.1217
  141OSM    C1S15321  -0.053   6.201   3.131 -0.1084  0.2340 -0.9014
  141OSM    H1S15322  -0.160   6.230   3.131  0.1315  1.1523 -0.7603
  141OSM    H1T15323   0.007   6.284   3.090 -1.7676  2.8134  1.4882
  141OSM     NF15324  -0.040   6.331   3.354  0.3805 -0.0899  0.1622
  141OSM    HNF15325   0.037   6.394   3.355  0.8742 -0.6877  0.1048
  141OSM    C2S15326  -0.012   6.200   3.289  0.3350 -0.3955  0.2311
  141OSM    H2S15327  -0.077   6.127   3.342  2.8081 -0.4123  3.4996
  141OSM    C3S15328   0.136   6.159   3.318 -0.0612  0.6883  1.0493
  141OSM    H3S15329   0.205   6.235   3.276  1.2247  0.6092  2.8729
  141OSM     O315330   0.167   6.036   3.247 -0.1804 -0.3286 -0.1461
  141OSM    HO315331   0.092   6.043   3.187  0.1487  4.8198 -0.4188
  141OSM    C4S15332   0.165   6.140   3.461  0.7311 -0.4045  1.0175
  141OSM    H4S15333   0.083   6.098   3.522 -3.2702  1.3110 -2.6806
  141OSM    C5S15334   0.283   6.175   3.510 -0.0595  0.0273 -0.1533
  141OSM    H5S15335   0.364   6.209   3.444 -0.2952 -0.0627 -0.4890
  141OSM    C6S15336   0.319   6.184   3.651 -0.2145 -0.1775  0.4094
  141OSM    H6S15337   0.358   6.288   3.662 -1.1886  0.1346  1.0722
  141OSM    H6T15338   0.383   6.097   3.675 -0.6322 -1.0171 -1.3887
  141OSM    C7S15339   0.195   6.190   3.747 -1.0157 -0.4485  0.1809
  141OSM    H7S15340   0.157   6.086   3.751 -1.3117 -0.3447  0.0980
  141OSM    H7T15341   0.113   6.254   3.707 -1.6601 -0.3189  1.6172
  141OSM    C8S15342   0.224   6.254   3.887 -0.6842  0.1146 -0.7834
  141OSM    H8S15343   0.270   6.352   3.864  3.6482 -1.9209 -1.7321
  141OSM    H8T15344   0.299   6.191   3.939 -0.9147  0.2152 -0.3248
  141OSM    C9S15345   0.096   6.253   3.969 -0.1467  0.2409  0.2117
  141OSM    H9S15346   0.075   6.148   3.997  0.1242  0.1618  0.1247
  141OSM    H9T15347   0.006   6.294   3.918 -1.9404 -2.7337  0.7588
  141OSM   C10S15348   0.111   6.325   4.110  0.1404  0.0863 -0.3381
  141OSM   H10S15349   0.008   6.361   4.134 -0.0587 -0.5993 -0.1107
  141OSM   H10T15350   0.185   6.405   4.091  0.5740  0.3830  2.2441
  141OSM   C11S15351   0.170   6.231   4.218 -0.1385  0.3644 -0.2105
  141OSM   H11S15352   0.266   6.196   4.175 -0.6501 -2.0059  0.3821
  141OSM   H11T15353   0.107   6.140   4.233 -0.7005  0.8275  0.2644
  141OSM   C12S15354   0.189   6.303   4.354  0.5866  0.0344  0.7383
  141OSM   H12S15355   0.089   6.325   4.397  0.2930 -0.3026  0.2367
  141OSM   H12T15356   0.245   6.399   4.352  0.2860  0.2018  0.0629
  141OSM   C13S15357   0.258   6.220   4.460 -0.5367 -0.1445  0.0635
  141OSM   H13S15358   0.261   6.271   4.559  2.7103  0.4500 -0.2114
  141OSM   H13T15359   0.359   6.187   4.427  0.0770 -0.2373  1.9251
  141OSM   C14S15360   0.188   6.088   4.500 -0.2401 -0.1577 -0.3811
  141OSM   H14S15361   0.245   6.054   4.589  1.0337  3.0494  0.1680
  141OSM   H14T15362   0.201   6.015   4.417  0.0897  1.4926 -1.8455
  141OSM   C15S15363   0.042   6.093   4.536 -0.3001 -0.1567 -0.2352
  141OSM   H15S15364   0.022   5.994   4.580  0.8640 -0.0833  0.4934
  141OSM   H15T15365  -0.021   6.095   4.445  1.4689 -0.2914 -1.5179
  141OSM   C16S15366   0.004   6.205   4.633  0.0007 -0.3295 -0.0186
  141OSM   H16S15367   0.012   6.299   4.575  1.2447 -0.3785  0.0419
  141OSM   H16T15368   0.070   6.221   4.720  0.3794  0.9668 -0.5181
  141OSM   C17S15369  -0.146   6.190   4.688 -0.2973  0.0031  0.8120
  141OSM   H17S15370  -0.143   6.106   4.761  0.8164  1.1599  2.1395
  141OSM   H17T15371  -0.207   6.157   4.601  0.6199 -0.2726  0.2605
  141OSM   C18S15372  -0.205   6.312   4.761 -1.1129 -0.1730 -0.3906
  141OSM   H18S15373  -0.303   6.290   4.807 -2.3312 -0.3581 -2.9173
  141OSM   H18T15374  -0.206   6.392   4.683  1.0938  1.7220  1.3728
  141OSM   H18U15375  -0.135   6.332   4.845  1.9320 -1.3980 -2.4498
  141OSM    C1F15376  -0.170   6.368   3.371 -0.3719 -0.1778  0.8495
  141OSM     OF15377  -0.259   6.292   3.329  0.6624  0.5748 -0.6956
  141OSM    C2F15378  -0.187   6.508   3.407  0.2319 -0.1061 -0.2334
  141OSM    H2F15379  -0.213   6.566   3.316  1.7114 -2.4013 -2.2537
  141OSM    H2G15380  -0.091   6.547   3.448 -0.0314  1.3550 -0.9394
  141OSM    C3F15381  -0.295   6.517   3.514 -0.0574 -0.7054  0.2623
  141OSM    H3F15382  -0.391   6.476   3.476  0.5609 -2.5433  0.5653
  141OSM    H3G15383  -0.319   6.625   3.525 -1.3413 -0.9382 -0.0939
  141OSM    C4F15384  -0.262   6.458   3.653 -0.5977 -0.4937 -0.2033
  141OSM    H4F15385  -0.173   6.520   3.675 -1.2738  0.9683 -1.4288
  141OSM    H4G15386  -0.229   6.352   3.653 -0.0186 -0.3857  2.4607
  141OSM    C5F15387  -0.358   6.498   3.763  0.7854  0.0457  0.5146
  141OSM    H5F15388  -0.457   6.451   3.743  1.5759 -1.5185  0.1005
  141OSM    H5G15389  -0.362   6.609   3.768 -3.5851  0.1223 -0.5991
  141OSM    C6F15390  -0.312   6.452   3.904 -0.0468  0.5422  0.7505
  141OSM    H6F15391  -0.212   6.498   3.921  2.2552 -2.7566 -2.4150
  141OSM    H6G15392  -0.293   6.343   3.901 -2.0277  0.1705 -0.3849
  141OSM    C7F15393  -0.417   6.475   4.022 -0.2504 -0.5375 -0.2875
  141OSM    H7F15394  -0.497   6.397   4.015 -0.5048 -0.3003 -0.0312
  141OSM    H7G15395  -0.461   6.576   4.017 -0.1562 -0.1504  3.8475
  141OSM    C8F15396  -0.349   6.446   4.155 -0.3050  0.1711  0.3159
  141OSM    H8F15397  -0.309   6.343   4.148 -0.1902  0.3312 -2.9868
  141OSM    H8G15398  -0.427   6.440   4.234 -0.7713 -0.7717 -0.1965
  141OSM    C9F15399  -0.240   6.542   4.197  0.5025  0.4632  0.2926
  141OSM    H9F15400  -0.163   6.561   4.121  0.0978 -0.4942 -0.3704
  141OSM   C10F15401  -0.230   6.619   4.308 -0.6712 -0.4043  0.8471
  141OSM   H10F15402  -0.136   6.675   4.309 -0.8243  0.0481 -1.8684
  141OSM   C11F15403  -0.326   6.630   4.431  0.4663  0.3945  0.4922
  141OSM   H11F15404  -0.399   6.547   4.443 -0.8396  1.4766  0.1928
  141OSM   H11G15405  -0.388   6.721   4.429  2.7575  2.0433  0.1237
  141OSM   C12F15406  -0.245   6.648   4.566 -0.4538  0.2353  0.0815
  141OSM   H12F15407  -0.180   6.738   4.561  0.7987 -0.7026 -1.2795
  141OSM   H12G15408  -0.183   6.558   4.586 -2.6344 -1.5094 -0.5959
  141OSM   C13F15409  -0.333   6.665   4.695  0.0789  0.4770 -0.5188
  141OSM   H13F15410  -0.408   6.584   4.707  0.2004  0.5673  1.0604
  141OSM   H13G15411  -0.399   6.754   4.685 -2.2689 -1.0890  0.0475
  141OSM   C14F15412  -0.248   6.672   4.825 -0.3077 -0.3240  0.0177
  141OSM   H14F15413  -0.162   6.741   4.813 -0.9876  0.6897  0.7442
  141OSM   H14G15414  -0.207   6.569   4.832  0.2479 -0.1122 -0.0869
  141OSM   C15F15415  -0.340   6.715   4.941 -0.9257 -1.2206 -0.0168
  141OSM   H15F15416  -0.402   6.626   4.966 -0.8878 -1.0252  0.8094
  141OSM   H15G15417  -0.401   6.805   4.920  1.8616  0.4356 -1.6025
  141OSM   C16F15418  -0.251   6.750   5.065 -1.3947  0.2582 -0.7354
  141OSM   H16F15419  -0.167   6.819   5.046  0.8008 -2.1587 -0.4504
  141OSM   H16G15420  -0.209   6.653   5.099 -1.0458  0.8901  0.7278
  141OSM   C17F15421  -0.350   6.805   5.173 -0.1911  0.8131 -0.1022
  141OSM   H17F15422  -0.327   6.754   5.269  2.5228  0.6480 -0.7563
  141OSM   H17G15423  -0.450   6.769   5.141  1.2796 -2.5940 -1.3484
  141OSM   C18F15424  -0.332   6.950   5.206  0.3970  0.5358  0.6166
  141OSM   H18F15425  -0.407   6.978   5.284  0.1710  0.1335  0.5477
  141OSM   H18G15426  -0.352   7.020   5.123  0.0210  0.0153  0.2599
  141OSM   H18H15427  -0.236   6.973   5.257  0.2894  2.8436 -0.1441
  142OSM      N15428   1.713   1.380   2.784 -0.8642 -0.0763 -0.3257
  142OSM    C1515429   1.683   1.293   2.665  0.2236 -0.7127  0.8676
  142OSM   H15A15430   1.578   1.271   2.667 -0.4262  1.7817 -1.0772
  142OSM   H15B15431   1.745   1.205   2.671  1.4202  0.1421  1.7983
  142OSM   H15C15432   1.710   1.341   2.572 -2.5180 -0.3932  0.1674
  142OSM    C1415433   1.855   1.423   2.767  0.1328 -0.8553 -0.0144
  142OSM   H14A15434   1.873   1.473   2.674  0.8667 -1.5114 -0.2369
  142OSM   H14B15435   1.921   1.339   2.749  1.2669 -0.4573  1.9612
  142OSM   H14C15436   1.884   1.481   2.854 -1.0984 -1.8283  1.0923
  142OSM    C1315437   1.625   1.502   2.763 -0.6792 -0.0923  0.0627
  142OSM   H13A15438   1.623   1.541   2.662 -0.0865 -0.2714 -0.0261
  142OSM   H13B15439   1.650   1.584   2.828  1.4069 -0.7775  0.2062
  142OSM   H13C15440   1.523   1.475   2.782 -1.0053  0.4213 -0.8848
  142OSM    C1215441   1.685   1.306   2.914  0.3006 -0.1365 -0.0541
  142OSM   H12A15442   1.774   1.249   2.934 -0.9617 -2.0598  0.4279
  142OSM   H12B15443   1.597   1.245   2.899  1.3398 -2.7268  3.1615
  142OSM    C1115444   1.672   1.393   3.038  0.3669 -0.2679 -0.0385
  142OSM   H11A15445   1.635   1.343   3.129 -2.1387  0.1609 -0.7352
  142OSM   H11B15446   1.588   1.465   3.022  0.3249 -0.5273 -1.0630
  142OSM      P15447   1.920   1.402   3.126  0.1580  0.0122 -0.1526
  142OSM    O1315448   1.905   1.271   3.196  0.2925  0.2613  0.9833
  142OSM    O1415449   2.033   1.411   3.037 -0.0509  0.1394 -0.6449
  142OSM    O1115450   1.938   1.510   3.238 -0.3580  0.1065 -0.2294
  142OSM    O1215451   1.790   1.464   3.056  0.1880  0.2072 -0.0942
  142OSM    C1S15452   1.837   1.583   3.299 -0.3310 -0.2533  0.5223
  142OSM    H1S15453   1.732   1.555   3.277 -0.5857  0.3842  0.9185
  142OSM    H1T15454   1.853   1.690   3.271  1.0603 -0.5365  0.1310
  142OSM     NF15455   1.730   1.635   3.516 -0.0815 -0.6632 -0.1421
  142OSM    HNF15456   1.735   1.733   3.532  0.1654 -0.8888  1.2844
  142OSM    C2S15457   1.849   1.577   3.453 -0.0403  1.0572 -0.0239
  142OSM    H2S15458   1.857   1.469   3.478 -0.8398  1.1751  0.7608
  142OSM    C3S15459   1.989   1.627   3.505  0.5057 -0.1914 -0.1263
  142OSM    H3S15460   1.992   1.738   3.514  0.8240 -0.3555  2.6254
  142OSM     O315461   2.095   1.582   3.431 -0.7319 -0.6573  0.1616
  142OSM    HO315462   2.052   1.517   3.376  0.6872 -1.0129 -0.5903
  142OSM    C4S15463   1.981   1.582   3.657  0.0367 -0.5371 -0.2128
  142OSM    H4S15464   1.930   1.648   3.728 -0.4733 -1.6227  0.4723
  142OSM    C5S15465   2.031   1.467   3.705 -0.5037  0.0787 -0.6734
  142OSM    H5S15466   2.081   1.408   3.627 -1.5192 -1.1865 -0.4060
  142OSM    C6S15467   2.041   1.414   3.850 -0.0932 -0.1560 -0.2491
  142OSM    H6S15468   2.079   1.310   3.849 -0.0356 -0.1379 -1.0410
  142OSM    H6T15469   1.937   1.412   3.891 -0.6799  2.5047 -1.4128
  142OSM    C7S15470   2.142   1.502   3.928 -0.3114 -0.2744  0.4617
  142OSM    H7S15471   2.129   1.611   3.909  0.2959 -0.3056 -0.1884
  142OSM    H7T15472   2.245   1.486   3.890 -0.1932  1.3331  0.0442
  142OSM    C8S15473   2.139   1.475   4.077  0.4107  0.1957  0.5920
  142OSM    H8S15474   2.200   1.389   4.112  0.4843  0.2723  0.6501
  142OSM    H8T15475   2.030   1.456   4.091 -0.5317  3.9937 -0.5095
  142OSM    C9S15476   2.193   1.599   4.151 -0.0346  0.1009  0.9440
  142OSM    H9S15477   2.139   1.689   4.115  1.0702  0.3237 -0.2373
  142OSM    H9T15478   2.299   1.610   4.118 -0.8542  1.3884 -1.4931
  142OSM   C10S15479   2.199   1.602   4.299  0.5156 -0.1131 -0.6840
  142OSM   H10S15480   2.257   1.518   4.342 -1.2408 -0.6182  0.8238
  142OSM   H10T15481   2.096   1.592   4.338  0.6245 -0.7613 -0.5468
  142OSM   C11S15482   2.259   1.732   4.350 -1.0478 -0.5585 -0.0349
  142OSM   H11S15483   2.199   1.816   4.310 -0.6288 -0.2063  0.0733
  142OSM   H11T15484   2.363   1.744   4.315 -1.3914  1.2335 -0.5049
  142OSM   C12S15485   2.260   1.744   4.508 -0.3882 -0.6524  0.1452
  142OSM   H12S15486   2.323   1.666   4.557  3.0089  0.6631 -1.7610
  142OSM   H12T15487   2.154   1.715   4.519 -1.3262  3.0152  2.4634
  142OSM   C13S15488   2.296   1.890   4.543  0.4957  0.8953 -0.6771
  142OSM   H13S15489   2.229   1.957   4.485  0.2127  2.6529  1.5442
  142OSM   H13T15490   2.401   1.911   4.514  0.1817  2.8520 -0.5209
  142OSM   C14S15491   2.275   1.932   4.693  0.1572 -0.2049 -0.0059
  142OSM   H14S15492   2.169   1.959   4.716 -0.4684  0.1622 -2.9338
  142OSM   H14T15493   2.331   2.027   4.705 -0.1376  0.1769 -1.3902
  142OSM   C15S15494   2.348   1.833   4.790 -0.6043  0.5606  0.3790
  142OSM   H15S15495   2.447   1.824   4.741  0.1825  0.4549  1.9177
  142OSM   H15T15496   2.298   1.734   4.783  1.9348 -0.7044 -1.2662
  142OSM   C16S15497   2.358   1.878   4.937  0.3859  0.5531  0.0414
  142OSM   H16S15498   2.419   1.971   4.931  0.5106  0.4304 -0.7113
  142OSM   H16T15499   2.410   1.799   4.994  0.5878  1.2483  0.8413
  142OSM   C17S15500   2.227   1.906   5.023  0.2011 -0.2096 -0.5008
  142OSM   H17S15501   2.190   1.999   4.973  1.3860 -0.0881 -1.2171
  142OSM   H17T15502   2.263   1.930   5.125 -2.2761  1.9215 -0.0263
  142OSM   C18S15503   2.117   1.802   5.023  0.2340  0.7439 -0.1881
  142OSM   H18S15504   2.015   1.837   5.050  0.5932  3.6757 -2.2404
  142OSM   H18T15505   2.152   1.721   5.091  1.7772  2.3482  1.0105
  142OSM   H18U15506   2.109   1.756   4.922 -0.5252 -0.7896  0.5244
  142OSM    C1F15507   1.610   1.577   3.523  0.1066  0.0714 -0.4595
  142OSM     OF15508   1.601   1.459   3.486  0.0112  0.0927 -0.4462
  142OSM    C2F15509   1.501   1.659   3.573 -0.2750  0.2730 -0.6282
  142OSM    H2F15510   1.466   1.720   3.486 -1.3685  0.1906 -0.2568
  142OSM    H2G15511   1.520   1.719   3.664  0.7729 -2.7308  1.2616
  142OSM    C3F15512   1.378   1.574   3.615  0.0405 -0.2216 -0.0985
  142OSM    H3F15513   1.341   1.493   3.548  0.1780 -0.1563 -0.2514
  142OSM    H3G15514   1.296   1.649   3.618  0.2276 -0.0364  2.2786
  142OSM    C4F15515   1.371   1.530   3.759 -0.3191  0.2834  0.0483
  142OSM    H4F15516   1.288   1.460   3.780 -0.1581 -0.1218 -0.6372
  142OSM    H4G15517   1.355   1.614   3.830 -2.0961  1.1454 -1.2955
  142OSM    C5F15518   1.496   1.457   3.815 -0.1386  0.6038 -0.5947
  142OSM    H5F15519   1.589   1.506   3.779  1.0436 -0.9755  0.1624
  142OSM    H5G15520   1.492   1.361   3.758 -2.0579 -0.1305  0.6690
  142OSM    C6F15521   1.493   1.425   3.965  0.5323 -0.1044  0.3256
  142OSM    H6F15522   1.577   1.354   3.979 -0.3109 -0.5694  3.9103
  142OSM    H6G15523   1.400   1.366   3.976  0.4933 -1.0000 -3.3550
  142OSM    C7F15524   1.500   1.534   4.073  0.2875  0.1298 -0.1729
  142OSM    H7F15525   1.429   1.617   4.055 -1.4308 -1.1023  0.6548
  142OSM    H7G15526   1.602   1.577   4.063  1.0706 -1.2393  1.4468
  142OSM    C8F15527   1.497   1.477   4.218 -0.2162  0.0447 -0.3750
  142OSM    H8F15528   1.406   1.413   4.225 -0.2080 -0.3226 -2.7935
  142OSM    H8G15529   1.477   1.561   4.288 -2.1030 -0.5678 -0.1047
  142OSM    C9F15530   1.597   1.369   4.260  0.7300  0.6270  0.1195
  142OSM    H9F15531   1.620   1.290   4.186  0.0706  0.2197  0.3405
  142OSM   C10F15532   1.652   1.354   4.386  0.8628 -0.1742 -0.1908
  142OSM   H10F15533   1.720   1.268   4.398 -1.8687 -2.6863 -1.4124
  142OSM   C11F15534   1.639   1.455   4.505 -0.6091 -0.2068  0.4741
  142OSM   H11F15535   1.553   1.522   4.485 -1.1897 -0.6545  1.4333
  142OSM   H11G15536   1.721   1.530   4.513 -1.1303  0.5632 -1.0568
  142OSM   C12F15537   1.628   1.381   4.634 -0.2389 -0.5091  0.0921
  142OSM   H12F15538   1.722   1.326   4.654 -1.4246 -2.0644  1.7832
  142OSM   H12G15539   1.554   1.300   4.618  0.2348 -1.0062  0.3948
  142OSM   C13F15540   1.590   1.471   4.756 -0.1680 -0.1998  0.4048
  142OSM   H13F15541   1.490   1.517   4.741 -0.2246 -0.6515 -0.6806
  142OSM   H13G15542   1.669   1.549   4.751  0.4229 -0.8507 -3.9004
  142OSM   C14F15543   1.607   1.412   4.893  0.2094  0.5958  0.2295
  142OSM   H14F15544   1.701   1.354   4.908  0.4816  1.2774  1.3097
  142OSM   H14G15545   1.522   1.344   4.913 -0.8395  1.1145 -2.1410
  142OSM   C15F15546   1.593   1.519   5.003  0.1749  0.0528  0.2288
  142OSM   H15F15547   1.495   1.568   4.986  1.6126  3.9930  1.9680
  142OSM   H15G15548   1.661   1.606   4.990 -0.8239  1.0183  1.2797
  142OSM   C16F15549   1.599   1.460   5.149  0.1069  0.1749 -0.5459
  142OSM   H16F15550   1.699   1.415   5.167  2.0147  4.8448  2.7047
  142OSM   H16G15551   1.527   1.376   5.141  1.3059 -0.9231 -0.2172
  142OSM   C17F15552   1.567   1.564   5.253 -0.5538 -0.6308  0.0757
  142OSM   H17F15553   1.464   1.601   5.235 -0.1679 -0.0176 -0.9242
  142OSM   H17G15554   1.640   1.648   5.252  0.8907 -1.8295 -0.6223
  142OSM   C18F15555   1.560   1.517   5.396 -0.0491  0.4656  0.0181
  142OSM   H18F15556   1.522   1.592   5.469 -1.7867 -1.1869  0.9097
  142OSM   H18G15557   1.659   1.484   5.433 -1.3320  0.7762  4.2345
  142OSM   H18H15558   1.489   1.433   5.408  0.1101  0.6234  2.8913
  143OSM      N15559   2.984   3.645   3.051  0.0602 -0.4336  0.3996
  143OSM    C1515560   3.093   3.584   3.124 -0.5147  0.3783  0.1021
  143OSM   H15A15561   3.067   3.599   3.228 -2.0852  1.3403 -0.3875
  143OSM   H15B15562   3.188   3.625   3.093 -0.9692  0.3045 -1.4908
  143OSM   H15C15563   3.091   3.478   3.104 -1.1234  0.8048 -2.4072
  143OSM    C1415564   3.000   3.796   3.055  0.3978 -0.1429  0.3409
  143OSM   H14A15565   3.081   3.828   2.992 -0.1151  0.7122  0.0894
  143OSM   H14B15566   3.027   3.821   3.157 -1.0051 -1.1055  0.9750
  143OSM   H14C15567   2.911   3.851   3.027  0.4274 -1.0983 -1.7896
  143OSM    C1315568   2.985   3.597   2.913 -0.3101  0.1178  0.3056
  143OSM   H13A15569   3.067   3.644   2.861  0.6709 -1.8885 -0.0550
  143OSM   H13B15570   2.895   3.616   2.858  0.6942 -0.9603 -1.8379
  143OSM   H13C15571   2.996   3.490   2.908  1.9038 -0.0647  4.5623
  143OSM    C1215572   2.851   3.616   3.119  0.3671  0.1658 -0.1347
  143OSM   H12A15573   2.772   3.682   3.087 -1.2129 -1.4297  0.3039
  143OSM   H12B15574   2.867   3.639   3.223  1.5292  1.1873 -0.5172
  143OSM    C1115575   2.796   3.471   3.111 -0.2147 -0.0031 -0.4511
  143OSM   H11A15576   2.776   3.441   3.006 -1.5266  1.3401 -0.6201
  143OSM   H11B15577   2.697   3.476   3.160  0.6344 -0.4960  1.4097
  143OSM      P15578   2.843   3.224   3.172 -0.6211  0.1317  0.4340
  143OSM    O1315579   2.733   3.190   3.081 -0.3974 -0.3444  0.3121
  143OSM    O1415580   2.968   3.146   3.152 -0.5801  0.2512  0.0453
  143OSM    O1115581   2.794   3.195   3.320 -0.5028 -0.1225  0.7001
  143OSM    O1215582   2.878   3.378   3.174 -0.2707  0.2071  0.2584
  143OSM    C1S15583   2.867   3.237   3.429 -0.3595 -0.0831 -0.0699
  143OSM    H1S15584   2.860   3.348   3.436 -2.4951 -0.0734 -1.4604
  143OSM    H1T15585   2.975   3.211   3.423  0.0488  1.3441  0.6772
  143OSM     NF15586   2.867   3.265   3.678 -0.0123 -0.2503  0.0792
  143OSM    HNF15587   2.954   3.254   3.724 -0.6769  1.2394  1.8247
  143OSM    C2S15588   2.816   3.181   3.570 -0.0384  0.0235  0.6508
  143OSM    H2S15589   2.705   3.180   3.566 -0.0205  1.0556 -2.3702
  143OSM    C3S15590   2.857   3.030   3.586  0.0607 -0.3358  0.0254
  143OSM    H3S15591   2.966   3.022   3.567  0.0836 -1.1510  0.4406
  143OSM     O315592   2.772   2.945   3.503 -0.5374  0.0316 -0.4677
  143OSM    HO315593   2.759   3.004   3.428 -2.0233  0.6428  0.2489
  143OSM    C4S15594   2.840   2.991   3.735  1.0433  0.0989  1.1207
  143OSM    H4S15595   2.920   3.035   3.797  1.6193  0.2169  0.3165
  143OSM    C5S15596   2.757   2.907   3.794  1.1248  0.2658 -0.1824
  143OSM    H5S15597   2.678   2.860   3.733  0.4670 -0.1497  0.9687
  143OSM    C6S15598   2.751   2.858   3.937 -0.4453 -0.2006  0.4651
  143OSM    H6S15599   2.784   2.752   3.943 -1.9431 -0.8016 -0.9908
  143OSM    H6T15600   2.648   2.868   3.978 -0.0750  1.7539  1.0314
  143OSM    C7S15601   2.836   2.942   4.035  0.5461 -1.1245 -0.2841
  143OSM    H7S15602   2.807   3.049   4.022 -0.4650 -1.4529 -0.9223
  143OSM    H7T15603   2.941   2.926   4.004  0.8426 -1.3242  0.8080
  143OSM    C8S15604   2.832   2.894   4.181 -0.1954  0.0885  0.0108
  143OSM    H8S15605   2.874   2.791   4.179  0.7340  0.4638 -0.4864
  143OSM    H8T15606   2.728   2.898   4.221  0.1142 -1.3150  1.0249
  143OSM    C9S15607   2.925   2.978   4.268  0.0446 -0.0748  0.1824
  143OSM    H9S15608   2.904   3.087   4.267 -1.4952 -0.3419 -2.1507
  143OSM    H9T15609   3.028   2.964   4.229  0.1263 -2.5144  1.0847
  143OSM   C10S15610   2.921   2.931   4.410  0.6496 -0.4354  0.0814
  143OSM   H10S15611   2.918   2.820   4.420  2.1426 -0.2888  3.7516
  143OSM   H10T15612   2.831   2.969   4.463  1.6611  0.4219  1.1954
  143OSM   C11S15613   3.040   2.995   4.484  0.8739 -0.3465  0.6060
  143OSM   H11S15614   3.132   2.965   4.429 -0.3216  1.0995 -2.4190
  143OSM   H11T15615   3.051   2.946   4.583  0.4532  2.0085  1.8888
  143OSM   C12S15616   3.038   3.149   4.502  0.0572 -0.8887 -0.5434
  143OSM   H12S15617   3.026   3.191   4.400  1.5168  1.3526  0.1356
  143OSM   H12T15618   3.132   3.192   4.543 -0.3589 -0.4172 -0.0721
  143OSM   C13S15619   2.916   3.201   4.588 -0.9370  0.1781  0.3717
  143OSM   H13S15620   2.823   3.142   4.574 -0.3382 -0.4624 -1.2263
  143OSM   H13T15621   2.897   3.303   4.547  1.5129 -0.4983 -2.9535
  143OSM   C14S15622   2.946   3.218   4.741  0.3616 -0.4775 -0.2390
  143OSM   H14S15623   2.979   3.119   4.780  0.8140  0.1319  1.0014
  143OSM   H14T15624   2.848   3.238   4.788 -0.2140 -0.6680 -1.3393
  143OSM   C15S15625   3.055   3.316   4.774  0.3384  0.4378  0.7107
  143OSM   H15S15626   3.041   3.397   4.700 -1.0837  0.1827  0.6787
  143OSM   H15T15627   3.145   3.262   4.737 -0.4585  0.3162 -1.1132
  143OSM   C16S15628   3.060   3.362   4.920 -0.5145  0.3293  0.3686
  143OSM   H16S15629   3.112   3.281   4.976  0.1757  0.5579  0.0657
  143OSM   H16T15630   2.959   3.380   4.961 -0.3506  0.1520  0.8633
  143OSM   C17S15631   3.150   3.475   4.946 -0.1427 -0.3464 -0.5466
  143OSM   H17S15632   3.246   3.449   4.898  0.5955  1.8478 -0.3747
  143OSM   H17T15633   3.172   3.494   5.053  1.9432 -1.2441 -0.7744
  143OSM   C18S15634   3.105   3.619   4.892  0.2651 -0.1972 -1.0048
  143OSM   H18S15635   3.190   3.689   4.904  1.1627 -1.7031  2.4582
  143OSM   H18T15636   3.015   3.649   4.950 -0.2033 -1.6921 -0.9140
  143OSM   H18U15637   3.073   3.623   4.785  0.1593 -1.9997 -1.0722
  143OSM    C1F15638   2.803   3.379   3.702 -0.3703  0.1009  0.1495
  143OSM     OF15639   2.708   3.409   3.635 -0.1768 -0.1329  0.5703
  143OSM    C2F15640   2.860   3.470   3.803  0.5680  0.3375  0.3449
  143OSM    H2F15641   2.966   3.488   3.774  0.6608  0.4209  0.7271
  143OSM    H2G15642   2.863   3.419   3.902  0.7199  1.7099  1.0750
  143OSM    C3F15643   2.801   3.614   3.806 -1.0138 -0.0003 -0.1235
  143OSM    H3F15644   2.691   3.614   3.793 -0.8392  0.6070 -1.8152
  143OSM    H3G15645   2.845   3.670   3.720 -1.8646 -0.8126 -1.1249
  143OSM    C4F15646   2.835   3.702   3.926 -0.3982  0.1396 -0.4583
  143OSM    H4F15647   2.824   3.810   3.900  3.2447 -0.0076 -3.5519
  143OSM    H4G15648   2.944   3.686   3.940  0.2354  1.4241 -3.1170
  143OSM    C5F15649   2.736   3.678   4.042  0.6236  0.1790 -0.5834
  143OSM    H5F15650   2.696   3.575   4.031  1.6191 -0.3302  0.4299
  143OSM    H5G15651   2.653   3.751   4.031  0.5212 -0.1610 -2.5569
  143OSM    C6F15652   2.793   3.675   4.184  0.5635  0.0759 -0.0651
  143OSM    H6F15653   2.710   3.651   4.255 -0.8711  0.0745 -1.6763
  143OSM    H6G15654   2.844   3.770   4.209 -0.7278  0.5446  0.9598
  143OSM    C7F15655   2.902   3.560   4.221  0.3169 -0.7265  0.3861
  143OSM    H7F15656   2.996   3.581   4.166 -0.5461 -1.1418 -1.3109
  143OSM    H7G15657   2.866   3.470   4.166  0.6123 -0.3188 -0.4851
  143OSM    C8F15658   2.930   3.528   4.364  0.1421  0.7620  0.0140
  143OSM    H8F15659   2.957   3.420   4.368  0.1617  0.7793  0.3904
  143OSM    H8G15660   2.843   3.551   4.428 -1.4632  0.2195 -1.8652
  143OSM    C9F15661   3.048   3.599   4.419 -1.1727  0.3150 -0.0685
  143OSM    H9F15662   3.147   3.553   4.407 -1.7614 -0.3384 -3.0109
  143OSM   C10F15663   3.055   3.730   4.465  0.3895  0.9787  0.2906
  143OSM   H10F15664   3.153   3.778   4.478  0.3107  2.1879 -2.7127
  143OSM   C11F15665   2.934   3.820   4.481 -0.0222 -0.5817 -0.9174
  143OSM   H11F15666   2.837   3.783   4.442 -1.5346 -2.9652  4.2376
  143OSM   H11G15667   2.941   3.920   4.435 -3.7413 -0.2331 -1.0107
  143OSM   C12F15668   2.894   3.838   4.627  0.1346 -0.1692 -0.1952
  143OSM   H12F15669   2.859   3.743   4.671 -0.1236  0.3420  0.7423
  143OSM   H12G15670   2.815   3.916   4.636  1.4156  1.5181 -2.3750
  143OSM   C13F15671   2.997   3.906   4.724 -0.3658  0.0004 -0.2720
  143OSM   H13F15672   3.017   4.005   4.679  0.7012  0.8611  1.9311
  143OSM   H13G15673   3.089   3.844   4.722 -1.1486 -1.2050 -0.5511
  143OSM   C14F15674   2.941   3.909   4.867  0.3733 -0.6070 -0.3667
  143OSM   H14F15675   2.907   3.813   4.911 -1.4138 -0.2296 -0.8604
  143OSM   H14G15676   2.847   3.968   4.862  0.0638 -0.9459  0.9269
  143OSM   C15F15677   3.049   3.971   4.959 -0.1177  0.3068 -0.2996
  143OSM   H15F15678   3.091   4.063   4.914 -0.6275  0.3835 -0.6256
  143OSM   H15G15679   3.129   3.900   4.988 -0.4389  0.3032  0.6105
  143OSM   C16F15680   2.965   4.010   5.087 -0.4604  0.2894  0.7011
  143OSM   H16F15681   2.909   3.921   5.123 -0.8565 -0.1137 -0.7977
  143OSM   H16G15682   2.887   4.084   5.058  0.1296  0.8315  0.4810
  143OSM   C17F15683   3.058   4.057   5.198 -0.4532  0.4664 -0.4501
  143OSM   H17F15684   3.116   4.144   5.162 -2.0771  1.5692 -0.5306
  143OSM   H17G15685   3.116   3.972   5.239 -0.2415  0.4990 -0.6784
  143OSM   C18F15686   2.971   4.119   5.314 -0.9485 -0.4860  0.2914
  143OSM   H18F15687   2.895   4.042   5.340 -1.3207 -0.3489 -0.3811
  143OSM   H18G15688   2.914   4.207   5.279  1.6788  2.4051  2.7501
  143OSM   H18H15689   3.030   4.148   5.404 -0.8456 -0.6600  0.2821
  144OSM      N15690   1.395   2.208   3.101 -0.2268 -0.0923  0.0903
  144OSM    C1515691   1.382   2.358   3.101 -0.0528 -0.2009 -0.1504
  144OSM   H15A15692   1.319   2.384   3.184 -2.4235 -0.3964 -1.7621
  144OSM   H15B15693   1.337   2.390   3.008  1.6112  1.7737 -0.3308
  144OSM   H15C15694   1.476   2.410   3.108  0.3598 -1.0840  1.1470
  144OSM    C1415695   1.264   2.148   3.069 -0.4382 -0.6352 -0.5028
  144OSM   H14A15696   1.217   2.190   2.980  0.5403  1.4243 -0.1010
  144OSM   H14B15697   1.190   2.163   3.146  0.0879 -2.1959  0.3340
  144OSM   H14C15698   1.274   2.041   3.064  0.4945 -0.6334  0.8745
  144OSM    C1315699   1.488   2.159   2.999 -0.2904 -0.0890  0.0354
  144OSM   H13A15700   1.435   2.095   2.930 -1.0563  0.5213  0.0450
  144OSM   H13B15701   1.571   2.107   3.045  0.0797 -0.1838 -0.7248
  144OSM   H13C15702   1.535   2.234   2.938 -1.9558 -1.3534 -2.9940
  144OSM    C1215703   1.425   2.163   3.244 -0.1298 -0.0558  0.0320
  144OSM   H12A15704   1.429   2.055   3.241 -1.4566 -0.1150  0.2023
  144OSM   H12B15705   1.343   2.197   3.305 -2.0835  2.0436 -3.4574
  144OSM    C1115706   1.562   2.203   3.308  0.1552 -0.0134 -0.2286
  144OSM   H11A15707   1.550   2.169   3.413  0.1146  1.5989  0.3183
  144OSM   H11B15708   1.573   2.314   3.313 -1.1064  0.1301 -0.2153
  144OSM      P15709   1.719   1.998   3.257 -0.0525 -0.0158 -0.0309
  144OSM    O1315710   1.602   1.911   3.226 -0.2094 -0.1008 -0.0500
  144OSM    O1415711   1.844   1.978   3.176  0.1125  0.2447  0.8179
  144OSM    O1115712   1.753   1.988   3.418  0.0898  0.1483 -0.0136
  144OSM    O1215713   1.674   2.146   3.243 -0.2445 -0.0018  0.2291
  144OSM    C1S15714   1.875   2.042   3.465 -0.6401  0.1992  0.8796
  144OSM    H1S15715   1.900   2.136   3.412  1.2274  0.4491  2.1208
  144OSM    H1T15716   1.962   1.974   3.456  0.5821  1.9003 -0.9649
  144OSM     NF15717   1.985   2.176   3.647 -0.7127  0.7641  0.3608
  144OSM    HNF15718   2.065   2.144   3.695 -0.9167  0.5924  0.5868
  144OSM    C2S15719   1.865   2.093   3.619 -0.0585  0.4665 -0.4762
  144OSM    H2S15720   1.776   2.161   3.620 -0.1106  0.4211 -1.4015
  144OSM    C3S15721   1.835   1.968   3.705  0.4142  0.6458  0.6512
  144OSM    H3S15722   1.914   1.895   3.678 -0.0040  0.7592 -0.9731
  144OSM     O315723   1.718   1.893   3.672  0.7109 -0.0240  0.2005
  144OSM    HO315724   1.701   1.928   3.584 -0.7887  0.5867  0.7031
  144OSM    C4S15725   1.838   1.990   3.848  0.1532  0.1888 -0.2661
  144OSM    H4S15726   1.772   2.077   3.864 -0.9462 -0.8486  1.1336
  144OSM    C5S15727   1.915   1.943   3.944 -0.4359 -0.0105  0.3222
  144OSM    H5S15728   1.982   1.858   3.922  0.5840  0.4067  1.7069
  144OSM    C6S15729   1.881   1.984   4.085  0.3124 -0.4881  0.5758
  144OSM    H6S15730   1.785   2.041   4.081 -0.7744 -2.3118 -1.6328
  144OSM    H6T15731   1.962   2.037   4.140 -1.9814  4.0299  0.0699
  144OSM    C7S15732   1.851   1.858   4.173  0.0561 -0.5290  0.3500
  144OSM    H7S15733   1.931   1.781   4.162 -0.2102 -0.4570 -3.2771
  144OSM    H7T15734   1.761   1.810   4.131  1.2372 -1.3478 -1.3811
  144OSM    C8S15735   1.833   1.914   4.313  0.1393  0.4834  0.0389
  144OSM    H8S15736   1.752   1.989   4.306 -0.3194 -0.1319 -2.1932
  144OSM    H8T15737   1.928   1.966   4.339  1.7094 -1.2795 -1.7192
  144OSM    C9S15738   1.804   1.817   4.425 -0.8541 -0.2041  0.2457
  144OSM    H9S15739   1.884   1.741   4.438 -0.4754 -0.0672 -1.1475
  144OSM    H9T15740   1.709   1.766   4.401 -1.5349  1.2015 -0.1471
  144OSM   C10S15741   1.796   1.886   4.567 -0.7205  0.2731 -0.2665
  144OSM   H10S15742   1.718   1.965   4.555 -1.5128 -0.5294 -0.5570
  144OSM   H10T15743   1.887   1.938   4.602 -2.2295  3.0585 -0.1247
  144OSM   C11S15744   1.746   1.795   4.679 -0.2814 -0.2742 -0.6513
  144OSM   H11S15745   1.820   1.718   4.709 -1.0494 -0.5569  0.6099
  144OSM   H11T15746   1.668   1.744   4.618 -0.4928 -2.0360  0.9693
  144OSM   C12S15747   1.681   1.859   4.803  0.7832 -0.4927  0.0547
  144OSM   H12S15748   1.635   1.775   4.859  2.8312 -2.9485 -1.6644
  144OSM   H12T15749   1.594   1.919   4.769  0.5934 -0.9672 -0.3201
  144OSM   C13S15750   1.779   1.952   4.879  0.8226  0.2836 -0.1804
  144OSM   H13S15751   1.822   2.031   4.814 -0.2267  0.9781 -0.0610
  144OSM   H13T15752   1.860   1.895   4.929  0.5596  0.3597  0.3356
  144OSM   C14S15753   1.693   2.020   4.990  0.2017  0.4439 -0.2904
  144OSM   H14S15754   1.637   1.946   5.052  1.2944  1.9368  2.6747
  144OSM   H14T15755   1.616   2.083   4.940  0.7958  0.7959 -0.7652
  144OSM   C15S15756   1.783   2.090   5.089 -0.3148 -0.4459  0.0619
  144OSM   H15S15757   1.833   2.172   5.034 -1.6121  1.3243  1.3766
  144OSM   H15T15758   1.863   2.024   5.129  0.6185  0.6829  0.0987
  144OSM   C16S15759   1.706   2.160   5.204 -0.2016 -0.0370 -0.1408
  144OSM   H16S15760   1.641   2.234   5.151  0.7485  2.0915  1.4903
  144OSM   H16T15761   1.773   2.219   5.269 -1.3640  0.3333  0.7613
  144OSM   C17S15762   1.629   2.062   5.298 -0.1502 -0.5955 -0.8304
  144OSM   H17S15763   1.536   2.040   5.241 -2.6469  2.5288  1.6983
  144OSM   H17T15764   1.597   2.114   5.390  0.9948 -0.0100 -0.7439
  144OSM   C18S15765   1.709   1.936   5.335 -0.2257  0.2992  0.2604
  144OSM   H18S15766   1.793   1.964   5.403 -1.0681 -2.9195  2.8358
  144OSM   H18T15767   1.748   1.887   5.244  1.9620  1.0922  0.6982
  144OSM   H18U15768   1.643   1.865   5.389 -2.8057  3.1055  1.0833
  144OSM    C1F15769   2.000   2.300   3.591 -0.4569 -0.0338 -0.3451
  144OSM     OF15770   1.895   2.352   3.545  0.1646  0.3549  0.0015
  144OSM    C2F15771   2.136   2.367   3.596  0.0988  0.3175 -0.5055
  144OSM    H2F15772   2.173   2.369   3.491 -0.6705  0.7243 -0.7701
  144OSM    H2G15773   2.199   2.289   3.644 -0.8825 -3.3610 -4.4435
  144OSM    C3F15774   2.133   2.496   3.677  0.2296 -0.1822 -0.1583
  144OSM    H3F15775   2.044   2.554   3.646  0.6130  0.2193 -0.5146
  144OSM    H3G15776   2.221   2.562   3.660  0.6554 -0.6211  0.3052
  144OSM    C4F15777   2.119   2.465   3.831 -0.0386 -0.4228  0.4400
  144OSM    H4F15778   2.198   2.389   3.851  0.7816  0.2556 -0.1058
  144OSM    H4G15779   2.017   2.421   3.828 -0.0319 -0.6195  2.2006
  144OSM    C5F15780   2.119   2.581   3.925  0.2356 -0.8926  0.4971
  144OSM    H5F15781   2.095   2.539   4.025  0.2304 -1.7137  0.1547
  144OSM    H5G15782   2.040   2.654   3.897 -0.1147 -0.7107  1.8794
  144OSM    C6F15783   2.261   2.650   3.925  0.0154  0.7469  0.7401
  144OSM    H6F15784   2.292   2.656   3.818 -1.8752  2.1940  0.2295
  144OSM    H6G15785   2.330   2.579   3.975  0.4778  0.9216  0.3553
  144OSM    C7F15786   2.279   2.778   4.009  0.5877  0.4166  0.1010
  144OSM    H7F15787   2.208   2.860   3.989 -0.4428 -0.3092  0.6979
  144OSM    H7G15788   2.380   2.818   3.984  0.6718  0.2274  0.1351
  144OSM    C8F15789   2.268   2.753   4.162 -0.3601  0.9585 -0.3543
  144OSM    H8F15790   2.320   2.658   4.185  0.0594  1.2456 -0.1197
  144OSM    H8G15791   2.161   2.732   4.187 -1.1734  1.8487 -2.8165
  144OSM    C9F15792   2.323   2.873   4.236 -0.6284 -0.6039  0.3807
  144OSM    H9F15793   2.408   2.930   4.194  0.1793 -0.3676  2.2233
  144OSM   C10F15794   2.292   2.908   4.359 -0.8974  0.0688 -0.3578
  144OSM   H10F15795   2.331   3.001   4.404 -0.1632  0.2405 -1.3193
  144OSM   C11F15796   2.197   2.835   4.451  0.1217 -0.0300  0.6387
  144OSM   H11F15797   2.244   2.794   4.543  0.8788  1.3292  0.8907
  144OSM   H11G15798   2.158   2.740   4.407 -0.2275 -0.5221  1.9771
  144OSM   C12F15799   2.067   2.913   4.490 -0.2064 -0.1439 -0.2401
  144OSM   H12F15800   2.016   2.947   4.397 -1.4075 -3.0830 -0.7663
  144OSM   H12G15801   2.072   3.003   4.554 -3.1017 -0.6150  0.8068
  144OSM   C13F15802   1.966   2.816   4.559 -0.1037  0.1801  0.1367
  144OSM   H13F15803   2.017   2.773   4.647  1.1390 -1.8694 -1.4888
  144OSM   H13G15804   1.956   2.739   4.479 -0.1762 -0.2995  0.6068
  144OSM   C14F15805   1.831   2.894   4.600 -0.6477 -0.3858 -0.9783
  144OSM   H14F15806   1.774   2.930   4.512 -2.6039  3.0813  1.4643
  144OSM   H14G15807   1.855   2.983   4.664 -2.0793 -0.5324 -0.2042
  144OSM   C15F15808   1.741   2.817   4.699  0.2397 -0.1697  0.4181
  144OSM   H15F15809   1.808   2.786   4.782  0.0504 -1.0200  0.2666
  144OSM   H15G15810   1.714   2.727   4.640  1.2338 -0.7230  0.7832
  144OSM   C16F15811   1.616   2.889   4.738  0.5111 -0.7418 -0.1008
  144OSM   H16F15812   1.585   2.974   4.673 -1.2453 -0.4707  1.0419
  144OSM   H16G15813   1.642   2.924   4.840  1.3500  2.1280 -1.1832
  144OSM   C17F15814   1.488   2.806   4.748  1.0244  0.1852  0.3376
  144OSM   H17F15815   1.499   2.710   4.803 -0.4623  0.8613  1.9496
  144OSM   H17G15816   1.459   2.774   4.646 -0.3663 -1.0552  1.0652
  144OSM   C18F15817   1.372   2.878   4.813  0.7685  0.5594 -0.4063
  144OSM   H18F15818   1.369   2.864   4.923 -1.7800  2.1909 -0.1746
  144OSM   H18G15819   1.273   2.836   4.786  1.0112 -1.2550  1.3006
  144OSM   H18H15820   1.378   2.987   4.791  4.0658  0.0653 -2.6150
  145SAPE     N15821   4.262   5.412   7.375  0.0736  0.5504 -0.1666
  145SAPE   HN115822   4.258   5.514   7.355 -2.0813  0.3881 -0.7941
  145SAPE   HN215823   4.341   5.405   7.441 -0.1000 -2.6079 -0.1600
  145SAPE   HN315824   4.287   5.350   7.295  0.7862 -1.1723  1.3350
  145SAPE   C1215825   4.133   5.351   7.433 -0.7035 -0.4390  0.2296
  145SAPE  H12A15826   4.064   5.344   7.346 -0.8496  3.0908 -0.0709
  145SAPE  H12B15827   4.092   5.421   7.509 -0.5612  1.1774 -1.1444
  145SAPE   C1115828   4.168   5.212   7.505  0.0371 -0.0090  0.1640
  145SAPE  H11A15829   4.080   5.174   7.561  0.0324 -2.0715 -1.1431
  145SAPE  H11B15830   4.247   5.240   7.577 -0.9604  1.8169  0.6002
  145SAPE     P15831   4.112   5.023   7.334  0.2565 -0.2457  0.5110
  145SAPE   O1315832   3.998   4.982   7.421 -0.1864  0.1829 -0.4967
  145SAPE   O1415833   4.079   5.089   7.203  0.3622 -0.1539  0.3883
  145SAPE   O1215834   4.208   5.118   7.405 -0.4393 -0.1019 -0.0325
  145SAPE   O1115835   4.207   4.897   7.319  0.2631 -0.1615 -0.0750
  145SAPE    C115836   4.242   4.842   7.196 -0.3493  0.5146  0.4074
  145SAPE    HA15837   4.242   4.915   7.112 -1.1672  1.0370  0.8461
  145SAPE    HB15838   4.346   4.808   7.215  0.1198  1.3103 -0.6096
  145SAPE    C215839   4.145   4.721   7.172  0.2455  0.4507 -0.0967
  145SAPE    HS15840   4.191   4.662   7.091  1.6029  0.5948  0.5502
  145SAPE   O2115841   4.016   4.766   7.121  0.0337  0.2978  0.1064
  145SAPE   C2115842   4.012   4.824   7.006 -0.2611 -0.1765  0.7235
  145SAPE   O2215843   4.102   4.837   6.927 -0.2119  0.0639  0.6232
  145SAPE   C2215844   3.863   4.860   6.971 -0.3062  0.0215  0.2754
  145SAPE   H2R15845   3.807   4.888   7.063  1.6217  1.0900  1.1697
  145SAPE   H2S15846   3.858   4.948   6.904 -1.8610 -0.9438 -0.9666
  145SAPE    C315847   4.125   4.628   7.296  0.2724 -0.1145  0.1397
  145SAPE    HX15848   4.075   4.688   7.375  1.8040  0.5647  0.6352
  145SAPE    HY15849   4.223   4.608   7.344 -0.6944  2.4563  3.5621
  145SAPE   O3115850   4.069   4.498   7.269  0.1670  0.3782 -0.0672
  145SAPE   C3115851   3.937   4.494   7.263 -0.4943  0.0719 -0.4042
  145SAPE   O3215852   3.861   4.589   7.280  0.2811  0.0172  0.2301
  145SAPE   C3215853   3.879   4.356   7.241  0.2288 -0.4428 -0.4684
  145SAPE   H2X15854   3.769   4.369   7.234  0.5162  2.8500 -0.5513
  145SAPE   H2Y15855   3.890   4.296   7.334 -1.3762 -1.5911 -0.9756
  145SAPE   C2315856   3.782   4.750   6.900  0.3128 -0.1104 -0.1536
  145SAPE   H3R15857   3.678   4.783   6.879  1.2715  1.6536 -2.5355
  145SAPE   H3S15858   3.764   4.659   6.962  0.8151 -1.3300 -1.7192
  145SAPE   C2415859   3.845   4.691   6.775 -0.0031 -0.9393  0.9052
  145SAPE   H4R15860   3.780   4.615   6.727 -0.9565 -1.0317  2.2951
  145SAPE   H4S15861   3.926   4.622   6.807  0.3798 -0.9773 -0.1071
  145SAPE   C2515862   3.898   4.788   6.671 -0.2470 -0.1447 -0.4331
  145SAPE   H5R15863   3.971   4.859   6.712 -1.1506 -0.0687  1.1081
  145SAPE   C2615864   3.868   4.793   6.545  0.7491 -0.7556  0.3514
  145SAPE   H6R15865   3.900   4.875   6.478 -3.2067  0.0253 -0.8788
  145SAPE   C2715866   3.778   4.701   6.468  0.0030  0.1119 -0.2147
  145SAPE   H7R15867   3.680   4.750   6.449 -0.0578  1.3213  2.7839
  145SAPE   H7S15868   3.762   4.614   6.535  2.3087 -0.3005 -0.1160
  145SAPE   C2815869   3.857   4.649   6.349  0.5107  0.0266 -0.1178
  145SAPE   H8R15870   3.932   4.571   6.372  2.2097  1.6252  0.0244
  145SAPE   C2915871   3.832   4.690   6.222  0.0960 -0.0365  0.1691
  145SAPE   H9R15872   3.899   4.651   6.144 -0.3574  0.8941 -0.6980
  145SAPE  C21015873   3.737   4.798   6.166 -0.5577  0.1679 -0.6344
  145SAPE  H10R15874   3.776   4.839   6.071  0.2823  0.3506 -0.2180
  145SAPE  H10S15875   3.745   4.891   6.225  0.5647  0.2361 -0.8752
  145SAPE  C21115876   3.598   4.742   6.159 -0.0088 -0.0556 -0.0676
  145SAPE  H11R15877   3.554   4.691   6.246  0.2667 -0.8547 -0.3837
  145SAPE  C21215878   3.518   4.743   6.046 -0.5590 -0.3965 -0.2508
  145SAPE  H12R15879   3.427   4.682   6.036  0.7997 -2.6990  0.7474
  145SAPE  C21315880   3.572   4.798   5.912 -1.1713 -0.8802 -0.2862
  145SAPE  H13R15881   3.631   4.727   5.851 -1.5643  0.7975 -2.7641
  145SAPE  H13S15882   3.640   4.885   5.929  0.1104 -1.9424  0.1685
  145SAPE  C21415883   3.459   4.847   5.833 -0.2493 -0.2466 -0.4282
  145SAPE  H14R15884   3.426   4.947   5.865 -0.9561 -0.7787  0.5246
  145SAPE  C21515885   3.402   4.784   5.730  0.1460 -0.1576 -0.3008
  145SAPE  H15R15886   3.322   4.833   5.672 -1.2177 -2.2457 -0.2846
  145SAPE  C21615887   3.433   4.648   5.674  0.3125 -0.2601 -1.1577
  145SAPE  H16R15888   3.544   4.647   5.666  0.4017  1.5959 -0.5470
  145SAPE  H16S15889   3.403   4.649   5.567 -0.4351  0.2343 -0.9541
  145SAPE  C21715890   3.381   4.523   5.747  0.1444 -0.7056  0.1824
  145SAPE  H17R15891   3.419   4.520   5.851  0.5018  1.8326  0.1928
  145SAPE  H17S15892   3.421   4.430   5.702  0.6598 -2.3633  3.7834
  145SAPE  C21815893   3.225   4.515   5.751 -1.0469  0.9972  0.9215
  145SAPE  H18R15894   3.173   4.606   5.789 -3.7532 -1.0086  2.3901
  145SAPE  H18S15895   3.194   4.437   5.824  0.1701 -0.3924 -0.0085
  145SAPE  C21915896   3.169   4.491   5.609  0.0070 -0.2072  0.4170
  145SAPE  H19R15897   3.180   4.587   5.554  0.4124 -0.4406  0.0850
  145SAPE  H19S15898   3.060   4.470   5.610 -0.0458 -0.5566 -2.8432
  145SAPE  C22015899   3.232   4.374   5.519  0.3285 -0.0092 -0.0718
  145SAPE  H20R15900   3.199   4.366   5.413  0.7494 -1.2870 -0.1327
  145SAPE  H20S15901   3.209   4.275   5.564 -1.0290  0.9313  1.3981
  145SAPE  H20T15902   3.343   4.374   5.511  0.3995 -1.2070  0.6479
  145SAPE   C3315903   3.936   4.289   7.112  0.0112  0.0229 -0.1395
  145SAPE   H3X15904   3.889   4.189   7.106 -1.3149  0.6529 -0.7459
  145SAPE   H3Y15905   4.046   4.284   7.123  0.1585  2.3105 -0.0352
  145SAPE   C3415906   3.897   4.363   6.983 -0.6035  1.1220 -0.3331
  145SAPE   H4X15907   3.976   4.436   6.956  0.5373  0.3299  0.7430
  145SAPE   H4Y15908   3.800   4.415   6.997 -1.3084  0.6584 -3.0011
  145SAPE   C3515909   3.880   4.269   6.867  0.1096 -0.0891  0.2203
  145SAPE   H5X15910   3.794   4.204   6.895  1.4410 -2.7602 -1.4996
  145SAPE   H5Y15911   3.962   4.195   6.864 -0.2954 -0.5323 -0.1981
  145SAPE   C3615912   3.867   4.332   6.727  0.1373  0.2987 -0.6721
  145SAPE   H6X15913   3.960   4.381   6.692 -0.0322  1.1508  0.0260
  145SAPE   H6Y15914   3.781   4.402   6.729 -1.4317 -1.5357 -1.2529
  145SAPE   C3715915   3.834   4.225   6.625  0.4376 -0.1827 -0.0247
  145SAPE   H7X15916   3.745   4.168   6.657  0.1023  0.0945 -0.4540
  145SAPE   H7Y15917   3.915   4.149   6.614  0.7602  0.3232 -1.4322
  145SAPE   C3815918   3.802   4.279   6.484  0.1925  0.2471  0.4829
  145SAPE   H8X15919   3.793   4.198   6.409 -0.5629  0.6646  0.1113
  145SAPE   H8Y15920   3.866   4.361   6.445 -1.1895  0.5563 -1.2658
  145SAPE   C3915921   3.662   4.339   6.475 -0.9076 -0.2096  0.0999
  145SAPE   H9X15922   3.664   4.433   6.534 -1.1130  0.3486 -0.7579
  145SAPE   H9Y15923   3.589   4.260   6.499  2.1365 -3.1587  0.4023
  145SAPE  C31015924   3.616   4.369   6.327 -0.0883  0.3007  0.1232
  145SAPE  H10X15925   3.703   4.379   6.258  0.5711 -1.5001  0.6432
  145SAPE  H10Y15926   3.556   4.463   6.320 -0.4293  0.2262  1.7634
  145SAPE  C31115927   3.536   4.254   6.248  0.1418 -0.3303  0.0897
  145SAPE  H11X15928   3.449   4.241   6.316 -1.0090  2.7831 -0.6198
  145SAPE  H11Y15929   3.607   4.169   6.240  2.8289  1.6544  1.0562
  145SAPE  C31215930   3.490   4.290   6.105 -0.0330 -0.3581 -0.3564
  145SAPE  H12X15931   3.574   4.335   6.047 -0.3285  1.4302  0.5220
  145SAPE  H12Y15932   3.412   4.369   6.119  1.2548  0.6768  1.2670
  145SAPE  C31315933   3.423   4.173   6.040 -0.2841  0.2376 -0.3585
  145SAPE  H13X15934   3.317   4.154   6.067 -0.8040  2.2228 -0.7976
  145SAPE  H13Y15935   3.487   4.092   6.079  1.4726  0.9495 -1.6534
  145SAPE  C31415936   3.424   4.178   5.887 -1.2228 -0.2823  0.2031
  145SAPE  H14X15937   3.524   4.211   5.853 -2.0479  2.7337  0.4409
  145SAPE  H14Y15938   3.352   4.261   5.869 -1.0365 -0.1621  0.0201
  145SAPE  C31515939   3.376   4.051   5.830 -0.5377  0.2269 -0.3825
  145SAPE  H15X15940   3.265   4.050   5.839 -0.4349 -0.9755  1.1376
  145SAPE  H15Y15941   3.411   3.960   5.884  0.6234  0.9258  0.0722
  145SAPE  C31615942   3.421   4.041   5.685 -0.2483  0.5158  0.9574
  145SAPE  H16X15943   3.532   4.051   5.686 -0.2936  1.2004  0.3806
  145SAPE  H16Y15944   3.376   4.131   5.637 -1.2253 -0.8009 -0.6877
  145SAPE  C31715945   3.367   3.920   5.609  0.7282 -0.3085 -0.3805
  145SAPE  H17X15946   3.394   3.834   5.675  0.9454  0.8477  1.0780
  145SAPE  H17Y15947   3.416   3.914   5.509  0.0351 -0.8645 -0.6937
  145SAPE  C31815948   3.218   3.946   5.590  0.6064 -0.0634  0.0618
  145SAPE  H18X15949   3.170   3.864   5.532 -0.1358 -0.8103  1.6964
  145SAPE  H18Y15950   3.203   4.032   5.520 -1.9848 -1.4329 -1.2292
  145SAPE  H18Z15951   3.158   3.963   5.681 -1.3472 -1.3326 -0.9218
  146SAPE     N15952   5.225   4.805   7.480 -0.5701  0.2886  0.0397
  146SAPE   HN115953   5.286   4.745   7.422  0.9740 -0.4806  2.3004
  146SAPE   HN215954   5.163   4.739   7.531 -1.6207  0.4165 -1.0480
  146SAPE   HN315955   5.167   4.862   7.416 -1.5732 -0.1215  0.5629
  146SAPE   C1215956   5.313   4.891   7.568 -0.2722  0.1035 -0.1437
  146SAPE  H12A15957   5.329   4.841   7.666 -1.0396 -0.3466 -0.2346
  146SAPE  H12B15958   5.247   4.977   7.596 -0.5082  0.3763 -1.4754
  146SAPE   C1115959   5.435   4.940   7.498 -0.4538 -0.6751  0.2672
  146SAPE  H11A15960   5.518   4.868   7.507  0.3140  0.3379  1.8627
  146SAPE  H11B15961   5.459   5.028   7.562 -0.5908  0.1356 -0.7733
  146SAPE     P15962   5.532   4.995   7.265 -0.1022 -0.0417 -0.2911
  146SAPE   O1315963   5.642   5.058   7.343 -0.1500  0.0423  0.8998
  146SAPE   O1415964   5.555   4.861   7.206 -0.5856 -0.0647 -0.0091
  146SAPE   O1215965   5.409   4.982   7.362 -0.3541 -0.0575  0.0498
  146SAPE   O1115966   5.479   5.099   7.156  0.0961  0.0817  0.5080
  146SAPE    C115967   5.569   5.172   7.075 -0.1694 -0.0078 -0.6552
  146SAPE    HA15968   5.635   5.238   7.135 -2.0589  1.1094  0.2923
  146SAPE    HB15969   5.636   5.099   7.025 -1.2867 -1.6582  0.1443
  146SAPE    C215970   5.487   5.241   6.964 -0.2853  0.1297 -0.0891
  146SAPE    HS15971   5.403   5.301   7.004 -2.8728 -1.4666 -2.7705
  146SAPE   O2115972   5.428   5.147   6.870 -0.0737  0.0796  0.0298
  146SAPE   C2115973   5.329   5.188   6.801  0.1111 -0.1284  0.2987
  146SAPE   O2215974   5.256   5.287   6.821 -0.5015  0.0765  0.5562
  146SAPE   C2215975   5.318   5.090   6.685  0.3332  0.0695 -0.1793
  146SAPE   H2R15976   5.317   4.988   6.727  2.2348 -0.7203 -1.8871
  146SAPE   H2S15977   5.225   5.108   6.626  0.6053 -1.8615 -1.2466
  146SAPE    C315978   5.584   5.334   6.896  0.2135 -0.0446  0.0453
  146SAPE    HX15979   5.620   5.405   6.974 -0.3556 -1.1065  1.3281
  146SAPE    HY15980   5.519   5.394   6.829 -1.8559 -0.1305  1.8538
  146SAPE   O3115981   5.692   5.260   6.837 -0.0399 -0.0338  0.3063
  146SAPE   C3115982   5.795   5.327   6.791 -0.4238 -0.4253  0.6109
  146SAPE   O3215983   5.818   5.446   6.808  0.5033  0.3559  0.2429
  146SAPE   C3215984   5.882   5.223   6.717  0.0456 -0.0605 -0.0709
  146SAPE   H2X15985   5.823   5.169   6.640  0.9207 -1.7845  0.4156
  146SAPE   H2Y15986   5.905   5.135   6.781  1.8613 -0.2018 -0.8575
  146SAPE   C2315987   5.449   5.082   6.594  0.4725 -0.0199  0.0723
  146SAPE   H3R15988   5.455   4.980   6.552 -1.9671 -0.0894 -0.2213
  146SAPE   H3S15989   5.546   5.075   6.648  1.7850  0.8029 -2.0430
  146SAPE   C2415990   5.456   5.188   6.482  0.1046  0.1118 -0.2179
  146SAPE   H4R15991   5.357   5.182   6.432 -0.6750  1.7320  1.0098
  146SAPE   H4S15992   5.536   5.156   6.412  1.1343  0.7406  0.6423
  146SAPE   C2515993   5.494   5.321   6.535  0.2970  0.2045 -0.5864
  146SAPE   H5R15994   5.520   5.318   6.642 -1.1137  0.4655 -0.2212
  146SAPE   C2615995   5.484   5.441   6.470  0.3919 -0.3415  0.0668
  146SAPE   H6R15996   5.519   5.535   6.516 -0.4602  0.7372 -1.4208
  146SAPE   C2715997   5.444   5.448   6.323 -0.5700  0.5905  0.6852
  146SAPE   H7R15998   5.335   5.464   6.314 -0.5367 -0.1868 -1.6194
  146SAPE   H7S15999   5.454   5.350   6.274  0.5266 -0.0645  2.1348
  146SAPE   C2816000   5.515   5.553   6.247 -0.4132  0.4177 -0.0267
  146SAPE   H8R16001   5.531   5.651   6.296  1.4284 -0.6360  1.6060
  146SAPE   C2916002   5.530   5.544   6.113 -0.3116 -0.6773 -0.2641
  146SAPE   H9R16003   5.585   5.626   6.064 -0.9161 -0.2692 -0.2692
  146SAPE  C21016004   5.500   5.429   6.017  0.3530 -0.5319 -0.2270
  146SAPE  H10R16005   5.460   5.465   5.920  0.0458  1.5474  0.6139
  146SAPE  H10S16006   5.420   5.369   6.067  1.8265 -1.5762  0.9594
  146SAPE  C21116007   5.619   5.339   5.990  0.3789  1.0855  0.6450
  146SAPE  H11R16008   5.647   5.288   6.083 -0.4171 -1.1073 -0.2515
  146SAPE  C21216009   5.672   5.318   5.869 -0.7116  0.0285  0.0945
  146SAPE  H12R16010   5.757   5.249   5.861  0.4568  1.4601 -0.4565
  146SAPE  C21316011   5.636   5.378   5.733 -0.2094  0.2023  0.9069
  146SAPE  H13R16012   5.530   5.347   5.719 -0.5677  1.1570  1.3695
  146SAPE  H13S16013   5.706   5.333   5.659 -0.6520 -1.1517  1.2839
  146SAPE  C21416014   5.637   5.530   5.722 -0.2281 -0.2850  0.9144
  146SAPE  H14R16015   5.728   5.575   5.764 -0.1344 -0.4225  0.8569
  146SAPE  C21516016   5.541   5.603   5.668 -0.4812 -0.0817  0.5645
  146SAPE  H15R16017   5.555   5.712   5.663 -1.7493  0.2565  2.8094
  146SAPE  C21616018   5.411   5.553   5.601 -0.0325 -0.0019  0.4609
  146SAPE  H16R16019   5.323   5.605   5.645 -0.3034 -1.9989  2.4844
  146SAPE  H16S16020   5.391   5.446   5.626 -1.1544  0.1533  0.3023
  146SAPE  C21716021   5.398   5.566   5.449 -0.5382 -0.0176 -0.0403
  146SAPE  H17R16022   5.384   5.672   5.420 -1.1558 -0.0174  0.2470
  146SAPE  H17S16023   5.317   5.497   5.417  2.1280 -1.9389 -3.4753
  146SAPE  C21816024   5.515   5.506   5.364  0.6838  0.6048 -0.0144
  146SAPE  H18R16025   5.524   5.402   5.402 -1.4757  0.5744  0.6085
  146SAPE  H18S16026   5.603   5.571   5.383 -0.5680  1.9294  1.7050
  146SAPE  C21916027   5.486   5.510   5.214  0.3876 -0.2421 -0.2022
  146SAPE  H19R16028   5.491   5.614   5.174  1.5735  0.3133  1.2555
  146SAPE  H19S16029   5.386   5.469   5.188 -0.3118  1.7998 -0.9903
  146SAPE  C22016030   5.592   5.435   5.134  0.3231 -0.3372  0.2094
  146SAPE  H20R16031   5.572   5.444   5.025  2.8772 -0.2046 -0.3034
  146SAPE  H20S16032   5.600   5.326   5.156 -0.5644 -0.4038  0.2631
  146SAPE  H20T16033   5.692   5.482   5.141 -0.0862  0.3755  1.5746
  146SAPE   C3316034   6.006   5.280   6.647 -0.4048  0.3621  0.1259
  146SAPE   H3X16035   6.080   5.206   6.609  1.6948  2.4426 -0.1044
  146SAPE   H3Y16036   6.071   5.340   6.714 -1.0976  2.3124 -0.8577
  146SAPE   C3416037   5.985   5.374   6.522  0.2113  0.6385  0.8247
  146SAPE   H4X16038   6.080   5.421   6.489 -0.2850  0.5896 -0.7412
  146SAPE   H4Y16039   5.913   5.448   6.563 -1.0999 -0.0763 -0.1151
  146SAPE   C3516040   5.909   5.317   6.403 -0.4663  0.2144 -0.0421
  146SAPE   H5X16041   5.850   5.397   6.353  0.3597  0.1931 -1.0902
  146SAPE   H5Y16042   5.835   5.244   6.443 -0.0026  0.4560  1.2983
  146SAPE   C3616043   6.004   5.236   6.305  0.3066  0.5497  1.0127
  146SAPE   H6X16044   6.025   5.140   6.358  1.4208  0.2316  0.0265
  146SAPE   H6Y16045   6.096   5.296   6.290 -0.6097  1.5392 -0.9703
  146SAPE   C3716046   5.958   5.213   6.155 -0.2303 -0.3161  0.1953
  146SAPE   H7X16047   5.878   5.284   6.128 -0.8113 -0.8463  0.4931
  146SAPE   H7Y16048   5.905   5.117   6.138  0.4073 -0.4375 -1.2591
  146SAPE   C3816049   6.081   5.229   6.058  0.0295  0.0707 -0.4173
  146SAPE   H8X16050   6.153   5.149   6.086  0.5768  0.9021  0.6588
  146SAPE   H8Y16051   6.131   5.327   6.075 -1.0676  0.6228 -0.2453
  146SAPE   C3916052   6.041   5.213   5.916  0.3865  0.8916  0.2778
  146SAPE   H9X16053   5.983   5.306   5.899 -0.3093  0.6779  1.3418
  146SAPE   H9Y16054   5.972   5.128   5.896 -0.5847  0.9309  3.0243
  146SAPE  C31016055   6.163   5.208   5.826 -0.4663  0.4009 -0.0315
  146SAPE  H10X16056   6.235   5.132   5.866  1.0762  0.7637 -1.9437
  146SAPE  H10Y16057   6.208   5.309   5.816 -0.1032  0.1595 -0.8813
  146SAPE  C31116058   6.124   5.175   5.682  0.6722 -0.0093  0.1657
  146SAPE  H11X16059   6.042   5.240   5.645 -0.3907 -1.8130 -0.7731
  146SAPE  H11Y16060   6.088   5.070   5.673  1.4217 -0.1934 -1.0650
  146SAPE  C31216061   6.243   5.188   5.583 -0.0966  0.2307 -0.2234
  146SAPE  H12X16062   6.337   5.178   5.640 -0.4633  1.5952  0.6920
  146SAPE  H12Y16063   6.247   5.294   5.549  0.1240  0.3261  0.1003
  146SAPE  C31316064   6.243   5.100   5.458  0.3930 -0.1336 -0.6220
  146SAPE  H13X16065   6.253   4.992   5.482 -0.5376 -0.2665 -0.7835
  146SAPE  H13Y16066   6.334   5.122   5.398  1.3238 -1.9512  0.0488
  146SAPE  C31416067   6.122   5.127   5.359 -0.4173  0.2863  0.3758
  146SAPE  H14X16068   6.132   5.237   5.345  1.2868  0.0911 -0.1619
  146SAPE  H14Y16069   6.017   5.101   5.382 -0.8544  1.3826 -0.2916
  146SAPE  C31516070   6.158   5.068   5.224 -0.5291 -0.5423  0.0819
  146SAPE  H15X16071   6.210   4.975   5.255 -0.0897 -0.3889 -0.1937
  146SAPE  H15Y16072   6.241   5.117   5.169 -0.6557 -2.0705 -1.5677
  146SAPE  C31616073   6.038   5.040   5.129 -0.0140  0.5856 -0.4023
  146SAPE  H16X16074   6.077   5.023   5.026 -0.7906 -0.4231 -0.5358
  146SAPE  H16Y16075   5.968   5.127   5.129 -0.7588  0.0032 -1.0998
  146SAPE  C31716076   5.965   4.914   5.168  0.1617  0.0000 -0.1232
  146SAPE  H17X16077   5.923   4.928   5.270 -1.6459 -0.6283 -0.7287
  146SAPE  H17Y16078   6.047   4.840   5.183  0.4605  0.0701 -1.3186
  146SAPE  C31816079   5.861   4.861   5.067 -0.1267  0.5689  0.0305
  146SAPE  H18X16080   5.900   4.860   4.963  0.1191  2.3469  0.0724
  146SAPE  H18Y16081   5.766   4.919   5.070 -0.5749 -0.1853  0.6716
  146SAPE  H18Z16082   5.829   4.758   5.093  0.5274  0.1568 -0.7294
  147SAPE     N16083   4.060   3.587   7.337 -0.2398  0.7464 -0.6382
  147SAPE   HN116084   4.094   3.682   7.312  2.0187  0.5738  1.3282
  147SAPE   HN216085   4.010   3.546   7.256 -1.6699 -1.3092  1.1637
  147SAPE   HN316086   3.999   3.611   7.417  1.1003  1.3265  0.2505
  147SAPE   C1216087   4.187   3.500   7.360 -0.3690 -0.6164 -0.0428
  147SAPE  H12A16088   4.263   3.566   7.408 -1.1078  2.1971 -2.4474
  147SAPE  H12B16089   4.223   3.486   7.256  0.7191  1.4088  0.0165
  147SAPE   C1116090   4.146   3.372   7.426  0.1853 -0.6537 -0.3196
  147SAPE  H11A16091   4.121   3.405   7.529 -0.5867  1.7069 -1.1925
  147SAPE  H11B16092   4.232   3.303   7.439 -1.2924 -2.6622 -0.7483
  147SAPE     P16093   3.925   3.250   7.442 -0.2993 -0.1159 -0.1161
  147SAPE   O1316094   3.941   3.103   7.455 -0.5112  0.0375 -1.3222
  147SAPE   O1416095   3.908   3.337   7.564  0.5711 -0.1129  0.3325
  147SAPE   O1216096   4.043   3.306   7.346  0.5756 -0.3714 -0.3042
  147SAPE   O1116097   3.794   3.276   7.361 -0.5391 -0.8059  0.8920
  147SAPE    C116098   3.691   3.179   7.334 -0.3842 -0.5294 -0.7086
  147SAPE    HA16099   3.734   3.080   7.307  2.0167  0.0530  0.6981
  147SAPE    HB16100   3.637   3.170   7.431 -0.0956 -0.2186 -0.5186
  147SAPE    C216101   3.589   3.229   7.229 -0.2544 -0.0410  0.3733
  147SAPE    HS16102   3.517   3.147   7.210  2.3435 -2.0299 -1.5924
  147SAPE   O2116103   3.670   3.264   7.114 -0.1197 -0.1457  0.4297
  147SAPE   C2116104   3.696   3.164   7.033  0.4541  0.5277  0.2173
  147SAPE   O2216105   3.669   3.046   7.060  0.8832 -0.2937 -0.1141
  147SAPE   C2216106   3.757   3.218   6.907  0.2227 -0.2048 -0.2800
  147SAPE   H2R16107   3.680   3.272   6.847  1.1685  0.4426 -0.9383
  147SAPE   H2S16108   3.828   3.295   6.942 -0.1028  0.6719 -1.4770
  147SAPE    C316109   3.522   3.359   7.282  0.3390 -0.1187  0.5482
  147SAPE    HX16110   3.611   3.424   7.300 -0.0654  1.1398 -1.6654
  147SAPE    HY16111   3.468   3.351   7.379  4.5017  1.8885  3.3360
  147SAPE   O3116112   3.437   3.424   7.186  0.2176  0.4853  0.6505
  147SAPE   C3116113   3.309   3.365   7.166  0.4972 -0.0417 -0.1531
  147SAPE   O3216114   3.256   3.283   7.239  0.5359 -0.2010 -0.3501
  147SAPE   C3216115   3.232   3.434   7.050 -0.5399 -0.2286 -0.3501
  147SAPE   H2X16116   3.223   3.542   7.074  2.0889  0.1398 -0.7451
  147SAPE   H2Y16117   3.129   3.393   7.049  0.2919 -2.4855 -1.0511
  147SAPE   C2316118   3.821   3.103   6.825 -0.7117 -0.5977  0.6413
  147SAPE   H3R16119   3.757   3.015   6.801 -0.5853  0.0080 -2.3316
  147SAPE   H3S16120   3.907   3.062   6.882  0.5017 -1.9567 -1.9811
  147SAPE   C2416121   3.893   3.149   6.699 -0.4731 -0.0418 -0.2212
  147SAPE   H4R16122   3.817   3.188   6.628  0.6410 -0.1057 -1.4929
  147SAPE   H4S16123   3.938   3.059   6.652  1.2560  0.2317  0.8437
  147SAPE   C2516124   3.996   3.261   6.726 -0.0887  0.0994 -0.1806
  147SAPE   H5R16125   3.985   3.315   6.821  0.5624 -1.4240  0.8050
  147SAPE   C2616126   4.111   3.290   6.660 -0.6194  0.0920  0.2721
  147SAPE   H6R16127   4.162   3.383   6.689 -0.1928  0.2261 -0.8648
  147SAPE   C2716128   4.168   3.209   6.541  0.0232  0.1058 -0.2975
  147SAPE   H7R16129   4.195   3.102   6.556  0.6283  0.3685  0.5213
  147SAPE   H7S16130   4.266   3.253   6.512 -0.1198 -0.3640 -1.5802
  147SAPE   C2816131   4.079   3.216   6.421  0.4873 -0.6175  0.2742
  147SAPE   H8R16132   3.972   3.233   6.441 -0.2727 -0.0545 -3.5621
  147SAPE   C2916133   4.112   3.211   6.292  0.3837  0.4431  0.1545
  147SAPE   H9R16134   4.033   3.219   6.215  0.6754  0.8393 -0.1141
  147SAPE  C21016135   4.247   3.184   6.235 -0.4794 -1.4298 -0.2964
  147SAPE  H10R16136   4.305   3.114   6.300  1.0536  0.4640  0.4841
  147SAPE  H10S16137   4.300   3.279   6.255  0.6368 -1.9899 -0.5203
  147SAPE  C21116138   4.253   3.159   6.088 -0.2543  0.0804  0.1547
  147SAPE  H11R16139   4.246   3.051   6.069 -0.2846 -0.2613  1.9469
  147SAPE  C21216140   4.251   3.245   5.981 -0.0686 -0.1494 -0.3632
  147SAPE  H12R16141   4.274   3.197   5.885 -3.5718 -1.0326 -0.9222
  147SAPE  C21316142   4.240   3.390   5.987  0.3295 -0.1891 -0.1259
  147SAPE  H13R16143   4.242   3.425   6.092 -0.8496  0.8553 -0.4132
  147SAPE  H13S16144   4.139   3.432   5.963  0.2395 -2.1548 -4.0305
  147SAPE  C21416145   4.321   3.471   5.896  0.2074  0.2627 -0.3174
  147SAPE  H14R16146   4.321   3.442   5.790 -1.0462 -0.8364 -0.0360
  147SAPE  C21516147   4.381   3.589   5.921 -0.2168  0.4697 -0.5292
  147SAPE  H15R16148   4.449   3.635   5.847  0.0140  0.6750 -0.1914
  147SAPE  C21616149   4.376   3.677   6.045 -0.1329 -0.4273  0.4174
  147SAPE  H16R16150   4.480   3.669   6.085  0.2183 -2.2862 -0.7231
  147SAPE  H16S16151   4.299   3.631   6.110 -1.4234 -0.9169 -1.3951
  147SAPE  C21716152   4.337   3.823   6.011 -0.4236  0.4590  0.6011
  147SAPE  H17R16153   4.416   3.886   5.966 -0.2110 -0.2916 -0.0921
  147SAPE  H17S16154   4.314   3.872   6.109  1.0803  0.7960  0.8065
  147SAPE  C21816155   4.215   3.837   5.924 -0.1877  0.1316 -0.2236
  147SAPE  H18R16156   4.161   3.929   5.956 -1.3831 -1.3304  2.2965
  147SAPE  H18S16157   4.138   3.764   5.956 -0.6703  0.8564  0.2872
  147SAPE  C21916158   4.228   3.835   5.768 -0.6416 -0.4327 -0.3646
  147SAPE  H19R16159   4.130   3.824   5.718 -1.0696  1.8956 -0.1778
  147SAPE  H19S16160   4.278   3.746   5.725 -0.9513  0.0001 -1.6819
  147SAPE  C22016161   4.293   3.954   5.712  0.9109  0.1534 -0.4689
  147SAPE  H20R16162   4.400   3.939   5.687  0.9502 -1.7554  0.6715
  147SAPE  H20S16163   4.292   4.037   5.787  3.6702 -0.5107  0.4215
  147SAPE  H20T16164   4.245   3.997   5.622 -1.2033 -2.5486 -0.7696
  147SAPE   C3316165   3.299   3.429   6.913  0.1205 -0.2508  0.0200
  147SAPE   H3X16166   3.408   3.448   6.925 -0.1390  1.5271 -0.1270
  147SAPE   H3Y16167   3.265   3.501   6.836 -2.5548  1.1076  2.2922
  147SAPE   C3416168   3.290   3.285   6.859 -0.1271 -0.0055  0.8588
  147SAPE   H4X16169   3.183   3.261   6.840 -1.0292  3.7727  0.4222
  147SAPE   H4Y16170   3.330   3.207   6.927 -0.0946  0.8906  1.8999
  147SAPE   C3516171   3.362   3.277   6.720  0.6171  1.0310 -0.1497
  147SAPE   H5X16172   3.469   3.249   6.728  0.4568  0.3173 -0.3955
  147SAPE   H5Y16173   3.359   3.376   6.669  0.5394  1.3882  0.5424
  147SAPE   C3616174   3.309   3.163   6.625  0.1844  0.1293 -0.1340
  147SAPE   H6X16175   3.204   3.194   6.608 -1.2718 -3.5283  1.2447
  147SAPE   H6Y16176   3.309   3.063   6.673  0.3913  0.2811  0.1844
  147SAPE   C3716177   3.384   3.156   6.487 -0.2799 -0.4774  0.2636
  147SAPE   H7X16178   3.494   3.140   6.488  0.5955  4.0517 -0.2009
  147SAPE   H7Y16179   3.381   3.259   6.446 -0.3205 -1.2828 -1.8484
  147SAPE   C3816180   3.317   3.074   6.380  0.3709  0.2400  0.9561
  147SAPE   H8X16181   3.217   3.120   6.360  1.3081  1.1287 -2.2081
  147SAPE   H8Y16182   3.302   2.970   6.416  1.3470 -0.6993 -1.1827
  147SAPE   C3916183   3.385   3.072   6.240  0.0809  0.9392 -0.7156
  147SAPE   H9X16184   3.490   3.035   6.245  0.4903  2.1512  0.2696
  147SAPE   H9Y16185   3.402   3.176   6.205 -1.7373  0.9117 -1.7730
  147SAPE  C31016186   3.302   2.992   6.138  0.4592  0.4134 -0.3951
  147SAPE  H10X16187   3.201   3.039   6.130 -1.5625 -3.7768 -2.5725
  147SAPE  H10Y16188   3.290   2.889   6.177  2.7947  0.2824  0.1155
  147SAPE  C31116189   3.368   2.991   6.004  0.2312 -0.0935 -0.2831
  147SAPE  H11X16190   3.475   2.963   6.013  0.1273  0.1905  3.2135
  147SAPE  H11Y16191   3.360   3.097   5.971  2.5144  0.0831 -0.4142
  147SAPE  C31216192   3.305   2.894   5.899 -0.2768  0.2603 -0.0831
  147SAPE  H12X16193   3.290   2.797   5.950 -0.0201  0.5440  0.5336
  147SAPE  H12Y16194   3.382   2.885   5.819 -0.9544  0.0786 -0.7338
  147SAPE  C31316195   3.167   2.938   5.855 -0.5665 -0.0013 -0.7417
  147SAPE  H13X16196   3.170   3.034   5.799 -2.8867 -0.5317 -1.8800
  147SAPE  H13Y16197   3.099   2.957   5.941  1.0283  2.1854  0.1336
  147SAPE  C31416198   3.097   2.845   5.752 -0.1635 -0.1553 -0.2093
  147SAPE  H14X16199   3.068   2.746   5.795  0.3482 -0.4128 -0.4415
  147SAPE  H14Y16200   3.171   2.829   5.670  1.2844  2.2899  0.5412
  147SAPE  C31516201   2.963   2.903   5.688 -0.2629 -0.4614 -0.2347
  147SAPE  H15X16202   2.978   3.010   5.663 -1.6504  0.0520  0.9916
  147SAPE  H15Y16203   2.886   2.898   5.769 -2.2251 -0.3679 -2.0162
  147SAPE  C31616204   2.929   2.834   5.555 -0.2212  0.2081  0.6093
  147SAPE  H16X16205   2.997   2.876   5.477 -0.1094 -2.2067 -0.7134
  147SAPE  H16Y16206   2.824   2.856   5.526 -0.9288 -3.7629 -0.4711
  147SAPE  C31716207   2.939   2.684   5.562  0.3817 -0.3473 -0.0757
  147SAPE  H17X16208   2.858   2.645   5.628 -1.7804  1.3514 -1.5874
  147SAPE  H17Y16209   3.032   2.642   5.607  0.7234  1.7807  1.3379
  147SAPE  C31816210   2.932   2.612   5.420 -0.2660  0.2653  0.0666
  147SAPE  H18X16211   2.939   2.502   5.436  0.7380  0.4223  0.7955
  147SAPE  H18Y16212   3.018   2.638   5.355 -0.1952 -1.8862 -0.7838
  147SAPE  H18Z16213   2.838   2.644   5.371 -2.7397 -2.6551  2.5307
  148SAPE     N16214   1.371   2.707   7.190  0.0668 -0.1018 -0.2666
  148SAPE   HN116215   1.459   2.718   7.136 -0.8325 -0.7573 -1.9266
  148SAPE   HN216216   1.367   2.604   7.208 -0.6743 -0.4393 -2.1533
  148SAPE   HN316217   1.292   2.739   7.130  0.2538  3.2577  1.0678
  148SAPE   C1216218   1.387   2.789   7.318  0.2346  0.5183  0.1679
  148SAPE  H12A16219   1.465   2.745   7.383  0.7325  1.6849  0.3791
  148SAPE  H12B16220   1.283   2.785   7.358 -0.1884  3.4569 -0.3892
  148SAPE   C1116221   1.411   2.937   7.285 -0.3563  1.1151  0.0985
  148SAPE  H11A16222   1.428   2.997   7.377  0.9286  0.4005  0.3639
  148SAPE  H11B16223   1.326   2.975   7.225 -0.0515  0.5787 -0.6941
  148SAPE     P16224   1.613   3.068   7.161 -0.0160 -0.2411 -0.3578
  148SAPE   O1316225   1.612   3.176   7.268 -0.3463 -0.2370 -0.1140
  148SAPE   O1416226   1.746   3.025   7.111  0.5316 -0.3262 -0.1695
  148SAPE   O1216227   1.540   2.944   7.218  0.2079 -0.5061 -0.9544
  148SAPE   O1116228   1.526   3.114   7.037 -0.6264 -0.5633 -0.7492
  148SAPE    C116229   1.466   3.025   6.954  0.3109 -0.0447  0.6309
  148SAPE    HA16230   1.487   2.919   6.978 -0.6080 -0.0237  1.5824
  148SAPE    HB16231   1.356   3.021   6.972  0.4452 -1.7747  1.2425
  148SAPE    C216232   1.468   3.050   6.802  0.5769  0.4289  0.5222
  148SAPE    HS16233   1.396   2.974   6.764  2.2565 -0.3770 -1.2021
  148SAPE   O2116234   1.596   3.027   6.735 -0.2929  0.4367 -0.4157
  148SAPE   C2116235   1.643   2.905   6.751 -0.8161  0.3904  0.5760
  148SAPE   O2216236   1.590   2.815   6.817  0.3188  0.5360  0.0392
  148SAPE   C2216237   1.772   2.888   6.663  0.9586 -0.2010  0.4348
  148SAPE   H2R16238   1.859   2.908   6.729  1.3736  2.8241 -0.8462
  148SAPE   H2S16239   1.780   2.784   6.625 -1.3558 -0.5735  0.8275
  148SAPE    C316240   1.412   3.188   6.762 -0.1021 -0.2702  1.1249
  148SAPE    HX16241   1.489   3.263   6.793  1.0009 -0.5651 -0.7396
  148SAPE    HY16242   1.322   3.201   6.826  0.5551  1.7465  1.7242
  148SAPE   O3116243   1.382   3.206   6.619 -0.3162 -0.2455  0.1167
  148SAPE   C3116244   1.304   3.307   6.585 -0.0278  0.2150 -0.3998
  148SAPE   O3216245   1.263   3.393   6.658 -0.2580 -0.0762 -0.3692
  148SAPE   C3216246   1.277   3.293   6.437 -0.6665  0.1508  1.0480
  148SAPE   H2X16247   1.208   3.376   6.408 -0.3909  0.0609  0.0957
  148SAPE   H2Y16248   1.220   3.198   6.427 -1.7213  0.9189 -0.6728
  148SAPE   C2316249   1.786   2.989   6.548  0.0784 -0.1539  0.2812
  148SAPE   H3R16250   1.875   2.971   6.485  1.0332 -0.8560  1.7650
  148SAPE   H3S16251   1.788   3.095   6.582  1.3580  0.5961 -1.9587
  148SAPE   C2416252   1.669   2.982   6.445 -0.9591 -0.2905 -0.5605
  148SAPE   H4R16253   1.661   3.081   6.396 -1.6106 -0.9081 -1.7544
  148SAPE   H4S16254   1.568   2.993   6.490 -0.3879  0.0047  0.6828
  148SAPE   C2516255   1.675   2.870   6.347  0.4250 -0.0589 -0.5141
  148SAPE   H5R16256   1.770   2.843   6.299  1.0841 -0.7777  1.1320
  148SAPE   C2616257   1.577   2.780   6.323  0.0708  0.0836 -0.1867
  148SAPE   H6R16258   1.594   2.705   6.245 -0.5832  0.0763 -0.3240
  148SAPE   C2716259   1.432   2.793   6.370  0.2275  0.3747 -0.3564
  148SAPE   H7R16260   1.373   2.862   6.306 -2.0168 -0.1753  1.0178
  148SAPE   H7S16261   1.417   2.835   6.471 -0.5100 -1.6768  0.4464
  148SAPE   C2816262   1.381   2.651   6.374  1.1759  1.0820 -0.2681
  148SAPE   H8R16263   1.380   2.616   6.478  0.9836  0.8706 -0.3421
  148SAPE   C2916264   1.343   2.567   6.272  0.3896  0.5094 -0.7929
  148SAPE   H9R16265   1.291   2.473   6.296  0.9794  0.3301 -0.2015
  148SAPE  C21016266   1.336   2.616   6.131 -0.8599  0.0357 -0.6436
  148SAPE  H10R16267   1.383   2.536   6.069  1.3939  1.0683 -0.3930
  148SAPE  H10S16268   1.403   2.704   6.116 -0.8144 -0.0625 -1.0411
  148SAPE  C21116269   1.205   2.650   6.077  0.5566  0.8256  0.3412
  148SAPE  H11R16270   1.136   2.690   6.153 -1.6075 -2.2202  0.1448
  148SAPE  C21216271   1.147   2.643   5.955 -0.0443 -0.6943  0.2246
  148SAPE  H12R16272   1.053   2.698   5.942 -0.7872 -1.9158  0.2006
  148SAPE  C21316273   1.213   2.581   5.827 -0.4073 -0.3539  0.2453
  148SAPE  H13R16274   1.238   2.473   5.829  0.4646 -0.1570  0.2427
  148SAPE  H13S16275   1.311   2.628   5.803 -1.1674  0.5077 -1.4391
  148SAPE  C21416276   1.134   2.606   5.699  0.2869  0.2083  0.3205
  148SAPE  H14R16277   1.132   2.711   5.667  1.3030  0.3783  0.7546
  148SAPE  C21516278   1.078   2.520   5.607 -0.1511  0.1766 -0.0946
  148SAPE  H15R16279   1.009   2.547   5.525 -0.1456 -0.7983 -0.4344
  148SAPE  C21616280   1.087   2.374   5.613  0.3725  0.3076  0.3098
  148SAPE  H16R16281   1.055   2.333   5.712  0.3974 -0.7964 -0.1200
  148SAPE  H16S16282   1.195   2.353   5.594  0.2846  0.9796 -0.9983
  148SAPE  C21716283   0.988   2.290   5.515 -0.2916  1.0299  0.6802
  148SAPE  H17R16284   1.015   2.312   5.410  1.6818  3.5285  1.5912
  148SAPE  H17S16285   0.881   2.316   5.529 -0.4429  1.5223 -1.1405
  148SAPE  C21816286   1.016   2.142   5.532  0.1121 -0.7223 -0.4788
  148SAPE  H18R16287   1.011   2.105   5.637  0.1994 -1.2014 -0.6421
  148SAPE  H18S16288   1.117   2.110   5.496 -0.1562 -0.8864 -1.0981
  148SAPE  C21916289   0.911   2.064   5.450  0.1445 -0.3838  0.6338
  148SAPE  H19R16290   0.812   2.111   5.469  1.5020  1.7947  2.9511
  148SAPE  H19S16291   0.905   1.960   5.487 -1.2606 -0.2685  0.7613
  148SAPE  C22016292   0.938   2.056   5.296  0.3858 -0.2843 -0.0253
  148SAPE  H20R16293   0.937   2.150   5.237 -0.2150 -2.0875 -3.1552
  148SAPE  H20S16294   0.857   1.993   5.252  0.1191  0.2970 -0.3746
  148SAPE  H20T16295   1.039   2.013   5.281  1.4395  1.8733  0.5091
  148SAPE   C3316296   1.405   3.291   6.346 -0.2031 -0.4140  0.5673
  148SAPE   H3X16297   1.475   3.220   6.395  0.1415 -0.3351  0.1919
  148SAPE   H3Y16298   1.449   3.392   6.333 -0.8426 -0.2822 -0.8611
  148SAPE   C3416299   1.386   3.221   6.207  0.1705 -0.3634 -0.1846
  148SAPE   H4X16300   1.324   3.289   6.146 -0.0688 -0.0598  0.3835
  148SAPE   H4Y16301   1.332   3.129   6.235 -0.6390 -0.2636 -1.3532
  148SAPE   C3516302   1.514   3.204   6.126 -0.3344  0.6677  0.2987
  148SAPE   H5X16303   1.590   3.155   6.189  1.1267  0.4824 -1.5411
  148SAPE   H5Y16304   1.551   3.304   6.097  0.0739  0.4268 -0.0065
  148SAPE   C3616305   1.495   3.129   5.990 -0.1017  0.0294 -0.1762
  148SAPE   H6X16306   1.582   3.147   5.923  0.0602  0.6062  0.1760
  148SAPE   H6Y16307   1.404   3.161   5.935  0.3022 -0.2372 -1.0183
  148SAPE   C3716308   1.467   2.974   6.007  0.4616 -0.5746 -0.0656
  148SAPE   H7X16309   1.392   2.957   6.087 -2.6918 -1.7033 -3.0472
  148SAPE   H7Y16310   1.564   2.926   6.034  0.7070  0.0666  0.2210
  148SAPE   C3816311   1.410   2.904   5.885 -0.6607 -0.2440  0.1421
  148SAPE   H8X16312   1.306   2.932   5.860 -1.4547 -2.6552  0.4851
  148SAPE   H8Y16313   1.397   2.796   5.908  2.1264 -0.5143  0.8307
  148SAPE   C3916314   1.495   2.928   5.755 -0.2807 -0.4217  0.1135
  148SAPE   H9X16315   1.578   2.855   5.761 -0.6440 -0.8546 -0.1038
  148SAPE   H9Y16316   1.526   3.035   5.746  0.5061 -0.7037 -0.6830
  148SAPE  C31016317   1.408   2.900   5.628 -0.4826 -0.5530  0.2970
  148SAPE  H10X16318   1.324   2.973   5.638  0.4678  1.0229 -2.2766
  148SAPE  H10Y16319   1.369   2.796   5.627 -2.5292  0.1576 -0.7934
  148SAPE  C31116320   1.487   2.939   5.503  0.3227 -0.5344  0.1453
  148SAPE  H11X16321   1.586   2.889   5.510 -0.2799 -1.7943  0.0307
  148SAPE  H11Y16322   1.499   3.049   5.497  0.2693 -0.4142  1.9518
  148SAPE  C31216323   1.433   2.878   5.371  0.1367 -0.4781  0.5197
  148SAPE  H12X16324   1.437   2.768   5.388  1.3467 -0.0747  3.3928
  148SAPE  H12Y16325   1.499   2.917   5.290 -1.1556  3.0050  0.9806
  148SAPE  C31316326   1.282   2.902   5.333 -0.2424  0.0819 -0.5494
  148SAPE  H13X16327   1.266   3.012   5.334  2.6852  0.5895  0.3146
  148SAPE  H13Y16328   1.216   2.854   5.408  0.4192 -0.3679 -0.2391
  148SAPE  C31416329   1.237   2.853   5.199 -0.2268  0.0363 -0.4578
  148SAPE  H14X16330   1.286   2.913   5.118 -1.2087 -0.0091 -1.1023
  148SAPE  H14Y16331   1.131   2.881   5.187 -0.5562 -1.8636 -2.8264
  148SAPE  C31516332   1.268   2.707   5.164 -0.0674 -0.2414  0.0296
  148SAPE  H15X16333   1.367   2.680   5.206  0.3538  1.5195  0.2298
  148SAPE  H15Y16334   1.280   2.711   5.054  0.5217  0.3559  0.1128
  148SAPE  C31616335   1.153   2.615   5.216 -0.2752 -0.2510  0.0745
  148SAPE  H16X16336   1.054   2.662   5.197 -0.3071  0.1039  1.0704
  148SAPE  H16Y16337   1.165   2.606   5.326 -0.3653  0.4341  0.1422
  148SAPE  C31716338   1.143   2.472   5.166 -0.5695  0.4199 -0.0392
  148SAPE  H17X16339   1.151   2.471   5.055 -1.6554 -0.7826 -0.1332
  148SAPE  H17Y16340   1.052   2.418   5.201  0.5429 -3.6035 -2.6410
  148SAPE  C31816341   1.269   2.383   5.205  0.0581  0.5219  0.1289
  148SAPE  H18X16342   1.366   2.437   5.201  0.3941 -0.0901 -0.3599
  148SAPE  H18Y16343   1.275   2.300   5.131  1.6291  1.4018 -0.7804
  148SAPE  H18Z16344   1.255   2.342   5.307 -0.1291 -2.5851 -1.0138
  149SAPE     N16345   1.637   4.758   7.691  0.4535  0.5797  0.1931
  149SAPE   HN116346   1.601   4.663   7.670  1.1255  0.3011  0.2784
  149SAPE   HN216347   1.734   4.754   7.726 -0.4304  1.3277  3.0097
  149SAPE   HN316348   1.575   4.809   7.758  0.5559  1.3617 -0.2976
  149SAPE   C1216349   1.657   4.827   7.548  0.1387 -0.1770 -1.6311
  149SAPE  H12A16350   1.704   4.924   7.573 -1.0621  0.1458 -0.4963
  149SAPE  H12B16351   1.554   4.846   7.509 -0.7800 -1.2133  0.1321
  149SAPE   C1116352   1.744   4.743   7.458 -0.2435  0.2228 -0.0725
  149SAPE  H11A16353   1.766   4.802   7.367  1.1315 -1.4863 -0.9183
  149SAPE  H11B16354   1.684   4.653   7.431  0.4096  0.3075 -1.9268
  149SAPE     P16355   2.010   4.768   7.497 -0.1983  0.0300 -0.0209
  149SAPE   O1316356   2.000   4.913   7.532 -0.2308  0.3292  0.2702
  149SAPE   O1416357   2.108   4.689   7.577  0.1055 -0.2941  0.5239
  149SAPE   O1216358   1.866   4.710   7.526 -0.6209  0.5062 -0.2972
  149SAPE   O1116359   2.030   4.746   7.340 -0.4472 -0.5941  0.0601
  149SAPE    C116360   2.130   4.828   7.276 -0.1449 -0.1607  0.4104
  149SAPE    HA16361   2.187   4.890   7.349 -3.6031  1.2105  2.1613
  149SAPE    HB16362   2.202   4.760   7.226 -1.9540  0.1048 -2.8156
  149SAPE    C216363   2.058   4.922   7.174  0.3435 -0.6283 -0.8564
  149SAPE    HS16364   1.992   4.986   7.236  0.9132 -0.5434 -0.3322
  149SAPE   O2116365   1.998   4.834   7.084 -0.5692 -0.2792  0.0499
  149SAPE   C2116366   1.872   4.836   7.078  0.3577  0.4930  0.8069
  149SAPE   O2216367   1.798   4.919   7.127  0.0990 -1.1079 -0.4229
  149SAPE   C2216368   1.827   4.728   6.981  0.2427 -0.2198  0.0183
  149SAPE   H2R16369   1.915   4.676   6.939  0.1860  1.4939 -2.4196
  149SAPE   H2S16370   1.776   4.657   7.050 -0.1230 -1.8228 -1.8181
  149SAPE    C316371   2.170   5.016   7.109 -0.0198 -1.0376  0.1551
  149SAPE    HX16372   2.267   4.965   7.092 -0.7789 -2.4508 -0.1328
  149SAPE    HY16373   2.202   5.099   7.175 -0.4177 -0.0898 -0.8166
  149SAPE   O3116374   2.101   5.070   6.995 -0.4007 -0.6262  0.8419
  149SAPE   C3116375   2.172   5.145   6.901 -0.2978  0.3839 -0.0916
  149SAPE   O3216376   2.291   5.166   6.905 -0.2284 -0.1546  0.0853
  149SAPE   C3216377   2.088   5.206   6.792 -0.7214  0.1633 -0.5569
  149SAPE   H2X16378   2.031   5.292   6.834  0.2876  0.2548  0.6784
  149SAPE   H2Y16379   2.013   5.131   6.758 -0.8975  0.2655 -0.3991
  149SAPE   C2316380   1.725   4.772   6.870  0.1333  0.3664  0.0347
  149SAPE   H3R16381   1.639   4.818   6.922 -0.5372  1.0300 -1.6046
  149SAPE   H3S16382   1.688   4.694   6.801  2.3720  0.9692 -1.9786
  149SAPE   C2416383   1.773   4.879   6.765 -0.3135 -0.3598  0.0975
  149SAPE   H4R16384   1.796   4.975   6.818 -0.6722 -1.4380  2.2969
  149SAPE   H4S16385   1.682   4.891   6.703  0.6535  0.5256 -1.2399
  149SAPE   C2516386   1.903   4.840   6.694  1.1022 -0.6862 -0.0083
  149SAPE   H5R16387   1.989   4.803   6.751  1.8198  1.0256  0.0790
  149SAPE   C2616388   1.922   4.876   6.562  0.5266 -0.4276 -0.3108
  149SAPE   H6R16389   2.016   4.850   6.511 -0.1012  0.5434 -2.0471
  149SAPE   C2716390   1.829   4.937   6.457 -0.4856  0.8145 -0.5048
  149SAPE   H7R16391   1.899   4.958   6.373 -0.0080 -2.8419 -1.1807
  149SAPE   H7S16392   1.786   5.031   6.499 -0.5033  1.1954 -1.3627
  149SAPE   C2816393   1.703   4.860   6.421  0.3828 -0.2503  0.6866
  149SAPE   H8R16394   1.652   4.795   6.494 -0.0900 -1.2281 -0.4870
  149SAPE   C2916395   1.644   4.871   6.303 -0.0844  0.7228 -0.1992
  149SAPE   H9R16396   1.559   4.805   6.279  1.7628 -1.4765 -1.0990
  149SAPE  C21016397   1.686   4.953   6.193  0.7899 -0.5897  0.7431
  149SAPE  H10R16398   1.712   4.887   6.108 -0.2764  0.9353 -0.8443
  149SAPE  H10S16399   1.786   5.000   6.205 -0.4334  2.5265 -0.2480
  149SAPE  C21116400   1.582   5.053   6.146  0.0220 -0.3201  0.0818
  149SAPE  H11R16401   1.539   5.114   6.227 -1.0953  0.1642 -0.8482
  149SAPE  C21216402   1.516   5.051   6.028 -1.0413 -0.1284  0.9471
  149SAPE  H12R16403   1.431   5.120   6.020  0.1958  1.3209 -0.4909
  149SAPE  C21316404   1.542   4.965   5.907 -0.2110 -0.0186 -0.3933
  149SAPE  H13R16405   1.439   4.956   5.867 -0.4618 -1.0417  0.4205
  149SAPE  H13S16406   1.565   4.859   5.934 -2.9123 -0.4095  0.7422
  149SAPE  C21416407   1.641   5.029   5.812  0.5012  0.1156 -0.0547
  149SAPE  H14R16408   1.743   4.991   5.827  0.4520  0.0912  0.2330
  149SAPE  C21516409   1.607   5.076   5.688  0.7017 -0.2134  0.4345
  149SAPE  H15R16410   1.689   5.120   5.630 -0.2090  1.3952  0.3128
  149SAPE  C21616411   1.469   5.100   5.613 -0.2374  1.1397 -0.0357
  149SAPE  H16R16412   1.389   5.039   5.660  1.0567 -2.6154 -2.2196
  149SAPE  H16S16413   1.479   5.053   5.513 -0.3872  0.0431  0.4529
  149SAPE  C21716414   1.417   5.243   5.597 -0.2102  0.7431 -0.6200
  149SAPE  H17R16415   1.485   5.296   5.527 -0.7366  2.9895  0.4953
  149SAPE  H17S16416   1.411   5.286   5.699 -1.2130 -0.0633 -0.3291
  149SAPE  C21816417   1.272   5.259   5.546  0.0668 -0.1808  0.1613
  149SAPE  H18R16418   1.239   5.364   5.564  0.2183  0.1473 -1.3783
  149SAPE  H18S16419   1.201   5.209   5.615  0.7658  0.7557  1.6152
  149SAPE  C21916420   1.263   5.210   5.403  0.5364 -0.3377  0.1281
  149SAPE  H19R16421   1.266   5.099   5.394 -0.6698 -0.5034  1.5145
  149SAPE  H19S16422   1.349   5.245   5.340  3.0867  0.0713  3.5543
  149SAPE  C22016423   1.136   5.262   5.334 -0.3069  0.5987 -0.0596
  149SAPE  H20R16424   1.132   5.238   5.226  0.1267 -2.6809  0.5693
  149SAPE  H20S16425   1.116   5.372   5.341  1.6001  0.8738  2.3923
  149SAPE  H20T16426   1.046   5.209   5.372 -0.5475 -0.7075 -2.2753
  149SAPE   C3316427   2.162   5.248   6.654  0.3332  0.1444 -0.3330
  149SAPE   H3X16428   2.236   5.330   6.667 -1.4012  2.3794 -3.1799
  149SAPE   H3Y16429   2.086   5.281   6.580 -0.4273 -0.6507  0.0683
  149SAPE   C3416430   2.210   5.116   6.584  0.6849 -0.2205 -0.4210
  149SAPE   H4X16431   2.117   5.055   6.581 -0.8044  1.9570 -1.9250
  149SAPE   H4Y16432   2.285   5.057   6.641  1.0056  1.2409  0.7256
  149SAPE   C3516433   2.260   5.136   6.445  0.2653  0.7590  0.2077
  149SAPE   H5X16434   2.331   5.055   6.415 -2.5041 -0.9752 -2.3223
  149SAPE   H5Y16435   2.311   5.233   6.429  1.9410  0.0810  1.1237
  149SAPE   C3616436   2.160   5.104   6.329 -1.1052 -0.4602  0.2719
  149SAPE   H6X16437   2.065   5.160   6.345 -0.4614  1.5429 -2.2551
  149SAPE   H6Y16438   2.137   4.995   6.326 -3.0261 -0.0651 -1.1972
  149SAPE   C3716439   2.199   5.148   6.186  0.1156 -0.1598 -0.8537
  149SAPE   H7X16440   2.203   5.259   6.185 -3.7638  0.1224 -2.6261
  149SAPE   H7Y16441   2.115   5.129   6.116  0.5717  0.4071 -1.5734
  149SAPE   C3816442   2.332   5.093   6.134  0.0327 -0.0654 -0.9384
  149SAPE   H8X16443   2.406   5.096   6.217 -0.3490  1.8443 -0.6209
  149SAPE   H8Y16444   2.369   5.157   6.051  0.7476 -0.3156 -0.8275
  149SAPE   C3916445   2.323   4.951   6.079 -0.1753  0.2889  0.0442
  149SAPE   H9X16446   2.278   4.965   5.979 -1.6739  0.4866  0.7215
  149SAPE   H9Y16447   2.238   4.898   6.127 -1.3334  0.4011 -1.7702
  149SAPE  C31016448   2.452   4.874   6.080 -0.0426  0.0095 -0.2471
  149SAPE  H10X16449   2.481   4.862   6.187 -1.6191  1.0052  0.3203
  149SAPE  H10Y16450   2.533   4.927   6.026  0.7003 -1.5517 -0.7128
  149SAPE  C31116451   2.433   4.730   6.013  0.5497 -0.2180 -0.3384
  149SAPE  H11X16452   2.346   4.685   6.066 -0.8333  2.0935 -0.5453
  149SAPE  H11Y16453   2.521   4.664   6.029 -0.0767 -1.2293 -0.9160
  149SAPE  C31216454   2.415   4.735   5.859  0.8561 -0.7053 -0.5497
  149SAPE  H12X16455   2.515   4.727   5.812  2.6521  2.3139  2.3398
  149SAPE  H12Y16456   2.387   4.841   5.842 -0.1965 -1.0963 -1.3628
  149SAPE  C31316457   2.306   4.645   5.799  0.0573 -0.5024 -0.1854
  149SAPE  H13X16458   2.257   4.696   5.714  2.7998  0.7755 -1.1303
  149SAPE  H13Y16459   2.239   4.629   5.887 -0.2280  1.2265 -0.0566
  149SAPE  C31416460   2.368   4.512   5.771 -0.1595  0.0929 -0.7075
  149SAPE  H14X16461   2.413   4.469   5.863  0.3499  2.7429  0.3795
  149SAPE  H14Y16462   2.459   4.540   5.713  0.8643 -1.7430 -0.0892
  149SAPE  C31516463   2.272   4.418   5.706 -1.0961  0.3338 -0.4711
  149SAPE  H15X16464   2.329   4.334   5.660 -1.4175 -0.4476  0.5156
  149SAPE  H15Y16465   2.207   4.453   5.623 -3.9120 -2.2795  0.4611
  149SAPE  C31616466   2.170   4.345   5.788 -0.5137  0.4708 -0.6139
  149SAPE  H16X16467   2.097   4.416   5.833 -2.6187 -2.3162  0.6780
  149SAPE  H16Y16468   2.216   4.295   5.876 -2.0804 -0.7510 -0.4328
  149SAPE  C31716469   2.084   4.242   5.709 -0.5543 -0.5794  0.3536
  149SAPE  H17X16470   2.159   4.165   5.680 -0.9107 -0.3486 -1.2731
  149SAPE  H17Y16471   2.040   4.277   5.613 -1.0233 -3.8826 -0.7630
  149SAPE  C31816472   1.981   4.182   5.808  0.5779  0.0429 -0.4513
  149SAPE  H18X16473   1.935   4.268   5.862  1.1373 -0.6650  1.2269
  149SAPE  H18Y16474   2.037   4.123   5.884  2.9316 -0.5854 -2.5622
  149SAPE  H18Z16475   1.916   4.123   5.739  1.5699 -0.8792 -0.6258
  150SAPE     N16476   5.963   5.997   7.736  0.0038 -0.2951 -0.0263
  150SAPE   HN116477   6.061   6.015   7.708  0.1526 -1.7311 -0.5334
  150SAPE   HN216478   5.913   6.002   7.645  1.6514  0.7344 -0.9311
  150SAPE   HN316479   5.939   6.078   7.797  1.4226  1.1553 -1.3260
  150SAPE   C1216480   5.959   5.866   7.810  0.2714  0.0833 -0.1292
  150SAPE  H12A16481   5.850   5.849   7.826  0.9150 -3.2355  1.5578
  150SAPE  H12B16482   5.998   5.883   7.912 -0.6589  1.6560 -0.0026
  150SAPE   C1116483   6.010   5.751   7.729 -0.7468 -0.2626  0.2805
  150SAPE  H11A16484   5.953   5.730   7.636 -2.5985 -1.9885  1.7035
  150SAPE  H11B16485   6.002   5.659   7.791  0.0105 -0.1596  0.5501
  150SAPE     P16486   6.255   5.666   7.732  0.3990  0.0953  0.1209
  150SAPE   O1316487   6.320   5.687   7.864  0.1716 -0.1492  0.4122
  150SAPE   O1416488   6.181   5.539   7.722  0.2310 -0.8215  0.7577
  150SAPE   O1216489   6.152   5.781   7.704  0.2634 -0.4595  0.4327
  150SAPE   O1116490   6.357   5.664   7.615 -0.4521 -0.2611 -0.1785
  150SAPE    C116491   6.444   5.776   7.584 -0.7440  0.4133 -0.0250
  150SAPE    HA16492   6.413   5.873   7.627  1.5113  1.5475 -0.7730
  150SAPE    HB16493   6.550   5.761   7.614 -0.6676  0.8331 -0.0898
  150SAPE    C216494   6.444   5.792   7.429  0.3848  0.2801 -0.0306
  150SAPE    HS16495   6.490   5.891   7.411 -0.3223  0.3674 -1.4858
  150SAPE   O2116496   6.314   5.788   7.372 -0.0938 -0.2186  0.0711
  150SAPE   C2116497   6.235   5.888   7.409  0.8388 -0.1353 -0.3467
  150SAPE   O2216498   6.272   5.996   7.448 -0.3947 -0.7333  0.9285
  150SAPE   C2216499   6.105   5.872   7.340  0.2834  0.5096 -0.1044
  150SAPE   H2R16500   6.079   5.765   7.328 -2.3051  0.6589  2.9103
  150SAPE   H2S16501   6.026   5.925   7.397  0.7561  2.1521 -0.8910
  150SAPE    C316502   6.526   5.681   7.354  0.0252 -0.4114  1.1448
  150SAPE    HX16503   6.498   5.585   7.403 -0.2417 -0.8492  0.1721
  150SAPE    HY16504   6.633   5.706   7.369  0.0653 -0.3880  0.8254
  150SAPE   O3116505   6.511   5.674   7.212 -0.2373 -0.1117  0.7447
  150SAPE   C3116506   6.571   5.766   7.137 -0.1108 -0.0822 -0.2665
  150SAPE   O3216507   6.634   5.861   7.177 -0.5133 -0.0910  0.1879
  150SAPE   C3216508   6.546   5.736   6.989 -0.1079 -0.5827 -0.8247
  150SAPE   H2X16509   6.448   5.787   6.977 -0.6036 -0.1842  3.4888
  150SAPE   H2Y16510   6.538   5.628   6.964 -1.0492 -0.1290 -2.6603
  150SAPE   C2316511   6.087   5.941   7.202 -0.2063 -0.0747 -0.7078
  150SAPE   H3R16512   6.115   6.048   7.214  0.8659 -0.3820 -0.3481
  150SAPE   H3S16513   5.983   5.924   7.167 -0.7163 -2.5184  1.6842
  150SAPE   C2416514   6.189   5.885   7.098 -0.4682  0.9611  0.6163
  150SAPE   H4R16515   6.188   5.774   7.091  0.5735  0.9760  0.0545
  150SAPE   H4S16516   6.293   5.908   7.130 -0.3542 -1.9278  2.7349
  150SAPE   C2516517   6.171   5.945   6.959 -0.1951 -0.6265  0.2754
  150SAPE   H5R16518   6.178   6.054   6.946  0.0180 -0.8422 -1.6150
  150SAPE   C2616519   6.136   5.881   6.841 -0.2475  0.0817 -0.5242
  150SAPE   H6R16520   6.123   5.940   6.749 -0.4042  2.1005  0.7463
  150SAPE   C2716521   6.107   5.738   6.827  0.7572  0.3812  0.7036
  150SAPE   H7R16522   6.070   5.699   6.924  0.6407 -0.4771  0.3265
  150SAPE   H7S16523   6.200   5.683   6.799  1.5093  1.6509  0.5922
  150SAPE   C2816524   5.991   5.716   6.732  0.3411 -0.5831  0.2282
  150SAPE   H8R16525   5.897   5.691   6.784  0.1725 -3.2741 -1.2068
  150SAPE   C2916526   5.985   5.724   6.600 -0.4298 -0.1635  1.2493
  150SAPE   H9R16527   5.893   5.714   6.542  1.5785 -1.5589 -1.9859
  150SAPE  C21016528   6.107   5.752   6.513  0.0830 -0.3545 -0.4244
  150SAPE  H10R16529   6.135   5.650   6.480  2.3852  0.5373 -1.4796
  150SAPE  H10S16530   6.195   5.788   6.571 -0.9546 -0.5662  1.3409
  150SAPE  C21116531   6.074   5.837   6.390  0.6229 -0.5541 -0.6796
  150SAPE  H11R16532   6.040   5.940   6.404 -1.0163 -0.8141 -2.3788
  150SAPE  C21216533   6.079   5.798   6.263 -0.2115 -0.5193  0.0674
  150SAPE  H12R16534   6.056   5.872   6.185  0.4428 -1.5986 -1.2056
  150SAPE  C21316535   6.106   5.659   6.215  0.8420 -0.8586 -0.9261
  150SAPE  H13R16536   6.084   5.586   6.296 -4.6261 -2.3379 -3.2709
  150SAPE  H13S16537   6.212   5.651   6.183  0.4644 -1.2136 -2.1123
  150SAPE  C21416538   6.005   5.633   6.106  0.3370 -0.2824  0.0896
  150SAPE  H14R16539   5.904   5.595   6.131 -0.4741  1.0664 -0.9945
  150SAPE  C21516540   6.039   5.606   5.977  0.3951 -0.1956  0.2165
  150SAPE  H15R16541   5.956   5.575   5.913  0.2348 -0.1863  0.4168
  150SAPE  C21616542   6.178   5.628   5.916  0.6133 -0.3491 -0.0177
  150SAPE  H16R16543   6.232   5.531   5.905 -0.7084 -1.2347  0.9506
  150SAPE  H16S16544   6.229   5.693   5.990 -1.1529 -1.0386  1.8916
  150SAPE  C21716545   6.188   5.679   5.767  0.6877 -0.8024  0.0231
  150SAPE  H17R16546   6.294   5.672   5.737  0.4453 -0.0053 -1.0705
  150SAPE  H17S16547   6.149   5.781   5.743  1.6621 -0.7810 -1.5962
  150SAPE  C21816548   6.103   5.598   5.671 -0.4383  0.5068  0.3814
  150SAPE  H18R16549   5.997   5.617   5.696 -0.4389 -1.2868  2.0412
  150SAPE  H18S16550   6.130   5.493   5.696  1.2625  1.0684  1.0377
  150SAPE  C21916551   6.140   5.629   5.519  0.7478  0.8496 -0.5550
  150SAPE  H19R16552   6.251   5.627   5.509  0.8180 -1.8082  0.1235
  150SAPE  H19S16553   6.111   5.735   5.503  3.5100  1.5244 -1.6428
  150SAPE  C22016554   6.059   5.544   5.425  0.1819  0.0359  0.2767
  150SAPE  H20R16555   6.084   5.435   5.432  1.3591  0.3112  0.6482
  150SAPE  H20S16556   6.058   5.579   5.320 -0.2497  2.4367  1.0244
  150SAPE  H20T16557   5.951   5.540   5.448 -0.1266  1.3407 -0.8101
  150SAPE   C3316558   6.652   5.784   6.898 -0.0911 -0.3720 -0.8867
  150SAPE   H3X16559   6.753   5.769   6.940 -0.4289 -0.4361 -0.0790
  150SAPE   H3Y16560   6.646   5.894   6.887 -2.4594 -0.4560 -0.9292
  150SAPE   C3416561   6.649   5.724   6.759  0.6034  0.1089 -0.0232
  150SAPE   H4X16562   6.693   5.622   6.773  0.4578  0.3367  2.6155
  150SAPE   H4Y16563   6.714   5.789   6.696 -0.0832 -0.2953 -1.1777
  150SAPE   C3516564   6.503   5.708   6.701 -0.1622 -0.5387 -0.3119
  150SAPE   H5X16565   6.432   5.793   6.700  1.2667  0.7364  1.2068
  150SAPE   H5Y16566   6.460   5.632   6.769 -1.9898 -0.0754 -0.9146
  150SAPE   C3616567   6.519   5.655   6.562  0.0347 -0.0810 -0.2481
  150SAPE   H6X16568   6.423   5.608   6.531  0.5927 -2.6535  1.6191
  150SAPE   H6Y16569   6.597   5.577   6.576 -1.6051 -1.7316  0.1573
  150SAPE   C3716570   6.563   5.753   6.450 -0.2116  0.0958 -0.5576
  150SAPE   H7X16571   6.668   5.784   6.470  0.5752 -2.1920 -0.8449
  150SAPE   H7Y16572   6.494   5.840   6.458 -0.3100  0.0171 -0.5436
  150SAPE   C3816573   6.552   5.690   6.317  0.1396 -0.2983  1.0647
  150SAPE   H8X16574   6.455   5.706   6.266  0.1031 -1.1753  0.8373
  150SAPE   H8Y16575   6.581   5.582   6.321  0.2997 -0.2227  2.3620
  150SAPE   C3916576   6.657   5.763   6.228  1.1116 -0.8681  0.4255
  150SAPE   H9X16577   6.755   5.734   6.271  1.0326 -0.4526  0.8827
  150SAPE   H9Y16578   6.630   5.871   6.228  1.8082 -0.6896  0.7739
  150SAPE  C31016579   6.636   5.710   6.082  1.1354  0.7984 -0.7092
  150SAPE  H10X16580   6.526   5.712   6.066  0.7387  2.0265  1.6416
  150SAPE  H10Y16581   6.668   5.604   6.082  1.6565  0.8112  3.3459
  150SAPE  C31116582   6.703   5.795   5.986 -0.3427  0.7054  0.9187
  150SAPE  H11X16583   6.813   5.785   5.991 -0.3512 -0.9011 -0.9039
  150SAPE  H11Y16584   6.676   5.902   5.997 -2.0015  0.6634 -1.7664
  150SAPE  C31216585   6.668   5.746   5.843 -0.3424  0.0886  0.7500
  150SAPE  H12X16586   6.557   5.753   5.832 -0.1687  0.2683 -1.3442
  150SAPE  H12Y16587   6.709   5.643   5.844 -2.4772 -0.8402  2.7327
  150SAPE  C31316588   6.746   5.836   5.747 -0.0085 -0.2912  0.2174
  150SAPE  H13X16589   6.850   5.815   5.779 -0.3867  1.6789  3.1232
  150SAPE  H13Y16590   6.730   5.945   5.758 -0.9124 -0.2939 -0.9125
  150SAPE  C31416591   6.738   5.797   5.601  0.0173 -0.3629 -0.2647
  150SAPE  H14X16592   6.786   5.697   5.596 -1.6175 -1.1400 -2.3859
  150SAPE  H14Y16593   6.802   5.855   5.532  2.4950 -0.0679  2.1430
  150SAPE  C31516594   6.592   5.796   5.543  0.3881 -0.1912  0.6026
  150SAPE  H15X16595   6.522   5.734   5.603 -0.6834 -1.8675 -2.1460
  150SAPE  H15Y16596   6.597   5.741   5.446 -2.0323 -0.6527  0.6845
  150SAPE  C31616597   6.534   5.933   5.521 -0.9218  0.0960 -0.3649
  150SAPE  H16X16598   6.620   5.979   5.466  0.1044  0.4271  1.4567
  150SAPE  H16Y16599   6.524   5.993   5.614 -1.0127 -0.7233  0.1565
  150SAPE  C31716600   6.405   5.926   5.448 -0.1636 -0.2363 -0.0335
  150SAPE  H17X16601   6.326   5.873   5.506 -1.7989  1.0576 -1.0023
  150SAPE  H17Y16602   6.414   5.882   5.347 -3.1607 -0.8032 -0.1317
  150SAPE  C31816603   6.352   6.077   5.426  0.3224  0.0875 -0.4156
  150SAPE  H18X16604   6.255   6.059   5.374 -0.1238  1.0064  0.0738
  150SAPE  H18Y16605   6.420   6.133   5.358  0.5281 -0.2112 -0.4524
  150SAPE  H18Z16606   6.332   6.144   5.512  0.3420 -0.1091 -0.2595
  151SAPE     N16607   5.831   2.639   7.481  0.1154 -0.7469 -0.1337
  151SAPE   HN116608   5.743   2.681   7.518  0.3878 -0.0993 -0.2098
  151SAPE   HN216609   5.836   2.540   7.511 -1.1327 -1.3738 -1.8193
  151SAPE   HN316610   5.905   2.690   7.534 -0.5938 -0.6741  0.8060
  151SAPE   C1216611   5.849   2.645   7.331 -0.0202 -0.4494 -0.6157
  151SAPE  H12A16612   5.956   2.632   7.306  0.7867  1.0223  1.8126
  151SAPE  H12B16613   5.819   2.745   7.293 -2.1648 -0.7892  0.0456
  151SAPE   C1116614   5.756   2.549   7.254  0.6493  0.1750  0.1480
  151SAPE  H11A16615   5.787   2.553   7.148  0.6047 -3.1531 -0.0871
  151SAPE  H11B16616   5.648   2.573   7.268  0.9034  1.8711 -0.5422
  151SAPE     P16617   5.701   2.290   7.234  0.2548 -0.3007  0.0629
  151SAPE   O1316618   5.736   2.165   7.311 -0.9141 -0.0100 -0.0265
  151SAPE   O1416619   5.556   2.326   7.246  0.2729 -0.3848  0.3266
  151SAPE   O1216620   5.780   2.414   7.294 -0.0656  0.2654 -0.1359
  151SAPE   O1116621   5.751   2.274   7.087  0.5363 -0.2320  0.2438
  151SAPE    C116622   5.653   2.264   6.982  0.4724  0.1795 -0.8344
  151SAPE    HA16623   5.558   2.318   7.007 -0.8583 -2.8350  1.2134
  151SAPE    HB16624   5.703   2.298   6.888  3.4411  3.6167  1.7015
  151SAPE    C216625   5.608   2.113   6.955  0.8438 -1.1904  0.2512
  151SAPE    HS16626   5.551   2.079   7.044  0.8707 -0.0458  0.7144
  151SAPE   O2116627   5.721   2.026   6.945  0.1686 -0.8810  0.8529
  151SAPE   C2116628   5.693   1.904   6.919 -0.4028  0.9691  0.0853
  151SAPE   O2216629   5.581   1.848   6.933 -0.3235 -0.1918  0.4077
  151SAPE   C2216630   5.824   1.842   6.862  0.7569 -0.0354 -0.0499
  151SAPE   H2R16631   5.905   1.895   6.916 -1.3956  1.9281  1.4800
  151SAPE   H2S16632   5.833   1.736   6.892  1.6282  0.1915  0.5239
  151SAPE    C316633   5.509   2.122   6.829  0.4768 -0.8679 -0.0480
  151SAPE    HX16634   5.442   2.211   6.834  0.0653 -1.1446 -0.6055
  151SAPE    HY16635   5.446   2.032   6.843 -1.0090  0.1594  0.2172
  151SAPE   O3116636   5.577   2.130   6.704  0.3003 -0.2525  0.3151
  151SAPE   C3116637   5.508   2.153   6.588 -0.9315 -0.3458  0.0682
  151SAPE   O3216638   5.390   2.149   6.584  0.9822  0.5346 -0.1445
  151SAPE   C3216639   5.609   2.169   6.478  0.3196 -0.3044  0.8158
  151SAPE   H2X16640   5.658   2.072   6.455 -0.1733  0.1580 -2.7384
  151SAPE   H2Y16641   5.687   2.244   6.504  1.7357 -1.1866 -0.6816
  151SAPE   C2316642   5.832   1.872   6.712 -0.0804 -0.2113  0.8998
  151SAPE   H3R16643   5.937   1.878   6.677 -0.8226  1.8346 -1.2967
  151SAPE   H3S16644   5.783   1.970   6.691  0.2008 -0.4736 -1.1907
  151SAPE   C2416645   5.774   1.756   6.637  0.2666 -0.3662  1.0252
  151SAPE   H4R16646   5.677   1.730   6.684  0.1117 -1.7424 -0.0088
  151SAPE   H4S16647   5.837   1.668   6.661  1.9642  1.0303  1.9980
  151SAPE   C2516648   5.765   1.788   6.491  1.2712  0.0160 -0.1876
  151SAPE   H5R16649   5.857   1.828   6.445  2.5099 -2.6498 -0.2182
  151SAPE   C2616650   5.647   1.790   6.422 -0.3127 -0.5953 -0.5695
  151SAPE   H6R16651   5.638   1.823   6.317  0.5350  2.2818  0.1446
  151SAPE   C2716652   5.515   1.765   6.492 -0.1006  0.6152  0.5735
  151SAPE   H7R16653   5.500   1.830   6.581 -0.3601  2.7942 -0.9948
  151SAPE   H7S16654   5.508   1.657   6.515 -0.4976 -1.0498 -5.5455
  151SAPE   C2816655   5.398   1.782   6.395  0.2668  0.3172  0.7308
  151SAPE   H8R16656   5.319   1.847   6.436 -1.7707 -0.2374 -2.0134
  151SAPE   C2916657   5.364   1.730   6.273 -0.8696 -0.7121 -0.1511
  151SAPE   H9R16658   5.262   1.754   6.239 -0.8577 -1.1412 -0.4842
  151SAPE  C21016659   5.453   1.644   6.178  0.6355  0.1370  0.1655
  151SAPE  H10R16660   5.428   1.537   6.194  0.3478  0.2610  0.5668
  151SAPE  H10S16661   5.561   1.638   6.203  0.7644  0.7320 -0.2272
  151SAPE  C21116662   5.425   1.666   6.030 -0.0525  0.2174 -0.2277
  151SAPE  H11R16663   5.320   1.643   6.010 -0.1077  0.8982 -0.7504
  151SAPE  C21216664   5.499   1.712   5.931  0.2313 -0.5494  0.6145
  151SAPE  H12R16665   5.454   1.717   5.830 -2.5798  2.0732  1.8406
  151SAPE  C21316666   5.643   1.756   5.953  0.7341 -0.1687  0.1743
  151SAPE  H13R16667   5.721   1.693   5.906  0.6353  0.6106 -1.0654
  151SAPE  H13S16668   5.669   1.759   6.061  1.0758  2.1468  0.0728
  151SAPE  C21416669   5.680   1.893   5.902  0.3848  0.1546 -0.5642
  151SAPE  H14R16670   5.694   1.964   5.986  1.7118 -0.8352  0.0885
  151SAPE  C21516671   5.694   1.944   5.778  0.7802  1.1071  0.0152
  151SAPE  H15R16672   5.710   2.052   5.783  0.2615  1.1505  1.3058
  151SAPE  C21616673   5.683   1.869   5.646 -0.2673  0.1346 -0.2279
  151SAPE  H16R16674   5.583   1.898   5.610 -0.7200 -2.8913 -1.6830
  151SAPE  H16S16675   5.682   1.760   5.664  0.5803  0.4276  1.9827
  151SAPE  C21716676   5.792   1.913   5.554 -0.0913  0.7949  0.8413
  151SAPE  H17R16677   5.778   1.860   5.458 -0.2391 -0.3972  1.5103
  151SAPE  H17S16678   5.885   1.866   5.593  0.2563  1.6887  1.1412
  151SAPE  C21816679   5.797   2.063   5.519 -0.1457  0.2407  0.3165
  151SAPE  H18R16680   5.836   2.115   5.609  0.6446  0.3847 -0.0981
  151SAPE  H18S16681   5.695   2.104   5.505 -0.9425 -1.6418  0.3575
  151SAPE  C21916682   5.889   2.089   5.401 -0.2247 -0.4269  0.3272
  151SAPE  H19R16683   5.829   2.052   5.314 -2.6997  2.9330  0.4243
  151SAPE  H19S16684   5.984   2.037   5.423  0.8958  0.3861 -2.1805
  151SAPE  C22016685   5.911   2.239   5.380  0.0575 -0.0764 -0.4557
  151SAPE  H20R16686   5.955   2.259   5.280  0.3701 -1.8628 -0.7106
  151SAPE  H20S16687   5.993   2.271   5.449  0.8337 -0.7627 -1.0366
  151SAPE  H20T16688   5.822   2.305   5.378  1.0394  1.2794 -1.6957
  151SAPE   C3316689   5.554   2.224   6.346 -0.1688 -0.2137 -0.2690
  151SAPE   H3X16690   5.632   2.229   6.268 -1.0928 -0.2995 -1.2192
  151SAPE   H3Y16691   5.502   2.321   6.354 -0.0941  0.1278 -3.0210
  151SAPE   C3416692   5.444   2.136   6.279 -0.2923 -0.4602 -0.6297
  151SAPE   H4X16693   5.345   2.149   6.327  0.3960 -0.8959  0.9900
  151SAPE   H4Y16694   5.461   2.029   6.302  0.5470 -0.0355  0.9685
  151SAPE   C3516695   5.431   2.163   6.133 -0.5255  0.2450  0.5852
  151SAPE   H5X16696   5.526   2.158   6.075 -0.9320 -0.0922 -0.0721
  151SAPE   H5Y16697   5.374   2.259   6.129 -0.0038  0.6017  1.3878
  151SAPE   C3616698   5.354   2.039   6.060  0.5441 -0.1687  0.1338
  151SAPE   H6X16699   5.264   2.019   6.122 -0.3018 -0.5720 -1.1739
  151SAPE   H6Y16700   5.418   1.950   6.044  0.3608 -0.4587  0.9797
  151SAPE   C3716701   5.307   2.096   5.923 -0.5278 -0.3505 -0.0623
  151SAPE   H7X16702   5.396   2.119   5.860  0.2474 -2.0685  0.3328
  151SAPE   H7Y16703   5.251   2.191   5.921 -0.2461 -0.1196  1.5624
  151SAPE   C3816704   5.240   1.983   5.847 -0.1197  0.2557 -0.3561
  151SAPE   H8X16705   5.151   1.975   5.912  0.7091  1.2456  0.9657
  151SAPE   H8Y16706   5.301   1.890   5.849  1.5521  1.3130  0.4995
  151SAPE   C3916707   5.198   2.005   5.700 -0.7742  0.3994  0.4228
  151SAPE   H9X16708   5.149   1.915   5.657  2.7310 -1.7571  0.5608
  151SAPE   H9Y16709   5.291   2.014   5.641 -1.0934  1.8641  0.1124
  151SAPE  C31016710   5.115   2.127   5.679  0.2482 -0.2636 -0.8905
  151SAPE  H10X16711   5.181   2.216   5.685  0.3321 -0.4318  1.6449
  151SAPE  H10Y16712   5.049   2.142   5.767 -0.8832 -2.7980 -1.2306
  151SAPE  C31116713   5.048   2.128   5.543  0.7209  0.1213  0.2553
  151SAPE  H11X16714   4.961   2.063   5.518  0.6943  0.3822 -0.3455
  151SAPE  H11Y16715   5.127   2.101   5.469  0.9891 -0.6597  0.8171
  151SAPE  C31216716   4.981   2.266   5.515 -1.0396  1.1200  0.3606
  151SAPE  H12X16717   5.062   2.341   5.512 -0.6555  0.6749 -1.7384
  151SAPE  H12Y16718   4.907   2.284   5.597  0.2398  0.3103  1.7505
  151SAPE  C31316719   4.898   2.260   5.382 -0.0175 -0.5174 -0.7295
  151SAPE  H13X16720   4.834   2.169   5.376 -3.0962  1.4279  0.1525
  151SAPE  H13Y16721   4.960   2.265   5.290 -2.1857  3.1395 -2.2229
  151SAPE  C31416722   4.791   2.365   5.371 -0.4011  0.1321 -0.1478
  151SAPE  H14X16723   4.717   2.341   5.450  2.1924 -1.0085  2.1036
  151SAPE  H14Y16724   4.747   2.343   5.272  0.4292 -0.5665 -0.3690
  151SAPE  C31516725   4.837   2.506   5.385  0.3114 -0.2886  0.0288
  151SAPE  H15X16726   4.933   2.518   5.330  0.2764  0.6651  0.1651
  151SAPE  H15Y16727   4.867   2.532   5.489 -1.8839  0.9738  0.4094
  151SAPE  C31616728   4.742   2.620   5.349 -0.1737  0.5428 -0.2597
  151SAPE  H16X16729   4.787   2.714   5.388  1.9939 -1.5555  2.7836
  151SAPE  H16Y16730   4.647   2.605   5.405 -0.5713  0.2771 -0.9838
  151SAPE  C31716731   4.712   2.623   5.196 -0.0606 -0.1180  0.6428
  151SAPE  H17X16732   4.624   2.686   5.170  1.3392  0.6496 -2.7912
  151SAPE  H17Y16733   4.687   2.516   5.183 -1.1394  0.0488  1.2038
  151SAPE  C31816734   4.828   2.660   5.098  0.2093 -0.1761  0.7834
  151SAPE  H18X16735   4.904   2.583   5.123 -1.1078 -1.8187  0.0280
  151SAPE  H18Y16736   4.855   2.765   5.121  0.6024 -0.2885  0.8360
  151SAPE  H18Z16737   4.793   2.662   4.992 -0.7732  0.5379  1.1069
  152SAPE     N16738   6.395   3.547   7.290  0.5178  0.3221  0.4394
  152SAPE   HN116739   6.385   3.606   7.375 -0.1932 -1.1403  1.4104
  152SAPE   HN216740   6.316   3.480   7.300  0.1507  0.5422 -0.8025
  152SAPE   HN316741   6.476   3.481   7.282 -1.6748 -2.4050 -0.9522
  152SAPE   C1216742   6.384   3.627   7.164 -0.1623  0.1145 -0.4083
  152SAPE  H12A16743   6.473   3.692   7.157  1.0737 -1.1846  1.8850
  152SAPE  H12B16744   6.292   3.690   7.174 -0.7785 -0.7622 -0.4222
  152SAPE   C1116745   6.391   3.540   7.038 -0.4685 -0.4057 -0.9544
  152SAPE  H11A16746   6.399   3.617   6.959 -0.3577  2.4791  1.6952
  152SAPE  H11B16747   6.292   3.494   7.016 -1.3908  0.7422  0.5973
  152SAPE     P16748   6.653   3.487   7.043 -0.2153  0.0450 -0.0107
  152SAPE   O1316749   6.682   3.557   7.166 -0.3280  0.3660 -0.6951
  152SAPE   O1416750   6.741   3.372   7.017 -0.1350  0.1226  0.5073
  152SAPE   O1216751   6.500   3.446   7.037 -0.4766  0.1262  0.0487
  152SAPE   O1116752   6.653   3.592   6.920 -0.4865 -0.3222 -0.1024
  152SAPE    C116753   6.637   3.547   6.786  0.3432  1.1403  0.8686
  152SAPE    HA16754   6.720   3.482   6.750 -0.5918  0.1293  0.4751
  152SAPE    HB16755   6.548   3.481   6.777  2.6986 -2.0584 -1.3349
  152SAPE    C216756   6.629   3.665   6.691  0.5263  0.7151 -0.4838
  152SAPE    HS16757   6.539   3.726   6.712 -0.6506 -1.3481  0.8437
  152SAPE   O2116758   6.619   3.606   6.553 -0.3585 -0.1098  0.0992
  152SAPE   C2116759   6.495   3.565   6.523 -0.5069  0.1189  0.6274
  152SAPE   O2216760   6.393   3.587   6.587 -0.2323 -0.1166 -0.4784
  152SAPE   C2216761   6.493   3.506   6.383  0.1068 -0.3149  0.9970
  152SAPE   H2R16762   6.595   3.491   6.343 -0.1692 -1.6365  0.7486
  152SAPE   H2S16763   6.438   3.409   6.388 -0.0298 -0.3269 -0.2697
  152SAPE    C316764   6.764   3.745   6.704 -0.7962  0.0291  0.1223
  152SAPE    HX16765   6.845   3.669   6.702 -0.2276  0.6419 -0.5027
  152SAPE    HY16766   6.787   3.799   6.799 -0.4924  2.2011 -1.1283
  152SAPE   O3116767   6.774   3.833   6.590  0.1087  0.2503 -0.2340
  152SAPE   C3116768   6.694   3.941   6.614  0.1804 -0.0112  0.2064
  152SAPE   O3216769   6.620   3.957   6.709  0.0295  0.3883 -0.4993
  152SAPE   C3216770   6.683   4.028   6.489  0.4407  0.3116  0.0772
  152SAPE   H2X16771   6.736   4.125   6.502  0.3989  0.6734 -2.0305
  152SAPE   H2Y16772   6.573   4.042   6.486  0.0674 -2.2249 -0.7771
  152SAPE   C2316773   6.407   3.583   6.288 -0.3362  0.5044  0.2261
  152SAPE   H3R16774   6.448   3.686   6.277 -0.5003  1.3880  5.2674
  152SAPE   H3S16775   6.308   3.601   6.337 -0.4093 -0.8053  0.5984
  152SAPE   C2416776   6.388   3.515   6.158  1.1060  0.2650 -0.2218
  152SAPE   H4R16777   6.314   3.578   6.104 -1.0745 -1.5294  0.5183
  152SAPE   H4S16778   6.332   3.423   6.181 -1.1254  1.1548 -1.7280
  152SAPE   C2516779   6.508   3.489   6.069 -0.4658  0.1904  0.7418
  152SAPE   H5R16780   6.580   3.571   6.060  0.7278 -0.6903  1.7861
  152SAPE   C2616781   6.532   3.379   5.994  0.3600 -0.1040 -0.7206
  152SAPE   H6R16782   6.627   3.376   5.939  0.8058  0.8537 -0.0364
  152SAPE   C2716783   6.437   3.262   5.970  0.3245  0.8043  0.6069
  152SAPE   H7R16784   6.398   3.276   5.867 -1.7189 -1.7516  0.9316
  152SAPE   H7S16785   6.345   3.268   6.032 -0.7491 -2.0170 -0.5526
  152SAPE   C2816786   6.496   3.123   5.991  0.0388 -0.1193 -0.5610
  152SAPE   H8R16787   6.543   3.123   6.091  0.2275  1.5457 -0.6174
  152SAPE   C2916788   6.507   3.019   5.904 -0.1903  0.0084  0.0781
  152SAPE   H9R16789   6.569   2.932   5.932 -0.3760  0.1913  1.0710
  152SAPE  C21016790   6.463   3.025   5.761 -0.1148  0.4830  0.6222
  152SAPE  H10R16791   6.541   2.979   5.696 -1.6090  1.6657 -2.1642
  152SAPE  H10S16792   6.456   3.133   5.736  0.1659  1.3562  3.9704
  152SAPE  C21116793   6.329   2.956   5.740 -0.6594 -0.1263  0.4263
  152SAPE  H11R16794   6.280   2.916   5.830  0.3395 -1.4717  0.3927
  152SAPE  C21216795   6.266   2.938   5.617  0.4505  0.3594 -1.4229
  152SAPE  H12R16796   6.176   2.875   5.612  0.7762 -0.4455  1.5559
  152SAPE  C21316797   6.315   2.992   5.487 -0.4320  0.4932  0.1156
  152SAPE  H13R16798   6.411   3.047   5.498  0.3792 -0.2497 -2.3887
  152SAPE  H13S16799   6.249   3.078   5.461 -2.2222 -1.0030 -0.5008
  152SAPE  C21416800   6.337   2.884   5.393  0.2118 -0.6337 -0.4259
  152SAPE  H14R16801   6.381   2.793   5.437 -0.3920  0.1558  1.9783
  152SAPE  C21516802   6.307   2.881   5.265  0.1923  0.0095 -0.0631
  152SAPE  H15R16803   6.318   2.784   5.213 -1.4011 -0.8798  1.1709
  152SAPE  C21616804   6.230   2.985   5.185 -0.4185 -0.1239  1.1345
  152SAPE  H16R16805   6.225   3.079   5.244 -1.8103 -0.3221  1.3450
  152SAPE  H16S16806   6.129   2.941   5.176 -1.1307  1.4147  1.3660
  152SAPE  C21716807   6.293   3.024   5.046 -0.0783  0.6194  0.3943
  152SAPE  H17R16808   6.396   3.055   5.073 -0.2121 -0.7873  2.7583
  152SAPE  H17S16809   6.228   3.105   5.006 -0.7183 -1.2446 -2.6464
  152SAPE  C21816810   6.315   2.919   4.937 -0.7011 -0.2193  0.3883
  152SAPE  H18R16811   6.218   2.869   4.915 -1.5569  0.6786  1.9838
  152SAPE  H18S16812   6.369   2.834   4.983  1.3382 -0.4532 -2.1871
  152SAPE  C21916813   6.397   2.973   4.813 -0.3482  0.1191  0.4327
  152SAPE  H19R16814   6.498   2.996   4.852 -0.7514  1.1537  0.9068
  152SAPE  H19S16815   6.354   3.068   4.774 -1.1512 -0.5963 -0.4718
  152SAPE  C22016816   6.409   2.877   4.696 -0.3569 -0.0911 -1.0494
  152SAPE  H20R16817   6.472   2.921   4.616  1.7489 -1.2377 -0.1197
  152SAPE  H20S16818   6.311   2.836   4.664 -0.8297 -0.1473  0.4101
  152SAPE  H20T16819   6.471   2.793   4.733 -1.5210 -0.7716 -0.5908
  152SAPE   C3316820   6.721   3.961   6.355 -0.1569 -0.3978  0.3915
  152SAPE   H3X16821   6.667   3.866   6.338  1.3426 -0.8533 -2.3843
  152SAPE   H3Y16822   6.829   3.937   6.353 -0.3266 -1.7001 -4.3252
  152SAPE   C3416823   6.694   4.049   6.242  0.5091  0.0753  0.1234
  152SAPE   H4X16824   6.731   3.996   6.151  0.4577 -1.5947  1.0478
  152SAPE   H4Y16825   6.763   4.136   6.243  3.0989 -1.8754  1.0256
  152SAPE   C3516826   6.562   4.115   6.237  0.0070 -0.2864  0.1361
  152SAPE   H5X16827   6.550   4.175   6.144 -1.4085 -3.4808 -1.9007
  152SAPE   H5Y16828   6.560   4.183   6.325  0.5557  0.8123 -0.6747
  152SAPE   C3616829   6.450   4.010   6.228  0.4471 -0.4924 -0.8654
  152SAPE   H6X16830   6.454   3.926   6.300 -0.6183  0.9204  0.9101
  152SAPE   H6Y16831   6.459   3.952   6.133  1.7911  0.8452 -1.5994
  152SAPE   C3716832   6.306   4.071   6.241  0.0314  0.3273 -0.5587
  152SAPE   H7X16833   6.305   4.178   6.213 -4.0527  0.5642 -0.1092
  152SAPE   H7Y16834   6.270   4.070   6.346 -0.6872 -0.1570 -0.8025
  152SAPE   C3816835   6.219   3.997   6.145 -0.1069  0.3351  0.7230
  152SAPE   H8X16836   6.241   3.888   6.140  0.6835  0.5162 -0.0331
  152SAPE   H8Y16837   6.234   4.044   6.045 -0.5730 -2.5553 -0.8081
  152SAPE   C3916838   6.071   4.006   6.184 -0.3971 -0.7273  0.2865
  152SAPE   H9X16839   6.074   4.000   6.295  2.5259  4.1054  0.7775
  152SAPE   H9Y16840   6.006   3.931   6.134  1.0059  0.2568 -3.3379
  152SAPE  C31016841   6.002   4.140   6.150  0.1021 -0.1960 -0.1456
  152SAPE  H10X16842   6.052   4.214   6.216  3.1421 -2.0647 -0.1508
  152SAPE  H10Y16843   5.895   4.127   6.177 -0.9145  0.7293 -3.3220
  152SAPE  C31116844   5.998   4.178   5.999 -0.5502 -0.1855  0.5330
  152SAPE  H11X16845   5.948   4.104   5.932  0.7139 -1.4085  0.8933
  152SAPE  H11Y16846   6.102   4.190   5.963  0.2603 -2.5415  1.8572
  152SAPE  C31216847   5.926   4.309   5.974  0.1719 -0.1063 -0.1753
  152SAPE  H12X16848   5.978   4.386   6.036 -1.5426  0.7358  0.2959
  152SAPE  H12Y16849   5.824   4.300   6.016  0.7832  0.2309  1.4956
  152SAPE  C31316850   5.929   4.361   5.823 -0.2055  0.5923 -0.5083
  152SAPE  H13X16851   6.037   4.362   5.799 -0.4743 -2.0958 -2.1531
  152SAPE  H13Y16852   5.888   4.465   5.819 -0.6693  0.7105  3.1614
  152SAPE  C31416853   5.866   4.255   5.732 -0.2108 -0.3295 -0.1046
  152SAPE  H14X16854   5.756   4.255   5.748 -0.0903  0.0391  0.8238
  152SAPE  H14Y16855   5.897   4.150   5.747 -1.7683 -0.7996  0.0370
  152SAPE  C31516856   5.915   4.280   5.585  0.3450  0.2581  0.1659
  152SAPE  H15X16857   6.026   4.272   5.589  0.6934  2.3667 -2.3286
  152SAPE  H15Y16858   5.893   4.386   5.557 -0.1335  0.8412  2.5010
  152SAPE  C31616859   5.844   4.191   5.478  0.1797 -0.4837 -0.2841
  152SAPE  H16X16860   5.846   4.082   5.501 -2.0872 -0.6164 -0.5337
  152SAPE  H16Y16861   5.892   4.201   5.378 -1.2330 -0.3687 -0.9661
  152SAPE  C31716862   5.704   4.236   5.443  0.8313  0.0020 -0.2331
  152SAPE  H17X16863   5.711   4.344   5.417  2.0267  0.1894  0.7799
  152SAPE  H17Y16864   5.639   4.231   5.534  1.6058  0.1349  0.3420
  152SAPE  C31816865   5.638   4.142   5.343 -0.5186 -0.9496 -0.0002
  152SAPE  H18X16866   5.697   4.127   5.250 -1.6762 -1.8525 -0.6130
  152SAPE  H18Y16867   5.538   4.185   5.322 -0.2261  0.5415  1.4165
  152SAPE  H18Z16868   5.613   4.046   5.394  2.3312 -0.6569  2.2195
  153SAPE     N16869   0.336   4.793   7.422  0.6033  0.0884 -0.8268
  153SAPE   HN116870   0.339   4.854   7.338  0.0585  0.7266 -0.3959
  153SAPE   HN216871   0.250   4.736   7.411  0.0094  0.4348  1.5116
  153SAPE   HN316872   0.317   4.852   7.506  0.1715  0.2656 -1.0410
  153SAPE   C1216873   0.461   4.717   7.438 -0.1502 -0.0947 -0.3943
  153SAPE  H12A16874   0.459   4.679   7.543  0.1965 -3.4236 -1.4815
  153SAPE  H12B16875   0.538   4.796   7.440 -1.9882  1.7533  0.1818
  153SAPE   C1116876   0.484   4.611   7.333  0.0823 -0.2320  0.0182
  153SAPE  H11A16877   0.401   4.538   7.337 -0.1276 -0.1055 -1.4778
  153SAPE  H11B16878   0.571   4.551   7.367 -0.3144  0.0371  1.5787
  153SAPE     P16879   0.611   4.746   7.145  0.4818 -0.2649 -0.3396
  153SAPE   O1316880   0.566   4.884   7.122 -0.0932  0.0195 -0.3321
  153SAPE   O1416881   0.724   4.727   7.235  0.2038  0.7836 -0.4024
  153SAPE   O1216882   0.491   4.675   7.208  0.3213 -0.0910  0.2008
  153SAPE   O1116883   0.637   4.676   7.001  0.0989 -0.4599  0.2509
  153SAPE    C116884   0.571   4.553   6.967 -0.0207 -0.0956  0.3184
  153SAPE    HA16885   0.466   4.549   7.003 -0.3882  1.4358 -0.4949
  153SAPE    HB16886   0.572   4.546   6.856 -0.2495 -0.1626  0.3196
  153SAPE    C216887   0.652   4.426   7.024 -0.2124  0.0908 -0.4522
  153SAPE    HS16888   0.659   4.432   7.135  0.1804 -1.5573 -0.3511
  153SAPE   O2116889   0.789   4.429   6.983 -0.4085 -0.1496 -0.0003
  153SAPE   C2116890   0.872   4.343   7.049  0.3018 -0.0026  0.2876
  153SAPE   O2216891   0.833   4.255   7.127 -0.2136  0.1421  0.5645
  153SAPE   C2216892   1.010   4.357   6.993  0.4551 -0.3911 -0.0327
  153SAPE   H2R16893   1.021   4.454   6.941 -2.0621 -0.4250 -0.7784
  153SAPE   H2S16894   1.071   4.344   7.084  0.5524  0.8040  0.0786
  153SAPE    C316895   0.571   4.298   6.996  0.2526  0.2330 -0.3558
  153SAPE    HX16896   0.467   4.318   7.029  0.1217 -1.8454  0.6654
  153SAPE    HY16897   0.620   4.211   7.045  4.0759  1.1302 -2.2457
  153SAPE   O3116898   0.548   4.283   6.854  0.0847 -0.3046  0.5102
  153SAPE   C3116899   0.614   4.184   6.785  0.0240 -0.4267  0.1579
  153SAPE   O3216900   0.701   4.106   6.827  0.1801 -0.7211  0.3794
  153SAPE   C3216901   0.577   4.186   6.633 -0.4350  0.7005 -0.1905
  153SAPE   H2X16902   0.552   4.287   6.594 -1.7778 -0.0367 -1.2956
  153SAPE   H2Y16903   0.477   4.142   6.614 -1.2039  2.1717  0.2789
  153SAPE   C2316904   1.052   4.244   6.898  0.0611  0.8258 -0.4302
  153SAPE   H3R16905   1.024   4.143   6.934  0.5228  1.2261  1.1153
  153SAPE   H3S16906   1.163   4.242   6.889  0.0934  2.0843 -0.6136
  153SAPE   C2416907   1.002   4.263   6.753  0.1890 -0.2914  0.3602
  153SAPE   H4R16908   1.035   4.361   6.714  1.2118 -1.2701 -1.3752
  153SAPE   H4S16909   0.892   4.272   6.761  0.1741 -0.4583  0.3550
  153SAPE   C2516910   1.054   4.166   6.650 -0.2150 -0.4720  0.0235
  153SAPE   H5R16911   0.992   4.076   6.645 -0.6283 -0.2994  1.6071
  153SAPE   C2616912   1.148   4.195   6.559 -0.6085 -0.5692  0.8245
  153SAPE   H6R16913   1.185   4.119   6.488 -0.6461  0.8537 -0.7702
  153SAPE   C2716914   1.230   4.323   6.545 -0.2303 -0.9167  0.7423
  153SAPE   H7R16915   1.163   4.411   6.550  0.3750 -0.3800 -0.2237
  153SAPE   H7S16916   1.284   4.333   6.448  2.4696 -3.2971  1.8616
  153SAPE   C2816917   1.340   4.337   6.651  0.7317  0.0696 -0.0762
  153SAPE   H8R16918   1.391   4.243   6.676  0.5101  0.1445  0.6801
  153SAPE   C2916919   1.363   4.453   6.721  0.7648 -0.8471 -0.1883
  153SAPE   H9R16920   1.462   4.446   6.770  2.6799  1.0102 -3.4410
  153SAPE  C21016921   1.283   4.581   6.719  0.2281  0.0884  0.4297
  153SAPE  H10R16922   1.185   4.546   6.759 -0.3673  1.4889  0.2679
  153SAPE  H10S16923   1.262   4.620   6.617  1.2022  1.7245  0.8101
  153SAPE  C21116924   1.355   4.690   6.797 -0.1787 -0.2162 -0.4978
  153SAPE  H11R16925   1.429   4.661   6.873 -1.2012 -0.7967  0.2941
  153SAPE  C21216926   1.345   4.823   6.777  0.0111 -0.1845  0.2931
  153SAPE  H12R16927   1.394   4.886   6.853 -0.7392  0.8544 -0.0586
  153SAPE  C21316928   1.255   4.897   6.676 -0.2303  0.3592  0.3259
  153SAPE  H13R16929   1.228   4.992   6.726  1.2969  1.5391 -1.0230
  153SAPE  H13S16930   1.158   4.846   6.656 -0.4875 -0.2369  2.7325
  153SAPE  C21416931   1.326   4.919   6.536  0.5247  0.8153 -0.4160
  153SAPE  H14R16932   1.355   4.829   6.478  0.8243  0.7339 -0.1364
  153SAPE  C21516933   1.342   5.034   6.483 -0.0033 -0.5080  0.5562
  153SAPE  H15R16934   1.398   5.029   6.389  0.0752  2.0408  0.4215
  153SAPE  C21616935   1.308   5.174   6.531  0.0916 -0.6252 -0.3024
  153SAPE  H16R16936   1.392   5.240   6.502 -0.0239 -0.0350  0.6593
  153SAPE  H16S16937   1.310   5.177   6.642 -0.4409  0.1623 -0.3049
  153SAPE  C21716938   1.181   5.226   6.465 -0.4264 -0.1728  0.2665
  153SAPE  H17R16939   1.173   5.330   6.503  0.1583 -0.6158  1.6737
  153SAPE  H17S16940   1.090   5.173   6.501 -1.2964  0.0742 -1.4505
  153SAPE  C21816941   1.190   5.242   6.308  0.6142  0.1222 -0.2853
  153SAPE  H18R16942   1.191   5.140   6.263  2.2755  0.5325 -1.2466
  153SAPE  H18S16943   1.277   5.307   6.288  0.3188  1.3426  2.1142
  153SAPE  C21916944   1.073   5.306   6.240 -0.2435  0.6984  0.7836
  153SAPE  H19R16945   1.090   5.320   6.131 -1.9692 -3.4030 -0.1892
  153SAPE  H19S16946   1.049   5.408   6.276  0.4935  1.8399 -1.6556
  153SAPE  C22016947   0.952   5.219   6.222 -0.4842  0.5038 -1.1990
  153SAPE  H20R16948   0.917   5.190   6.324 -0.5477 -0.9521 -1.6090
  153SAPE  H20S16949   0.981   5.123   6.175  1.4404  0.2702  0.3376
  153SAPE  H20T16950   0.865   5.271   6.176 -0.4256  1.8314  0.1227
  153SAPE   C3316951   0.685   4.119   6.536 -0.8520 -0.2545 -0.4412
  153SAPE   H3X16952   0.710   4.015   6.567  2.7096  0.4998 -0.3318
  153SAPE   H3Y16953   0.777   4.181   6.545  0.6374 -2.5435  1.2500
  153SAPE   C3416954   0.663   4.114   6.384 -0.3790  0.7340  0.0047
  153SAPE   H4X16955   0.761   4.077   6.349 -0.5685  0.2263  0.0095
  153SAPE   H4Y16956   0.659   4.218   6.344 -0.2038  0.0762 -1.8308
  153SAPE   C3516957   0.538   4.031   6.348 -0.2751 -0.6277  0.7667
  153SAPE   H5X16958   0.452   4.056   6.414 -1.2784  0.0996 -0.7831
  153SAPE   H5Y16959   0.574   3.927   6.361 -0.1279 -0.7900 -0.7612
  153SAPE   C3616960   0.495   4.058   6.204 -0.3053 -0.2777  0.5652
  153SAPE   H6X16961   0.473   4.165   6.182 -2.1670 -0.0251  3.1630
  153SAPE   H6Y16962   0.403   3.998   6.186 -0.4257 -0.3282  1.3271
  153SAPE   C3716963   0.597   4.020   6.095  0.2292  0.4235 -0.9775
  153SAPE   H7X16964   0.640   3.925   6.134 -1.4250 -0.1884 -0.5839
  153SAPE   H7Y16965   0.673   4.101   6.089 -0.6554  1.2173 -1.7324
  153SAPE   C3816966   0.529   4.002   5.967  0.4374  0.2183 -0.7217
  153SAPE   H8X16967   0.464   4.093   5.966 -0.3899 -0.3482  0.1094
  153SAPE   H8Y16968   0.467   3.911   5.958  1.6613 -0.6433 -0.6571
  153SAPE   C3916969   0.622   4.008   5.845  0.8559 -0.2107 -0.1423
  153SAPE   H9X16970   0.715   3.949   5.854  2.7215  2.6297  0.5983
  153SAPE   H9Y16971   0.653   4.114   5.833  2.7570 -0.7281 -0.0251
  153SAPE  C31016972   0.544   3.960   5.719  1.0115  0.3071 -0.3810
  153SAPE  H10X16973   0.452   4.021   5.714  0.1848 -0.6203  1.9976
  153SAPE  H10Y16974   0.512   3.854   5.733  0.5699  0.4009 -0.6714
  153SAPE  C31116975   0.625   3.983   5.600 -0.6049  1.1018  0.8154
  153SAPE  H11X16976   0.730   3.951   5.613 -0.2131  1.0328 -1.8105
  153SAPE  H11Y16977   0.642   4.090   5.575 -0.1428  0.6375 -0.9884
  153SAPE  C31216978   0.577   3.912   5.472 -0.0683 -0.2536  0.8777
  153SAPE  H12X16979   0.577   3.803   5.496 -2.0732 -0.9034 -1.5770
  153SAPE  H12Y16980   0.651   3.930   5.391 -0.5540 -3.0995 -0.3272
  153SAPE  C31316981   0.435   3.963   5.422  0.5926 -0.0200 -0.3552
  153SAPE  H13X16982   0.364   3.967   5.507  1.0341 -0.0341  0.0198
  153SAPE  H13Y16983   0.394   3.899   5.342  2.1953  1.8607 -2.8425
  153SAPE  C31416984   0.439   4.102   5.355  1.2827 -0.2214 -0.0082
  153SAPE  H14X16985   0.469   4.089   5.249  1.6676 -2.3662  0.3235
  153SAPE  H14Y16986   0.519   4.156   5.411  1.6224 -0.1188 -0.5816
  153SAPE  C31516987   0.296   4.171   5.362 -0.0389  0.1091 -0.1101
  153SAPE  H15X16988   0.220   4.092   5.344  0.5543 -0.1237 -1.8030
  153SAPE  H15Y16989   0.287   4.252   5.287  0.7239  1.8818  1.6036
  153SAPE  C31616990   0.276   4.246   5.495  0.1869 -0.0529 -0.5531
  153SAPE  H16X16991   0.311   4.352   5.497  1.4370 -0.4392 -0.5707
  153SAPE  H16Y16992   0.330   4.180   5.567 -1.8004  0.0917  1.1452
  153SAPE  C31716993   0.124   4.252   5.536 -0.5203  0.3138 -0.1368
  153SAPE  H17X16994   0.068   4.295   5.450 -0.1647  0.5563 -0.2492
  153SAPE  H17Y16995   0.109   4.322   5.621 -0.5406  0.8481 -0.5713
  153SAPE  C31816996   0.079   4.118   5.583 -0.0627  1.1611 -0.1450
  153SAPE  H18X16997   0.154   4.072   5.650  1.2449  1.5163 -1.3238
  153SAPE  H18Y16998   0.079   4.038   5.507  3.6507  0.8288  0.0283
  153SAPE  H18Z16999  -0.025   4.114   5.623 -0.0177  1.3084 -0.0088
  154SAPE     N17000   6.514   3.318   7.697  0.5592  0.4339 -0.3688
  154SAPE   HN117001   6.552   3.400   7.647 -0.1767  0.9775 -0.0498
  154SAPE   HN217002   6.565   3.305   7.787 -0.2498  0.0019  0.0438
  154SAPE   HN317003   6.528   3.238   7.632 -0.2454  1.5992 -2.0559
  154SAPE   C1217004   6.364   3.325   7.719  0.5036 -0.4136 -0.3818
  154SAPE  H12A17005   6.338   3.432   7.703 -0.4377 -0.6654 -0.5762
  154SAPE  H12B17006   6.347   3.303   7.827  2.3405 -0.2100 -0.0215
  154SAPE   C1117007   6.280   3.232   7.630  0.6355 -0.0998  0.1876
  154SAPE  H11A17008   6.178   3.227   7.674  0.7174 -2.0084  0.2472
  154SAPE  H11B17009   6.312   3.126   7.644  0.5514 -0.0947  0.4199
  154SAPE     P17010   6.190   3.250   7.393  0.4494 -0.3734 -0.0430
  154SAPE   O1317011   6.059   3.216   7.459 -0.9054 -0.1057  0.1767
  154SAPE   O1417012   6.192   3.366   7.306  0.5781 -0.0535 -0.1995
  154SAPE   O1217013   6.299   3.271   7.493 -0.2627  0.3812 -0.3534
  154SAPE   O1117014   6.246   3.123   7.324  0.6415 -0.1682  0.3725
  154SAPE    C117015   6.317   3.016   7.385  0.3967 -0.2385  0.7637
  154SAPE    HA17016   6.426   3.032   7.396  0.3696 -0.4187  1.3293
  154SAPE    HB17017   6.266   2.983   7.478  1.5669 -1.4458  1.0190
  154SAPE    C217018   6.306   2.888   7.284  0.1933  0.2119 -1.1550
  154SAPE    HS17019   6.379   2.816   7.327  0.2632  0.5074 -0.7635
  154SAPE   O2117020   6.333   2.910   7.146 -0.1474 -0.3237 -0.2997
  154SAPE   C2117021   6.451   2.976   7.116 -0.0357  0.2671  0.0029
  154SAPE   O2217022   6.546   2.986   7.189 -0.0767  0.1388 -0.3826
  154SAPE   C2217023   6.435   3.011   6.966 -0.5704  0.0910 -0.0174
  154SAPE   H2R17024   6.435   2.914   6.912  3.1818 -0.4230  0.6240
  154SAPE   H2S17025   6.350   3.081   6.947  0.6383  1.3849 -0.8519
  154SAPE    C317026   6.162   2.832   7.302  1.2960  0.5438  0.5160
  154SAPE    HX17027   6.090   2.916   7.291 -0.3869 -0.5324  2.5682
  154SAPE    HY17028   6.164   2.796   7.407  2.3833 -0.5585  0.1439
  154SAPE   O3117029   6.141   2.723   7.208 -0.1948 -0.6084 -0.3082
  154SAPE   C3117030   6.081   2.762   7.094 -0.2509 -0.7222 -0.9263
  154SAPE   O3217031   6.031   2.868   7.064 -0.0299  0.3526 -0.1336
  154SAPE   C3217032   6.101   2.650   6.983 -1.1315 -1.1121  0.5623
  154SAPE   H2X17033   6.003   2.598   6.978 -0.3471 -2.6068 -3.5916
  154SAPE   H2Y17034   6.177   2.576   7.018  2.5329  1.6518 -0.8760
  154SAPE   C2317035   6.563   3.086   6.921 -0.1580 -0.1241 -0.1471
  154SAPE   H3R17036   6.648   3.017   6.940 -0.6838 -0.4631  1.0158
  154SAPE   H3S17037   6.579   3.185   6.969  1.3441  1.6046 -3.8244
  154SAPE   C2417038   6.560   3.115   6.772  0.3538 -0.1823 -0.1889
  154SAPE   H4R17039   6.541   3.014   6.730 -0.4253 -1.1078  2.2366
  154SAPE   H4S17040   6.661   3.152   6.743  0.7927 -2.6497 -2.0902
  154SAPE   C2517041   6.463   3.219   6.717 -0.5900 -0.2563  0.0504
  154SAPE   H5R17042   6.432   3.299   6.787  2.1029  1.3960 -0.4996
  154SAPE   C2617043   6.402   3.223   6.597 -0.0423 -0.2548 -0.3777
  154SAPE   H6R17044   6.329   3.304   6.584 -0.0728 -0.4468 -1.4317
  154SAPE   C2717045   6.423   3.128   6.484 -0.4298  0.8957  0.7872
  154SAPE   H7R17046   6.529   3.097   6.475 -0.1099  2.0646  0.4224
  154SAPE   H7S17047   6.389   3.179   6.392  1.1183  1.1012  0.3086
  154SAPE   C2817048   6.339   3.002   6.496  0.6197  0.1152 -0.1834
  154SAPE   H8R17049   6.258   3.000   6.570  0.1571 -0.5504 -0.6849
  154SAPE   C2917050   6.329   2.919   6.388  0.9401 -0.1334  0.1238
  154SAPE   H9R17051   6.252   2.842   6.397 -0.7917  1.0114 -3.3017
  154SAPE  C21017052   6.394   2.915   6.250 -0.0642  0.2032  0.0521
  154SAPE  H10R17053   6.484   2.980   6.244  0.3321 -0.4347 -3.0219
  154SAPE  H10S17054   6.320   2.944   6.171  0.4718  0.1194 -0.4928
  154SAPE  C21117055   6.445   2.780   6.225 -0.0250 -0.0991 -0.0247
  154SAPE  H11R17056   6.537   2.757   6.280  0.5523 -1.8175 -1.6177
  154SAPE  C21217057   6.399   2.684   6.144  0.0037  0.0316 -0.6499
  154SAPE  H12R17058   6.457   2.591   6.149 -0.6134 -0.2793  1.6196
  154SAPE  C21317059   6.290   2.693   6.044  0.8813  0.3747 -0.2020
  154SAPE  H13R17060   6.333   2.715   5.944 -0.8904 -0.5235 -1.1996
  154SAPE  H13S17061   6.213   2.771   6.066  0.9416  0.4567 -0.2789
  154SAPE  C21417062   6.213   2.562   6.019  0.4628  0.3149 -0.0902
  154SAPE  H14R17063   6.201   2.495   6.105 -0.5362 -2.8035 -2.4591
  154SAPE  C21517064   6.174   2.507   5.905  0.1110 -0.3333 -0.0594
  154SAPE  H15R17065   6.110   2.418   5.915 -0.7818  0.5012  2.6778
  154SAPE  C21617066   6.182   2.572   5.770 -0.5618  0.0221 -0.0380
  154SAPE  H16R17067   6.266   2.533   5.708  0.2893  0.6131  0.7149
  154SAPE  H16S17068   6.207   2.680   5.775  0.3185 -0.0418 -2.0061
  154SAPE  C21717069   6.046   2.563   5.697 -0.5745 -0.2004  0.6731
  154SAPE  H17R17070   5.966   2.625   5.742 -2.5603 -1.8256 -0.4735
  154SAPE  H17S17071   6.004   2.461   5.708 -1.4956  0.0061 -0.6962
  154SAPE  C21817072   6.062   2.605   5.554 -0.1375 -0.6892  0.6919
  154SAPE  H18R17073   6.099   2.522   5.489  0.1674  1.4190 -2.0276
  154SAPE  H18S17074   6.138   2.685   5.537 -1.1723  0.8281  2.8103
  154SAPE  C21917075   5.933   2.652   5.494 -0.0695 -0.0406 -0.4879
  154SAPE  H19R17076   5.889   2.738   5.549  0.5203 -0.8818  1.3836
  154SAPE  H19S17077   5.852   2.576   5.499 -3.1227  2.9071 -1.1482
  154SAPE  C22017078   5.959   2.701   5.360  0.0930  0.3566  0.1280
  154SAPE  H20R17079   6.041   2.777   5.355 -2.1817  3.0768  1.5907
  154SAPE  H20S17080   5.866   2.752   5.328 -0.2139  0.8433  1.7133
  154SAPE  H20T17081   5.973   2.610   5.298  1.4036  0.6342 -0.0370
  154SAPE   C3317082   6.134   2.707   6.841  0.4804  0.0656  0.1814
  154SAPE   H3X17083   6.241   2.738   6.842  0.2868  0.9710 -2.0576
  154SAPE   H3Y17084   6.077   2.799   6.816  1.9213  0.5306 -1.6397
  154SAPE   C3417085   6.110   2.612   6.726  0.4525  0.6833 -0.2005
  154SAPE   H4X17086   6.004   2.579   6.739  0.1815  2.2717  2.3475
  154SAPE   H4Y17087   6.174   2.521   6.737  0.2850  0.3702 -1.6161
  154SAPE   C3517088   6.137   2.681   6.593 -0.2592  0.3267 -0.0605
  154SAPE   H5X17089   6.244   2.708   6.585  0.6667 -1.7899  3.1097
  154SAPE   H5Y17090   6.076   2.773   6.591 -0.0233  0.4942  0.5374
  154SAPE   C3617091   6.111   2.591   6.474  0.4364  0.5676  0.0803
  154SAPE   H6X17092   6.147   2.489   6.500  0.0489  0.5906  0.7171
  154SAPE   H6Y17093   6.176   2.627   6.392  0.9890  1.2870  0.8236
  154SAPE   C3717094   5.959   2.577   6.430  0.2835 -0.4998 -0.6567
  154SAPE   H7X17095   5.893   2.566   6.518  0.4704 -0.2825 -0.4849
  154SAPE   H7Y17096   5.946   2.484   6.370 -0.9560 -0.6894 -0.1127
  154SAPE   C3817097   5.923   2.697   6.353  0.3337  0.0125  0.1920
  154SAPE   H8X17098   5.992   2.710   6.267  0.2990 -3.3819 -0.4687
  154SAPE   H8Y17099   5.919   2.796   6.404  1.2919  0.2916 -0.2611
  154SAPE   C3917100   5.792   2.671   6.277  0.8958  0.7138 -0.9909
  154SAPE   H9X17101   5.772   2.770   6.232 -0.6016  1.9525  2.0992
  154SAPE   H9Y17102   5.705   2.652   6.344  0.4322  2.8242 -0.9262
  154SAPE  C31017103   5.798   2.559   6.172 -1.0735  1.0199  0.1341
  154SAPE  H10X17104   5.828   2.462   6.216 -2.3867 -0.0456 -1.1737
  154SAPE  H10Y17105   5.866   2.584   6.087 -2.0832 -3.1385 -2.2026
  154SAPE  C31117106   5.660   2.528   6.115 -0.3896  0.2269  0.6579
  154SAPE  H11X17107   5.631   2.623   6.065  0.6044  0.3821  0.3558
  154SAPE  H11Y17108   5.586   2.504   6.193 -1.0086 -2.1799 -0.5618
  154SAPE  C31217109   5.662   2.422   6.005 -0.1411  0.1941  0.3440
  154SAPE  H12X17110   5.557   2.389   5.984  0.2710 -0.8322 -0.1649
  154SAPE  H12Y17111   5.715   2.339   6.056  0.3239  0.7549  0.7789
  154SAPE  C31317112   5.737   2.473   5.877 -0.1543 -0.5038 -0.1090
  154SAPE  H13X17113   5.846   2.474   5.901  0.1037 -2.3286 -0.9791
  154SAPE  H13Y17114   5.699   2.568   5.834 -3.1793 -1.7692 -0.4884
  154SAPE  C31417115   5.707   2.385   5.755 -0.6269  0.6893 -0.5354
  154SAPE  H14X17116   5.712   2.279   5.789  2.9735  0.3360 -1.7560
  154SAPE  H14Y17117   5.790   2.396   5.682  0.2716  1.3061  0.5299
  154SAPE  C31517118   5.562   2.405   5.698 -0.4367  0.4469 -0.8715
  154SAPE  H15X17119   5.556   2.503   5.645 -0.2952  0.1706 -1.4056
  154SAPE  H15Y17120   5.485   2.398   5.778 -0.9924  0.3020 -1.4128
  154SAPE  C31617121   5.539   2.310   5.586  0.0992  0.5555 -0.2628
  154SAPE  H16X17122   5.550   2.202   5.610 -1.8975  0.3844  0.0195
  154SAPE  H16Y17123   5.621   2.328   5.513 -1.8612  3.9570 -1.8708
  154SAPE  C31717124   5.410   2.331   5.514  0.7381  0.0398 -0.1961
  154SAPE  H17X17125   5.416   2.437   5.483  2.4941 -0.7232 -2.8487
  154SAPE  H17Y17126   5.321   2.317   5.580  0.5685  0.5510 -0.3087
  154SAPE  C31817127   5.369   2.249   5.390 -0.8398  0.2848 -0.2568
  154SAPE  H18X17128   5.279   2.289   5.339 -1.1249 -0.0182  0.0012
  154SAPE  H18Y17129   5.345   2.145   5.418 -2.9202  0.0150 -2.6816
  154SAPE  H18Z17130   5.456   2.241   5.322 -0.8715 -1.5522 -0.1102
  155SAPE     N17131   0.461   3.285   7.095 -0.6622 -0.1648  0.9906
  155SAPE   HN117132   0.506   3.212   7.153  0.4729 -0.7256 -0.5316
  155SAPE   HN217133   0.538   3.344   7.059 -2.7814  2.4577  0.4610
  155SAPE   HN317134   0.396   3.347   7.147 -2.3268  1.7448 -2.9641
  155SAPE   C1217135   0.402   3.207   6.981  1.1018  0.4992 -0.0459
  155SAPE  H12A17136   0.487   3.150   6.937  1.2985  3.0264 -3.3441
  155SAPE  H12B17137   0.365   3.272   6.898  0.2995  0.1479  0.0311
  155SAPE   C1117138   0.284   3.124   7.036 -0.3442  0.1222  0.3137
  155SAPE  H11A17139   0.242   3.074   6.946  0.3911 -0.2561  0.1725
  155SAPE  H11B17140   0.217   3.189   7.096  2.0880  0.3923  2.9406
  155SAPE     P17141   0.321   2.877   7.113 -0.0259 -0.3348 -0.7800
  155SAPE   O1317142   0.382   2.827   6.988  0.0323  0.1992  0.1089
  155SAPE   O1417143   0.369   2.812   7.243  0.1111  0.2683  0.4769
  155SAPE   O1217144   0.341   3.036   7.125 -0.2144  0.2642 -0.1445
  155SAPE   O1117145   0.167   2.873   7.104  0.3045  0.0031 -0.5214
  155SAPE    C117146   0.097   2.760   7.051 -0.0710  0.4130  0.2636
  155SAPE    HA17147   0.126   2.662   7.095  0.4136  0.0873 -0.7692
  155SAPE    HB17148  -0.012   2.758   7.072 -0.0937 -0.1835  0.0912
  155SAPE    C217149   0.099   2.757   6.899  0.1928 -0.2205  0.1829
  155SAPE    HS17150   0.204   2.749   6.863  0.7278  0.8891  1.4009
  155SAPE   O2117151   0.032   2.869   6.850  0.3043  0.1248  0.3388
  155SAPE   C2117152   0.059   2.906   6.724  0.6134 -0.1755  0.5442
  155SAPE   O2217153   0.157   2.875   6.657  0.0033  0.0565 -0.5988
  155SAPE   C2217154  -0.053   3.007   6.675  0.5318 -0.1871 -0.2450
  155SAPE   H2R17155  -0.138   2.963   6.731  2.7045 -1.9238  1.9472
  155SAPE   H2S17156  -0.033   3.106   6.721 -0.3389 -0.5909  1.0596
  155SAPE    C317157   0.011   2.634   6.852  0.2134 -0.2941  0.3520
  155SAPE    HX17158  -0.093   2.661   6.879  0.1165 -1.3891  1.1143
  155SAPE    HY17159   0.034   2.543   6.911  0.7406 -1.4965 -1.5992
  155SAPE   O3117160   0.016   2.597   6.712  0.2879  0.0455  0.0601
  155SAPE   C3117161   0.136   2.553   6.674 -0.6383  0.1752 -0.5047
  155SAPE   O3217162   0.231   2.533   6.748 -0.5762  0.1619 -0.3696
  155SAPE   C3217163   0.132   2.518   6.526  0.0133 -0.3692 -0.4359
  155SAPE   H2X17164   0.083   2.602   6.472 -0.5760 -1.3273 -1.4526
  155SAPE   H2Y17165   0.069   2.427   6.515 -0.8151 -0.0770  1.5181
  155SAPE   C2317166  -0.064   3.007   6.523 -0.3183 -0.3213  0.1223
  155SAPE   H3R17167  -0.060   2.901   6.489  0.0789 -0.0350 -0.7432
  155SAPE   H3S17168   0.026   3.061   6.488 -0.5492 -0.5542 -0.8935
  155SAPE   C2417169  -0.190   3.074   6.464  0.4014  0.2627 -0.2198
  155SAPE   H4R17170  -0.271   3.004   6.494  0.4377  0.0792 -0.5447
  155SAPE   H4S17171  -0.180   3.067   6.353 -0.7917  1.6938 -0.4627
  155SAPE   C2517172  -0.220   3.213   6.510 -0.6347  0.1635 -0.2408
  155SAPE   H5R17173  -0.224   3.248   6.614 -0.5115  1.5843 -0.6980
  155SAPE   C2617174  -0.237   3.318   6.425  0.0483  0.6253 -0.8151
  155SAPE   H6R17175  -0.249   3.413   6.479  1.5300 -0.3749  1.3885
  155SAPE   C2717176  -0.239   3.318   6.269 -0.0105  0.4915 -0.2757
  155SAPE   H7R17177  -0.345   3.306   6.242  0.1127 -0.4464 -0.3693
  155SAPE   H7S17178  -0.188   3.226   6.233 -2.4757 -0.6819 -0.9805
  155SAPE   C2817179  -0.191   3.446   6.202 -0.2562  0.1175  0.2362
  155SAPE   H8R17180  -0.211   3.542   6.252 -0.5350  0.7447 -1.0328
  155SAPE   C2917181  -0.119   3.453   6.086  0.0168 -0.2533  0.1381
  155SAPE   H9R17182  -0.079   3.552   6.061 -0.0693 -0.0634  0.7522
  155SAPE  C21017183  -0.067   3.343   6.001 -0.0611  0.1535 -0.3078
  155SAPE  H10R17184  -0.135   3.256   6.017 -0.1797  0.5077  1.2898
  155SAPE  H10S17185   0.039   3.315   6.021  0.9074  1.7912 -2.7086
  155SAPE  C21117186  -0.080   3.374   5.855  0.1500 -0.1277 -0.3897
  155SAPE  H11R17187  -0.186   3.357   5.830  0.0914 -0.1064 -0.1666
  155SAPE  C21217188   0.014   3.410   5.767 -0.1210  0.3374 -0.6954
  155SAPE  H12R17189  -0.014   3.435   5.664  1.1565  1.2180 -0.8645
  155SAPE  C21317190   0.162   3.421   5.791 -0.0706  0.3991  0.1407
  155SAPE  H13R17191   0.195   3.322   5.752 -0.1718 -0.5997  2.4441
  155SAPE  H13S17192   0.173   3.431   5.901  0.4902  0.3475  0.0897
  155SAPE  C21417193   0.226   3.532   5.717  0.8860 -0.3365  0.2295
  155SAPE  H14R17194   0.221   3.502   5.611 -0.2851  0.6594 -0.0200
  155SAPE  C21517195   0.248   3.662   5.749 -0.4255  0.9559  0.4040
  155SAPE  H15R17196   0.282   3.728   5.668  3.0563 -0.4675  0.5428
  155SAPE  C21617197   0.253   3.745   5.880  0.5277  0.2968 -0.5930
  155SAPE  H16R17198   0.203   3.842   5.862 -1.6365  0.2276  3.6320
  155SAPE  H16S17199   0.360   3.763   5.904  0.1733  1.1255  0.4685
  155SAPE  C21717200   0.186   3.692   6.009 -0.2044  0.1054  0.1420
  155SAPE  H17R17201   0.233   3.597   6.041  3.7959  1.5634 -0.8003
  155SAPE  H17S17202   0.082   3.661   5.983  0.9292 -3.2631 -0.9936
  155SAPE  C21817203   0.173   3.789   6.124  0.2387 -0.0024 -0.6009
  155SAPE  H18R17204   0.131   3.879   6.074  2.7008  1.1886 -0.6886
  155SAPE  H18S17205   0.274   3.804   6.168 -0.4404  1.6878  0.4878
  155SAPE  C21917206   0.076   3.741   6.245  0.7502 -0.0190  0.3211
  155SAPE  H19R17207   0.110   3.640   6.277  0.3367 -0.1750  0.2806
  155SAPE  H19S17208  -0.027   3.734   6.203  0.5387  2.7529  0.1615
  155SAPE  C22017209   0.069   3.834   6.360 -0.4214  0.4383 -0.2232
  155SAPE  H20R17210   0.167   3.818   6.408 -1.0062 -2.8586  0.0802
  155SAPE  H20S17211  -0.007   3.811   6.438  0.6412 -0.9315  0.4302
  155SAPE  H20T17212   0.062   3.941   6.328 -0.2551  0.2962 -0.7312
  155SAPE   C3317213   0.279   2.515   6.482 -0.3850 -0.5040 -0.0274
  155SAPE   H3X17214   0.338   2.451   6.551  0.9062  1.3828  0.6980
  155SAPE   H3Y17215   0.339   2.608   6.476  0.1307 -0.9074 -1.6296
  155SAPE   C3417216   0.312   2.466   6.339 -0.2135  0.4923  0.8098
  155SAPE   H4X17217   0.276   2.363   6.319  2.2485 -0.3914  0.6039
  155SAPE   H4Y17218   0.422   2.460   6.336 -0.2027  0.9563 -0.7712
  155SAPE   C3517219   0.259   2.561   6.229 -0.2991 -0.7117 -0.1104
  155SAPE   H5X17220   0.297   2.665   6.244  0.5609 -0.9857 -0.3556
  155SAPE   H5Y17221   0.149   2.545   6.234 -0.2963 -0.7987 -0.3074
  155SAPE   C3617222   0.286   2.519   6.086  0.3020  0.5738 -0.9369
  155SAPE   H6X17223   0.270   2.409   6.075 -3.1153  1.0541 -2.0139
  155SAPE   H6Y17224   0.395   2.530   6.066  0.7614  1.6957  1.8193
  155SAPE   C3717225   0.196   2.597   5.988  0.2037 -0.3479  0.7258
  155SAPE   H7X17226   0.238   2.699   5.978 -0.7993 -0.1033 -1.6973
  155SAPE   H7Y17227   0.092   2.605   6.026 -0.3561 -0.2254 -0.7345
  155SAPE   C3817228   0.174   2.546   5.844  1.2105 -0.4738  0.2955
  155SAPE   H8X17229   0.118   2.450   5.843  1.2419 -0.4917 -0.9397
  155SAPE   H8Y17230   0.278   2.534   5.807  0.6860  0.1457 -1.4543
  155SAPE   C3917231   0.108   2.647   5.749 -0.0871  0.3017  0.1854
  155SAPE   H9X17232   0.172   2.737   5.754  2.1651 -1.1069 -1.4629
  155SAPE   H9Y17233   0.012   2.668   5.802  0.5657 -0.8129  1.9053
  155SAPE  C31017234   0.096   2.601   5.604 -0.2256 -0.0073  1.1302
  155SAPE  H10X17235  -0.005   2.555   5.613 -0.3471  0.2401  1.0584
  155SAPE  H10Y17236   0.165   2.516   5.585 -0.3021  0.0214  0.7038
  155SAPE  C31117237   0.101   2.716   5.501 -0.3758  0.4513 -0.2645
  155SAPE  H11X17238   0.023   2.783   5.544 -0.6076 -0.4874  0.8290
  155SAPE  H11Y17239   0.063   2.673   5.405 -1.8338  2.1303 -0.4850
  155SAPE  C31217240   0.230   2.782   5.470 -0.6743  0.4473  0.3512
  155SAPE  H12X17241   0.308   2.705   5.452  0.9375  1.9114  0.8546
  155SAPE  H12Y17242   0.259   2.846   5.556 -1.7181  0.5243  0.6549
  155SAPE  C31317243   0.229   2.874   5.351 -0.1967 -0.3492  0.7516
  155SAPE  H13X17244   0.181   2.822   5.265 -0.0581  0.4621  0.1709
  155SAPE  H13Y17245   0.325   2.912   5.310 -0.6821 -2.7490 -3.2013
  155SAPE  C31417246   0.148   2.992   5.387 -0.4570 -0.2983  0.3202
  155SAPE  H14X17247   0.188   3.049   5.474  1.0305  0.5295 -0.8498
  155SAPE  H14Y17248   0.053   2.945   5.418 -0.4007 -0.8900 -0.3733
  155SAPE  C31517249   0.118   3.087   5.263 -0.1803 -0.9503 -0.2116
  155SAPE  H15X17250   0.049   3.038   5.190  2.2276 -2.8107 -1.3808
  155SAPE  H15Y17251   0.208   3.098   5.198  0.1019 -0.9293  0.1816
  155SAPE  C31617252   0.056   3.226   5.298 -0.0474 -0.1940  0.4671
  155SAPE  H16X17253   0.007   3.219   5.398  0.8023  0.0998  0.9212
  155SAPE  H16Y17254  -0.011   3.255   5.215  0.9621 -3.9619 -1.9247
  155SAPE  C31717255   0.174   3.328   5.314 -0.0827 -0.3055 -0.2127
  155SAPE  H17X17256   0.133   3.430   5.334 -0.3583 -0.9021  2.6303
  155SAPE  H17Y17257   0.220   3.335   5.213  1.1004  1.5987  0.3980
  155SAPE  C31817258   0.281   3.304   5.419 -0.5558  0.4958 -0.0190
  155SAPE  H18X17259   0.244   3.270   5.518 -0.1845  0.4909  0.1197
  155SAPE  H18Y17260   0.354   3.386   5.429 -0.5817  0.3675  1.4202
  155SAPE  H18Z17261   0.348   3.224   5.381  0.8943  0.8795  1.6070
  156SAPE     N17262   2.370   6.350   7.439  0.3437 -0.0569  0.4581
  156SAPE   HN117263   2.466   6.388   7.444  1.4299 -2.4952 -0.3609
  156SAPE   HN217264   2.320   6.433   7.400 -0.2550  0.7411  2.7705
  156SAPE   HN317265   2.338   6.319   7.533  0.3413  0.0105  0.4797
  156SAPE   C1217266   2.352   6.235   7.344  0.2799  0.2421  0.1852
  156SAPE  H12A17267   2.388   6.143   7.395  0.6270 -0.9244 -2.0577
  156SAPE  H12B17268   2.412   6.253   7.253 -1.0491  0.7300 -0.6218
  156SAPE   C1117269   2.195   6.211   7.319 -0.3821 -0.1431 -0.0126
  156SAPE  H11A17270   2.204   6.119   7.256  2.4519 -0.0422  0.1215
  156SAPE  H11B17271   2.149   6.282   7.246  0.1552 -1.5444 -1.8067
  156SAPE     P17272   2.091   6.053   7.511  0.1924  0.1850 -0.1409
  156SAPE   O1317273   2.219   6.015   7.565 -0.3425  0.0229 -0.6473
  156SAPE   O1417274   1.981   6.062   7.614  0.6033 -0.3891  0.0283
  156SAPE   O1217275   2.110   6.193   7.438  0.2985 -0.3813 -0.3071
  156SAPE   O1117276   2.053   5.955   7.399 -0.2334  0.1635  0.4030
  156SAPE    C117277   1.921   5.887   7.407 -0.1342 -0.6887  0.3208
  156SAPE    HA17278   1.918   5.790   7.461  0.0994 -1.0428 -0.2905
  156SAPE    HB17279   1.835   5.945   7.448 -0.7316 -1.2685 -0.0934
  156SAPE    C217280   1.888   5.854   7.260 -0.3579  0.8228 -0.4295
  156SAPE    HS17281   1.788   5.806   7.259 -0.4043  0.8491  1.1556
  156SAPE   O2117282   2.000   5.773   7.201  0.2676 -0.5511  0.6092
  156SAPE   C2117283   1.952   5.683   7.119 -0.3842  0.1380 -0.5885
  156SAPE   O2217284   1.835   5.662   7.091  0.1769 -0.2238  0.1511
  156SAPE   C2217285   2.069   5.621   7.039  0.4256  0.1085 -0.1058
  156SAPE   H2R17286   2.144   5.702   7.028  1.9277 -1.0470  1.0975
  156SAPE   H2S17287   2.109   5.537   7.101 -0.1667 -0.4548 -0.4771
  156SAPE    C317288   1.875   5.980   7.168 -0.0526  0.1787 -0.3568
  156SAPE    HX17289   1.965   6.045   7.157 -1.3337  2.3683  1.2946
  156SAPE    HY17290   1.812   6.050   7.227  0.9179 -0.0316  0.9729
  156SAPE   O3117291   1.817   5.943   7.037 -0.4781 -0.1754  0.2883
  156SAPE   C3117292   1.743   6.039   6.978  0.2031 -0.3273 -0.2092
  156SAPE   O3217293   1.716   6.153   7.018  0.1165  0.5856 -0.6797
  156SAPE   C3217294   1.684   5.973   6.849  0.1340 -0.8887  0.5294
  156SAPE   H2X17295   1.585   6.015   6.821  0.8860  0.4421 -0.2723
  156SAPE   H2Y17296   1.674   5.863   6.862 -0.9286 -0.7391  1.1278
  156SAPE   C2317297   2.020   5.559   6.909 -0.0699  0.1540  0.0108
  156SAPE   H3R17298   1.938   5.488   6.933 -1.6448  1.1240 -2.1987
  156SAPE   H3S17299   2.103   5.498   6.867 -0.3772 -0.2793  0.0276
  156SAPE   C2417300   1.970   5.663   6.799  0.2638  0.6641 -0.2338
  156SAPE   H4R17301   1.900   5.733   6.848 -1.7099 -0.3533 -1.4664
  156SAPE   H4S17302   1.904   5.598   6.737 -0.9395  1.8037 -0.1688
  156SAPE   C2517303   2.083   5.724   6.718  0.1875  0.7686 -0.0501
  156SAPE   H5R17304   2.136   5.806   6.769  0.1715  0.9265 -0.2829
  156SAPE   C2617305   2.117   5.683   6.592 -0.1743 -0.0957 -0.1178
  156SAPE   H6R17306   2.196   5.742   6.544 -0.3796 -0.9794 -1.5991
  156SAPE   C2717307   2.057   5.568   6.519  0.5681  0.3325 -0.4676
  156SAPE   H7R17308   1.964   5.606   6.471 -0.0740  0.0508  0.5328
  156SAPE   H7S17309   2.011   5.488   6.580 -0.5936  2.2864  1.3304
  156SAPE   C2817310   2.157   5.521   6.418 -0.8474 -0.4911 -1.1207
  156SAPE   H8R17311   2.208   5.430   6.452  0.3139  1.0208  1.5369
  156SAPE   C2917312   2.199   5.564   6.301 -0.0730 -0.0716  0.2196
  156SAPE   H9R17313   2.266   5.496   6.246  0.4831  0.2415  0.4963
  156SAPE  C21017314   2.164   5.686   6.214  0.2266 -0.0516 -0.4109
  156SAPE  H10R17315   2.258   5.729   6.172  0.6215  0.4945  0.9705
  156SAPE  H10S17316   2.116   5.757   6.285  3.9981  0.6889  1.6716
  156SAPE  C21117317   2.066   5.653   6.102 -0.4378  0.2207  0.6009
  156SAPE  H11R17318   1.963   5.651   6.139 -0.4323 -0.1401  0.5981
  156SAPE  C21217319   2.094   5.656   5.968  0.3870  0.6743 -0.2053
  156SAPE  H12R17320   2.017   5.620   5.899 -1.9192  1.5936  1.7412
  156SAPE  C21317321   2.235   5.673   5.912  0.3438  0.7101  0.3447
  156SAPE  H13R17322   2.304   5.722   5.984  0.8662 -1.6224  1.5104
  156SAPE  H13S17323   2.225   5.742   5.826 -0.5669 -1.4022 -1.3147
  156SAPE  C21417324   2.293   5.537   5.881  1.2598  0.1968  0.0439
  156SAPE  H14R17325   2.303   5.466   5.965 -0.6482 -0.3636 -0.1496
  156SAPE  C21517326   2.303   5.489   5.758 -1.2272 -0.1999 -0.0338
  156SAPE  H15R17327   2.350   5.390   5.751  0.2458  0.4406  0.4886
  156SAPE  C21617328   2.273   5.554   5.626 -0.1461  0.3572  0.0247
  156SAPE  H16R17329   2.196   5.633   5.643 -0.7529 -0.2802  0.2425
  156SAPE  H16S17330   2.211   5.490   5.559 -0.0282  0.7895 -0.5123
  156SAPE  C21717331   2.392   5.608   5.548 -0.0351 -0.2776 -0.4487
  156SAPE  H17R17332   2.469   5.528   5.551  0.7839  0.4419  3.9631
  156SAPE  H17S17333   2.421   5.688   5.619 -2.7574  0.1946  0.2235
  156SAPE  C21817334   2.375   5.670   5.411  0.2575 -0.2403 -0.1358
  156SAPE  H18R17335   2.327   5.593   5.346 -0.1644  0.4592 -0.6631
  156SAPE  H18S17336   2.479   5.665   5.372  0.0816 -2.3425 -0.4864
  156SAPE  C21917337   2.307   5.805   5.390 -0.2313 -0.6588 -0.6782
  156SAPE  H19R17338   2.335   5.855   5.295  0.9347  0.3700  0.1834
  156SAPE  H19S17339   2.351   5.865   5.472  0.4517 -1.1091 -0.7100
  156SAPE  C22017340   2.154   5.807   5.396 -0.0984 -0.3876  0.3032
  156SAPE  H20R17341   2.110   5.802   5.497 -3.9185  0.3254 -1.1548
  156SAPE  H20S17342   2.126   5.719   5.334  4.4406 -0.4571 -2.1023
  156SAPE  H20T17343   2.124   5.903   5.349  0.0676 -0.5152 -0.0683
  156SAPE   C3317344   1.776   5.991   6.721 -0.8145 -0.0751  0.6556
  156SAPE   H3X17345   1.871   5.935   6.718 -0.4484  0.5483  0.4183
  156SAPE   H3Y17346   1.822   6.092   6.711 -0.6466 -0.2936 -0.9330
  156SAPE   C3417347   1.703   5.971   6.581  0.9094  0.0801 -0.2109
  156SAPE   H4X17348   1.608   6.024   6.558  0.1800 -1.8370 -2.0041
  156SAPE   H4Y17349   1.680   5.862   6.580  1.0254  0.0454  0.2970
  156SAPE   C3517350   1.804   5.981   6.460  0.3388 -0.3364  0.4532
  156SAPE   H5X17351   1.901   5.929   6.482  2.0318  2.1609 -0.6625
  156SAPE   H5Y17352   1.837   6.086   6.446 -1.5692  0.0675 -1.4067
  156SAPE   C3617353   1.745   5.940   6.327  0.7393 -0.4320  0.7523
  156SAPE   H6X17354   1.652   5.998   6.306  0.6415 -1.3303 -1.5963
  156SAPE   H6Y17355   1.712   5.834   6.325 -2.1546  0.3918 -0.6306
  156SAPE   C3717356   1.827   5.968   6.200  0.1011 -0.3927  0.0514
  156SAPE   H7X17357   1.935   5.944   6.215  1.0668  3.0908 -0.4495
  156SAPE   H7Y17358   1.823   6.077   6.182 -1.4046 -0.3269  0.6746
  156SAPE   C3817359   1.755   5.899   6.072  0.8594 -0.0217 -0.1867
  156SAPE   H8X17360   1.648   5.926   6.066  0.6551 -0.6030  0.5993
  156SAPE   H8Y17361   1.743   5.791   6.092 -1.3116  0.3512  0.7299
  156SAPE   C3917362   1.828   5.930   5.938  0.3879 -0.3644 -0.0197
  156SAPE   H9X17363   1.937   5.909   5.946  0.6667  0.9793  0.1009
  156SAPE   H9Y17364   1.812   6.036   5.906 -2.1881 -0.8798 -0.6603
  156SAPE  C31017365   1.767   5.850   5.818 -0.0369  0.4001  0.8935
  156SAPE  H10X17366   1.668   5.897   5.797 -0.1977  0.0839  0.9483
  156SAPE  H10Y17367   1.757   5.745   5.851  2.8770 -1.1740 -2.5427
  156SAPE  C31117368   1.861   5.856   5.690 -0.5976  0.0116  0.4115
  156SAPE  H11X17369   1.961   5.824   5.724 -0.8285  0.4016  1.4726
  156SAPE  H11Y17370   1.863   5.962   5.657 -1.0423 -0.5207 -1.4553
  156SAPE  C31217371   1.823   5.769   5.567  0.0178 -0.1328 -0.7608
  156SAPE  H12X17372   1.877   5.803   5.476  2.3574  1.4369  1.0892
  156SAPE  H12Y17373   1.715   5.787   5.547 -0.6813 -2.3122  0.7419
  156SAPE  C31317374   1.851   5.615   5.581  0.2174 -0.4911 -0.3463
  156SAPE  H13X17375   1.811   5.574   5.676 -0.9313 -0.5488 -0.8358
  156SAPE  H13Y17376   1.961   5.597   5.580 -0.0199 -2.3839  1.5909
  156SAPE  C31417377   1.802   5.540   5.461 -0.6184 -0.5080  0.2813
  156SAPE  H14X17378   1.842   5.588   5.369  0.6219 -1.8604  0.0676
  156SAPE  H14Y17379   1.691   5.543   5.465 -0.8897 -1.3007 -3.1035
  156SAPE  C31517380   1.850   5.393   5.447  0.1181  0.0928 -0.2836
  156SAPE  H15X17381   1.802   5.330   5.526 -0.1212 -2.9731 -2.6928
  156SAPE  H15Y17382   1.958   5.392   5.472  0.0102  0.6152  0.2381
  156SAPE  C31617383   1.837   5.337   5.303  0.0953  0.2775  0.3681
  156SAPE  H16X17384   1.859   5.415   5.226 -0.7376 -0.1589 -0.3323
  156SAPE  H16Y17385   1.737   5.289   5.290  0.7376 -0.5638 -1.9174
  156SAPE  C31717386   1.932   5.216   5.268 -0.4062  0.6378  0.6600
  156SAPE  H17X17387   1.919   5.204   5.158  1.1961  2.6908  0.1740
  156SAPE  H17Y17388   1.900   5.130   5.331 -2.7238  0.9138 -0.0343
  156SAPE  C31817389   2.085   5.234   5.277  0.3229 -0.2983  0.1630
  156SAPE  H18X17390   2.100   5.272   5.380  1.6451 -1.1839  0.3170
  156SAPE  H18Y17391   2.118   5.314   5.208 -0.2835  1.9944  2.3660
  156SAPE  H18Z17392   2.146   5.144   5.253  1.1171 -0.0000  1.0146
  157SAPE     N17393   1.298   4.093   7.185  0.6481  0.2025 -0.7991
  157SAPE   HN117394   1.321   4.182   7.136  0.2756  2.2172  2.4247
  157SAPE   HN217395   1.195   4.085   7.177  0.7207  0.2443 -1.9241
  157SAPE   HN317396   1.329   4.107   7.283 -2.1324  0.5390  0.1176
  157SAPE   C1217397   1.360   3.971   7.122  0.4750 -0.2805  0.0766
  157SAPE  H12A17398   1.338   3.881   7.183 -0.8955 -0.2457 -0.3465
  157SAPE  H12B17399   1.468   3.995   7.106  0.5367 -0.2842  0.4800
  157SAPE   C1117400   1.299   3.943   6.978 -0.1429 -0.2036 -0.6742
  157SAPE  H11A17401   1.347   3.848   6.947  2.3078  0.8367 -0.3249
  157SAPE  H11B17402   1.335   4.019   6.904 -1.4265  1.4957  0.3713
  157SAPE     P17403   1.087   3.797   6.998 -0.0030 -0.1784 -0.2168
  157SAPE   O1317404   1.159   3.709   7.085 -0.1352  0.6909 -0.4264
  157SAPE   O1417405   0.950   3.831   7.041  0.6163  0.1942  0.3125
  157SAPE   O1217406   1.157   3.930   6.973 -0.5044 -0.3657 -0.0146
  157SAPE   O1117407   1.069   3.721   6.860  0.0646 -1.3701  0.2218
  157SAPE    C117408   1.102   3.772   6.741  0.1234  0.5583  0.8744
  157SAPE    HA17409   1.128   3.879   6.735  1.4067  0.1830 -1.7931
  157SAPE    HB17410   1.192   3.720   6.701 -0.8650 -0.6074  0.0937
  157SAPE    C217411   0.991   3.741   6.635 -1.0498 -0.1430  1.0246
  157SAPE    HS17412   0.997   3.631   6.619 -3.0891 -0.1481 -0.0069
  157SAPE   O2117413   1.013   3.827   6.518 -0.8404 -0.6172 -0.0599
  157SAPE   C2117414   0.982   3.776   6.409 -0.7408  0.1481  0.2183
  157SAPE   O2217415   0.944   3.664   6.384  0.2213 -0.0078 -0.6146
  157SAPE   C2217416   0.991   3.886   6.295  0.2524  0.8120 -0.4854
  157SAPE   H2R17417   0.888   3.896   6.254 -0.2168  2.2936  0.9296
  157SAPE   H2S17418   1.023   3.981   6.344 -0.8358  0.1402  1.6544
  157SAPE    C317419   0.848   3.780   6.686  0.0199  0.4501 -0.0749
  157SAPE    HX17420   0.854   3.890   6.700  0.2734  0.3552  0.5731
  157SAPE    HY17421   0.827   3.747   6.790  0.2125  2.1268  0.5275
  157SAPE   O3117422   0.742   3.757   6.589 -0.2621 -0.1316 -0.3971
  157SAPE   C3117423   0.673   3.639   6.615 -0.0556 -0.2866 -0.1163
  157SAPE   O3217424   0.692   3.571   6.713 -0.3713 -0.0160 -0.1974
  157SAPE   C3217425   0.579   3.614   6.500  0.5061 -0.1278 -1.1070
  157SAPE   H2X17426   0.506   3.697   6.501  0.7815  0.2350 -3.5736
  157SAPE   H2Y17427   0.532   3.514   6.514 -0.2288  0.5797  2.2504
  157SAPE   C2317428   1.101   3.859   6.191 -0.3796 -1.6777 -0.8536
  157SAPE   H3R17429   1.093   3.775   6.118 -0.9940 -2.1099 -0.2988
  157SAPE   H3S17430   1.198   3.841   6.242 -0.2130  0.5403 -0.2683
  157SAPE   C2417431   1.115   3.985   6.098 -0.3339 -0.1170  0.0018
  157SAPE   H4R17432   1.203   3.970   6.033 -1.8238  0.4242 -2.2404
  157SAPE   H4S17433   1.135   4.073   6.163 -3.6410  0.5426  0.3358
  157SAPE   C2517434   0.989   4.016   6.012 -0.4104 -0.3630  0.0532
  157SAPE   H5R17435   0.952   3.930   5.954  0.5347 -1.2198  0.6870
  157SAPE   C2617436   0.934   4.140   5.995 -0.0011  0.0685 -0.0204
  157SAPE   H6R17437   0.845   4.134   5.930  0.6221 -1.3464 -0.7722
  157SAPE   C2717438   0.986   4.273   6.048 -0.1761  0.5729 -0.2682
  157SAPE   H7R17439   0.950   4.344   5.970 -3.0336 -2.1698 -1.6729
  157SAPE   H7S17440   1.097   4.273   6.041 -0.0287  0.2882  1.5658
  157SAPE   C2817441   0.939   4.311   6.182 -0.1476 -0.2594  0.1961
  157SAPE   H8R17442   0.849   4.253   6.206 -0.4689  0.2814  0.3338
  157SAPE   C2917443   0.999   4.394   6.271  0.0070 -0.1276  0.7203
  157SAPE   H9R17444   0.958   4.398   6.373 -1.8953 -1.9570  0.0865
  157SAPE  C21017445   1.116   4.487   6.245  0.2581  0.2873 -0.5658
  157SAPE  H10R17446   1.114   4.534   6.144  1.3973  4.0503  1.0020
  157SAPE  H10S17447   1.205   4.421   6.244  1.1495  1.3386  2.0623
  157SAPE  C21117448   1.110   4.610   6.330 -0.1551 -0.2526 -0.6028
  157SAPE  H11R17449   1.100   4.580   6.436 -2.3817 -0.5894 -0.8629
  157SAPE  C21217450   1.104   4.738   6.296 -0.3100  0.2239  0.7448
  157SAPE  H12R17451   1.099   4.808   6.380 -1.9437 -1.3597  2.0714
  157SAPE  C21317452   1.108   4.793   6.153  0.0902  0.3347 -1.0303
  157SAPE  H13R17453   1.110   4.901   6.182 -1.6306  0.0160  0.4733
  157SAPE  H13S17454   1.008   4.764   6.113 -0.7918 -0.3793  1.5021
  157SAPE  C21417455   1.220   4.778   6.052 -0.4318 -0.0943 -0.3004
  157SAPE  H14R17456   1.323   4.788   6.088  0.7739 -1.6011 -3.0439
  157SAPE  C21517457   1.194   4.765   5.917  0.1925 -0.8083 -0.1172
  157SAPE  H15R17458   1.285   4.764   5.854  2.7680 -1.4520  3.2975
  157SAPE  C21617459   1.058   4.765   5.855  0.4945  0.0124  0.0683
  157SAPE  H16R17460   0.981   4.805   5.923 -0.9468  0.2899 -1.6635
  157SAPE  H16S17461   1.035   4.658   5.836 -0.2920  0.3984 -1.2657
  157SAPE  C21717462   1.047   4.856   5.727  0.1522  0.2433  0.5161
  157SAPE  H17R17463   0.952   4.839   5.672 -0.3255  3.4095  0.1512
  157SAPE  H17S17464   1.120   4.825   5.650 -0.6662 -0.2499 -0.0682
  157SAPE  C21817465   1.055   5.006   5.756 -0.6299 -0.3103  0.5048
  157SAPE  H18R17466   1.108   5.045   5.667  0.9783 -2.4080  0.4558
  157SAPE  H18S17467   1.130   5.019   5.837 -0.4477 -1.4574  0.5421
  157SAPE  C21917468   0.932   5.081   5.805  0.2452  0.2414  0.5961
  157SAPE  H19R17469   0.902   5.045   5.906  1.3207 -3.8046 -0.3146
  157SAPE  H19S17470   0.851   5.075   5.729  0.5217  0.1610  0.3087
  157SAPE  C22017471   0.973   5.223   5.817  0.1161 -0.0894 -0.6421
  157SAPE  H20R17472   0.974   5.270   5.716 -1.2972  1.3707 -0.0201
  157SAPE  H20S17473   1.072   5.222   5.867 -0.5289 -1.3629  0.6786
  157SAPE  H20T17474   0.897   5.270   5.883 -0.9909  0.1121 -1.9905
  157SAPE   C3317475   0.636   3.641   6.360 -0.2549  0.1909 -0.0870
  157SAPE   H3X17476   0.696   3.552   6.332 -0.7363  0.2599 -1.4567
  157SAPE   H3Y17477   0.697   3.733   6.348 -0.4423  0.2805 -0.3690
  157SAPE   C3417478   0.533   3.642   6.244 -0.5093  0.3757 -1.0086
  157SAPE   H4X17479   0.514   3.747   6.211  1.3202  1.0768  0.0147
  157SAPE   H4Y17480   0.439   3.591   6.275 -0.2150 -0.5020 -1.5389
  157SAPE   C3517481   0.568   3.569   6.115 -0.5356 -0.4591 -0.3648
  157SAPE   H5X17482   0.483   3.580   6.045  0.8169  0.7585 -1.9169
  157SAPE   H5Y17483   0.594   3.462   6.126  1.3540 -0.0984 -0.9528
  157SAPE   C3617484   0.681   3.640   6.040 -0.0110  0.0131 -0.3435
  157SAPE   H6X17485   0.750   3.668   6.123 -2.2203 -0.5724  1.7804
  157SAPE   H6Y17486   0.651   3.734   5.989 -0.1602 -1.0050 -2.2230
  157SAPE   C3717487   0.757   3.545   5.936 -0.6853 -0.5992 -0.1255
  157SAPE   H7X17488   0.694   3.523   5.847 -1.0263 -1.2583  0.2627
  157SAPE   H7Y17489   0.769   3.448   5.990  0.7156 -0.5993 -0.4018
  157SAPE   C3817490   0.891   3.607   5.890 -0.4375 -0.2136 -0.0358
  157SAPE   H8X17491   0.966   3.541   5.940 -1.7682 -0.1603  2.1701
  157SAPE   H8Y17492   0.902   3.698   5.952 -1.6460 -0.4395  0.5571
  157SAPE   C3917493   0.903   3.631   5.738 -0.2049 -0.4692 -0.4267
  157SAPE   H9X17494   0.817   3.691   5.703  1.7848  2.2132 -1.0255
  157SAPE   H9Y17495   0.905   3.530   5.692  1.5071 -0.3346 -0.7112
  157SAPE  C31017496   1.029   3.719   5.710  0.7630  0.1271 -0.2432
  157SAPE  H10X17497   1.111   3.663   5.759 -0.1491  0.1788  1.4371
  157SAPE  H10Y17498   1.021   3.818   5.760  0.3564 -0.8979  1.8069
  157SAPE  C31117499   1.058   3.739   5.561  0.6922  0.9078 -0.1086
  157SAPE  H11X17500   0.980   3.797   5.508 -2.3966  0.2597  3.3769
  157SAPE  H11Y17501   1.064   3.640   5.510 -0.5631  1.7407 -1.9788
  157SAPE  C31217502   1.194   3.809   5.533 -0.0657 -0.7126 -0.1838
  157SAPE  H12X17503   1.276   3.775   5.600 -1.6679  2.5448  3.8423
  157SAPE  H12Y17504   1.177   3.918   5.545  2.3882 -0.1816 -0.8905
  157SAPE  C31317505   1.240   3.804   5.386  0.5640 -0.5002 -0.0885
  157SAPE  H13X17506   1.260   3.704   5.343  1.4304  0.6579 -2.5203
  157SAPE  H13Y17507   1.339   3.853   5.380  0.3836 -0.2531 -1.1069
  157SAPE  C31417508   1.141   3.879   5.289 -0.1134 -0.1436 -0.3450
  157SAPE  H14X17509   1.124   3.985   5.317 -3.6237 -0.5688 -0.4352
  157SAPE  H14Y17510   1.036   3.844   5.288 -1.5988  3.7431 -0.2909
  157SAPE  C31517511   1.198   3.863   5.149  0.4677 -0.4097  0.0288
  157SAPE  H15X17512   1.205   3.754   5.131 -0.6816 -0.3078 -1.1675
  157SAPE  H15Y17513   1.299   3.910   5.147 -0.8183  2.6036  0.3652
  157SAPE  C31617514   1.113   3.921   5.033 -0.2590  0.1061  0.3620
  157SAPE  H16X17515   1.073   4.023   5.050 -0.4887 -0.2515  2.1903
  157SAPE  H16Y17516   1.030   3.848   5.021  0.8186 -0.7672 -2.8613
  157SAPE  C31717517   1.190   3.912   4.904  0.2324 -0.1823  0.3152
  157SAPE  H17X17518   1.299   3.919   4.924 -0.2515  2.6598  2.6337
  157SAPE  H17Y17519   1.186   4.005   4.843  2.7485 -1.8921 -2.7850
  157SAPE  C31817520   1.138   3.798   4.818  0.1658 -0.1050  0.1056
  157SAPE  H18X17521   1.033   3.818   4.787  0.0137 -1.2052 -0.1096
  157SAPE  H18Y17522   1.134   3.710   4.886 -1.7846  0.2027  0.4468
  157SAPE  H18Z17523   1.199   3.771   4.730  0.0455  2.6574 -0.9221
  158SAPE     N17524   2.748   0.922   7.613  0.3437  0.1804 -0.8396
  158SAPE   HN117525   2.720   1.019   7.639 -0.0273  0.0774 -0.8434
  158SAPE   HN217526   2.798   0.923   7.522 -0.8508  1.8441 -1.5372
  158SAPE   HN317527   2.663   0.863   7.601  1.1816 -2.0445  2.6515
  158SAPE   C1217528   2.838   0.864   7.715  0.2153 -0.5920 -0.1974
  158SAPE  H12A17529   2.851   0.754   7.701  1.2728 -0.4831 -0.1434
  158SAPE  H12B17530   2.793   0.870   7.817  0.8757  0.5187  0.0334
  158SAPE   C1117531   2.982   0.933   7.717  0.1942 -0.0503  0.5079
  158SAPE  H11A17532   3.028   0.926   7.616  0.8896 -2.5294  0.9103
  158SAPE  H11B17533   3.038   0.867   7.787 -1.5203 -2.0358  0.1266
  158SAPE     P17534   3.099   1.164   7.763 -0.0986 -0.1417  0.0265
  158SAPE   O1317535   3.076   1.262   7.869 -0.1869 -0.0796 -0.0307
  158SAPE   O1417536   3.215   1.074   7.793  0.1300 -0.6096  0.3578
  158SAPE   O1217537   2.970   1.074   7.749 -0.2610  0.3278  0.3183
  158SAPE   O1117538   3.126   1.241   7.635 -0.1156  0.5318  0.1281
  158SAPE    C117539   3.052   1.244   7.515 -0.6408  0.3052  0.3138
  158SAPE    HA17540   2.947   1.235   7.549  0.2376  0.6252  3.4193
  158SAPE    HB17541   3.072   1.342   7.465  2.0258 -1.5957 -2.7280
  158SAPE    C217542   3.080   1.127   7.412 -0.0095 -0.0845 -1.1734
  158SAPE    HS17543   3.067   1.029   7.464 -4.7888  1.6321  1.5247
  158SAPE   O2117544   3.210   1.153   7.364 -0.7142  0.2261  0.0218
  158SAPE   C2117545   3.311   1.096   7.430 -0.1023  0.0522  0.4434
  158SAPE   O2217546   3.306   1.011   7.516 -0.0877 -0.0107  0.7057
  158SAPE   C2217547   3.439   1.160   7.375 -0.2465 -0.0109 -0.5223
  158SAPE   H2R17548   3.428   1.177   7.265 -2.2610 -0.5313 -0.4490
  158SAPE   H2S17549   3.467   1.249   7.434 -1.4100 -0.3811  0.6239
  158SAPE    C317550   2.986   1.143   7.293  0.7489  0.4345  0.5748
  158SAPE    HX17551   3.021   1.234   7.241  1.0760  0.7911  1.3878
  158SAPE    HY17552   2.885   1.171   7.329  1.9106  2.8193  2.2291
  158SAPE   O3117553   2.990   1.031   7.204 -0.5493  0.3181  0.3408
  158SAPE   C3117554   2.911   0.931   7.246 -0.6102  0.2155  0.0686
  158SAPE   O3217555   2.854   0.928   7.350  0.4674 -0.1824 -0.5158
  158SAPE   C3217556   2.914   0.819   7.141 -0.3345  0.3195 -0.0903
  158SAPE   H2X17557   2.957   0.730   7.191  3.2315  1.7546 -0.3109
  158SAPE   H2Y17558   2.996   0.827   7.065 -0.3166  1.1040 -0.0004
  158SAPE   C2317559   3.557   1.061   7.389  0.4563 -0.2717  0.0276
  158SAPE   H3R17560   3.560   1.017   7.491  3.8648 -0.3907 -0.0028
  158SAPE   H3S17561   3.651   1.120   7.380 -0.6880  1.7773  0.7853
  158SAPE   C2417562   3.562   0.949   7.276 -0.3339  0.0515 -0.5429
  158SAPE   H4R17563   3.649   0.883   7.296  0.4653 -0.0882 -3.9611
  158SAPE   H4S17564   3.577   0.997   7.178  0.4533 -0.5504 -0.7289
  158SAPE   C2517565   3.443   0.859   7.275 -0.6231 -0.1569  0.5035
  158SAPE   H5R17566   3.410   0.809   7.368 -0.5963 -1.6586 -0.2679
  158SAPE   C2617567   3.364   0.854   7.165  0.5098 -0.3280  0.3383
  158SAPE   H6R17568   3.268   0.806   7.187 -0.3142  1.0860 -0.0445
  158SAPE   C2717569   3.363   0.910   7.029  0.2826 -0.1903  0.6089
  158SAPE   H7R17570   3.312   0.832   6.970 -2.3708  2.8884 -1.5085
  158SAPE   H7S17571   3.464   0.938   6.991 -0.1247  2.3854  1.2439
  158SAPE   C2817572   3.282   1.038   7.024  0.0311  0.0363 -0.0955
  158SAPE   H8R17573   3.323   1.118   7.088  0.3229  0.4741 -0.8089
  158SAPE   C2917574   3.168   1.069   6.955 -0.0637 -0.6264  0.5786
  158SAPE   H9R17575   3.131   1.172   6.960  1.5391  0.1367 -1.5166
  158SAPE  C21017576   3.094   0.979   6.857 -0.0545  0.2378  0.6108
  158SAPE  H10R17577   3.088   0.877   6.900 -1.2648  0.2177  0.4467
  158SAPE  H10S17578   3.155   0.959   6.767  1.9702 -1.0349  2.1850
  158SAPE  C21117579   2.956   1.032   6.836  0.4382  0.2835  0.3507
  158SAPE  H11R17580   2.887   1.024   6.921  0.6869 -1.6576  0.4351
  158SAPE  C21217581   2.909   1.099   6.730 -0.0229  0.2322  0.7762
  158SAPE  H12R17582   2.807   1.137   6.746  0.9079  2.8560  0.9237
  158SAPE  C21317583   2.983   1.131   6.602  0.3508  0.4908  0.5019
  158SAPE  H13R17584   2.924   1.118   6.508 -0.2258 -0.8168  1.0188
  158SAPE  H13S17585   3.069   1.061   6.601  0.7931  0.9507  2.5856
  158SAPE  C21417586   3.050   1.264   6.614  0.7957  0.3988  0.4602
  158SAPE  H14R17587   3.122   1.278   6.696 -1.1785  1.3092  2.1270
  158SAPE  C21517588   3.033   1.376   6.539  0.3914  0.4358  0.1888
  158SAPE  H15R17589   3.103   1.457   6.562  0.8375  0.6012 -1.5661
  158SAPE  C21617590   2.942   1.412   6.424  0.5245  0.2684 -0.4174
  158SAPE  H16R17591   2.902   1.513   6.449  1.7926  0.2508  1.9325
  158SAPE  H16S17592   2.854   1.344   6.410  0.3003  0.6656 -0.9700
  158SAPE  C21717593   3.024   1.426   6.297 -0.2302  0.2882 -0.2412
  158SAPE  H17R17594   3.069   1.326   6.278  1.1152  0.5598  1.3193
  158SAPE  H17S17595   3.098   1.509   6.301 -0.8118  0.7737  1.2887
  158SAPE  C21817596   2.947   1.458   6.169 -1.0861 -0.2712 -0.0034
  158SAPE  H18R17597   3.022   1.473   6.089 -0.2428 -1.6617  0.5087
  158SAPE  H18S17598   2.901   1.559   6.184  1.1991  1.0326 -1.3287
  158SAPE  C21917599   2.845   1.352   6.122 -0.1405  0.3585 -0.5203
  158SAPE  H19R17600   2.785   1.316   6.209 -0.8987  0.0948 -1.1435
  158SAPE  H19S17601   2.899   1.264   6.081  0.5669  1.1263 -1.2771
  158SAPE  C22017602   2.745   1.384   6.007 -0.2365 -0.6940  0.1930
  158SAPE  H20R17603   2.688   1.293   5.979  0.0679 -1.0368  0.6645
  158SAPE  H20S17604   2.809   1.410   5.921  0.1631  1.8466  1.1585
  158SAPE  H20T17605   2.678   1.467   6.036  0.5453  1.3127 -3.2768
  158SAPE   C3317606   2.779   0.784   7.080  0.5922 -0.8545  0.0163
  158SAPE   H3X17607   2.758   0.866   7.008  1.0793 -0.4075  0.3787
  158SAPE   H3Y17608   2.695   0.764   7.150 -0.7870 -0.3453 -1.4397
  158SAPE   C3417609   2.793   0.647   7.008 -0.1590 -1.1830  0.9332
  158SAPE   H4X17610   2.791   0.575   7.092 -1.1500 -1.2629  0.8646
  158SAPE   H4Y17611   2.891   0.631   6.958  0.9159 -0.4066  2.7362
  158SAPE   C3517612   2.676   0.613   6.914  0.0737  0.2946  0.0795
  158SAPE   H5X17613   2.576   0.634   6.958 -0.8987 -1.0688 -1.3566
  158SAPE   H5Y17614   2.675   0.502   6.910 -1.4814  0.2536  0.7198
  158SAPE   C3617615   2.669   0.667   6.772 -0.1554  0.7180 -0.7960
  158SAPE   H6X17616   2.639   0.774   6.777 -1.0451  0.4309  0.8608
  158SAPE   H6Y17617   2.597   0.610   6.710  0.5019 -0.1700 -0.7545
  158SAPE   C3717618   2.801   0.676   6.704 -0.2238 -0.2277  0.5611
  158SAPE   H7X17619   2.858   0.586   6.736  1.5579  0.0533 -1.6518
  158SAPE   H7Y17620   2.858   0.766   6.732  0.4094 -0.4987  0.1621
  158SAPE   C3817621   2.810   0.665   6.548  0.2655  0.6140 -0.0955
  158SAPE   H8X17622   2.751   0.574   6.524  2.2060 -0.2125 -2.0449
  158SAPE   H8Y17623   2.914   0.638   6.520 -0.2681 -0.4718 -1.1340
  158SAPE   C3917624   2.748   0.780   6.475 -0.1196 -0.4520  0.5002
  158SAPE   H9X17625   2.808   0.872   6.493 -0.3654 -0.1413 -0.2230
  158SAPE   H9Y17626   2.651   0.788   6.529  1.4160  2.0019  3.2324
  158SAPE  C31017627   2.739   0.762   6.319  0.7669 -0.3851 -0.6804
  158SAPE  H10X17628   2.646   0.706   6.293  0.3919 -0.0448 -0.1037
  158SAPE  H10Y17629   2.825   0.703   6.280  0.9725  1.9859 -4.3066
  158SAPE  C31117630   2.752   0.902   6.247 -0.3165  0.0670 -0.3465
  158SAPE  H11X17631   2.862   0.922   6.242 -0.2072 -0.7789 -2.3284
  158SAPE  H11Y17632   2.696   0.982   6.299  0.8674  2.2320 -2.2152
  158SAPE  C31217633   2.701   0.904   6.108 -0.0618  0.2411  0.6152
  158SAPE  H12X17634   2.717   1.011   6.082 -2.5579  0.6872  0.7156
  158SAPE  H12Y17635   2.592   0.898   6.086  0.2562  0.2624 -1.1854
  158SAPE  C31317636   2.767   0.811   6.013 -0.1106  0.2330  0.7499
  158SAPE  H13X17637   2.723   0.709   6.016  0.7707 -0.1616  0.5662
  158SAPE  H13Y17638   2.874   0.786   6.032  0.1013  1.1469  0.8226
  158SAPE  C31417639   2.752   0.864   5.871  1.3287 -0.1195 -0.4973
  158SAPE  H14X17640   2.837   0.931   5.844  1.3335  0.7060  1.3815
  158SAPE  H14Y17641   2.652   0.909   5.859  1.2214 -0.1486  0.2189
  158SAPE  C31517642   2.758   0.749   5.770 -0.2037  0.5691 -0.4304
  158SAPE  H15X17643   2.696   0.665   5.808  0.2184  0.5624  0.2690
  158SAPE  H15Y17644   2.862   0.711   5.762 -0.9645 -1.8045  0.1323
  158SAPE  C31617645   2.708   0.789   5.629  0.8717  0.4782  0.0889
  158SAPE  H16X17646   2.613   0.848   5.631 -0.1526 -1.0798  2.3468
  158SAPE  H16Y17647   2.686   0.697   5.571  0.6102  0.4777  0.1843
  158SAPE  C31717648   2.821   0.866   5.555 -0.0046 -0.7115  0.9911
  158SAPE  H17X17649   2.907   0.796   5.551 -1.1287 -2.1104  0.3718
  158SAPE  H17Y17650   2.857   0.957   5.609  0.7890  0.4349 -1.3155
  158SAPE  C31817651   2.790   0.896   5.410 -0.1737 -0.7260  0.5571
  158SAPE  H18X17652   2.867   0.958   5.359  0.2861 -1.7528 -0.0217
  158SAPE  H18Y17653   2.694   0.951   5.398  1.1454  2.3857  2.7615
  158SAPE  H18Z17654   2.800   0.804   5.350  2.0980 -0.0945 -0.1407
  159SAPE     N17655   1.125   6.005   3.022  0.1046  0.1803 -0.1507
  159SAPE   HN117656   1.180   5.943   2.959  0.2767 -2.8211  2.6741
  159SAPE   HN217657   1.080   6.077   2.962  1.2862 -0.9354 -2.5405
  159SAPE   HN317658   1.181   6.061   3.089  1.4128 -0.3200 -0.7942
  159SAPE   C1217659   1.027   5.915   3.089 -0.1412 -0.3774 -0.2730
  159SAPE  H12A17660   0.963   5.976   3.156 -0.0201  0.8003 -1.2042
  159SAPE  H12B17661   1.086   5.843   3.150  0.4588 -0.1117 -0.5371
  159SAPE   C1117662   0.933   5.843   2.978 -0.4158  0.0918 -0.5634
  159SAPE  H11A17663   1.000   5.780   2.916 -0.2490 -0.0346 -0.2597
  159SAPE  H11B17664   0.895   5.922   2.910 -1.5075  0.4761  0.4526
  159SAPE     P17665   0.699   5.805   3.099  0.2029 -0.3259 -0.0154
  159SAPE   O1317666   0.684   5.946   3.064 -0.0023 -0.5588 -0.6369
  159SAPE   O1417667   0.588   5.716   3.065 -0.1044 -0.1390  0.5945
  159SAPE   O1217668   0.836   5.760   3.036 -0.7431  0.6853  0.0231
  159SAPE   O1117669   0.718   5.807   3.256  0.3568  0.6944 -0.3935
  159SAPE    C117670   0.806   5.716   3.323 -0.2153 -0.4244 -0.3596
  159SAPE    HA17671   0.888   5.672   3.263  1.5668  0.3320  1.4076
  159SAPE    HB17672   0.856   5.782   3.398 -0.5008  0.1537 -0.6720
  159SAPE    C217673   0.724   5.613   3.401  0.2287  0.3547 -0.3635
  159SAPE    HS17674   0.658   5.562   3.328 -0.6898  1.1610 -0.1179
  159SAPE   O2117675   0.635   5.683   3.497 -0.5512 -0.1592  0.2120
  159SAPE   C2117676   0.531   5.617   3.539  0.0198  0.0630  0.5561
  159SAPE   O2217677   0.506   5.504   3.500  0.5117  0.1589  0.4288
  159SAPE   C2217678   0.466   5.683   3.657 -0.0225 -0.3690  0.2132
  159SAPE   H2R17679   0.526   5.767   3.696 -0.5143  0.2835 -0.3974
  159SAPE   H2S17680   0.372   5.733   3.624 -0.8981 -2.1988 -0.2266
  159SAPE    C317681   0.827   5.513   3.473  0.0447 -1.1636 -0.7159
  159SAPE    HX17682   0.905   5.485   3.399  1.0468 -0.3526  0.0169
  159SAPE    HY17683   0.769   5.420   3.493 -1.5181  0.0034  0.4593
  159SAPE   O3117684   0.871   5.566   3.604  0.1212  0.0075  0.4861
  159SAPE   C3117685   1.000   5.599   3.602  0.1455 -0.2495  0.7000
  159SAPE   O3217686   1.076   5.599   3.508 -0.1230 -0.2164 -0.1240
  159SAPE   C3217687   1.040   5.639   3.743 -0.2284  0.3055  0.1673
  159SAPE   H2X17688   1.026   5.554   3.813 -0.0477  0.4879  0.4278
  159SAPE   H2Y17689   0.977   5.724   3.777  1.6279  2.2613 -1.0172
  159SAPE   C2317690   0.449   5.584   3.775  0.3154  0.1283  0.0250
  159SAPE   H3R17691   0.543   5.531   3.804  0.9198  0.8924 -0.4864
  159SAPE   H3S17692   0.384   5.500   3.742  0.7363  0.0369 -0.6073
  159SAPE   C2417693   0.395   5.652   3.896 -0.2589  0.1583  0.2729
  159SAPE   H4R17694   0.295   5.688   3.865 -1.3125 -1.7390  1.2679
  159SAPE   H4S17695   0.464   5.739   3.906 -1.1884  0.8383  0.9067
  159SAPE   C2517696   0.386   5.560   4.011 -0.0735 -0.6966 -0.2146
  159SAPE   H5R17697   0.372   5.453   3.991 -0.0700 -0.5459 -1.0936
  159SAPE   C2617698   0.390   5.603   4.137 -0.4954  0.1068  0.3304
  159SAPE   H6R17699   0.379   5.529   4.217  0.8966  0.7554  1.1603
  159SAPE   C2717700   0.402   5.742   4.192 -0.1615 -0.2299 -0.0385
  159SAPE   H7R17701   0.357   5.739   4.294 -1.5638  1.0194 -0.5759
  159SAPE   H7S17702   0.323   5.803   4.143 -3.0315 -2.9561  0.8112
  159SAPE   C2817703   0.533   5.821   4.196 -0.2316  0.1593 -0.5645
  159SAPE   H8R17704   0.594   5.796   4.107 -1.1680 -2.7041 -0.5080
  159SAPE   C2917705   0.583   5.895   4.296 -0.0110  0.1070 -0.4385
  159SAPE   H9R17706   0.687   5.931   4.304 -0.8158  2.7877 -1.1144
  159SAPE  C21017707   0.506   5.918   4.424 -0.5058 -0.7780  0.0585
  159SAPE  H10R17708   0.499   5.829   4.490 -1.5512  1.2212  2.8308
  159SAPE  H10S17709   0.402   5.945   4.396  0.5162  2.0775 -1.2767
  159SAPE  C21117710   0.558   6.035   4.509 -0.4086 -0.0705  0.8077
  159SAPE  H11R17711   0.547   6.130   4.455 -0.1011 -0.6734 -0.3505
  159SAPE  C21217712   0.614   6.040   4.628  0.0208 -0.1461  0.3295
  159SAPE  H12R17713   0.626   6.137   4.677  0.5568  0.1141 -0.3084
  159SAPE  C21317714   0.618   5.920   4.715 -0.1123 -0.9462 -0.1479
  159SAPE  H13R17715   0.684   5.849   4.661  1.1085  1.0771 -1.4685
  159SAPE  H13S17716   0.515   5.879   4.727 -0.0028 -1.3293 -0.4996
  159SAPE  C21417717   0.688   5.954   4.843 -0.0605 -0.9422 -0.4491
  159SAPE  H14R17718   0.790   5.994   4.845 -0.1776 -0.6325 -0.6460
  159SAPE  C21517719   0.626   5.954   4.964 -1.1036  0.5909  0.6778
  159SAPE  H15R17720   0.675   5.976   5.060  1.0317 -1.3346  0.1113
  159SAPE  C21617721   0.483   5.920   4.978 -0.6937 -0.2769  0.2867
  159SAPE  H16R17722   0.465   5.887   5.082 -1.6651  3.2237  1.3628
  159SAPE  H16S17723   0.442   5.842   4.910  0.2504  0.9183 -1.7486
  159SAPE  C21717724   0.409   6.050   4.969  0.4717  0.1245 -0.1249
  159SAPE  H17R17725   0.301   6.026   4.975  0.4398  0.0629 -0.8539
  159SAPE  H17S17726   0.424   6.083   4.864 -1.1767  1.5079  0.0548
  159SAPE  C21817727   0.442   6.150   5.079 -0.0162 -0.2825  0.0547
  159SAPE  H18R17728   0.377   6.240   5.071  1.8495  1.1785  0.5723
  159SAPE  H18S17729   0.547   6.186   5.075  0.2907 -1.0680  0.6839
  159SAPE  C21917730   0.400   6.112   5.224 -0.0202 -0.2082 -0.0496
  159SAPE  H19R17731   0.454   6.027   5.271  0.2577  1.6863  3.4345
  159SAPE  H19S17732   0.293   6.083   5.230 -0.2590  0.3897 -1.2166
  159SAPE  C22017733   0.418   6.235   5.315 -0.3475 -0.1320 -0.4635
  159SAPE  H20R17734   0.351   6.318   5.285 -1.5268 -0.3464  1.4407
  159SAPE  H20S17735   0.518   6.281   5.299 -0.5813  0.7476  0.4833
  159SAPE  H20T17736   0.409   6.215   5.424 -1.0928 -0.8779 -0.6545
  159SAPE   C3317737   1.185   5.686   3.745 -0.0189 -0.4870 -0.0199
  159SAPE   H3X17738   1.206   5.760   3.664  0.0921 -0.3974  0.0905
  159SAPE   H3Y17739   1.250   5.599   3.723  2.7698  1.7139 -1.0645
  159SAPE   C3417740   1.237   5.745   3.883 -0.5168 -0.3429  0.3368
  159SAPE   H4X17741   1.158   5.810   3.926  0.0435  0.7154 -0.1808
  159SAPE   H4Y17742   1.329   5.805   3.867 -1.0629  0.2161 -0.7586
  159SAPE   C3517743   1.273   5.634   3.977  0.3430  0.4699 -0.2735
  159SAPE   H5X17744   1.341   5.563   3.926 -1.5390  0.3009 -2.7249
  159SAPE   H5Y17745   1.175   5.587   3.994  0.6929 -0.6499 -1.2634
  159SAPE   C3617746   1.345   5.679   4.100 -0.7014 -0.0339  0.2589
  159SAPE   H6X17747   1.295   5.765   4.150  1.4101  1.6728 -0.4004
  159SAPE   H6Y17748   1.441   5.716   4.057 -0.5568 -1.4631 -0.7095
  159SAPE   C3717749   1.371   5.572   4.199 -0.4790 -0.4737  0.4066
  159SAPE   H7X17750   1.427   5.489   4.152 -3.7216 -1.2896 -2.3812
  159SAPE   H7Y17751   1.270   5.529   4.215  0.3853 -2.1483  1.7710
  159SAPE   C3817752   1.432   5.621   4.330  0.0432 -0.0667  0.3717
  159SAPE   H8X17753   1.354   5.690   4.367 -0.5129 -0.9348  0.8683
  159SAPE   H8Y17754   1.524   5.671   4.292 -0.9816  1.3711 -0.3079
  159SAPE   C3917755   1.464   5.528   4.440  0.3471 -0.3232 -0.5024
  159SAPE   H9X17756   1.541   5.461   4.396  1.2951  0.6265 -0.3234
  159SAPE   H9Y17757   1.383   5.465   4.483  1.3410 -0.7335  0.8214
  159SAPE  C31017758   1.515   5.604   4.567 -0.0373  0.0869  0.3808
  159SAPE  H10X17759   1.433   5.673   4.596 -1.2242 -0.6544 -1.1228
  159SAPE  H10Y17760   1.604   5.671   4.554  0.5619 -1.0518 -1.8625
  159SAPE  C31117761   1.547   5.519   4.687  0.2033  0.0715 -0.3148
  159SAPE  H11X17762   1.605   5.431   4.651 -1.3393 -0.6780 -1.0642
  159SAPE  H11Y17763   1.453   5.484   4.736 -1.2308  0.8910 -2.3488
  159SAPE  C31217764   1.629   5.595   4.794  0.0620  0.1843  0.2635
  159SAPE  H12X17765   1.585   5.694   4.815  0.0045  0.4704 -1.1273
  159SAPE  H12Y17766   1.726   5.621   4.747  0.2687  0.9200  1.0649
  159SAPE  C31317767   1.652   5.519   4.920 -0.2189 -0.6492 -0.1354
  159SAPE  H13X17768   1.692   5.416   4.901 -1.2337 -1.0875  0.0565
  159SAPE  H13Y17769   1.557   5.494   4.971 -1.7629  0.9041 -2.0821
  159SAPE  C31417770   1.751   5.595   5.014  0.6919 -0.0937  0.2867
  159SAPE  H14X17771   1.853   5.590   4.970  0.7161 -2.0687  0.4757
  159SAPE  H14Y17772   1.758   5.544   5.112  0.0812  0.2905  0.5359
  159SAPE  C31517773   1.698   5.741   5.037 -0.0815 -0.0743  0.2329
  159SAPE  H15X17774   1.589   5.748   5.057  0.4422  1.6202  3.1332
  159SAPE  H15Y17775   1.733   5.796   4.947  1.8806 -0.7507  0.5225
  159SAPE  C31617776   1.756   5.816   5.163 -0.4434  0.3078  0.1630
  159SAPE  H16X17777   1.851   5.766   5.190 -0.2302 -0.3027 -1.5739
  159SAPE  H16Y17778   1.687   5.804   5.248 -3.0122 -0.1133 -1.8536
  159SAPE  C31717779   1.801   5.960   5.137  0.1898  0.2657  0.3066
  159SAPE  H17X17780   1.712   6.011   5.093  0.4672 -1.3612 -2.3379
  159SAPE  H17Y17781   1.878   5.962   5.058  0.3347  0.2066  0.4454
  159SAPE  C31817782   1.843   6.045   5.255 -0.1917  0.4237 -0.1046
  159SAPE  H18X17783   1.914   5.983   5.315 -0.6157 -0.6424 -0.6941
  159SAPE  H18Y17784   1.754   6.073   5.315  0.4473  1.1862  0.5271
  159SAPE  H18Z17785   1.899   6.139   5.233 -0.6305  0.9236  0.8154
  160SAPE     N17786   1.067   1.022   3.371 -0.0511 -0.1103  0.6853
  160SAPE   HN117787   1.104   1.019   3.273 -0.3983 -0.7660  0.5715
  160SAPE   HN217788   1.048   1.123   3.387 -2.2684 -0.2419 -0.7365
  160SAPE   HN317789   1.143   0.986   3.432 -1.0519 -1.9608  0.9033
  160SAPE   C1217790   0.943   0.948   3.386  0.4721 -0.1078 -0.6302
  160SAPE  H12A17791   0.958   0.886   3.477 -0.1408  0.1432 -0.3491
  160SAPE  H12B17792   0.922   0.872   3.308 -0.9038 -2.9591  2.2889
  160SAPE   C1117793   0.819   1.043   3.400  0.5027  0.1789  0.0351
  160SAPE  H11A17794   0.842   1.101   3.493 -0.8597  0.5091  0.1801
  160SAPE  H11B17795   0.730   0.978   3.408  0.1042  0.4654 -1.6244
  160SAPE     P17796   0.753   1.267   3.286 -0.1308  0.1533  0.1780
  160SAPE   O1317797   0.854   1.366   3.324 -0.0517  0.0101 -0.2227
  160SAPE   O1417798   0.681   1.297   3.165 -0.0716 -0.5562 -0.7598
  160SAPE   O1217799   0.824   1.125   3.286  0.0976 -0.1382  0.4084
  160SAPE   O1117800   0.645   1.257   3.400 -0.4945 -0.2247  0.4321
  160SAPE    C117801   0.575   1.371   3.445 -0.7847  0.1627  0.1802
  160SAPE    HA17802   0.581   1.459   3.376 -0.8474  0.4360  0.5197
  160SAPE    HB17803   0.468   1.348   3.457 -1.0517 -1.1929 -3.4888
  160SAPE    C217804   0.614   1.397   3.592 -0.3121 -0.7282 -0.0632
  160SAPE    HS17805   0.541   1.472   3.629  0.6778  1.2226 -1.8463
  160SAPE   O2117806   0.753   1.445   3.608  0.1184  0.2748  0.4312
  160SAPE   C2117807   0.775   1.567   3.606  0.5866 -0.5047  1.1358
  160SAPE   O2217808   0.691   1.655   3.584 -0.1240 -0.4482  0.1019
  160SAPE   C2217809   0.926   1.608   3.617 -0.0967 -0.1825 -0.4312
  160SAPE   H2R17810   0.979   1.551   3.538 -0.7111  0.3899 -1.2820
  160SAPE   H2S17811   0.921   1.716   3.591 -1.5750  0.0901  0.8117
  160SAPE    C317812   0.614   1.273   3.687  0.6360  0.3669  0.7452
  160SAPE    HX17813   0.698   1.207   3.655  0.5943  1.4405 -1.8630
  160SAPE    HY17814   0.524   1.208   3.674  1.7931 -1.0002 -0.9759
  160SAPE   O3117815   0.613   1.316   3.827  0.2476 -0.0599  0.3692
  160SAPE   C3117816   0.674   1.242   3.918 -0.8680  0.6779  0.3731
  160SAPE   O3217817   0.728   1.134   3.898 -0.0291  0.0651  0.1857
  160SAPE   C3217818   0.642   1.300   4.056 -0.2246 -0.2576 -0.3198
  160SAPE   H2X17819   0.531   1.306   4.054 -0.1451  1.9757 -0.6919
  160SAPE   H2Y17820   0.676   1.406   4.055 -1.0751  0.0275  0.0141
  160SAPE   C2317821   0.989   1.576   3.755 -0.2456  0.6867  0.4553
  160SAPE   H3R17822   1.098   1.592   3.753 -0.2186  1.0573  2.6661
  160SAPE   H3S17823   0.956   1.472   3.780  0.4857  0.2504 -0.3494
  160SAPE   C2417824   0.955   1.666   3.875 -0.6014 -0.6041 -0.2026
  160SAPE   H4R17825   0.862   1.629   3.924  0.4267 -0.3052  2.1114
  160SAPE   H4S17826   0.939   1.766   3.830 -0.9221 -1.0208 -1.0312
  160SAPE   C2517827   1.067   1.673   3.979 -0.3292 -0.3767  0.3828
  160SAPE   H5R17828   1.150   1.736   3.944 -0.3648  0.3266  1.5003
  160SAPE   C2617829   1.070   1.608   4.096  0.3444  0.1785 -0.0354
  160SAPE   H6R17830   1.155   1.607   4.166 -0.9617  1.2930  1.6403
  160SAPE   C2717831   0.958   1.515   4.136 -0.5312  0.0252 -1.4164
  160SAPE   H7R17832   0.987   1.410   4.113  2.6625  0.7891 -1.2834
  160SAPE   H7S17833   0.864   1.529   4.078 -0.8536  0.8252 -0.7114
  160SAPE   C2817834   0.920   1.534   4.281  0.1907  0.1685  0.0481
  160SAPE   H8R17835   0.828   1.592   4.291  1.1428  1.9425 -0.9972
  160SAPE   C2917836   0.980   1.493   4.391  0.5343 -0.0420 -0.6839
  160SAPE   H9R17837   0.937   1.524   4.487  0.9340 -1.8372  0.1122
  160SAPE  C21017838   1.115   1.423   4.396  0.5376 -0.7080  0.2120
  160SAPE  H10R17839   1.153   1.408   4.293  0.1875 -0.4689  0.0470
  160SAPE  H10S17840   1.123   1.324   4.446  2.0541 -0.7680 -0.1102
  160SAPE  C21117841   1.202   1.522   4.462 -0.3914  0.3195  0.1365
  160SAPE  H11R17842   1.267   1.579   4.394 -0.6013  0.1042 -0.2435
  160SAPE  C21217843   1.204   1.548   4.592 -0.3031 -0.5803 -0.0970
  160SAPE  H12R17844   1.269   1.626   4.634  0.0588 -1.1610  0.4416
  160SAPE  C21317845   1.122   1.487   4.702  0.6440 -0.1864  0.4903
  160SAPE  H13R17846   1.061   1.402   4.664 -0.6157  0.8135  0.2009
  160SAPE  H13S17847   1.067   1.577   4.736 -0.4479  0.2512 -2.1531
  160SAPE  C21417848   1.212   1.426   4.806 -0.4197  0.7612  0.5620
  160SAPE  H14R17849   1.297   1.489   4.836  0.7331  0.0185 -1.0178
  160SAPE  C21517850   1.203   1.302   4.864 -0.2055 -0.3875 -0.3622
  160SAPE  H15R17851   1.289   1.278   4.929  1.1260  1.1189 -1.4902
  160SAPE  C21617852   1.096   1.192   4.857  0.4443  0.0221 -0.1246
  160SAPE  H16R17853   1.142   1.093   4.872 -1.0432 -0.6391  0.2502
  160SAPE  H16S17854   1.041   1.187   4.760 -1.5571  2.2588  0.7668
  160SAPE  C21717855   0.978   1.197   4.951  0.0099 -0.3512 -0.7265
  160SAPE  H17R17856   0.998   1.207   5.059  1.7639  1.9996 -1.1765
  160SAPE  H17S17857   0.935   1.094   4.952  0.0483 -0.3685 -0.8122
  160SAPE  C21817858   0.868   1.294   4.913  0.0966 -0.5719 -0.1295
  160SAPE  H18R17859   0.849   1.291   4.803  1.6694  1.6579 -0.5376
  160SAPE  H18S17860   0.914   1.390   4.943 -3.0454  0.2941  2.3340
  160SAPE  C21917861   0.735   1.265   4.985  0.1385 -0.1551 -0.2278
  160SAPE  H19R17862   0.683   1.362   4.973 -0.5733 -0.7725 -2.6388
  160SAPE  H19S17863   0.744   1.260   5.095 -2.0406  1.0143  0.0483
  160SAPE  C22017864   0.652   1.146   4.936  0.7757  0.2013  0.1259
  160SAPE  H20R17865   0.636   1.147   4.826  0.6275 -1.1672  0.1244
  160SAPE  H20S17866   0.547   1.142   4.972  0.5686 -2.4408 -0.5621
  160SAPE  H20T17867   0.706   1.052   4.962 -1.0371 -0.8521  0.2384
  160SAPE   C3317868   0.692   1.232   4.182  0.2093 -0.3177  0.6764
  160SAPE   H3X17869   0.801   1.218   4.164 -0.2885 -1.2255 -2.0925
  160SAPE   H3Y17870   0.659   1.126   4.186  1.2619 -0.7066 -0.3524
  160SAPE   C3417871   0.672   1.300   4.319  0.2575 -0.6240  0.2144
  160SAPE   H4X17872   0.572   1.287   4.365  0.3828 -0.0782  0.6495
  160SAPE   H4Y17873   0.693   1.409   4.316 -2.7017  0.0293  0.2002
  160SAPE   C3517874   0.778   1.229   4.414  0.1911  0.2750  0.2443
  160SAPE   H5X17875   0.766   1.273   4.515 -0.6563 -1.1367  0.7771
  160SAPE   H5Y17876   0.882   1.253   4.381  0.4130 -0.8123  0.1275
  160SAPE   C3617877   0.755   1.079   4.420  0.4560  0.1811 -0.0650
  160SAPE   H6X17878   0.779   1.032   4.322  0.3827  2.4213 -1.2238
  160SAPE   H6Y17879   0.646   1.081   4.443  0.4921  1.2674  0.0705
  160SAPE   C3717880   0.838   1.021   4.532  0.3179  0.3289  0.2644
  160SAPE   H7X17881   0.814   1.088   4.617  0.8330  2.2839 -1.0545
  160SAPE   H7Y17882   0.942   1.045   4.505  0.1567  1.8066  0.8745
  160SAPE   C3817883   0.821   0.857   4.538  0.1064 -0.1357  0.0803
  160SAPE   H8X17884   0.880   0.828   4.449  1.5505  3.0091 -0.1273
  160SAPE   H8Y17885   0.712   0.831   4.541  0.6490 -2.6998 -0.0430
  160SAPE   C3917886   0.880   0.795   4.671 -0.1731 -0.0304  0.1227
  160SAPE   H9X17887   0.888   0.684   4.672  2.1213  0.0568  2.0958
  160SAPE   H9Y17888   0.818   0.818   4.761 -1.2765 -1.5035 -0.2201
  160SAPE  C31017889   1.030   0.833   4.690 -0.2415 -0.3169  0.4165
  160SAPE  H10X17890   1.037   0.939   4.722  0.1940 -0.1692 -0.1543
  160SAPE  H10Y17891   1.088   0.831   4.595  1.6641 -1.0531  1.5387
  160SAPE  C31117892   1.103   0.742   4.792  0.7160  0.3318 -0.0142
  160SAPE  H11X17893   1.210   0.769   4.806  0.6749 -0.7767  3.8472
  160SAPE  H11Y17894   1.097   0.638   4.752  0.7376  0.0225  0.7633
  160SAPE  C31217895   1.042   0.746   4.935 -0.3099 -0.4436 -0.1365
  160SAPE  H12X17896   0.941   0.701   4.944  0.4005 -1.9948  0.5039
  160SAPE  H12Y17897   1.035   0.851   4.968  1.2691  0.1755 -1.6006
  160SAPE  C31317898   1.128   0.670   5.035  0.4178  0.3957 -0.6042
  160SAPE  H13X17899   1.217   0.730   5.065  0.5477 -0.8011  1.5766
  160SAPE  H13Y17900   1.177   0.579   4.994  0.2469 -0.7753  1.6108
  160SAPE  C31417901   1.045   0.632   5.156  1.0211  0.5464  0.4133
  160SAPE  H14X17902   0.977   0.548   5.129 -0.5944  1.3079  1.9002
  160SAPE  H14Y17903   0.989   0.717   5.201 -3.2217 -0.8876 -1.5868
  160SAPE  C31517904   1.131   0.561   5.262 -0.7187 -0.1042  0.0095
  160SAPE  H15X17905   1.210   0.626   5.305  0.0499 -0.1018 -1.3294
  160SAPE  H15Y17906   1.188   0.481   5.209  0.0713  0.7466 -0.4522
  160SAPE  C31617907   1.056   0.503   5.378  0.2392  1.0476 -0.2635
  160SAPE  H16X17908   0.981   0.428   5.345  0.9121  1.3137 -2.5261
  160SAPE  H16Y17909   1.008   0.581   5.441  1.5088  0.5422  1.3835
  160SAPE  C31717910   1.147   0.434   5.474 -0.4992  0.3428  0.3391
  160SAPE  H17X17911   1.241   0.397   5.429 -1.5630 -1.9969 -0.0787
  160SAPE  H17Y17912   1.088   0.347   5.510 -3.0318  0.9817 -1.9106
  160SAPE  C31817913   1.184   0.524   5.589  0.2169  0.1279  0.4054
  160SAPE  H18X17914   1.092   0.544   5.648 -0.5959 -0.0505 -0.7655
  160SAPE  H18Y17915   1.234   0.616   5.554 -0.4897 -0.0458 -1.1302
  160SAPE  H18Z17916   1.253   0.476   5.661  1.6930 -1.0413 -1.6937
  161SAPE     N17917   5.112   6.960   2.713 -0.1594  0.8344 -0.4736
  161SAPE   HN117918   5.198   6.901   2.705  0.9041  2.5121 -2.0111
  161SAPE   HN217919   5.032   6.893   2.715  0.4108  0.1518  0.7567
  161SAPE   HN317920   5.112   7.001   2.618  1.3176  0.5009 -0.6358
  161SAPE   C1217921   5.126   7.050   2.834  0.3591  0.0919  0.5235
  161SAPE  H12A17922   5.079   7.149   2.815  1.7367  0.7709  0.6018
  161SAPE  H12B17923   5.234   7.059   2.857  0.7033  0.6705 -1.2167
  161SAPE   C1117924   5.055   6.990   2.961 -0.5077  0.0845  0.4223
  161SAPE  H11A17925   5.123   7.031   3.039  1.3859 -1.3825 -0.3831
  161SAPE  H11B17926   5.063   6.879   2.964  1.6057  0.1222 -1.3973
  161SAPE     P17927   4.798   6.953   2.928 -0.1127  0.2722  0.0716
  161SAPE   O1317928   4.695   7.057   2.894  0.3094  0.3070  0.1843
  161SAPE   O1417929   4.837   6.865   2.817 -0.1957  0.1918 -0.1564
  161SAPE   O1217930   4.925   7.035   2.975  0.0613 -0.7762 -0.2401
  161SAPE   O1117931   4.756   6.866   3.053 -0.8794 -0.0152 -0.3934
  161SAPE    C117932   4.737   6.933   3.176  0.1211 -0.4411 -0.8382
  161SAPE    HA17933   4.722   7.043   3.165 -1.9742 -0.6832 -0.8802
  161SAPE    HB17934   4.648   6.889   3.226  1.2999 -1.3532  0.5460
  161SAPE    C217935   4.855   6.918   3.273  0.7845  0.8176 -0.5653
  161SAPE    HS17936   4.942   6.940   3.207  2.4321 -0.9319  0.8966
  161SAPE   O2117937   4.863   6.791   3.338 -0.5424  0.1812  0.3304
  161SAPE   C2117938   4.980   6.734   3.336 -0.3920  0.6377 -0.2239
  161SAPE   O2217939   5.081   6.780   3.286 -0.1706  1.1112  0.1258
  161SAPE   C2217940   4.978   6.595   3.406 -0.3113 -0.1743 -0.2633
  161SAPE   H2R17941   4.930   6.525   3.335 -0.6149 -2.4587  2.0287
  161SAPE   H2S17942   5.082   6.559   3.421 -0.4170 -1.7411 -2.7064
  161SAPE    C317943   4.820   7.015   3.387  0.1533  0.0335 -0.7831
  161SAPE    HX17944   4.725   6.991   3.440  1.4368  0.5615  1.9711
  161SAPE    HY17945   4.806   7.110   3.332  0.3245 -0.0308 -0.9376
  161SAPE   O3117946   4.918   7.020   3.495 -0.0312 -0.1230 -0.1732
  161SAPE   C3117947   5.022   7.098   3.464  0.0033  0.2326 -0.1743
  161SAPE   O3217948   5.032   7.164   3.365 -0.2048  0.1971  0.0018
  161SAPE   C3217949   5.140   7.072   3.563  0.4914  0.1761  0.1634
  161SAPE   H2X17950   5.239   7.079   3.514  1.1299 -3.7221  0.5647
  161SAPE   H2Y17951   5.129   6.965   3.593  1.4169  0.5993  2.1116
  161SAPE   C2317952   4.911   6.588   3.541  0.9084  0.6594 -0.4064
  161SAPE   H3R17953   4.908   6.484   3.578  0.1245  0.7902 -0.0596
  161SAPE   H3S17954   4.802   6.607   3.524  0.2343 -0.3803  2.1947
  161SAPE   C2417955   4.948   6.691   3.644  0.2196 -0.1728 -0.2421
  161SAPE   H4R17956   4.890   6.672   3.737  0.1741 -0.3726 -0.3109
  161SAPE   H4S17957   4.918   6.794   3.617  0.3848  0.1446  0.7550
  161SAPE   C2517958   5.098   6.692   3.671  0.6195 -0.2880 -0.1359
  161SAPE   H5R17959   5.150   6.713   3.576 -2.5671 -0.3683 -2.0495
  161SAPE   C2617960   5.166   6.666   3.783 -0.0234  0.3668 -0.0637
  161SAPE   H6R17961   5.271   6.641   3.760 -0.5864 -1.0383 -1.3719
  161SAPE   C2717962   5.109   6.627   3.916  0.0084 -0.1766 -0.4504
  161SAPE   H7R17963   5.066   6.525   3.918 -2.2011  0.6947  0.2737
  161SAPE   H7S17964   5.013   6.682   3.934 -1.4602 -2.4093 -1.0681
  161SAPE   C2817965   5.199   6.664   4.032 -0.1988 -0.2237 -0.7156
  161SAPE   H8R17966   5.302   6.691   4.004 -0.5610 -0.7834 -2.8238
  161SAPE   C2917967   5.168   6.662   4.168  0.0797 -0.2449  0.0597
  161SAPE   H9R17968   5.246   6.704   4.234 -0.5882 -0.1882  0.8246
  161SAPE  C21017969   5.039   6.611   4.221  0.2627  0.2278 -0.5645
  161SAPE  H10R17970   4.969   6.573   4.144  0.5360  1.3159 -1.3673
  161SAPE  H10S17971   4.981   6.694   4.266  2.3492  1.2335  0.4065
  161SAPE  C21117972   5.055   6.491   4.315  0.1909 -0.5931  0.1664
  161SAPE  H11R17973   5.071   6.392   4.271  0.7260 -0.5629  0.2966
  161SAPE  C21217974   5.052   6.493   4.449  0.2378  0.5738  0.2781
  161SAPE  H12R17975   5.097   6.404   4.495  0.9794  1.3603  1.1487
  161SAPE  C21317976   5.034   6.609   4.547  0.1915  0.1667 -0.3527
  161SAPE  H13R17977   4.928   6.617   4.576  1.0401  2.3940  2.4824
  161SAPE  H13S17978   5.065   6.709   4.509 -0.2314  0.7973  0.9224
  161SAPE  C21417979   5.127   6.582   4.661  0.4536  0.1018 -0.2738
  161SAPE  H14R17980   5.236   6.583   4.644  0.3614 -0.8492 -1.0148
  161SAPE  C21517981   5.079   6.554   4.792  0.1487 -0.7030  0.4183
  161SAPE  H15R17982   5.157   6.538   4.868  1.6385 -1.8750 -1.2752
  161SAPE  C21617983   4.933   6.548   4.824 -0.2527  0.2269  0.5308
  161SAPE  H16R17984   4.914   6.487   4.915  0.0074  1.5700  1.5047
  161SAPE  H16S17985   4.881   6.498   4.739 -1.2810  1.3427  0.4850
  161SAPE  C21717986   4.858   6.674   4.862  0.6180 -0.2357 -0.3996
  161SAPE  H17R17987   4.876   6.758   4.791 -0.8822 -1.3581 -2.2014
  161SAPE  H17S17988   4.905   6.708   4.957 -2.0008  2.2103  0.1417
  161SAPE  C21817989   4.708   6.662   4.892 -0.7058 -0.2641 -0.1360
  161SAPE  H18R17990   4.675   6.766   4.913  1.2155  0.4600 -0.4588
  161SAPE  H18S17991   4.681   6.602   4.981 -2.7879 -0.9385 -1.1519
  161SAPE  C21917992   4.626   6.597   4.780 -0.5522 -0.1268 -0.1269
  161SAPE  H19R17993   4.676   6.500   4.763  0.7143 -0.0144  2.5451
  161SAPE  H19S17994   4.639   6.652   4.684 -0.7388  0.5080  0.2073
  161SAPE  C22017995   4.480   6.571   4.806  0.0014 -0.3333 -0.7152
  161SAPE  H20R17996   4.450   6.520   4.711  2.5884 -1.0683 -1.1956
  161SAPE  H20S17997   4.429   6.668   4.825 -1.1134 -1.0147 -0.1646
  161SAPE  H20T17998   4.459   6.505   4.892  1.5884 -0.3224 -0.2922
  161SAPE   C3317999   5.128   7.157   3.694 -0.1564  0.0455 -0.1197
  161SAPE   H3X18000   5.040   7.223   3.676 -1.7448 -2.6850 -3.7930
  161SAPE   H3Y18001   5.218   7.221   3.710  1.2980 -1.8770 -0.2528
  161SAPE   C3418002   5.103   7.067   3.815 -0.1861  0.3733 -0.5138
  161SAPE   H4X18003   5.164   6.975   3.809 -2.3594 -1.0790 -1.8827
  161SAPE   H4Y18004   5.003   7.018   3.809  1.1131 -2.3046 -2.2112
  161SAPE   C3518005   5.124   7.144   3.949 -0.3413  0.2864 -0.2977
  161SAPE   H5X18006   5.068   7.240   3.954  2.1632  1.8217  0.0945
  161SAPE   H5Y18007   5.233   7.153   3.967 -0.6122 -0.0860  1.7291
  161SAPE   C3618008   5.076   7.055   4.074 -0.3899 -1.0611  0.4987
  161SAPE   H6X18009   5.120   6.953   4.060 -0.5028 -0.9848 -0.4862
  161SAPE   H6Y18010   4.966   7.050   4.063 -0.3409  1.3669 -2.1258
  161SAPE   C3718011   5.128   7.104   4.204 -0.6322 -0.4842  0.2485
  161SAPE   H7X18012   5.104   7.211   4.221 -0.4144 -0.4637  0.4373
  161SAPE   H7Y18013   5.239   7.100   4.199 -0.6106  0.8077 -0.8753
  161SAPE   C3818014   5.089   7.025   4.325  0.5390  0.3301 -0.1344
  161SAPE   H8X18015   5.126   6.922   4.307  0.3441  0.3008 -0.3735
  161SAPE   H8Y18016   4.979   7.030   4.339  0.6488  0.1546  0.8524
  161SAPE   C3918017   5.150   7.091   4.456  0.6242  0.9151  0.4232
  161SAPE   H9X18018   5.087   7.177   4.488  0.5654  1.1964 -0.4106
  161SAPE   H9Y18019   5.254   7.129   4.445  1.2982 -0.4240  1.8347
  161SAPE  C31018020   5.147   6.986   4.570  0.2518 -1.1108  0.4556
  161SAPE  H10X18021   5.227   6.912   4.547  0.6753 -1.4208  2.6817
  161SAPE  H10Y18022   5.052   6.932   4.589  0.5424 -1.3903  1.1654
  161SAPE  C31118023   5.182   7.048   4.708  0.6377 -0.2908  0.1050
  161SAPE  H11X18024   5.112   7.123   4.752  0.3821 -0.9941  0.9328
  161SAPE  H11Y18025   5.280   7.098   4.697 -0.2958  1.0271 -3.8645
  161SAPE  C31218026   5.204   6.934   4.809 -0.1327  0.0516  0.9908
  161SAPE  H12X18027   5.295   6.880   4.774 -1.0223 -0.6171 -0.3997
  161SAPE  H12Y18028   5.113   6.870   4.805  0.3361 -0.5778 -1.9082
  161SAPE  C31318029   5.237   6.998   4.942 -0.2727  0.2048  0.4047
  161SAPE  H13X18030   5.182   7.094   4.953 -0.3159  0.1964  0.2562
  161SAPE  H13Y18031   5.347   7.010   4.944 -0.2589  0.0457  1.6517
  161SAPE  C31418032   5.219   6.894   5.057  0.2903  0.2637  0.3718
  161SAPE  H14X18033   5.116   6.854   5.065  0.4245 -0.4742 -1.3067
  161SAPE  H14Y18034   5.251   6.938   5.154 -1.9075 -3.2675  2.9207
  161SAPE  C31518035   5.318   6.775   5.044  0.6876  0.0536 -1.0472
  161SAPE  H15X18036   5.418   6.821   5.031  1.5095 -1.0456  0.9669
  161SAPE  H15Y18037   5.295   6.718   4.951 -1.2460 -0.3672 -0.3644
  161SAPE  C31618038   5.308   6.692   5.175 -0.1465 -0.0400  0.2284
  161SAPE  H16X18039   5.383   6.611   5.177 -1.7483 -1.5762  0.7227
  161SAPE  H16Y18040   5.205   6.653   5.165 -1.4031  2.8671  0.6155
  161SAPE  C31718041   5.301   6.767   5.313 -0.2262  0.4904 -0.2062
  161SAPE  H17X18042   5.207   6.826   5.324 -1.6116 -1.4685 -0.9930
  161SAPE  H17Y18043   5.385   6.839   5.312 -0.2376  0.5241  0.5062
  161SAPE  C31818044   5.306   6.675   5.430 -0.6163  0.1314  0.0595
  161SAPE  H18X18045   5.335   6.730   5.522 -0.7199  0.1343  0.0913
  161SAPE  H18Y18046   5.380   6.595   5.410 -0.0817  0.7171 -0.3184
  161SAPE  H18Z18047   5.205   6.636   5.455 -1.1963  0.2165 -1.9479
  162SAPE     N18048   4.718   3.337   3.098  0.3963  0.1989  0.9302
  162SAPE   HN118049   4.747   3.422   3.044 -2.3033 -0.8686 -2.6197
  162SAPE   HN218050   4.769   3.340   3.188  1.9957  0.3557  0.0466
  162SAPE   HN318051   4.745   3.257   3.037  0.5628  0.3951  0.7418
  162SAPE   C1218052   4.566   3.355   3.107  0.0960 -0.0666  0.1863
  162SAPE  H12A18053   4.514   3.264   3.145 -1.6438  1.3743  1.3965
  162SAPE  H12B18054   4.526   3.375   3.005 -0.3595  1.6340  0.6680
  162SAPE   C1118055   4.512   3.464   3.196 -0.0885  0.1384 -0.5278
  162SAPE  H11A18056   4.402   3.468   3.208  0.0342  0.3445  0.6645
  162SAPE  H11B18057   4.546   3.561   3.153 -0.2941  0.7094  0.5710
  162SAPE     P18058   4.618   3.589   3.397 -0.2096  0.4756 -0.2034
  162SAPE   O1318059   4.749   3.637   3.336  0.3272  0.8474  0.2256
  162SAPE   O1418060   4.505   3.687   3.396 -0.6096  0.5046  0.8599
  162SAPE   O1218061   4.572   3.454   3.325  0.5226  0.6659  0.4703
  162SAPE   O1118062   4.648   3.539   3.541  0.4396 -0.7530  0.4317
  162SAPE    C118063   4.573   3.429   3.594  0.0272 -0.1040  0.2567
  162SAPE    HA18064   4.496   3.385   3.526 -0.1116  2.3288 -1.2889
  162SAPE    HB18065   4.642   3.354   3.636 -2.6478 -1.6172  2.3049
  162SAPE    C218066   4.479   3.475   3.713  0.4601 -0.9554 -0.3171
  162SAPE    HS18067   4.433   3.567   3.671  1.4894  0.1041  0.8025
  162SAPE   O2118068   4.551   3.499   3.835  0.0153  0.2154  0.6280
  162SAPE   C2118069   4.481   3.558   3.935  0.1869 -0.0638  0.3501
  162SAPE   O2218070   4.370   3.608   3.926 -0.6425  0.0320 -0.4278
  162SAPE   C2218071   4.556   3.538   4.066  0.8556 -0.1346  0.4889
  162SAPE   H2R18072   4.569   3.429   4.082 -4.1351 -0.8878  1.1795
  162SAPE   H2S18073   4.649   3.595   4.048  0.7817 -0.4212 -0.9657
  162SAPE    C318074   4.361   3.378   3.739 -0.2960  0.3249  0.0574
  162SAPE    HX18075   4.312   3.367   3.640 -0.6550 -1.3501  0.3951
  162SAPE    HY18076   4.291   3.406   3.820 -0.1676  0.2780  0.1857
  162SAPE   O3118077   4.411   3.252   3.786 -0.2012  0.4549  0.6806
  162SAPE   C3118078   4.329   3.158   3.817 -0.3599 -0.1953  0.2250
  162SAPE   O3218079   4.207   3.153   3.797 -0.0117 -0.4764 -0.2827
  162SAPE   C3218080   4.409   3.045   3.876  0.5874 -0.7259 -0.4467
  162SAPE   H2X18081   4.473   3.023   3.787  2.0913 -2.7770  1.0472
  162SAPE   H2Y18082   4.339   2.962   3.900 -0.9325  1.0472  1.6420
  162SAPE   C2318083   4.472   3.586   4.186 -0.2219 -0.3206 -0.9509
  162SAPE   H3R18084   4.371   3.542   4.197  0.3182 -1.1033  1.3016
  162SAPE   H3S18085   4.470   3.697   4.199 -1.4515 -0.6066  2.0440
  162SAPE   C2418086   4.541   3.525   4.313 -0.6678 -0.2958  0.1223
  162SAPE   H4R18087   4.540   3.414   4.311 -0.0918 -0.3128  0.4269
  162SAPE   H4S18088   4.478   3.560   4.398  0.3704 -2.6982  2.0163
  162SAPE   C2518089   4.682   3.575   4.330  0.1714  0.1652 -0.4179
  162SAPE   H5R18090   4.731   3.623   4.244  0.5229  1.9509  0.7199
  162SAPE   C2618091   4.748   3.566   4.448  0.3657 -0.6633  0.1268
  162SAPE   H6R18092   4.851   3.603   4.448  0.1577 -0.0253 -1.0951
  162SAPE   C2718093   4.696   3.509   4.575  0.3690  0.3513 -0.1850
  162SAPE   H7R18094   4.724   3.401   4.579 -0.7626  0.0306 -0.6006
  162SAPE   H7S18095   4.586   3.518   4.566  0.4321  0.6567 -0.7151
  162SAPE   C2818096   4.742   3.577   4.702 -0.4171  0.4093 -0.7982
  162SAPE   H8R18097   4.727   3.686   4.707  0.8896  0.5635  2.2852
  162SAPE   C2918098   4.832   3.518   4.793  0.4773 -0.3052 -0.2355
  162SAPE   H9R18099   4.853   3.575   4.885  1.8587 -1.4930  0.2063
  162SAPE  C21018100   4.880   3.372   4.800 -0.2312 -0.0294  0.1912
  162SAPE  H10R18101   4.942   3.357   4.709  0.8427  3.4107  0.2026
  162SAPE  H10S18102   4.794   3.302   4.792 -1.2410  1.2950 -1.2249
  162SAPE  C21118103   4.984   3.343   4.904 -0.1360  0.4004 -0.7273
  162SAPE  H11R18104   5.004   3.418   4.982  1.4692 -0.9214  0.1800
  162SAPE  C21218105   5.059   3.229   4.906 -0.1809  0.1806 -0.0174
  162SAPE  H12R18106   5.145   3.229   4.974  0.2992  3.2613 -0.4954
  162SAPE  C21318107   5.061   3.117   4.798  0.0169 -0.3652  0.5226
  162SAPE  H13R18108   4.962   3.101   4.751  1.0946 -1.1798 -1.5982
  162SAPE  H13S18109   5.089   3.019   4.844  1.4053 -1.0063 -1.5605
  162SAPE  C21418110   5.161   3.177   4.694  0.0031  0.1683  0.2056
  162SAPE  H14R18111   5.147   3.282   4.666 -1.2262 -0.1355 -0.4120
  162SAPE  C21518112   5.257   3.102   4.632 -0.2421 -0.6374  0.2223
  162SAPE  H15R18113   5.310   3.159   4.555 -1.3049  1.5529  1.0181
  162SAPE  C21618114   5.284   2.951   4.650 -0.7874  0.3205  0.0386
  162SAPE  H16R18115   5.275   2.902   4.551  0.9943 -2.5466  1.1867
  162SAPE  H16S18116   5.197   2.910   4.706 -1.3376  0.1476 -0.9183
  162SAPE  C21718117   5.421   2.938   4.725 -1.3140  0.1427 -0.6669
  162SAPE  H17R18118   5.491   2.994   4.659 -0.1293  0.6635  0.9723
  162SAPE  H17S18119   5.449   2.830   4.732  0.5575  0.6135 -0.3762
  162SAPE  C21818120   5.410   3.008   4.864  0.1562  0.0422  0.1592
  162SAPE  H18R18121   5.312   2.992   4.916  0.8457  1.8889  2.1933
  162SAPE  H18S18122   5.420   3.118   4.849  1.0905  0.1140  1.1610
  162SAPE  C21918123   5.516   2.962   4.958  0.6348 -0.4975 -0.3278
  162SAPE  H19R18124   5.616   2.966   4.909  0.0596  0.5306 -1.4598
  162SAPE  H19S18125   5.501   2.854   4.981  3.2653 -0.4516  2.2048
  162SAPE  C22018126   5.516   3.049   5.086 -0.3965 -0.3011 -0.0166
  162SAPE  H20R18127   5.413   3.054   5.126 -0.6537 -1.9444 -0.4277
  162SAPE  H20S18128   5.542   3.154   5.060 -2.8569  0.4993  0.5056
  162SAPE  H20T18129   5.573   3.005   5.171 -0.3042 -0.4733 -0.1675
  162SAPE   C3318130   4.492   3.076   4.002  0.2157 -0.5483 -0.5651
  162SAPE   H3X18131   4.541   3.175   3.999  0.0864 -0.0229  5.1548
  162SAPE   H3Y18132   4.578   3.006   4.001  1.4070  0.6688  2.7866
  162SAPE   C3418133   4.423   3.050   4.138  0.2833  0.4823  0.0212
  162SAPE   H4X18134   4.500   3.010   4.207  1.0355 -2.4643 -2.3129
  162SAPE   H4Y18135   4.356   2.962   4.148 -0.9948  1.5104  0.8491
  162SAPE   C3518136   4.353   3.169   4.200  0.5406 -0.8717 -0.3896
  162SAPE   H5X18137   4.246   3.166   4.169  1.1387 -1.3306 -2.5630
  162SAPE   H5Y18138   4.393   3.263   4.159 -0.2173  0.1986  1.2197
  162SAPE   C3618139   4.353   3.160   4.360 -1.1043  0.0901 -0.4536
  162SAPE   H6X18140   4.461   3.172   4.383 -1.0799 -2.3696  1.0477
  162SAPE   H6Y18141   4.316   3.062   4.396 -0.4081  0.0649  0.2089
  162SAPE   C3718142   4.261   3.265   4.428  0.3368 -0.4917 -0.3541
  162SAPE   H7X18143   4.164   3.245   4.376  0.0340  0.5072 -0.2079
  162SAPE   H7Y18144   4.282   3.372   4.404 -2.4213  0.9066  2.6420
  162SAPE   C3818145   4.250   3.258   4.582  0.0643 -0.4384 -0.4562
  162SAPE   H8X18146   4.202   3.161   4.608 -3.3472  0.9964 -0.8555
  162SAPE   H8Y18147   4.184   3.337   4.623  0.2748 -1.4015  1.8559
  162SAPE   C3918148   4.386   3.260   4.650 -0.2014  0.4395 -0.0995
  162SAPE   H9X18149   4.463   3.315   4.592  0.0504 -1.7065 -1.9680
  162SAPE   H9Y18150   4.442   3.164   4.656  1.3077  1.3156  0.1592
  162SAPE  C31018151   4.376   3.316   4.793 -0.1037  0.5026  0.0141
  162SAPE  H10X18152   4.300   3.265   4.855 -0.6796  1.7848  0.3954
  162SAPE  H10Y18153   4.339   3.421   4.784 -0.2175  0.4613 -0.0009
  162SAPE  C31118154   4.502   3.326   4.870 -0.6912 -0.4197 -0.6328
  162SAPE  H11X18155   4.550   3.419   4.834  0.7441 -0.2831  1.4188
  162SAPE  H11Y18156   4.571   3.244   4.842 -0.3691 -0.0165 -1.0259
  162SAPE  C31218157   4.489   3.342   5.025  0.3259  0.1872 -0.3901
  162SAPE  H12X18158   4.418   3.269   5.069  2.1581 -1.8993 -0.6886
  162SAPE  H12Y18159   4.454   3.442   5.058 -1.9729 -1.1167  1.4038
  162SAPE  C31318160   4.616   3.292   5.094 -0.4286 -0.1300  0.1784
  162SAPE  H13X18161   4.700   3.350   5.050 -2.4726  2.5291 -0.5207
  162SAPE  H13Y18162   4.624   3.185   5.067 -1.3513 -0.0685 -0.4062
  162SAPE  C31418163   4.614   3.309   5.246  0.6922 -0.1379 -0.6039
  162SAPE  H14X18164   4.530   3.252   5.292  0.1810 -0.0668 -1.4353
  162SAPE  H14Y18165   4.593   3.414   5.275 -0.0950 -0.3317 -0.4646
  162SAPE  C31518166   4.754   3.266   5.299  0.6790 -0.2443  0.6253
  162SAPE  H15X18167   4.838   3.325   5.257  0.0755  1.6110  1.8830
  162SAPE  H15Y18168   4.773   3.159   5.278 -1.1624 -0.1726 -1.8623
  162SAPE  C31618169   4.760   3.285   5.445 -0.1714 -0.2490 -0.8452
  162SAPE  H16X18170   4.675   3.236   5.497 -0.5342  0.1593 -1.0410
  162SAPE  H16Y18171   4.746   3.393   5.467  1.0031 -0.0116 -1.2247
  162SAPE  C31718172   4.892   3.238   5.519 -0.4965 -0.2590 -0.1822
  162SAPE  H17X18173   4.982   3.274   5.465 -0.9027  1.2882  0.1299
  162SAPE  H17Y18174   4.891   3.129   5.499 -2.3335 -0.4900  0.8927
  162SAPE  C31818175   4.903   3.262   5.671  0.0246  0.5560  0.2405
  162SAPE  H18X18176   4.886   3.370   5.692 -4.0686 -0.1199  1.3551
  162SAPE  H18Y18177   5.002   3.234   5.712 -0.2238 -1.5157 -0.4650
  162SAPE  H18Z18178   4.827   3.207   5.731  0.4267 -0.6036 -0.2967
  163SAPE     N18179   3.895   5.505   3.257 -0.4349  0.0020  0.0995
  163SAPE   HN118180   3.895   5.608   3.249  2.6828  0.0481 -0.7035
  163SAPE   HN218181   3.952   5.474   3.175 -0.2998 -0.3711  0.3313
  163SAPE   HN318182   3.800   5.463   3.248  0.1540 -0.9903 -2.1020
  163SAPE   C1218183   3.943   5.455   3.391 -0.1936  0.5467  0.1077
  163SAPE  H12A18184   3.858   5.445   3.461 -0.4672 -1.7571 -0.4854
  163SAPE  H12B18185   4.015   5.530   3.431  1.3621  0.7346 -2.7489
  163SAPE   C1118186   4.001   5.314   3.372 -0.0054 -0.1375 -0.1120
  163SAPE  H11A18187   3.929   5.245   3.323  0.0248 -3.5545  4.0528
  163SAPE  H11B18188   4.032   5.265   3.467 -0.4873 -0.2755 -0.0267
  163SAPE     P18189   4.259   5.372   3.336  0.0748  0.1316  0.1949
  163SAPE   O1318190   4.357   5.262   3.327 -0.1710 -0.1765  0.1628
  163SAPE   O1418191   4.286   5.495   3.260 -0.2972 -0.4129  0.1117
  163SAPE   O1218192   4.117   5.326   3.296 -0.7973  0.3576 -0.3841
  163SAPE   O1118193   4.245   5.412   3.487  0.9378  0.3743 -0.3264
  163SAPE    C118194   4.269   5.312   3.593 -0.2113 -0.2895 -0.8895
  163SAPE    HA18195   4.185   5.302   3.665 -1.0492 -1.5862 -2.0058
  163SAPE    HB18196   4.275   5.209   3.553 -4.1767 -0.5206 -1.3607
  163SAPE    C218197   4.390   5.350   3.691 -0.0312 -0.1836  0.3104
  163SAPE    HS18198   4.485   5.379   3.641  0.6937  0.4583  1.9915
  163SAPE   O2118199   4.407   5.258   3.793 -0.0767 -0.0005 -0.0479
  163SAPE   C2118200   4.460   5.140   3.747  0.1188 -0.2176  0.1485
  163SAPE   O2218201   4.513   5.115   3.637 -0.1856 -0.7961  0.2223
  163SAPE   C2218202   4.418   5.036   3.851 -0.0813 -0.1893  0.3303
  163SAPE   H2R18203   4.309   5.051   3.864 -0.3998 -1.7899 -0.2680
  163SAPE   H2S18204   4.428   4.933   3.810  0.5582  0.6256 -1.7174
  163SAPE    C318205   4.367   5.490   3.750 -0.1287 -0.1785 -0.0645
  163SAPE    HX18206   4.363   5.563   3.666 -0.0929 -0.1207 -0.0155
  163SAPE    HY18207   4.461   5.508   3.806 -1.0434  0.0283  1.4437
  163SAPE   O3118208   4.248   5.508   3.825 -0.1649 -0.1479  0.7532
  163SAPE   C3118209   4.241   5.479   3.954  0.2753  0.2470  0.3508
  163SAPE   O3218210   4.338   5.457   4.025  0.1996  0.1631  0.7363
  163SAPE   C3218211   4.092   5.502   3.999  0.1502  0.5821  0.3309
  163SAPE   H2X18212   4.040   5.408   3.973  0.9737  0.0394  0.6259
  163SAPE   H2Y18213   4.044   5.575   3.930 -0.7846  0.6804  1.0722
  163SAPE   C2318214   4.488   5.053   3.982  0.3990 -0.8414  0.0665
  163SAPE   H3R18215   4.464   5.146   4.038 -1.4294 -0.4526 -1.2982
  163SAPE   H3S18216   4.595   5.069   3.955  0.4335 -1.4327 -0.1534
  163SAPE   C2418217   4.477   4.934   4.080  0.3225  0.4288  0.1116
  163SAPE   H4R18218   4.549   4.961   4.159  1.6710  2.1194 -1.6143
  163SAPE   H4S18219   4.538   4.847   4.049  0.2471  1.1754 -2.3454
  163SAPE   C2518220   4.340   4.880   4.118  0.6209 -0.1976  0.5841
  163SAPE   H5R18221   4.296   4.809   4.047 -1.2592  1.5732 -0.1222
  163SAPE   C2618222   4.263   4.898   4.230 -0.5141  0.7593  0.1754
  163SAPE   H6R18223   4.172   4.837   4.228 -0.7232  1.0377 -2.5950
  163SAPE   C2718224   4.306   4.985   4.346  0.1447  0.3471 -0.8325
  163SAPE   H7R18225   4.413   4.966   4.370  0.5189  0.6741 -2.1847
  163SAPE   H7S18226   4.250   4.945   4.434  1.1158 -0.4434 -0.5576
  163SAPE   C2818227   4.295   5.126   4.312  0.1594  0.8656  0.1844
  163SAPE   H8R18228   4.353   5.160   4.225  1.3172 -0.1325  0.5173
  163SAPE   C2918229   4.202   5.214   4.364 -0.3625 -0.1030 -0.4395
  163SAPE   H9R18230   4.190   5.313   4.317  0.1769  0.7610  1.1903
  163SAPE  C21018231   4.105   5.191   4.480 -0.3089  0.4656  0.1634
  163SAPE  H10R18232   4.082   5.083   4.470  2.0414 -0.2942  1.8440
  163SAPE  H10S18233   4.007   5.237   4.455 -0.9958 -0.4748  1.0348
  163SAPE  C21118234   4.152   5.229   4.624 -0.3134 -0.5745 -0.4341
  163SAPE  H11R18235   4.260   5.223   4.645 -0.1952  0.6100 -0.6136
  163SAPE  C21218236   4.067   5.265   4.717 -0.2080 -0.7857 -0.2036
  163SAPE  H12R18237   4.106   5.299   4.814  1.3536 -1.5620 -0.5087
  163SAPE  C21318238   3.922   5.252   4.695 -0.0507 -0.0116  0.2540
  163SAPE  H13R18239   3.877   5.226   4.597 -0.5874 -1.1951  0.7858
  163SAPE  H13S18240   3.872   5.349   4.714 -1.0121 -0.5199  0.4105
  163SAPE  C21418241   3.887   5.135   4.787 -0.3994 -0.4667  0.6727
  163SAPE  H14R18242   3.958   5.051   4.777  2.6893  1.9970  0.1960
  163SAPE  C21518243   3.788   5.124   4.875  0.6240 -0.1108  0.3151
  163SAPE  H15R18244   3.778   5.029   4.929 -1.0622  0.5582  1.2393
  163SAPE  C21618245   3.677   5.225   4.902 -0.8301  0.4680  0.6599
  163SAPE  H16R18246   3.576   5.182   4.888 -0.3172 -0.4555 -0.4381
  163SAPE  H16S18247   3.679   5.309   4.829 -2.2968 -0.4807 -0.5312
  163SAPE  C21718248   3.687   5.299   5.042  0.1073  0.0500  0.4853
  163SAPE  H17R18249   3.795   5.321   5.059  0.0178  0.7815  0.1677
  163SAPE  H17S18250   3.654   5.227   5.119  0.1493  0.8896  1.3134
  163SAPE  C21818251   3.609   5.424   5.044  0.7505 -0.5551 -0.0831
  163SAPE  H18R18252   3.501   5.401   5.054  0.9115 -1.2633  0.0985
  163SAPE  H18S18253   3.625   5.488   4.954  0.4477 -1.3224 -0.6983
  163SAPE  C21918254   3.634   5.511   5.161  0.2446 -0.6850 -0.6133
  163SAPE  H19R18255   3.737   5.550   5.146  1.0581 -2.3245  0.3974
  163SAPE  H19S18256   3.635   5.456   5.258  0.8350  1.0535  0.4308
  163SAPE  C22018257   3.537   5.624   5.179 -0.1674 -0.7875 -0.6545
  163SAPE  H20R18258   3.543   5.661   5.284  2.0389  0.2349 -1.0859
  163SAPE  H20S18259   3.434   5.590   5.157 -0.2843 -1.2403  0.5475
  163SAPE  H20T18260   3.554   5.709   5.109 -1.9428 -0.3596 -0.6150
  163SAPE   C3318261   4.068   5.535   4.145 -1.2128 -0.3610  0.2857
  163SAPE   H3X18262   4.118   5.627   4.182 -1.7478  0.2237 -0.4174
  163SAPE   H3Y18263   4.113   5.452   4.205  0.0605 -0.7686 -1.1669
  163SAPE   C3418264   3.914   5.559   4.175 -0.3114  0.3517  0.1240
  163SAPE   H4X18265   3.858   5.469   4.141 -0.4877  1.2162 -2.0250
  163SAPE   H4Y18266   3.866   5.630   4.104 -3.1470 -1.6876 -0.1835
  163SAPE   C3518267   3.900   5.602   4.323  0.4792 -0.2049  0.3760
  163SAPE   H5X18268   3.960   5.695   4.334 -1.0751  0.8569  0.2607
  163SAPE   H5Y18269   3.940   5.517   4.383 -0.5200  0.1540  1.6035
  163SAPE   C3618270   3.750   5.632   4.358 -0.9559  0.1633 -0.5027
  163SAPE   H6X18271   3.699   5.538   4.329 -0.9793 -0.0812  0.3062
  163SAPE   H6Y18272   3.708   5.711   4.292  0.3253  0.4225 -1.0343
  163SAPE   C3718273   3.715   5.670   4.503  0.4425 -0.1046  0.1353
  163SAPE   H7X18274   3.768   5.761   4.537  1.0237 -0.7689  1.0263
  163SAPE   H7Y18275   3.758   5.589   4.565 -0.3305 -2.3612 -2.1150
  163SAPE   C3818276   3.560   5.682   4.523 -0.2721 -0.3919  0.5357
  163SAPE   H8X18277   3.523   5.579   4.503 -0.9889  0.1225 -0.9317
  163SAPE   H8Y18278   3.508   5.752   4.454  0.2182  0.4500  1.0018
  163SAPE   C3918279   3.530   5.727   4.664  0.0207 -0.6950 -0.5938
  163SAPE   H9X18280   3.582   5.821   4.695  0.5189 -0.8583 -0.9346
  163SAPE   H9Y18281   3.570   5.658   4.742 -0.4831 -0.5305 -0.1801
  163SAPE  C31018282   3.377   5.741   4.690  0.3053  0.4935  0.1161
  163SAPE  H10X18283   3.325   5.655   4.642  1.7491  0.3077 -1.2026
  163SAPE  H10Y18284   3.339   5.833   4.641 -0.6129  1.0790  1.8728
  163SAPE  C31118285   3.356   5.754   4.843  0.3860 -0.2948 -0.0233
  163SAPE  H11X18286   3.419   5.840   4.875 -0.3106  0.7879 -1.4398
  163SAPE  H11Y18287   3.385   5.659   4.893  0.0118 -0.9535 -1.0342
  163SAPE  C31218288   3.201   5.784   4.871 -0.2383 -0.1604  0.1786
  163SAPE  H12X18289   3.140   5.704   4.822  0.7217 -0.1890 -1.0153
  163SAPE  H12Y18290   3.162   5.880   4.831 -1.5966 -0.5730  0.4412
  163SAPE  C31318291   3.169   5.775   5.022 -0.1867  0.3315  0.2803
  163SAPE  H13X18292   3.217   5.865   5.064  2.3168  0.2554 -2.1158
  163SAPE  H13Y18293   3.222   5.689   5.067  1.1588  1.8238  1.6522
  163SAPE  C31418294   3.015   5.769   5.056  0.1030  0.0303 -0.2997
  163SAPE  H14X18295   3.009   5.754   5.166  0.9824  0.0325 -0.2442
  163SAPE  H14Y18296   2.972   5.676   5.013 -0.2419  0.3727 -0.7022
  163SAPE  C31518297   2.927   5.895   5.027 -0.0761  0.3919 -0.7836
  163SAPE  H15X18298   2.924   5.906   4.916 -0.5867 -1.7781 -1.0339
  163SAPE  H15Y18299   2.964   5.981   5.085 -1.8211 -0.4728  1.7780
  163SAPE  C31618300   2.780   5.876   5.065  0.2799  0.5295 -0.5167
  163SAPE  H16X18301   2.779   5.854   5.173 -1.3523  0.3545 -0.5348
  163SAPE  H16Y18302   2.738   5.779   5.030  1.2825 -0.4413  0.8804
  163SAPE  C31718303   2.681   5.988   5.027 -0.4235  0.5691  0.4241
  163SAPE  H17X18304   2.678   5.997   4.916  2.7070  1.2074  0.3046
  163SAPE  H17Y18305   2.707   6.081   5.081 -2.1291  0.9888  0.5975
  163SAPE  C31818306   2.534   5.950   5.081  0.2506  0.1061 -0.4423
  163SAPE  H18X18307   2.501   5.853   5.038 -1.0059  1.3223 -2.3955
  163SAPE  H18Y18308   2.464   6.028   5.044  0.6889 -0.9519 -3.8513
  163SAPE  H18Z18309   2.545   5.931   5.190 -0.4661 -3.5607 -0.8630
  164SAPE     N18310   0.155   4.577   3.283  0.3042 -0.4453 -0.2910
  164SAPE   HN118311   0.177   4.589   3.384  1.4284 -3.4004 -0.0669
  164SAPE   HN218312   0.227   4.519   3.237 -1.9590 -2.3096 -1.7411
  164SAPE   HN318313   0.134   4.668   3.238  1.3909  0.3267  0.7188
  164SAPE   C1218314   0.032   4.490   3.276  0.6584  0.4606 -0.7646
  164SAPE  H12A18315  -0.049   4.553   3.317  0.5109 -1.6326  2.5470
  164SAPE  H12B18316   0.039   4.410   3.353  1.5897 -0.5908 -1.9006
  164SAPE   C1118317   0.002   4.432   3.137 -0.1470 -0.3513 -0.1759
  164SAPE  H11A18318  -0.005   4.523   3.072 -0.2501  0.5185  1.0159
  164SAPE  H11B18319  -0.091   4.371   3.131 -0.0967 -0.4277 -0.1790
  164SAPE     P18320   0.127   4.195   3.119  0.2668  0.0493  0.3813
  164SAPE   O1318321   0.010   4.137   3.048 -0.0629 -0.1876 -0.3395
  164SAPE   O1418322   0.262   4.151   3.074  0.4073  0.0703 -0.1817
  164SAPE   O1218323   0.116   4.352   3.091  0.2185  0.2404 -0.8512
  164SAPE   O1118324   0.113   4.176   3.276 -0.0073  0.2767  1.0291
  164SAPE    C118325   0.223   4.173   3.362  0.2812  0.2323  0.0972
  164SAPE    HA18326   0.285   4.082   3.343 -0.5303 -0.1211 -0.9920
  164SAPE    HB18327   0.284   4.265   3.356  0.1344  0.3274  0.0522
  164SAPE    C218328   0.177   4.151   3.512 -0.2897  0.9026  0.2552
  164SAPE    HS18329   0.117   4.058   3.506 -1.0287  1.3497  0.4813
  164SAPE   O2118330   0.095   4.258   3.557  0.5390  0.0495  0.2322
  164SAPE   C2118331   0.002   4.232   3.651 -0.5222  0.4798 -0.1079
  164SAPE   O2218332  -0.017   4.123   3.703  0.3206  0.3951 -0.2542
  164SAPE   C2218333  -0.068   4.358   3.691 -0.6604  0.9281  0.2713
  164SAPE   H2R18334  -0.027   4.440   3.628  0.1161 -1.3400 -2.3564
  164SAPE   H2S18335  -0.174   4.337   3.661  0.1080  0.3028 -2.2999
  164SAPE    C318336   0.305   4.131   3.593 -0.1638  0.2907 -0.4368
  164SAPE    HX18337   0.364   4.223   3.574  0.5196 -0.3210 -1.4275
  164SAPE    HY18338   0.364   4.043   3.558  0.5069  0.9322 -0.9406
  164SAPE   O3118339   0.285   4.116   3.731 -0.1977  0.1651 -0.4588
  164SAPE   C3118340   0.259   3.988   3.771 -0.2487  0.1838  0.3980
  164SAPE   O3218341   0.244   3.894   3.697 -0.3424  0.0992  0.1066
  164SAPE   C3218342   0.265   3.979   3.928  0.5167  0.0456 -0.2401
  164SAPE   H2X18343   0.196   4.054   3.972 -0.5484  0.0371 -1.8295
  164SAPE   H2Y18344   0.365   4.013   3.963 -0.4127  2.1792  0.5299
  164SAPE   C2318345  -0.038   4.392   3.841 -0.9985 -0.2681 -0.1635
  164SAPE   H3R18346   0.052   4.457   3.854 -0.9373 -0.3630 -0.1089
  164SAPE   H3S18347  -0.020   4.300   3.900 -1.6884 -1.6661 -2.0348
  164SAPE   C2418348  -0.161   4.458   3.913  0.0541 -0.0867 -0.4350
  164SAPE   H4R18349  -0.194   4.541   3.847 -1.3680 -0.1025  0.2130
  164SAPE   H4S18350  -0.137   4.516   4.005  1.8538 -0.2303 -0.7679
  164SAPE   C2518351  -0.273   4.362   3.950  0.1873 -0.1756  0.1390
  164SAPE   H5R18352  -0.342   4.344   3.867  0.7573  0.0529 -0.3904
  164SAPE   C2618353  -0.296   4.305   4.071 -0.6528 -0.9289 -0.5823
  164SAPE   H6R18354  -0.362   4.218   4.081  1.8883 -3.3058 -2.7605
  164SAPE   C2718355  -0.202   4.330   4.187 -0.1187  1.0383 -0.0142
  164SAPE   H7R18356  -0.097   4.313   4.155 -0.7414 -2.6866 -0.5166
  164SAPE   H7S18357  -0.221   4.259   4.270  2.5297 -0.7947 -0.8452
  164SAPE   C2818358  -0.210   4.468   4.249  0.2839 -0.0476  0.2524
  164SAPE   H8R18359  -0.272   4.530   4.184  2.2079  0.2685 -1.3740
  164SAPE   C2918360  -0.173   4.519   4.367  0.6788  0.4111  0.4281
  164SAPE   H9R18361  -0.209   4.619   4.394  3.6434  2.1393 -1.5245
  164SAPE  C21018362  -0.111   4.437   4.475 -0.8255 -0.0209  0.3462
  164SAPE  H10R18363  -0.034   4.503   4.520 -1.3836  1.3158 -0.5903
  164SAPE  H10S18364  -0.059   4.345   4.441 -0.5697  0.3965 -0.4104
  164SAPE  C21118365  -0.222   4.402   4.572  0.3003 -0.1540  0.6993
  164SAPE  H11R18366  -0.313   4.369   4.521  1.0861 -0.4855 -0.5308
  164SAPE  C21218367  -0.219   4.438   4.694  0.4654 -0.7045 -0.2660
  164SAPE  H12R18368  -0.305   4.415   4.759  0.5958  1.1882  0.6330
  164SAPE  C21318369  -0.100   4.505   4.757  0.3952  0.2888  0.2036
  164SAPE  H13R18370  -0.087   4.608   4.718 -2.6697 -0.0458 -2.0574
  164SAPE  H13S18371  -0.009   4.445   4.735 -0.1474 -0.3696 -0.2972
  164SAPE  C21418372  -0.109   4.503   4.909 -0.1014  0.5118  0.2436
  164SAPE  H14R18373  -0.077   4.406   4.949  1.3209  0.2520 -1.3825
  164SAPE  C21518374  -0.144   4.610   4.983  0.0075  0.1428  0.3462
  164SAPE  H15R18375  -0.144   4.601   5.092  1.3488  1.4661  0.4803
  164SAPE  C21618376  -0.182   4.752   4.931 -0.7174 -0.0812  0.2285
  164SAPE  H16R18377  -0.173   4.778   4.823  2.2519  0.4459  0.5298
  164SAPE  H16S18378  -0.101   4.817   4.969  1.6982 -1.4647 -2.1918
  164SAPE  C21718379  -0.314   4.789   4.999  0.1411  0.3527 -0.2245
  164SAPE  H17R18380  -0.303   4.771   5.108  2.1122  1.3731 -0.1991
  164SAPE  H17S18381  -0.396   4.724   4.963 -1.0504  0.7242  1.7035
  164SAPE  C21818382  -0.348   4.937   4.981  0.1337 -0.7011  0.8099
  164SAPE  H18R18383  -0.365   4.968   4.876  0.8058 -0.5487  0.7432
  164SAPE  H18S18384  -0.264   4.994   5.024 -0.9175  1.1629  0.4985
  164SAPE  C21918385  -0.482   4.983   5.045  0.2835 -0.4791  0.8991
  164SAPE  H19R18386  -0.557   4.901   5.035 -0.3064  0.2089 -0.5613
  164SAPE  H19S18387  -0.506   5.078   4.994 -2.2214 -2.0600 -1.1285
  164SAPE  C22018388  -0.467   5.001   5.195  0.1694 -0.8408  0.2052
  164SAPE  H20R18389  -0.393   5.076   5.230 -0.0644  0.5764 -2.1078
  164SAPE  H20S18390  -0.447   4.901   5.239 -2.0734 -0.8558  1.2817
  164SAPE  H20T18391  -0.567   5.027   5.235 -1.6144  0.1849 -4.3514
  164SAPE   C3318392   0.225   3.842   3.986 -0.2699 -0.0752 -0.2170
  164SAPE   H3X18393   0.124   3.811   3.952  0.0483 -0.9437 -0.3940
  164SAPE   H3Y18394   0.211   3.861   4.094  1.0186  0.2335 -0.0840
  164SAPE   C3418395   0.338   3.738   3.970  0.1185 -0.3142  0.0028
  164SAPE   H4X18396   0.371   3.733   3.864  0.1789  1.6604 -0.0961
  164SAPE   H4Y18397   0.296   3.637   3.989  0.1121 -0.5521 -1.2422
  164SAPE   C3518398   0.462   3.766   4.059 -0.1573 -0.8839 -1.0182
  164SAPE   H5X18399   0.440   3.835   4.144  1.8036 -0.1175 -1.0641
  164SAPE   H5Y18400   0.534   3.823   3.996  0.7359 -1.6535 -0.7014
  164SAPE   C3618401   0.529   3.641   4.099 -0.4571  0.9049  0.3196
  164SAPE   H6X18402   0.530   3.573   4.012 -0.4787  1.3537 -0.0329
  164SAPE   H6Y18403   0.461   3.590   4.172  0.1188  2.4800  2.0411
  164SAPE   C3718404   0.675   3.648   4.161 -0.7036 -0.5478 -0.0504
  164SAPE   H7X18405   0.699   3.551   4.210  0.7335  0.4592  1.3305
  164SAPE   H7Y18406   0.677   3.728   4.238  0.3250 -1.4067  0.8479
  164SAPE   C3818407   0.790   3.683   4.067 -0.0832 -0.6766  0.4168
  164SAPE   H8X18408   0.787   3.794   4.059 -1.0938 -0.7308 -0.2040
  164SAPE   H8Y18409   0.767   3.653   3.962 -2.2568  2.0615  0.0035
  164SAPE   C3918410   0.934   3.637   4.118  0.4162 -0.2752 -0.2159
  164SAPE   H9X18411   1.014   3.676   4.052  1.2175  0.5686  1.2123
  164SAPE   H9Y18412   0.931   3.526   4.114 -0.3641 -0.2659 -0.0443
  164SAPE  C31018413   0.964   3.706   4.253  0.3042 -0.5487 -0.4244
  164SAPE  H10X18414   0.874   3.685   4.314  1.5479 -0.7891  1.4149
  164SAPE  H10Y18415   0.972   3.817   4.254 -1.9325 -0.3324  0.1177
  164SAPE  C31118416   1.084   3.648   4.329 -0.4127 -0.6969  0.1576
  164SAPE  H11X18417   1.075   3.537   4.337  1.1455 -0.7696  1.2587
  164SAPE  H11Y18418   1.088   3.691   4.431 -2.2448 -1.0781  0.4236
  164SAPE  C31218419   1.222   3.673   4.267  0.5717 -0.5641 -0.4311
  164SAPE  H12X18420   1.227   3.780   4.237  0.7647  0.0020  1.5059
  164SAPE  H12Y18421   1.221   3.614   4.173 -1.3264 -2.1078  0.5107
  164SAPE  C31318422   1.334   3.635   4.359  0.0273  0.1549  0.0681
  164SAPE  H13X18423   1.307   3.533   4.391  0.0474 -0.3238 -1.3690
  164SAPE  H13Y18424   1.352   3.699   4.448  2.0443  1.1053 -0.9431
  164SAPE  C31418425   1.464   3.638   4.282 -0.1659  1.0161  0.0697
  164SAPE  H14X18426   1.479   3.742   4.247  0.2764  0.2995 -2.0391
  164SAPE  H14Y18427   1.455   3.576   4.190  0.9326 -0.1084  0.6894
  164SAPE  C31518428   1.579   3.576   4.357  0.7991  0.8978 -0.8717
  164SAPE  H15X18429   1.634   3.503   4.292  2.6696  2.3679 -1.0267
  164SAPE  H15Y18430   1.547   3.507   4.438  0.1803  1.4317 -0.6599
  164SAPE  C31618431   1.681   3.678   4.414  0.9465  0.4427 -0.3179
  164SAPE  H16X18432   1.740   3.631   4.496 -2.3670 -0.4883  1.7191
  164SAPE  H16Y18433   1.620   3.760   4.458 -0.0868 -1.7647  2.6694
  164SAPE  C31718434   1.780   3.731   4.315  0.0850 -0.1077 -0.4557
  164SAPE  H17X18435   1.730   3.790   4.235  2.3984  2.6047 -0.0441
  164SAPE  H17Y18436   1.830   3.654   4.252 -0.6767  1.0645 -2.6112
  164SAPE  C31818437   1.888   3.819   4.371 -0.2361 -0.3115  0.5692
  164SAPE  H18X18438   1.943   3.760   4.448  0.5095 -0.0668  0.2280
  164SAPE  H18Y18439   1.850   3.907   4.427 -1.0720  0.6981 -1.5044
  164SAPE  H18Z18440   1.969   3.852   4.303  2.5498 -0.8124  3.3708
  165SAPE     N18441   4.555   1.060   2.954 -0.0024  0.3829 -0.4336
  165SAPE   HN118442   4.546   1.033   3.054 -1.7829  0.5776 -0.5173
  165SAPE   HN218443   4.589   0.982   2.893  0.5611 -0.4054  0.8476
  165SAPE   HN318444   4.627   1.135   2.965  1.2539 -0.9117  0.5508
  165SAPE   C1218445   4.430   1.115   2.905 -0.3854 -0.6360 -0.0678
  165SAPE  H12A18446   4.352   1.045   2.942 -1.0574  0.2289  0.1891
  165SAPE  H12B18447   4.439   1.120   2.795 -1.3074 -0.2099 -0.1314
  165SAPE   C1118448   4.408   1.256   2.962 -0.4246 -0.2831 -0.7239
  165SAPE  H11A18449   4.393   1.250   3.072 -1.4418  1.5511 -0.7336
  165SAPE  H11B18450   4.313   1.294   2.920  1.3618  2.2762 -2.7288
  165SAPE     P18451   4.636   1.389   2.998 -0.5272 -0.2816 -0.0261
  165SAPE   O1318452   4.712   1.268   3.011  0.0098 -0.2177  0.1209
  165SAPE   O1418453   4.700   1.514   2.950 -0.3765 -0.3110  0.4042
  165SAPE   O1218454   4.508   1.351   2.912  0.5982  0.4247 -0.3617
  165SAPE   O1118455   4.565   1.423   3.128  0.1283 -0.0493 -0.0174
  165SAPE    C118456   4.638   1.467   3.245  0.5345  0.7558 -0.5588
  165SAPE    HA18457   4.729   1.529   3.231  1.3273 -0.4513 -0.9080
  165SAPE    HB18458   4.561   1.526   3.298 -2.2466 -2.4337 -0.7093
  165SAPE    C218459   4.692   1.349   3.341  0.5499  0.2138  1.6447
  165SAPE    HS18460   4.700   1.399   3.440  0.6464  1.8828  0.8181
  165SAPE   O2118461   4.826   1.305   3.289  0.6428 -0.2188 -0.0041
  165SAPE   C2118462   4.922   1.389   3.328  0.4067 -0.2141 -0.6042
  165SAPE   O2218463   4.893   1.487   3.401  0.3016  0.1959 -0.0403
  165SAPE   C2218464   5.062   1.337   3.283  0.4258 -0.2563  0.2706
  165SAPE   H2R18465   5.051   1.347   3.173 -3.7992  0.6562  0.5972
  165SAPE   H2S18466   5.133   1.412   3.322  0.4759 -0.4922  0.6476
  165SAPE    C318467   4.593   1.232   3.344 -0.5848  0.0656 -0.4496
  165SAPE    HX18468   4.597   1.197   3.239 -1.1473 -1.5297  0.0167
  165SAPE    HY18469   4.490   1.254   3.379 -0.7094 -1.1380 -0.0161
  165SAPE   O3118470   4.640   1.111   3.416 -0.0655 -0.3976  0.0990
  165SAPE   C3118471   4.616   1.110   3.546 -0.3365 -0.1971 -0.2030
  165SAPE   O3218472   4.566   1.200   3.612 -0.0795 -0.3667  0.2288
  165SAPE   C3218473   4.657   0.982   3.615 -0.2209  0.2071  0.3524
  165SAPE   H2X18474   4.766   1.004   3.623  0.3214 -0.7551 -2.8884
  165SAPE   H2Y18475   4.647   0.893   3.549  1.4864  1.2417 -1.4209
  165SAPE   C2318476   5.083   1.192   3.336 -0.3682  0.2676  0.3998
  165SAPE   H3R18477   5.186   1.171   3.300  0.1638  1.7885  0.9186
  165SAPE   H3S18478   5.010   1.121   3.292 -0.8710  0.9114  0.1842
  165SAPE   C2418479   5.061   1.169   3.488 -1.0705 -0.0702 -0.0818
  165SAPE   H4R18480   5.066   1.059   3.501 -1.1890 -0.3781 -2.3075
  165SAPE   H4S18481   4.961   1.198   3.527 -0.8940 -1.0063  1.1560
  165SAPE   C2518482   5.169   1.216   3.586  0.5854 -0.3986 -0.4279
  165SAPE   H5R18483   5.208   1.314   3.555  0.7169 -0.6572 -1.0769
  165SAPE   C2618484   5.218   1.139   3.687  0.7878 -0.1818  0.5385
  165SAPE   H6R18485   5.286   1.190   3.757 -0.5967  1.6665  0.6068
  165SAPE   C2718486   5.183   0.998   3.725  0.1988 -0.2535 -1.1043
  165SAPE   H7R18487   5.251   0.937   3.663  0.5118 -0.8719 -0.1828
  165SAPE   H7S18488   5.081   0.976   3.689 -1.9551  2.8227  2.3462
  165SAPE   C2818489   5.197   0.955   3.874  0.0743  0.2915 -0.4395
  165SAPE   H8R18490   5.295   0.915   3.905 -0.9648 -0.8112  1.5950
  165SAPE   C2918491   5.104   0.973   3.971  0.3590  0.3368 -1.0916
  165SAPE   H9R18492   5.120   0.929   4.070 -0.6794  2.6219  0.1764
  165SAPE  C21018493   4.965   1.018   3.942  1.0567 -0.4924 -0.5353
  165SAPE  H10R18494   4.888   0.951   3.985  1.0958 -1.1513 -1.4483
  165SAPE  H10S18495   4.942   1.025   3.833 -2.0502 -0.2075  0.0253
  165SAPE  C21118496   4.950   1.163   3.981 -0.0750  0.2179  0.4049
  165SAPE  H11R18497   4.998   1.240   3.918 -5.8944  3.3796 -0.8284
  165SAPE  C21218498   4.870   1.213   4.083 -0.0281  0.0071 -0.2995
  165SAPE  H12R18499   4.864   1.323   4.085  3.1652  0.4183 -3.0764
  165SAPE  C21318500   4.791   1.135   4.186 -0.2641 -0.7348  0.4766
  165SAPE  H13R18501   4.749   1.046   4.135 -0.4490 -2.2169  3.0621
  165SAPE  H13S18502   4.709   1.199   4.226  0.2770 -0.4378  1.1271
  165SAPE  C21418503   4.873   1.084   4.295  0.1875  0.1536  0.2690
  165SAPE  H14R18504   4.937   1.004   4.254 -2.7708 -1.5087 -1.4522
  165SAPE  C21518505   4.871   1.097   4.426  0.1799 -0.8881 -0.0412
  165SAPE  H15R18506   4.936   1.039   4.493  2.1534 -0.6521 -1.6606
  165SAPE  C21618507   4.789   1.207   4.504 -0.3806  0.3448 -0.2749
  165SAPE  H16R18508   4.719   1.157   4.575 -1.8382  0.5947 -1.4823
  165SAPE  H16S18509   4.716   1.271   4.450 -0.6338 -1.7656 -2.6516
  165SAPE  C21718510   4.896   1.292   4.575  0.1623  0.2164 -0.2311
  165SAPE  H17R18511   4.983   1.315   4.511  1.1842 -2.3582  0.1207
  165SAPE  H17S18512   4.938   1.227   4.655  0.4565  1.2901  0.5182
  165SAPE  C21818513   4.842   1.421   4.632 -0.2318  0.5141 -0.5420
  165SAPE  H18R18514   4.752   1.407   4.696 -0.1805  1.3564 -0.2705
  165SAPE  H18S18515   4.816   1.503   4.561 -0.2899  1.7866  0.8821
  165SAPE  C21918516   4.953   1.473   4.722  0.0395  0.6272 -0.0949
  165SAPE  H19R18517   5.043   1.490   4.659 -0.0979 -0.2293 -0.5321
  165SAPE  H19S18518   4.977   1.397   4.798  1.5237  0.0537 -1.0751
  165SAPE  C22018519   4.919   1.602   4.788  0.1537 -0.1624 -0.3088
  165SAPE  H20R18520   4.835   1.578   4.857  1.2214  0.4053  1.2547
  165SAPE  H20S18521   4.891   1.675   4.709 -3.1574 -0.3271  0.5623
  165SAPE  H20T18522   4.993   1.651   4.856 -0.1221  2.8142 -1.9664
  165SAPE   C3318523   4.605   0.959   3.758  0.5018 -0.2732  0.1803
  165SAPE   H3X18524   4.620   1.052   3.818  1.0570 -0.5321  0.4561
  165SAPE   H3Y18525   4.672   0.880   3.798 -0.4903 -0.5800  1.2898
  165SAPE   C3418526   4.462   0.915   3.761  0.0077  0.9173 -0.6454
  165SAPE   H4X18527   4.460   0.816   3.711  0.2549 -0.0973  1.2609
  165SAPE   H4Y18528   4.398   0.994   3.717  1.0519  1.1730 -1.7456
  165SAPE   C3518529   4.420   0.905   3.912 -0.0660  0.3517  0.8871
  165SAPE   H5X18530   4.315   0.870   3.903  0.1093  0.0775 -0.2138
  165SAPE   H5Y18531   4.436   1.005   3.956 -1.4392  2.6787 -3.3387
  165SAPE   C3618532   4.507   0.807   4.007  0.2695  0.8106 -0.0257
  165SAPE   H6X18533   4.611   0.846   4.002  0.1310  1.1049 -0.6355
  165SAPE   H6Y18534   4.500   0.714   3.947 -0.4489  0.0236  1.2288
  165SAPE   C3718535   4.457   0.784   4.148  0.7332  0.3031 -0.1626
  165SAPE   H7X18536   4.518   0.709   4.204 -2.9861 -2.0193  1.1686
  165SAPE   H7Y18537   4.360   0.731   4.145  0.3922  0.9799 -1.7923
  165SAPE   C3818538   4.449   0.915   4.232  0.2329 -0.4988  0.4337
  165SAPE   H8X18539   4.355   0.969   4.210  1.0179 -0.0295 -2.0389
  165SAPE   H8Y18540   4.529   0.987   4.206 -0.6839  0.9261  1.4289
  165SAPE   C3918541   4.454   0.896   4.386  0.5192 -1.3568 -0.2888
  165SAPE   H9X18542   4.468   0.990   4.443  1.7297 -1.6744 -0.0129
  165SAPE   H9Y18543   4.541   0.833   4.417  1.8190  0.0062 -1.0265
  165SAPE  C31018544   4.326   0.827   4.445  0.2465  0.0976  0.0224
  165SAPE  H10X18545   4.323   0.723   4.405 -0.4912  0.0260  0.2406
  165SAPE  H10Y18546   4.236   0.876   4.401 -0.6927 -2.2476 -0.8576
  165SAPE  C31118547   4.308   0.813   4.597  0.4406 -0.2762  0.5728
  165SAPE  H11X18548   4.405   0.781   4.638  1.5594  0.1192 -1.5934
  165SAPE  H11Y18549   4.238   0.728   4.612 -0.0410  0.1930  1.0123
  165SAPE  C31218550   4.267   0.943   4.661  0.2636  0.4671 -0.6076
  165SAPE  H12X18551   4.189   0.999   4.605 -1.0435 -1.8628 -1.2362
  165SAPE  H12Y18552   4.352   1.015   4.669  1.7665 -1.2811 -0.1247
  165SAPE  C31318553   4.226   0.926   4.812 -0.6066  0.1230 -0.6792
  165SAPE  H13X18554   4.203   1.025   4.857 -1.4997 -0.3649 -0.0288
  165SAPE  H13Y18555   4.312   0.882   4.868 -0.6602 -1.2009 -1.6074
  165SAPE  C31418556   4.111   0.829   4.832  0.0046  0.7369 -0.4680
  165SAPE  H14X18557   4.150   0.733   4.795 -0.7818  0.7677 -1.4176
  165SAPE  H14Y18558   4.025   0.864   4.771 -0.6157  0.5854  0.2925
  165SAPE  C31518559   4.081   0.813   4.986 -0.1575  0.0678  0.7341
  165SAPE  H15X18560   3.970   0.819   4.994 -0.0473  1.2714  1.5330
  165SAPE  H15Y18561   4.135   0.896   5.037 -0.0757  0.8520 -0.5810
  165SAPE  C31618562   4.121   0.677   5.047 -0.2901  0.2950  0.5344
  165SAPE  H16X18563   4.232   0.666   5.042 -0.4368 -0.4417 -1.7455
  165SAPE  H16Y18564   4.080   0.586   4.999 -0.9034  0.3344  0.9653
  165SAPE  C31718565   4.087   0.682   5.201 -0.0014  0.5656 -0.0177
  165SAPE  H17X18566   3.978   0.683   5.223  0.1059 -0.3341  0.6467
  165SAPE  H17Y18567   4.124   0.777   5.245 -3.0814  3.0062 -2.3041
  165SAPE  C31818568   4.137   0.564   5.276 -0.4638 -0.4334  0.0110
  165SAPE  H18X18569   4.084   0.471   5.248 -2.3372  0.3588  0.7444
  165SAPE  H18Y18570   4.096   0.574   5.379 -4.0487  1.2405 -1.4018
  165SAPE  H18Z18571   4.247   0.550   5.273 -0.5318 -1.0999 -3.6235
  166SAPE     N18572   6.538   6.010   3.163 -0.1124 -0.1382 -0.5332
  166SAPE   HN118573   6.612   5.959   3.112  0.1098 -0.4212  0.0591
  166SAPE   HN218574   6.450   5.961   3.137 -1.1125  2.3496 -2.2290
  166SAPE   HN318575   6.528   6.110   3.136  0.2473  0.9616  2.8818
  166SAPE   C1218576   6.570   6.004   3.311 -0.6067 -0.2946  0.1167
  166SAPE  H12A18577   6.472   6.025   3.359 -1.9418 -1.6955 -1.7851
  166SAPE  H12B18578   6.647   6.083   3.320 -1.9063  1.2555 -1.5725
  166SAPE   C1118579   6.619   5.859   3.353  0.2513 -0.5285  0.4417
  166SAPE  H11A18580   6.602   5.849   3.462 -0.4317 -1.2840  0.2741
  166SAPE  H11B18581   6.724   5.840   3.322  0.3204  0.8036 -0.2209
  166SAPE     P18582   6.567   5.610   3.305  0.0273 -0.0234 -0.1371
  166SAPE   O1318583   6.448   5.531   3.268  0.0298 -0.4937 -0.2587
  166SAPE   O1418584   6.701   5.582   3.238 -0.0940  0.2350  0.2428
  166SAPE   O1218585   6.529   5.769   3.296  0.3490  0.1081 -0.3677
  166SAPE   O1118586   6.602   5.604   3.458 -0.1650  0.4016 -0.4416
  166SAPE    C118587   6.498   5.613   3.556 -0.3374 -0.1900  0.1558
  166SAPE    HA18588   6.532   5.691   3.627  0.8303 -0.2233 -0.3454
  166SAPE    HB18589   6.401   5.650   3.515 -1.3621 -0.5506  2.1398
  166SAPE    C218590   6.472   5.477   3.631 -0.3626  0.0540 -0.0627
  166SAPE    HS18591   6.391   5.495   3.704 -2.0532 -0.9503 -1.5955
  166SAPE   O2118592   6.587   5.428   3.695  0.3017  0.4828 -0.1270
  166SAPE   C2118593   6.609   5.469   3.822  0.3777 -0.7646 -0.1195
  166SAPE   O2218594   6.536   5.538   3.892  0.3814 -0.0625  0.3116
  166SAPE   C2218595   6.747   5.420   3.861  0.6417 -0.0671  0.1385
  166SAPE   H2R18596   6.793   5.383   3.767  0.5868  2.3475 -0.9105
  166SAPE   H2S18597   6.801   5.501   3.915  0.0029 -0.2741  1.1208
  166SAPE    C318598   6.396   5.375   3.539  0.2728 -0.2015 -0.3048
  166SAPE    HX18599   6.469   5.355   3.458  0.1433 -1.5441 -0.1119
  166SAPE    HY18600   6.301   5.425   3.510 -1.8967 -2.3679  2.3529
  166SAPE   O3118601   6.350   5.261   3.613  0.4602  0.1393 -0.0113
  166SAPE   C3118602   6.395   5.136   3.581 -0.1239  0.1962  0.0358
  166SAPE   O3218603   6.469   5.111   3.489 -0.1135 -0.0119  0.2003
  166SAPE   C3218604   6.321   5.048   3.676 -0.3666 -0.3969 -0.6495
  166SAPE   H2X18605   6.340   4.942   3.649 -0.2855 -0.4835 -0.2580
  166SAPE   H2Y18606   6.211   5.065   3.673 -0.6680 -1.9374  0.4244
  166SAPE   C2318607   6.738   5.295   3.952  0.5667  0.2781  0.0889
  166SAPE   H3R18608   6.672   5.219   3.905  1.4478  0.8496 -2.2108
  166SAPE   H3S18609   6.686   5.335   4.042 -0.6665  0.3359 -0.6338
  166SAPE   C2418610   6.877   5.253   4.002 -0.1637 -0.7144 -0.2929
  166SAPE   H4R18611   6.866   5.164   4.067  0.8724 -1.3786 -0.9906
  166SAPE   H4S18612   6.913   5.336   4.068 -3.2002 -0.1720  0.8501
  166SAPE   C2518613   6.968   5.219   3.888 -0.3653 -0.2458  0.3258
  166SAPE   H5R18614   6.911   5.207   3.795 -1.3339 -1.1696  1.0129
  166SAPE   C2618615   7.095   5.201   3.899 -0.3183 -0.1280 -0.0954
  166SAPE   H6R18616   7.155   5.166   3.814  2.5540  0.0283  1.7383
  166SAPE   C2718617   7.176   5.222   4.021 -0.4704  0.0712  0.3487
  166SAPE   H7R18618   7.119   5.202   4.115 -0.1403 -0.4425  0.4449
  166SAPE   H7S18619   7.205   5.329   4.027 -2.0060  0.4861  0.9410
  166SAPE   C2818620   7.301   5.144   4.024 -0.0788  0.9637  0.2655
  166SAPE   H8R18621   7.341   5.130   3.922  0.8961  1.9988  0.4879
  166SAPE   C2918622   7.380   5.103   4.117 -0.3031  0.5729  0.9015
  166SAPE   H9R18623   7.466   5.043   4.083  0.5882  0.5710  3.0083
  166SAPE  C21018624   7.385   5.114   4.266 -0.1127  0.1477 -0.3973
  166SAPE  H10R18625   7.493   5.112   4.294  0.4892  1.2855 -2.4104
  166SAPE  H10S18626   7.339   5.025   4.313  3.2962 -1.2146  0.7055
  166SAPE  C21118627   7.313   5.235   4.325  0.3484 -0.1129  0.4015
  166SAPE  H11R18628   7.217   5.250   4.274  1.0128  0.2159 -0.7933
  166SAPE  C21218629   7.365   5.321   4.413 -0.2919  0.4217 -0.1589
  166SAPE  H12R18630   7.298   5.394   4.460 -1.2280 -0.1790 -0.5446
  166SAPE  C21318631   7.501   5.324   4.467 -0.9585  0.4740  0.3392
  166SAPE  H13R18632   7.571   5.291   4.387 -1.9252 -1.3987  0.2179
  166SAPE  H13S18633   7.499   5.254   4.553 -2.5644 -2.1867 -1.7196
  166SAPE  C21418634   7.540   5.463   4.507  0.1380 -0.0460 -0.3431
  166SAPE  H14R18635   7.524   5.538   4.428  0.0158 -0.9441 -1.1932
  166SAPE  C21518636   7.565   5.509   4.630  0.1360  0.7238  0.0534
  166SAPE  H15R18637   7.594   5.614   4.647 -0.6222  1.0836 -0.7781
  166SAPE  C21618638   7.596   5.429   4.757  0.1978 -0.4212  0.2401
  166SAPE  H16R18639   7.519   5.348   4.761 -0.9054  0.4797 -1.4233
  166SAPE  H16S18640   7.575   5.496   4.843  0.4162 -1.2814  0.9762
  166SAPE  C21718641   7.738   5.374   4.766 -0.1269  0.1470 -0.1453
  166SAPE  H17R18642   7.756   5.309   4.678  0.7910  0.1017  0.0736
  166SAPE  H17S18643   7.751   5.321   4.862 -1.0940  1.6261  0.8405
  166SAPE  C21818644   7.859   5.471   4.775 -0.5744 -0.3496 -0.1333
  166SAPE  H18R18645   7.866   5.529   4.681  1.6655 -1.3180 -0.6173
  166SAPE  H18S18646   7.955   5.416   4.784 -0.9547 -0.8531  1.1181
  166SAPE  C21918647   7.869   5.568   4.891  0.9619  0.1325 -0.0243
  166SAPE  H19R18648   7.786   5.642   4.881  1.1164  0.2584 -0.3623
  166SAPE  H19S18649   7.964   5.625   4.884  0.4688  0.7688 -2.7675
  166SAPE  C22018650   7.855   5.511   5.039 -0.2168 -0.2132 -0.8738
  166SAPE  H20R18651   7.924   5.428   5.063  1.1316  0.0441 -3.4516
  166SAPE  H20S18652   7.751   5.472   5.045 -0.6121  1.0293  2.2441
  166SAPE  H20T18653   7.864   5.594   5.112 -2.0066 -0.8078  0.0818
  166SAPE   C3318654   6.358   5.084   3.822 -1.1333 -0.2655  0.1573
  166SAPE   H3X18655   6.330   5.188   3.848  1.7709  0.7142 -0.3600
  166SAPE   H3Y18656   6.467   5.064   3.831 -1.1018 -1.0693 -1.6489
  166SAPE   C3418657   6.295   4.988   3.927 -0.5021  0.3668  1.1054
  166SAPE   H4X18658   6.354   4.895   3.909 -0.2420  0.5985  0.7263
  166SAPE   H4Y18659   6.193   4.953   3.902 -1.6925  2.6967  2.4384
  166SAPE   C3518660   6.274   5.038   4.063 -0.1365 -0.4598 -0.0458
  166SAPE   H5X18661   6.211   5.129   4.059 -0.1395 -0.3937  0.9959
  166SAPE   H5Y18662   6.376   5.064   4.099 -0.2894  1.4169 -0.8536
  166SAPE   C3618663   6.227   4.938   4.166 -0.2738  0.3106  0.0114
  166SAPE   H6X18664   6.294   4.849   4.171  0.3498  0.8369  1.4777
  166SAPE   H6Y18665   6.124   4.900   4.146 -1.0612  2.0421  0.6252
  166SAPE   C3718666   6.223   5.010   4.310 -0.1275  0.8619  0.2743
  166SAPE   H7X18667   6.159   5.098   4.288 -1.5243 -0.1576  0.0953
  166SAPE   H7Y18668   6.323   5.043   4.346 -0.1068  1.4189 -0.2761
  166SAPE   C3818669   6.129   4.925   4.407 -0.9590 -0.3715 -0.1446
  166SAPE   H8X18670   6.169   4.823   4.425 -2.7425 -1.7025 -2.9802
  166SAPE   H8Y18671   6.034   4.914   4.351 -0.2749  0.0153 -1.4131
  166SAPE   C3918672   6.094   5.001   4.535 -0.3238  0.4846 -0.1259
  166SAPE   H9X18673   6.010   4.951   4.588  1.6231 -0.7372  2.0198
  166SAPE   H9Y18674   6.066   5.107   4.523 -0.9063  0.1100 -2.6524
  166SAPE  C31018675   6.215   4.987   4.629  0.3162 -0.7721 -0.1945
  166SAPE  H10X18676   6.312   5.026   4.592  0.7407 -0.7546  0.8841
  166SAPE  H10Y18677   6.230   4.878   4.646 -1.1629 -0.8521  0.7294
  166SAPE  C31118678   6.180   5.050   4.765  0.0224  0.1092 -0.5073
  166SAPE  H11X18679   6.242   4.996   4.839  1.5368  1.3701 -0.8007
  166SAPE  H11Y18680   6.074   5.039   4.795 -0.3263  2.0793 -0.8971
  166SAPE  C31218681   6.222   5.202   4.764  0.3439  0.3288 -0.2088
  166SAPE  H12X18682   6.155   5.248   4.688  0.9704  0.9258 -0.4061
  166SAPE  H12Y18683   6.328   5.223   4.740  0.6664  1.5817  1.9774
  166SAPE  C31318684   6.199   5.267   4.901 -0.0474 -0.5376 -0.5044
  166SAPE  H13X18685   6.249   5.216   4.986 -0.5007  0.4135  0.3596
  166SAPE  H13Y18686   6.091   5.259   4.921 -0.0371  0.6290  0.1485
  166SAPE  C31418687   6.237   5.417   4.889  0.0544 -0.9321 -0.5767
  166SAPE  H14X18688   6.228   5.459   4.787 -0.2238  1.1298  0.2568
  166SAPE  H14Y18689   6.347   5.423   4.894  0.0664 -1.8421  1.6047
  166SAPE  C31518690   6.157   5.498   4.998 -0.1171  0.0636  0.4303
  166SAPE  H15X18691   6.128   5.438   5.088  3.7526 -2.4931  0.2415
  166SAPE  H15Y18692   6.058   5.528   4.958  0.7250  0.6155 -1.3135
  166SAPE  C31618693   6.232   5.624   5.048 -0.0430 -0.3382  0.5649
  166SAPE  H16X18694   6.332   5.591   5.083  0.8242  0.2837 -1.2056
  166SAPE  H16Y18695   6.169   5.668   5.127  1.2742  0.2187  1.3325
  166SAPE  C31718696   6.240   5.726   4.934 -0.3391  0.2304 -0.4546
  166SAPE  H17X18697   6.146   5.747   4.879 -1.0956 -0.6740  0.4478
  166SAPE  H17Y18698   6.324   5.691   4.871 -0.8061 -1.5920 -0.1217
  166SAPE  C31818699   6.293   5.857   4.991 -0.1009  0.5051 -0.4741
  166SAPE  H18X18700   6.233   5.891   5.078 -1.0746 -2.2284  0.0199
  166SAPE  H18Y18701   6.294   5.930   4.907  0.2218  0.3193 -0.6370
  166SAPE  H18Z18702   6.394   5.838   5.035 -0.2293 -0.0470 -0.4101
  167SAPE     N18703   6.523   3.392   3.452  0.0201  0.5265 -0.4442
  167SAPE   HN118704   6.424   3.421   3.453 -0.1707 -0.0571 -1.2053
  167SAPE   HN218705   6.585   3.465   3.411  0.2463  1.7868  1.9419
  167SAPE   HN318706   6.511   3.306   3.394 -1.5962  1.0326 -0.9155
  167SAPE   C1218707   6.553   3.348   3.594  0.3435  0.0483 -0.1558
  167SAPE  H12A18708   6.659   3.314   3.594  0.4790  0.4473  0.3994
  167SAPE  H12B18709   6.489   3.267   3.636  2.4482 -0.1310  3.1003
  167SAPE   C1118710   6.537   3.461   3.690  0.6536 -0.1815 -0.4213
  167SAPE  H11A18711   6.567   3.417   3.787  3.6227  0.8592 -0.7753
  167SAPE  H11B18712   6.429   3.487   3.694  0.4971 -0.9736  0.9880
  167SAPE     P18713   6.768   3.579   3.709  0.5181  0.2271  0.0205
  167SAPE   O1318714   6.839   3.468   3.649  0.0259 -0.4312 -0.8693
  167SAPE   O1418715   6.820   3.713   3.688  0.1122 -0.4150  0.3285
  167SAPE   O1218716   6.615   3.576   3.668 -0.3698 -0.1319 -0.2626
  167SAPE   O1118717   6.752   3.554   3.863 -0.2675  0.1268 -0.1628
  167SAPE    C118718   6.694   3.646   3.955  0.4602 -0.8261 -0.0219
  167SAPE    HA18719   6.633   3.724   3.904  2.2142 -0.2263 -1.2825
  167SAPE    HB18720   6.634   3.588   4.029 -0.6518 -0.3846 -0.5563
  167SAPE    C218721   6.806   3.720   4.032  0.0356 -0.9240  0.4077
  167SAPE    HS18722   6.880   3.757   3.958  0.0027 -0.8565  0.4094
  167SAPE   O2118723   6.871   3.636   4.132 -0.2235 -0.1110 -0.0420
  167SAPE   C2118724   6.963   3.558   4.090 -0.0717 -0.8425 -0.3345
  167SAPE   O2218725   7.022   3.554   3.985 -0.1064  0.2095  0.8294
  167SAPE   C2218726   6.994   3.470   4.214 -0.5796  0.2003 -0.3322
  167SAPE   H2R18727   6.912   3.396   4.214 -0.5426  0.1537  0.6712
  167SAPE   H2S18728   7.090   3.419   4.191 -1.6037 -1.4408 -1.1800
  167SAPE    C318729   6.735   3.840   4.094  0.1348  0.4435 -0.0060
  167SAPE    HX18730   6.649   3.794   4.148 -0.8932  0.8754 -1.2598
  167SAPE    HY18731   6.696   3.899   4.009 -1.2321 -1.8262 -1.0479
  167SAPE   O3118732   6.823   3.924   4.168 -0.1312  0.2824  0.2973
  167SAPE   C3118733   6.839   3.898   4.296 -0.3556  0.3270  0.6135
  167SAPE   O3218734   6.771   3.823   4.365  0.8949  0.2532 -0.3080
  167SAPE   C3218735   6.971   3.969   4.344 -0.7957  0.8039  0.6535
  167SAPE   H2X18736   6.962   4.074   4.308 -0.6390  0.3772 -0.6809
  167SAPE   H2Y18737   7.049   3.913   4.289 -1.3541 -0.1494  0.8133
  167SAPE   C2318738   7.012   3.542   4.350 -0.6165  1.1217  0.0665
  167SAPE   H3R18739   6.932   3.617   4.367 -1.4631  0.1519  0.4007
  167SAPE   H3S18740   7.112   3.589   4.340  0.3003 -1.0037 -1.6282
  167SAPE   C2418741   7.013   3.438   4.467 -0.5746 -0.2173 -0.2078
  167SAPE   H4R18742   7.105   3.376   4.459 -0.8969 -0.6574 -0.5434
  167SAPE   H4S18743   6.932   3.367   4.443 -0.5079 -0.5241  0.4491
  167SAPE   C2518744   6.990   3.497   4.603  0.6612  0.0233  0.2606
  167SAPE   H5R18745   6.922   3.583   4.611  0.3371 -0.2046 -0.0231
  167SAPE   C2618746   7.063   3.466   4.713 -0.0817  0.3269  0.2021
  167SAPE   H6R18747   7.036   3.512   4.810  0.2630 -1.2541  1.0855
  167SAPE   C2718748   7.167   3.359   4.718 -0.0717  0.7615 -0.0644
  167SAPE   H7R18749   7.264   3.408   4.743  1.1758 -1.7140  0.2584
  167SAPE   H7S18750   7.187   3.309   4.621 -0.8970 -0.1961  0.2482
  167SAPE   C2818751   7.138   3.258   4.834  0.3676 -0.6329  0.1305
  167SAPE   H8R18752   7.033   3.232   4.853  0.5964 -1.7311 -0.0122
  167SAPE   C2918753   7.231   3.196   4.908 -0.3529  0.7646  0.1154
  167SAPE   H9R18754   7.190   3.126   4.982 -0.5273  1.1887  0.4265
  167SAPE  C21018755   7.379   3.203   4.892  0.4343 -0.5268  0.3777
  167SAPE  H10R18756   7.413   3.218   4.787  0.4021 -3.4380 -0.1291
  167SAPE  H10S18757   7.429   3.108   4.921  1.2533 -0.3936 -0.5537
  167SAPE  C21118758   7.439   3.320   4.972 -0.2440  0.7452 -0.0903
  167SAPE  H11R18759   7.409   3.420   4.936 -2.2472  0.8871  1.7824
  167SAPE  C21218760   7.521   3.309   5.076 -0.4540  0.0953 -0.3258
  167SAPE  H12R18761   7.570   3.401   5.112  0.1695 -1.6267  3.6750
  167SAPE  C21318762   7.578   3.175   5.131 -0.0152 -0.4520 -1.0135
  167SAPE  H13R18763   7.509   3.089   5.113  0.6610 -1.2337  0.0426
  167SAPE  H13S18764   7.572   3.176   5.241 -2.0360  1.8206 -1.0688
  167SAPE  C21418765   7.715   3.153   5.096 -0.4142 -0.0689 -0.2567
  167SAPE  H14R18766   7.747   3.166   4.991  2.0593  0.3605  0.4761
  167SAPE  C21518767   7.813   3.118   5.183  0.5161 -0.5636 -0.8632
  167SAPE  H15R18768   7.911   3.099   5.138  1.5895  1.5981  0.3938
  167SAPE  C21618769   7.805   3.087   5.328  0.1070 -0.5081 -0.7040
  167SAPE  H16R18770   7.742   2.997   5.338 -1.5108  0.6895  0.4302
  167SAPE  H16S18771   7.740   3.161   5.380  1.2985 -0.5822  0.9640
  167SAPE  C21718772   7.933   3.061   5.406  0.8909 -0.0856  0.0114
  167SAPE  H17R18773   7.986   3.158   5.392  0.2739  0.9474  3.6421
  167SAPE  H17S18774   7.985   2.973   5.362  0.1376  0.3878 -1.9423
  167SAPE  C21818775   7.907   3.052   5.552 -0.7127 -0.3043  0.0316
  167SAPE  H18R18776   7.819   2.983   5.553 -0.6624 -0.3670  0.1555
  167SAPE  H18S18777   7.870   3.142   5.605 -0.0605  0.6300 -1.0492
  167SAPE  C21918778   8.028   2.983   5.619 -0.0070  0.6683 -0.2991
  167SAPE  H19R18779   8.116   3.049   5.636 -0.1689  0.4727  1.5251
  167SAPE  H19S18780   8.063   2.893   5.565  0.7622  1.3413 -0.9445
  167SAPE  C22018781   7.999   2.931   5.762  0.4709 -0.3281  0.3441
  167SAPE  H20R18782   7.954   2.829   5.767 -1.2054  0.3177 -0.8481
  167SAPE  H20S18783   7.936   3.000   5.822 -3.5076 -1.8681 -1.7068
  167SAPE  H20T18784   8.097   2.925   5.814  0.4629 -0.3736  0.3545
  167SAPE   C3318785   7.004   3.960   4.492 -0.6898 -0.2360  0.4425
  167SAPE   H3X18786   7.108   3.995   4.503 -0.3177 -1.7119  2.1721
  167SAPE   H3Y18787   7.016   3.853   4.519  2.6475 -0.1838 -0.4136
  167SAPE   C3418788   6.902   4.041   4.579 -0.7398 -0.2350  0.3326
  167SAPE   H4X18789   6.807   3.990   4.551 -0.5554 -0.1993 -0.3703
  167SAPE   H4Y18790   6.904   4.145   4.539 -1.7277 -0.2608  0.1932
  167SAPE   C3518791   6.943   4.039   4.730 -0.5067 -0.4938 -0.0170
  167SAPE   H5X18792   6.950   3.929   4.749 -2.5102 -0.7015 -0.2715
  167SAPE   H5Y18793   6.856   4.067   4.793 -1.4960  1.4875 -2.1446
  167SAPE   C3618794   7.085   4.104   4.760  0.6109 -0.5003 -0.3469
  167SAPE   H6X18795   7.087   4.214   4.746 -0.0535 -0.6603 -1.9339
  167SAPE   H6Y18796   7.162   4.066   4.690 -0.2967  1.2570 -2.4084
  167SAPE   C3718797   7.151   4.068   4.894 -0.6958 -0.1496 -0.4125
  167SAPE   H7X18798   7.094   4.119   4.974  1.8817  0.7065  1.0283
  167SAPE   H7Y18799   7.255   4.104   4.908  0.4427 -2.2481 -2.6756
  167SAPE   C3818800   7.139   3.915   4.924 -0.0014  0.6648 -0.6078
  167SAPE   H8X18801   7.153   3.845   4.839  0.4726 -0.6875  0.5428
  167SAPE   H8Y18802   7.040   3.883   4.964  0.8278 -1.0447  0.1815
  167SAPE   C3918803   7.239   3.862   5.035 -0.5382  0.4506  0.3693
  167SAPE   H9X18804   7.236   3.928   5.124 -2.2719  0.0900  0.6068
  167SAPE   H9Y18805   7.342   3.858   4.995 -0.6948 -0.8813  0.0652
  167SAPE  C31018806   7.207   3.714   5.090 -0.9584  0.2000  0.8164
  167SAPE  H10X18807   7.300   3.679   5.140 -1.8890 -2.0673  1.0884
  167SAPE  H10Y18808   7.180   3.647   5.006 -0.0707  1.1213 -0.2481
  167SAPE  C31118809   7.096   3.706   5.203 -0.1931  0.0245  0.0688
  167SAPE  H11X18810   7.087   3.597   5.224 -0.0126 -0.3115 -1.5256
  167SAPE  H11Y18811   7.003   3.743   5.154  0.8957  0.0931 -2.0097
  167SAPE  C31218812   7.129   3.779   5.334 -0.1627 -1.0629  0.4024
  167SAPE  H12X18813   7.159   3.883   5.311  1.8514 -1.4705  0.9668
  167SAPE  H12Y18814   7.216   3.734   5.386 -0.8089 -2.0176  0.6802
  167SAPE  C31318815   7.022   3.786   5.444  0.1853 -0.2495 -0.5546
  167SAPE  H13X18816   6.942   3.853   5.404  2.6830  2.2851 -1.7011
  167SAPE  H13Y18817   7.065   3.832   5.535 -1.1943  2.2910 -1.0875
  167SAPE  C31418818   6.964   3.647   5.476  0.3718 -0.7956  0.0161
  167SAPE  H14X18819   7.057   3.601   5.516  0.1872  0.2399  1.7265
  167SAPE  H14Y18820   6.926   3.583   5.394 -1.1190  0.0309  0.0323
  167SAPE  C31518821   6.862   3.656   5.581  0.0094  0.3651  1.1328
  167SAPE  H15X18822   6.828   3.554   5.609 -0.5260 -0.4133 -2.0219
  167SAPE  H15Y18823   6.771   3.705   5.540  1.2411  0.4899 -1.6679
  167SAPE  C31618824   6.895   3.723   5.714 -0.0230  0.4244  0.4795
  167SAPE  H16X18825   6.907   3.833   5.704 -1.9278  0.6733  0.5217
  167SAPE  H16Y18826   6.987   3.681   5.759  1.6926  2.3512 -1.0374
  167SAPE  C31718827   6.777   3.707   5.815 -1.0489  0.5202 -0.6652
  167SAPE  H17X18828   6.768   3.598   5.832  2.7018  0.0012 -1.1695
  167SAPE  H17Y18829   6.680   3.744   5.775 -2.1380  0.2777  1.5991
  167SAPE  C31818830   6.799   3.787   5.946 -0.7953 -0.3582  0.3688
  167SAPE  H18X18831   6.715   3.765   6.016 -1.7923  1.2065 -0.2983
  167SAPE  H18Y18832   6.802   3.897   5.936  0.9167 -0.3695  0.4460
  167SAPE  H18Z18833   6.898   3.756   5.984  0.0059 -3.0297 -3.3841
  168SAPE     N18834   3.443   2.576   3.061  0.3945  0.2683 -0.0809
  168SAPE   HN118835   3.448   2.624   2.969  0.5740  0.7291  0.1628
  168SAPE   HN218836   3.409   2.479   3.045  1.5262 -0.3440  1.0178
  168SAPE   HN318837   3.367   2.625   3.112 -0.8656  2.8534 -4.0087
  168SAPE   C1218838   3.576   2.576   3.131 -1.0068  0.5459 -0.3810
  168SAPE  H12A18839   3.611   2.681   3.136 -3.0133  1.2669 -0.7214
  168SAPE  H12B18840   3.640   2.509   3.069  0.2590  1.3797 -0.0244
  168SAPE   C1118841   3.572   2.529   3.283  0.3706 -0.2010 -0.1171
  168SAPE  H11A18842   3.679   2.506   3.304 -0.0176 -0.0988  2.3436
  168SAPE  H11B18843   3.523   2.431   3.297 -1.0333  0.5951  0.8431
  168SAPE     P18844   3.373   2.627   3.423 -0.3121 -0.2005  0.2002
  168SAPE   O1318845   3.347   2.727   3.529 -0.1649 -0.5460  0.0426
  168SAPE   O1418846   3.290   2.633   3.300  0.2215 -0.6065  0.9329
  168SAPE   O1218847   3.521   2.622   3.386 -0.0372  0.3207  0.5930
  168SAPE   O1118848   3.364   2.478   3.476  0.1664 -0.2759 -0.2645
  168SAPE    C118849   3.236   2.429   3.529 -0.4921  0.0163 -0.0429
  168SAPE    HA18850   3.146   2.489   3.505  0.2665  1.2639  0.1517
  168SAPE    HB18851   3.216   2.324   3.496 -0.4198 -0.1622  0.4669
  168SAPE    C218852   3.240   2.435   3.685 -0.2725 -0.4928  0.6497
  168SAPE    HS18853   3.252   2.544   3.702  1.8253 -0.6718  0.6487
  168SAPE   O2118854   3.349   2.363   3.734 -0.1319 -0.2665  0.7396
  168SAPE   C2118855   3.397   2.395   3.851 -1.0715  0.1542  0.2689
  168SAPE   O2218856   3.369   2.495   3.914 -0.0031 -0.1523  0.1170
  168SAPE   C2218857   3.497   2.288   3.904  0.4867  0.1155  0.2731
  168SAPE   H2R18858   3.513   2.215   3.821  0.1181  0.6360 -0.2666
  168SAPE   H2S18859   3.593   2.333   3.936  1.6027 -2.0337  0.1289
  168SAPE    C318860   3.100   2.390   3.742  0.2661  0.1190  0.8598
  168SAPE    HX18861   3.092   2.284   3.709  0.9216  0.4686 -0.4805
  168SAPE    HY18862   3.019   2.438   3.683  2.8662  0.7247 -2.5364
  168SAPE   O3118863   3.092   2.409   3.885 -0.6940  0.7789 -0.3367
  168SAPE   C3118864   3.046   2.524   3.929  0.0592 -0.0860 -0.0515
  168SAPE   O3218865   3.020   2.618   3.856  0.3807 -0.4109 -0.5453
  168SAPE   C3218866   3.033   2.523   4.084  0.8034 -0.0702  0.3741
  168SAPE   H2X18867   2.928   2.495   4.109  0.2312  0.5540 -1.1925
  168SAPE   H2Y18868   3.055   2.628   4.111 -3.6934  0.6496  2.1314
  168SAPE   C2318869   3.435   2.220   4.028  1.1154 -0.4357  0.0537
  168SAPE   H3R18870   3.427   2.300   4.105 -0.9968 -0.4887 -0.0620
  168SAPE   H3S18871   3.499   2.137   4.065 -2.5622 -2.9420  1.3908
  168SAPE   C2418872   3.296   2.153   4.016 -0.7401 -0.2201  0.2314
  168SAPE   H4R18873   3.217   2.225   3.985 -0.4020  0.3657  0.7157
  168SAPE   H4S18874   3.259   2.136   4.120 -1.1047  3.5952  0.8837
  168SAPE   C2518875   3.297   2.030   3.926 -0.3230  0.3595 -0.5562
  168SAPE   H5R18876   3.341   2.065   3.831  1.3827 -0.1211  0.0234
  168SAPE   C2618877   3.257   1.903   3.948 -0.6400 -0.3214  0.1528
  168SAPE   H6R18878   3.267   1.835   3.862 -1.2098  1.0121 -1.0226
  168SAPE   C2718879   3.199   1.833   4.066 -0.6422  0.0102 -0.6369
  168SAPE   H7R18880   3.162   1.736   4.027  0.4516 -0.2006 -1.1870
  168SAPE   H7S18881   3.114   1.887   4.111  0.6158  1.2325  0.3717
  168SAPE   C2818882   3.301   1.796   4.172  0.0310 -0.2947  0.2942
  168SAPE   H8R18883   3.398   1.769   4.128  0.0835 -1.1662  0.9187
  168SAPE   C2918884   3.296   1.817   4.300  0.3692 -0.4807  0.3307
  168SAPE   H9R18885   3.393   1.803   4.349  0.9010 -2.8034 -1.2588
  168SAPE  C21018886   3.190   1.878   4.388  0.1914 -0.7795 -0.7627
  168SAPE  H10R18887   3.190   1.831   4.489 -2.2587  1.0388  0.1614
  168SAPE  H10S18888   3.088   1.872   4.346 -0.8484 -0.6470  1.5806
  168SAPE  C21118889   3.231   2.021   4.403  0.0685 -0.0859  0.4901
  168SAPE  H11R18890   3.241   2.075   4.308  0.5731 -1.9146 -0.5472
  168SAPE  C21218891   3.265   2.086   4.514  0.1245  0.0501 -0.0660
  168SAPE  H12R18892   3.291   2.192   4.505  1.6524 -0.4003 -1.2797
  168SAPE  C21318893   3.272   2.028   4.652  0.5448 -0.4278 -0.7910
  168SAPE  H13R18894   3.334   2.092   4.719 -1.9085  0.6833  0.5500
  168SAPE  H13S18895   3.329   1.933   4.652 -0.6102 -1.2293  2.0780
  168SAPE  C21418896   3.138   2.001   4.715  0.4497  0.2854  0.2936
  168SAPE  H14R18897   3.065   2.082   4.698  0.0380 -0.4438 -1.7611
  168SAPE  C21518898   3.103   1.905   4.807  0.4540  0.0616 -0.1843
  168SAPE  H15R18899   2.999   1.898   4.844  0.5301 -3.0584 -0.3415
  168SAPE  C21618900   3.189   1.792   4.858 -0.5461  0.4384 -0.0086
  168SAPE  H16R18901   3.286   1.780   4.805 -0.2095  3.4412 -0.2369
  168SAPE  H16S18902   3.131   1.699   4.836  1.5028 -1.0071  0.3600
  168SAPE  C21718903   3.216   1.809   5.005  0.0580 -0.0689  0.0615
  168SAPE  H17R18904   3.297   1.735   5.024 -0.0403 -1.1491 -3.1805
  168SAPE  H17S18905   3.134   1.776   5.072 -1.9139  3.7171 -0.2099
  168SAPE  C21818906   3.266   1.941   5.060  0.0716  0.1525 -0.0379
  168SAPE  H18R18907   3.180   2.010   5.079  1.8870  1.9786  2.1209
  168SAPE  H18S18908   3.328   1.988   4.981 -1.1322  1.7480 -0.0976
  168SAPE  C21918909   3.363   1.934   5.185 -0.4232 -1.0154 -0.5272
  168SAPE  H19R18910   3.422   2.026   5.204  1.5047 -2.1679 -0.6434
  168SAPE  H19S18911   3.439   1.859   5.155  1.0615 -0.3805  1.4049
  168SAPE  C22018912   3.293   1.874   5.313 -0.3436 -0.0707  0.5014
  168SAPE  H20R18913   3.241   1.780   5.284  0.8670 -0.2206 -1.3867
  168SAPE  H20S18914   3.217   1.947   5.347  0.7961  1.5505 -0.3332
  168SAPE  H20T18915   3.367   1.860   5.394 -1.6760 -1.1262  1.5858
  168SAPE   C3318916   3.128   2.422   4.157  0.3693 -0.2246 -0.4615
  168SAPE   H3X18917   3.227   2.423   4.106 -0.4152  2.1414 -2.1339
  168SAPE   H3Y18918   3.090   2.318   4.157 -1.4439  0.4059  0.3184
  168SAPE   C3418919   3.142   2.445   4.305  0.2661 -0.2387 -0.3773
  168SAPE   H4X18920   3.197   2.539   4.327  0.0971 -0.0373 -0.8110
  168SAPE   H4Y18921   3.215   2.371   4.346  2.3715  2.2118  0.5264
  168SAPE   C3518922   3.010   2.443   4.380 -0.2210  0.0406 -0.3209
  168SAPE   H5X18923   2.945   2.358   4.349 -1.1105  0.9679 -1.0676
  168SAPE   H5Y18924   2.966   2.542   4.355  0.7458  0.7578  0.7354
  168SAPE   C3618925   3.017   2.450   4.531 -0.0850  0.0851  0.9098
  168SAPE   H6X18926   3.078   2.364   4.565 -0.8681 -1.0944 -0.5377
  168SAPE   H6Y18927   2.919   2.424   4.578 -0.7463 -0.6075 -0.7848
  168SAPE   C3718928   3.066   2.577   4.597 -0.2792 -0.1022  0.5272
  168SAPE   H7X18929   3.000   2.661   4.566  0.8868 -0.3900 -3.2470
  168SAPE   H7Y18930   3.172   2.598   4.569 -0.4399  0.3207  0.2185
  168SAPE   C3818931   3.044   2.588   4.746  0.1725 -0.4668 -1.0026
  168SAPE   H8X18932   3.097   2.511   4.806  0.8010  1.6544  1.3049
  168SAPE   H8Y18933   2.935   2.567   4.759  0.2640 -2.6254 -2.9448
  168SAPE   C3918934   3.081   2.725   4.805  0.1593  0.0961 -0.1685
  168SAPE   H9X18935   3.008   2.800   4.765 -1.4070 -0.7178  1.0521
  168SAPE   H9Y18936   3.180   2.743   4.759 -0.5140  0.4010 -1.5615
  168SAPE  C31018937   3.089   2.729   4.958  0.3149  0.4216  0.4288
  168SAPE  H10X18938   3.152   2.641   4.983  0.5282  0.5410  0.3114
  168SAPE  H10Y18939   2.989   2.711   5.004 -0.1558 -0.9199 -1.0359
  168SAPE  C31118940   3.141   2.854   5.024 -0.0632  0.1856 -0.5062
  168SAPE  H11X18941   3.234   2.884   4.971  0.6084 -1.0979 -0.1070
  168SAPE  H11Y18942   3.154   2.835   5.133  1.6700  2.3821 -0.2470
  168SAPE  C31218943   3.033   2.971   5.018 -0.5274  0.0293 -0.1006
  168SAPE  H12X18944   2.979   2.985   4.923 -0.2318  1.1815 -0.1206
  168SAPE  H12Y18945   3.094   3.060   5.046  0.0076 -1.1286  2.8059
  168SAPE  C31318946   2.919   2.961   5.124 -0.1431 -0.1429  0.0837
  168SAPE  H13X18947   2.966   2.970   5.225 -0.0427 -0.4630  0.0681
  168SAPE  H13Y18948   2.864   2.866   5.108  0.4230 -0.2935 -1.0539
  168SAPE  C31418949   2.815   3.071   5.120  0.3707  0.2022 -0.1392
  168SAPE  H14X18950   2.764   3.071   5.021 -1.6426 -3.1974  0.7295
  168SAPE  H14Y18951   2.865   3.169   5.131  1.4830 -0.2587 -0.9312
  168SAPE  C31518952   2.703   3.048   5.222  0.3869 -0.3583  0.3927
  168SAPE  H15X18953   2.743   3.092   5.315  0.4795 -0.8043  0.5687
  168SAPE  H15Y18954   2.666   2.944   5.239 -0.1264 -0.0531  1.1904
  168SAPE  C31618955   2.580   3.114   5.174  0.4572  0.1492  0.5630
  168SAPE  H16X18956   2.495   3.103   5.245 -0.4418 -1.5263 -0.7108
  168SAPE  H16Y18957   2.544   3.066   5.081 -0.4658 -0.0980  1.0354
  168SAPE  C31718958   2.589   3.269   5.138 -0.0817 -0.4008 -0.2748
  168SAPE  H17X18959   2.484   3.300   5.119 -0.8421 -1.8469  1.3728
  168SAPE  H17Y18960   2.647   3.266   5.043 -1.9400 -0.4956 -1.4526
  168SAPE  C31818961   2.648   3.365   5.246  0.0094  0.4857  0.8887
  168SAPE  H18X18962   2.659   3.466   5.200  1.0836  0.7848  1.7703
  168SAPE  H18Y18963   2.746   3.340   5.291  0.2280  1.7071  1.1205
  168SAPE  H18Z18964   2.587   3.374   5.339  2.7322  1.3088  2.7110
  169SAPE     N18965   0.054   2.996   2.942 -0.3803  0.7425  0.4445
  169SAPE   HN118966   0.022   3.042   2.854 -0.4525  0.6185  0.4062
  169SAPE   HN218967   0.143   3.040   2.973  0.2752 -1.1309  1.3508
  169SAPE   HN318968   0.065   2.894   2.927  0.1441  0.8339  0.1550
  169SAPE   C1218969  -0.055   3.022   3.045  0.1910 -0.3558 -0.1901
  169SAPE  H12A18970  -0.115   2.932   3.068 -0.3685 -0.0301 -0.3454
  169SAPE  H12B18971  -0.119   3.108   3.013 -1.0018 -1.7883 -1.8751
  169SAPE   C1118972   0.015   3.065   3.174 -0.4113  0.4229  0.0522
  169SAPE  H11A18973   0.085   2.987   3.211 -0.2381  0.4662 -0.1838
  169SAPE  H11B18974  -0.066   3.080   3.249  0.1647  1.3470  0.5096
  169SAPE     P18975   0.229   3.227   3.123 -0.0407 -0.0699 -0.0828
  169SAPE   O1318976   0.270   3.136   3.015  0.7150 -0.0293  0.8596
  169SAPE   O1418977   0.245   3.372   3.108 -0.1482 -0.1468  0.1527
  169SAPE   O1218978   0.077   3.193   3.160 -0.3129  0.9467  0.6845
  169SAPE   O1118979   0.319   3.194   3.248  0.2714  0.0265 -0.4492
  169SAPE    C118980   0.279   3.173   3.381  0.0588  0.3856 -0.5765
  169SAPE    HA18981   0.173   3.142   3.395  0.1539  0.6978  1.0783
  169SAPE    HB18982   0.346   3.112   3.445 -1.4291  0.1667  0.8675
  169SAPE    C218983   0.273   3.309   3.459 -0.2920 -0.4318 -0.2077
  169SAPE    HS18984   0.222   3.386   3.397  2.6921  1.5666 -0.3824
  169SAPE   O2118985   0.410   3.355   3.478 -0.0126 -0.0582  0.2888
  169SAPE   C2118986   0.421   3.481   3.516  0.3738 -0.3619 -0.2063
  169SAPE   O2218987   0.327   3.560   3.530 -0.0493 -0.2363 -0.3517
  169SAPE   C2218988   0.571   3.522   3.515 -0.1319  0.0761  0.2163
  169SAPE   H2R18989   0.640   3.435   3.505  0.6031  0.3861  2.0307
  169SAPE   H2S18990   0.581   3.579   3.421  4.1571  0.5874  0.7688
  169SAPE    C318991   0.195   3.293   3.592  0.1408  0.0626 -0.2982
  169SAPE    HX18992   0.092   3.257   3.572 -0.5567 -1.1393  4.2774
  169SAPE    HY18993   0.169   3.394   3.628  0.6764  0.0784  0.0610
  169SAPE   O3118994   0.246   3.201   3.688 -0.0451 -0.4788 -0.4877
  169SAPE   C3118995   0.293   3.254   3.797 -0.0256  1.0749  0.1157
  169SAPE   O3218996   0.308   3.370   3.828 -0.4754 -0.0993  0.2024
  169SAPE   C3218997   0.325   3.139   3.882 -0.1056  1.3777  0.4085
  169SAPE   H2X18998   0.422   3.097   3.846  0.0635  3.5368 -1.9488
  169SAPE   H2Y18999   0.251   3.056   3.872  1.9285 -0.2912 -2.1655
  169SAPE   C2319000   0.626   3.601   3.640  0.6975 -0.1348  0.0046
  169SAPE   H3R19001   0.736   3.607   3.633  0.8671 -0.0546  2.1698
  169SAPE   H3S19002   0.603   3.549   3.736 -0.5088  0.8033  0.2482
  169SAPE   C2419003   0.572   3.743   3.657  0.3296 -0.5248 -0.5795
  169SAPE   H4R19004   0.591   3.772   3.762 -1.3428  0.5019 -0.5380
  169SAPE   H4S19005   0.463   3.744   3.638 -0.1093  0.4791  1.6967
  169SAPE   C2519006   0.640   3.837   3.563  0.6798  0.4601 -0.0299
  169SAPE   H5R19007   0.602   3.812   3.463  1.0206 -1.2141  0.2402
  169SAPE   C2619008   0.724   3.946   3.569 -0.2547  0.0649  1.0224
  169SAPE   H6R19009   0.746   3.996   3.474 -0.3840 -0.0005  0.9570
  169SAPE   C2719010   0.782   4.000   3.693  0.6040 -0.6257 -0.0336
  169SAPE   H7R19011   0.891   3.975   3.690  1.0202  1.0793 -2.7535
  169SAPE   H7S19012   0.738   3.948   3.781 -0.8348  1.8331  0.8022
  169SAPE   C2819013   0.777   4.151   3.706  0.2484  0.2169 -0.0021
  169SAPE   H8R19014   0.816   4.202   3.617  1.2217  0.4712  0.5485
  169SAPE   C2919015   0.719   4.222   3.803 -0.1170 -0.4061  0.3743
  169SAPE   H9R19016   0.711   4.331   3.795 -0.5280 -0.1959  2.9016
  169SAPE  C21019017   0.664   4.181   3.929  0.1742  0.2596  0.4297
  169SAPE  H10R19018   0.696   4.077   3.952 -1.9472 -0.6176 -0.3007
  169SAPE  H10S19019   0.555   4.165   3.910  0.1376  0.0460  0.8020
  169SAPE  C21119020   0.678   4.273   4.045 -0.3120  0.1942 -0.1303
  169SAPE  H11R19021   0.690   4.379   4.021 -0.1798 -0.2019 -1.9656
  169SAPE  C21219022   0.665   4.229   4.173  0.1707 -0.1055  0.3715
  169SAPE  H12R19023   0.679   4.299   4.257 -0.7080 -1.6657  1.8930
  169SAPE  C21319024   0.641   4.087   4.222  0.2098 -0.5736  0.7695
  169SAPE  H13R19025   0.618   4.020   4.137  2.6188 -0.6590  0.1136
  169SAPE  H13S19026   0.554   4.097   4.290 -0.2697  0.4688  0.0332
  169SAPE  C21419027   0.769   4.046   4.297  0.6955  0.6217 -0.0812
  169SAPE  H14R19028   0.851   4.027   4.226  1.3694 -3.0503  1.4573
  169SAPE  C21519029   0.783   4.014   4.429 -0.4448  0.7808  0.3958
  169SAPE  H15R19030   0.886   3.981   4.451 -0.0566  0.9306 -1.0510
  169SAPE  C21619031   0.672   4.011   4.528  0.0783 -0.2981 -0.1304
  169SAPE  H16R19032   0.631   4.113   4.544  2.8880  1.0039 -0.5756
  169SAPE  H16S19033   0.726   3.985   4.621 -1.4409 -1.2249  0.5344
  169SAPE  C21719034   0.555   3.911   4.506 -0.3147 -0.0989  0.1460
  169SAPE  H17R19035   0.597   3.810   4.488 -2.5950 -0.9441 -0.7912
  169SAPE  H17S19036   0.489   3.942   4.421  0.4475  0.2778 -0.3193
  169SAPE  C21819037   0.478   3.900   4.642 -0.0314  0.3671 -0.0646
  169SAPE  H18R19038   0.418   3.993   4.640 -0.2758  0.2023 -1.3570
  169SAPE  H18S19039   0.553   3.896   4.724 -1.5400 -1.7981  1.3006
  169SAPE  C21919040   0.388   3.774   4.652 -0.3741  0.1085  0.2934
  169SAPE  H19R19041   0.317   3.791   4.736  0.0156  2.3948  0.2256
  169SAPE  H19S19042   0.453   3.684   4.652  0.0261  0.3962  1.0454
  169SAPE  C22019043   0.300   3.753   4.524 -0.4507  0.5499  0.1090
  169SAPE  H20R19044   0.257   3.651   4.539  1.1204 -0.0623  0.7123
  169SAPE  H20S19045   0.372   3.735   4.441 -0.1818 -1.9509  0.7958
  169SAPE  H20T19046   0.233   3.839   4.504 -1.8060 -0.8159 -1.5551
  169SAPE   C3319047   0.338   3.178   4.033 -0.6241  0.1363  0.4404
  169SAPE   H3X19048   0.241   3.217   4.071 -0.7279 -0.0783  0.3982
  169SAPE   H3Y19049   0.413   3.260   4.034  0.1068 -0.5113 -0.0981
  169SAPE   C3419050   0.370   3.057   4.122  0.0348 -0.4013 -0.3180
  169SAPE   H4X19051   0.458   2.999   4.087  0.1408 -1.2452  1.2687
  169SAPE   H4Y19052   0.288   2.984   4.107 -1.4616  0.6466  2.1180
  169SAPE   C3519053   0.373   3.115   4.265  0.1795  1.2144 -0.5170
  169SAPE   H5X19054   0.401   3.030   4.331 -0.1697 -0.4285 -2.3883
  169SAPE   H5Y19055   0.279   3.156   4.308 -0.4808 -0.4043 -0.3135
  169SAPE   C3619056   0.464   3.236   4.280 -0.2217  0.3073 -0.1461
  169SAPE   H6X19057   0.431   3.330   4.229  1.7323  0.0820 -1.9880
  169SAPE   H6Y19058   0.559   3.200   4.235 -1.9635 -4.7415 -0.3869
  169SAPE   C3719059   0.492   3.270   4.430 -0.8759 -0.8790  0.4041
  169SAPE   H7X19060   0.532   3.188   4.494  0.5023 -0.0474  0.6605
  169SAPE   H7Y19061   0.396   3.308   4.471  0.5066  2.8301  0.6484
  169SAPE   C3819062   0.601   3.383   4.451  0.6462  0.2009 -0.0278
  169SAPE   H8X19063   0.580   3.475   4.392 -2.3651 -0.5994 -0.3834
  169SAPE   H8Y19064   0.694   3.338   4.412  0.1769 -0.1799 -0.7281
  169SAPE   C3919065   0.621   3.434   4.603  0.7090 -0.3388  0.3254
  169SAPE   H9X19066   0.655   3.339   4.649  1.1902 -0.9595 -1.2197
  169SAPE   H9Y19067   0.526   3.461   4.653 -1.0526 -3.3321 -1.1285
  169SAPE  C31019068   0.726   3.544   4.610 -0.0517  1.1026  0.1212
  169SAPE  H10X19069   0.694   3.647   4.584  2.5048  1.7404 -0.8017
  169SAPE  H10Y19070   0.812   3.513   4.547 -0.2291 -0.4723  0.6218
  169SAPE  C31119071   0.782   3.569   4.757  0.6210 -0.2150  0.3586
  169SAPE  H11X19072   0.832   3.668   4.751 -1.7158  0.9857 -0.6319
  169SAPE  H11Y19073   0.867   3.499   4.775  0.7995 -0.0837  0.0257
  169SAPE  C31219074   0.666   3.580   4.860 -0.1722 -1.1543 -0.2216
  169SAPE  H12X19075   0.637   3.478   4.894 -0.1308 -0.6771  1.2997
  169SAPE  H12Y19076   0.569   3.616   4.822 -0.5291 -1.2586  0.5809
  169SAPE  C31319077   0.697   3.656   4.992  0.6286  0.0753 -0.3104
  169SAPE  H13X19078   0.598   3.668   5.041  0.0171  0.1114 -1.5313
  169SAPE  H13Y19079   0.752   3.751   4.978  2.7276 -0.9112  0.7766
  169SAPE  C31419080   0.784   3.571   5.084 -0.4343  0.4888  0.8283
  169SAPE  H14X19081   0.890   3.569   5.053  0.3092  0.2398  3.2046
  169SAPE  H14Y19082   0.751   3.465   5.082 -0.6717  0.5703  0.4154
  169SAPE  C31519083   0.778   3.612   5.230  0.2911  0.0067  1.0118
  169SAPE  H15X19084   0.747   3.718   5.223  0.5880  0.0262 -0.2476
  169SAPE  H15Y19085   0.878   3.592   5.275  0.4699 -1.3366  0.0793
  169SAPE  C31619086   0.681   3.533   5.319 -0.0179  0.4218  0.2832
  169SAPE  H16X19087   0.679   3.423   5.301  0.3032 -0.1061  2.9694
  169SAPE  H16Y19088   0.577   3.568   5.300  0.0337 -0.8692 -2.9456
  169SAPE  C31719089   0.721   3.540   5.465 -0.2308  0.0274 -0.0209
  169SAPE  H17X19090   0.720   3.642   5.510  0.1155 -0.2396  0.5971
  169SAPE  H17Y19091   0.823   3.500   5.484 -0.2315 -0.2896 -0.6386
  169SAPE  C31819092   0.616   3.459   5.544 -0.6205  0.4705 -0.7165
  169SAPE  H18X19093   0.571   3.373   5.490  0.1380 -1.7371  1.9295
  169SAPE  H18Y19094   0.533   3.528   5.572 -0.5536  0.1235  0.4110
  169SAPE  H18Z19095   0.658   3.416   5.638  2.9408  1.9634 -1.4884
  170SAPE     N19096   0.766   6.515   2.631  0.0530 -0.1201  1.1593
  170SAPE   HN119097   0.833   6.437   2.645 -0.0405 -0.4013  0.1306
  170SAPE   HN219098   0.753   6.529   2.529  1.7689  1.2092  1.0877
  170SAPE   HN319099   0.803   6.603   2.671 -0.9488  1.3541 -0.9668
  170SAPE   C1219100   0.638   6.464   2.694  0.5846 -0.5236 -0.7511
  170SAPE  H12A19101   0.624   6.362   2.651  1.3063 -1.6344  1.4770
  170SAPE  H12B19102   0.558   6.536   2.667  1.2176  0.5384  0.1196
  170SAPE   C1119103   0.661   6.443   2.845 -0.2460  1.1701  0.0621
  170SAPE  H11A19104   0.568   6.422   2.901  1.5611 -1.3689  2.3335
  170SAPE  H11B19105   0.714   6.533   2.884 -0.5224  1.8732 -1.1467
  170SAPE     P19106   0.893   6.318   2.902  0.0057 -0.3406 -0.0269
  170SAPE   O1319107   0.946   6.182   2.884 -0.2539  0.1069 -0.1928
  170SAPE   O1419108   0.955   6.418   2.810 -0.3839  0.3911  0.6600
  170SAPE   O1219109   0.738   6.319   2.868  0.6507 -0.1533 -0.5259
  170SAPE   O1119110   0.899   6.372   3.055  0.8250  0.0866 -0.1408
  170SAPE    C119111   0.965   6.504   3.078  0.2535 -0.2793  0.2227
  170SAPE    HA19112   0.952   6.570   2.990  1.9645  0.9067  0.8109
  170SAPE    HB19113   0.920   6.552   3.168  0.9192 -0.7971  0.8443
  170SAPE    C219114   1.116   6.498   3.107  0.4493 -0.5964  0.2411
  170SAPE    HS19115   1.178   6.447   3.029  0.0093  0.9304 -1.1709
  170SAPE   O2119116   1.131   6.441   3.239  0.2012 -0.1338 -0.6258
  170SAPE   C2119117   1.151   6.314   3.247 -0.0382  0.7257 -0.2867
  170SAPE   O2219118   1.179   6.240   3.155 -0.1833 -0.4237  0.1375
  170SAPE   C2219119   1.108   6.270   3.389  0.7894  0.8608  0.4785
  170SAPE   H2R19120   1.187   6.200   3.423 -0.9943  0.1776  3.5965
  170SAPE   H2S19121   1.107   6.357   3.459 -0.8807  0.6128  0.8171
  170SAPE    C319122   1.169   6.644   3.127 -0.3678 -0.0535  0.0007
  170SAPE    HX19123   1.142   6.683   3.228  2.4459  0.1917  0.7465
  170SAPE    HY19124   1.124   6.710   3.050  1.2601  1.8241  0.5739
  170SAPE   O3119125   1.311   6.655   3.113 -0.0218  0.9954 -0.1042
  170SAPE   C3119126   1.382   6.680   3.219 -0.3767 -0.0680 -0.2363
  170SAPE   O3219127   1.342   6.694   3.335 -0.6925 -0.1226 -0.1507
  170SAPE   C3219128   1.525   6.698   3.168 -0.3986  0.2252  0.7891
  170SAPE   H2X19129   1.519   6.764   3.079 -1.1627  0.7958  1.2526
  170SAPE   H2Y19130   1.559   6.599   3.129 -0.4122  0.4728  0.1377
  170SAPE   C2319131   0.973   6.200   3.399  0.3389 -0.2451  0.6313
  170SAPE   H3R19132   0.957   6.119   3.325  0.8843 -0.4854  0.7765
  170SAPE   H3S19133   0.881   6.255   3.370  0.8419  1.0112  1.3242
  170SAPE   C2419134   0.956   6.134   3.535 -0.0029  0.4671 -0.4539
  170SAPE   H4R19135   0.958   6.209   3.617 -0.1773  1.1816 -1.1015
  170SAPE   H4S19136   1.031   6.055   3.559 -2.0926 -1.3515  0.4272
  170SAPE   C2519137   0.817   6.063   3.536 -0.5572  0.2651  0.3574
  170SAPE   H5R19138   0.789   6.044   3.431 -0.4285 -2.1352  0.7057
  170SAPE   C2619139   0.727   6.049   3.639  0.3061 -0.2223  0.0347
  170SAPE   H6R19140   0.625   6.018   3.611  0.4014 -0.3675 -0.1578
  170SAPE   C2719141   0.762   6.085   3.784 -0.0195  0.1290 -0.6315
  170SAPE   H7R19142   0.674   6.056   3.845  0.1481 -1.4400 -1.1104
  170SAPE   H7S19143   0.780   6.194   3.794  0.7343 -0.1401  1.3114
  170SAPE   C2819144   0.887   6.020   3.842 -0.5186  0.0457  0.2223
  170SAPE   H8R19145   0.928   5.943   3.775 -0.8596  1.6244 -1.8883
  170SAPE   C2919146   0.938   6.037   3.965 -1.0870  0.3322  0.6158
  170SAPE   H9R19147   1.024   5.972   3.985 -1.4431 -0.6585 -0.8770
  170SAPE  C21019148   0.864   6.105   4.072  0.8442 -0.3705  0.2828
  170SAPE  H10R19149   0.756   6.077   4.076  0.8168 -0.2757  4.1131
  170SAPE  H10S19150   0.855   6.215   4.061 -1.2515 -0.6505 -1.4168
  170SAPE  C21119151   0.934   6.075   4.201 -0.0601  1.0618  0.1595
  170SAPE  H11R19152   0.894   5.998   4.269  1.6784  0.2462  0.3211
  170SAPE  C21219153   1.044   6.137   4.265  0.4063  0.1948  0.4625
  170SAPE  H12R19154   1.073   6.101   4.364  0.3766  0.7368  0.6693
  170SAPE  C21319155   1.114   6.255   4.201 -0.7217  0.5640 -0.2808
  170SAPE  H13R19156   1.109   6.331   4.282 -0.5547 -0.1834  0.4378
  170SAPE  H13S19157   1.064   6.294   4.110 -0.8509 -1.0420 -0.9313
  170SAPE  C21419158   1.254   6.218   4.163  0.1504 -0.6269  0.1513
  170SAPE  H14R19159   1.260   6.196   4.056  0.2335 -0.0379  0.0358
  170SAPE  C21519160   1.362   6.217   4.243 -0.0330 -0.6691 -0.1566
  170SAPE  H15R19161   1.455   6.176   4.200  0.0241 -0.2318 -0.4596
  170SAPE  C21619162   1.364   6.242   4.389  0.4976 -0.5133 -0.0171
  170SAPE  H16R19163   1.264   6.271   4.430 -0.1659  0.4320 -2.1772
  170SAPE  H16S19164   1.438   6.323   4.407  0.7809 -0.5613 -0.9366
  170SAPE  C21719165   1.415   6.123   4.464 -0.5794  0.4835 -0.0598
  170SAPE  H17R19166   1.522   6.107   4.439 -0.6030  0.5202 -0.1835
  170SAPE  H17S19167   1.362   6.031   4.432 -3.4242  1.6532  0.9870
  170SAPE  C21819168   1.415   6.152   4.614  0.0943 -0.4829 -0.0747
  170SAPE  H18R19169   1.319   6.112   4.653 -0.7021  1.6512  0.2813
  170SAPE  H18S19170   1.432   6.261   4.627 -0.1379 -0.5522  0.8275
  170SAPE  C21919171   1.535   6.091   4.682 -0.4509 -0.4485  0.5900
  170SAPE  H19R19172   1.620   6.151   4.642 -1.1474  0.5389  0.5594
  170SAPE  H19S19173   1.536   5.983   4.656  0.9605 -0.0631 -1.1839
  170SAPE  C22019174   1.536   6.112   4.840 -0.0621  0.2514  0.2838
  170SAPE  H20R19175   1.524   6.220   4.862  0.2142  0.2747  0.3197
  170SAPE  H20S19176   1.626   6.065   4.885  0.0977  0.6234  0.3511
  170SAPE  H20T19177   1.447   6.062   4.884  0.6621  0.3829  1.9589
  170SAPE   C3319178   1.610   6.752   3.273  0.1744 -1.0254  0.1713
  170SAPE   H3X19179   1.570   6.837   3.331  4.2208  0.9845  0.3464
  170SAPE   H3Y19180   1.694   6.806   3.224 -1.1387 -0.3977 -1.4965
  170SAPE   C3419181   1.670   6.659   3.377 -0.4865  0.1369 -0.8460
  170SAPE   H4X19182   1.739   6.593   3.320  0.0773  0.6969 -0.8178
  170SAPE   H4Y19183   1.598   6.590   3.426 -0.6036  0.4109 -0.6307
  170SAPE   C3519184   1.731   6.711   3.497  0.1585  0.3371 -0.2798
  170SAPE   H5X19185   1.739   6.641   3.583  0.8335  0.4309 -0.2606
  170SAPE   H5Y19186   1.658   6.788   3.529 -0.9556 -1.5268  1.9774
  170SAPE   C3619187   1.868   6.767   3.473 -0.1410 -0.3253 -0.0140
  170SAPE   H6X19188   1.852   6.863   3.420  1.7643  1.5658  2.5699
  170SAPE   H6Y19189   1.926   6.702   3.405 -0.7472 -0.7848 -0.1012
  170SAPE   C3719190   1.947   6.795   3.604  0.0993  0.1531 -0.0722
  170SAPE   H7X19191   2.043   6.840   3.570  0.4373 -0.5337 -0.0382
  170SAPE   H7Y19192   1.965   6.695   3.648  0.3639  0.7814  1.3071
  170SAPE   C3819193   1.864   6.874   3.707 -0.3727  0.3396 -0.7521
  170SAPE   H8X19194   1.758   6.840   3.718 -1.3131  2.3824 -2.6355
  170SAPE   H8Y19195   1.849   6.982   3.683 -0.7488  0.5608  0.4274
  170SAPE   C3919196   1.927   6.861   3.848 -0.2984  0.0183  0.0363
  170SAPE   H9X19197   2.024   6.913   3.832  0.0959 -0.1960  1.6446
  170SAPE   H9Y19198   1.955   6.762   3.889 -0.6206  0.3652  1.1092
  170SAPE  C31019199   1.859   6.932   3.959 -0.2102 -0.1999  0.2305
  170SAPE  H10X19200   1.765   6.881   3.988 -0.6981  1.5189  1.8473
  170SAPE  H10Y19201   1.828   7.031   3.919 -0.1462 -0.2097  0.1549
  170SAPE  C31119202   1.952   6.956   4.076  0.3500  0.3661  0.2166
  170SAPE  H11X19203   2.030   7.030   4.049 -1.0398  2.0296  0.5541
  170SAPE  H11Y19204   1.992   6.855   4.098 -1.5466 -0.0298  2.2203
  170SAPE  C31219205   1.888   7.010   4.208  0.0070  0.4590 -0.5785
  170SAPE  H12X19206   1.825   6.937   4.263  1.8771  0.3091  1.5200
  170SAPE  H12Y19207   1.819   7.095   4.190  1.2918  2.1005  1.6456
  170SAPE  C31319208   1.994   7.060   4.307  0.9861  0.2430  0.1755
  170SAPE  H13X19209   2.041   7.153   4.269  0.2342  0.9245  0.8582
  170SAPE  H13Y19210   2.073   6.984   4.322  1.5174  0.4509 -1.4855
  170SAPE  C31419211   1.931   7.103   4.438  0.0160  0.1626 -0.1784
  170SAPE  H14X19212   1.867   7.017   4.468  1.7440 -1.2317 -0.3038
  170SAPE  H14Y19213   1.858   7.185   4.416  0.1664 -0.1751 -2.1823
  170SAPE  C31519214   2.019   7.148   4.548 -0.1709 -0.1767  0.6454
  170SAPE  H15X19215   2.065   7.246   4.522 -0.8673  0.2515  0.9983
  170SAPE  H15Y19216   2.105   7.079   4.557 -0.3707 -0.4226  0.6635
  170SAPE  C31619217   1.951   7.165   4.683  0.2142  0.3486 -0.3957
  170SAPE  H16X19218   1.911   7.065   4.711  0.4189  0.3511 -0.0939
  170SAPE  H16Y19219   1.862   7.232   4.676 -0.8866 -0.9093  0.9084
  170SAPE  C31719220   2.040   7.211   4.798 -0.5598 -1.1020 -0.5960
  170SAPE  H17X19221   2.052   7.319   4.775 -2.0749 -0.3699  1.6900
  170SAPE  H17Y19222   2.139   7.160   4.788  0.3280  0.8675 -2.7379
  170SAPE  C31819223   1.982   7.195   4.937  1.0982  0.6049  0.1865
  170SAPE  H18X19224   1.975   7.090   4.973  0.0848  0.5196 -0.2317
  170SAPE  H18Y19225   1.878   7.234   4.940 -0.3678 -2.8666 -0.8342
  170SAPE  H18Z19226   2.049   7.246   5.009  1.7353  0.4938 -0.3210
  171SAPE     N19227   2.066   0.797   3.046  0.0548  0.1408 -0.2868
  171SAPE   HN119228   2.019   0.766   3.134 -0.9692 -0.1248 -0.9132
  171SAPE   HN219229   2.008   0.874   3.009 -0.9460  0.4927  1.8378
  171SAPE   HN319230   2.073   0.717   2.980 -3.1208 -0.1018 -0.4515
  171SAPE   C1219231   2.212   0.838   3.075  0.0570 -1.0135 -0.0363
  171SAPE  H12A19232   2.204   0.897   3.169  2.6934  2.6360 -1.8339
  171SAPE  H12B19233   2.243   0.909   2.995  2.7498  0.6471  2.2627
  171SAPE   C1119234   2.305   0.721   3.107  0.0199 -0.2674 -0.0954
  171SAPE  H11A19235   2.378   0.731   3.189  0.6436 -1.0619 -0.5369
  171SAPE  H11B19236   2.356   0.716   3.008 -1.0574 -0.4314 -0.6554
  171SAPE     P19237   2.269   0.455   3.080 -0.2116  0.1499 -0.3494
  171SAPE   O1319238   2.225   0.430   2.943  0.0843 -0.4265 -0.3664
  171SAPE   O1419239   2.410   0.423   3.108  0.2349  0.2431 -0.3449
  171SAPE   O1219240   2.235   0.599   3.139  0.2408  0.3676  0.3187
  171SAPE   O1119241   2.171   0.364   3.172  0.0328 -0.3086  0.3050
  171SAPE    C119242   2.033   0.388   3.167 -0.3685 -0.0587  0.3533
  171SAPE    HA19243   1.994   0.470   3.104  0.7524 -0.4088 -0.8296
  171SAPE    HB19244   1.991   0.299   3.116 -0.9014  1.5766 -2.2262
  171SAPE    C219245   1.965   0.404   3.306  0.3920  0.6016 -0.0613
  171SAPE    HS19246   1.856   0.421   3.287  0.5122  0.2202 -1.1719
  171SAPE   O2119247   2.016   0.500   3.393  0.0778 -0.0976  0.0299
  171SAPE   C2119248   1.998   0.627   3.355 -0.8062  0.2811  0.4946
  171SAPE   O2219249   1.941   0.675   3.260 -0.1078  0.3365  0.3513
  171SAPE   C2219250   2.046   0.712   3.466  0.1438  0.5301 -0.2671
  171SAPE   H2R19251   1.994   0.809   3.449  0.2045  1.0854  2.3631
  171SAPE   H2S19252   2.028   0.666   3.565  2.5338  0.5207  0.2246
  171SAPE    C319253   1.980   0.265   3.381 -0.1880 -0.1470  0.0629
  171SAPE    HX19254   2.086   0.233   3.393 -0.5016 -1.1012  0.3221
  171SAPE    HY19255   1.934   0.188   3.317 -2.3757  1.1661 -0.0399
  171SAPE   O3119256   1.919   0.260   3.508  0.2147 -0.0571 -0.2957
  171SAPE   C3119257   2.000   0.280   3.615  0.2669  0.0556  0.0337
  171SAPE   O3219258   2.120   0.305   3.600  0.6412  0.0688 -0.0154
  171SAPE   C3219259   1.943   0.236   3.747  0.4494  0.0168 -0.6652
  171SAPE   H2X19260   1.957   0.128   3.765 -0.8082  0.1359  1.3514
  171SAPE   H2Y19261   1.835   0.265   3.744  0.3493 -0.3346 -0.4707
  171SAPE   C2319262   2.194   0.741   3.446 -0.0767 -0.6316 -0.3179
  171SAPE   H3R19263   2.218   0.812   3.364  1.2152  2.6408  2.6770
  171SAPE   H3S19264   2.254   0.648   3.429  2.3628  0.8956 -0.5259
  171SAPE   C2419265   2.263   0.811   3.563 -0.1573  0.1685 -0.6920
  171SAPE   H4R19266   2.372   0.788   3.564 -0.8880 -4.0776 -0.9216
  171SAPE   H4S19267   2.223   0.764   3.655 -0.1622 -3.8088 -2.5256
  171SAPE   C2519268   2.240   0.958   3.588  0.4910  0.4222  0.0559
  171SAPE   H5R19269   2.282   1.017   3.505  0.4330  0.2026 -0.1283
  171SAPE   C2619270   2.172   1.017   3.693 -0.8933 -0.4769  0.2856
  171SAPE   H6R19271   2.162   1.127   3.691  0.4658 -0.3218 -2.4997
  171SAPE   C2719272   2.096   0.956   3.811 -0.4494  0.6216  0.1431
  171SAPE   H7R19273   2.076   0.851   3.781 -0.1324  0.9222 -1.2294
  171SAPE   H7S19274   1.992   0.995   3.817 -0.0598  1.8206 -0.4829
  171SAPE   C2819275   2.182   0.974   3.941 -0.0107 -0.1722  0.4226
  171SAPE   H8R19276   2.270   0.909   3.945 -0.9029 -1.3751  1.2747
  171SAPE   C2919277   2.138   1.035   4.051  0.0404  0.1513 -0.1378
  171SAPE   H9R19278   2.194   1.038   4.146 -2.6647 -0.8115  1.6165
  171SAPE  C21019279   1.999   1.103   4.070 -0.3044  0.3302  0.4380
  171SAPE  H10R19280   1.926   1.088   3.988  0.6867  0.8704 -0.5742
  171SAPE  H10S19281   2.013   1.213   4.072  1.3665  0.1718 -0.4042
  171SAPE  C21119282   1.939   1.051   4.198 -0.1604 -0.3759  0.0263
  171SAPE  H11R19283   1.879   0.960   4.185  0.2513 -0.4640 -1.4092
  171SAPE  C21219284   1.952   1.113   4.317 -0.3104  0.0865 -0.0678
  171SAPE  H12R19285   1.925   1.050   4.403  1.3698 -1.2109 -0.4262
  171SAPE  C21319286   2.022   1.241   4.343 -0.1101 -0.1152 -0.1012
  171SAPE  H13R19287   1.950   1.325   4.361  0.4365  0.6241 -1.2013
  171SAPE  H13S19288   2.073   1.281   4.253 -1.3335  2.9541  0.4206
  171SAPE  C21419289   2.131   1.237   4.448 -0.3155  0.4670 -0.1258
  171SAPE  H14R19290   2.197   1.150   4.440 -0.2305  0.2667  2.2164
  171SAPE  C21519291   2.132   1.313   4.552 -0.2958 -1.0617  0.0937
  171SAPE  H15R19292   2.213   1.300   4.626  2.0437 -0.2656 -2.1714
  171SAPE  C21619293   2.018   1.410   4.591 -0.5303 -0.5366  0.0315
  171SAPE  H16R19294   1.922   1.355   4.582 -1.0910  0.5226 -0.7063
  171SAPE  H16S19295   2.008   1.486   4.511 -1.9281  0.8000  1.3849
  171SAPE  C21719296   2.030   1.469   4.732 -0.1623 -0.1337  0.3121
  171SAPE  H17R19297   1.958   1.551   4.753  0.3641  0.6876 -0.9584
  171SAPE  H17S19298   2.131   1.509   4.758 -1.3332  1.9290  2.0408
  171SAPE  C21819299   2.004   1.376   4.852 -0.2651  0.2548 -1.0820
  171SAPE  H18R19300   2.095   1.313   4.852 -0.7838 -0.5036 -1.3312
  171SAPE  H18S19301   1.920   1.308   4.827  0.9899 -2.3072  1.0932
  171SAPE  C21919302   2.005   1.458   4.979  0.2136  0.0158  0.8432
  171SAPE  H19R19303   1.925   1.534   4.969  2.4877  2.4273 -0.0750
  171SAPE  H19S19304   2.100   1.516   4.979  0.0545  0.3300 -0.7138
  171SAPE  C22019305   1.989   1.365   5.095 -0.1980 -0.1444 -0.2563
  171SAPE  H20R19306   1.990   1.427   5.187  0.9745  1.0926 -1.0672
  171SAPE  H20S19307   2.074   1.294   5.095 -0.2391 -0.2047 -1.2529
  171SAPE  H20T19308   1.893   1.309   5.090  0.2435 -1.0504  0.9046
  171SAPE   C3319309   2.005   0.316   3.867  0.1624  0.2502 -0.8444
  171SAPE   H3X19310   2.106   0.273   3.888 -0.1008 -0.3411 -0.7760
  171SAPE   H3Y19311   1.942   0.284   3.952  2.2330 -1.2847  0.2070
  171SAPE   C3419312   2.018   0.475   3.862  0.1188 -0.4431  0.1026
  171SAPE   H4X19313   1.929   0.519   3.812  0.5266  0.8470  0.4664
  171SAPE   H4Y19314   2.106   0.481   3.794  0.7167  4.2155  0.9774
  171SAPE   C3519315   2.057   0.550   3.991 -0.0723 -0.8558 -0.6544
  171SAPE   H5X19316   2.089   0.655   3.975  1.3247 -1.0996  0.3537
  171SAPE   H5Y19317   2.139   0.498   4.045  0.5567  0.5946 -0.1596
  171SAPE   C3619318   1.947   0.555   4.106 -0.6767  0.4296  0.5562
  171SAPE   H6X19319   1.904   0.455   4.125  0.8536 -0.4832 -0.4592
  171SAPE   H6Y19320   1.867   0.624   4.071 -2.3560 -2.9189 -3.0781
  171SAPE   C3719321   2.001   0.593   4.244 -0.1996 -0.2185  0.4834
  171SAPE   H7X19322   2.080   0.670   4.230 -0.5763  0.0811 -0.0215
  171SAPE   H7Y19323   2.059   0.506   4.282  1.9943  0.8078 -0.3785
  171SAPE   C3819324   1.900   0.652   4.339 -0.4331  0.0666 -0.3732
  171SAPE   H8X19325   1.826   0.577   4.375  0.8041 -0.5390  1.0127
  171SAPE   H8Y19326   1.853   0.739   4.288 -1.1936 -0.9086 -1.3800
  171SAPE   C3919327   1.977   0.711   4.457  0.0203  0.4842 -0.2493
  171SAPE   H9X19328   1.900   0.757   4.523 -0.1844 -0.3625  0.1161
  171SAPE   H9Y19329   2.037   0.792   4.412  0.8701 -0.8210 -1.5429
  171SAPE  C31019330   2.065   0.609   4.530 -0.7325  0.1957  0.6952
  171SAPE  H10X19331   2.160   0.604   4.473 -0.1435  2.1687  1.4260
  171SAPE  H10Y19332   2.028   0.505   4.542 -1.9001  0.4794 -0.2672
  171SAPE  C31119333   2.106   0.659   4.668  0.0535 -0.0085  0.5417
  171SAPE  H11X19334   2.024   0.644   4.740 -0.8194  1.4285 -0.1143
  171SAPE  H11Y19335   2.134   0.767   4.672 -0.0957  0.0038  1.6917
  171SAPE  C31219336   2.234   0.587   4.723  0.0486 -0.5331 -0.4530
  171SAPE  H12X19337   2.321   0.615   4.660  0.6854 -0.5037  0.4095
  171SAPE  H12Y19338   2.217   0.478   4.708  1.1779 -0.9405  0.9579
  171SAPE  C31319339   2.274   0.614   4.869  0.2707  0.2352 -0.1915
  171SAPE  H13X19340   2.221   0.555   4.946  0.7049  0.2733  0.1377
  171SAPE  H13Y19341   2.244   0.717   4.899  0.8490  0.1276  0.7886
  171SAPE  C31419342   2.422   0.593   4.896 -0.3309 -0.3361 -0.7062
  171SAPE  H14X19343   2.479   0.675   4.847 -0.3472 -0.7097 -1.3715
  171SAPE  H14Y19344   2.452   0.488   4.874 -1.7560 -1.3795  1.9717
  171SAPE  C31519345   2.452   0.605   5.044  0.0730 -0.1650 -0.5022
  171SAPE  H15X19346   2.373   0.553   5.103  2.5687 -1.0650  2.2865
  171SAPE  H15Y19347   2.427   0.710   5.071 -1.8941 -0.6583 -0.2158
  171SAPE  C31619348   2.594   0.589   5.075  0.5755  0.3938  0.3757
  171SAPE  H16X19349   2.646   0.669   5.017  0.5845  0.4550  0.4691
  171SAPE  H16Y19350   2.631   0.490   5.042 -1.3849 -0.2545  0.0109
  171SAPE  C31719351   2.630   0.594   5.221 -0.2321  0.3076 -0.5500
  171SAPE  H17X19352   2.577   0.673   5.279 -0.0496  0.3240 -0.4013
  171SAPE  H17Y19353   2.736   0.620   5.243 -0.4001 -0.0529  0.8141
  171SAPE  C31819354   2.607   0.458   5.276  0.6993  0.1607 -0.5968
  171SAPE  H18X19355   2.528   0.401   5.222 -0.8526  0.2735  1.4569
  171SAPE  H18Y19356   2.588   0.462   5.385  0.1201 -0.1683 -0.6828
  171SAPE  H18Z19357   2.698   0.397   5.255  1.3585  1.4519 -1.5620
  172SAPE     N19358   2.058   1.854   3.072  0.2281 -0.5343 -0.1755
  172SAPE   HN119359   2.125   1.907   3.014 -2.0354  0.1727 -2.3233
  172SAPE   HN219360   1.997   1.792   3.016 -2.2580  0.4723  1.2527
  172SAPE   HN319361   1.983   1.907   3.122  0.1595 -0.8563  0.0700
  172SAPE   C1219362   2.140   1.765   3.176  1.0477  0.5873 -0.2853
  172SAPE  H12A19363   2.110   1.660   3.158  0.5785  0.9719 -2.0319
  172SAPE  H12B19364   2.107   1.796   3.277 -0.5708 -0.4442 -0.4671
  172SAPE   C1119365   2.289   1.781   3.167  0.2342  0.0530  0.1382
  172SAPE  H11A19366   2.305   1.746   3.063 -0.8573 -0.1385  0.0294
  172SAPE  H11B19367   2.349   1.716   3.235 -0.3561  0.7013  1.3213
  172SAPE     P19368   2.311   2.025   3.286  0.4456  0.0587 -0.1826
  172SAPE   O1319369   2.441   2.076   3.315 -0.3173 -0.2160  0.2931
  172SAPE   O1419370   2.212   2.134   3.260 -0.2506  0.5204 -0.1251
  172SAPE   O1219371   2.328   1.918   3.165  0.3679 -0.0249  0.3654
  172SAPE   O1119372   2.264   1.937   3.406  0.3748  0.0544  0.1209
  172SAPE    C119373   2.356   1.850   3.473  0.3600  0.0940  0.2781
  172SAPE    HA19374   2.332   1.743   3.453 -0.0235  0.5422 -1.8323
  172SAPE    HB19375   2.461   1.858   3.441 -0.5424  3.5066 -2.3550
  172SAPE    C219376   2.371   1.864   3.632  0.0566  0.3961  0.8309
  172SAPE    HS19377   2.418   1.963   3.650 -0.5506  1.0224 -0.7618
  172SAPE   O2119378   2.446   1.748   3.678 -0.0522  0.4158  0.8985
  172SAPE   C2119379   2.571   1.768   3.697  0.1206 -0.0940 -0.2615
  172SAPE   O2219380   2.630   1.870   3.682  0.4040 -0.1866 -0.3588
  172SAPE   C2219381   2.623   1.637   3.747  0.0089 -0.2910 -0.3446
  172SAPE   H2R19382   2.592   1.610   3.851  1.2258  0.2808  0.1949
  172SAPE   H2S19383   2.591   1.561   3.672  1.0308 -2.2792  1.1225
  172SAPE    C319384   2.237   1.868   3.707 -0.2126  0.2521 -0.0513
  172SAPE    HX19385   2.189   1.769   3.692  0.4031  0.3391 -3.1848
  172SAPE    HY19386   2.170   1.941   3.656  2.5424  2.3938 -0.8513
  172SAPE   O3119387   2.251   1.890   3.849  0.2388  0.7107 -0.1851
  172SAPE   C3119388   2.271   2.016   3.891 -0.1821 -0.2485  0.4792
  172SAPE   O3219389   2.281   2.113   3.817 -0.4558  0.3382 -0.4134
  172SAPE   C3219390   2.282   2.011   4.040  0.3804  0.3202  0.3498
  172SAPE   H2X19391   2.383   1.977   4.071  0.2735 -0.0468  0.3125
  172SAPE   H2Y19392   2.216   1.931   4.081  2.0596 -1.5312 -0.3658
  172SAPE   C2319393   2.776   1.625   3.765  0.2759 -1.1447  0.4657
  172SAPE   H3R19394   2.814   1.657   3.666 -0.6293 -1.0807  0.1238
  172SAPE   H3S19395   2.804   1.519   3.779 -1.2651 -1.9602 -1.9185
  172SAPE   C2419396   2.833   1.715   3.871  0.6561  0.3982  0.3003
  172SAPE   H4R19397   2.798   1.820   3.872  1.4787  0.6855  1.3319
  172SAPE   H4S19398   2.937   1.733   3.836  0.3905  0.7469 -0.3229
  172SAPE   C2519399   2.837   1.660   4.007 -0.1523  0.8978 -0.1488
  172SAPE   H5R19400   2.907   1.575   4.016 -1.8127 -0.3646  1.8676
  172SAPE   C2619401   2.777   1.713   4.122 -0.8542  0.4031 -0.1182
  172SAPE   H6R19402   2.799   1.670   4.221 -1.0320  1.5923  0.4561
  172SAPE   C2719403   2.681   1.830   4.123  0.5479 -0.4031  0.1029
  172SAPE   H7R19404   2.602   1.818   4.199  0.1249 -0.0413 -0.2752
  172SAPE   H7S19405   2.635   1.852   4.025 -0.2138  0.2553  0.6027
  172SAPE   C2819406   2.777   1.954   4.157  0.5781  0.0187  0.3677
  172SAPE   H8R19407   2.858   1.968   4.083  2.1513  0.0821  2.0486
  172SAPE   C2919408   2.775   2.024   4.270  0.5421 -0.2173 -0.1750
  172SAPE   H9R19409   2.837   2.114   4.259  2.5724 -1.6769 -1.2485
  172SAPE  C21019410   2.674   2.005   4.385  0.4491  0.5968  0.4404
  172SAPE  H10R19411   2.575   1.967   4.353  1.8726 -3.0086 -0.2156
  172SAPE  H10S19412   2.656   2.104   4.430  3.0759  1.1136  0.5118
  172SAPE  C21119413   2.732   1.906   4.487  0.3400 -0.3758 -0.3614
  172SAPE  H11R19414   2.781   1.821   4.438 -1.2875 -0.2556 -2.3537
  172SAPE  C21219415   2.731   1.919   4.625 -0.0436  0.4038  0.1451
  172SAPE  H12R19416   2.761   1.831   4.685 -0.5944  0.4359  0.4738
  172SAPE  C21319417   2.676   2.029   4.715  0.1554 -0.6303 -0.3066
  172SAPE  H13R19418   2.675   1.996   4.822  0.8024 -4.4273 -1.2994
  172SAPE  H13S19419   2.570   2.039   4.684 -0.0058 -0.5521  0.2621
  172SAPE  C21419420   2.757   2.155   4.699 -0.1845 -0.8196 -0.1912
  172SAPE  H14R19421   2.780   2.183   4.595  1.4717  2.8484  1.0090
  172SAPE  C21519422   2.784   2.252   4.784  1.0646 -0.3960 -0.2744
  172SAPE  H15R19423   2.833   2.345   4.753 -0.7313  0.7437  0.1528
  172SAPE  C21619424   2.757   2.245   4.934  0.6726 -0.6169 -0.0437
  172SAPE  H16R19425   2.706   2.153   4.969 -1.4798  1.3689  2.4615
  172SAPE  H16S19426   2.685   2.326   4.958  0.9751 -0.2679 -0.2932
  172SAPE  C21719427   2.883   2.255   5.013  0.1693 -0.2837 -0.7238
  172SAPE  H17R19428   2.942   2.345   4.987  0.7331 -0.6329 -0.6886
  172SAPE  H17S19429   2.953   2.173   4.985 -0.5509 -0.2079 -2.9351
  172SAPE  C21819430   2.843   2.248   5.163 -0.0533  0.7255 -0.4845
  172SAPE  H18R19431   2.801   2.146   5.172 -0.3238  0.9704  1.2665
  172SAPE  H18S19432   2.769   2.327   5.188  2.5560  2.8105  1.2203
  172SAPE  C21919433   2.966   2.258   5.256  0.8426  0.4761  0.5638
  172SAPE  H19R19434   2.994   2.364   5.276  0.3444  0.4308  1.5712
  172SAPE  H19S19435   3.052   2.206   5.211 -1.2827 -1.6856 -1.2388
  172SAPE  C22019436   2.940   2.202   5.395  0.1699  0.2795  0.0935
  172SAPE  H20R19437   2.842   2.238   5.435 -0.6453 -0.5150 -1.1206
  172SAPE  H20S19438   3.021   2.227   5.467 -0.8700 -0.1383  1.4602
  172SAPE  H20T19439   2.922   2.094   5.379 -1.9181  0.1387  2.7006
  172SAPE   C3319440   2.250   2.156   4.091  0.7726 -0.1267 -0.5482
  172SAPE   H3X19441   2.150   2.192   4.056  0.8733  0.9484  0.2335
  172SAPE   H3Y19442   2.326   2.224   4.046  3.3290 -0.1269  3.3487
  172SAPE   C3419443   2.271   2.162   4.236  0.3597 -0.5164  0.1273
  172SAPE   H4X19444   2.379   2.158   4.261  0.1119  0.6471  1.5698
  172SAPE   H4Y19445   2.221   2.080   4.293 -1.0378 -0.7933 -1.4300
  172SAPE   C3519446   2.224   2.297   4.307  0.1086  0.6030  0.7545
  172SAPE   H5X19447   2.114   2.298   4.294  0.2890  0.2299 -1.0554
  172SAPE   H5Y19448   2.272   2.379   4.250  3.3025 -1.0314  0.8162
  172SAPE   C3619449   2.270   2.301   4.455 -0.1624  0.6707  0.4312
  172SAPE   H6X19450   2.380   2.284   4.458 -0.4085 -1.7819 -1.4794
  172SAPE   H6Y19451   2.222   2.218   4.511  0.5296  1.5233  2.3823
  172SAPE   C3719452   2.228   2.433   4.517  0.1921  0.0768 -0.7921
  172SAPE   H7X19453   2.118   2.434   4.508  0.3014 -0.7525 -2.5173
  172SAPE   H7Y19454   2.270   2.519   4.460  2.0165  1.5035  2.4377
  172SAPE   C3819455   2.248   2.419   4.666  0.0227 -0.1765 -0.5317
  172SAPE   H8X19456   2.247   2.512   4.726  1.0589  0.4001 -1.3765
  172SAPE   H8Y19457   2.348   2.376   4.687 -0.1507 -0.2261  0.2030
  172SAPE   C3919458   2.143   2.320   4.731 -0.7516 -0.7164  0.2439
  172SAPE   H9X19459   2.170   2.213   4.718 -0.1633 -0.7125  1.3388
  172SAPE   H9Y19460   2.049   2.320   4.671  1.2032  1.9891 -3.1207
  172SAPE  C31019461   2.130   2.333   4.882  0.1417 -0.2286  0.3936
  172SAPE  H10X19462   2.058   2.258   4.921  2.0932 -3.4492 -1.6455
  172SAPE  H10Y19463   2.097   2.436   4.903  0.4094  0.0008 -0.2677
  172SAPE  C31119464   2.263   2.322   4.964  1.0306  0.1394  0.8460
  172SAPE  H11X19465   2.349   2.375   4.918  1.6951 -0.1932  1.6886
  172SAPE  H11Y19466   2.277   2.212   4.964 -0.0344 -0.0134  0.0441
  172SAPE  C31219467   2.247   2.365   5.110 -0.4831 -0.1413  0.4408
  172SAPE  H12X19468   2.160   2.311   5.152 -1.5895  1.8810  0.9152
  172SAPE  H12Y19469   2.212   2.468   5.086 -2.7144 -1.1028 -0.8612
  172SAPE  C31319470   2.369   2.342   5.213 -0.6444  0.0032  0.1242
  172SAPE  H13X19471   2.326   2.356   5.315 -0.9419  0.6878 -0.0923
  172SAPE  H13Y19472   2.447   2.421   5.204 -1.5818  0.9983  0.4212
  172SAPE  C31419473   2.423   2.198   5.196  0.8153  0.1927 -0.1940
  172SAPE  H14X19474   2.474   2.198   5.097  0.4003  1.7222 -0.4298
  172SAPE  H14Y19475   2.333   2.134   5.183  0.7865  0.5958 -2.4468
  172SAPE  C31519476   2.513   2.155   5.308  0.4344  0.2325 -0.4785
  172SAPE  H15X19477   2.473   2.167   5.410 -1.7744 -0.7839 -1.1565
  172SAPE  H15Y19478   2.597   2.228   5.302 -1.3109  2.2624 -1.9278
  172SAPE  C31619479   2.556   2.002   5.309  0.5495 -0.5038 -0.8353
  172SAPE  H16X19480   2.648   1.991   5.370 -0.0716  1.8837  0.6561
  172SAPE  H16Y19481   2.578   1.979   5.203  0.9763  0.3206 -0.9345
  172SAPE  C31719482   2.453   1.905   5.350 -0.2031  0.0981  0.2225
  172SAPE  H17X19483   2.355   1.929   5.303 -0.9485 -2.8935  0.0242
  172SAPE  H17Y19484   2.435   1.937   5.455  1.9836  1.4004  0.2755
  172SAPE  C31819485   2.484   1.762   5.331  0.3276  0.9325  0.9831
  172SAPE  H18X19486   2.576   1.737   5.389 -0.7570  1.7649  3.1835
  172SAPE  H18Y19487   2.493   1.725   5.227 -0.2508 -0.8786  1.5404
  172SAPE  H18Z19488   2.404   1.699   5.375  0.8557 -1.8757 -1.7304
  173SLPC     N19489   5.496   3.202   7.447 -0.0048  0.3197  0.1343
  173SLPC   C1319490   5.350   3.171   7.428  0.1102  0.6538 -0.6221
  173SLPC  H13A19491   5.323   3.074   7.388 -2.0340  0.3584  1.3550
  173SLPC  H13B19492   5.312   3.161   7.529 -1.1941 -1.0133 -1.2341
  173SLPC  H13C19493   5.296   3.259   7.395 -0.3711  1.3904  1.8982
  173SLPC   C1419494   5.565   3.087   7.516  0.3674 -0.2754 -0.1242
  173SLPC  H14A19495   5.540   2.994   7.466  2.4092 -0.1896 -1.4523
  173SLPC  H14B19496   5.672   3.103   7.519  0.6887 -2.2531  1.5122
  173SLPC  H14C19497   5.529   3.072   7.616  0.3516 -0.1977 -0.1184
  173SLPC   C1519498   5.504   3.327   7.530 -0.5626  0.5456 -0.2839
  173SLPC  H15A19499   5.600   3.377   7.532  0.2055 -0.8349 -1.0494
  173SLPC  H15B19500   5.444   3.404   7.483 -0.5861  0.6747 -0.0467
  173SLPC  H15C19501   5.473   3.308   7.632 -0.7560 -1.0782 -0.6221
  173SLPC   C1219502   5.557   3.220   7.307  0.3416  0.3122 -0.7902
  173SLPC  H12A19503   5.551   3.126   7.253  0.4265  0.0033 -0.2644
  173SLPC  H12B19504   5.660   3.252   7.308 -0.4541  3.2879 -1.8819
  173SLPC   C1119505   5.500   3.321   7.210  0.1761  0.4984  0.1901
  173SLPC  H11A19506   5.399   3.294   7.173  0.4453  0.7922 -0.7912
  173SLPC  H11B19507   5.568   3.316   7.122  3.0828  1.8715  2.1684
  173SLPC     P19508   5.645   3.523   7.275  0.1712  0.1571  0.0069
  173SLPC   O1319509   5.622   3.631   7.373 -0.3349  0.5911 -0.2949
  173SLPC   O1419510   5.756   3.427   7.292 -0.0683  0.4164 -0.0944
  173SLPC   O1219511   5.501   3.450   7.267 -0.2906 -0.4326 -0.4776
  173SLPC   O1119512   5.655   3.592   7.133  0.4725 -0.2000  0.3159
  173SLPC    C119513   5.544   3.599   7.046 -0.0650 -0.1605  0.6241
  173SLPC    HA19514   5.547   3.512   6.977 -1.2818 -0.6067  1.1223
  173SLPC    HB19515   5.447   3.608   7.099 -0.5352 -1.4455  0.0124
  173SLPC    C219516   5.549   3.717   6.953 -0.1546  0.3290  0.1498
  173SLPC    HS19517   5.541   3.807   7.018  0.5679 -0.9727  2.1406
  173SLPC   O2119518   5.447   3.696   6.855  0.2632  0.4592 -0.1595
  173SLPC   C2119519   5.401   3.799   6.793 -0.7068 -0.1198 -0.7744
  173SLPC   O2219520   5.441   3.912   6.809  0.4115 -0.0358  1.0816
  173SLPC   C2219521   5.289   3.766   6.693 -0.9424 -0.1060 -0.5693
  173SLPC   H2R19522   5.323   3.670   6.648 -2.1561 -0.6066 -0.4693
  173SLPC   H2S19523   5.196   3.750   6.751 -0.7723  0.8562 -0.0149
  173SLPC    C319524   5.693   3.746   6.878 -0.6609 -0.0548 -0.6773
  173SLPC    HX19525   5.767   3.746   6.961 -0.6365  0.3187 -0.6964
  173SLPC    HY19526   5.686   3.850   6.840  0.1354  0.4428  0.4706
  173SLPC   O3119527   5.721   3.651   6.774 -0.5223 -0.2175 -0.4138
  173SLPC   C3119528   5.794   3.698   6.678 -0.2670  0.8468 -0.3698
  173SLPC   O3219529   5.845   3.810   6.669 -0.0188 -0.0842  0.1994
  173SLPC   C3219530   5.830   3.587   6.581 -0.0556 -0.0211  0.1804
  173SLPC   H2X19531   5.738   3.561   6.526  0.0333  0.7214 -0.3385
  173SLPC   H2Y19532   5.870   3.502   6.641 -1.1105 -2.0643 -1.9113
  173SLPC   C2319533   5.279   3.874   6.586 -0.6648  0.5155 -0.3794
  173SLPC   H3R19534   5.370   3.882   6.523  1.3771 -0.6702  2.1901
  173SLPC   H3S19535   5.275   3.979   6.624  2.5906  0.4421  0.4178
  173SLPC   C2419536   5.151   3.846   6.506  0.3749 -0.0891  0.2422
  173SLPC   H4R19537   5.059   3.873   6.562  0.5033 -0.5514  0.6899
  173SLPC   H4S19538   5.135   3.742   6.472 -1.3565  0.1644  0.2047
  173SLPC   C2519539   5.170   3.919   6.367 -0.8695  0.3276 -0.1082
  173SLPC   H5R19540   5.256   3.877   6.311 -1.4719 -0.6262 -0.3546
  173SLPC   H5S19541   5.183   4.028   6.383  1.0697 -0.2867  3.7673
  173SLPC   C2619542   5.050   3.896   6.276  0.2180  0.1680  0.6233
  173SLPC   H6R19543   4.959   3.942   6.320  0.0308  3.4098 -2.6779
  173SLPC   H6S19544   5.033   3.788   6.261  0.3611  0.4697 -2.2248
  173SLPC   C2719545   5.051   3.947   6.133  0.3877 -0.1106 -0.6512
  173SLPC   H7R19546   5.057   4.058   6.141 -0.0727 -0.1957  1.6818
  173SLPC   H7S19547   4.952   3.920   6.092 -0.6883 -0.3295  1.8846
  173SLPC   C2819548   5.158   3.894   6.040  0.0140  0.2706  1.2215
  173SLPC   H8R19549   5.159   3.783   6.047 -1.7252  0.1505  0.1914
  173SLPC   H8S19550   5.260   3.913   6.079 -0.6892  2.7069  2.0257
  173SLPC   C2919551   5.161   3.954   5.896  1.1657  0.0757 -1.0154
  173SLPC   H9R19552   5.214   4.050   5.887  0.7833  0.1207 -3.2717
  173SLPC  C21019553   5.111   3.904   5.783  0.7072  0.5495  0.4753
  173SLPC  H10R19554   5.127   3.959   5.689  0.5162  2.1835  1.3520
  173SLPC  C21119555   5.030   3.776   5.774  0.0823  0.5823 -0.3992
  173SLPC  H11R19556   5.073   3.694   5.835  0.2630  0.9882  0.0243
  173SLPC  H11S19557   5.045   3.722   5.678  0.3866 -1.0971  0.5571
  173SLPC  C21219558   4.880   3.799   5.807  0.2780  0.1310  0.4619
  173SLPC  H12R19559   4.845   3.903   5.797  1.3416  0.3432 -1.6137
  173SLPC  C21319560   4.798   3.703   5.861 -0.7147 -0.1251  0.1791
  173SLPC  H13R19561   4.694   3.737   5.876 -0.8125  1.0219 -2.4613
  173SLPC  C21419562   4.825   3.564   5.897  0.8426  1.1250  0.8214
  173SLPC  H14R19563   4.933   3.539   5.894  0.4400 -1.2175  2.8414
  173SLPC  H14S19564   4.761   3.505   5.828 -0.6323  4.1337 -0.5310
  173SLPC  C21519565   4.780   3.527   6.038 -0.2453  0.6226  0.5894
  173SLPC  H15R19566   4.674   3.562   6.041  0.6782  3.6448  0.5611
  173SLPC  H15S19567   4.836   3.577   6.119 -0.7320 -0.7704  1.8405
  173SLPC  C21619568   4.781   3.371   6.059 -0.7028 -0.3886  1.3743
  173SLPC  H16R19569   4.882   3.330   6.040  0.8377  3.6416 -0.2930
  173SLPC  H16S19570   4.713   3.321   5.986 -0.6456  2.6975 -1.0006
  173SLPC  C21719571   4.722   3.327   6.194  0.3931 -0.1642 -0.4494
  173SLPC  H17R19572   4.782   3.370   6.277 -0.5287 -0.0369  0.1607
  173SLPC  H17S19573   4.724   3.217   6.212 -2.6682 -0.4491 -1.3329
  173SLPC  C21819574   4.570   3.360   6.224 -0.3513 -0.5254 -0.2466
  173SLPC  H18R19575   4.522   3.285   6.158 -2.3391 -0.0813  0.6162
  173SLPC  H18S19576   4.538   3.461   6.190  1.3197 -0.5533 -2.0332
  173SLPC  H18T19577   4.534   3.337   6.327 -0.5357 -0.6627 -0.3418
  173SLPC   C3319578   5.931   3.635   6.477  0.2278  0.7096  0.1209
  173SLPC   H3X19579   6.012   3.697   6.520 -0.0553 -0.4330  2.4525
  173SLPC   H3Y19580   5.886   3.688   6.391  2.4400 -0.7027 -2.0781
  173SLPC   C3419581   6.001   3.525   6.399  0.6344  0.6777  0.2005
  173SLPC   H4X19582   6.065   3.468   6.470 -1.5785 -1.5264  0.5403
  173SLPC   H4Y19583   6.076   3.571   6.332  0.6947  1.7282  0.9577
  173SLPC   C3519584   5.908   3.436   6.317 -1.0889  0.1320 -0.0055
  173SLPC   H5X19585   5.824   3.491   6.269  0.2222  2.4719  0.2070
  173SLPC   H5Y19586   5.861   3.365   6.388  0.3097  0.0336  0.8497
  173SLPC   C3619587   5.996   3.337   6.234 -0.2191  0.1376  0.2808
  173SLPC   H6X19588   6.062   3.282   6.304 -1.1888 -2.4970 -0.7425
  173SLPC   H6Y19589   6.064   3.403   6.175 -1.6205 -0.2200 -1.8504
  173SLPC   C3719590   5.919   3.222   6.157 -0.1358 -1.2608 -0.4748
  173SLPC   H7X19591   5.857   3.289   6.094  0.4354 -0.1143  0.1541
  173SLPC   H7Y19592   5.852   3.165   6.225  0.9541 -2.6334 -0.5151
  173SLPC   C3819593   6.014   3.136   6.079  0.4848  0.3563 -0.6714
  173SLPC   H8X19594   6.073   3.058   6.132 -1.0331  0.8780  1.8897
  173SLPC   H8Y19595   6.086   3.207   6.032  0.4085  1.0204  0.2060
  173SLPC   C3919596   5.957   3.056   5.970 -0.6189  0.6510  0.0300
  173SLPC   H9X19597   5.862   3.015   6.011 -1.2616 -0.8910 -2.7493
  173SLPC   H9Y19598   6.021   2.969   5.945  1.2674  1.9731  0.0661
  173SLPC  C31019599   5.936   3.136   5.836 -0.2283  0.4487  0.6485
  173SLPC  H10X19600   6.028   3.188   5.801 -1.7542  2.0230 -1.2723
  173SLPC  H10Y19601   5.861   3.216   5.854 -0.1989  0.5740  0.2242
  173SLPC  C31119602   5.867   3.046   5.725 -0.4800 -0.6731 -0.0695
  173SLPC  H11X19603   5.760   3.030   5.749 -0.4216 -1.3237 -0.2081
  173SLPC  H11Y19604   5.916   2.946   5.726 -1.6750 -1.2842 -0.0465
  173SLPC  C31219605   5.871   3.112   5.583  0.1227 -1.1614  0.1052
  173SLPC  H12X19606   5.837   3.031   5.514 -0.2157  0.3814 -1.6096
  173SLPC  H12Y19607   5.975   3.140   5.553 -0.1178 -0.9607 -0.5609
  173SLPC  C31319608   5.778   3.229   5.580  0.1673  1.2243 -0.2657
  173SLPC  H13X19609   5.841   3.309   5.624 -0.0104  0.2753  1.7893
  173SLPC  H13Y19610   5.688   3.201   5.639  2.7695 -3.1281  2.1525
  173SLPC  C31419611   5.732   3.268   5.439 -0.0266  0.1321  0.8871
  173SLPC  H14X19612   5.669   3.360   5.437 -0.0671  0.1188  1.2967
  173SLPC  H14Y19613   5.667   3.188   5.399  0.5199  0.0739  0.0972
  173SLPC  C31519614   5.850   3.295   5.344  0.9204  0.4678 -0.4213
  173SLPC  H15X19615   5.908   3.202   5.325  2.0560  0.9407  0.6087
  173SLPC  H15Y19616   5.923   3.364   5.393  3.3028 -1.1593 -1.4728
  173SLPC  C31619617   5.799   3.348   5.215  0.6066 -0.6602 -0.7839
  173SLPC  H16X19618   5.734   3.437   5.224  0.0411 -1.0125 -1.3048
  173SLPC  H16Y19619   5.740   3.269   5.164  1.5506 -0.2454 -2.6116
  173SLPC  C31719620   5.912   3.373   5.110 -0.1474  0.5996  0.4202
  173SLPC  H17X19621   5.983   3.290   5.131  0.3841  0.5534 -1.3962
  173SLPC  H17Y19622   5.958   3.470   5.138 -1.5828  1.8226 -1.2769
  173SLPC  C31819623   5.867   3.369   4.966 -0.4165 -0.0953  0.5695
  173SLPC  H18X19624   5.793   3.446   4.937  0.1413  0.1594 -0.2186
  173SLPC  H18Y19625   5.811   3.274   4.951  1.3068 -1.0439 -0.2777
  173SLPC  H18Z19626   5.942   3.382   4.885 -0.9654 -0.0877  0.0614
  174SLPC     N19627   2.819   3.901   7.656 -0.6068  0.4180  0.3025
  174SLPC   C1319628   2.931   4.005   7.676  0.6183  0.3082  0.4610
  174SLPC  H13A19629   2.952   4.019   7.781  0.0091 -1.2277  0.8089
  174SLPC  H13B19630   3.018   3.978   7.618  0.1770  0.1455 -0.1459
  174SLPC  H13C19631   2.889   4.097   7.636 -1.1027 -0.9581 -0.8092
  174SLPC   C1419632   2.689   3.941   7.719  0.1901  0.2368 -0.0537
  174SLPC  H14A19633   2.666   4.040   7.681  1.5437 -0.4246 -2.8526
  174SLPC  H14B19634   2.597   3.894   7.688 -0.6211  1.6613  0.1117
  174SLPC  H14C19635   2.692   3.935   7.827 -1.1031 -3.6049 -0.0881
  174SLPC   C1519636   2.874   3.777   7.719 -0.0670 -0.3366 -0.3774
  174SLPC  H15A19637   2.879   3.801   7.824 -1.0926 -0.5893 -0.2575
  174SLPC  H15B19638   2.816   3.688   7.702  1.9752 -1.7573 -0.2737
  174SLPC  H15C19639   2.967   3.740   7.679  0.1030 -2.0736  1.5023
  174SLPC   C1219640   2.800   3.879   7.504 -0.5290 -0.4052  0.4569
  174SLPC  H12A19641   2.773   3.775   7.491 -0.7199 -0.2385 -0.6190
  174SLPC  H12B19642   2.899   3.889   7.461  0.2284  0.3737  2.2829
  174SLPC   C1119643   2.707   3.987   7.428  0.8030 -0.3081  0.9097
  174SLPC  H11A19644   2.609   3.961   7.471  0.1819  0.6653  0.1469
  174SLPC  H11B19645   2.706   3.968   7.318  3.0425 -1.3344  1.0082
  174SLPC     P19646   2.846   4.201   7.383  0.0082 -0.1580 -0.1734
  174SLPC   O1319647   2.852   4.341   7.434  0.0567  0.2887 -0.5478
  174SLPC   O1419648   2.972   4.136   7.396  0.2233  0.2625 -0.1638
  174SLPC   O1219649   2.741   4.124   7.463 -0.1095  0.0538  0.2234
  174SLPC   O1119650   2.797   4.204   7.240 -0.4663  0.2198 -0.1095
  174SLPC    C119651   2.660   4.208   7.202 -0.3080  0.5779  0.3581
  174SLPC    HA19652   2.633   4.107   7.163 -2.6793  1.5657 -0.6866
  174SLPC    HB19653   2.596   4.233   7.289  0.3047 -1.1503  1.3563
  174SLPC    C219654   2.640   4.322   7.097  0.2479  0.6848  0.0418
  174SLPC    HS19655   2.534   4.312   7.064  0.3301  1.1699 -0.3955
  174SLPC   O2119656   2.735   4.303   6.991  0.4724 -0.0324 -0.1883
  174SLPC   C2119657   2.708   4.204   6.910 -0.5884  0.7785 -0.0825
  174SLPC   O2219658   2.607   4.136   6.910  0.3887  0.0398  0.0440
  174SLPC   C2219659   2.830   4.178   6.827 -0.1095  0.0465  0.5839
  174SLPC   H2R19660   2.922   4.187   6.888  0.0842 -2.4226  0.7795
  174SLPC   H2S19661   2.820   4.075   6.787 -1.0255  0.0267  0.8577
  174SLPC    C319662   2.655   4.458   7.166  0.3200  0.5570 -0.0332
  174SLPC    HX19663   2.765   4.470   7.180  0.1721  1.4019  0.5107
  174SLPC    HY19664   2.613   4.454   7.269 -2.8372 -1.0075 -1.2579
  174SLPC   O3119665   2.600   4.579   7.103 -0.3411 -0.7342  0.5280
  174SLPC   C3119666   2.477   4.594   7.112 -0.1123 -0.6796  0.9199
  174SLPC   O3219667   2.397   4.524   7.177 -0.3236  0.1910  0.5016
  174SLPC   C3219668   2.429   4.716   7.023  0.3047  0.0869 -0.1079
  174SLPC   H2X19669   2.511   4.757   6.959  1.7873  1.8108  2.7085
  174SLPC   H2Y19670   2.404   4.794   7.098  1.8118  1.3908 -0.8737
  174SLPC   C2319671   2.820   4.277   6.710  0.1420 -0.0303  0.3081
  174SLPC   H3R19672   2.841   4.384   6.733  2.6951  0.5714 -3.7453
  174SLPC   H3S19673   2.716   4.271   6.671  0.4277  2.0047 -0.8976
  174SLPC   C2419674   2.900   4.251   6.584  0.1518 -0.0429 -0.2192
  174SLPC   H4R19675   3.007   4.273   6.608 -0.1259 -0.1054  1.1534
  174SLPC   H4S19676   2.867   4.322   6.505  0.6825  1.1526  0.5987
  174SLPC   C2519677   2.878   4.116   6.519  0.1902 -0.2548  0.1748
  174SLPC   H5R19678   2.911   4.031   6.583 -1.9683 -0.9827  0.3873
  174SLPC   H5S19679   2.955   4.119   6.438 -1.4781 -1.0418 -1.5034
  174SLPC   C2619680   2.750   4.087   6.445 -0.3190  0.4260 -0.2505
  174SLPC   H6R19681   2.744   4.175   6.378  2.1097  1.9672  1.4120
  174SLPC   H6S19682   2.666   4.095   6.518 -0.1750  0.1437 -0.0514
  174SLPC   C2719683   2.747   3.953   6.374 -0.0713 -0.2682 -0.3783
  174SLPC   H7R19684   2.660   3.946   6.306  0.0394 -0.2328 -0.5233
  174SLPC   H7S19685   2.730   3.869   6.445  1.1044  0.9907  1.4905
  174SLPC   C2819686   2.872   3.907   6.294 -0.8643  0.3254 -0.0003
  174SLPC   H8R19687   2.951   3.892   6.371 -2.0469  1.1793  1.4421
  174SLPC   H8S19688   2.909   3.998   6.242  1.5209 -0.5654  0.0534
  174SLPC   C2919689   2.850   3.785   6.215  0.3980  0.2405  0.7355
  174SLPC   H9R19690   2.838   3.694   6.276  0.1930  0.0631  0.4316
  174SLPC  C21019691   2.814   3.778   6.083 -0.2141  0.4406  0.4873
  174SLPC  H10R19692   2.803   3.683   6.029 -0.8519 -0.2871  1.8404
  174SLPC  C21119693   2.799   3.900   5.998 -0.3454 -0.5143 -0.8125
  174SLPC  H11R19694   2.903   3.919   5.961 -0.7133  1.3894 -0.9565
  174SLPC  H11S19695   2.776   3.993   6.054  1.9216 -0.1851 -0.3049
  174SLPC  C21219696   2.705   3.892   5.879  0.7955 -0.3998  0.2000
  174SLPC  H12R19697   2.600   3.916   5.899  0.4011 -0.9458 -1.1270
  174SLPC  C21319698   2.737   3.832   5.761  0.2418  0.6296  0.2204
  174SLPC  H13R19699   2.653   3.805   5.695 -0.0125 -1.5713  1.3600
  174SLPC  C21419700   2.870   3.782   5.715  0.8497 -0.0680 -0.6276
  174SLPC  H14R19701   2.876   3.677   5.752  0.7663  1.1006  3.1856
  174SLPC  H14S19702   2.947   3.854   5.748  1.5770 -1.6322  1.2729
  174SLPC  C21519703   2.885   3.778   5.563 -0.1441 -0.5905 -0.0083
  174SLPC  H15R19704   2.987   3.739   5.542 -0.4020 -1.6402  0.6367
  174SLPC  H15S19705   2.867   3.875   5.513 -2.1727 -0.7321  0.3875
  174SLPC  C21619706   2.803   3.671   5.482 -0.1499  0.1785 -0.0929
  174SLPC  H16R19707   2.696   3.700   5.480 -0.5179 -1.1169 -0.2140
  174SLPC  H16S19708   2.821   3.581   5.544  1.6764  1.3993  1.2529
  174SLPC  C21719709   2.859   3.649   5.332  0.2324 -1.1119 -0.9974
  174SLPC  H17R19710   2.893   3.744   5.286  1.5651 -1.5040 -0.8550
  174SLPC  H17S19711   2.777   3.601   5.273 -1.9058 -1.0512  1.7247
  174SLPC  C21819712   2.982   3.557   5.331  0.6043  0.4274 -0.1455
  174SLPC  H18R19713   2.996   3.502   5.236  3.0399 -0.8562  0.8639
  174SLPC  H18S19714   2.971   3.483   5.413  0.5609  0.7892  0.1789
  174SLPC  H18T19715   3.071   3.619   5.356 -0.4004  1.5723  0.7792
  174SLPC   C3319716   2.325   4.672   6.920  0.5677 -0.2446  0.1966
  174SLPC   H3X19717   2.238   4.646   6.985 -0.8591  0.0371 -1.5169
  174SLPC   H3Y19718   2.363   4.580   6.872 -0.6404 -1.0851  0.7954
  174SLPC   C3419719   2.298   4.783   6.820  0.6426  0.8446  0.8347
  174SLPC   H4X19720   2.323   4.879   6.871  0.7493  0.8145  0.8399
  174SLPC   H4Y19721   2.193   4.769   6.786  0.7693  1.6140  0.0878
  174SLPC   C3519722   2.382   4.772   6.689 -0.1142 -0.0311 -0.1307
  174SLPC   H5X19723   2.489   4.777   6.717 -0.4636 -0.7453  1.4095
  174SLPC   H5Y19724   2.372   4.861   6.624 -0.2343  0.0619  0.0132
  174SLPC   C3619725   2.362   4.649   6.602  0.5379  0.4281 -0.1173
  174SLPC   H6X19726   2.258   4.652   6.564  0.4953  1.4223  0.0602
  174SLPC   H6Y19727   2.365   4.565   6.675 -0.5687  1.0038  0.6127
  174SLPC   C3719728   2.459   4.642   6.484 -0.1421  0.3232 -0.4785
  174SLPC   H7X19729   2.557   4.634   6.534  0.2761 -0.3678 -1.3809
  174SLPC   H7Y19730   2.458   4.736   6.425  1.0314  0.7806  0.2128
  174SLPC   C3819731   2.438   4.518   6.399  0.1800  0.2565  0.0159
  174SLPC   H8X19732   2.338   4.518   6.351 -0.1337  0.1926  0.6600
  174SLPC   H8Y19733   2.425   4.425   6.459 -2.6618 -0.8946 -2.1277
  174SLPC   C3919734   2.543   4.488   6.282 -0.3699 -0.3703 -0.0439
  174SLPC   H9X19735   2.617   4.426   6.336 -3.1849 -2.1715  2.0513
  174SLPC   H9Y19736   2.589   4.581   6.241  1.4636 -0.8002  0.9541
  174SLPC  C31019737   2.495   4.399   6.171  0.0977  0.5058  0.7467
  174SLPC  H10X19738   2.424   4.449   6.102 -0.0881  0.2376  0.7414
  174SLPC  H10Y19739   2.435   4.322   6.225 -1.6156  1.4591  0.2695
  174SLPC  C31119740   2.600   4.315   6.094  0.2448  0.2970  0.1626
  174SLPC  H11X19741   2.549   4.237   6.034 -1.5185 -0.0854  2.0278
  174SLPC  H11Y19742   2.674   4.273   6.166 -2.5027  1.9531  4.3632
  174SLPC  C31219743   2.678   4.418   6.007 -0.0857 -0.4744 -0.0317
  174SLPC  H12X19744   2.721   4.496   6.073 -1.2285  0.8410 -0.8060
  174SLPC  H12Y19745   2.613   4.473   5.936 -0.0085 -3.4552 -2.6543
  174SLPC  C31319746   2.802   4.361   5.943  0.0200  1.4049 -0.1217
  174SLPC  H13X19747   2.865   4.323   6.026 -0.7331 -3.6398 -1.5484
  174SLPC  H13Y19748   2.863   4.432   5.883 -0.1207  3.6824  2.2553
  174SLPC  C31419749   2.788   4.233   5.857  0.2873 -0.4227 -0.7694
  174SLPC  H14X19750   2.723   4.153   5.897  1.1082 -0.8279 -0.2118
  174SLPC  H14Y19751   2.888   4.186   5.846 -0.0320 -1.4888  0.6310
  174SLPC  C31519752   2.745   4.277   5.719  0.6345 -1.0574 -0.1901
  174SLPC  H15X19753   2.819   4.338   5.664  0.5270 -0.8795 -0.1387
  174SLPC  H15Y19754   2.651   4.335   5.734 -0.6898 -2.9700 -0.6551
  174SLPC  C31619755   2.712   4.161   5.626  0.8621 -0.5164  1.0454
  174SLPC  H16X19756   2.652   4.080   5.673 -2.4052  1.1302  0.0446
  174SLPC  H16Y19757   2.806   4.123   5.581  1.6597  1.2119  1.1866
  174SLPC  C31719758   2.632   4.204   5.500 -0.7937  0.6920  0.3150
  174SLPC  H17X19759   2.705   4.250   5.430  1.3182 -0.2219  1.8165
  174SLPC  H17Y19760   2.549   4.274   5.520 -2.6947  0.0187 -4.0022
  174SLPC  C31819761   2.569   4.082   5.426  0.5322  0.3589 -0.7886
  174SLPC  H18X19762   2.472   4.109   5.378 -0.4780 -1.1450  0.3032
  174SLPC  H18Y19763   2.547   3.995   5.492 -2.0494  0.2467 -1.6930
  174SLPC  H18Z19764   2.636   4.043   5.347  0.0129 -4.4905  0.8295
  175SLPC     N19765   5.066   0.009   7.438  0.0429  0.2824  0.1631
  175SLPC   C1319766   4.950  -0.067   7.482  0.7331  0.2534  0.2239
  175SLPC  H13A19767   4.957  -0.170   7.452 -0.2586  0.2536 -0.0661
  175SLPC  H13B19768   4.948  -0.071   7.590 -1.0510  1.1886  0.2697
  175SLPC  H13C19769   4.857  -0.016   7.458  2.0626  2.6861 -0.0900
  175SLPC   C1419770   5.190  -0.047   7.508 -0.0824 -0.0043  0.3213
  175SLPC  H14A19771   5.272   0.001   7.458 -0.8250  0.2644 -0.6695
  175SLPC  H14B19772   5.188  -0.027   7.614  0.3223  2.0821 -0.0201
  175SLPC  H14C19773   5.202  -0.152   7.488  1.0755  0.3534 -1.0104
  175SLPC   C1519774   5.047   0.148   7.497 -0.5090 -0.1051  0.3154
  175SLPC  H15A19775   5.018   0.145   7.601  0.2801  1.6437  0.6245
  175SLPC  H15B19776   5.141   0.200   7.511 -1.4879  1.0825  3.3587
  175SLPC  H15C19777   4.965   0.198   7.447 -0.2574 -0.6046 -0.6195
  175SLPC   C1219778   5.072  -0.001   7.282  0.1288 -0.3571 -0.1549
  175SLPC  H12A19779   4.990   0.062   7.250 -1.8036 -1.9520  1.4427
  175SLPC  H12B19780   5.051  -0.101   7.248  0.1105 -1.2435  2.2706
  175SLPC   C1119781   5.195   0.066   7.206 -0.4267 -0.6132  0.1337
  175SLPC  H11A19782   5.189   0.177   7.212 -1.5250 -0.6197 -0.4418
  175SLPC  H11B19783   5.180   0.047   7.097 -1.2633  2.4635 -0.3745
  175SLPC     P19784   5.366  -0.121   7.194  0.5681 -0.0176  0.1985
  175SLPC   O1319785   5.490  -0.161   7.255 -0.0811  0.0083 -0.5952
  175SLPC   O1419786   5.255  -0.217   7.203  0.1670  0.4828 -0.3621
  175SLPC   O1219787   5.326   0.026   7.251 -1.3566  0.1350 -0.4727
  175SLPC   O1119788   5.395  -0.085   7.041 -0.0621  0.0618 -0.7066
  175SLPC    C119789   5.485   0.020   7.001 -0.2398 -0.2587  0.6122
  175SLPC    HA19790   5.503   0.095   7.081 -0.7016 -1.2739  1.7002
  175SLPC    HB19791   5.582  -0.030   6.982 -0.4047 -0.7896  1.1194
  175SLPC    C219792   5.425   0.094   6.881 -0.0456  0.9466  0.0250
  175SLPC    HS19793   5.325   0.123   6.920 -1.2025 -1.0503 -1.2220
  175SLPC   O2119794   5.403  -0.000   6.768 -0.7693  0.5164 -0.4036
  175SLPC   C2119795   5.297   0.034   6.698 -0.0531  0.2541  0.5709
  175SLPC   O2219796   5.206   0.110   6.734 -0.8312  0.2605  0.6054
  175SLPC   C2219797   5.314  -0.006   6.554  0.4920 -0.0591 -0.0223
  175SLPC   H2R19798   5.422  -0.024   6.536  1.1348  0.0274  3.1826
  175SLPC   H2S19799   5.256  -0.098   6.531 -0.4491  0.4719  0.1589
  175SLPC    C319800   5.508   0.220   6.836  0.0238  0.0915  0.1812
  175SLPC    HX19801   5.608   0.178   6.811 -0.4066 -2.2613  2.1805
  175SLPC    HY19802   5.532   0.285   6.922 -0.9022 -0.1442  0.6279
  175SLPC   O3119803   5.461   0.296   6.723  0.0653 -0.3485 -0.1481
  175SLPC   C3119804   5.385   0.405   6.756  0.0855  1.2716 -0.2097
  175SLPC   O3219805   5.375   0.449   6.873  0.1655  0.1276  0.5511
  175SLPC   C3219806   5.306   0.450   6.634  0.7801  0.8847 -1.4063
  175SLPC   H2X19807   5.260   0.369   6.574  0.8954 -0.8624  0.7466
  175SLPC   H2Y19808   5.377   0.511   6.575  0.3741 -0.4003 -3.3105
  175SLPC   C2319809   5.252   0.102   6.469 -0.3476 -0.0245 -0.2334
  175SLPC   H3R19810   5.296   0.201   6.496  0.1404 -0.0493 -0.9166
  175SLPC   H3S19811   5.141   0.098   6.481 -0.4311 -0.4246 -1.0668
  175SLPC   C2419812   5.277   0.081   6.315 -0.0755  0.4553 -0.3713
  175SLPC   H4R19813   5.205   0.006   6.276 -1.2006  2.1669 -1.7462
  175SLPC   H4S19814   5.380   0.038   6.313  0.2559  1.2466 -1.9382
  175SLPC   C2519815   5.255   0.201   6.229 -0.5244 -0.2943 -0.1447
  175SLPC   H5R19816   5.339   0.273   6.238  0.7851 -1.4281 -2.2600
  175SLPC   H5S19817   5.161   0.249   6.263 -1.0004 -1.6240  0.4946
  175SLPC   C2619818   5.264   0.162   6.077 -0.2141 -0.1144 -0.1545
  175SLPC   H6R19819   5.177   0.096   6.057 -1.0813  0.9387  0.0575
  175SLPC   H6S19820   5.357   0.107   6.050 -0.9017 -1.5216  0.2609
  175SLPC   C2719821   5.228   0.282   5.989  0.1266 -0.3840  0.1481
  175SLPC   H7R19822   5.310   0.357   5.985 -0.9226  0.7912 -3.9605
  175SLPC   H7S19823   5.137   0.338   6.018  0.2669  0.6157 -1.2445
  175SLPC   C2819824   5.215   0.239   5.844  0.1122  0.6194  0.1390
  175SLPC   H8R19825   5.179   0.134   5.847  0.0467  0.6169 -0.5305
  175SLPC   H8S19826   5.317   0.226   5.801 -1.2082 -2.5021 -2.5323
  175SLPC   C2919827   5.134   0.325   5.752  0.9454  0.5877  0.2020
  175SLPC   H9R19828   5.146   0.434   5.761 -3.0566  1.2115 -0.0442
  175SLPC  C21019829   5.046   0.283   5.660  0.5155  0.6113  0.4429
  175SLPC  H10R19830   4.989   0.351   5.596 -0.5619  1.2348  1.9944
  175SLPC  C21119831   5.010   0.136   5.635  0.0468 -0.3311 -0.7393
  175SLPC  H11R19832   4.899   0.136   5.633  0.0593 -1.1615 -2.2918
  175SLPC  H11S19833   5.033   0.085   5.731 -1.8285  1.3319  0.6972
  175SLPC  C21219834   5.060   0.064   5.520 -0.3074 -0.2925 -0.4501
  175SLPC  H12R19835   5.135  -0.015   5.532  0.2807  0.1064 -1.3527
  175SLPC  C21319836   5.018   0.077   5.391 -0.4520  0.3088  0.5200
  175SLPC  H13R19837   5.059   0.009   5.315 -2.4997 -0.3587 -0.0515
  175SLPC  C21419838   4.923   0.175   5.336  0.0475  0.2373 -0.4573
  175SLPC  H14R19839   4.866   0.203   5.428  0.7751 -2.3430  0.8993
  175SLPC  H14S19840   4.859   0.116   5.267 -0.2075 -2.0095  1.5369
  175SLPC  C21519841   5.001   0.291   5.275  0.2511 -0.6674  0.2633
  175SLPC  H15R19842   5.063   0.347   5.348  2.4200  0.0240 -1.9714
  175SLPC  H15S19843   4.926   0.368   5.246  1.7064  0.1445 -1.5414
  175SLPC  C21619844   5.091   0.263   5.147 -0.4115  0.3621  0.4758
  175SLPC  H16R19845   5.031   0.206   5.073 -1.4849  1.1756  0.6988
  175SLPC  H16S19846   5.181   0.203   5.173  0.0417  0.1180 -1.5072
  175SLPC  C21719847   5.127   0.401   5.082  0.9802  0.5013 -0.3957
  175SLPC  H17R19848   5.196   0.456   5.150 -1.5762  1.8509  1.2410
  175SLPC  H17S19849   5.031   0.456   5.076 -0.3367 -1.6751 -0.4471
  175SLPC  C21819850   5.204   0.374   4.952 -0.5850 -0.0413  0.1508
  175SLPC  H18R19851   5.155   0.302   4.882  0.6295 -2.4899  1.6637
  175SLPC  H18S19852   5.297   0.317   4.973 -0.7453 -0.3649  0.0067
  175SLPC  H18T19853   5.218   0.466   4.892 -1.3972 -0.2045 -0.3154
  175SLPC   C3319854   5.186   0.542   6.678  0.2324  0.8516  0.0569
  175SLPC   H3X19855   5.230   0.616   6.749 -0.4093  0.7272  0.5901
  175SLPC   H3Y19856   5.110   0.484   6.734  0.7219 -0.2507 -0.3867
  175SLPC   C3419857   5.129   0.622   6.553 -0.2211  0.4272 -0.4015
  175SLPC   H4X19858   5.218   0.661   6.499 -0.3608  1.4556  0.0754
  175SLPC   H4Y19859   5.069   0.707   6.593  0.6496  0.9805 -0.2409
  175SLPC   C3519860   5.048   0.536   6.462  0.6549 -0.3907 -0.0835
  175SLPC   H5X19861   4.956   0.491   6.505 -0.3475  2.3199  0.8539
  175SLPC   H5Y19862   5.115   0.455   6.426 -0.4732 -1.8360  0.9456
  175SLPC   C3619863   4.992   0.608   6.333 -0.0908 -0.1867 -0.6726
  175SLPC   H6X19864   5.085   0.653   6.291  0.2531  0.8423  1.0918
  175SLPC   H6Y19865   4.911   0.677   6.361 -0.5561 -1.4464  1.3275
  175SLPC   C3719866   4.935   0.519   6.224  0.3191  0.8613  0.4968
  175SLPC   H7X19867   4.874   0.444   6.279  0.9800 -1.0303 -1.2563
  175SLPC   H7Y19868   5.012   0.460   6.171 -0.4475  0.2256  0.0743
  175SLPC   C3819869   4.847   0.599   6.125 -0.5033 -0.1240 -0.2923
  175SLPC   H8X19870   4.789   0.683   6.170  0.9315  1.0441 -0.5259
  175SLPC   H8Y19871   4.771   0.529   6.085 -0.5519 -0.0957 -0.2508
  175SLPC   C3919872   4.936   0.649   6.011 -0.7639  0.0481 -0.0795
  175SLPC   H9X19873   5.004   0.566   5.982  0.4408  0.6437  0.9311
  175SLPC   H9Y19874   4.992   0.739   6.043  1.1227 -0.2636 -2.2630
  175SLPC  C31019875   4.850   0.696   5.897  0.4894  0.2553 -0.4129
  175SLPC  H10X19876   4.801   0.795   5.909  1.2017  0.5214  0.4704
  175SLPC  H10Y19877   4.762   0.630   5.890 -2.8958  4.1729  1.2913
  175SLPC  C31119878   4.919   0.682   5.767  0.1594  0.3052 -0.6114
  175SLPC  H11X19879   4.974   0.586   5.776 -3.2823 -1.6497  2.5348
  175SLPC  H11Y19880   4.998   0.761   5.761  1.2800 -0.8301 -1.3318
  175SLPC  C31219881   4.830   0.682   5.647  0.1358  1.0211 -0.4514
  175SLPC  H12X19882   4.784   0.782   5.633 -1.6450  0.3998  0.6313
  175SLPC  H12Y19883   4.748   0.607   5.649 -0.0561  1.0675 -3.0075
  175SLPC  C31319884   4.914   0.641   5.529  0.4578 -0.6795 -0.0189
  175SLPC  H13X19885   4.844   0.593   5.458 -0.8819  1.2846 -0.1336
  175SLPC  H13Y19886   4.987   0.565   5.563 -0.2473 -0.2373  2.7978
  175SLPC  C31419887   4.992   0.753   5.457  0.4304 -0.0473 -0.1953
  175SLPC  H14X19888   5.034   0.822   5.533 -1.3684 -0.5782  1.3458
  175SLPC  H14Y19889   4.932   0.817   5.388  1.9223  0.7548 -0.7965
  175SLPC  C31519890   5.101   0.708   5.369 -1.0211  0.4568  0.9249
  175SLPC  H15X19891   5.071   0.633   5.293 -1.4264 -0.0140  1.5453
  175SLPC  H15Y19892   5.165   0.638   5.427 -2.3782 -0.5665  1.2482
  175SLPC  C31619893   5.192   0.821   5.309  0.7369 -0.5818  0.5685
  175SLPC  H16X19894   5.246   0.875   5.389  1.4854  1.4069 -1.1830
  175SLPC  H16Y19895   5.128   0.890   5.249 -0.0996  0.2817  2.3827
  175SLPC  C31719896   5.310   0.760   5.233  0.4592 -0.5295 -0.3083
  175SLPC  H17X19897   5.291   0.653   5.209  1.5243 -0.2172 -2.8666
  175SLPC  H17Y19898   5.404   0.760   5.292  1.1749  2.2581 -1.2939
  175SLPC  C31819899   5.355   0.826   5.100  0.5250 -0.5261 -0.1304
  175SLPC  H18X19900   5.260   0.819   5.042 -1.4006  0.4838  2.6850
  175SLPC  H18Y19901   5.430   0.755   5.060 -0.8327 -1.1722 -1.6471
  175SLPC  H18Z19902   5.394   0.930   5.100 -0.8352  0.0203 -1.2939
  176SLPC     N19903   6.192   4.678   7.054  0.0182 -0.0175  0.7358
  176SLPC   C1319904   6.079   4.664   6.957 -0.1455 -0.2031 -0.0326
  176SLPC  H13A19905   6.117   4.623   6.865 -1.8862 -1.0531 -0.4119
  176SLPC  H13B19906   6.006   4.590   6.985 -0.8601  0.5003  0.0179
  176SLPC  H13C19907   6.044   4.765   6.938  0.6608  0.5265  2.0629
  176SLPC   C1419908   6.286   4.786   7.003  0.4371 -0.4408 -0.4915
  176SLPC  H14A19909   6.333   4.773   6.907  4.3215  1.3348  0.9345
  176SLPC  H14B19910   6.236   4.878   6.974  1.6883  0.4580  0.0898
  176SLPC  H14C19911   6.362   4.810   7.076 -0.7507  1.8854  0.0656
  176SLPC   C1519912   6.261   4.550   7.075  0.0680  0.2790  0.4743
  176SLPC  H15A19913   6.349   4.554   7.137 -0.4248  1.2303  1.1415
  176SLPC  H15B19914   6.199   4.486   7.137 -1.3954  1.8661  0.7102
  176SLPC  H15C19915   6.277   4.497   6.982 -0.5950  3.1161 -1.3755
  176SLPC   C1219916   6.139   4.712   7.193 -0.0891 -0.1887 -0.9586
  176SLPC  H12A19917   6.070   4.632   7.217 -0.4382  0.4886  0.3944
  176SLPC  H12B19918   6.074   4.798   7.194  2.2121  1.7284  2.2546
  176SLPC   C1119919   6.241   4.721   7.311 -0.1977  0.0469 -0.8926
  176SLPC  H11A19920   6.195   4.755   7.406  1.6840  3.1010 -0.9103
  176SLPC  H11B19921   6.313   4.796   7.272 -0.1036  0.0081 -0.7935
  176SLPC     P19922   6.463   4.580   7.372 -0.4732  0.3299  0.0956
  176SLPC   O1319923   6.487   4.666   7.492 -0.5406  0.0308 -0.5198
  176SLPC   O1419924   6.507   4.437   7.385 -0.5403  0.1893  0.3208
  176SLPC   O1219925   6.310   4.593   7.335 -0.2976  0.0787 -0.6194
  176SLPC   O1119926   6.531   4.648   7.250 -0.3866 -0.0663  0.6247
  176SLPC    C119927   6.655   4.721   7.259  0.0266 -0.3950  0.0459
  176SLPC    HA19928   6.671   4.774   7.355 -1.0738  0.9101 -0.4622
  176SLPC    HB19929   6.750   4.667   7.239  0.7630  0.1257  1.9713
  176SLPC    C219930   6.652   4.845   7.156 -0.8116 -0.3373 -0.6311
  176SLPC    HS19931   6.544   4.868   7.141 -1.0292 -0.9921 -0.1525
  176SLPC   O2119932   6.715   4.794   7.027  0.1904 -0.6036 -0.2368
  176SLPC   C2119933   6.663   4.840   6.917 -0.4224 -0.0446 -0.3352
  176SLPC   O2219934   6.550   4.884   6.899 -0.1302  0.4540  0.1193
  176SLPC   C2219935   6.757   4.818   6.801 -0.0512  0.3982  0.4650
  176SLPC   H2R19936   6.844   4.883   6.824 -1.2239  1.4664  2.0347
  176SLPC   H2S19937   6.778   4.709   6.791 -1.3306  0.1262  0.6350
  176SLPC    C319938   6.739   4.955   7.205  0.1481 -0.2345 -0.0750
  176SLPC    HX19939   6.832   4.900   7.228  0.3518  0.4792  0.8757
  176SLPC    HY19940   6.688   4.990   7.297 -0.8370  1.0280 -1.0676
  176SLPC   O3119941   6.764   5.049   7.101  0.0712 -0.1689  0.5073
  176SLPC   C3119942   6.789   5.173   7.140  0.2384  0.1297 -0.4237
  176SLPC   O3219943   6.806   5.202   7.257  0.3169 -0.3140 -0.4495
  176SLPC   C3219944   6.810   5.270   7.024  0.3548  0.1338 -0.2133
  176SLPC   H2X19945   6.813   5.203   6.936  0.7781 -1.4321  0.9504
  176SLPC   H2Y19946   6.906   5.324   7.034 -0.5721  2.2088 -1.7642
  176SLPC   C2319947   6.692   4.860   6.666 -0.0175  0.1316  0.2035
  176SLPC   H3R19948   6.689   4.971   6.661  0.9121  0.0994 -2.2823
  176SLPC   H3S19949   6.592   4.813   6.666  0.4075 -0.8125 -0.4816
  176SLPC   C2419950   6.768   4.836   6.538  0.6406 -0.4018 -0.4055
  176SLPC   H4R19951   6.801   4.730   6.529 -0.9345 -0.8426 -1.5025
  176SLPC   H4S19952   6.862   4.894   6.547 -0.8432  2.1610 -0.6578
  176SLPC   C2519953   6.698   4.889   6.409  0.5008 -0.0630 -0.8047
  176SLPC   H5R19954   6.650   4.987   6.431 -0.2797  0.2474 -3.4938
  176SLPC   H5S19955   6.618   4.812   6.400  1.4803 -1.0139 -1.6095
  176SLPC   C2619956   6.773   4.904   6.278 -0.0873  0.8566 -0.0325
  176SLPC   H6R19957   6.835   4.811   6.272  0.6960  1.2651  1.2183
  176SLPC   H6S19958   6.839   4.993   6.283  1.1492 -0.0341  0.1711
  176SLPC   C2719959   6.663   4.895   6.169 -0.3225 -0.3616  0.2181
  176SLPC   H7R19960   6.591   4.978   6.183  0.6604  0.6733 -0.6485
  176SLPC   H7S19961   6.596   4.806   6.173 -0.4421 -0.2864 -0.0510
  176SLPC   C2819962   6.731   4.908   6.037  0.6184 -0.2899 -0.1801
  176SLPC   H8R19963   6.792   4.819   6.010 -2.1883 -2.0178 -1.3731
  176SLPC   H8S19964   6.800   4.993   6.054  2.9543 -2.1914  0.4491
  176SLPC   C2919965   6.623   4.932   5.932 -0.5065 -0.2633 -0.2728
  176SLPC   H9R19966   6.519   4.947   5.961 -0.4215  0.8564 -0.4893
  176SLPC  C21019967   6.659   4.944   5.800  0.3008  0.4717 -0.1391
  176SLPC  H10R19968   6.582   4.955   5.722  1.4746  1.8426 -1.1594
  176SLPC  C21119969   6.793   4.915   5.743 -0.8066  0.2363  0.2649
  176SLPC  H11R19970   6.834   4.814   5.764  0.8663  0.4427 -1.7620
  176SLPC  H11S19971   6.868   4.985   5.786  1.0946 -1.0352 -0.8439
  176SLPC  C21219972   6.801   4.936   5.593  0.4853  0.0484  0.1041
  176SLPC  H12R19973   6.832   5.037   5.563 -0.3675 -0.0006 -1.0342
  176SLPC  C21319974   6.765   4.854   5.494 -0.9595  0.0977 -0.1344
  176SLPC  H13R19975   6.790   4.878   5.390 -1.2377  0.8409 -0.0387
  176SLPC  C21419976   6.702   4.714   5.521 -0.4892  0.5152 -0.2965
  176SLPC  H14R19977   6.604   4.725   5.471 -0.0465  1.6435 -0.9377
  176SLPC  H14S19978   6.674   4.691   5.626  0.4949 -0.6138 -0.2575
  176SLPC  C21519979   6.788   4.601   5.464 -0.2154 -0.4701  0.3612
  176SLPC  H15R19980   6.892   4.592   5.502 -0.5208 -0.4612  1.2232
  176SLPC  H15S19981   6.792   4.627   5.356 -0.8054 -0.2244  0.3937
  176SLPC  C21619982   6.720   4.468   5.490 -0.6424 -0.7937 -0.0970
  176SLPC  H16R19983   6.612   4.492   5.482 -0.4798 -0.5397 -2.0621
  176SLPC  H16S19984   6.746   4.439   5.594 -0.0204 -0.6004 -0.1947
  176SLPC  C21719985   6.765   4.350   5.395  0.6637 -0.4669  0.2553
  176SLPC  H17R19986   6.720   4.259   5.442 -0.6407  0.4164  0.7750
  176SLPC  H17S19987   6.874   4.340   5.411  0.4195 -1.3905  1.5420
  176SLPC  C21819988   6.732   4.371   5.250  0.9794  0.3082 -0.8961
  176SLPC  H18R19989   6.785   4.450   5.194  0.1052  1.1509 -0.5622
  176SLPC  H18S19990   6.626   4.406   5.245  0.6441 -0.2752  1.0238
  176SLPC  H18T19991   6.736   4.270   5.203 -1.7627 -0.2489 -0.1509
  176SLPC   C3319992   6.696   5.375   7.003 -0.1435  0.0897  0.1989
  176SLPC   H3X19993   6.751   5.472   7.007  1.2521 -0.7020  1.4708
  176SLPC   H3Y19994   6.627   5.386   7.089 -0.0099 -1.3264  0.5074
  176SLPC   C3419995   6.615   5.359   6.870 -0.1400 -0.8779 -0.2920
  176SLPC   H4X19996   6.676   5.332   6.782  0.3908  1.0959 -0.5767
  176SLPC   H4Y19997   6.562   5.453   6.842 -0.1600 -0.0433  2.2834
  176SLPC   C3519998   6.505   5.252   6.881 -0.0054 -0.4415 -0.0404
  176SLPC   H5X19999   6.440   5.256   6.970 -1.0846 -0.9874 -0.7800
  176SLPC   H5Y20000   6.546   5.149   6.885  1.4484  0.1453  3.3000
  176SLPC   C3620001   6.409   5.261   6.760 -0.7406  0.1879  0.1517
  176SLPC   H6X20002   6.394   5.369   6.741  0.3691  0.0488 -1.7086
  176SLPC   H6Y20003   6.307   5.218   6.772 -0.5891 -0.2135  0.0294
  176SLPC   C3720004   6.478   5.208   6.634  0.2691 -0.5293  0.4454
  176SLPC   H7X20005   6.493   5.098   6.635  1.3741 -0.4117 -1.0348
  176SLPC   H7Y20006   6.573   5.263   6.618  0.8835 -1.9290 -0.9483
  176SLPC   C3820007   6.394   5.241   6.507  0.7644 -0.5051  0.0573
  176SLPC   H8X20008   6.381   5.350   6.496  0.5896 -0.6700 -1.7475
  176SLPC   H8Y20009   6.294   5.192   6.508  0.8548 -0.6914  0.1638
  176SLPC   C3920010   6.470   5.218   6.370  0.1097  0.4066 -1.0066
  176SLPC   H9X20011   6.476   5.107   6.362  2.2883  0.4001 -0.0255
  176SLPC   H9Y20012   6.574   5.255   6.381 -0.5383  2.7065 -1.9636
  176SLPC  C31020013   6.407   5.286   6.243 -0.1767  0.8842 -0.0174
  176SLPC  H10X20014   6.371   5.386   6.276  0.1415  0.4346  1.8118
  176SLPC  H10Y20015   6.317   5.229   6.211 -0.3196  1.8103 -1.3547
  176SLPC  C31120016   6.506   5.303   6.121  0.0448 -0.5655  0.7469
  176SLPC  H11X20017   6.535   5.202   6.083 -0.8356 -1.2575  1.8389
  176SLPC  H11Y20018   6.589   5.351   6.177  1.1798 -2.2919  0.6076
  176SLPC  C31220019   6.444   5.393   6.015  0.5531 -0.1920 -1.0414
  176SLPC  H12X20020   6.417   5.488   6.066 -1.3287 -0.2735 -1.8000
  176SLPC  H12Y20021   6.344   5.352   5.990 -0.2829  0.9569  0.2332
  176SLPC  C31320022   6.532   5.429   5.899 -0.1432 -0.2579  0.3394
  176SLPC  H13X20023   6.627   5.475   5.934  0.6270 -0.1934 -1.6892
  176SLPC  H13Y20024   6.493   5.507   5.830 -1.9537 -0.1651  1.4053
  176SLPC  C31420025   6.579   5.315   5.810 -0.4104 -0.1396  0.2877
  176SLPC  H14X20026   6.493   5.263   5.762 -2.4980  1.3223  2.2406
  176SLPC  H14Y20027   6.640   5.244   5.870 -0.4124  1.3930  2.1839
  176SLPC  C31520028   6.681   5.363   5.694  0.0229 -0.2232 -1.0087
  176SLPC  H15X20029   6.736   5.268   5.673 -0.3288 -0.7553  0.3658
  176SLPC  H15Y20030   6.760   5.428   5.736 -0.9210 -0.2501  0.9630
  176SLPC  C31620031   6.604   5.417   5.570 -0.0298 -0.5533  0.7762
  176SLPC  H16X20032   6.666   5.499   5.526 -0.9141  0.9025  2.1218
  176SLPC  H16Y20033   6.506   5.460   5.600 -1.0188 -2.7196  0.7733
  176SLPC  C31720034   6.586   5.319   5.452  0.2629 -1.0350  0.3319
  176SLPC  H17X20035   6.519   5.239   5.489 -0.2623 -0.9083 -0.3275
  176SLPC  H17Y20036   6.685   5.269   5.440  1.1430  0.5075  0.8989
  176SLPC  C31820037   6.549   5.393   5.316 -0.4069  0.2608  0.4112
  176SLPC  H18X20038   6.558   5.312   5.240  1.7545 -0.3680  1.2540
  176SLPC  H18Y20039   6.626   5.467   5.284  0.2680 -0.9682 -0.8923
  176SLPC  H18Z20040   6.449   5.441   5.324 -0.3656  0.3477  0.4107
  177SLPC     N20041   0.712   5.232   7.348  0.6907 -0.1652 -0.2373
  177SLPC   C1320042   0.642   5.215   7.482  0.1427 -0.0031  0.0000
  177SLPC  H13A20043   0.544   5.173   7.468  0.0077  0.1939  0.3341
  177SLPC  H13B20044   0.688   5.143   7.549  0.8326 -0.5222 -0.9999
  177SLPC  H13C20045   0.633   5.304   7.543  1.3969  0.3701 -0.3377
  177SLPC   C1420046   0.623   5.315   7.255 -0.5532 -0.1267 -0.4415
  177SLPC  H14A20047   0.673   5.353   7.167 -2.3258  2.1332 -0.5801
  177SLPC  H14B20048   0.537   5.254   7.229 -1.1943 -0.1646  1.5374
  177SLPC  H14C20049   0.589   5.398   7.316  1.5193 -0.8777  1.8858
  177SLPC   C1520050   0.734   5.099   7.290 -0.6579 -0.0869 -0.5605
  177SLPC  H15A20051   0.786   5.107   7.196 -1.7611  0.7939 -1.1169
  177SLPC  H15B20052   0.788   5.041   7.363  1.8445  1.2457 -1.2357
  177SLPC  H15C20053   0.642   5.043   7.279 -1.0426 -0.3089  2.7612
  177SLPC   C1220054   0.853   5.294   7.358 -0.1381  0.4081 -0.6555
  177SLPC  H12A20055   0.916   5.221   7.406 -0.3664 -0.1194 -1.1428
  177SLPC  H12B20056   0.853   5.378   7.426  2.0075 -0.5294  0.5892
  177SLPC   C1120057   0.921   5.348   7.226  0.3847  0.4237 -0.6585
  177SLPC  H11A20058   0.916   5.269   7.147 -0.6443  1.3923 -1.6092
  177SLPC  H11B20059   1.027   5.370   7.251  1.0621 -2.3891 -0.6714
  177SLPC     P20060   0.883   5.533   7.037  0.2386 -0.0600 -0.3142
  177SLPC   O1320061   0.757   5.599   6.991  0.1802  0.1807 -0.1604
  177SLPC   O1420062   1.003   5.616   7.056  0.2547 -0.4985 -0.6702
  177SLPC   O1220063   0.853   5.460   7.177 -0.3860 -0.4729  0.6577
  177SLPC   O1120064   0.917   5.407   6.949 -0.5531  0.8858 -0.0010
  177SLPC    C120065   0.807   5.335   6.886  0.1370  0.1197  0.0604
  177SLPC    HA20066   0.847   5.233   6.871  0.2927 -0.1726  2.1599
  177SLPC    HB20067   0.718   5.334   6.953  0.3945 -1.6956  0.4065
  177SLPC    C220068   0.772   5.390   6.746  0.7660  0.2138  0.2790
  177SLPC    HS20069   0.752   5.499   6.751 -0.0143  0.3345 -3.0898
  177SLPC   O2120070   0.666   5.319   6.674 -0.2409 -0.6893 -0.4982
  177SLPC   C2120071   0.541   5.350   6.690 -0.4546  0.2890 -0.5005
  177SLPC   O2220072   0.497   5.449   6.748  0.4453  0.2313 -0.1943
  177SLPC   C2220073   0.446   5.250   6.634 -0.2127 -0.2328  0.1847
  177SLPC   H2R20074   0.493   5.156   6.598  1.2500  0.3514  0.4956
  177SLPC   H2S20075   0.384   5.208   6.716  0.2109 -1.1366  0.0622
  177SLPC    C320076   0.906   5.390   6.660  0.0573  0.4269 -0.3929
  177SLPC    HX20077   0.952   5.289   6.671 -2.5861 -1.0056 -1.6477
  177SLPC    HY20078   0.974   5.463   6.709  0.1734  0.6927 -0.9425
  177SLPC   O3120079   0.888   5.420   6.519 -0.5183  0.1596  0.0301
  177SLPC   C3120080   0.845   5.545   6.491 -0.2993  0.2652 -0.2044
  177SLPC   O3220081   0.824   5.636   6.570  0.1556  0.1053  0.2681
  177SLPC   C3220082   0.824   5.544   6.345  0.0480  0.5771 -0.4415
  177SLPC   H2X20083   0.764   5.457   6.309  0.0788  1.0335 -1.6426
  177SLPC   H2Y20084   0.919   5.565   6.291  0.0258  2.2596  0.1224
  177SLPC   C2320085   0.361   5.319   6.523 -0.4153 -0.0407 -0.6413
  177SLPC   H3R20086   0.319   5.410   6.570 -3.6514 -1.8492  0.2574
  177SLPC   H3S20087   0.272   5.255   6.506 -1.0634  0.2060  1.5702
  177SLPC   C2420088   0.440   5.353   6.396  0.2439  0.3255 -0.1463
  177SLPC   H4R20089   0.510   5.438   6.412 -0.4245  1.1464 -1.4409
  177SLPC   H4S20090   0.361   5.398   6.332  2.3138  0.6545 -2.6530
  177SLPC   C2520091   0.528   5.238   6.330  0.1497 -0.3128  0.3570
  177SLPC   H5R20092   0.604   5.203   6.403  0.7133  1.7032  0.7851
  177SLPC   H5S20093   0.583   5.282   6.245 -0.6257 -0.6251 -0.3225
  177SLPC   C2620094   0.442   5.117   6.288  0.1371 -0.2118  0.2387
  177SLPC   H6R20095   0.359   5.145   6.221 -0.2012 -2.0090 -0.1602
  177SLPC   H6S20096   0.403   5.063   6.377  0.5761 -3.2932 -1.2760
  177SLPC   C2720097   0.526   5.008   6.222  0.1329 -0.2167 -0.4931
  177SLPC   H7R20098   0.458   4.920   6.213 -1.1072  0.9083 -3.9127
  177SLPC   H7S20099   0.605   4.977   6.294  2.3287  1.0485 -2.2265
  177SLPC   C2820100   0.592   5.048   6.092 -0.4243  0.4940  0.1269
  177SLPC   H8R20101   0.656   4.964   6.057 -0.7842  0.1031  0.4026
  177SLPC   H8S20102   0.666   5.129   6.110  1.0993 -0.9020  0.3580
  177SLPC   C2920103   0.502   5.080   5.971  0.1938  0.3054  0.7285
  177SLPC   H9R20104   0.435   5.167   5.976 -0.3325 -0.0873  0.5816
  177SLPC  C21020105   0.493   5.020   5.851 -0.4816  0.3487  0.9107
  177SLPC  H10R20106   0.411   5.052   5.785  1.0278  2.9516  0.1465
  177SLPC  C21120107   0.568   4.895   5.803 -0.1214 -0.1618  0.6932
  177SLPC  H11R20108   0.544   4.815   5.876  0.0569 -0.3295  0.5674
  177SLPC  H11S20109   0.675   4.925   5.802 -1.1575  4.2474  0.8295
  177SLPC  C21220110   0.517   4.837   5.674  0.0802 -0.1636  0.0415
  177SLPC  H12R20111   0.475   4.736   5.687 -1.5109  0.3469 -0.8333
  177SLPC  C21320112   0.540   4.882   5.548 -0.0412 -0.3668 -0.4408
  177SLPC  H13R20113   0.487   4.831   5.467  1.3053  0.6703 -2.0626
  177SLPC  C21420114   0.607   5.007   5.509  0.5972  0.2458 -0.2641
  177SLPC  H14R20115   0.690   4.973   5.442  2.3233 -0.4225  2.0864
  177SLPC  H14S20116   0.643   5.062   5.598  2.0742 -1.9202  0.5578
  177SLPC  C21520117   0.525   5.109   5.418 -0.2582 -0.4642 -0.9150
  177SLPC  H15R20118   0.579   5.202   5.391 -1.3981 -0.3961 -3.1783
  177SLPC  H15S20119   0.434   5.128   5.479  0.1814  0.0489 -0.4093
  177SLPC  C21620120   0.474   5.048   5.288  0.1464  0.5202  0.0448
  177SLPC  H16R20121   0.408   4.962   5.312  1.2446 -0.3980 -0.1282
  177SLPC  H16S20122   0.567   5.024   5.232  0.9547 -0.1414  1.5955
  177SLPC  C21720123   0.385   5.156   5.222  0.0288 -0.9585 -0.2042
  177SLPC  H17R20124   0.426   5.257   5.238 -2.1588 -0.1214  0.4854
  177SLPC  H17S20125   0.288   5.156   5.277  0.5757 -1.9413  0.7917
  177SLPC  C21820126   0.365   5.132   5.071 -0.5708  0.0335  0.5837
  177SLPC  H18R20127   0.326   5.028   5.061 -0.6963  0.1967 -0.9239
  177SLPC  H18S20128   0.466   5.140   5.027 -0.5019 -1.4417  0.4191
  177SLPC  H18T20129   0.293   5.203   5.025  0.0855  0.4724  0.2175
  177SLPC   C3320130   0.734   5.664   6.308  0.0268 -0.1313 -0.7513
  177SLPC   H3X20131   0.783   5.754   6.350 -0.8416  0.3601 -0.7661
  177SLPC   H3Y20132   0.634   5.651   6.354 -0.3281  2.1312 -0.7882
  177SLPC   C3420133   0.703   5.689   6.159  0.1681  0.7101 -0.7500
  177SLPC   H4X20134   0.796   5.713   6.103  0.6684  1.7576  0.4655
  177SLPC   H4Y20135   0.644   5.783   6.154  0.1872  0.6784 -1.7742
  177SLPC   C3520136   0.624   5.579   6.090  0.1949 -0.0845  0.4938
  177SLPC   H5X20137   0.553   5.531   6.160 -0.9385  0.0484 -0.5367
  177SLPC   H5Y20138   0.696   5.502   6.054 -1.7216 -1.7442  0.0309
  177SLPC   C3620139   0.526   5.629   5.980  0.0718 -1.2841 -0.9757
  177SLPC   H6X20140   0.557   5.731   5.949 -2.6283  0.6872  2.1688
  177SLPC   H6Y20141   0.423   5.641   6.019  0.6462  1.6638 -0.1843
  177SLPC   C3720142   0.529   5.535   5.858  0.0023 -0.1125 -0.1531
  177SLPC   H7X20143   0.493   5.435   5.890 -1.2090  0.2889 -0.2009
  177SLPC   H7Y20144   0.635   5.530   5.826  0.5690  0.5961  1.5365
  177SLPC   C3820145   0.437   5.586   5.744  0.3021 -0.0696 -0.2149
  177SLPC   H8X20146   0.459   5.693   5.721 -0.9550 -0.0555 -1.4924
  177SLPC   H8Y20147   0.334   5.573   5.782  0.0331 -1.4866 -1.3641
  177SLPC   C3920148   0.443   5.489   5.628 -0.6975 -0.5045  0.9676
  177SLPC   H9X20149   0.392   5.392   5.643 -3.6027  0.9792  1.4062
  177SLPC   H9Y20150   0.547   5.467   5.595 -1.0633  0.1212 -0.7129
  177SLPC  C31020151   0.365   5.541   5.499  0.3026 -0.3758  0.1346
  177SLPC  H10X20152   0.308   5.629   5.536  0.2400 -0.2759 -0.1941
  177SLPC  H10Y20153   0.294   5.462   5.466 -1.0143  0.7752  0.0728
  177SLPC  C31120154   0.468   5.583   5.393 -0.8307  0.7301 -0.4919
  177SLPC  H11X20155   0.519   5.491   5.356 -1.2581 -0.2632  1.3174
  177SLPC  H11Y20156   0.547   5.648   5.437  0.1835 -0.3627 -0.6306
  177SLPC  C31220157   0.409   5.671   5.278 -0.0435 -0.8499  0.0623
  177SLPC  H12X20158   0.484   5.691   5.198 -0.9368 -2.4931 -1.2475
  177SLPC  H12Y20159   0.371   5.764   5.326  0.6798 -0.4304 -0.1638
  177SLPC  C31320160   0.292   5.600   5.211  0.1817  0.5553  0.0989
  177SLPC  H13X20161   0.199   5.603   5.273 -0.4463 -0.4810 -0.7732
  177SLPC  H13Y20162   0.316   5.494   5.191 -0.5183  0.5348 -0.6634
  177SLPC  C31420163   0.240   5.668   5.081 -0.2397  0.4613 -0.1837
  177SLPC  H14X20164   0.319   5.656   5.004 -2.1604 -0.5128 -2.1143
  177SLPC  H14Y20165   0.223   5.775   5.105  0.6176  0.2234  1.6426
  177SLPC  C31520166   0.113   5.606   5.022  0.4152 -0.3785 -0.0163
  177SLPC  H15X20167   0.037   5.636   5.097 -0.3367 -1.6519 -0.2457
  177SLPC  H15Y20168   0.107   5.495   5.021 -1.6931 -0.3959 -3.5808
  177SLPC  C31620169   0.073   5.671   4.890  0.3168 -0.0361 -0.2192
  177SLPC  H16X20170   0.064   5.781   4.900 -1.3168 -0.1916  0.2836
  177SLPC  H16Y20171  -0.028   5.637   4.857  1.0550 -1.3249 -1.2640
  177SLPC  C31720172   0.170   5.635   4.781  0.3053 -0.1819 -0.0288
  177SLPC  H17X20173   0.214   5.534   4.800  1.8550  0.6726  1.0809
  177SLPC  H17Y20174   0.247   5.713   4.769  0.6893 -0.1508  2.1824
  177SLPC  C31820175   0.095   5.623   4.648 -0.3570 -0.0607  0.5611
  177SLPC  H18X20176   0.020   5.540   4.650 -0.5589  0.0202 -1.2327
  177SLPC  H18Y20177   0.166   5.592   4.568 -1.7290 -0.4209 -0.5661
  177SLPC  H18Z20178   0.051   5.718   4.610 -1.2427 -1.3377 -1.8541
  178SLPC     N20179   4.406   2.426   7.891 -0.5285 -0.1775  0.2778
  178SLPC   C1320180   4.476   2.330   7.801  0.2947 -1.0912  0.2810
  178SLPC  H13A20181   4.411   2.245   7.786 -0.1401 -0.8304  0.6612
  178SLPC  H13B20182   4.489   2.377   7.704 -0.9552  2.1036  1.5090
  178SLPC  H13C20183   4.573   2.307   7.843  1.3865  1.2253 -0.8096
  178SLPC   C1420184   4.479   2.559   7.909  0.2277  0.5078 -0.0104
  178SLPC  H14A20185   4.529   2.587   7.818 -0.0464  2.6167  0.4471
  178SLPC  H14B20186   4.413   2.640   7.936 -2.3422 -1.6529  0.7092
  178SLPC  H14C20187   4.561   2.546   7.978 -0.5250  1.2518  1.0649
  178SLPC   C1520188   4.390   2.360   8.023  0.9214  0.1449 -0.3984
  178SLPC  H15A20189   4.315   2.283   8.013 -0.5103  1.2811  1.0134
  178SLPC  H15B20190   4.484   2.343   8.073  0.8926 -0.2821 -0.4811
  178SLPC  H15C20191   4.338   2.429   8.088 -0.7541 -2.1039  0.7884
  178SLPC   C1220192   4.267   2.449   7.836 -0.2404  0.1226 -0.6427
  178SLPC  H12A20193   4.223   2.517   7.908 -1.0072 -1.5591  0.5329
  178SLPC  H12B20194   4.217   2.355   7.852  0.3710  0.0443  1.0094
  178SLPC   C1120195   4.251   2.489   7.690 -0.5233  0.6149  0.3009
  178SLPC  H11A20196   4.306   2.585   7.681 -0.6235  0.7230  0.7920
  178SLPC  H11B20197   4.145   2.514   7.670 -1.1514 -2.1055 -0.1125
  178SLPC     P20198   4.205   2.270   7.546  0.2402  0.3017 -0.0552
  178SLPC   O1320199   4.301   2.181   7.479  0.1869 -0.6873 -0.5579
  178SLPC   O1420200   4.141   2.217   7.668  0.5118  0.0957 -0.5908
  178SLPC   O1220201   4.299   2.387   7.592  0.7415  0.3978  0.0230
  178SLPC   O1120202   4.105   2.338   7.444  0.2247  0.4192  0.3553
  178SLPC    C120203   4.152   2.391   7.323 -0.3706  0.3626  0.3967
  178SLPC    HA20204   4.119   2.497   7.311  0.9711  0.8984  1.2645
  178SLPC    HB20205   4.261   2.409   7.333 -0.5776  0.8334  1.9538
  178SLPC    C220206   4.122   2.301   7.199 -0.2466 -0.2854  0.0433
  178SLPC    HS20207   4.195   2.217   7.198  1.9552  1.5315 -1.8667
  178SLPC   O2120208   4.147   2.381   7.085 -0.4512  0.2536  0.6978
  178SLPC   C2120209   4.276   2.401   7.057 -0.3595  0.7025  0.0125
  178SLPC   O2220210   4.377   2.340   7.101 -0.2953 -0.0655  0.0328
  178SLPC   C2220211   4.300   2.520   6.954 -0.0780 -0.3153  0.4778
  178SLPC   H2R20212   4.202   2.568   6.932  0.8325  0.9272 -1.1470
  178SLPC   H2S20213   4.344   2.603   7.013 -2.5420 -0.7189  3.0920
  178SLPC    C320214   3.979   2.244   7.210 -0.2296  0.3699  0.5604
  178SLPC    HX20215   3.905   2.324   7.230  1.0846  1.3717  1.6163
  178SLPC    HY20216   3.986   2.175   7.297  1.1140 -0.2763 -0.0295
  178SLPC   O3120217   3.938   2.181   7.089  0.0074 -0.3693 -0.4360
  178SLPC   C3120218   4.002   2.068   7.063  0.2411 -0.4417 -0.6421
  178SLPC   O3220219   4.058   1.996   7.150 -0.0961 -0.1655  0.1559
  178SLPC   C3220220   3.986   2.026   6.916 -0.1997  0.4864 -0.8268
  178SLPC   H2X20221   3.981   2.126   6.867 -3.2169  1.1887  0.6654
  178SLPC   H2Y20222   3.890   1.970   6.912 -0.6520  1.1955 -0.2654
  178SLPC   C2320223   4.373   2.481   6.825  0.4086 -0.2756 -0.0361
  178SLPC   H3R20224   4.475   2.443   6.846  0.8872  0.1088 -1.5445
  178SLPC   H3S20225   4.377   2.572   6.761 -0.6670 -1.6256 -2.1175
  178SLPC   C2420226   4.288   2.378   6.738 -0.1483 -0.1954 -0.1188
  178SLPC   H4R20227   4.183   2.413   6.731  0.2633  1.4173  1.1775
  178SLPC   H4S20228   4.290   2.283   6.794  1.1906  0.1249  0.4231
  178SLPC   C2520229   4.345   2.365   6.597 -0.2917 -0.1228 -0.0355
  178SLPC   H5R20230   4.456   2.351   6.603 -0.2466  0.3552  0.2836
  178SLPC   H5S20231   4.327   2.461   6.543 -0.7309 -0.0182  0.2972
  178SLPC   C2620232   4.289   2.246   6.519  0.0172  0.2698  0.3145
  178SLPC   H6R20233   4.190   2.232   6.567  0.4271  0.4166  1.2209
  178SLPC   H6S20234   4.346   2.162   6.564  2.2785  1.2007 -0.7006
  178SLPC   C2720235   4.297   2.248   6.366  0.6842 -0.1235 -0.4065
  178SLPC   H7R20236   4.403   2.259   6.336  1.4578  0.8592  2.3598
  178SLPC   H7S20237   4.237   2.331   6.323 -0.0419 -0.6801 -0.4939
  178SLPC   C2820238   4.235   2.117   6.313 -0.1277  0.4421 -0.1935
  178SLPC   H8R20239   4.131   2.096   6.344  0.8686 -4.0589  0.7826
  178SLPC   H8S20240   4.275   2.025   6.360 -1.9620 -0.0448  0.4716
  178SLPC   C2920241   4.258   2.107   6.164 -0.0357  0.2441  0.5942
  178SLPC   H9R20242   4.202   2.180   6.104  0.1899 -0.4847 -0.5447
  178SLPC  C21020243   4.315   2.001   6.100 -0.4139  0.5088 -0.1979
  178SLPC  H10R20244   4.339   2.006   5.993 -1.1244 -0.9357 -0.4471
  178SLPC  C21120245   4.396   1.887   6.167  0.5593  0.0936  0.4207
  178SLPC  H11R20246   4.323   1.804   6.156  1.0131 -0.2739  0.1543
  178SLPC  H11S20247   4.436   1.912   6.268  1.5506  0.5629 -0.0826
  178SLPC  C21220248   4.518   1.841   6.092  0.0631 -0.3383  0.3622
  178SLPC  H12R20249   4.524   1.737   6.057  2.5166  0.1469 -0.8706
  178SLPC  C21320250   4.628   1.916   6.071  0.2638  0.4808  0.3752
  178SLPC  H13R20251   4.713   1.867   6.019 -0.6705  0.2867 -1.0339
  178SLPC  C21420252   4.644   2.065   6.098 -0.1235  0.7513 -0.2860
  178SLPC  H14R20253   4.744   2.075   6.147 -0.0463  0.2536 -0.3398
  178SLPC  H14S20254   4.575   2.101   6.177  1.2649  1.6215  0.5757
  178SLPC  C21520255   4.649   2.135   5.960 -0.3079 -0.5484  0.2723
  178SLPC  H15R20256   4.546   2.123   5.920 -0.0001 -0.5869 -0.5160
  178SLPC  H15S20257   4.719   2.086   5.890  2.3595  0.0611  2.3649
  178SLPC  C21620258   4.674   2.287   5.974  0.3973  0.5395  0.5017
  178SLPC  H16R20259   4.784   2.299   5.976  0.7475 -2.1783  0.7393
  178SLPC  H16S20260   4.621   2.325   6.065  0.5711 -0.0587  0.8595
  178SLPC  C21720261   4.638   2.362   5.848  0.9758  0.4517  0.4308
  178SLPC  H17R20262   4.528   2.360   5.833  0.7847 -2.2581  1.5849
  178SLPC  H17S20263   4.686   2.313   5.761 -0.2532 -0.5479  0.2908
  178SLPC  C21820264   4.694   2.506   5.843  0.2743 -0.3097 -0.0873
  178SLPC  H18R20265   4.652   2.571   5.923  0.2652 -0.0432 -0.3077
  178SLPC  H18S20266   4.669   2.545   5.742  0.6994  0.6737  0.1812
  178SLPC  H18T20267   4.805   2.499   5.844  0.3703  0.8952 -0.9142
  178SLPC   C3320268   4.112   1.950   6.858 -0.3255  0.3893 -0.2042
  178SLPC   H3X20269   4.113   1.854   6.913 -0.5532  0.3560 -0.2531
  178SLPC   H3Y20270   4.210   2.002   6.855 -0.8090  1.3461  0.2427
  178SLPC   C3420271   4.083   1.932   6.705 -0.0108 -0.6229  0.2535
  178SLPC   H4X20272   4.166   1.874   6.660 -1.8382 -1.5602 -2.1153
  178SLPC   H4Y20273   4.086   2.034   6.662  2.2780 -1.1054 -0.8533
  178SLPC   C3520274   3.959   1.854   6.668 -0.0526  0.1974 -0.2367
  178SLPC   H5X20275   3.867   1.911   6.693 -0.2258  1.2149 -2.9086
  178SLPC   H5Y20276   3.945   1.757   6.721  0.2962  0.5093  0.4409
  178SLPC   C3620277   3.939   1.820   6.515  0.8202  0.0418  0.4245
  178SLPC   H6X20278   3.941   1.908   6.447 -1.4139 -0.7739 -0.8438
  178SLPC   H6Y20279   3.834   1.783   6.507 -0.4121  3.3567 -0.4749
  178SLPC   C3720280   4.044   1.716   6.463  0.7839  0.4496  0.3685
  178SLPC   H7X20281   4.050   1.617   6.514 -2.3168 -0.1659 -0.2874
  178SLPC   H7Y20282   4.146   1.759   6.463  0.2206  2.0618 -3.0219
  178SLPC   C3820283   4.017   1.694   6.314  0.2429  0.5775  0.9011
  178SLPC   H8X20284   4.055   1.774   6.247  0.5778 -1.2526 -1.1863
  178SLPC   H8Y20285   3.907   1.685   6.306  0.3652  0.2596 -0.6022
  178SLPC   C3920286   4.083   1.566   6.277 -0.2757  0.6580  0.8721
  178SLPC   H9X20287   4.040   1.482   6.336  1.0344 -1.0689 -0.5220
  178SLPC   H9Y20288   4.190   1.555   6.302  0.0331  1.3848 -0.1081
  178SLPC  C31020289   4.075   1.527   6.122 -0.1936  0.5349 -0.8631
  178SLPC  H10X20290   4.150   1.453   6.088  0.8804  0.3892  1.5857
  178SLPC  H10Y20291   4.101   1.620   6.066  0.0151  0.1996 -1.3212
  178SLPC  C31120292   3.939   1.485   6.076  0.1519  0.1816 -0.2084
  178SLPC  H11X20293   3.942   1.440   5.975  2.3072 -0.5187  0.1275
  178SLPC  H11Y20294   3.860   1.562   6.089  1.0322  1.0343  0.2522
  178SLPC  C31220295   3.884   1.366   6.168 -0.1740  0.9112 -0.2624
  178SLPC  H12X20296   3.790   1.328   6.123 -0.9531  2.0441  0.3500
  178SLPC  H12Y20297   3.864   1.415   6.266 -1.5165 -1.2958  0.6321
  178SLPC  C31320298   3.966   1.236   6.172 -0.0952 -0.4957 -0.4431
  178SLPC  H13X20299   4.054   1.257   6.237 -0.0890 -1.6036 -0.0589
  178SLPC  H13Y20300   3.985   1.200   6.069  0.7355 -0.8592 -0.1721
  178SLPC  C31420301   3.895   1.125   6.249 -0.3709  0.7719  0.1150
  178SLPC  H14X20302   3.800   1.088   6.203  1.1210 -2.0711 -0.8825
  178SLPC  H14Y20303   3.875   1.159   6.353  1.4484  0.7244  0.5050
  178SLPC  C31520304   3.988   1.005   6.271 -0.5615  0.1271 -0.4091
  178SLPC  H15X20305   4.091   1.047   6.275 -0.0385 -1.2208  1.1017
  178SLPC  H15Y20306   3.991   0.935   6.185 -0.8320 -0.6466  0.2002
  178SLPC  C31620307   3.957   0.928   6.393  0.4017  0.1300 -0.4182
  178SLPC  H16X20308   3.853   0.891   6.382  0.6490 -0.2160 -1.6825
  178SLPC  H16Y20309   3.944   0.999   6.478 -0.4417  0.8607 -1.1417
  178SLPC  C31720310   4.063   0.830   6.436 -0.2990 -0.3461  0.0313
  178SLPC  H17X20311   4.159   0.881   6.457 -1.4364  1.3919  1.2538
  178SLPC  H17Y20312   4.095   0.755   6.360 -1.4728  0.7384 -1.5897
  178SLPC  C31820313   4.028   0.748   6.566  0.1836  0.2587 -0.0725
  178SLPC  H18X20314   4.110   0.682   6.602 -0.8232 -1.0943 -0.1589
  178SLPC  H18Y20315   3.938   0.691   6.535  1.0878 -0.8234 -0.8136
  178SLPC  H18Z20316   3.998   0.817   6.647 -0.5927  0.9038 -0.8850
  179SLPC     N20317   0.889   3.718   2.834  0.3155 -0.8783 -0.0690
  179SLPC   C1320318   0.975   3.823   2.894  0.0854  0.0768  0.2030
  179SLPC  H13A20319   1.051   3.790   2.962  0.3920 -1.5644 -0.8804
  179SLPC  H13B20320   1.023   3.873   2.811 -3.7760  3.0707 -0.5558
  179SLPC  H13C20321   0.911   3.901   2.934 -1.6013 -0.1878 -1.7820
  179SLPC   C1420322   0.808   3.781   2.724 -0.3091 -0.8306 -0.0755
  179SLPC  H14A20323   0.726   3.843   2.759  0.3744  0.7689 -1.1809
  179SLPC  H14B20324   0.865   3.850   2.664 -0.3842  1.2255  2.0532
  179SLPC  H14C20325   0.764   3.703   2.664  0.1088 -0.6400 -0.6397
  179SLPC   C1520326   0.797   3.665   2.937 -0.3297 -0.2709  0.0714
  179SLPC  H15A20327   0.746   3.574   2.909  1.6237 -1.9003  1.4703
  179SLPC  H15B20328   0.851   3.636   3.026 -1.4910 -1.3717  0.4503
  179SLPC  H15C20329   0.729   3.745   2.963  0.1186  0.3912 -0.7432
  179SLPC   C1220330   0.964   3.601   2.769 -0.2621  0.8479 -0.1452
  179SLPC  H12A20331   0.891   3.528   2.737  1.1812 -0.7230  0.0396
  179SLPC  H12B20332   1.027   3.550   2.841  3.1601  2.6594 -1.6318
  179SLPC   C1120333   1.061   3.640   2.652  0.2376 -0.5773  0.3813
  179SLPC  H11A20334   1.005   3.702   2.580  1.2767  1.8065  1.5045
  179SLPC  H11B20335   1.090   3.553   2.589 -0.2783 -0.7538  0.3844
  179SLPC     P20336   1.296   3.641   2.761  0.0143  0.0102 -0.2995
  179SLPC   O1320337   1.343   3.521   2.683  0.1795 -0.3169 -0.2878
  179SLPC   O1420338   1.391   3.749   2.805 -0.0030 -0.1380  0.0787
  179SLPC   O1220339   1.171   3.713   2.700 -0.0367  0.3223 -0.0705
  179SLPC   O1120340   1.230   3.574   2.892  0.8826 -0.5778 -0.1800
  179SLPC    C120341   1.298   3.476   2.969 -0.1412 -0.3360 -0.8863
  179SLPC    HA20342   1.216   3.415   3.012 -0.8703  1.6011  0.5655
  179SLPC    HB20343   1.377   3.410   2.926  1.7862 -0.4257  2.4682
  179SLPC    C220344   1.363   3.533   3.100  0.2438  0.4314  0.4968
  179SLPC    HS20345   1.463   3.561   3.060  0.0733 -0.2731 -0.4719
  179SLPC   O2120346   1.370   3.424   3.192  0.2832  0.8028 -0.5797
  179SLPC   C2120347   1.478   3.427   3.275  0.3933  0.8018 -0.2975
  179SLPC   O2220348   1.577   3.495   3.261 -0.0100 -0.0584  0.2312
  179SLPC   C2220349   1.458   3.315   3.381  0.7302 -0.5769 -0.1154
  179SLPC   H2R20350   1.364   3.337   3.434  0.6157 -0.8614 -0.1992
  179SLPC   H2S20351   1.436   3.218   3.331 -0.1947 -1.0855  1.2318
  179SLPC    C320352   1.290   3.660   3.155 -0.1662  0.5479 -0.0507
  179SLPC    HX20353   1.184   3.631   3.169  0.1211  0.0029  1.1034
  179SLPC    HY20354   1.298   3.741   3.080  0.1873  0.2458 -0.3426
  179SLPC   O3120355   1.335   3.699   3.281 -0.4238 -0.5841  0.1271
  179SLPC   C3120356   1.441   3.773   3.290 -0.3411  0.2924  0.7348
  179SLPC   O3220357   1.494   3.820   3.191 -0.0845  0.2615 -0.6355
  179SLPC   C3220358   1.474   3.812   3.431  0.4662 -0.5499  0.4926
  179SLPC   H2X20359   1.503   3.719   3.485 -3.7159 -1.5415  1.3624
  179SLPC   H2Y20360   1.380   3.858   3.468  0.8257  1.5918 -1.0647
  179SLPC   C2320361   1.566   3.309   3.503  0.4851  0.6710  0.1562
  179SLPC   H3R20362   1.530   3.235   3.577  0.5475  0.5144  0.0308
  179SLPC   H3S20363   1.570   3.407   3.556 -0.5676  0.5398  0.4971
  179SLPC   C2420364   1.699   3.248   3.457  0.7415 -0.3578 -0.2458
  179SLPC   H4R20365   1.732   3.322   3.381  0.6332  0.3317  0.3549
  179SLPC   H4S20366   1.680   3.147   3.415 -0.9477 -0.0781 -0.2135
  179SLPC   C2520367   1.802   3.236   3.562  0.3572  0.7444  0.1553
  179SLPC   H5R20368   1.817   3.332   3.615  1.5421 -0.1491  1.4955
  179SLPC   H5S20369   1.901   3.214   3.517  1.4618  4.0109  0.7432
  179SLPC   C2620370   1.768   3.115   3.658  0.0947  0.2452  0.5604
  179SLPC   H6R20371   1.750   3.025   3.594  3.0170 -0.8931  1.1875
  179SLPC   H6S20372   1.669   3.138   3.702 -1.4626 -0.6168 -2.2371
  179SLPC   C2720373   1.861   3.083   3.776  0.3042  0.3721 -0.0225
  179SLPC   H7R20374   1.854   3.157   3.858  0.9232  0.6888 -0.2548
  179SLPC   H7S20375   1.969   3.085   3.752  0.5425  0.1955  0.9832
  179SLPC   C2820376   1.825   2.946   3.841  0.0065 -0.3549 -0.1121
  179SLPC   H8R20377   1.833   2.861   3.769  0.2299 -2.6165  2.4345
  179SLPC   H8S20378   1.718   2.951   3.871  0.1829  1.9678  0.2525
  179SLPC   C2920379   1.914   2.919   3.956 -0.2200  0.2856 -0.3701
  179SLPC   H9R20380   2.023   2.931   3.940 -0.6057  0.1721 -3.7510
  179SLPC  C21020381   1.869   2.885   4.078 -0.3175  0.2589 -0.1278
  179SLPC  H10R20382   1.942   2.867   4.159 -2.4882 -1.6669  1.5514
  179SLPC  C21120383   1.725   2.852   4.111 -0.7197 -0.7270  1.0099
  179SLPC  H11R20384   1.683   2.782   4.036  0.4243  0.0711 -0.4170
  179SLPC  H11S20385   1.670   2.947   4.100 -0.0343  0.1760  4.1958
  179SLPC  C21220386   1.703   2.810   4.255  0.3092  0.2714 -0.6063
  179SLPC  H12R20387   1.787   2.818   4.325  1.0004 -0.1953 -1.3684
  179SLPC  C21320388   1.581   2.765   4.295  0.1307 -0.5719 -0.6484
  179SLPC  H13R20389   1.572   2.719   4.394  0.9876  0.1111 -0.2273
  179SLPC  C21420390   1.459   2.743   4.208 -0.1750 -0.2222 -0.0746
  179SLPC  H14R20391   1.473   2.782   4.105  1.7353  0.9258  0.5696
  179SLPC  H14S20392   1.385   2.814   4.251 -0.0378  0.7571 -1.3946
  179SLPC  C21520393   1.392   2.607   4.213 -0.8808  0.0987 -0.1079
  179SLPC  H15R20394   1.361   2.589   4.318 -1.5785  0.6012 -0.2183
  179SLPC  H15S20395   1.473   2.535   4.186 -0.0578  1.6260 -1.9268
  179SLPC  C21620396   1.275   2.588   4.113 -0.1459  0.1409  0.6500
  179SLPC  H16R20397   1.243   2.481   4.116 -0.9138  0.2282 -1.6760
  179SLPC  H16S20398   1.310   2.592   4.007 -0.6337 -2.7284  0.2844
  179SLPC  C21720399   1.168   2.677   4.156  0.0303 -0.1089  0.0439
  179SLPC  H17R20400   1.189   2.771   4.101  2.0715 -1.4605 -1.6606
  179SLPC  H17S20401   1.169   2.703   4.264 -1.8750  2.1513 -0.4177
  179SLPC  C21820402   1.031   2.623   4.111 -0.2306  0.6246  0.0802
  179SLPC  H18R20403   1.028   2.517   4.145 -3.9965 -0.0323 -1.7084
  179SLPC  H18S20404   1.007   2.616   4.003  0.5704 -0.4559 -0.0336
  179SLPC  H18T20405   0.947   2.683   4.154 -0.0491  1.3546 -0.5573
  179SLPC   C3320406   1.577   3.921   3.454  0.0428 -0.1950  0.2293
  179SLPC   H3X20407   1.559   3.957   3.558  0.1514 -2.0169  0.9092
  179SLPC   H3Y20408   1.564   4.008   3.387 -1.3945 -1.1327 -0.7713
  179SLPC   C3420409   1.727   3.881   3.440  0.3486  0.1991 -0.7302
  179SLPC   H4X20410   1.793   3.961   3.480  2.7883 -0.0320 -3.9032
  179SLPC   H4Y20411   1.741   3.882   3.330  0.1670  0.0101 -0.7550
  179SLPC   C3520412   1.776   3.739   3.494 -0.1634 -0.3185 -0.7996
  179SLPC   H5X20413   1.711   3.653   3.470 -1.2375  0.4898 -0.8864
  179SLPC   H5Y20414   1.875   3.718   3.449  0.1994 -1.8545  0.6248
  179SLPC   C3620415   1.792   3.739   3.647 -0.1085 -0.4323 -0.0495
  179SLPC   H6X20416   1.689   3.768   3.677  0.1745  2.9919 -1.8650
  179SLPC   H6Y20417   1.868   3.815   3.678  1.4179 -0.9225 -2.3221
  179SLPC   C3720418   1.828   3.600   3.697  0.5507 -0.2186  0.1321
  179SLPC   H7X20419   1.920   3.563   3.648  1.0321 -1.6498  2.0217
  179SLPC   H7Y20420   1.752   3.529   3.658 -0.1518  1.7563 -2.3855
  179SLPC   C3820421   1.831   3.579   3.845  0.2109  1.1334 -0.6248
  179SLPC   H8X20422   1.727   3.596   3.880  1.1136  3.6165  1.1419
  179SLPC   H8Y20423   1.896   3.656   3.891 -0.3873 -0.0857  2.5276
  179SLPC   C3920424   1.871   3.433   3.878 -0.5797 -0.5398  0.2586
  179SLPC   H9X20425   1.948   3.407   3.804 -1.5407  1.4874 -1.5670
  179SLPC   H9Y20426   1.787   3.360   3.875  1.9976 -3.7284  0.5248
  179SLPC  C31020427   1.933   3.434   4.020 -0.3634  0.5321 -1.0318
  179SLPC  H10X20428   1.868   3.495   4.086  1.3430 -0.3715  1.6400
  179SLPC  H10Y20429   2.033   3.482   4.017  0.4391 -1.0260 -0.5572
  179SLPC  C31120430   1.932   3.287   4.069 -0.1987 -0.8466 -0.4695
  179SLPC  H11X20431   2.016   3.238   4.014  0.3076  1.2883 -1.7215
  179SLPC  H11Y20432   1.836   3.237   4.044 -1.3624  1.5926 -1.1145
  179SLPC  C31220433   1.967   3.269   4.221  0.3685 -0.0007  0.2548
  179SLPC  H12X20434   2.055   3.335   4.238  0.7883 -0.0974 -1.4254
  179SLPC  H12Y20435   1.999   3.167   4.249 -0.9912 -0.3174  0.7530
  179SLPC  C31320436   1.854   3.301   4.329 -0.1168 -0.1957  0.5574
  179SLPC  H13X20437   1.760   3.257   4.291 -1.0022 -0.1618  2.5587
  179SLPC  H13Y20438   1.849   3.411   4.326  0.8761 -0.0908  1.6073
  179SLPC  C31420439   1.903   3.263   4.471 -0.1619 -0.2914  0.5331
  179SLPC  H14X20440   1.924   3.156   4.489 -0.6190  0.1820  5.0570
  179SLPC  H14Y20441   1.820   3.281   4.543  0.6342 -0.8393  1.6202
  179SLPC  C31520442   2.022   3.351   4.522  0.0545 -0.0707  0.3510
  179SLPC  H15X20443   1.987   3.455   4.541 -1.7261 -0.1204 -2.2042
  179SLPC  H15Y20444   2.111   3.346   4.456  0.2181 -1.4144  0.6466
  179SLPC  C31620445   2.067   3.297   4.659  0.2708 -0.2817 -0.9886
  179SLPC  H16X20446   2.026   3.198   4.690 -0.8423  0.3464 -0.4100
  179SLPC  H16Y20447   2.039   3.372   4.736 -1.8350 -3.3794  1.5697
  179SLPC  C31720448   2.222   3.286   4.689  0.1711 -0.4815  0.6337
  179SLPC  H17X20449   2.262   3.384   4.658  1.4549 -0.9683  0.6970
  179SLPC  H17Y20450   2.265   3.216   4.615 -1.7377  1.5856 -2.6791
  179SLPC  C31820451   2.249   3.232   4.829 -0.1164  0.2173  0.5865
  179SLPC  H18X20452   2.221   3.124   4.831  1.2312 -0.1755 -0.1691
  179SLPC  H18Y20453   2.202   3.287   4.913 -1.4164  0.7536 -0.4581
  179SLPC  H18Z20454   2.360   3.238   4.831  0.1119  0.1694 -3.3435
  180SLPC     N20455   2.354   3.304   2.984 -0.2212  0.0133  0.3636
  180SLPC   C1320456   2.428   3.434   2.946 -0.2022  0.2457 -0.2884
  180SLPC  H13A20457   2.369   3.479   2.867 -1.4864 -0.7051  0.1067
  180SLPC  H13B20458   2.428   3.506   3.026 -0.7148  1.9803 -1.7905
  180SLPC  H13C20459   2.532   3.425   2.916 -0.3621  0.0008 -0.7773
  180SLPC   C1420460   2.360   3.215   2.864 -0.3246 -0.2657  0.2226
  180SLPC  H14A20461   2.327   3.117   2.896  2.4167 -0.7703  1.8536
  180SLPC  H14B20462   2.306   3.252   2.778 -0.3443  0.1551  0.4165
  180SLPC  H14C20463   2.460   3.202   2.825 -0.9616 -0.9070 -1.2771
  180SLPC   C1520464   2.214   3.337   3.033 -0.0800 -0.3187 -0.9055
  180SLPC  H15A20465   2.155   3.386   2.957  0.8244  1.8042 -0.3147
  180SLPC  H15B20466   2.181   3.238   3.062  1.3302 -1.2059 -2.2077
  180SLPC  H15C20467   2.211   3.401   3.121  0.6153 -1.4070 -0.0605
  180SLPC   C1220468   2.429   3.247   3.101 -0.1931  0.3091 -0.0801
  180SLPC  H12A20469   2.432   3.317   3.183  1.3048 -1.2150  1.2550
  180SLPC  H12B20470   2.533   3.232   3.073 -0.7204 -0.9245 -1.5078
  180SLPC   C1120471   2.398   3.105   3.158 -0.0995  0.1784 -0.1537
  180SLPC  H11A20472   2.301   3.122   3.210  1.1943 -0.4459  2.6409
  180SLPC  H11B20473   2.475   3.088   3.235 -0.2282 -0.3553 -0.1422
  180SLPC     P20474   2.254   2.915   3.045  0.1481 -0.0260 -0.1546
  180SLPC   O1320475   2.137   2.996   3.066 -0.2564 -0.3126 -0.0840
  180SLPC   O1420476   2.270   2.852   2.914 -0.6746  0.3765  0.8501
  180SLPC   O1220477   2.387   3.002   3.061 -0.0141 -0.0488  0.0618
  180SLPC   O1120478   2.260   2.807   3.157 -0.2626  0.0437 -0.4071
  180SLPC    C120479   2.386   2.741   3.187  0.5916 -0.3678 -0.0470
  180SLPC    HA20480   2.372   2.634   3.162 -0.1065  0.0157 -1.4393
  180SLPC    HB20481   2.479   2.771   3.133  1.7198 -2.5882  0.5534
  180SLPC    C220482   2.416   2.748   3.337  0.0775  0.2212  0.1410
  180SLPC    HS20483   2.353   2.670   3.386 -0.7393 -0.7440 -2.2972
  180SLPC   O2120484   2.404   2.879   3.393  0.0705  0.2671 -0.3853
  180SLPC   C2120485   2.386   2.886   3.524  0.5723 -0.4079  0.4183
  180SLPC   O2220486   2.356   2.789   3.595  0.1814  0.5550  0.4712
  180SLPC   C2220487   2.383   3.029   3.580 -0.3088  0.0131 -0.8896
  180SLPC   H2R20488   2.483   3.055   3.621 -1.0063 -0.1895  1.0606
  180SLPC   H2S20489   2.346   3.092   3.496  1.2074 -2.0203 -3.1731
  180SLPC    C320490   2.555   2.695   3.356 -0.3032 -0.3135 -0.3462
  180SLPC    HX20491   2.635   2.767   3.326 -2.2087  3.3020  2.4831
  180SLPC    HY20492   2.562   2.608   3.288 -0.7785  0.0428 -0.8579
  180SLPC   O3120493   2.576   2.657   3.498  0.6231  0.1001  0.1742
  180SLPC   C3120494   2.535   2.532   3.535  0.7007 -0.3693  0.1666
  180SLPC   O3220495   2.493   2.449   3.458  0.0181  0.0501 -0.2607
  180SLPC   C3220496   2.566   2.521   3.683 -0.2813 -0.5512 -0.0088
  180SLPC   H2X20497   2.484   2.560   3.747  0.6826 -1.3352  1.7687
  180SLPC   H2Y20498   2.667   2.565   3.702 -1.6176  2.1720  1.3069
  180SLPC   C2320499   2.283   3.024   3.697  0.5525  0.0628  0.1105
  180SLPC   H3R20500   2.305   2.946   3.773 -1.7193 -0.8962 -0.1652
  180SLPC   H3S20501   2.181   3.000   3.660 -1.1744 -0.2399  4.5398
  180SLPC   C2420502   2.257   3.165   3.759  0.2511  0.1227 -0.2718
  180SLPC   H4R20503   2.176   3.159   3.835 -1.5593 -1.2562 -2.1842
  180SLPC   H4S20504   2.219   3.234   3.681 -2.8881  1.1368  1.9302
  180SLPC   C2520505   2.379   3.224   3.816 -0.2423 -0.5702 -0.8132
  180SLPC   H5R20506   2.344   3.318   3.864  0.2493 -0.9588  0.3433
  180SLPC   H5S20507   2.455   3.255   3.741 -1.2194  0.3060 -1.4636
  180SLPC   C2620508   2.425   3.143   3.940 -0.2542 -0.4063 -0.4550
  180SLPC   H6R20509   2.455   3.046   3.894 -0.0180 -0.3045 -0.5154
  180SLPC   H6S20510   2.339   3.126   4.009 -0.4599 -3.8587 -1.3757
  180SLPC   C2720511   2.544   3.196   4.018 -0.0731 -0.5829  0.0537
  180SLPC   H7R20512   2.629   3.211   3.948  0.0772  3.0515  0.7995
  180SLPC   H7S20513   2.585   3.119   4.086  2.1669  0.3869 -0.1235
  180SLPC   C2820514   2.514   3.318   4.104 -0.4860  0.8880  0.0128
  180SLPC   H8R20515   2.490   3.404   4.037 -0.2396  1.8482  1.1341
  180SLPC   H8S20516   2.602   3.354   4.160 -2.9666  2.6483  3.0935
  180SLPC   C2920517   2.404   3.304   4.203  0.5421 -0.2187  0.0622
  180SLPC   H9R20518   2.314   3.252   4.166  2.3790 -3.3153 -0.4476
  180SLPC  C21020519   2.412   3.328   4.334 -0.0235  0.4069  0.1742
  180SLPC  H10R20520   2.329   3.316   4.405  1.0939 -1.9456  1.2093
  180SLPC  C21120521   2.539   3.366   4.408  0.5326  0.1068 -0.5502
  180SLPC  H11R20522   2.630   3.327   4.357  1.4682  1.1024  0.3221
  180SLPC  H11S20523   2.530   3.305   4.500  0.0059  1.8397  0.5896
  180SLPC  C21220524   2.561   3.497   4.460  0.3253 -0.4129 -0.3689
  180SLPC  H12R20525   2.553   3.573   4.382  0.9997  1.1000  0.9769
  180SLPC  C21320526   2.605   3.535   4.584  0.0963 -0.6363  0.1652
  180SLPC  H13R20527   2.627   3.642   4.594  1.8310 -1.1094  1.9976
  180SLPC  C21420528   2.625   3.443   4.694 -0.1713  0.2248  0.0558
  180SLPC  H14R20529   2.673   3.344   4.680  0.9969  0.8761 -0.7018
  180SLPC  H14S20530   2.525   3.404   4.723 -0.8048  0.2892 -1.9084
  180SLPC  C21520531   2.700   3.509   4.816 -0.3894  0.5159  0.2916
  180SLPC  H15R20532   2.805   3.521   4.781 -0.9998  0.6167 -1.6394
  180SLPC  H15S20533   2.709   3.433   4.897  2.5838 -0.4369 -0.7607
  180SLPC  C21620534   2.647   3.648   4.859 -0.3033 -0.0411 -0.1039
  180SLPC  H16R20535   2.544   3.659   4.818  0.4500  2.4032 -1.5339
  180SLPC  H16S20536   2.704   3.729   4.809 -0.9430  0.3361 -0.2329
  180SLPC  C21720537   2.647   3.675   5.011 -0.7585  0.2085  0.4193
  180SLPC  H17R20538   2.752   3.665   5.046 -0.4245  1.2814 -0.2579
  180SLPC  H17S20539   2.590   3.591   5.057  0.0966  1.0632  3.2361
  180SLPC  C21820540   2.595   3.809   5.060  0.1384 -0.4677  0.0187
  180SLPC  H18R20541   2.582   3.805   5.171  0.9423  2.1450  0.2774
  180SLPC  H18S20542   2.495   3.840   5.024  0.9677  1.8725 -0.4458
  180SLPC  H18T20543   2.659   3.893   5.027 -2.1482  0.6720 -1.7575
  180SLPC   C3320544   2.581   2.371   3.719  0.2903 -0.4772 -0.6667
  180SLPC   H3X20545   2.679   2.330   3.684  0.3245  0.3020 -1.5210
  180SLPC   H3Y20546   2.501   2.313   3.668 -1.8442  1.3924  0.4083
  180SLPC   C3420547   2.563   2.341   3.874 -0.7764 -0.2956 -0.0078
  180SLPC   H4X20548   2.604   2.244   3.911  0.2979  0.5847  1.1951
  180SLPC   H4Y20549   2.457   2.354   3.906 -1.0771 -0.2063 -1.0290
  180SLPC   C3520550   2.628   2.450   3.967  0.8159  0.5783  0.4629
  180SLPC   H5X20551   2.603   2.552   3.930  0.4806  0.6719  0.9382
  180SLPC   H5Y20552   2.737   2.431   3.953  0.4539 -3.8178  1.9518
  180SLPC   C3620553   2.587   2.436   4.121 -0.2234 -0.0459  0.5590
  180SLPC   H6X20554   2.624   2.340   4.161  2.1745  0.6630  0.2028
  180SLPC   H6Y20555   2.478   2.433   4.141 -0.5714 -1.2018 -1.2339
  180SLPC   C3720556   2.648   2.554   4.198  0.4736 -0.2520 -0.4969
  180SLPC   H7X20557   2.602   2.649   4.164  0.6952 -0.0483 -0.2306
  180SLPC   H7Y20558   2.758   2.559   4.183  0.7885 -1.5904  1.0989
  180SLPC   C3820559   2.609   2.545   4.353 -0.0429  0.1495  0.5079
  180SLPC   H8X20560   2.667   2.458   4.391  1.0868  0.8329  0.4153
  180SLPC   H8Y20561   2.501   2.522   4.361  0.0373 -0.4848 -0.0998
  180SLPC   C3920562   2.652   2.666   4.438  0.8033  0.0739 -0.1076
  180SLPC   H9X20563   2.613   2.751   4.378  1.5237  1.7713  1.7377
  180SLPC   H9Y20564   2.763   2.666   4.445  0.8135 -0.2931 -0.2658
  180SLPC  C31020565   2.608   2.654   4.585 -0.7886 -0.4524  0.2032
  180SLPC  H10X20566   2.624   2.545   4.605 -1.4054 -1.1823 -2.8128
  180SLPC  H10Y20567   2.501   2.681   4.601  0.2920  3.7802  1.6148
  180SLPC  C31120568   2.691   2.751   4.680  0.5046 -0.0159 -0.1753
  180SLPC  H11X20569   2.672   2.854   4.643  0.4689  0.3204  0.7647
  180SLPC  H11Y20570   2.800   2.747   4.656  0.3649  0.0275 -0.8461
  180SLPC  C31220571   2.677   2.729   4.827  0.2849  0.2511 -0.9654
  180SLPC  H12X20572   2.760   2.783   4.877  0.4165 -1.0395  0.2751
  180SLPC  H12Y20573   2.680   2.620   4.847 -2.1745 -0.0185 -1.7444
  180SLPC  C31320574   2.546   2.775   4.893  0.0876  0.2560 -0.0024
  180SLPC  H13X20575   2.454   2.767   4.833 -0.6292 -0.0666  1.1096
  180SLPC  H13Y20576   2.548   2.881   4.928 -2.5702  0.6417 -0.8099
  180SLPC  C31420577   2.515   2.699   5.024 -0.3569 -0.1199 -0.5875
  180SLPC  H14X20578   2.603   2.710   5.090 -1.4669 -1.5708  1.2282
  180SLPC  H14Y20579   2.516   2.591   4.995 -3.6561 -0.2532 -0.5933
  180SLPC  C31520580   2.382   2.733   5.076 -0.0350  0.1328  0.1262
  180SLPC  H15X20581   2.351   2.674   5.166 -2.3396 -0.1157 -0.7454
  180SLPC  H15Y20582   2.304   2.721   4.998 -0.2911  0.9437  0.2502
  180SLPC  C31620583   2.362   2.873   5.126 -0.0802 -0.0551 -0.5524
  180SLPC  H16X20584   2.396   2.958   5.063 -0.6831  2.5360  2.3639
  180SLPC  H16Y20585   2.428   2.870   5.215  0.9912  1.5083 -1.2594
  180SLPC  C31720586   2.210   2.906   5.162  0.4267 -0.0028  1.1011
  180SLPC  H17X20587   2.173   2.843   5.245  0.0438  1.1734  1.8550
  180SLPC  H17Y20588   2.151   2.885   5.070 -0.2462 -0.0227  1.5332
  180SLPC  C31820589   2.192   3.050   5.216  0.3244  0.2457 -0.4915
  180SLPC  H18X20590   2.284   3.084   5.268 -0.3983  1.8273 -0.1995
  180SLPC  H18Y20591   2.111   3.042   5.291  1.0031 -1.0206  0.1340
  180SLPC  H18Z20592   2.164   3.112   5.128 -1.2772  0.9458  0.4790
  181SLPC     N20593   1.897   3.965   2.889 -0.0908  0.2934 -0.2448
  181SLPC   C1320594   1.800   4.075   2.918  0.0665  0.4353  0.1627
  181SLPC  H13A20595   1.824   4.116   3.015 -0.8910  1.2777  0.0556
  181SLPC  H13B20596   1.823   4.144   2.839  4.1130 -0.2754  0.5030
  181SLPC  H13C20597   1.699   4.039   2.903  0.2569  0.2846 -0.8509
  181SLPC   C1420598   2.033   4.029   2.891 -0.3456 -0.1268 -0.1511
  181SLPC  H14A20599   2.050   4.048   2.996  1.1501  0.7543 -0.5209
  181SLPC  H14B20600   2.110   3.963   2.855 -1.1283 -0.7632 -0.7046
  181SLPC  H14C20601   2.028   4.124   2.840 -1.6130 -0.2090 -0.2086
  181SLPC   C1520602   1.874   3.922   2.746 -0.8894 -0.9144  0.7519
  181SLPC  H15A20603   1.869   4.001   2.673  0.8526 -0.5591  0.9933
  181SLPC  H15B20604   1.951   3.859   2.704  2.2996  4.2295 -2.0694
  181SLPC  H15C20605   1.784   3.864   2.733 -1.8601  0.9940 -1.9397
  181SLPC   C1220606   1.905   3.850   2.987 -0.7204  0.1436 -0.4220
  181SLPC  H12A20607   1.966   3.769   2.948 -1.7449 -2.1515  2.3703
  181SLPC  H12B20608   1.815   3.796   3.012 -1.0027  1.3651  1.4180
  181SLPC   C1120609   1.960   3.878   3.130  0.2657 -0.0775 -0.4983
  181SLPC  H11A20610   1.932   3.796   3.200 -0.7137  0.1150 -0.6442
  181SLPC  H11B20611   1.898   3.961   3.171 -2.7438 -1.3344 -2.2161
  181SLPC     P20612   2.196   3.795   3.149  0.0075  0.3667  0.0429
  181SLPC   O1320613   2.163   3.684   3.052  0.4009 -0.3005 -0.5515
  181SLPC   O1420614   2.336   3.832   3.144  0.2886  0.0249 -0.1077
  181SLPC   O1220615   2.100   3.910   3.137  0.6003  0.4333 -0.1234
  181SLPC   O1120616   2.153   3.756   3.297 -0.8082 -0.1679  0.0350
  181SLPC    C120617   2.168   3.850   3.402 -0.0575  0.2655 -0.1430
  181SLPC    HA20618   2.129   3.951   3.377 -2.6815 -0.9055 -1.1934
  181SLPC    HB20619   2.105   3.812   3.485  0.3636 -1.3465 -0.5229
  181SLPC    C220620   2.315   3.843   3.462 -0.3398 -0.1038  0.2490
  181SLPC    HS20621   2.370   3.782   3.388 -1.0423 -0.2238 -0.1854
  181SLPC   O2120622   2.300   3.768   3.582  0.0529  0.1469 -0.9563
  181SLPC   C2120623   2.405   3.715   3.637 -0.3834  0.1687  0.0032
  181SLPC   O2220624   2.521   3.728   3.597 -0.3635  0.2682  0.0006
  181SLPC   C2220625   2.370   3.644   3.767 -0.5669  0.4647 -0.4732
  181SLPC   H2R20626   2.270   3.601   3.745 -0.1883 -0.5810 -0.1832
  181SLPC   H2S20627   2.440   3.561   3.788  0.6809  1.2332 -1.4576
  181SLPC    C320628   2.376   3.987   3.486 -0.7189 -0.1713  0.1973
  181SLPC    HX20629   2.374   4.035   3.386 -0.1783 -1.8017 -0.6383
  181SLPC    HY20630   2.479   3.976   3.526 -0.9547 -1.1443  0.5772
  181SLPC   O3120631   2.310   4.060   3.585 -0.2843 -0.0775  0.7178
  181SLPC   C3120632   2.221   4.153   3.565 -0.0621 -0.2604  0.3112
  181SLPC   O3220633   2.180   4.197   3.460  0.7947  0.6355  0.5815
  181SLPC   C3220634   2.189   4.214   3.705 -0.3512  0.3935 -0.1404
  181SLPC   H2X20635   2.145   4.313   3.681 -1.7983  0.1294  1.2308
  181SLPC   H2Y20636   2.287   4.225   3.755  1.3709 -2.1770 -2.5604
  181SLPC   C2320637   2.349   3.737   3.891  0.6779 -0.0433 -1.0308
  181SLPC   H3R20638   2.269   3.812   3.873  0.9901  1.0284  1.5584
  181SLPC   H3S20639   2.438   3.801   3.906 -0.2623  1.0720  0.0082
  181SLPC   C2420640   2.295   3.663   4.017  0.0776 -0.0089 -0.5444
  181SLPC   H4R20641   2.361   3.576   4.037 -1.6748 -1.7674 -1.9532
  181SLPC   H4S20642   2.202   3.610   3.985  0.8077 -2.1313  0.6589
  181SLPC   C2520643   2.285   3.748   4.143  0.2343 -0.2914  0.0400
  181SLPC   H5R20644   2.202   3.819   4.127 -0.2585 -0.9660 -0.4577
  181SLPC   H5S20645   2.382   3.800   4.159  0.0351 -0.1751  0.9020
  181SLPC   C2620646   2.249   3.666   4.274 -0.1170 -0.5516  0.4222
  181SLPC   H6R20647   2.310   3.572   4.272 -2.5935 -2.2420 -0.4661
  181SLPC   H6S20648   2.144   3.635   4.260  0.1923 -0.7449 -1.8247
  181SLPC   C2720649   2.272   3.759   4.399  0.0760  0.3040  0.5056
  181SLPC   H7R20650   2.209   3.850   4.389 -0.8902 -0.3391  0.5983
  181SLPC   H7S20651   2.378   3.791   4.394  0.4701 -1.1761 -2.0305
  181SLPC   C2820652   2.239   3.684   4.535 -0.2498  0.4379  1.0107
  181SLPC   H8R20653   2.297   3.588   4.535 -0.6612  0.1877  1.0449
  181SLPC   H8S20654   2.130   3.668   4.530 -0.0374 -1.6263  1.7435
  181SLPC   C2920655   2.264   3.764   4.653  0.4412 -0.3752  0.2662
  181SLPC   H9R20656   2.362   3.814   4.661  0.0229  0.7471 -1.0381
  181SLPC  C21020657   2.189   3.771   4.766  0.0605 -0.0982  0.4044
  181SLPC  H10R20658   2.240   3.824   4.848  1.6061 -0.6367 -0.1689
  181SLPC  C21120659   2.058   3.703   4.786  0.8332  0.1404  0.1214
  181SLPC  H11R20660   2.043   3.620   4.713  0.4544  1.2923 -1.1445
  181SLPC  H11S20661   1.977   3.776   4.769 -0.1972 -1.0671 -0.3307
  181SLPC  C21220662   2.038   3.654   4.933  0.2761 -0.6319 -0.3698
  181SLPC  H12R20663   2.129   3.622   4.985  1.7235 -0.1278 -2.4635
  181SLPC  C21320664   1.923   3.637   4.995 -0.3422  0.3474 -0.2379
  181SLPC  H13R20665   1.928   3.583   5.091 -3.0607  0.5340  0.0818
  181SLPC  C21420666   1.785   3.670   4.944 -0.4444 -0.0875 -0.5781
  181SLPC  H14R20667   1.792   3.740   4.858  3.3504  0.6076  0.1069
  181SLPC  H14S20668   1.735   3.706   5.037 -1.3307  0.0102 -1.0833
  181SLPC  C21520669   1.714   3.546   4.888 -0.1884  0.5138 -0.4530
  181SLPC  H15R20670   1.701   3.472   4.970  2.1336  0.6971  0.1273
  181SLPC  H15S20671   1.775   3.507   4.804  1.6104  0.5080  0.7948
  181SLPC  C21620672   1.572   3.581   4.835 -0.2099 -0.4805 -0.3104
  181SLPC  H16R20673   1.582   3.660   4.758 -0.4236 -1.8853 -1.8546
  181SLPC  H16S20674   1.498   3.614   4.911  1.2228  2.0707  0.0935
  181SLPC  C21720675   1.524   3.457   4.761 -0.5384 -0.2182 -0.3052
  181SLPC  H17R20676   1.532   3.360   4.815  1.7700 -0.0740 -0.2811
  181SLPC  H17S20677   1.587   3.445   4.671 -1.7362  0.2395 -1.2164
  181SLPC  C21820678   1.383   3.473   4.717  0.3067 -0.0205  0.2154
  181SLPC  H18R20679   1.377   3.554   4.640 -1.4781 -1.8804 -1.7354
  181SLPC  H18S20680   1.313   3.476   4.803  2.7432  0.4599  2.3120
  181SLPC  H18T20681   1.361   3.375   4.670 -0.7529 -0.7155  2.0469
  181SLPC   C3320682   2.089   4.123   3.780 -0.5798  0.1877 -0.4346
  181SLPC   H3X20683   2.118   4.016   3.774 -0.9542  0.1477 -3.1656
  181SLPC   H3Y20684   1.988   4.135   3.735 -1.5346 -1.1297  1.2737
  181SLPC   C3420685   2.060   4.171   3.923 -0.2930 -0.2424 -0.3953
  181SLPC   H4X20686   2.050   4.280   3.907 -2.6317 -0.5493 -1.4496
  181SLPC   H4Y20687   2.147   4.139   3.984  1.1331  1.1147 -1.6447
  181SLPC   C3520688   1.928   4.132   3.984  0.7393  0.2913 -0.1262
  181SLPC   H5X20689   1.936   4.022   3.999  1.4105 -0.2791 -3.8460
  181SLPC   H5Y20690   1.840   4.155   3.921  0.4438  1.5015  0.6769
  181SLPC   C3620691   1.905   4.192   4.123 -0.5246 -0.2938 -0.3240
  181SLPC   H6X20692   1.805   4.165   4.164 -0.5753  2.3060  1.4319
  181SLPC   H6Y20693   1.902   4.302   4.112  3.1944  0.1014  1.1295
  181SLPC   C3720694   2.005   4.166   4.223  0.0883  1.3722  0.2141
  181SLPC   H7X20695   2.109   4.200   4.207  1.1580 -1.4216  0.6074
  181SLPC   H7Y20696   2.016   4.055   4.222 -1.0023  1.2286  1.0588
  181SLPC   C3820697   1.963   4.215   4.362  0.3311  0.2836 -0.4557
  181SLPC   H8X20698   1.869   4.159   4.385 -0.6860  2.0194 -0.1996
  181SLPC   H8Y20699   1.949   4.323   4.382  1.0772 -0.0336  2.1675
  181SLPC   C3920700   2.068   4.183   4.473 -0.8129  0.8905  0.3229
  181SLPC   H9X20701   2.160   4.240   4.446 -1.3653  1.1095 -1.1634
  181SLPC   H9Y20702   2.091   4.075   4.456 -2.3786  0.9195 -2.3670
  181SLPC  C31020703   2.020   4.198   4.617 -0.1813 -0.3598  0.4097
  181SLPC  H10X20704   1.948   4.123   4.656 -0.0699 -0.0547  1.2027
  181SLPC  H10Y20705   1.987   4.304   4.623 -1.5075 -0.6383 -1.1479
  181SLPC  C31120706   2.139   4.205   4.715  0.0291  1.0677 -0.2162
  181SLPC  H11X20707   2.209   4.289   4.702  0.8954  0.3337 -0.3746
  181SLPC  H11Y20708   2.193   4.111   4.689 -1.9962  0.0394 -0.9116
  181SLPC  C31220709   2.082   4.191   4.858 -0.6837  0.4105 -0.1037
  181SLPC  H12X20710   2.006   4.109   4.854 -2.1447  1.6644  0.9289
  181SLPC  H12Y20711   2.038   4.284   4.900  0.7739  0.9641  0.2422
  181SLPC  C31320712   2.191   4.141   4.954 -0.1219  0.3399  0.7874
  181SLPC  H13X20713   2.277   4.195   4.909 -0.8666  1.2869  0.4855
  181SLPC  H13Y20714   2.194   4.030   4.941 -1.9072  0.1717  1.5221
  181SLPC  C31420715   2.164   4.175   5.104 -0.2338  0.4060  0.0449
  181SLPC  H14X20716   2.151   4.286   5.104  1.4107  0.6399 -0.7498
  181SLPC  H14Y20717   2.251   4.157   5.171 -0.5781 -1.1976  0.1014
  181SLPC  C31520718   2.037   4.107   5.163  0.1601  0.1825 -0.5308
  181SLPC  H15X20719   1.951   4.133   5.098 -0.1043  0.5136 -0.0629
  181SLPC  H15Y20720   2.029   4.162   5.260  1.5605  2.3607 -1.5767
  181SLPC  C31620721   2.038   3.958   5.187  0.0778  0.8056 -0.6285
  181SLPC  H16X20722   2.136   3.930   5.232  0.0689  4.0423  1.7303
  181SLPC  H16Y20723   2.013   3.910   5.090 -4.3197 -2.2976  1.6840
  181SLPC  C31720724   1.917   3.919   5.276  0.5375 -0.3520  0.2613
  181SLPC  H17X20725   1.903   3.809   5.271  0.1300 -0.3164  0.5411
  181SLPC  H17Y20726   1.824   3.965   5.237 -0.0547 -1.5177  0.2707
  181SLPC  C31820727   1.925   3.948   5.425  0.8527  0.4188  0.3462
  181SLPC  H18X20728   2.024   3.920   5.465  1.1649  1.3783  0.2737
  181SLPC  H18Y20729   1.842   3.900   5.482  0.4844  0.1005 -0.4499
  181SLPC  H18Z20730   1.914   4.059   5.433  0.8511  0.6034 -1.7125
  182SLPC     N20731   4.322   6.927   2.866 -0.0431 -0.3283 -0.1641
  182SLPC   C1320732   4.216   6.929   2.753 -0.8908  0.1798 -0.4874
  182SLPC  H13A20733   4.116   6.952   2.786 -1.0745  0.0641 -0.9456
  182SLPC  H13B20734   4.237   7.007   2.682  0.5105 -1.7182 -2.2646
  182SLPC  H13C20735   4.222   6.837   2.696 -1.0161 -0.6927  0.8514
  182SLPC   C1420736   4.335   7.063   2.933  0.1465 -0.0098  0.3913
  182SLPC  H14A20737   4.240   7.070   2.984  0.0312  0.7556  0.0830
  182SLPC  H14B20738   4.422   7.058   2.997  1.1702  0.2506 -0.9342
  182SLPC  H14C20739   4.347   7.144   2.864 -1.2399  1.7989  2.1732
  182SLPC   C1520740   4.454   6.905   2.795  0.4788  0.4683  0.7719
  182SLPC  H15A20741   4.459   6.800   2.770 -1.1743  0.4377  0.4558
  182SLPC  H15B20742   4.455   6.953   2.699  0.0908 -0.4809  0.2823
  182SLPC  H15C20743   4.537   6.940   2.856  1.0885  1.1559 -0.4138
  182SLPC   C1220744   4.290   6.820   2.967 -0.0076 -0.4651  0.0300
  182SLPC  H12A20745   4.352   6.835   3.054 -1.3734  0.3181  0.8867
  182SLPC  H12B20746   4.323   6.723   2.931 -1.1637 -1.8127  2.3640
  182SLPC   C1120747   4.150   6.815   3.024  0.0014 -0.3946  0.4536
  182SLPC  H11A20748   4.147   6.732   3.097  1.1319  0.3733  1.4089
  182SLPC  H11B20749   4.066   6.781   2.960  0.8508 -3.1685  0.6849
  182SLPC     P20750   4.123   6.958   3.244  0.3218  0.0397 -0.4378
  182SLPC   O1320751   4.259   7.004   3.285  0.1494  0.3273  0.0309
  182SLPC   O1420752   4.017   7.054   3.276 -0.9113  0.3590  0.9899
  182SLPC   O1220753   4.125   6.938   3.088 -1.0466  0.0178  0.1547
  182SLPC   O1120754   4.089   6.822   3.315  0.0114  0.3050  0.3047
  182SLPC    C120755   4.084   6.818   3.458  0.0856  0.8141 -0.0297
  182SLPC    HA20756   4.114   6.719   3.499 -1.8708  0.7489  1.3941
  182SLPC    HB20757   4.165   6.879   3.501  1.1369  1.3989 -2.6723
  182SLPC    C220758   3.949   6.827   3.515 -0.1777 -0.0579 -0.2315
  182SLPC    HS20759   3.870   6.783   3.450 -0.2570  0.7211 -0.6812
  182SLPC   O2120760   3.920   6.968   3.537  0.0162  0.8699 -0.4166
  182SLPC   C2120761   3.795   6.989   3.558  0.5027 -0.4948 -0.3461
  182SLPC   O2220762   3.705   6.904   3.560 -0.3400 -0.1740  0.0772
  182SLPC   C2220763   3.768   7.142   3.568 -0.1292  0.0613 -0.0523
  182SLPC   H2R20764   3.863   7.198   3.585  0.1415 -0.2015 -0.6580
  182SLPC   H2S20765   3.736   7.173   3.466 -0.0588  0.1140 -0.0588
  182SLPC    C320766   3.942   6.745   3.650 -0.2376  0.1353  0.1532
  182SLPC    HX20767   3.928   6.638   3.626  0.3584 -0.0328  0.5347
  182SLPC    HY20768   3.851   6.779   3.706  1.0745  1.6599  1.4623
  182SLPC   O3120769   4.056   6.755   3.737 -0.7885  0.3070  0.2039
  182SLPC   C3120770   4.052   6.847   3.843 -0.2752 -0.2300  0.8015
  182SLPC   O3220771   3.956   6.901   3.888  0.1700 -0.0155 -0.4822
  182SLPC   C3220772   4.193   6.865   3.894 -0.3858  0.5832  0.1141
  182SLPC   H2X20773   4.251   6.904   3.808  0.0549 -0.3901 -0.0444
  182SLPC   H2Y20774   4.238   6.766   3.918 -1.2200 -0.1214 -1.1384
  182SLPC   C2320775   3.650   7.177   3.665 -0.5870 -0.0957  0.6722
  182SLPC   H3R20776   3.569   7.101   3.658 -0.0145 -0.7326  0.9121
  182SLPC   H3S20777   3.628   7.283   3.642  1.6152  0.1872 -0.4269
  182SLPC   C2420778   3.696   7.185   3.810  0.4119 -0.0426  0.4614
  182SLPC   H4R20779   3.770   7.267   3.824 -1.4142  1.6183  0.7071
  182SLPC   H4S20780   3.750   7.091   3.835  1.0097 -0.0854 -0.9396
  182SLPC   C2520781   3.584   7.196   3.918  0.1878 -0.7290 -0.0666
  182SLPC   H5R20782   3.512   7.115   3.894 -1.3731  0.3118  0.9674
  182SLPC   H5S20783   3.532   7.294   3.908  2.2165  0.2634 -1.6615
  182SLPC   C2620784   3.632   7.175   4.057  0.4347 -0.1641  0.1115
  182SLPC   H6R20785   3.714   7.246   4.078  1.5933 -1.1497 -0.9326
  182SLPC   H6S20786   3.682   7.076   4.053  1.8164  0.5487 -1.5252
  182SLPC   C2720787   3.525   7.166   4.169  0.4298 -0.3346  0.7531
  182SLPC   H7R20788   3.473   7.069   4.152  0.8897 -0.8278  2.0483
  182SLPC   H7S20789   3.453   7.251   4.171 -2.1228 -2.3267 -0.5465
  182SLPC   C2820790   3.599   7.167   4.306 -0.0472 -0.9411  0.2945
  182SLPC   H8R20791   3.528   7.150   4.389  0.8647  1.6195  1.6913
  182SLPC   H8S20792   3.664   7.256   4.316 -0.4768  0.0222 -3.7992
  182SLPC   C2920793   3.696   7.052   4.320 -0.0822  0.2864 -0.6188
  182SLPC   H9R20794   3.736   7.015   4.224 -2.1068 -0.9733 -1.0482
  182SLPC  C21020795   3.715   6.990   4.434 -0.4341 -0.2639  0.0742
  182SLPC  H10R20796   3.783   6.904   4.425 -0.2127 -0.0216 -0.6046
  182SLPC  C21120797   3.663   7.016   4.573  0.1422 -1.0585 -0.9346
  182SLPC  H11R20798   3.703   6.935   4.637  1.0267  0.5413  0.6166
  182SLPC  H11S20799   3.554   6.997   4.579 -0.9096  3.9460  0.1354
  182SLPC  C21220800   3.671   7.153   4.637  0.1762 -0.5060 -0.0450
  182SLPC  H12R20801   3.602   7.228   4.597  2.5453  1.3939 -0.8390
  182SLPC  C21320802   3.745   7.187   4.742  0.5975 -0.6473 -0.0166
  182SLPC  H13R20803   3.748   7.291   4.778  1.3117 -0.7736  0.3018
  182SLPC  C21420804   3.846   7.106   4.820  0.3684 -0.3140  0.0117
  182SLPC  H14R20805   3.941   7.162   4.835 -0.2917  1.0682 -0.7983
  182SLPC  H14S20806   3.874   7.024   4.750 -0.2658  0.3398 -1.0297
  182SLPC  C21520807   3.778   7.057   4.956  0.4750 -0.3628 -0.5680
  182SLPC  H15R20808   3.833   6.972   5.002 -0.6816 -0.8333 -0.0024
  182SLPC  H15S20809   3.676   7.015   4.943 -0.7851  1.3682  2.4657
  182SLPC  C21620810   3.778   7.173   5.062  0.2568  0.0707 -0.1922
  182SLPC  H16R20811   3.712   7.257   5.031 -0.5416 -0.3648  0.2992
  182SLPC  H16S20812   3.881   7.211   5.083  0.1792  0.0863  0.1689
  182SLPC  C21720813   3.735   7.132   5.210  0.0680 -0.3283 -0.4002
  182SLPC  H17R20814   3.773   7.221   5.265  0.8241 -0.7264 -0.2742
  182SLPC  H17S20815   3.794   7.041   5.234 -0.2612 -0.3647  0.2878
  182SLPC  C21820816   3.585   7.111   5.236 -1.2220 -0.3798 -0.2248
  182SLPC  H18R20817   3.523   7.194   5.198  0.2275  0.1716 -1.4562
  182SLPC  H18S20818   3.564   7.089   5.343  0.4534  1.6157  0.5920
  182SLPC  H18T20819   3.547   7.032   5.168 -0.6502  0.3202 -1.3792
  182SLPC   C3320820   4.222   6.955   4.014 -0.8708 -0.5760  0.4493
  182SLPC   H3X20821   4.212   6.905   4.113 -0.9134 -0.4652  0.5023
  182SLPC   H3Y20822   4.163   7.049   4.021  2.0613  1.3043  2.2464
  182SLPC   C3420823   4.367   7.015   4.010 -0.2726 -0.5375 -0.3451
  182SLPC   H4X20824   4.390   7.077   3.921 -0.4017 -0.9744 -0.6854
  182SLPC   H4Y20825   4.443   6.934   4.019  0.2802  0.1399  1.6964
  182SLPC   C3520826   4.386   7.101   4.135  0.5029  0.0315  0.5413
  182SLPC   H5X20827   4.410   7.041   4.226 -2.6858 -0.2941  1.3038
  182SLPC   H5Y20828   4.287   7.148   4.149  0.8546  1.1703 -0.6321
  182SLPC   C3620829   4.488   7.215   4.132 -0.2520 -0.1314  0.0080
  182SLPC   H6X20830   4.470   7.286   4.049 -1.3908 -0.7550 -0.3072
  182SLPC   H6Y20831   4.582   7.162   4.104 -0.1510  0.1272 -0.1405
  182SLPC   C3720832   4.499   7.290   4.269 -0.2049  0.4565  0.4394
  182SLPC   H7X20833   4.526   7.226   4.356  2.7638  1.3652  0.2675
  182SLPC   H7Y20834   4.394   7.327   4.264 -0.0054  0.8380 -1.2180
  182SLPC   C3820835   4.600   7.402   4.261  0.3162  0.3720 -0.4158
  182SLPC   H8X20836   4.589   7.461   4.167  0.5745  0.0998 -0.6195
  182SLPC   H8Y20837   4.705   7.367   4.267 -0.0116 -0.3983  1.3875
  182SLPC   C3920838   4.573   7.505   4.376  0.0547  0.1086 -0.2732
  182SLPC   H9X20839   4.465   7.532   4.379  0.4698  1.7760  0.9306
  182SLPC   H9Y20840   4.626   7.594   4.339  1.4657  0.0026  1.3661
  182SLPC  C31020841   4.609   7.450   4.516  0.1703  0.4843  0.0561
  182SLPC  H10X20842   4.718   7.426   4.511  0.4352  1.8457 -1.3626
  182SLPC  H10Y20843   4.555   7.357   4.544 -2.0834  0.0972 -4.5997
  182SLPC  C31120844   4.584   7.564   4.617 -0.3837 -0.5474 -0.6132
  182SLPC  H11X20845   4.478   7.571   4.650  0.5359 -0.6602  2.6586
  182SLPC  H11Y20846   4.607   7.660   4.566  0.4966  1.7246  3.6335
  182SLPC  C31220847   4.672   7.557   4.737 -0.4160  0.9212  0.5213
  182SLPC  H12X20848   4.775   7.550   4.696 -1.1621 -0.6101 -1.2230
  182SLPC  H12Y20849   4.655   7.457   4.783 -1.0503  1.3116  1.1471
  182SLPC  C31320850   4.663   7.672   4.835 -0.4239 -0.4681 -1.3786
  182SLPC  H13X20851   4.560   7.670   4.875  0.0577  2.0731  0.2233
  182SLPC  H13Y20852   4.679   7.757   4.765  1.6785 -1.4306 -2.1704
  182SLPC  C31420853   4.780   7.664   4.929  0.0602  0.2824 -0.5816
  182SLPC  H14X20854   4.873   7.669   4.869  0.3038 -0.7721 -0.3150
  182SLPC  H14Y20855   4.779   7.571   4.990  2.3400  0.8017  0.3472
  182SLPC  C31520856   4.791   7.784   5.023 -0.1554  0.6363  0.0916
  182SLPC  H15X20857   4.791   7.869   4.951  0.7044  0.1734 -0.4754
  182SLPC  H15Y20858   4.895   7.788   5.061 -0.8803  2.9316  2.0862
  182SLPC  C31620859   4.694   7.790   5.137  0.5138 -0.2663  0.1489
  182SLPC  H16X20860   4.601   7.837   5.098  1.4899  0.8312 -0.9462
  182SLPC  H16Y20861   4.734   7.864   5.210 -0.9833 -1.6676  2.5326
  182SLPC  C31720862   4.659   7.659   5.211 -0.8110  0.4339 -0.7776
  182SLPC  H17X20863   4.759   7.620   5.238  0.9173  4.2432 -1.0224
  182SLPC  H17Y20864   4.605   7.576   5.161  0.8901 -2.0423  1.2667
  182SLPC  C31820865   4.586   7.690   5.348 -0.5417 -0.1004  0.3130
  182SLPC  H18X20866   4.600   7.607   5.420 -1.0528 -0.7646 -0.3329
  182SLPC  H18Y20867   4.479   7.713   5.327  0.3057  3.6657 -0.6191
  182SLPC  H18Z20868   4.628   7.787   5.382 -1.5861  1.5877 -2.8010
  183SLPC     N20869   0.669   4.728   3.055  0.1315  0.2925  0.2436
  183SLPC   C1320870   0.707   4.590   3.069 -0.1031  0.0878  0.8950
  183SLPC  H13A20871   0.788   4.556   3.005 -0.0371  1.7638  0.0124
  183SLPC  H13B20872   0.734   4.566   3.170  1.7218 -1.8086  0.0262
  183SLPC  H13C20873   0.628   4.524   3.038 -0.6226  0.2712  1.7860
  183SLPC   C1420874   0.637   4.742   2.907 -0.1824 -0.4721 -0.5627
  183SLPC  H14A20875   0.599   4.839   2.878  1.5891  0.3400 -0.2647
  183SLPC  H14B20876   0.732   4.742   2.854  1.3453 -1.1211  2.0315
  183SLPC  H14C20877   0.576   4.660   2.870  0.8433 -1.3720 -0.3234
  183SLPC   C1520878   0.783   4.820   3.091  0.2153 -0.0936 -0.2488
  183SLPC  H15A20879   0.745   4.916   3.061  1.5918  0.9442  1.2412
  183SLPC  H15B20880   0.799   4.818   3.197  3.2940 -2.8576 -0.5732
  183SLPC  H15C20881   0.877   4.795   3.043  0.6132  0.2830  0.3302
  183SLPC   C1220882   0.546   4.754   3.128  0.3615  0.3365 -0.5291
  183SLPC  H12A20883   0.466   4.694   3.087 -1.7462  1.7422  1.2539
  183SLPC  H12B20884   0.498   4.849   3.109 -0.2386  0.4763  1.3795
  183SLPC   C1120885   0.542   4.732   3.289 -0.0191  0.0287  0.2417
  183SLPC  H11A20886   0.447   4.766   3.335  0.4851  0.7797  0.7425
  183SLPC  H11B20887   0.608   4.807   3.339 -1.7473  1.7375  0.0674
  183SLPC     P20888   0.490   4.466   3.304  0.0356 -0.0518  0.1083
  183SLPC   O1320889   0.411   4.501   3.187 -0.4637  0.3657 -0.2044
  183SLPC   O1420890   0.586   4.349   3.293  0.4626 -0.0804 -0.9106
  183SLPC   O1220891   0.586   4.595   3.331  1.0512 -0.5153 -0.3019
  183SLPC   O1120892   0.401   4.459   3.431 -0.2847 -0.0634  0.7135
  183SLPC    C120893   0.464   4.473   3.558  0.0528 -0.1153  0.6061
  183SLPC    HA20894   0.533   4.387   3.572 -0.1674 -0.4416 -0.2655
  183SLPC    HB20895   0.520   4.568   3.573 -1.1323  0.9876 -1.5467
  183SLPC    C220896   0.367   4.480   3.675  0.6497  0.0242 -0.2566
  183SLPC    HS20897   0.274   4.426   3.646 -0.0504  1.1033 -0.0594
  183SLPC   O2120898   0.340   4.615   3.714  0.6213 -0.1478 -0.1117
  183SLPC   C2120899   0.255   4.684   3.637 -0.2149  0.3541  0.1023
  183SLPC   O2220900   0.192   4.644   3.541 -0.7002 -0.5144 -0.3143
  183SLPC   C2220901   0.252   4.828   3.687  0.3273  0.1993  0.5744
  183SLPC   H2R20902   0.351   4.842   3.736  0.2695  0.1966  0.6939
  183SLPC   H2S20903   0.242   4.891   3.597 -1.2445 -0.9934 -0.1424
  183SLPC    C320904   0.420   4.403   3.806 -0.1867  0.2403 -0.8004
  183SLPC    HX20905   0.504   4.471   3.830 -0.8716  1.3471 -1.4590
  183SLPC    HY20906   0.460   4.302   3.783 -0.9769  0.0185 -1.2654
  183SLPC   O3120907   0.329   4.386   3.911 -0.3389 -0.5646 -0.3638
  183SLPC   C3120908   0.346   4.452   4.022 -0.0244  0.4802  0.0368
  183SLPC   O3220909   0.425   4.542   4.040 -0.2430 -0.1983  0.6823
  183SLPC   C3220910   0.253   4.387   4.123  0.2069  0.2618  0.1467
  183SLPC   H2X20911   0.285   4.281   4.129 -0.6382 -0.1547 -1.9598
  183SLPC   H2Y20912   0.150   4.381   4.083 -0.2832 -2.7663  1.5798
  183SLPC   C2320913   0.135   4.848   3.791 -0.4726 -0.2483  0.2827
  183SLPC   H3R20914   0.048   4.791   3.752  0.4442 -1.9414  0.5671
  183SLPC   H3S20915   0.111   4.956   3.789 -0.3493 -0.1878  1.6053
  183SLPC   C2420916   0.178   4.801   3.927  0.5089  0.4142 -0.9818
  183SLPC   H4R20917   0.274   4.843   3.963 -0.3539  1.6626 -0.0425
  183SLPC   H4S20918   0.182   4.690   3.922  1.4789  0.4335 -0.7182
  183SLPC   C2520919   0.060   4.830   4.032  0.1188  0.2476 -1.3205
  183SLPC   H5R20920  -0.037   4.812   3.983 -0.1101 -2.3125 -0.0952
  183SLPC   H5S20921   0.057   4.939   4.054  1.1168  0.2614 -1.1971
  183SLPC   C2620922   0.074   4.755   4.167 -0.3989  0.9469 -0.1054
  183SLPC   H6R20923   0.121   4.656   4.149 -2.4843 -0.1812  0.3529
  183SLPC   H6S20924  -0.029   4.721   4.188 -0.0835  0.5272  0.7894
  183SLPC   C2720925   0.138   4.827   4.282 -0.0420  0.3056  0.2116
  183SLPC   H7R20926   0.110   4.934   4.280 -1.8560 -0.1025  0.8892
  183SLPC   H7S20927   0.247   4.814   4.266 -0.4154 -0.5061 -2.1281
  183SLPC   C2820928   0.099   4.753   4.408  0.1316 -0.0591  0.2769
  183SLPC   H8R20929   0.105   4.644   4.390 -0.9961  0.3828 -3.6895
  183SLPC   H8S20930  -0.005   4.780   4.434  0.1996  2.3975 -1.5721
  183SLPC   C2920931   0.206   4.782   4.514 -0.1510  0.0458  0.5593
  183SLPC   H9R20932   0.291   4.712   4.525 -0.4494 -0.5214 -0.5676
  183SLPC  C21020933   0.180   4.857   4.620  0.0057 -0.4455 -0.3795
  183SLPC  H10R20934   0.263   4.876   4.690 -0.9645  1.1714  0.3938
  183SLPC  C21120935   0.050   4.945   4.636  0.9320 -0.4879  0.2337
  183SLPC  H11R20936  -0.014   4.910   4.720 -2.5693  2.2918 -1.0143
  183SLPC  H11S20937  -0.016   4.935   4.547 -0.9578  1.0251  1.3855
  183SLPC  C21220938   0.086   5.090   4.637  0.1106 -0.3984 -0.5161
  183SLPC  H12R20939   0.150   5.113   4.551  1.0450 -2.9221 -0.6024
  183SLPC  C21320940   0.063   5.182   4.736 -0.3651  0.7396  0.1618
  183SLPC  H13R20941   0.082   5.289   4.721 -0.3715  0.8874  1.1244
  183SLPC  C21420942  -0.014   5.146   4.865 -0.1781 -0.0930  0.1634
  183SLPC  H14R20943   0.038   5.187   4.954 -1.2243 -5.2639  3.6505
  183SLPC  H14S20944  -0.008   5.039   4.895 -0.8794 -0.2133 -0.1007
  183SLPC  C21520945  -0.156   5.198   4.873 -0.0059 -0.5127  0.4103
  183SLPC  H15R20946  -0.200   5.193   4.975 -0.5082  0.1204  0.2329
  183SLPC  H15S20947  -0.217   5.145   4.797 -0.8676  0.7508  0.1782
  183SLPC  C21620948  -0.181   5.342   4.829 -0.1046 -0.1581 -0.0086
  183SLPC  H16R20949  -0.141   5.370   4.729 -2.0588 -0.9351 -1.0834
  183SLPC  H16S20950  -0.115   5.399   4.898  3.5127 -1.5239 -2.0603
  183SLPC  C21720951  -0.322   5.385   4.833  0.0956  1.0227  0.4740
  183SLPC  H17R20952  -0.385   5.308   4.784 -0.8278  3.6764 -2.8812
  183SLPC  H17S20953  -0.337   5.470   4.764 -0.2603 -0.6376 -1.6155
  183SLPC  C21820954  -0.359   5.408   4.976  0.1115  0.2349 -0.0146
  183SLPC  H18R20955  -0.371   5.311   5.030  1.4661  0.6675  1.1186
  183SLPC  H18S20956  -0.448   5.473   4.991 -2.0501 -2.0542 -2.0588
  183SLPC  H18T20957  -0.285   5.458   5.042  0.4307  1.6452 -1.3953
  183SLPC   C3320958   0.247   4.444   4.263  0.2124  0.6024 -0.1231
  183SLPC   H3X20959   0.154   4.415   4.316  0.6368 -0.7392 -0.0784
  183SLPC   H3Y20960   0.243   4.555   4.270 -3.2516  0.8236 -2.7960
  183SLPC   C3420961   0.363   4.391   4.352  1.0800 -0.2914 -0.2101
  183SLPC   H4X20962   0.454   4.453   4.341  1.6626 -0.8534  1.1639
  183SLPC   H4Y20963   0.390   4.289   4.316  3.5487  0.1615  0.1645
  183SLPC   C3520964   0.313   4.388   4.501 -0.0577 -0.3672  0.5178
  183SLPC   H5X20965   0.214   4.338   4.512 -0.4147  0.1275 -0.3410
  183SLPC   H5Y20966   0.301   4.495   4.526 -0.0285 -0.5036  1.1304
  183SLPC   C3620967   0.417   4.337   4.594 -0.6077  0.2438 -0.3298
  183SLPC   H6X20968   0.513   4.388   4.575 -0.3247 -0.8737 -2.2530
  183SLPC   H6Y20969   0.431   4.231   4.562 -1.4016  0.4169 -1.3172
  183SLPC   C3720970   0.379   4.321   4.743 -0.0480  0.3858 -0.7099
  183SLPC   H7X20971   0.464   4.267   4.790 -0.7254 -0.8658 -0.8848
  183SLPC   H7Y20972   0.291   4.253   4.748  0.3357 -0.2385 -1.9580
  183SLPC   C3820973   0.348   4.453   4.824 -0.1814 -0.8579  0.0229
  183SLPC   H8X20974   0.260   4.496   4.772 -0.2810 -0.7900  0.2437
  183SLPC   H8Y20975   0.420   4.538   4.826 -1.4482  0.2630 -0.5355
  183SLPC   C3920976   0.303   4.419   4.964  0.1018  0.0810 -0.3517
  183SLPC   H9X20977   0.369   4.346   5.017  0.1700  0.2722 -0.1719
  183SLPC   H9Y20978   0.200   4.377   4.959  0.5781 -1.0112 -1.5791
  183SLPC  C31020979   0.284   4.541   5.059  0.4735  0.1439  0.0152
  183SLPC  H10X20980   0.228   4.517   5.152  0.8084 -1.6245 -0.2073
  183SLPC  H10Y20981   0.236   4.628   5.008 -1.8998 -0.5648  0.8944
  183SLPC  C31120982   0.419   4.602   5.098 -0.0046 -0.4371  0.3494
  183SLPC  H11X20983   0.396   4.696   5.152 -1.8262 -1.0676  0.7384
  183SLPC  H11Y20984   0.475   4.638   5.009 -0.4915  2.1168  1.0000
  183SLPC  C31220985   0.508   4.508   5.181 -0.0959 -0.5538  0.1961
  183SLPC  H12X20986   0.557   4.426   5.125 -2.2488 -1.1593 -0.9030
  183SLPC  H12Y20987   0.450   4.461   5.264  2.7145 -1.5664  1.7007
  183SLPC  C31320988   0.623   4.595   5.242  0.2400 -0.3600 -0.0162
  183SLPC  H13X20989   0.609   4.705   5.242 -0.5326 -0.4510  0.1574
  183SLPC  H13Y20990   0.706   4.572   5.172 -0.7811  1.2991 -1.8920
  183SLPC  C31420991   0.661   4.554   5.381  0.3178 -0.1326  0.2126
  183SLPC  H14X20992   0.581   4.581   5.453 -0.2438 -2.5513  0.6033
  183SLPC  H14Y20993   0.754   4.605   5.413  1.0267 -1.6028  0.6134
  183SLPC  C31520994   0.689   4.404   5.401 -0.3254  0.2846  0.5496
  183SLPC  H15X20995   0.741   4.377   5.307 -0.3426  2.0782 -0.0024
  183SLPC  H15Y20996   0.596   4.343   5.401 -0.0716 -0.1155  1.2543
  183SLPC  C31620997   0.776   4.375   5.531  0.7740  0.5386  0.4274
  183SLPC  H16X20998   0.871   4.433   5.529  1.5702 -0.7370 -1.8794
  183SLPC  H16Y20999   0.793   4.265   5.530 -0.4462  0.3245 -1.2301
  183SLPC  C31721000   0.704   4.409   5.671 -0.0977 -0.1561 -0.4926
  183SLPC  H17X21001   0.730   4.515   5.691  0.9993 -0.4004 -0.5584
  183SLPC  H17Y21002   0.756   4.361   5.757 -1.3000 -0.3002  0.1764
  183SLPC  C31821003   0.548   4.381   5.673 -0.3511 -0.3393 -0.1303
  183SLPC  H18X21004   0.499   4.414   5.579 -0.2504  0.4581  0.0848
  183SLPC  H18Y21005   0.499   4.430   5.759  1.0950 -1.2054  1.2388
  183SLPC  H18Z21006   0.521   4.274   5.686 -0.1862 -0.4324 -0.5287
  184SLPC     N21007   5.373   3.533   3.580 -0.2262  0.8104  0.2723
  184SLPC   C1321008   5.350   3.546   3.436 -0.5434 -0.0005 -0.2095
  184SLPC  H13A21009   5.354   3.645   3.393 -0.4808  0.5915  1.1174
  184SLPC  H13B21010   5.415   3.478   3.384  0.1010  1.0106 -0.7633
  184SLPC  H13C21011   5.250   3.514   3.410 -1.0869  1.2494  0.2719
  184SLPC   C1421012   5.382   3.669   3.637 -0.0118  0.3543 -0.6760
  184SLPC  H14A21013   5.458   3.729   3.590 -0.2318  1.2849  0.1284
  184SLPC  H14B21014   5.296   3.735   3.638 -0.2774  0.0338 -1.4753
  184SLPC  H14C21015   5.420   3.669   3.738 -1.9229  0.7710  0.0828
  184SLPC   C1521016   5.509   3.474   3.602 -0.6328 -0.0025  0.1985
  184SLPC  H15A21017   5.521   3.460   3.708 -1.1239 -0.7870  0.1605
  184SLPC  H15B21018   5.541   3.385   3.549 -0.5905  0.8305 -1.2108
  184SLPC  H15C21019   5.586   3.543   3.573  0.8193 -0.8776  1.8395
  184SLPC   C1221020   5.261   3.451   3.648 -0.6558  0.8649  0.2184
  184SLPC  H12A21021   5.281   3.449   3.754 -1.5937 -0.2579  0.3999
  184SLPC  H12B21022   5.269   3.352   3.606 -0.3857  0.8791  0.2389
  184SLPC   C1121023   5.119   3.505   3.629 -0.9379 -0.1069 -0.0053
  184SLPC  H11A21024   5.107   3.514   3.518  3.1461 -2.2450 -0.8007
  184SLPC  H11B21025   5.110   3.609   3.667  0.1603 -0.5295  1.5039
  184SLPC     P21026   4.990   3.270   3.636 -0.5524 -0.0147  0.4694
  184SLPC   O1321027   4.870   3.262   3.553  0.2108  0.0398  0.4787
  184SLPC   O1421028   5.114   3.212   3.577  0.3803  0.2099 -0.1608
  184SLPC   O1221029   5.023   3.415   3.688  0.0604 -0.1315  0.3394
  184SLPC   O1121030   4.955   3.194   3.764  0.0935 -0.2597  0.3516
  184SLPC    C121031   4.890   3.256   3.872 -0.6512 -0.3175 -0.0081
  184SLPC    HA21032   4.804   3.321   3.845  0.1062  0.4195 -0.7038
  184SLPC    HB21033   4.826   3.179   3.920 -1.0594 -0.3327 -0.5536
  184SLPC    C221034   4.994   3.321   3.969  0.1764 -0.3652  0.0538
  184SLPC    HS21035   5.048   3.405   3.921  0.2062 -0.1558  0.4478
  184SLPC   O2121036   5.075   3.213   4.017  0.2678  0.2203  0.4257
  184SLPC   C2121037   5.205   3.236   4.010  0.1274 -0.5787  1.0865
  184SLPC   O2221038   5.269   3.325   3.951  0.5633  0.1088 -0.3942
  184SLPC   C2221039   5.276   3.139   4.097  0.6544  0.1021 -0.2240
  184SLPC   H2R21040   5.228   3.132   4.197  0.4522  1.0391 -0.2459
  184SLPC   H2S21041   5.254   3.038   4.055  0.4464 -0.1099  0.3740
  184SLPC    C321042   4.916   3.400   4.076  0.2516  0.3717  0.4328
  184SLPC    HX21043   4.866   3.488   4.031 -1.1296  0.3503  1.8338
  184SLPC    HY21044   5.003   3.434   4.137 -0.4459  1.1439  1.0112
  184SLPC   O3121045   4.820   3.319   4.148 -0.8215  0.0759 -0.4821
  184SLPC   C3121046   4.864   3.275   4.269 -0.6624  0.2986  0.2287
  184SLPC   O3221047   4.965   3.318   4.320  0.0147 -0.0166 -0.0833
  184SLPC   C3221048   4.770   3.169   4.318  0.4465  0.0806 -0.6621
  184SLPC   H2X21049   4.753   3.117   4.221  0.9460  0.6521 -1.0609
  184SLPC   H2Y21050   4.677   3.224   4.342  0.4648  1.4242 -3.2988
  184SLPC   C2321051   5.430   3.153   4.107  0.6134 -0.0485 -0.1155
  184SLPC   H3R21052   5.461   3.249   4.155 -0.8934 -0.4196  1.7401
  184SLPC   H3S21053   5.482   3.149   4.009  1.0391  0.7168  0.0666
  184SLPC   C2421054   5.491   3.056   4.204  0.3474  0.0979 -0.3183
  184SLPC   H4R21055   5.457   3.068   4.309  0.2197  1.7158 -0.5189
  184SLPC   H4S21056   5.599   3.079   4.215 -0.0342  2.4742 -0.9309
  184SLPC   C2521057   5.481   2.917   4.163 -0.3200 -0.0177  0.4294
  184SLPC   H5R21058   5.495   2.922   4.052 -4.0291 -2.5847 -0.3113
  184SLPC   H5S21059   5.379   2.877   4.176 -0.8962  0.8034 -1.2908
  184SLPC   C2621060   5.583   2.814   4.219 -0.3709  0.0794  0.2022
  184SLPC   H6R21061   5.684   2.854   4.197 -0.7968  0.5553 -0.9181
  184SLPC   H6S21062   5.550   2.723   4.165 -1.4556  0.4546  0.2011
  184SLPC   C2721063   5.569   2.798   4.367  0.1464 -0.3613 -0.1912
  184SLPC   H7R21064   5.465   2.777   4.399  0.6171  1.8642  3.1689
  184SLPC   H7S21065   5.605   2.890   4.417  0.2657  0.0742 -1.0523
  184SLPC   C2821066   5.669   2.695   4.423 -0.0662  0.2067  0.8839
  184SLPC   H8R21067   5.764   2.742   4.388 -0.6657 -0.6610 -2.2011
  184SLPC   H8S21068   5.665   2.597   4.373  2.0484  0.6349 -0.2462
  184SLPC   C2921069   5.671   2.679   4.571  0.7859 -0.3486  0.4044
  184SLPC   H9R21070   5.583   2.630   4.617  0.4763 -1.0817 -0.9180
  184SLPC  C21021071   5.767   2.723   4.655 -0.6342  0.2480 -0.0475
  184SLPC  H10R21072   5.750   2.699   4.761  0.2728  0.1923  0.0928
  184SLPC  C21121073   5.888   2.805   4.626  0.5706 -0.4768  0.6737
  184SLPC  H11R21074   5.875   2.888   4.553  2.6203  0.5704  1.3965
  184SLPC  H11S21075   5.960   2.734   4.579 -0.6885 -2.2245  1.3093
  184SLPC  C21221076   5.958   2.867   4.745 -0.0736  0.6220 -0.0095
  184SLPC  H12R21077   6.006   2.804   4.821  0.5903  1.1166 -0.0082
  184SLPC  C21321078   5.982   2.998   4.765 -0.4192  0.0775 -0.7520
  184SLPC  H13R21079   6.043   3.030   4.851 -2.8053 -1.7510  1.8008
  184SLPC  C21421080   5.933   3.110   4.673 -0.1498  0.2262 -0.2080
  184SLPC  H14R21081   5.970   3.080   4.573 -1.0862 -0.8115 -0.2694
  184SLPC  H14S21082   5.975   3.209   4.701  1.6516 -0.0781 -1.6349
  184SLPC  C21521083   5.780   3.130   4.661 -0.1786 -0.3686  0.4393
  184SLPC  H15R21084   5.731   3.140   4.760  1.1351 -0.8465  1.1702
  184SLPC  H15S21085   5.745   3.039   4.607  1.2076 -1.4438  1.2803
  184SLPC  C21621086   5.752   3.240   4.561  0.1739 -0.1575 -0.3578
  184SLPC  H16R21087   5.817   3.231   4.472  3.2342  0.4503  1.6484
  184SLPC  H16S21088   5.759   3.344   4.599 -1.3292 -0.6278  1.4053
  184SLPC  C21721089   5.605   3.228   4.509 -0.4398  0.0614 -0.3467
  184SLPC  H17R21090   5.540   3.216   4.597 -2.3698 -0.0626 -1.7318
  184SLPC  H17S21091   5.603   3.140   4.441 -2.6248  0.9317 -1.4943
  184SLPC  C21821092   5.564   3.355   4.430 -0.2436  0.1187 -0.3975
  184SLPC  H18R21093   5.546   3.435   4.505  1.1366  0.0838 -0.0154
  184SLPC  H18S21094   5.481   3.329   4.361  0.8170 -2.2532 -0.8868
  184SLPC  H18T21095   5.641   3.397   4.363 -1.6507  0.9910 -1.5383
  184SLPC   C3321096   4.815   3.097   4.446  0.7232  0.1650  0.7116
  184SLPC   H3X21097   4.833   3.180   4.518  0.4616  0.1617  0.7814
  184SLPC   H3Y21098   4.912   3.047   4.426  0.8135  0.8599 -0.6964
  184SLPC   C3421099   4.718   2.999   4.497  0.6241  0.1358  0.5367
  184SLPC   H4X21100   4.694   2.934   4.411  1.3787  1.7726 -0.9666
  184SLPC   H4Y21101   4.626   3.049   4.535  0.1672 -0.4131  0.1783
  184SLPC   C3521102   4.770   2.915   4.609 -0.5231  0.4783 -0.6208
  184SLPC   H5X21103   4.769   2.973   4.704  2.7378 -1.2630  0.6296
  184SLPC   H5Y21104   4.876   2.883   4.600 -0.2964  0.9852  0.1352
  184SLPC   C3621105   4.690   2.791   4.652 -0.0264 -0.2782  0.0761
  184SLPC   H6X21106   4.736   2.756   4.747  2.4250  0.4419 -0.7769
  184SLPC   H6Y21107   4.712   2.712   4.577 -2.0116 -0.6977 -0.1115
  184SLPC   C3721108   4.536   2.802   4.652  0.7749 -0.3733 -0.4152
  184SLPC   H7X21109   4.483   2.705   4.662 -1.0276  0.4048 -1.7528
  184SLPC   H7Y21110   4.514   2.853   4.556 -1.1631  0.5274  0.4440
  184SLPC   C3821111   4.484   2.892   4.767 -0.3963  0.0638  0.1746
  184SLPC   H8X21112   4.389   2.931   4.724  0.1799  1.1836 -0.1383
  184SLPC   H8Y21113   4.551   2.979   4.782 -1.0727  0.5934  0.1695
  184SLPC   C3921114   4.450   2.828   4.897 -0.1251 -0.3267  0.1692
  184SLPC   H9X21115   4.526   2.759   4.937  0.6704 -0.4222 -1.4366
  184SLPC   H9Y21116   4.367   2.757   4.878 -0.2051 -0.2908  0.3803
  184SLPC  C31021117   4.409   2.926   5.013 -0.0880 -0.0582 -0.0185
  184SLPC  H10X21118   4.344   3.007   4.972 -0.1796 -0.7163 -1.2316
  184SLPC  H10Y21119   4.492   2.986   5.056  1.2445 -2.4781  0.9610
  184SLPC  C31121120   4.349   2.845   5.126  0.3524  0.1430 -0.9627
  184SLPC  H11X21121   4.425   2.773   5.162 -1.6514 -1.5114  0.1916
  184SLPC  H11Y21122   4.275   2.773   5.084 -0.0507  0.2052 -0.3704
  184SLPC  C31221123   4.310   2.931   5.252 -0.4077 -0.0389  0.5963
  184SLPC  H12X21124   4.404   2.983   5.277 -0.0600  0.2916 -1.2186
  184SLPC  H12Y21125   4.276   2.856   5.326 -0.8475  2.6694  3.3527
  184SLPC  C31321126   4.207   3.044   5.235  0.5280  0.0992 -0.3586
  184SLPC  H13X21127   4.117   2.999   5.189  0.4440 -0.5537  0.4091
  184SLPC  H13Y21128   4.244   3.129   5.173 -1.5547  2.1397  0.9931
  184SLPC  C31421129   4.147   3.089   5.374  0.0341  0.3116 -0.2305
  184SLPC  H14X21130   4.114   3.001   5.434  3.8843 -0.8480  0.4784
  184SLPC  H14Y21131   4.057   3.150   5.353 -0.8542 -0.5491  0.8959
  184SLPC  C31521132   4.246   3.174   5.464 -0.3531  0.2793  1.1521
  184SLPC  H15X21133   4.349   3.136   5.445 -0.2758  1.0267 -0.0287
  184SLPC  H15Y21134   4.226   3.171   5.573 -1.4898 -1.0144  0.9271
  184SLPC  C31621135   4.260   3.319   5.411  0.2624  0.1153  0.0559
  184SLPC  H16X21136   4.273   3.331   5.301  0.3765  3.2513  0.3192
  184SLPC  H16Y21137   4.343   3.366   5.468 -1.4842 -0.4003  3.2544
  184SLPC  C31721138   4.126   3.398   5.445 -0.5466 -0.0324 -0.0294
  184SLPC  H17X21139   4.104   3.397   5.554 -2.0234 -0.8738 -0.3153
  184SLPC  H17Y21140   4.045   3.344   5.392  1.3337 -2.2122 -0.8178
  184SLPC  C31821141   4.103   3.540   5.396  0.4577  0.1658 -0.4417
  184SLPC  H18X21142   4.157   3.608   5.466 -0.1576  0.5353 -0.3210
  184SLPC  H18Y21143   3.998   3.577   5.385  1.6497  3.9330 -0.7389
  184SLPC  H18Z21144   4.150   3.547   5.296  1.4481 -0.9857 -0.0765
  185POPC     N21145   6.101   1.017   7.408  0.1136  0.0562  0.2629
  185POPC   C1221146   6.154   1.098   7.287 -0.2844 -0.1419  0.8785
  185POPC  H12A21147   6.133   1.039   7.200  2.9298 -2.2835  1.3905
  185POPC  H12B21148   6.261   1.112   7.299  0.3734  0.2790 -3.8169
  185POPC   C1321149   6.115   1.087   7.541  0.3504  0.0101 -0.3767
  185POPC  H13A21150   6.087   1.021   7.622 -0.6968  0.7182 -0.1293
  185POPC  H13B21151   6.213   1.132   7.550 -0.6800  2.2149  0.6793
  185POPC  H13C21152   6.049   1.172   7.534  1.1476  0.4813 -3.2627
  185POPC   C1421153   5.958   0.973   7.376 -0.2397  0.2834 -0.8951
  185POPC  H14A21154   5.956   0.894   7.302  1.2508  0.8038 -1.5213
  185POPC  H14B21155   5.920   0.927   7.466 -0.0847 -1.7211 -1.8036
  185POPC  H14C21156   5.894   1.052   7.340  0.8370  0.9355 -1.4284
  185POPC   C1521157   6.198   0.895   7.412  0.3742  0.3139  0.2072
  185POPC  H15A21158   6.186   0.841   7.320  0.9972 -0.1746  0.4025
  185POPC  H15B21159   6.173   0.829   7.494  0.2116 -0.2387 -0.2849
  185POPC  H15C21160   6.300   0.930   7.423  0.3781 -0.3274  3.1454
  185POPC   C1121161   6.102   1.239   7.262  0.0602  0.0732 -0.2962
  185POPC  H11A21162   5.991   1.251   7.267  0.1901  2.1716 -1.2406
  185POPC  H11B21163   6.134   1.258   7.158 -1.4184 -1.0760 -1.0017
  185POPC     P21164   6.310   1.373   7.335  0.2001  0.4502 -0.1500
  185POPC   O1321165   6.395   1.250   7.343 -0.6579 -0.1030 -0.5836
  185POPC   O1421166   6.344   1.474   7.440  0.4694  0.3558  0.2440
  185POPC   O1221167   6.159   1.329   7.357  0.3255 -0.3189  0.4791
  185POPC   O1121168   6.316   1.431   7.187  0.3726  0.2621 -0.1760
  185POPC    C121169   6.232   1.537   7.139 -0.2880  0.6360 -0.3818
  185POPC    HA21170   6.267   1.639   7.165  1.1869  0.9032 -3.0900
  185POPC    HB21171   6.129   1.518   7.176 -0.1643  0.9649  0.1407
  185POPC    C221172   6.241   1.526   6.988 -0.0233 -0.2659 -0.3160
  185POPC    HS21173   6.214   1.422   6.961 -0.8023 -0.3072  0.6020
  185POPC   O2121174   6.378   1.555   6.956  0.0893  0.3686  0.1358
  185POPC   C2121175   6.428   1.483   6.852 -0.0741 -0.2115 -0.5932
  185POPC   O2221176   6.366   1.387   6.802 -0.1326 -0.3622  0.4129
  185POPC   C2221177   6.571   1.522   6.831  0.2217  0.1110 -0.6250
  185POPC   H2R21178   6.634   1.478   6.911 -0.4386  0.0556 -0.1288
  185POPC   H2S21179   6.583   1.633   6.830  1.8211 -0.0282 -1.8018
  185POPC    C321180   6.144   1.619   6.912  0.0762 -0.5203  0.5875
  185POPC    HX21181   6.187   1.720   6.926 -1.4995  0.5020 -1.4960
  185POPC    HY21182   6.046   1.605   6.963 -0.1090 -0.9557  0.1210
  185POPC   O3121183   6.137   1.592   6.780 -0.3146  0.4350 -0.3551
  185POPC   C3121184   6.078   1.473   6.747 -0.6197  0.1958  0.5519
  185POPC   O3221185   6.017   1.397   6.819  0.3164 -0.0747  0.1066
  185POPC   C3221186   6.083   1.451   6.596 -0.3896  0.2831  1.2433
  185POPC   H2X21187   6.182   1.403   6.588  0.2629  1.8776 -2.6597
  185POPC   H2Y21188   6.090   1.547   6.540 -2.1175 -0.4462 -0.3299
  185POPC   C2321189   6.628   1.467   6.699 -0.0903  0.2974 -0.4185
  185POPC   H3R21190   6.623   1.356   6.702 -0.2812  0.2765 -1.3920
  185POPC   H3S21191   6.736   1.491   6.694  0.6320 -2.7540 -3.8378
  185POPC   C2421192   6.549   1.509   6.572 -0.6993 -0.0743 -0.1165
  185POPC   H4R21193   6.567   1.618   6.556  1.4606  0.0323  2.4370
  185POPC   H4S21194   6.442   1.486   6.589 -1.2367  1.6484 -0.8623
  185POPC   C2521195   6.616   1.447   6.448  0.8518 -0.6751 -0.5004
  185POPC   H5R21196   6.661   1.348   6.476 -0.6058 -1.2460 -0.0971
  185POPC   H5S21197   6.709   1.498   6.415  1.1344 -0.8664 -0.0203
  185POPC   C2621198   6.530   1.424   6.324 -0.3476  0.1445  0.4890
  185POPC   H6R21199   6.421   1.426   6.346 -0.6107  0.2522 -0.7783
  185POPC   H6S21200   6.544   1.328   6.270 -2.9856  1.1991 -2.3826
  185POPC   C2721201   6.549   1.529   6.219  0.4176 -0.1578  0.8295
  185POPC   H7R21202   6.651   1.509   6.180 -0.1509 -1.5916 -0.0078
  185POPC   H7S21203   6.546   1.636   6.250 -0.5277  0.7562 -2.0138
  185POPC   C2821204   6.441   1.515   6.106 -0.1764  0.5988 -0.0898
  185POPC   H8R21205   6.434   1.616   6.060 -2.2012  0.2062 -0.7136
  185POPC   H8S21206   6.349   1.495   6.165 -0.6994 -0.1885 -1.1593
  185POPC   C2921207   6.484   1.406   6.004  0.3312 -0.3699 -0.0829
  185POPC   H9121208   6.536   1.316   6.041  1.6941  0.9145  1.2415
  185POPC  C21021209   6.444   1.389   5.877 -0.0812  0.0371 -0.0066
  185POPC  H10121210   6.473   1.298   5.823  3.4324 -0.6320  2.6499
  185POPC  C21121211   6.369   1.482   5.784  0.9155 -0.2334  0.4301
  185POPC  H11R21212   6.300   1.545   5.843 -0.7835 -0.0891 -1.5854
  185POPC  H11S21213   6.307   1.427   5.709 -0.5279 -0.3102  1.6425
  185POPC  C21221214   6.457   1.591   5.708  0.7469 -0.1180 -0.0667
  185POPC  H12R21215   6.529   1.540   5.641  1.0507  1.2058 -0.7883
  185POPC  H12S21216   6.509   1.650   5.787 -1.0999 -2.6459  3.3094
  185POPC  C21321217   6.360   1.677   5.627  0.2202  0.4471 -0.8475
  185POPC  H13R21218   6.280   1.681   5.704  1.5288 -1.3705  0.7119
  185POPC  H13S21219   6.313   1.615   5.547 -0.7484 -0.3386  0.2823
  185POPC  C21421220   6.410   1.805   5.571  0.4373  0.1390 -0.6585
  185POPC  H14R21221   6.462   1.879   5.636  2.1609 -0.3632 -1.4210
  185POPC  H14S21222   6.329   1.854   5.511  2.2984 -0.4184 -3.8870
  185POPC  C21521223   6.518   1.781   5.470  0.0968  0.2020  0.1167
  185POPC  H15R21224   6.478   1.696   5.410  2.8048 -2.4654  1.8018
  185POPC  H15S21225   6.612   1.753   5.522 -1.4165 -2.1881  1.8424
  185POPC  C21621226   6.533   1.908   5.389  0.1512 -0.0695  1.1315
  185POPC  H16R21227   6.574   1.987   5.456  0.1732  1.5416 -0.6946
  185POPC  H16S21228   6.443   1.950   5.339  2.3274 -0.1926 -3.3639
  185POPC  C21721229   6.639   1.888   5.269 -0.2274 -0.6334 -0.1015
  185POPC  H17R21230   6.728   1.834   5.306  1.2799 -0.1125 -2.7146
  185POPC  H17S21231   6.678   1.988   5.240  0.8293 -0.7042  1.0445
  185POPC  C21821232   6.589   1.822   5.144  0.6100 -0.0178  0.6887
  185POPC  H18R21233   6.498   1.869   5.100 -0.1563  0.0044  2.2212
  185POPC  H18S21234   6.578   1.711   5.145  1.5324 -0.1143  1.7321
  185POPC  H18T21235   6.657   1.840   5.058 -0.4494  0.2714 -0.1093
  185POPC   C3321236   5.967   1.361   6.540 -0.2286  0.3034  0.2028
  185POPC   H3X21237   5.869   1.410   6.558  0.1289  2.1196 -2.2651
  185POPC   H3Y21238   5.983   1.264   6.591  0.9147 -0.5237 -1.6094
  185POPC   C3421239   5.990   1.341   6.389  0.0502  0.3860 -0.0233
  185POPC   H4X21240   5.933   1.255   6.349 -0.3524  1.3959 -1.6771
  185POPC   H4Y21241   6.095   1.304   6.386 -0.6282 -1.6273 -1.7053
  185POPC   C3521242   5.966   1.468   6.305 -0.5811 -0.6987 -0.3077
  185POPC   H5X21243   6.033   1.550   6.340  0.8485 -1.4692 -1.1270
  185POPC   H5Y21244   5.862   1.506   6.311 -0.1133  0.4473  1.1102
  185POPC   C3621245   5.995   1.442   6.157 -0.0620  0.3883  0.4058
  185POPC   H6X21246   5.925   1.364   6.122  2.1553 -1.4089 -0.2333
  185POPC   H6Y21247   6.101   1.413   6.145  0.1963  1.4940 -0.1457
  185POPC   C3721248   5.959   1.560   6.064 -0.0762 -0.3065 -0.1417
  185POPC   H7X21249   6.023   1.644   6.097 -0.3732  0.5868 -1.7209
  185POPC   H7Y21250   5.852   1.585   6.049 -0.1964 -1.7885 -2.3616
  185POPC   C3821251   6.002   1.515   5.924 -0.8882  0.4123 -0.2500
  185POPC   H8X21252   6.098   1.459   5.918 -1.8999 -1.1940 -3.2832
  185POPC   H8Y21253   6.027   1.596   5.853 -1.0002 -1.4764 -2.5642
  185POPC   C3921254   5.897   1.426   5.855  0.4738  0.2324  0.2141
  185POPC   H9X21255   5.799   1.479   5.850  0.0242 -0.6795 -1.4393
  185POPC   H9Y21256   5.868   1.333   5.909  0.3926  0.5125  0.6552
  185POPC  C31021257   5.920   1.390   5.709 -0.5170  0.2323  0.0007
  185POPC  H10X21258   5.856   1.312   5.662  0.3340 -0.1706 -0.5051
  185POPC  H10Y21259   6.022   1.348   5.701 -0.8298 -1.2718  2.5855
  185POPC  C31121260   5.917   1.511   5.617 -0.0687 -0.1761 -0.2303
  185POPC  H11X21261   6.014   1.564   5.612 -0.6449  1.3906  2.7876
  185POPC  H11Y21262   5.841   1.582   5.657  1.9318  1.2210  1.2416
  185POPC  C31221263   5.869   1.464   5.478 -0.7159 -0.0111 -0.3498
  185POPC  H12X21264   5.769   1.422   5.503 -0.1804 -0.2645  1.5156
  185POPC  H12Y21265   5.944   1.400   5.427 -2.6949  0.2680 -3.9072
  185POPC  C31321266   5.859   1.589   5.389 -0.4919 -0.2821 -0.4932
  185POPC  H13X21267   5.790   1.665   5.430  2.1574  1.5890  0.7941
  185POPC  H13Y21268   5.818   1.567   5.288  2.3629  1.7549 -2.2642
  185POPC  C31421269   5.995   1.651   5.350 -0.0247 -0.5874 -1.1144
  185POPC  H14X21270   6.070   1.583   5.304  1.0995 -0.0781 -0.1065
  185POPC  H14Y21271   6.041   1.695   5.441 -3.4861 -0.0967  0.5616
  185POPC  C31521272   5.978   1.759   5.252  0.2235 -0.2102 -0.2593
  185POPC  H15X21273   5.902   1.833   5.286  1.1673 -0.0601  1.6435
  185POPC  H15Y21274   5.943   1.717   5.155 -0.9650  2.1350 -0.9266
  185POPC  C31621275   6.112   1.826   5.216 -0.0113  0.1679 -0.5547
  185POPC  H16X21276   6.110   1.884   5.121 -0.9537  0.6844 -0.2362
  185POPC  H16Y21277   6.197   1.757   5.199 -0.0227 -0.0581  0.2630
  185POPC  H16Z21278   6.140   1.890   5.302  1.6325 -0.2526 -0.7554
  186POPC     N21279   3.967   1.935   7.590 -0.2485 -0.3949  0.5056
  186POPC   C1221280   3.864   1.826   7.573  0.7346 -0.2634 -0.4812
  186POPC  H12A21281   3.804   1.826   7.662 -0.6255 -0.2691 -1.3585
  186POPC  H12B21282   3.912   1.732   7.554  0.5954 -1.2035  3.1939
  186POPC   C1321283   4.071   1.934   7.484 -0.2514 -0.8545 -0.6567
  186POPC  H13A21284   4.134   2.020   7.500 -0.7254 -0.7876  1.1178
  186POPC  H13B21285   4.135   1.847   7.492  3.0564  1.3207 -1.2246
  186POPC  H13C21286   4.036   1.931   7.382  2.1481  0.3448 -1.5974
  186POPC   C1421287   3.893   2.069   7.574  0.5711 -0.0740 -0.1016
  186POPC  H14A21288   3.959   2.153   7.591  1.7205 -1.2965  1.9715
  186POPC  H14B21289   3.856   2.082   7.474  0.1476  2.2475  0.3087
  186POPC  H14C21290   3.804   2.066   7.635  1.1187  0.3172  0.7379
  186POPC   C1521291   4.033   1.937   7.721  0.1027 -0.1625 -0.3756
  186POPC  H15A21292   4.085   1.846   7.747  1.7073  0.6037 -0.7971
  186POPC  H15B21293   3.952   1.946   7.791 -2.2693  1.6564 -3.1105
  186POPC  H15C21294   4.093   2.026   7.732  1.0641 -0.9952  1.3736
  186POPC   C1121295   3.763   1.839   7.456 -0.5615 -0.0812 -0.0894
  186POPC  H11A21296   3.702   1.747   7.445 -0.2172 -0.4423  0.8385
  186POPC  H11B21297   3.816   1.849   7.359  2.3245 -1.0631  1.2574
  186POPC     P21298   3.548   1.947   7.547  0.3136 -0.0338  0.2736
  186POPC   O1321299   3.583   1.987   7.683  0.5906 -0.4479  0.9038
  186POPC   O1421300   3.484   1.815   7.514  0.1583  0.2454 -0.4189
  186POPC   O1221301   3.678   1.953   7.465 -0.1624 -0.2471  0.1071
  186POPC   O1121302   3.461   2.064   7.474  0.1483  0.5038 -0.3263
  186POPC    C121303   3.518   2.173   7.406 -0.2649  0.6052 -0.4364
  186POPC    HA21304   3.574   2.135   7.319  2.4254  0.1391  1.3747
  186POPC    HB21305   3.589   2.223   7.476 -2.1043  1.6763  0.7763
  186POPC    C221306   3.416   2.285   7.374 -0.4672  0.1837 -0.2110
  186POPC    HS21307   3.374   2.326   7.469 -1.3438  0.8517 -0.8712
  186POPC   O2121308   3.322   2.241   7.274  0.1184 -0.3291  0.6871
  186POPC   C2121309   3.211   2.311   7.271 -0.6262  0.0852  0.4360
  186POPC   O2221310   3.187   2.408   7.345 -0.3001  0.5823 -0.4262
  186POPC   C2221311   3.111   2.242   7.176  0.1831  0.0377  0.0318
  186POPC   H2R21312   3.051   2.315   7.118  0.5778  0.7500  0.4923
  186POPC   H2S21313   3.029   2.196   7.235 -0.4463  0.4044 -0.5444
  186POPC    C321314   3.502   2.396   7.311  0.7786 -0.3823  0.8065
  186POPC    HX21315   3.550   2.446   7.399 -1.4953 -0.8714  2.4022
  186POPC    HY21316   3.433   2.477   7.278  0.9384 -0.8460 -0.7102
  186POPC   O3121317   3.601   2.351   7.211  0.2910 -0.1407  0.0233
  186POPC   C3121318   3.560   2.361   7.088  0.3489  0.3052 -0.3710
  186POPC   O3221319   3.470   2.425   7.050  0.5072 -0.2110  0.6763
  186POPC   C3221320   3.661   2.288   6.993 -0.4163 -0.5555  0.1457
  186POPC   H2X21321   3.653   2.177   6.997  0.8607 -0.6609  0.1543
  186POPC   H2Y21322   3.763   2.315   7.030  0.2635 -1.7474 -0.7722
  186POPC   C2321323   3.180   2.159   7.065 -0.0886  0.1900 -0.4999
  186POPC   H3R21324   3.211   2.056   7.093 -2.7671 -0.8308 -0.9641
  186POPC   H3S21325   3.268   2.219   7.035 -0.7565  1.7284  0.4712
  186POPC   C2421326   3.092   2.140   6.942 -1.3387 -0.9502 -0.2029
  186POPC   H4R21327   3.064   2.232   6.887 -0.9298 -0.7912 -0.1454
  186POPC   H4S21328   3.003   2.078   6.964 -2.2800  0.1206 -0.8924
  186POPC   C2521329   3.156   2.058   6.827  0.1152  0.2248 -0.0149
  186POPC   H5R21330   3.187   1.955   6.856  0.0034 -0.1318 -1.1208
  186POPC   H5S21331   3.248   2.109   6.792 -1.1048  2.0039 -0.7840
  186POPC   C2621332   3.069   2.032   6.701  0.4718  0.0590  0.2824
  186POPC   H6R21333   3.068   2.130   6.649  2.0537 -0.1272 -0.1620
  186POPC   H6S21334   2.965   2.003   6.729  0.7512 -1.1725  0.1297
  186POPC   C2721335   3.116   1.926   6.600 -0.3949 -0.1566  0.0636
  186POPC   H7R21336   3.052   1.924   6.509 -1.4561 -0.0849  0.7948
  186POPC   H7S21337   3.110   1.824   6.644 -1.4614 -0.7400 -1.3306
  186POPC   C2821338   3.259   1.923   6.546 -0.5832 -0.0707 -0.3008
  186POPC   H8R21339   3.272   1.856   6.458  0.6917 -0.9156  0.4885
  186POPC   H8S21340   3.325   1.885   6.628 -1.1357 -1.0323 -0.2905
  186POPC   C2921341   3.314   2.057   6.510 -0.7569 -0.1798 -0.3609
  186POPC   H9121342   3.260   2.139   6.559 -0.7103 -1.1801  1.4315
  186POPC  C21021343   3.421   2.082   6.437  0.0786 -0.2008 -0.0946
  186POPC  H10121344   3.448   2.188   6.445 -2.2028  0.2969  4.2238
  186POPC  C21121345   3.524   1.989   6.382 -0.1143 -0.3902  0.2504
  186POPC  H11R21346   3.520   1.888   6.429  0.4542 -0.5493 -0.0244
  186POPC  H11S21347   3.619   2.041   6.405 -0.6684  0.5996  0.3331
  186POPC  C21221348   3.509   1.968   6.231  0.4266  0.6602  0.1260
  186POPC  H12R21349   3.514   2.065   6.178  0.7056  1.4349  1.5019
  186POPC  H12S21350   3.406   1.929   6.214  0.8419  0.2789 -1.6438
  186POPC  C21321351   3.608   1.867   6.169  0.5860  0.1224 -0.0530
  186POPC  H13R21352   3.608   1.767   6.218  2.5938  0.1774  0.1149
  186POPC  H13S21353   3.712   1.897   6.192  0.6470 -1.0453  1.2880
  186POPC  C21421354   3.577   1.845   6.022 -0.2498 -0.0095 -0.3511
  186POPC  H14R21355   3.466   1.847   6.024 -0.2406  1.9465 -0.1683
  186POPC  H14S21356   3.607   1.742   5.991  0.2270  0.0840 -0.1999
  186POPC  C21521357   3.629   1.955   5.929 -0.2606  0.0647 -0.6013
  186POPC  H15R21358   3.740   1.954   5.920 -0.1636  0.6777  0.3708
  186POPC  H15S21359   3.592   2.049   5.975 -1.1039 -0.5237 -0.0456
  186POPC  C21621360   3.570   1.942   5.792 -0.1585 -0.8794  0.1314
  186POPC  H16R21361   3.467   1.902   5.805  0.2955 -1.5156  2.0592
  186POPC  H16S21362   3.624   1.868   5.730 -0.8518 -0.6305 -0.7902
  186POPC  C21721363   3.577   2.071   5.717 -0.0525 -0.0982  0.3422
  186POPC  H17R21364   3.678   2.115   5.704 -0.5511  1.4006  1.3333
  186POPC  H17S21365   3.529   2.152   5.776  0.6422 -0.1811  1.0451
  186POPC  C21821366   3.518   2.065   5.574 -0.2193 -0.0521 -0.0610
  186POPC  H18R21367   3.415   2.022   5.573  0.2518 -1.3902  2.1114
  186POPC  H18S21368   3.586   2.013   5.503 -0.1212  3.2840 -2.6726
  186POPC  H18T21369   3.515   2.167   5.529 -1.3664  0.5356  1.2436
  186POPC   C3321370   3.648   2.333   6.846 -0.3084 -0.0390  0.1648
  186POPC   H3X21371   3.630   2.442   6.839 -0.7998 -0.1362 -0.1864
  186POPC   H3Y21372   3.566   2.273   6.800  1.1571 -2.2908  0.3728
  186POPC   C3421373   3.781   2.277   6.769  0.0381 -0.4592 -0.1385
  186POPC   H4X21374   3.774   2.167   6.776  0.1948 -0.4532  0.1272
  186POPC   H4Y21375   3.873   2.306   6.824 -0.3121 -1.4615  1.0078
  186POPC   C3521376   3.786   2.308   6.625  0.0796 -0.0050  0.0780
  186POPC   H5X21377   3.807   2.417   6.626 -1.9795  0.4920  3.7269
  186POPC   H5Y21378   3.692   2.284   6.570 -0.2317 -0.3518  0.7535
  186POPC   C3621379   3.896   2.233   6.555  0.6221 -0.1801 -0.1155
  186POPC   H6X21380   3.876   2.124   6.546 -1.4481 -0.0011  1.5372
  186POPC   H6Y21381   3.987   2.243   6.618  1.1768 -0.2645 -0.8874
  186POPC   C3721382   3.919   2.303   6.424  0.6171 -0.2842  0.3407
  186POPC   H7X21383   4.010   2.273   6.368  1.5619 -0.2959  1.8180
  186POPC   H7Y21384   3.936   2.411   6.444  0.1429  0.2581 -1.9328
  186POPC   C3821385   3.801   2.302   6.330 -0.1212 -0.2546  0.2187
  186POPC   H8X21386   3.726   2.370   6.374  1.7821  1.3365  1.1617
  186POPC   H8Y21387   3.760   2.199   6.322 -0.0834 -0.1932 -0.9200
  186POPC   C3921388   3.829   2.366   6.198 -0.2389  0.5299 -0.9554
  186POPC   H9X21389   3.905   2.293   6.162 -0.0933 -1.5021  2.9426
  186POPC   H9Y21390   3.860   2.471   6.216 -0.8044  0.2815  1.9111
  186POPC  C31021391   3.701   2.355   6.103  0.0623  0.2266 -0.0051
  186POPC  H10X21392   3.651   2.449   6.135 -0.4754 -0.6615  1.9330
  186POPC  H10Y21393   3.643   2.264   6.130  1.0331  0.2463  2.3994
  186POPC  C31121394   3.728   2.374   5.953  0.2955 -0.1795  0.1566
  186POPC  H11X21395   3.770   2.278   5.915  1.7738  0.5315 -0.0995
  186POPC  H11Y21396   3.807   2.449   5.935 -1.6866  2.2096  0.9309
  186POPC  C31221397   3.603   2.421   5.873  0.3153 -0.0617 -0.2671
  186POPC  H12X21398   3.572   2.519   5.916  3.0797  1.0040 -0.5030
  186POPC  H12Y21399   3.525   2.344   5.891 -1.7028  1.7710 -0.7991
  186POPC  C31321400   3.620   2.444   5.721  0.7011 -0.1193 -0.1621
  186POPC  H13X21401   3.695   2.382   5.668  0.0107 -1.5663  0.5140
  186POPC  H13Y21402   3.671   2.543   5.718  2.4613 -0.9098  1.8841
  186POPC  C31421403   3.485   2.459   5.654 -0.2754 -0.0707 -0.1188
  186POPC  H14X21404   3.409   2.391   5.698  0.8409 -0.9712  0.4624
  186POPC  H14Y21405   3.501   2.414   5.554 -1.1723 -1.4054  0.3084
  186POPC  C31521406   3.427   2.597   5.633  0.3014  0.1963 -0.3827
  186POPC  H15X21407   3.496   2.670   5.584  0.4864  0.1572 -0.1778
  186POPC  H15Y21408   3.398   2.655   5.723 -0.5551  0.0356 -0.5443
  186POPC  C31621409   3.299   2.577   5.552  0.3418  0.0105  0.1082
  186POPC  H16X21410   3.229   2.514   5.610  0.2312  1.2803  1.4116
  186POPC  H16Y21411   3.328   2.516   5.464 -0.3311 -0.8505  0.4658
  186POPC  H16Z21412   3.251   2.669   5.510 -1.6643  0.3551  2.8409
  187POPC     N21413   6.404   6.201   2.450 -0.6206  0.0134  0.3342
  187POPC   C1221414   6.431   6.352   2.441  0.6605 -0.5931  0.2390
  187POPC  H12A21415   6.340   6.407   2.418  1.1704  0.2680  0.2340
  187POPC  H12B21416   6.508   6.373   2.368 -0.7282  2.1686 -0.5654
  187POPC   C1321417   6.289   6.176   2.542 -0.6680  0.2513 -0.6318
  187POPC  H13A21418   6.197   6.221   2.508  0.8812  2.8260 -1.7028
  187POPC  H13B21419   6.279   6.071   2.568  0.1575  0.6438  1.5200
  187POPC  H13C21420   6.311   6.228   2.634  0.3229 -1.9722  0.4617
  187POPC   C1421421   6.372   6.154   2.309 -0.5204 -0.5721  0.4714
  187POPC  H14A21422   6.358   6.048   2.303  0.7470 -0.6605 -1.9922
  187POPC  H14B21423   6.282   6.194   2.265 -0.3694 -0.4597  0.2635
  187POPC  H14C21424   6.463   6.175   2.255  0.5608 -1.7640  1.7602
  187POPC   C1521425   6.527   6.134   2.499 -0.1916 -0.4229 -0.2414
  187POPC  H15A21426   6.541   6.149   2.605  0.5611 -1.7506 -0.1267
  187POPC  H15B21427   6.609   6.174   2.441 -1.1369  2.2956  0.1424
  187POPC  H15C21428   6.521   6.028   2.476 -2.7647 -0.3660 -0.1195
  187POPC   C1121429   6.476   6.416   2.572 -0.1906  0.0174 -0.2532
  187POPC  H11A21430   6.585   6.398   2.579 -0.8704 -4.5510  2.2314
  187POPC  H11B21431   6.425   6.361   2.654 -0.6874 -1.3725 -1.4411
  187POPC     P21432   6.520   6.666   2.631  0.0642  0.1033  0.0190
  187POPC   O1321433   6.441   6.791   2.640 -0.0465  0.0912  0.0645
  187POPC   O1421434   6.643   6.681   2.558 -0.6051  0.4189  0.6248
  187POPC   O1221435   6.431   6.552   2.561 -0.2771  0.1817  0.6173
  187POPC   O1121436   6.550   6.608   2.776  0.0640 -0.4340 -0.4568
  187POPC    C121437   6.431   6.580   2.855  0.2238 -0.4086  0.0516
  187POPC    HA21438   6.441   6.497   2.928 -0.2704  2.2277  3.3693
  187POPC    HB21439   6.336   6.562   2.801 -0.7436 -0.8834  1.8543
  187POPC    C221440   6.403   6.703   2.951 -0.1703 -0.5932  0.2087
  187POPC    HS21441   6.414   6.796   2.890 -2.6858 -0.6189 -0.4023
  187POPC   O2121442   6.501   6.696   3.066  0.9633 -0.2596  0.0307
  187POPC   C2121443   6.527   6.810   3.124  0.0656  1.1523  0.9729
  187POPC   O2221444   6.482   6.919   3.093  0.2413 -0.3520  0.0857
  187POPC   C2221445   6.626   6.789   3.233 -0.3108 -0.3821 -0.4342
  187POPC   H2R21446   6.715   6.732   3.198  0.5278  0.7764 -0.2500
  187POPC   H2S21447   6.577   6.738   3.319 -2.2387  1.0612 -0.6047
  187POPC    C321448   6.253   6.695   3.002  0.3269 -0.4716 -0.6898
  187POPC    HX21449   6.184   6.705   2.916  0.2830  0.2064 -0.5758
  187POPC    HY21450   6.240   6.778   3.074 -1.6251 -1.3259 -0.0100
  187POPC   O3121451   6.235   6.567   3.070 -0.3559  0.3256  0.2225
  187POPC   C3121452   6.252   6.566   3.200 -0.2620 -0.1938 -0.0436
  187POPC   O3221453   6.267   6.671   3.266  0.3437 -0.0886  0.0547
  187POPC   C3221454   6.265   6.424   3.254  0.5038 -0.4258  0.1190
  187POPC   H2X21455   6.328   6.362   3.187 -0.4630 -3.1851  1.6011
  187POPC   H2Y21456   6.159   6.393   3.265  0.7014 -1.6395 -1.1349
  187POPC   C2321457   6.670   6.925   3.300 -0.4443  0.4191  0.0178
  187POPC   H3R21458   6.577   6.955   3.353 -0.7448  1.2363 -0.9238
  187POPC   H3S21459   6.698   6.997   3.220  0.4274 -0.3522 -0.3857
  187POPC   C2421460   6.798   6.900   3.380 -0.0536 -0.2481 -0.5621
  187POPC   H4R21461   6.878   6.870   3.309  0.9014 -2.0990  1.1903
  187POPC   H4S21462   6.773   6.813   3.445  2.5933  0.3100  1.3444
  187POPC   C2521463   6.849   7.019   3.461 -0.3130 -0.5731 -0.3468
  187POPC   H5R21464   6.826   7.119   3.419 -1.1758  0.4795  2.3993
  187POPC   H5S21465   6.958   6.996   3.457 -0.4689 -1.2666 -0.7426
  187POPC   C2621466   6.806   7.014   3.605 -0.1205 -0.9291  0.0103
  187POPC   H6R21467   6.817   6.909   3.637 -0.1092 -0.9687 -0.1200
  187POPC   H6S21468   6.698   7.042   3.604 -0.0734 -0.7488 -0.4497
  187POPC   C2721469   6.880   7.098   3.706 -0.2084 -0.0337 -0.6462
  187POPC   H7R21470   6.898   7.201   3.668 -1.1920  1.2888  2.1704
  187POPC   H7S21471   6.979   7.050   3.720 -0.4247 -1.0207 -2.2855
  187POPC   C2821472   6.802   7.120   3.845 -0.1362 -0.5818  0.3717
  187POPC   H8R21473   6.700   7.161   3.832  0.9546  2.0581 -0.3089
  187POPC   H8S21474   6.867   7.200   3.886  1.2321 -1.5579  0.1837
  187POPC   C2921475   6.803   7.000   3.938  0.1153 -0.1315  0.5558
  187POPC   H9121476   6.793   6.907   3.880  0.3957  0.0761  0.1698
  187POPC  C21021477   6.842   6.998   4.064 -0.2044 -0.5314 -0.1340
  187POPC  H10121478   6.836   6.901   4.115 -3.0297  0.6348  2.0607
  187POPC  C21121479   6.895   7.107   4.152 -0.6458 -0.6276 -0.2603
  187POPC  H11R21480   6.901   7.203   4.097 -3.3586  1.1342  2.2132
  187POPC  H11S21481   7.000   7.089   4.183 -0.9901  0.2623  1.5545
  187POPC  C21221482   6.818   7.131   4.282 -0.0022  0.3128  0.2835
  187POPC  H12R21483   6.710   7.141   4.257 -0.1917 -0.2311  0.8651
  187POPC  H12S21484   6.860   7.228   4.318 -1.6705  1.5173 -0.8594
  187POPC  C21321485   6.815   7.016   4.383  0.6806  0.5481  0.4649
  187POPC  H13R21486   6.921   6.990   4.405  1.0083  0.4270 -1.1485
  187POPC  H13S21487   6.763   6.935   4.328  1.6383  1.6198 -2.1600
  187POPC  C21421488   6.723   7.037   4.509 -0.5106 -0.0055  0.5453
  187POPC  H14R21489   6.709   6.943   4.566  0.5407 -0.4899  0.0356
  187POPC  H14S21490   6.625   7.076   4.472  0.2035  2.7649  1.2952
  187POPC  C21521491   6.784   7.157   4.594 -0.1143  0.3169 -0.1270
  187POPC  H15R21492   6.712   7.171   4.677  2.9036 -1.9191  3.1415
  187POPC  H15S21493   6.780   7.251   4.534  0.7208  1.6065  1.7339
  187POPC  C21621494   6.921   7.125   4.653 -0.3381 -0.4096 -0.1802
  187POPC  H16R21495   7.000   7.166   4.587 -0.9544 -1.4072 -1.5877
  187POPC  H16S21496   6.945   7.016   4.654  1.2797 -0.2148  4.1133
  187POPC  C21721497   6.932   7.156   4.805  0.2303 -0.6567 -0.3234
  187POPC  H17R21498   6.830   7.144   4.848  0.1722  2.4562  0.6017
  187POPC  H17S21499   6.976   7.258   4.810  0.9919 -1.0188  0.8262
  187POPC  C21821500   7.028   7.061   4.878 -0.1255  0.1751  0.1164
  187POPC  H18R21501   7.053   7.117   4.971 -1.7197  0.4798  0.4070
  187POPC  H18S21502   7.123   7.042   4.824  0.6120 -0.2888  1.5234
  187POPC  H18T21503   6.981   6.965   4.910  1.0287  0.2768  2.2792
  187POPC   C3321504   6.345   6.420   3.389  0.8736  0.4470  0.6473
  187POPC   H3X21505   6.283   6.468   3.467  0.3921 -0.2833  0.7208
  187POPC   H3Y21506   6.429   6.491   3.375  0.4411  0.5892 -1.4656
  187POPC   C3421507   6.394   6.286   3.435 -0.8333  0.6050 -0.5401
  187POPC   H4X21508   6.468   6.303   3.516 -0.6570  0.4806 -0.6735
  187POPC   H4Y21509   6.455   6.246   3.351 -0.4616  1.1549 -0.5383
  187POPC   C3521510   6.277   6.188   3.478 -0.2855 -0.8318 -0.1330
  187POPC   H5X21511   6.316   6.083   3.478  0.6666 -0.5096 -1.7094
  187POPC   H5Y21512   6.196   6.180   3.403  1.6513 -0.9615 -2.2997
  187POPC   C3621513   6.226   6.215   3.624 -0.1777 -0.5481  0.7435
  187POPC   H6X21514   6.136   6.156   3.651 -0.9016  1.0674  2.0459
  187POPC   H6Y21515   6.203   6.324   3.616  0.4493 -0.5046 -0.8807
  187POPC   C3721516   6.325   6.188   3.738 -0.1485 -0.4917  1.1706
  187POPC   H7X21517   6.424   6.237   3.727 -0.1205 -1.0726 -2.2682
  187POPC   H7Y21518   6.364   6.085   3.725 -0.3448 -0.4767  0.4323
  187POPC   C3821519   6.263   6.224   3.879  0.1372  0.5634  0.6025
  187POPC   H8X21520   6.175   6.157   3.891 -0.3823  0.6099 -2.1763
  187POPC   H8Y21521   6.243   6.334   3.878  0.5806  0.6450 -0.2322
  187POPC   C3921522   6.345   6.182   3.993  0.4699 -0.0086  0.5694
  187POPC   H9X21523   6.453   6.208   3.990  0.8628 -1.4849  1.1103
  187POPC   H9Y21524   6.356   6.072   3.989  2.2532  0.1673 -1.3478
  187POPC  C31021525   6.289   6.214   4.131 -0.0122  0.2010  0.1905
  187POPC  H10X21526   6.197   6.154   4.149 -0.2032  0.7497  1.0923
  187POPC  H10Y21527   6.258   6.320   4.126  0.5693  0.3324 -0.8762
  187POPC  C31121528   6.392   6.185   4.241 -0.4128  0.2962 -0.6736
  187POPC  H11X21529   6.488   6.236   4.220 -0.2055  0.7325  1.1463
  187POPC  H11Y21530   6.410   6.075   4.246 -2.5662 -0.0369  1.0904
  187POPC  C31221531   6.352   6.239   4.379  0.6431 -0.3599  0.4883
  187POPC  H12X21532   6.262   6.181   4.408 -1.4888  1.4561 -2.0355
  187POPC  H12Y21533   6.301   6.337   4.383 -1.6692 -1.5061  0.4524
  187POPC  C31321534   6.465   6.239   4.488  1.0301 -1.4132  0.2499
  187POPC  H13X21535   6.415   6.275   4.580  0.4313 -0.1877 -0.5305
  187POPC  H13Y21536   6.539   6.315   4.456 -1.6571  1.0088 -0.6121
  187POPC  C31421537   6.535   6.103   4.526 -0.2999 -0.4023 -0.8485
  187POPC  H14X21538   6.628   6.124   4.582 -1.1087  0.2481  0.2847
  187POPC  H14Y21539   6.572   6.058   4.431  3.9946  2.4309 -0.7700
  187POPC  C31521540   6.442   6.008   4.602  0.1180 -0.5580 -0.4418
  187POPC  H15X21541   6.346   5.995   4.549  0.3443  1.2648 -1.3818
  187POPC  H15Y21542   6.427   6.068   4.694 -0.7058  1.6237 -1.9369
  187POPC  C31621543   6.507   5.872   4.632  0.1787  0.4915  0.2660
  187POPC  H16X21544   6.522   5.808   4.542  1.2355 -0.6451  1.2204
  187POPC  H16Y21545   6.450   5.814   4.707  3.6561 -0.5948  2.2754
  187POPC  H16Z21546   6.602   5.884   4.688 -0.8249  0.0500  2.1399
  188POPC     N21547   1.384   5.123   2.924  0.0235 -0.1226 -0.0411
  188POPC   C1221548   1.280   5.162   3.024  0.1756 -0.0951 -0.1551
  188POPC  H12A21549   1.316   5.113   3.113  1.9023  1.6153  0.1387
  188POPC  H12B21550   1.178   5.137   2.998  0.0737 -1.0022  1.0544
  188POPC   C1321551   1.511   5.182   2.964  0.1176  0.0619 -0.9763
  188POPC  H13A21552   1.507   5.290   2.958 -1.6633  0.1099  0.2901
  188POPC  H13B21553   1.533   5.156   3.066 -3.1353 -0.1857 -0.2038
  188POPC  H13C21554   1.593   5.134   2.912  0.3149 -0.9977  0.2593
  188POPC   C1421555   1.398   4.971   2.929  0.3224 -0.5252  0.0222
  188POPC  H14A21556   1.301   4.927   2.911 -1.3895  3.2861 -1.0608
  188POPC  H14B21557   1.459   4.936   2.848  0.0384  0.4368 -0.6235
  188POPC  H14C21558   1.441   4.941   3.024 -2.2754  0.4494  1.6111
  188POPC   C1521559   1.341   5.166   2.785  0.2130 -0.5591 -0.2199
  188POPC  H15A21560   1.268   5.102   2.739  0.8749 -0.7951 -0.9667
  188POPC  H15B21561   1.416   5.165   2.708  1.2142 -0.4024  0.7141
  188POPC  H15C21562   1.292   5.262   2.791 -0.3721 -0.6601 -2.6259
  188POPC   C1121563   1.264   5.311   3.071 -0.2217  0.1833  0.3372
  188POPC  H11A21564   1.345   5.325   3.145 -0.3320 -0.0060  0.4951
  188POPC  H11B21565   1.170   5.307   3.130 -2.2398  0.7493 -2.6303
  188POPC     P21566   1.335   5.542   2.944  0.1312  0.1256 -0.1946
  188POPC   O1321567   1.278   5.626   2.836 -0.6162 -0.5157  0.0683
  188POPC   O1421568   1.478   5.499   2.911 -0.8405 -0.2650 -0.4206
  188POPC   O1221569   1.252   5.404   2.954  0.2900 -0.1152  0.0623
  188POPC   O1121570   1.322   5.615   3.085 -0.3538  0.8196 -0.5150
  188POPC    C121571   1.402   5.731   3.116  0.5697  0.4912  0.0217
  188POPC    HA21572   1.353   5.820   3.072  2.0699  0.8280 -1.0631
  188POPC    HB21573   1.501   5.727   3.065  0.6937  1.9414  0.1122
  188POPC    C221574   1.418   5.743   3.267  1.2225 -0.6056 -0.0946
  188POPC    HS21575   1.318   5.750   3.315  0.1294  1.2786 -2.4494
  188POPC   O2121576   1.489   5.868   3.291  0.5762  0.0363 -0.2374
  188POPC   C2121577   1.408   5.974   3.283 -0.8098  0.7426  0.2872
  188POPC   O2221578   1.284   5.974   3.283 -0.5158  0.3212  0.4035
  188POPC   C2221579   1.496   6.098   3.291 -0.3175  0.4499 -0.0125
  188POPC   H2R21580   1.460   6.157   3.204 -1.0650 -2.5148 -1.8830
  188POPC   H2S21581   1.606   6.080   3.287  0.0227  1.7262  2.0318
  188POPC    C321582   1.490   5.620   3.323 -0.4300  0.5764  0.3165
  188POPC    HX21583   1.591   5.623   3.278 -1.1845 -0.2270 -1.5239
  188POPC    HY21584   1.437   5.528   3.292  0.2241 -0.3696  1.9147
  188POPC   O3121585   1.491   5.623   3.462  0.0376 -0.2836 -0.1296
  188POPC   C3121586   1.589   5.554   3.521 -0.2684  0.1438  0.1370
  188POPC   O3221587   1.673   5.492   3.466  0.1289  0.9878 -0.0328
  188POPC   C3221588   1.575   5.583   3.671  0.2283  0.1128  0.2816
  188POPC   H2X21589   1.482   5.528   3.698  1.0225 -0.6177  1.6592
  188POPC   H2Y21590   1.567   5.689   3.702 -0.3365 -0.0664  0.7731
  188POPC   C2321591   1.477   6.152   3.433 -0.3522  1.0973  0.3183
  188POPC   H3R21592   1.370   6.143   3.462 -0.9253  2.8986 -1.0631
  188POPC   H3S21593   1.509   6.259   3.435  0.1749  0.9759 -0.8871
  188POPC   C2421594   1.558   6.072   3.539 -0.1965  0.0842 -0.5629
  188POPC   H4R21595   1.666   6.082   3.518 -0.0439 -1.4786 -0.6527
  188POPC   H4S21596   1.533   5.965   3.526  1.5642 -0.4643  0.2493
  188POPC   C2521597   1.513   6.104   3.684 -0.2312 -0.1337  0.6430
  188POPC   H5R21598   1.406   6.077   3.700 -0.2634  0.5165  1.5865
  188POPC   H5S21599   1.507   6.215   3.693 -1.0137  0.0184 -1.2124
  188POPC   C2621600   1.604   6.043   3.791  0.2175 -0.4521 -0.0415
  188POPC   H6R21601   1.710   6.073   3.775  0.3166 -1.4023 -1.4159
  188POPC   H6S21602   1.600   5.932   3.790 -0.4316 -0.4543 -1.7038
  188POPC   C2721603   1.558   6.081   3.937  0.1380 -0.2987  0.0792
  188POPC   H7R21604   1.468   6.016   3.943 -0.3331  0.3276 -0.0024
  188POPC   H7S21605   1.529   6.189   3.936  0.5633 -0.1724  0.8157
  188POPC   C2821606   1.675   6.042   4.027 -0.2094  0.0324 -0.2452
  188POPC   H8R21607   1.761   6.079   3.966  0.1336 -0.1843  0.1011
  188POPC   H8S21608   1.669   5.932   4.038 -1.6890  0.3523  3.1244
  188POPC   C2921609   1.693   6.105   4.158 -0.1862  1.0934 -0.4265
  188POPC   H9121610   1.671   6.212   4.159 -0.7188  1.0413 -2.0511
  188POPC  C21021611   1.728   6.039   4.274 -0.1026  0.5077 -0.7641
  188POPC  H10121612   1.731   6.106   4.361  0.3444 -0.0186 -0.3705
  188POPC  C21121613   1.749   5.889   4.298  0.1377  0.4126  0.7590
  188POPC  H11R21614   1.701   5.838   4.212  0.7803  3.4645 -1.5938
  188POPC  H11S21615   1.698   5.849   4.388 -1.3333 -0.4206 -0.3950
  188POPC  C21221616   1.893   5.848   4.312 -0.3782  0.3213 -0.1353
  188POPC  H12R21617   1.949   5.891   4.226  1.0441 -1.3802 -0.1415
  188POPC  H12S21618   1.891   5.740   4.286 -0.2177  0.6660 -1.7111
  188POPC  C21321619   1.950   5.867   4.453  0.7045  0.3603  0.2005
  188POPC  H13R21620   1.894   5.811   4.532 -0.2111 -1.4159 -1.6092
  188POPC  H13S21621   1.936   5.975   4.473 -0.9602  0.3466 -0.6783
  188POPC  C21421622   2.103   5.849   4.458 -0.3162  0.8196  0.9164
  188POPC  H14R21623   2.140   5.898   4.365 -1.0549  0.8221  0.6195
  188POPC  H14S21624   2.102   5.738   4.447 -2.0206  0.8933  0.0500
  188POPC  C21521625   2.174   5.895   4.580  0.6162  0.1025 -0.0396
  188POPC  H15R21626   2.155   6.004   4.593 -2.2526 -0.2572 -0.5710
  188POPC  H15S21627   2.282   5.888   4.556  0.7874  3.2296 -0.5890
  188POPC  C21621628   2.128   5.840   4.713  0.0337 -0.2460  0.0254
  188POPC  H16R21629   2.129   5.729   4.709  0.4293 -0.2516  0.2918
  188POPC  H16S21630   2.018   5.857   4.716 -0.1543 -1.1609 -1.1930
  188POPC  C21721631   2.197   5.897   4.834 -0.7608  0.4047 -0.3800
  188POPC  H17R21632   2.175   6.005   4.846  2.4270  1.1273 -0.3029
  188POPC  H17S21633   2.305   5.881   4.816 -0.5410 -1.4783  2.1967
  188POPC  C21821634   2.153   5.811   4.950  0.3772  0.7409 -0.8308
  188POPC  H18R21635   2.172   5.703   4.930 -0.2558  0.4810 -0.0714
  188POPC  H18S21636   2.045   5.828   4.972  0.5952 -1.2272  2.3739
  188POPC  H18T21637   2.205   5.838   5.045 -0.4099 -0.2735 -0.0859
  188POPC   C3321638   1.690   5.516   3.746 -0.1881 -0.0627  0.5496
  188POPC   H3X21639   1.791   5.558   3.724 -0.8385  1.7879  0.9451
  188POPC   H3Y21640   1.702   5.408   3.721  0.0718  0.6879 -3.1584
  188POPC   C3421641   1.661   5.529   3.892 -0.2659 -0.3570  0.0160
  188POPC   H4X21642   1.558   5.499   3.922  0.3825 -1.3004  1.4149
  188POPC   H4Y21643   1.665   5.638   3.915 -0.0227 -0.4175  0.2599
  188POPC   C3521644   1.771   5.458   3.971  0.1156  0.0358 -0.0213
  188POPC   H5X21645   1.872   5.489   3.937  0.3980 -0.3357  0.4647
  188POPC   H5Y21646   1.757   5.349   3.954  0.5681 -0.0982  0.4381
  188POPC   C3621647   1.758   5.478   4.124  0.1169 -0.9800  0.0096
  188POPC   H6X21648   1.662   5.426   4.142 -0.0427 -0.5647  0.3776
  188POPC   H6Y21649   1.746   5.587   4.145  1.1437 -0.8496 -0.0090
  188POPC   C3721650   1.865   5.422   4.215 -0.4776 -0.3652  0.5955
  188POPC   H7X21651   1.964   5.461   4.182 -1.7523  2.0695 -0.7023
  188POPC   H7Y21652   1.869   5.315   4.188  3.7465  0.1423 -1.5908
  188POPC   C3821653   1.848   5.463   4.358 -0.4654  0.0036 -0.1161
  188POPC   H8X21654   1.747   5.436   4.394 -0.3968  0.6710  0.6147
  188POPC   H8Y21655   1.841   5.570   4.387 -3.4068 -0.4179  1.0869
  188POPC   C3921656   1.951   5.394   4.450  0.1271  0.1219  0.2162
  188POPC   H9X21657   2.057   5.420   4.429 -0.7658  2.3901 -2.0541
  188POPC   H9Y21658   1.933   5.284   4.447 -1.2975  0.3277  0.2478
  188POPC  C31021659   1.913   5.425   4.598  0.0566  0.3655  0.3988
  188POPC  H10X21660   1.806   5.401   4.615 -0.1732 -1.4518 -2.7847
  188POPC  H10Y21661   1.939   5.531   4.616 -0.8021  0.4002  1.5154
  188POPC  C31121662   1.998   5.335   4.700  0.6132  0.7001  0.3502
  188POPC  H11X21663   1.987   5.232   4.660 -5.7039  1.4951 -1.1406
  188POPC  H11Y21664   1.955   5.336   4.803  1.2251  0.0829  0.6162
  188POPC  C31221665   2.145   5.381   4.720 -0.4883 -0.2972 -0.1491
  188POPC  H12X21666   2.151   5.491   4.735  1.3842 -0.5357  1.2312
  188POPC  H12Y21667   2.204   5.360   4.628 -2.0709  0.6034 -1.4265
  188POPC  C31321668   2.217   5.333   4.848  0.0221 -0.2598 -1.0800
  188POPC  H13X21669   2.147   5.364   4.929 -2.2806  0.0263 -3.0670
  188POPC  H13Y21670   2.299   5.405   4.868 -1.6094  1.3156  0.3039
  188POPC  C31421671   2.245   5.182   4.867  0.5024 -0.0729  0.2632
  188POPC  H14X21672   2.319   5.152   4.790 -0.1769 -0.8403 -0.1020
  188POPC  H14Y21673   2.149   5.128   4.857  0.2782  0.0652  1.5302
  188POPC  C31521674   2.311   5.145   5.001  0.3444  0.7950  0.5656
  188POPC  H15X21675   2.244   5.182   5.082 -2.6573  1.7078 -2.1349
  188POPC  H15Y21676   2.408   5.197   5.017  0.4172  0.7803  0.1805
  188POPC  C31621677   2.338   4.997   5.012  0.0106  0.3866 -0.0834
  188POPC  H16X21678   2.246   4.943   4.980 -0.5645 -0.3169  2.4827
  188POPC  H16Y21679   2.369   4.959   5.112 -1.2543  1.0108  0.5652
  188POPC  H16Z21680   2.421   4.978   4.941  0.2968 -0.1556  0.3815
  189SAPI   C1221681   1.234   1.598   7.304  0.3586 -0.2039 -0.2739
  189SAPI    H221682   1.290   1.618   7.210 -0.0839  0.7867 -0.3325
  189SAPI    O221683   1.197   1.721   7.359 -0.1425 -0.5998  0.3425
  189SAPI   HO221684   1.265   1.781   7.326 -0.3117 -0.6641 -0.1290
  189SAPI   C1321685   1.110   1.507   7.273  0.4700 -0.2112  0.1814
  189SAPI    H321686   1.156   1.422   7.220  0.2831  1.2355 -2.5012
  189SAPI    O321687   1.015   1.555   7.179  0.4091 -0.2416  0.2305
  189SAPI   HO321688   0.980   1.637   7.215  1.3306 -0.0335  0.6770
  189SAPI   C1421689   1.051   1.469   7.408 -0.4704  0.4381 -0.0447
  189SAPI    H421690   0.981   1.550   7.440 -2.4774 -1.4226  0.5422
  189SAPI    O421691   0.970   1.355   7.386 -0.2628 -0.0892  0.0152
  189SAPI   HO421692   1.034   1.284   7.380  1.3490  1.1781  1.3292
  189SAPI   C1521693   1.147   1.450   7.528  0.5484  0.2818 -0.4216
  189SAPI    H521694   1.145   1.339   7.532 -2.4747  0.2752  0.6862
  189SAPI    O521695   1.090   1.497   7.654  0.1044 -0.0407  0.7398
  189SAPI   HO521696   1.059   1.418   7.698 -1.1095 -0.4782 -0.8097
  189SAPI   C1621697   1.297   1.493   7.519 -0.7566 -0.2304  0.2556
  189SAPI    H621698   1.309   1.588   7.574 -1.1032 -1.2659  2.1921
  189SAPI    O621699   1.373   1.395   7.591  0.1685 -0.4255 -0.8127
  189SAPI   HO621700   1.459   1.389   7.549  0.6491 -1.0557  0.2102
  189SAPI   C1121701   1.341   1.518   7.375  0.1148  0.0620  0.1034
  189SAPI    H121702   1.351   1.417   7.329 -0.1208  0.4326 -0.7716
  189SAPI     P21703   1.611   1.516   7.380  0.1705 -0.0962  0.2043
  189SAPI   O1321704   1.615   1.412   7.487  0.3797  0.0396  0.0488
  189SAPI   O1421705   1.714   1.622   7.391  0.1609 -0.0179  0.0430
  189SAPI   O1221706   1.471   1.592   7.379  0.2220  0.0061 -0.4662
  189SAPI   O1121707   1.620   1.441   7.241 -0.2743 -0.5127  0.0314
  189SAPI    C121708   1.576   1.539   7.136 -0.8479 -0.3265  0.0265
  189SAPI    HA21709   1.466   1.545   7.119 -1.0588 -3.9048 -0.6382
  189SAPI    HB21710   1.601   1.645   7.156 -0.0256 -0.1662 -1.7042
  189SAPI    C221711   1.631   1.510   6.994 -0.8582 -0.5489 -0.2868
  189SAPI    HS21712   1.610   1.606   6.942  0.0128 -0.8578 -1.2363
  189SAPI   O2121713   1.582   1.397   6.925  0.5364 -0.4853  0.3461
  189SAPI   C2121714   1.460   1.418   6.879  0.0556 -0.2439  0.1859
  189SAPI   O2221715   1.407   1.530   6.882  0.6902  0.5668  0.0869
  189SAPI   C2221716   1.406   1.292   6.813  0.1044  0.2905  0.2402
  189SAPI   H2R21717   1.415   1.212   6.889 -0.6007  0.5757  0.6362
  189SAPI   H2S21718   1.297   1.302   6.792 -0.3131 -1.1802  1.5296
  189SAPI    C321719   1.790   1.508   6.995  0.5106 -0.4423 -1.0425
  189SAPI    HX21720   1.818   1.417   7.052 -0.3933  0.6240  1.2365
  189SAPI    HY21721   1.817   1.597   7.056  2.5421 -2.3471  1.0188
  189SAPI   O3121722   1.837   1.511   6.863 -0.0829  0.9100 -0.3274
  189SAPI   C3121723   1.867   1.408   6.799 -0.2917  0.2255  0.5440
  189SAPI   O3221724   1.881   1.292   6.840  0.3824 -0.6932 -0.5861
  189SAPI   C3221725   1.893   1.458   6.648 -0.1540  0.3421 -0.5900
  189SAPI   H2X21726   1.999   1.492   6.645 -0.2856  0.7241 -0.9518
  189SAPI   H2Y21727   1.834   1.552   6.639  0.5295  0.8128 -0.2923
  189SAPI   C2321728   1.486   1.240   6.690 -0.4619 -0.8449  0.2738
  189SAPI   H3R21729   1.450   1.139   6.664 -1.2891 -0.4279 -0.2367
  189SAPI   H3S21730   1.591   1.235   6.726 -0.4863 -0.3790  0.4180
  189SAPI   C2421731   1.493   1.337   6.568  0.3292  0.3083  0.9509
  189SAPI   H4R21732   1.543   1.270   6.494 -1.6372 -0.4157  0.2020
  189SAPI   H4S21733   1.551   1.429   6.587  0.5069  0.2763  0.5807
  189SAPI   C2521734   1.357   1.369   6.509  0.1245  0.0044  0.5484
  189SAPI   H5R21735   1.289   1.436   6.563 -1.6984  0.6170 -2.2876
  189SAPI   C2621736   1.320   1.334   6.383  0.1320  0.1982 -0.0982
  189SAPI   H6R21737   1.226   1.369   6.339 -0.0570 -0.5543 -0.3070
  189SAPI   C2721738   1.414   1.260   6.284 -0.5416  0.4514 -0.0003
  189SAPI   H7R21739   1.516   1.293   6.310 -0.4421  1.4940 -1.5893
  189SAPI   H7S21740   1.387   1.300   6.184 -2.1323  0.3384  0.3493
  189SAPI   C2821741   1.391   1.112   6.298  0.5388  0.0968 -0.1108
  189SAPI   H8R21742   1.358   1.082   6.398 -0.3180  1.8816  0.1875
  189SAPI   C2921743   1.430   1.018   6.212 -0.2074 -0.1448  0.1639
  189SAPI   H9R21744   1.407   0.918   6.252  0.5170  0.6345  2.7921
  189SAPI  C21021745   1.496   1.021   6.077  0.0579  0.2910 -0.6392
  189SAPI  H10R21746   1.604   1.020   6.104 -0.1963 -1.8358  0.4290
  189SAPI  H10S21747   1.463   1.115   6.028  0.1852  2.1996  2.6385
  189SAPI  C21121748   1.454   0.893   6.000 -0.2499  0.7823  0.1906
  189SAPI  H11R21749   1.355   0.855   6.027  0.4565 -0.4208  1.1913
  189SAPI  C21221750   1.520   0.817   5.909  0.2368 -0.3155 -0.4947
  189SAPI  H12R21751   1.461   0.736   5.864  1.4677 -1.2734 -0.4283
  189SAPI  C21321752   1.659   0.839   5.852  0.5702 -0.3593 -0.1030
  189SAPI  H13R21753   1.704   0.739   5.833  1.3833 -0.4455  2.0019
  189SAPI  H13S21754   1.722   0.886   5.931  0.2036 -3.6767  2.3908
  189SAPI  C21421755   1.663   0.936   5.731 -0.6016 -0.0776  0.1867
  189SAPI  H14R21756   1.613   1.032   5.749 -0.4190 -0.2907  1.9610
  189SAPI  C21521757   1.743   0.912   5.621  0.2718 -0.7453 -0.7563
  189SAPI  H15R21758   1.754   0.995   5.550  0.8437 -0.5841 -0.4889
  189SAPI  C21621759   1.835   0.792   5.594 -0.0636 -0.2913 -0.1023
  189SAPI  H16R21760   1.864   0.726   5.678 -0.1699 -0.8904 -0.5279
  189SAPI  H16S21761   1.932   0.822   5.548 -0.7327  1.2905 -0.5588
  189SAPI  C21721762   1.770   0.696   5.488  0.4180 -0.3666  1.0808
  189SAPI  H17R21763   1.842   0.619   5.452  0.6239  0.7072 -0.9690
  189SAPI  H17S21764   1.749   0.764   5.403  1.0487 -0.8138  0.5500
  189SAPI  C21821765   1.634   0.640   5.536  0.3580  0.2951 -0.4191
  189SAPI  H18R21766   1.563   0.724   5.553 -2.3659 -1.5474 -2.0074
  189SAPI  H18S21767   1.650   0.576   5.625 -1.6631 -0.1262 -0.3032
  189SAPI  C21921768   1.573   0.553   5.426  0.3849  0.7338  0.2295
  189SAPI  H19R21769   1.492   0.489   5.465  1.1428 -1.6726 -1.8801
  189SAPI  H19S21770   1.651   0.480   5.396 -1.0548 -1.3432  1.3231
  189SAPI  C22021771   1.532   0.631   5.304  0.2814 -0.3578 -0.3901
  189SAPI  H20R21772   1.457   0.711   5.325  0.7667 -0.0405  0.1521
  189SAPI  H20S21773   1.482   0.575   5.222  1.2894  2.3245 -3.0720
  189SAPI  H20T21774   1.623   0.672   5.255  0.4055 -2.2326 -1.8345
  189SAPI   C3321775   1.855   1.359   6.528  0.5859  0.6937 -0.7553
  189SAPI   H3X21776   1.854   1.417   6.433  0.4747  0.9092 -0.6256
  189SAPI   H3Y21777   1.756   1.311   6.538  0.0944  1.8808  0.3415
  189SAPI   C3421778   1.963   1.251   6.510 -0.8067 -0.4194  0.9739
  189SAPI   H4X21779   2.032   1.246   6.597 -0.2491 -1.0663  0.5100
  189SAPI   H4Y21780   2.022   1.279   6.420  0.6904 -2.9885  1.0441
  189SAPI   C3521781   1.899   1.110   6.490  0.5626 -0.0820  0.0152
  189SAPI   H5X21782   1.824   1.096   6.570  0.3044 -2.3717 -0.5601
  189SAPI   H5Y21783   1.982   1.036   6.499  2.0476  1.5541  0.4876
  189SAPI   C3621784   1.830   1.085   6.351  0.1912  0.5293  0.4756
  189SAPI   H6X21785   1.801   1.182   6.307 -1.3441  0.1485  0.5956
  189SAPI   H6Y21786   1.749   1.009   6.353 -0.2743  1.0341  1.2942
  189SAPI   C3721787   1.944   1.031   6.256  0.1297  0.2035  0.9504
  189SAPI   H7X21788   1.993   0.945   6.306 -0.0756 -0.2162  0.4534
  189SAPI   H7Y21789   2.023   1.108   6.248  0.8477 -0.4385  1.6916
  189SAPI   C3821790   1.909   0.989   6.114  0.6079 -0.1245 -0.6369
  189SAPI   H8X21791   1.873   1.070   6.047 -0.5930  0.2491  0.4217
  189SAPI   H8Y21792   1.834   0.908   6.106 -1.8398  2.0203 -0.6684
  189SAPI   C3921793   2.040   0.949   6.041  0.3766  0.1150 -0.3435
  189SAPI   H9X21794   2.079   0.861   6.096 -0.6893 -0.2394 -0.1379
  189SAPI   H9Y21795   2.107   1.039   6.047  1.2503 -0.6098  2.8406
  189SAPI  C31021796   2.015   0.911   5.894  0.3783  0.5265 -0.0238
  189SAPI  H10X21797   1.959   0.998   5.854  0.8858  1.1404  0.5744
  189SAPI  H10Y21798   1.953   0.820   5.880  1.3355 -0.2422  0.6176
  189SAPI  C31121799   2.146   0.903   5.817 -0.3169  0.2870  0.2887
  189SAPI  H11X21800   2.196   1.001   5.832  0.4179 -0.2545  1.4829
  189SAPI  H11Y21801   2.119   0.880   5.711 -1.3110  1.0587  0.3551
  189SAPI  C31221802   2.238   0.785   5.857  0.3756 -0.6005  0.1815
  189SAPI  H12X21803   2.178   0.692   5.869  1.1171 -1.2300 -0.7140
  189SAPI  H12Y21804   2.283   0.818   5.953  0.5418  0.4227 -0.2427
  189SAPI  C31321805   2.353   0.745   5.758 -0.4917  0.3433  0.2650
  189SAPI  H13X21806   2.436   0.704   5.820 -0.3361 -2.7721 -1.7912
  189SAPI  H13Y21807   2.393   0.822   5.689 -0.6056 -1.2084 -1.5974
  189SAPI  C31421808   2.311   0.627   5.666 -0.0560  0.1418 -0.6396
  189SAPI  H14X21809   2.247   0.554   5.719  0.0396 -0.3155 -1.1508
  189SAPI  H14Y21810   2.402   0.579   5.624  1.0068 -0.2275  1.8873
  189SAPI  C31521811   2.242   0.666   5.543 -0.6036 -0.0192  0.2927
  189SAPI  H15X21812   2.318   0.723   5.486 -2.0140  2.2067  0.5225
  189SAPI  H15Y21813   2.153   0.732   5.550  0.6595  1.8751 -0.6244
  189SAPI  C31621814   2.204   0.534   5.466 -0.5966  0.1997 -0.2362
  189SAPI  H16X21815   2.131   0.484   5.533 -0.6097  0.5804  0.0391
  189SAPI  H16Y21816   2.293   0.467   5.457  0.6417  1.7453 -0.0266
  189SAPI  C31721817   2.152   0.552   5.321 -0.8686 -0.6187  0.5061
  189SAPI  H17X21818   2.227   0.624   5.283 -0.1655 -0.3556  2.3196
  189SAPI  H17Y21819   2.057   0.608   5.335 -0.6654 -0.5704  1.7347
  189SAPI  C31821820   2.143   0.418   5.243 -0.3095 -0.1695  0.7398
  189SAPI  H18X21821   2.246   0.379   5.230  0.1408  1.3186 -0.4265
  189SAPI  H18Y21822   2.100   0.419   5.140  0.1533 -0.5099  0.5395
  189SAPI  H18Z21823   2.087   0.344   5.304 -2.7218  3.3839  3.1943
  190SAPI   C1221824   2.849   5.697   7.536  0.5404 -0.1178  0.3650
  190SAPI    H221825   2.825   5.604   7.591 -0.7416 -0.3795 -0.5877
  190SAPI    O221826   2.890   5.652   7.406  0.0512 -0.0943  0.1053
  190SAPI   HO221827   2.929   5.565   7.409  3.1859  1.1386 -0.7942
  190SAPI   C1321828   2.727   5.780   7.533  0.3338 -0.2722  0.3082
  190SAPI    H321829   2.713   5.832   7.630 -0.9734  1.5512 -0.7933
  190SAPI    O321830   2.614   5.699   7.500  0.1689 -0.4608 -0.6390
  190SAPI   HO321831   2.537   5.748   7.529  2.1889  2.4425  0.2621
  190SAPI   C1421832   2.746   5.898   7.440  0.7199 -0.6982  0.6933
  190SAPI    H421833   2.762   5.856   7.339  2.2138 -2.0087  1.4336
  190SAPI    O421834   2.627   5.978   7.428  0.6110  0.1565 -0.5042
  190SAPI   HO421835   2.571   5.952   7.354  0.5296 -0.4914 -0.2171
  190SAPI   C1521836   2.873   5.984   7.465 -0.0173 -0.4413  0.1151
  190SAPI    H521837   2.836   6.056   7.541 -2.1491 -0.4312 -0.8479
  190SAPI    O521838   2.916   6.059   7.351  0.1402  0.5638 -0.3788
  190SAPI   HO521839   2.894   6.152   7.345  0.7135  0.6222 -2.0406
  190SAPI   C1621840   2.993   5.906   7.527  0.1252  0.0573  0.3000
  190SAPI    H621841   3.062   5.881   7.444  1.2622  0.1901  1.1877
  190SAPI    O621842   3.072   5.983   7.611  0.9319 -0.0715 -0.3888
  190SAPI   HO621843   3.161   5.957   7.586  0.0965 -1.3586 -2.3721
  190SAPI   C1121844   2.964   5.773   7.601  0.4981  0.2997  0.2136
  190SAPI    H121845   2.932   5.801   7.704  1.7159 -0.0543  0.7104
  190SAPI     P21846   3.098   5.578   7.721 -0.0042 -0.0790  0.1533
  190SAPI   O1321847   2.985   5.574   7.817  0.2382  0.2697  0.5129
  190SAPI   O1421848   3.238   5.571   7.774 -0.2749 -0.4244 -0.2617
  190SAPI   O1221849   3.081   5.699   7.613 -0.4059 -0.0069  0.6571
  190SAPI   O1121850   3.072   5.451   7.633 -0.1995  0.0478 -0.0356
  190SAPI    C121851   3.148   5.425   7.512  0.0477 -0.2252 -0.0970
  190SAPI    HA21852   3.179   5.523   7.471  1.8321 -0.1476  1.2932
  190SAPI    HB21853   3.245   5.373   7.527 -0.1199 -0.2076  1.1559
  190SAPI    C221854   3.070   5.339   7.406  0.5237 -0.5167 -0.0650
  190SAPI    HS21855   3.121   5.244   7.379 -2.0275 -1.4432 -2.1399
  190SAPI   O2121856   3.042   5.426   7.290  0.2772 -0.0685 -0.7193
  190SAPI   C2121857   3.148   5.456   7.211  0.2446 -0.0216  0.4587
  190SAPI   O2221858   3.256   5.414   7.222 -0.1114  0.0471 -0.4467
  190SAPI   C2221859   3.106   5.564   7.115  0.3791  0.1484 -0.4856
  190SAPI   H2R21860   3.025   5.519   7.054  0.8249  0.1754 -1.1087
  190SAPI   H2S21861   3.065   5.650   7.172 -1.9840 -1.8176  0.9356
  190SAPI    C321862   2.928   5.295   7.458  0.1136  0.2241  0.1763
  190SAPI    HX21863   2.867   5.381   7.493  0.7500  0.3664  0.9614
  190SAPI    HY21864   2.945   5.247   7.557 -0.3561  0.0641  0.1857
  190SAPI   O3121865   2.859   5.196   7.376 -0.2903 -0.6158 -0.4387
  190SAPI   C3121866   2.776   5.246   7.291 -0.6476  0.3172  0.3036
  190SAPI   O3221867   2.761   5.364   7.271  0.4665  0.3885 -0.3395
  190SAPI   C3221868   2.709   5.129   7.223 -0.7326  0.0939  0.3785
  190SAPI   H2X21869   2.622   5.103   7.287  0.0151 -0.2449  1.2863
  190SAPI   H2Y21870   2.775   5.040   7.227 -0.0347  0.5872  0.1013
  190SAPI   C2321871   3.213   5.602   7.018 -1.0641 -0.3872  0.4140
  190SAPI   H3R21872   3.295   5.647   7.078  0.2247 -3.0194  0.7493
  190SAPI   H3S21873   3.186   5.689   6.953  0.7476  0.2853  0.5142
  190SAPI   C2421874   3.253   5.486   6.914 -0.6369  0.1622 -0.3140
  190SAPI   H4R21875   3.190   5.487   6.823 -1.0793  1.6919 -0.0208
  190SAPI   H4S21876   3.227   5.392   6.966  0.2365  0.1082  0.0480
  190SAPI   C2521877   3.395   5.500   6.879 -0.0528 -0.4910 -0.9333
  190SAPI   H5R21878   3.468   5.470   6.955  2.4974  0.9637 -2.6550
  190SAPI   C2621879   3.457   5.543   6.770  0.0998  0.1141  0.3928
  190SAPI   H6R21880   3.567   5.539   6.769  0.0584 -1.5594 -0.2666
  190SAPI   C2721881   3.400   5.585   6.633 -0.6099 -0.4900  0.3749
  190SAPI   H7R21882   3.289   5.577   6.631 -0.8144  0.7021  2.8904
  190SAPI   H7S21883   3.438   5.503   6.568  0.6476  0.3803 -0.0370
  190SAPI   C2821884   3.453   5.722   6.585  0.4300 -0.0250  0.1568
  190SAPI   H8R21885   3.390   5.806   6.618 -0.8519 -1.7368  2.3218
  190SAPI   C2921886   3.563   5.745   6.514 -0.4573 -0.7108 -0.3175
  190SAPI   H9R21887   3.575   5.847   6.474 -2.5871 -0.6876 -0.9852
  190SAPI  C21021888   3.684   5.661   6.484 -0.0860 -0.1485 -0.3118
  190SAPI  H10R21889   3.728   5.619   6.577 -0.7230 -0.4714 -0.1507
  190SAPI  H10S21890   3.758   5.728   6.437  0.6703 -0.8977 -0.2090
  190SAPI  C21121891   3.646   5.556   6.380 -1.2605 -0.2548  0.2566
  190SAPI  H11R21892   3.618   5.453   6.410 -1.8423 -0.8105 -1.9899
  190SAPI  C21221893   3.633   5.576   6.248 -0.1372  0.2034 -0.3941
  190SAPI  H12R21894   3.616   5.486   6.187  0.9552 -1.3653  1.5002
  190SAPI  C21321895   3.660   5.698   6.172  0.5205  0.0627  0.0216
  190SAPI  H13R21896   3.697   5.652   6.078  1.0298 -1.7976  1.0858
  190SAPI  H13S21897   3.749   5.750   6.213 -0.3810 -0.3915  2.7266
  190SAPI  C21421898   3.556   5.807   6.151  0.5115  0.3014  0.2482
  190SAPI  H14R21899   3.509   5.856   6.238  1.1925  0.4340  0.5464
  190SAPI  C21521900   3.494   5.831   6.033 -0.3990 -0.1686 -0.0658
  190SAPI  H15R21901   3.425   5.916   6.035  1.1703  1.1531  1.9091
  190SAPI  C21621902   3.515   5.767   5.897 -0.0142  0.0269  0.0482
  190SAPI  H16R21903   3.444   5.681   5.894  1.5432 -1.3790  1.6013
  190SAPI  H16S21904   3.617   5.723   5.895  0.1201  0.0601  2.6766
  190SAPI  C21721905   3.483   5.865   5.788 -0.3752  0.2184  0.3302
  190SAPI  H17R21906   3.538   5.961   5.801  0.5769  0.0121 -1.6635
  190SAPI  H17S21907   3.378   5.897   5.773 -0.9806 -1.4786  0.8075
  190SAPI  C21821908   3.534   5.816   5.647  0.2970 -0.4824  0.3496
  190SAPI  H18R21909   3.472   5.734   5.603 -1.2214  2.4493 -3.5643
  190SAPI  H18S21910   3.638   5.778   5.658  0.7222  0.5060 -0.1110
  190SAPI  C21921911   3.537   5.928   5.550 -0.1128 -0.2801  0.9342
  190SAPI  H19R21912   3.537   6.023   5.607 -0.4311  1.7865 -2.3188
  190SAPI  H19S21913   3.452   5.932   5.479  1.0641  0.3574 -0.4868
  190SAPI  C22021914   3.667   5.939   5.463  0.0828  0.3449 -0.8967
  190SAPI  H20R21915   3.686   5.850   5.400  0.5375 -0.0206 -0.2565
  190SAPI  H20S21916   3.754   5.937   5.533  0.8750 -0.1947 -1.8736
  190SAPI  H20T21917   3.670   6.031   5.401  2.5690  2.7893  2.4461
  190SAPI   C3321918   2.661   5.148   7.077  0.3181 -0.1091 -0.1998
  190SAPI   H3X21919   2.613   5.246   7.062  0.0299  0.4488  3.4911
  190SAPI   H3Y21920   2.582   5.073   7.055 -1.0277  1.0399  0.6232
  190SAPI   C3421921   2.767   5.132   6.968  0.4172 -0.4409  0.3288
  190SAPI   H4X21922   2.720   5.128   6.867 -1.7681 -1.2833  1.3305
  190SAPI   H4Y21923   2.818   5.034   6.975 -0.7759 -0.9967  1.6725
  190SAPI   C3521924   2.888   5.234   6.976 -1.3114  0.4554  0.2576
  190SAPI   H5X21925   2.945   5.237   7.071  0.9296 -0.5993 -0.9720
  190SAPI   H5Y21926   2.836   5.332   6.978 -2.6442 -0.2238  0.9604
  190SAPI   C3621927   2.981   5.236   6.853 -0.1071  0.0110 -0.0522
  190SAPI   H6X21928   3.007   5.132   6.822 -1.1805  0.1993 -1.7209
  190SAPI   H6Y21929   3.070   5.300   6.873 -1.8242  3.0433 -1.5108
  190SAPI   C3721930   2.922   5.311   6.733 -0.0625 -0.4134  1.0538
  190SAPI   H7X21931   2.896   5.417   6.754 -3.9624 -0.8679 -0.5725
  190SAPI   H7Y21932   2.823   5.281   6.693  0.6012  1.0760 -1.9874
  190SAPI   C3821933   3.026   5.316   6.620  0.3020  0.0469  0.0742
  190SAPI   H8X21934   3.022   5.215   6.574 -0.4567 -0.1226  0.4947
  190SAPI   H8Y21935   3.131   5.339   6.649  1.1191 -1.4869 -1.4963
  190SAPI   C3921936   2.997   5.423   6.517  0.3745 -0.3358 -0.7463
  190SAPI   H9X21937   2.996   5.526   6.558  2.1665 -0.6430  0.1909
  190SAPI   H9Y21938   2.893   5.416   6.478  0.1816  0.7614 -0.4615
  190SAPI  C31021939   3.089   5.414   6.393  0.8944  0.3678 -0.8105
  190SAPI  H10X21940   3.100   5.307   6.365  1.4004  0.1644  0.1285
  190SAPI  H10Y21941   3.184   5.458   6.429  0.2956  0.9010  0.1727
  190SAPI  C31121942   3.046   5.501   6.280 -0.2554  0.2556 -0.0016
  190SAPI  H11X21943   3.033   5.611   6.290 -0.7659  0.2186 -0.2488
  190SAPI  H11Y21944   2.942   5.476   6.251 -0.8334  3.8166 -1.4874
  190SAPI  C31221945   3.136   5.467   6.159 -0.5031 -0.6006 -0.1555
  190SAPI  H12X21946   3.146   5.356   6.154  2.4541 -0.4802  1.2335
  190SAPI  H12Y21947   3.228   5.518   6.195 -0.9380  2.4360 -2.8746
  190SAPI  C31321948   3.072   5.540   6.037 -0.7032  0.3361 -0.4179
  190SAPI  H13X21949   2.964   5.558   6.049 -0.8561 -0.2875 -0.8147
  190SAPI  H13Y21950   3.080   5.473   5.948 -0.4408  0.6900 -0.6663
  190SAPI  C31421951   3.156   5.671   6.016  0.0689 -0.3509  0.6473
  190SAPI  H14X21952   3.260   5.653   5.982  0.3902 -0.1007  1.4701
  190SAPI  H14Y21953   3.155   5.728   6.112  2.1806 -0.6214  0.8680
  190SAPI  C31521954   3.088   5.771   5.916 -0.2021  0.2153  0.5591
  190SAPI  H15X21955   3.156   5.858   5.930  1.8705 -1.5909  2.7051
  190SAPI  H15Y21956   2.983   5.780   5.951 -0.2087 -0.3458  0.6886
  190SAPI  C31621957   3.103   5.727   5.765 -0.0883  0.2742  0.1623
  190SAPI  H16X21958   3.029   5.651   5.732 -0.4327  0.6127  0.1539
  190SAPI  H16Y21959   3.205   5.684   5.768 -0.8247 -1.5167  0.9831
  190SAPI  C31721960   3.070   5.848   5.682  0.1101  0.4741 -0.1761
  190SAPI  H17X21961   3.111   5.938   5.732 -2.7946  1.6303  0.3401
  190SAPI  H17Y21962   2.960   5.865   5.675  0.0964  0.5242  0.1454
  190SAPI  C31821963   3.132   5.845   5.546  0.5772 -0.2777  0.1940
  190SAPI  H18X21964   3.083   5.761   5.492  0.4797 -0.0084 -0.1440
  190SAPI  H18Y21965   3.242   5.846   5.559  0.4784 -1.3181  1.2539
  190SAPI  H18Z21966   3.112   5.939   5.491 -1.8417 -0.8615 -0.0460
  191SAPI   C1221967   5.730   4.832   3.323  0.2644  0.1394 -0.2603
  191SAPI    H221968   5.705   4.892   3.413  2.4027  0.6444  0.0449
  191SAPI    O221969   5.844   4.892   3.261  0.8409 -0.2895 -0.4239
  191SAPI   HO221970   5.828   4.981   3.229  0.7424  0.0797  0.6115
  191SAPI   C1321971   5.755   4.687   3.356  0.4289 -0.3507  0.2822
  191SAPI    H321972   5.661   4.634   3.382  0.8388 -0.8743  0.7131
  191SAPI    O321973   5.848   4.678   3.464 -0.3903  0.1733  0.4124
  191SAPI   HO321974   5.799   4.621   3.525  0.1145 -2.2182 -1.3020
  191SAPI   C1421975   5.803   4.620   3.225  0.2818 -0.3788 -0.4165
  191SAPI    H421976   5.893   4.670   3.183 -0.1078 -1.0432 -2.1153
  191SAPI    O421977   5.841   4.483   3.249 -0.2665  0.2211  0.8840
  191SAPI   HO421978   5.881   4.483   3.336 -0.2426 -1.5758  0.9059
  191SAPI   C1521979   5.697   4.634   3.107  0.3293  0.8406 -0.0681
  191SAPI    H521980   5.616   4.564   3.139  2.1633 -0.1588  2.7504
  191SAPI    O521981   5.744   4.574   2.982 -0.2535 -0.3823 -0.3008
  191SAPI   HO521982   5.672   4.532   2.933  0.9797  0.5679 -3.1615
  191SAPI   C1621983   5.630   4.769   3.097  0.7267  0.1220 -0.3114
  191SAPI    H621984   5.708   4.829   3.045 -0.9103  1.1406 -1.7010
  191SAPI    O621985   5.514   4.761   3.013  0.0791  0.0514  0.0380
  191SAPI   HO621986   5.561   4.771   2.929  1.5289 -1.3644  0.6366
  191SAPI   C1121987   5.607   4.834   3.236 -0.2750  0.4384 -0.4128
  191SAPI    H121988   5.526   4.772   3.278 -0.9960  0.1950 -2.0677
  191SAPI     P21989   5.431   5.035   3.279 -0.1758  0.3750  0.3711
  191SAPI   O1321990   5.317   4.940   3.275 -0.3442 -0.8428 -0.7208
  191SAPI   O1421991   5.415   5.164   3.205 -0.5121  0.5107 -0.3848
  191SAPI   O1221992   5.564   4.963   3.207 -0.4589 -0.1577 -0.1658
  191SAPI   O1121993   5.477   5.062   3.425  0.1950 -0.2197 -0.3096
  191SAPI    C121994   5.534   5.189   3.464 -0.1106 -0.4907 -0.2539
  191SAPI    HA21995   5.628   5.171   3.520  0.8678 -2.3462 -2.3559
  191SAPI    HB21996   5.578   5.241   3.376  0.0041  1.3268  0.8145
  191SAPI    C221997   5.453   5.290   3.541  0.7300 -0.2290 -0.1271
  191SAPI    HS21998   5.528   5.358   3.585  1.2359  0.3344 -1.7862
  191SAPI   O2121999   5.361   5.237   3.638 -0.1144 -0.5075  0.3701
  191SAPI   C2122000   5.429   5.195   3.744  0.1231 -0.2017  0.1831
  191SAPI   O2222001   5.548   5.225   3.765  0.6376  0.4657 -0.1458
  191SAPI   C2222002   5.333   5.116   3.835 -0.2999  0.1494  0.4358
  191SAPI   H2R22003   5.262   5.061   3.770 -0.9650  1.6716 -0.1943
  191SAPI   H2S22004   5.393   5.055   3.905 -1.1824 -0.8629  0.3284
  191SAPI    C322005   5.372   5.386   3.455  0.6541 -0.4742 -0.1166
  191SAPI    HX22006   5.290   5.340   3.396 -0.2849  0.0691  0.7188
  191SAPI    HY22007   5.447   5.426   3.383  0.6232 -0.5663 -0.2005
  191SAPI   O3122008   5.333   5.503   3.534 -0.4892  0.1256 -0.3228
  191SAPI   C3122009   5.209   5.508   3.563  0.3348 -0.9687 -0.2053
  191SAPI   O3222010   5.120   5.430   3.522 -0.1811  0.0999 -0.7341
  191SAPI   C3222011   5.192   5.634   3.646 -0.1274 -0.5271 -0.1299
  191SAPI   H2X22012   5.121   5.703   3.596 -0.9741 -2.0194 -1.0928
  191SAPI   H2Y22013   5.289   5.687   3.659 -0.2200 -0.1113 -1.0564
  191SAPI   C2322014   5.246   5.218   3.915 -0.0099  0.2216  0.0604
  191SAPI   H3R22015   5.148   5.170   3.934 -0.0327  0.3826  0.3490
  191SAPI   H3S22016   5.222   5.302   3.846 -0.0672  0.3549  0.2420
  191SAPI   C2422017   5.305   5.257   4.053  0.0242 -0.1250 -0.7547
  191SAPI   H4R22018   5.389   5.327   4.033  0.5667  0.1168  1.8879
  191SAPI   H4S22019   5.350   5.168   4.103  0.6942  1.7390  2.2590
  191SAPI   C2522020   5.202   5.336   4.126  0.6974  0.0520 -0.5303
  191SAPI   H5R22021   5.152   5.413   4.065  0.4161 -0.8741 -1.4832
  191SAPI   C2622022   5.194   5.343   4.261  0.7170 -0.4438  0.4743
  191SAPI   H6R22023   5.105   5.392   4.303  0.8357  0.1210  0.0778
  191SAPI   C2722024   5.261   5.244   4.355 -0.2479 -0.2822 -0.1912
  191SAPI   H7R22025   5.274   5.294   4.454  0.6620 -0.2732 -0.3100
  191SAPI   H7S22026   5.365   5.219   4.324  1.5287  1.8269  3.4109
  191SAPI   C2822027   5.191   5.114   4.363  0.8632 -0.6812 -0.4616
  191SAPI   H8R22028   5.201   5.048   4.276  0.8136 -2.0315  0.5352
  191SAPI   C2922029   5.107   5.074   4.459  0.2725 -0.5768  0.1647
  191SAPI   H9R22030   5.068   4.971   4.457  0.7938 -0.7606 -0.7359
  191SAPI  C21022031   5.069   5.152   4.588  0.0158 -0.0864 -0.5629
  191SAPI  H10R22032   4.989   5.089   4.633  0.3395 -0.4325 -0.4609
  191SAPI  H10S22033   5.025   5.252   4.569  0.4099  0.3833  0.8208
  191SAPI  C21122034   5.188   5.167   4.677  0.4676 -0.3427  0.2340
  191SAPI  H11R22035   5.285   5.127   4.645  0.4650  0.5178 -0.9344
  191SAPI  C21222036   5.180   5.208   4.813 -0.4681 -0.1414  0.5800
  191SAPI  H12R22037   5.269   5.212   4.878 -1.9389 -0.2472  2.6918
  191SAPI  C21322038   5.052   5.236   4.892  0.5006 -0.2248  1.2654
  191SAPI  H13R22039   4.983   5.149   4.893 -2.9050  1.9584 -3.6942
  191SAPI  H13S22040   4.992   5.307   4.831  1.2500 -0.5648  0.0806
  191SAPI  C21422041   5.071   5.285   5.029 -0.2595  0.6696  0.0016
  191SAPI  H14R22042   5.122   5.210   5.091 -2.7221 -1.1955 -0.1034
  191SAPI  C21522043   5.039   5.410   5.077  0.8472 -0.0347 -0.3888
  191SAPI  H15R22044   5.066   5.441   5.179 -0.7953 -1.2390  0.4636
  191SAPI  C21622045   4.974   5.530   5.005 -0.3841 -0.5974  0.7914
  191SAPI  H16R22046   4.863   5.538   5.013 -0.1435  3.3398  2.2830
  191SAPI  H16S22047   4.996   5.526   4.896  0.8837  1.2360  0.9461
  191SAPI  C21722048   5.038   5.659   5.055 -0.4196 -0.7407  0.4557
  191SAPI  H17R22049   5.033   5.667   5.165  0.0057 -1.1934  0.5127
  191SAPI  H17S22050   4.975   5.740   5.013 -0.0038 -0.8596 -0.4203
  191SAPI  C21822051   5.185   5.673   5.006  0.6455 -0.1700  0.0194
  191SAPI  H18R22052   5.181   5.677   4.895 -0.7856  0.2620  0.0665
  191SAPI  H18S22053   5.249   5.589   5.043  1.7433  0.3010 -0.7571
  191SAPI  C21922054   5.223   5.815   5.054 -0.2625 -0.4814  0.4889
  191SAPI  H19R22055   5.240   5.808   5.164  1.1767  1.1110  0.4075
  191SAPI  H19S22056   5.151   5.895   5.028 -0.1561 -0.7563 -0.7200
  191SAPI  C22022057   5.357   5.848   4.990 -0.4491  0.1582 -0.0756
  191SAPI  H20R22058   5.391   5.950   5.017  0.7368 -0.1826 -0.2220
  191SAPI  H20S22059   5.344   5.845   4.880  0.5234 -2.3592 -0.1984
  191SAPI  H20T22060   5.435   5.775   5.020  0.6588  1.3536  0.0301
  191SAPI   C3322061   5.137   5.590   3.783  0.2065  0.2800 -0.4222
  191SAPI   H3X22062   5.220   5.538   3.836  0.8782 -0.3069 -1.9710
  191SAPI   H3Y22063   5.046   5.528   3.771 -0.8581  1.9231 -1.3789
  191SAPI   C3422064   5.089   5.717   3.861 -0.3487 -0.0088 -0.1511
  191SAPI   H4X22065   4.985   5.738   3.828 -0.6810 -0.4569  0.5981
  191SAPI   H4Y22066   5.160   5.800   3.841 -1.1131  0.9784  1.1010
  191SAPI   C3522067   5.099   5.693   4.010 -0.0072  0.2319 -0.1418
  191SAPI   H5X22068   5.204   5.661   4.029  0.4415  0.5959 -1.8385
  191SAPI   H5Y22069   5.032   5.607   4.036  0.2835 -0.0361 -0.2687
  191SAPI   C3622070   5.062   5.808   4.097  0.5955 -0.1279 -0.0022
  191SAPI   H6X22071   4.951   5.818   4.104  0.6580  0.2642  0.4216
  191SAPI   H6Y22072   5.101   5.896   4.043  1.8860 -0.9869 -0.5217
  191SAPI   C3722073   5.110   5.788   4.239 -0.0383  0.0123 -0.3208
  191SAPI   H7X22074   5.107   5.886   4.290  0.7191  0.7577 -1.6408
  191SAPI   H7Y22075   5.214   5.748   4.231  0.5778  1.7029 -1.2694
  191SAPI   C3822076   5.030   5.680   4.318 -0.1704 -0.8418  0.6449
  191SAPI   H8X22077   5.052   5.575   4.287  0.4900 -1.0847  1.8631
  191SAPI   H8Y22078   4.924   5.700   4.294  0.2963  1.5009  0.2626
  191SAPI   C3922079   5.035   5.691   4.470  0.0067 -0.1277  0.1041
  191SAPI   H9X22080   4.995   5.789   4.502 -2.2046 -1.0374  0.3074
  191SAPI   H9Y22081   5.140   5.691   4.506  0.0434 -0.2372 -0.0037
  191SAPI  C31022082   4.953   5.589   4.552  1.1062  0.1460 -0.6192
  191SAPI  H10X22083   5.005   5.569   4.648 -0.8123 -1.2506  0.2081
  191SAPI  H10Y22084   4.957   5.494   4.494  0.0703  0.4394 -1.2017
  191SAPI  C31122085   4.807   5.631   4.571 -0.1044  0.0846 -0.1144
  191SAPI  H11X22086   4.728   5.603   4.499 -1.5903 -0.1224  1.5161
  191SAPI  H11Y22087   4.798   5.742   4.574 -0.4630  0.1052 -1.3752
  191SAPI  C31222088   4.762   5.593   4.711 -0.8812 -0.4384 -0.1714
  191SAPI  H12X22089   4.817   5.663   4.778 -1.2361  1.1052 -1.4471
  191SAPI  H12Y22090   4.794   5.490   4.741 -2.6696 -1.0393 -0.2162
  191SAPI  C31322091   4.616   5.618   4.750 -1.1852  0.0257  0.6954
  191SAPI  H13X22092   4.543   5.547   4.705 -2.8258  2.0108  0.0500
  191SAPI  H13Y22093   4.588   5.720   4.717  2.0432  1.1272  0.9553
  191SAPI  C31422094   4.605   5.617   4.906  0.0290 -0.4749  0.0791
  191SAPI  H14X22095   4.677   5.692   4.945  0.6576 -0.1693 -1.5917
  191SAPI  H14Y22096   4.644   5.518   4.937 -1.9656 -0.6643  2.2895
  191SAPI  C31522097   4.468   5.654   4.960 -0.1371 -0.2195 -0.1312
  191SAPI  H15X22098   4.396   5.570   4.971 -0.6925  0.3875  1.1080
  191SAPI  H15Y22099   4.419   5.720   4.885  1.3915  2.3967  1.0029
  191SAPI  C31622100   4.477   5.728   5.095  0.4742 -0.4721 -0.0552
  191SAPI  H16X22101   4.378   5.767   5.128  0.2266 -0.3860 -0.8754
  191SAPI  H16Y22102   4.545   5.813   5.075  0.3420 -0.5539 -0.8734
  191SAPI  C31722103   4.535   5.639   5.211 -0.2699  0.8045  0.5603
  191SAPI  H17X22104   4.541   5.708   5.298 -2.3830  1.8903 -0.0752
  191SAPI  H17Y22105   4.635   5.614   5.171 -0.2495  4.0341 -1.8554
  191SAPI  C31822106   4.457   5.513   5.251 -0.9408 -0.3668  0.1461
  191SAPI  H18X22107   4.351   5.541   5.272 -0.8727  1.1967 -1.4069
  191SAPI  H18Y22108   4.500   5.467   5.343  0.8973 -0.1119 -0.5654
  191SAPI  H18Z22109   4.459   5.437   5.170  0.9259  1.3257 -1.4844
  192SAPI   C1222110   6.994   6.435   2.768  0.2636 -0.2049  0.5284
  192SAPI    H222111   6.971   6.382   2.862  0.2974  1.5763  1.5908
  192SAPI    O222112   7.124   6.392   2.718  0.4371 -0.0590 -0.0158
  192SAPI   HO222113   7.193   6.415   2.780  1.0180 -0.3521 -0.5383
  192SAPI   C1322114   6.894   6.418   2.658  0.1344  0.0683 -0.0770
  192SAPI    H322115   6.795   6.463   2.684 -0.3144 -0.7796 -0.2743
  192SAPI    O322116   6.860   6.280   2.642  0.3250  0.1816  0.5771
  192SAPI   HO322117   6.798   6.253   2.710 -0.5073  1.9590  0.5659
  192SAPI   C1422118   6.926   6.500   2.532 -0.6435  1.0072  0.7251
  192SAPI    H422119   7.008   6.440   2.487 -1.8192  0.2811 -0.5202
  192SAPI    O422120   6.825   6.497   2.434 -0.1852 -0.5802 -0.0657
  192SAPI   HO422121   6.751   6.540   2.476 -0.9074 -1.1984 -0.6632
  192SAPI   C1522122   6.988   6.637   2.551 -0.0976  0.0104 -0.7566
  192SAPI    H522123   6.900   6.703   2.536 -1.2635 -1.6665 -1.5307
  192SAPI    O522124   7.075   6.676   2.434  0.2426 -0.3185  0.1530
  192SAPI   HO522125   7.161   6.636   2.449  1.1336  1.7003  0.8327
  192SAPI   C1622126   7.042   6.676   2.688 -0.4001 -0.2041 -0.5884
  192SAPI    H622127   7.151   6.659   2.671 -0.1836 -0.4405  0.9138
  192SAPI    O622128   7.028   6.810   2.728  0.3644  0.1745  0.1924
  192SAPI   HO622129   7.103   6.835   2.784  0.0469  2.4681 -0.2862
  192SAPI   C1122130   7.006   6.581   2.805 -0.1895  0.3011  0.0175
  192SAPI    H122131   6.904   6.614   2.834  0.8876  2.4951  1.6658
  192SAPI     P22132   7.049   6.621   3.061  0.2587 -0.6424 -0.0595
  192SAPI   O1322133   7.152   6.583   3.161  0.1892  0.0524  0.5283
  192SAPI   O1422134   6.911   6.570   3.075 -1.1588  0.0340  0.2019
  192SAPI   O1222135   7.103   6.602   2.907 -0.0444  0.5064  0.0236
  192SAPI   O1122136   7.041   6.778   3.066 -0.2304  0.5377 -0.2638
  192SAPI    C122137   7.166   6.854   3.070  0.7955 -0.0259  0.7678
  192SAPI    HA22138   7.261   6.802   3.095  1.9495  1.4444 -0.3824
  192SAPI    HB22139   7.183   6.901   2.971 -2.3556  1.7627  0.9542
  192SAPI    C222140   7.157   6.967   3.177  0.4758 -0.4617 -0.0493
  192SAPI    HS22141   7.244   7.036   3.172 -0.1078  0.3121  0.2207
  192SAPI   O2122142   7.136   6.908   3.312  0.1868 -0.8568 -0.1940
  192SAPI   C2122143   7.253   6.906   3.382 -0.0434  0.5612 -0.3640
  192SAPI   O2222144   7.361   6.945   3.345  0.0488  0.5732  0.3675
  192SAPI   C2222145   7.215   6.843   3.514  0.4210  0.2189 -0.2354
  192SAPI   H2R22146   7.136   6.915   3.545 -0.8279  0.8803 -4.3013
  192SAPI   H2S22147   7.161   6.747   3.503 -0.6428  0.7371  0.3342
  192SAPI    C322148   7.033   7.057   3.137  0.2492 -0.0641 -0.1320
  192SAPI    HX22149   6.940   6.999   3.156 -2.0650  3.7848  1.4692
  192SAPI    HY22150   7.045   7.083   3.030 -1.4922  1.5030  0.0277
  192SAPI   O3122151   7.029   7.184   3.208 -0.9794 -0.3652 -0.4091
  192SAPI   C3122152   6.934   7.270   3.164 -0.0439  0.1498  0.5520
  192SAPI   O3222153   6.851   7.232   3.082  0.0191 -0.4608  0.6836
  192SAPI   C3222154   6.956   7.415   3.225  0.4737 -0.4242  0.3634
  192SAPI   H2X22155   6.892   7.473   3.156  3.2232 -1.0816 -3.0381
  192SAPI   H2Y22156   7.062   7.445   3.211  0.5325 -0.5165  0.6054
  192SAPI   C2322157   7.342   6.840   3.600  0.4284  0.2737 -0.3190
  192SAPI   H3R22158   7.376   6.942   3.628 -0.7219  0.1660  1.5768
  192SAPI   H3S22159   7.428   6.803   3.540 -0.0561 -0.5078 -0.5456
  192SAPI   C2422160   7.341   6.743   3.719 -0.1734  0.6821  1.1616
  192SAPI   H4R22161   7.442   6.742   3.765  1.9757 -0.6530 -3.0713
  192SAPI   H4S22162   7.315   6.639   3.687 -2.2844  1.4133  0.3810
  192SAPI   C2522163   7.231   6.786   3.807  0.0477  0.2228  0.3362
  192SAPI   H5R22164   7.152   6.845   3.759 -0.4457 -1.3737 -0.8855
  192SAPI   C2622165   7.206   6.768   3.938  0.2654  0.0825  0.6802
  192SAPI   H6R22166   7.123   6.815   3.992 -1.7562  0.6975 -2.6677
  192SAPI   C2722167   7.292   6.677   4.027 -0.5066  0.2483  0.4471
  192SAPI   H7R22168   7.362   6.618   3.964 -1.1680 -1.6248  1.3947
  192SAPI   H7S22169   7.224   6.597   4.063 -0.0301 -1.4284 -2.1710
  192SAPI   C2822170   7.362   6.757   4.132 -0.3608  0.3183  0.1565
  192SAPI   H8R22171   7.461   6.792   4.097  0.1053 -0.6782  0.4396
  192SAPI   C2922172   7.343   6.757   4.261  0.0119  0.0597 -0.5174
  192SAPI   H9R22173   7.413   6.805   4.332  0.9340 -0.0757 -1.3143
  192SAPI  C21022174   7.235   6.688   4.337 -0.0917  0.4633 -0.5086
  192SAPI  H10R22175   7.285   6.608   4.397  1.2260  0.9426 -0.9388
  192SAPI  H10S22176   7.159   6.636   4.275 -1.6238 -0.2430  1.8212
  192SAPI  C21122177   7.163   6.778   4.434  0.5050 -0.2044  0.2904
  192SAPI  H11R22178   7.129   6.873   4.392  0.8042 -0.6627 -1.0191
  192SAPI  C21222179   7.144   6.761   4.568 -0.2297  0.1595 -0.3774
  192SAPI  H12R22180   7.082   6.835   4.621 -0.2631  0.5194 -0.9061
  192SAPI  C21322181   7.193   6.635   4.636 -0.0330 -0.0492 -0.7801
  192SAPI  H13R22182   7.196   6.547   4.568 -1.7718 -1.9484  1.4656
  192SAPI  H13S22183   7.129   6.604   4.721  0.9673  0.3644  0.1520
  192SAPI  C21422184   7.326   6.635   4.689 -0.0002  0.7800 -0.0504
  192SAPI  H14R22185   7.391   6.660   4.604 -0.0560  0.4272 -0.1953
  192SAPI  C21522186   7.375   6.608   4.815 -0.6511  0.0483 -0.1418
  192SAPI  H15R22187   7.480   6.611   4.847 -0.5945 -1.4038 -0.1298
  192SAPI  C21622188   7.277   6.581   4.919 -0.1369  0.7282 -0.3591
  192SAPI  H16R22189   7.184   6.642   4.918 -1.8715 -1.3386  4.2295
  192SAPI  H16S22190   7.311   6.609   5.021  1.6087 -2.4879  0.0745
  192SAPI  C21722191   7.213   6.438   4.943 -0.3416 -0.4373 -0.2894
  192SAPI  H17R22192   7.285   6.354   4.951 -0.6963 -1.0510 -2.7258
  192SAPI  H17S22193   7.135   6.417   4.867 -0.4216 -0.5884 -0.1652
  192SAPI  C21822194   7.160   6.441   5.086 -0.0036  0.3596 -0.3189
  192SAPI  H18R22195   7.086   6.521   5.105  1.6902  1.6173  1.2452
  192SAPI  H18S22196   7.244   6.457   5.156 -0.5044 -0.9108  0.6276
  192SAPI  C21922197   7.098   6.301   5.135  0.3056 -0.2385  0.0213
  192SAPI  H19R22198   7.173   6.224   5.163  1.8368  2.3509  3.8426
  192SAPI  H19S22199   7.040   6.257   5.051 -0.5563 -0.3710  0.6704
  192SAPI  C22022200   7.015   6.308   5.265  0.1771 -0.6943 -0.2594
  192SAPI  H20R22201   6.924   6.366   5.242  1.5362  0.7163 -2.4821
  192SAPI  H20S22202   7.068   6.361   5.347  0.6138  0.0783 -1.0173
  192SAPI  H20T22203   6.985   6.206   5.297  1.4911 -0.1756  3.0228
  192SAPI   C3322204   6.911   7.414   3.376 -0.7725 -0.5606 -0.0958
  192SAPI   H3X22205   6.946   7.511   3.417  0.9944 -1.2063 -0.0079
  192SAPI   H3Y22206   6.946   7.323   3.430  1.2224  0.3743  0.2793
  192SAPI   C3422207   6.758   7.419   3.385 -0.4764 -0.1521 -0.5316
  192SAPI   H4X22208   6.721   7.317   3.360  0.8399 -1.7381  3.2722
  192SAPI   H4Y22209   6.710   7.492   3.316 -0.1154  0.7728  0.1875
  192SAPI   C3522210   6.707   7.454   3.524 -0.3152  0.8121  0.3188
  192SAPI   H5X22211   6.744   7.554   3.555 -2.0088  2.3118 -2.0880
  192SAPI   H5Y22212   6.745   7.388   3.604  0.9371  0.1994 -0.7582
  192SAPI   C3622213   6.553   7.441   3.532 -0.2761  0.4712  0.7076
  192SAPI   H6X22214   6.520   7.335   3.522  0.5606  0.2516  0.1342
  192SAPI   H6Y22215   6.512   7.502   3.449 -0.0846  0.0308  0.2824
  192SAPI   C3722216   6.497   7.486   3.668 -0.6899 -0.4890  0.0844
  192SAPI   H7X22217   6.387   7.493   3.658 -0.4676 -0.6524 -3.5322
  192SAPI   H7Y22218   6.529   7.591   3.686 -1.5246 -0.4085  1.2213
  192SAPI   C3822219   6.540   7.406   3.794  0.0141  0.6299  0.4652
  192SAPI   H8X22220   6.645   7.368   3.793 -0.8448 -2.0056  1.4799
  192SAPI   H8Y22221   6.471   7.319   3.797 -0.7338  1.2149  0.7219
  192SAPI   C3922222   6.525   7.474   3.930  0.4236 -0.0123  0.0288
  192SAPI   H9X22223   6.419   7.503   3.949 -0.1938 -1.7562 -0.5109
  192SAPI   H9Y22224   6.593   7.561   3.938 -1.1525  1.1854  1.0278
  192SAPI  C31022225   6.567   7.386   4.049  0.0411  0.0864  0.6728
  192SAPI  H10X22226   6.673   7.354   4.043 -0.4449 -3.1781  4.6587
  192SAPI  H10Y22227   6.503   7.295   4.052 -0.4857  0.4303  0.1729
  192SAPI  C31122228   6.542   7.474   4.175 -0.5431  0.3860  0.2689
  192SAPI  H11X22229   6.438   7.512   4.167 -0.9488 -0.8154 -0.4380
  192SAPI  H11Y22230   6.610   7.563   4.177 -2.0523  1.5708  0.6562
  192SAPI  C31222231   6.566   7.404   4.311  0.3694  0.0176  0.2788
  192SAPI  H12X22232   6.674   7.386   4.329  1.0322  1.0601 -2.2736
  192SAPI  H12Y22233   6.524   7.301   4.300  0.9389  0.0977 -4.0442
  192SAPI  C31322234   6.492   7.481   4.428  0.3101  0.4691  0.0647
  192SAPI  H13X22235   6.383   7.473   4.408  0.2202 -0.1265  0.7289
  192SAPI  H13Y22236   6.526   7.587   4.428  1.6583  0.0587 -0.4963
  192SAPI  C31422237   6.517   7.428   4.569  0.1509 -0.5667  0.0496
  192SAPI  H14X22238   6.627   7.430   4.589  0.0307 -0.8472  0.7497
  192SAPI  H14Y22239   6.496   7.319   4.568 -1.1735 -0.3260 -0.1544
  192SAPI  C31522240   6.420   7.475   4.674 -0.1359 -0.0559 -1.4126
  192SAPI  H15X22241   6.315   7.447   4.652 -0.8463  0.4907  0.9889
  192SAPI  H15Y22242   6.427   7.586   4.672  0.0681 -0.0367 -0.2160
  192SAPI  C31622243   6.462   7.432   4.815 -0.4384 -0.6664 -0.3062
  192SAPI  H16X22244   6.569   7.461   4.822 -0.4174 -1.1008  2.0402
  192SAPI  H16Y22245   6.460   7.322   4.835  2.1824 -0.3992  2.0403
  192SAPI  C31722246   6.378   7.510   4.922  0.2907  0.2226  0.0243
  192SAPI  H17X22247   6.392   7.617   4.898 -0.5250  0.3454  0.0524
  192SAPI  H17Y22248   6.423   7.506   5.024 -2.2752 -1.6925  1.2014
  192SAPI  C31822249   6.224   7.474   4.927  0.2165  1.3116 -0.6269
  192SAPI  H18X22250   6.214   7.363   4.934  2.4967  1.1846  2.8005
  192SAPI  H18Y22251   6.176   7.513   4.834 -0.2509  0.2625 -0.8516
  192SAPI  H18Z22252   6.179   7.532   5.011  0.4923 -0.9907  1.2078
  193SOD    SOD22253   2.306   3.509   0.798 -0.9215 -0.4733 -0.3106
  194SOD    SOD22254   2.146   2.179   1.289  0.3238  0.4918  0.0396
  195SOD    SOD22255   0.462   3.316   2.717  0.1569  0.1393 -0.0306
  196SOD    SOD22256   0.419   1.200   2.168 -0.1557  0.1093 -0.4353
  197SOD    SOD22257   4.825   4.092   2.366  0.3624 -0.2176  0.1314
  198SOD    SOD22258   3.170   2.383   8.069  0.2157  0.2140  0.1523
  199SOD    SOD22259   4.656   4.433   3.023  0.2458  0.2017 -0.0063
  200SOD    SOD22260   5.537   6.749   0.007 -0.9222  0.6619  0.0623
  201SOD    SOD22261   6.860   0.222   0.636  0.2534 -0.3432 -0.4447
  202SOD    SOD22262   2.283   1.645   2.014 -0.0115 -0.3199  0.0158
  203SOD    SOD22263   3.977   6.290   8.189  0.5142 -0.2057  0.3143
  204SOD    SOD22264   4.829   2.112   8.100 -0.4982 -0.0929 -0.1343
  205SOD    SOD22265   7.044   5.032   2.268  0.2080 -0.0669  0.0949
  206SOD    SOD22266   0.124   2.894   7.603  0.0382 -0.4369  0.3467
  207SOD    SOD22267   5.167   0.699   0.279 -0.0213 -0.3717 -0.3687
  208SOD    SOD22268   3.556   1.756   1.626  0.6007  0.1151  0.6972
  209SOD    SOD22269   4.618   2.978   3.343 -0.2949  0.4033  0.2636
  210SOD    SOD22270   1.237   3.049   2.294  0.4537 -0.0231  0.0578
  211SOD    SOD22271   5.405   4.216   7.401  0.3994 -0.3190  0.3472
  212SOD    SOD22272   5.434   3.375   2.867  0.1591  0.0538  0.5021
  213SOD    SOD22273   4.596   4.981   3.433 -0.1161 -0.0422  0.0387
  214SOD    SOD22274   3.004   4.357   1.257  0.3896 -0.0309  0.2968
  215SOD    SOD22275   5.227   3.714   0.159  0.0487  0.3118 -0.2797
  216SOD    SOD22276   3.474   6.123   2.414 -0.0068  0.2863 -0.2139
  217SOD    SOD22277   4.417   1.939   1.335 -0.5309  0.3901 -0.1291
  218SOD    SOD22278   3.066   2.922   0.207 -0.0447  0.0275  0.1493
  219SOD    SOD22279   1.372   3.324   8.247 -0.3617  0.3973 -0.0609
  220SOD    SOD22280   5.499   0.204   3.039 -0.1159 -0.1369 -0.0324
  221SOD    SOD22281   0.645   1.060   8.103 -0.0815 -0.3103 -0.1645
  222SOD    SOD22282   4.727   5.321   2.169 -0.3730 -0.1126  0.4489
  223SOD    SOD22283   3.484   6.983   3.216  0.2307 -0.2793 -0.1417
  224SOD    SOD22284   3.613   5.335   2.723  0.6557  0.1200  0.1688
  225SOD    SOD22285   2.341   5.367   7.976 -0.1421  0.1528  0.1957
  226SOD    SOD22286   5.999   4.869   3.459 -0.3470  0.0386  0.0643
  227SOD    SOD22287   0.753   5.977   2.598  0.5784  0.1319  0.2455
  228SOD    SOD22288   4.452   3.429   8.094 -0.2200  0.3856 -0.5651
  229SOD    SOD22289   2.986   0.041   0.137 -0.0463 -0.5241  0.2610
  230SOD    SOD22290   4.100   0.554   8.178  0.4561  0.3719  0.3491
  231SOD    SOD22291   0.647   4.196   0.685  0.5281 -0.3429 -0.0974
  232SOD    SOD22292   2.253   5.420   0.245 -0.1285  0.2006 -0.4288
  233SOD    SOD22293   0.156   3.718   3.572 -0.1659 -0.2885 -0.6492
  234CLA    CLA22294   4.960   1.998   0.833  0.2423 -0.1191  0.1565
  235CLA    CLA22295   2.727   2.221   0.185  0.1178  0.1838  0.8276
  236CLA    CLA22296   1.501   4.583   2.449  0.0627 -0.3994 -0.2888
  237CLA    CLA22297   5.819   3.455   8.076 -0.1325 -0.3089 -0.0075
  238CLA    CLA22298   5.380   4.977   1.905  0.5130 -0.1935  0.4457
  239CLA    CLA22299   6.693   5.917   1.938  0.3835 -0.0423 -0.1742
  240CLA    CLA22300   6.889   1.785   1.006 -0.4334  0.1613 -0.0893
  241CLA    CLA22301   2.374   2.158   1.805 -0.1233  0.3833 -0.1928
  242CLA    CLA22302   1.870   5.249   0.089  0.4221  0.3219 -0.1989
  243CLA    CLA22303   6.978   1.225   2.350  0.3715  0.1371 -0.3953
  244CLA    CLA22304   3.133   4.874   1.205 -0.3621  0.5033 -0.5224
  245CLA    CLA22305   3.001   1.602   1.964 -0.0469  0.0348  0.1104
  246CLA    CLA22306   1.505   3.812   1.354 -0.3212  0.0946 -0.1704
  247CLA    CLA22307   3.495   3.178   0.086 -0.3424  0.2856 -0.0042
  248CLA    CLA22308   4.245   5.761   2.346  0.0081  0.0464  0.2961
  249CLA    CLA22309   6.327   3.077   0.844 -0.0739 -0.3910 -0.1942
  250CLA    CLA22310   3.889   2.378   2.143 -0.3164  0.1718 -0.3196
  251TIP3   OH222311   2.194   1.400   0.104 -0.0462 -0.4435  0.0423
  251TIP3    H122312   2.219   1.420   0.014  0.4638  0.0824  0.2862
  251TIP3    H222313   2.099   1.393   0.102 -0.0163 -0.6744 -0.5822
  252TIP3   OH222314   1.740   6.057   3.019  0.4692  0.0731  0.4614
  252TIP3    H122315   1.807   6.076   3.084  1.7061 -0.2285 -0.6789
  252TIP3    H222316   1.778   6.087   2.936 -0.7449 -0.2486 -0.2355
  253TIP3   OH222317   4.266   1.395   0.565  0.3342  0.1299 -0.2209
  253TIP3    H122318   4.177   1.406   0.600 -0.4806  1.9175 -2.5752
  253TIP3    H222319   4.262   1.313   0.515 -0.5894  1.0878 -1.7933
  254TIP3   OH222320   5.938   1.171   0.362  0.3349 -0.0751 -0.1314
  254TIP3    H122321   5.929   1.259   0.326 -1.0801  0.0054  0.3498
  254TIP3    H222322   5.945   1.114   0.285  1.0978  0.4382 -0.4458
  255TIP3   OH222323   3.122   0.167   1.758  0.1043  0.1401 -0.0937
  255TIP3    H122324   3.206   0.211   1.770 -0.9432  2.8397 -1.7728
  255TIP3    H222325   3.058   0.229   1.790 -1.4474 -0.2710 -2.1844
  256TIP3   OH222326   0.865   5.896   2.382 -0.0756  0.1771  0.9098
  256TIP3    H122327   0.925   5.922   2.312  0.5792  0.4411  1.5523
  256TIP3    H222328   0.785   5.870   2.337 -0.3084  2.0693  0.1602
  257TIP3   OH222329   4.197   2.621   0.753  0.4153 -0.1920 -0.2108
  257TIP3    H122330   4.246   2.691   0.710  1.3471 -0.0878  0.9943
  257TIP3    H222331   4.231   2.540   0.714 -0.0136 -0.0298 -0.9416
  258TIP3   OH222332   0.817   5.759   2.694 -0.0305 -0.2286 -0.2207
  258TIP3    H122333   0.855   5.683   2.650 -0.9903 -0.9403  0.1235
  258TIP3    H222334   0.745   5.722   2.746 -0.5095  0.9191 -0.0395
  259TIP3   OH222335   0.007   5.271   7.661  0.4060  0.8223  0.1479
  259TIP3    H122336  -0.081   5.271   7.696  0.1497 -1.3203 -0.3543
  259TIP3    H222337  -0.005   5.278   7.566  0.5426 -1.9407 -0.1614
  260TIP3   OH222338   0.746   2.412   3.531  0.6562 -0.4138 -0.1383
  260TIP3    H122339   0.737   2.319   3.550 -0.4911 -0.8011 -2.2645
  260TIP3    H222340   0.658   2.440   3.504  1.1791  1.0631 -0.4017
  261TIP3   OH222341   5.353   1.653   2.078 -0.4856  0.1514  0.2244
  261TIP3    H122342   5.292   1.710   2.125 -0.7838  0.4167 -0.4746
  261TIP3    H222343   5.302   1.575   2.057 -0.9870  0.8767 -1.4425
  262TIP3   OH222344   3.405   6.775   2.491  0.2954 -0.7258  0.7025
  262TIP3    H122345   3.340   6.727   2.542 -0.8305 -0.4437 -0.3838
  262TIP3    H222346   3.489   6.754   2.531 -0.4088 -1.6072  1.7720
  263TIP3   OH222347   0.812   5.117   1.093  0.4070 -0.2904 -0.5274
  263TIP3    H122348   0.827   5.211   1.092  0.3557 -0.2821 -0.5501
  263TIP3    H222349   0.850   5.087   1.175  0.1564 -0.2054 -0.3773
  264TIP3   OH222350   6.942   0.638   2.605  0.5136 -0.0869 -0.0901
  264TIP3    H122351   6.867   0.697   2.618  1.1478  1.5047 -2.7128
  264TIP3    H222352   7.019   0.694   2.620  1.1539 -0.8334 -0.5188
  265TIP3   OH222353   0.794   3.448   1.801 -0.1652 -0.0397 -0.0626
  265TIP3    H122354   0.842   3.528   1.778  1.5677 -1.2368 -0.7803
  265TIP3    H222355   0.702   3.471   1.789  0.1395  2.4016  1.5531
  266TIP3   OH222356   2.086   1.861   1.573 -0.0957  0.5367 -0.0118
  266TIP3    H122357   1.994   1.836   1.564  0.4244 -1.3452 -0.7595
  266TIP3    H222358   2.107   1.901   1.488 -0.0729  0.4033 -0.0695
  267TIP3   OH222359   3.352   4.009   1.497  0.7989 -0.7460 -0.1783
  267TIP3    H122360   3.378   4.086   1.547 -0.9684 -0.7891  0.9098
  267TIP3    H222361   3.398   3.936   1.538  1.7797 -0.4053 -0.6420
  268TIP3   OH222362   2.999   4.731   2.095  0.4934 -0.3515  0.4607
  268TIP3    H122363   2.938   4.805   2.097 -0.0675 -0.8129  0.8302
  268TIP3    H222364   3.020   4.715   2.187 -0.2510 -1.3316  0.4843
  269TIP3   OH222365   2.228   0.793   7.688  0.5229  0.3734 -0.3987
  269TIP3    H122366   2.157   0.737   7.657  0.0411  1.7731 -2.0081
  269TIP3    H222367   2.221   0.791   7.783  0.3638 -2.0357 -0.4188
  270TIP3   OH222368   3.247   0.765   7.604  0.3501  0.0023  0.2847
  270TIP3    H122369   3.292   0.780   7.687  1.9524 -0.2861 -0.4796
  270TIP3    H222370   3.271   0.841   7.550  0.4308 -0.4467 -0.3306
  271TIP3   OH222371   5.584   1.025   0.943 -0.4030 -0.0111 -0.2374
  271TIP3    H122372   5.662   0.999   0.992  1.4737  1.4757 -2.2480
  271TIP3    H222373   5.546   0.942   0.913  0.4264 -0.7624  0.7230
  272TIP3   OH222374   1.503   3.631   0.866 -0.3007  0.3574 -0.3629
  272TIP3    H122375   1.557   3.639   0.944  1.1666 -3.0384 -0.8665
  272TIP3    H222376   1.544   3.690   0.802  0.1224  1.1027  0.5714
  273TIP3   OH222377   6.964   3.392   2.106  0.3157 -0.3468 -0.5629
  273TIP3    H122378   6.887   3.362   2.155  0.5832 -0.3779 -0.1494
  273TIP3    H222379   6.928   3.450   2.039 -0.0443 -0.0851 -0.1564
  274TIP3   OH222380   3.727   3.703   8.074  0.3429  0.3034 -0.1340
  274TIP3    H122381   3.724   3.778   8.132  2.2025  1.3164 -1.2558
  274TIP3    H222382   3.635   3.681   8.058 -0.2367  2.0557  0.5544
  275TIP3   OH222383   2.948   4.635   1.271  0.1320  0.7414  0.3320
  275TIP3    H122384   2.975   4.707   1.213 -0.5218  0.9213  0.2401
  275TIP3    H222385   2.857   4.656   1.294 -0.3631 -0.4969 -0.3900
  276TIP3   OH222386   6.173   2.369   1.477 -0.4527  0.4479  0.2296
  276TIP3    H122387   6.176   2.462   1.456  0.2830  0.8998  2.1129
  276TIP3    H222388   6.233   2.328   1.415 -0.5836  1.2538 -0.4466
  277TIP3   OH222389   2.706   3.020   2.266 -0.2782 -0.2997  0.2278
  277TIP3    H122390   2.682   3.076   2.340  1.7618 -1.0084  1.5318
  277TIP3    H222391   2.739   3.081   2.200 -1.6163  0.3025  0.0998
  278TIP3   OH222392   3.808   1.150   2.506 -0.3175  0.3782 -0.2609
  278TIP3    H122393   3.770   1.220   2.454  0.5059 -0.2011 -1.7233
  278TIP3    H222394   3.901   1.151   2.483 -0.1238 -0.5545  0.4238
  279TIP3   OH222395   5.322   5.515   3.055  0.9049 -0.7483 -0.4193
  279TIP3    H122396   5.392   5.455   3.080  0.4830 -0.7086  0.9232
  279TIP3    H222397   5.363   5.575   2.993  2.2223 -0.4066  0.7216
  280TIP3   OH222398   3.703   0.279   8.204 -0.4222 -1.3374 -0.2403
  280TIP3    H122399   3.650   0.261   8.126 -1.2346  1.0661 -0.3238
  280TIP3    H222400   3.641   0.272   8.276 -0.7599  0.7551 -0.2700
  281TIP3   OH222401   3.282   0.857   0.975 -0.2404  0.4659  0.1903
  281TIP3    H122402   3.360   0.820   0.934  0.3126 -0.4744  2.0062
  281TIP3    H222403   3.291   0.951   0.963  1.7927  0.4723  1.3683
  282TIP3   OH222404   2.266   2.385   0.590  0.5473 -0.3214  0.0119
  282TIP3    H122405   2.216   2.312   0.627  0.6678  0.2236  1.2961
  282TIP3    H222406   2.356   2.351   0.583  0.8959  0.0976  1.8925
  283TIP3   OH222407   1.313   5.776   0.876  0.1655 -0.7118 -0.2658
  283TIP3    H122408   1.326   5.736   0.790 -1.0968 -0.3396 -0.6473
  283TIP3    H222409   1.311   5.870   0.858 -2.1163 -0.6892 -0.1596
  284TIP3   OH222410   5.080   0.150   1.081 -0.3900  0.1939  0.1846
  284TIP3    H122411   5.097   0.105   1.164  0.0424  0.7057  0.3783
  284TIP3    H222412   5.130   0.101   1.016  1.4756  1.3632  0.6567
  285TIP3   OH222413   1.942   6.349   0.103  0.3502  0.0660 -0.3071
  285TIP3    H122414   1.994   6.426   0.080  1.5677 -0.4515  0.5980
  285TIP3    H222415   1.994   6.275   0.075 -0.7958 -0.4565 -1.1317
  286TIP3   OH222416   0.076   1.052   1.854  0.9203  1.3225  0.4780
  286TIP3    H122417   0.048   1.050   1.946  1.0254  2.4992  0.5620
  286TIP3    H222418   0.128   1.132   1.847 -0.5966  2.2520 -1.0232
  287TIP3   OH222419   2.461   3.812   2.034 -0.2363 -0.2422 -0.5375
  287TIP3    H122420   2.396   3.788   1.969 -0.7126 -0.3996 -0.0153
  287TIP3    H222421   2.462   3.738   2.095 -0.5824  0.3558  0.2166
  288TIP3   OH222422   2.916   0.521   0.856  0.0928  0.2380 -0.6056
  288TIP3    H122423   2.950   0.595   0.906 -0.1384  1.1075 -1.6987
  288TIP3    H222424   2.866   0.561   0.785 -1.7602 -0.9866 -0.0452
  289TIP3   OH222425   6.387   1.191   0.163 -0.1414  0.0936  0.0586
  289TIP3    H122426   6.296   1.196   0.133  0.0221  2.2295 -0.2682
  289TIP3    H222427   6.395   1.262   0.227  1.3484  0.0975 -0.0933
  290TIP3   OH222428   3.963   0.086   8.017  0.1457  0.6102  0.2598
  290TIP3    H122429   3.878   0.043   8.009  0.4537  0.0001  0.2065
  290TIP3    H222430   3.998   0.085   7.927 -0.0690  1.4555  0.1543
  291TIP3   OH222431   6.115   6.151   3.163 -0.4570  0.2688  0.4751
  291TIP3    H122432   6.209   6.153   3.144 -0.5237  0.8935  0.2203
  291TIP3    H222433   6.078   6.097   3.094 -0.4710  1.1625 -0.2298
  292TIP3   OH222434   4.789   1.068   0.655  0.0155  0.2880 -0.3009
  292TIP3    H122435   4.762   1.046   0.744 -0.4922  0.3693 -0.4343
  292TIP3    H222436   4.790   1.164   0.654  0.1606  0.2862 -0.3438
  293TIP3   OH222437   4.758   0.580   0.344  0.5421  0.0635 -0.9952
  293TIP3    H122438   4.838   0.616   0.382  0.5020 -0.3574 -0.4992
  293TIP3    H222439   4.789   0.516   0.280  0.6044 -0.0004 -0.9021
  294TIP3   OH222440   0.313   3.265   1.025 -0.2299  0.7192  0.3479
  294TIP3    H122441   0.315   3.170   1.037 -0.3190  0.8002  1.0527
  294TIP3    H222442   0.358   3.280   0.941  0.5263  0.1149  0.6295
  295TIP3   OH222443   0.630   6.483   0.942 -0.3395  0.4527  0.0611
  295TIP3    H122444   0.576   6.554   0.976 -0.3884  0.2350  0.4456
  295TIP3    H222445   0.589   6.403   0.975 -0.1621  0.2548 -0.1911
  296TIP3   OH222446   7.026   5.347   0.396 -0.2819 -0.1364 -0.0011
  296TIP3    H122447   6.993   5.314   0.312 -1.3166  0.0231  0.3170
  296TIP3    H222448   7.112   5.383   0.376 -0.1659 -0.8553 -0.8273
  297TIP3   OH222449   0.469   2.388   2.630 -0.5176 -0.6060  0.0996
  297TIP3    H122450   0.476   2.482   2.619 -2.1738 -0.5607 -0.8889
  297TIP3    H222451   0.526   2.351   2.563  0.4231 -0.3358  0.7288
  298TIP3   OH222452   3.972   3.676   7.954 -0.1483 -0.1712 -0.2380
  298TIP3    H122453   4.012   3.595   7.922  1.1282 -0.8588  2.6954
  298TIP3    H222454   3.879   3.654   7.965  0.0110 -0.9430 -0.3817
  299TIP3   OH222455   1.114   6.236   0.514 -0.5194 -0.2518 -0.3528
  299TIP3    H122456   1.031   6.283   0.507  0.0465  1.1585  1.5499
  299TIP3    H222457   1.124   6.193   0.429 -3.4080 -0.8887 -0.4681
  300TIP3   OH222458   2.996   1.300   0.011  0.0712  0.5875  0.2377
  300TIP3    H122459   2.969   1.285  -0.080 -1.0844  1.7936  0.3554
  300TIP3    H222460   2.948   1.378   0.037 -0.3000 -0.2454  2.1881
  301TIP3   OH222461   5.652   3.850   2.149  0.1330 -0.2595  0.0296
  301TIP3    H122462   5.581   3.884   2.204 -0.8402  0.5527 -1.6377
  301TIP3    H222463   5.730   3.857   2.203 -1.0013 -1.0054  1.8677
  302TIP3   OH222464   3.774   1.674   3.432  0.2174  0.4445 -0.5540
  302TIP3    H122465   3.690   1.630   3.417 -0.6797  2.6513 -2.5091
  302TIP3    H222466   3.760   1.723   3.513  0.5282 -1.1281  0.4991
  303TIP3   OH222467   3.632   3.698   0.602  0.7971  0.5910  0.2955
  303TIP3    H122468   3.588   3.624   0.560  2.2450  0.5298 -1.2300
  303TIP3    H222469   3.563   3.762   0.617  0.1313  0.4766 -1.9298
  304TIP3   OH222470   5.989   4.960   2.346  0.5801  0.1101  0.0305
  304TIP3    H122471   5.967   5.045   2.307 -0.6141 -0.1957  0.0106
  304TIP3    H222472   6.069   4.977   2.396  0.5313  1.1702 -0.2289
  305TIP3   OH222473   5.167   3.821   7.768 -0.6948  0.0312  0.1026
  305TIP3    H122474   5.232   3.852   7.832  0.9823 -0.5511 -1.2284
  305TIP3    H222475   5.083   3.850   7.804  0.2957  1.0671  1.7765
  306TIP3   OH222476   6.903   4.910   2.128  0.7702  0.3191 -0.5434
  306TIP3    H122477   6.928   4.835   2.074  1.1320  0.8332 -1.0994
  306TIP3    H222478   6.809   4.899   2.142  1.1641 -1.3930  1.1947
  307TIP3   OH222479   0.064   4.586   1.410  0.1970  0.8271  0.2013
  307TIP3    H122480   0.083   4.494   1.426  0.5329  1.0076  0.9124
  307TIP3    H222481   0.007   4.612   1.483  1.8254  1.7036  1.2190
  308TIP3   OH222482   3.471   1.164   7.741 -0.0783  0.4418 -0.2743
  308TIP3    H122483   3.439   1.251   7.715  2.3936  1.3352 -0.6144
  308TIP3    H222484   3.392   1.117   7.769 -1.5088  2.7570 -0.1213
  309TIP3   OH222485   0.347   6.450   2.582 -0.1944 -0.2913 -0.6868
  309TIP3    H122486   0.262   6.421   2.615  0.9115 -0.4348  2.3206
  309TIP3    H222487   0.330   6.538   2.547 -1.5873 -0.3839 -0.3065
  310TIP3   OH222488   2.961   5.680   0.393  0.1254  0.5634 -0.0869
  310TIP3    H122489   3.036   5.714   0.442 -0.0963  1.4488 -0.3390
  310TIP3    H222490   2.904   5.642   0.460  1.4015 -1.3896 -0.0159
  311TIP3   OH222491   2.068   3.411   2.529 -0.1384  0.0928  0.4816
  311TIP3    H122492   2.109   3.450   2.452 -1.6364 -1.5958 -1.2650
  311TIP3    H222493   2.025   3.485   2.572  1.4507  1.2236  0.2596
  312TIP3   OH222494   1.336   4.055   0.935 -0.3601  0.4330  0.0114
  312TIP3    H122495   1.335   4.074   1.028  3.0757 -1.7584  0.6791
  312TIP3    H222496   1.275   3.982   0.925  0.3217 -0.2642  0.8378
  313TIP3   OH222497   6.627   6.390   0.631 -0.7963  0.3788 -0.4062
  313TIP3    H122498   6.664   6.438   0.705  1.6203  1.6141 -2.2924
  313TIP3    H222499   6.679   6.310   0.625 -2.4285 -0.8190  0.4797
  314TIP3   OH222500   4.565   5.307   8.097 -0.6862 -0.5197 -0.2186
  314TIP3    H122501   4.495   5.286   8.036 -2.1732 -2.2682  1.9075
  314TIP3    H222502   4.537   5.388   8.139 -1.6939 -1.3767  0.8480
  315TIP3   OH222503   2.680   0.875   8.070  0.4017 -0.1876  0.2401
  315TIP3    H122504   2.718   0.795   8.033  0.7321  0.8426 -1.8243
  315TIP3    H222505   2.586   0.864   8.058  0.2728 -1.0771  1.7997
  316TIP3   OH222506   6.131   3.713   0.696  0.0096 -0.4396  0.1417
  316TIP3    H122507   6.203   3.651   0.692 -1.2768 -2.2919  2.7559
  316TIP3    H222508   6.094   3.713   0.608  2.8488  0.2824 -1.1739
  317TIP3   OH222509   3.142   6.877   0.316  0.2183  0.4269 -0.4857
  317TIP3    H122510   3.219   6.910   0.269  0.6506 -0.6031 -0.5286
  317TIP3    H222511   3.179   6.835   0.393 -0.4306  1.3333  0.3408
  318TIP3   OH222512   0.344   2.559   7.789 -0.1497 -0.5262  0.1984
  318TIP3    H122513   0.424   2.511   7.767  0.8628  1.7708 -1.4436
  318TIP3    H222514   0.278   2.525   7.728  0.4529 -0.1523 -0.6792
  319TIP3   OH222515   6.980   1.999   1.811  0.1781  0.6380  0.2964
  319TIP3    H122516   7.003   2.010   1.719  0.9354  0.2184  0.4322
  319TIP3    H222517   6.902   1.944   1.810  1.2001 -0.8591 -0.0386
  320TIP3   OH222518   3.816   1.750   7.860 -0.1159  0.0085  0.7199
  320TIP3    H122519   3.728   1.745   7.898 -0.1278 -0.2229  0.6634
  320TIP3    H222520   3.867   1.799   7.925 -0.6241  1.3647  0.1181
  321TIP3   OH222521   2.811   3.882   2.766  0.5817 -0.3290 -0.3857
  321TIP3    H122522   2.778   3.917   2.849  0.7930 -4.0418  1.4464
  321TIP3    H222523   2.906   3.878   2.777  0.5151 -2.0971 -0.1779
  322TIP3   OH222524   1.415   5.399   1.570  0.2658  0.2199  0.0464
  322TIP3    H122525   1.426   5.472   1.631 -0.8429  1.2111 -0.8802
  322TIP3    H222526   1.321   5.382   1.569  0.3934 -0.4982 -0.5619
  323TIP3   OH222527   0.708   2.243   7.548  0.0871 -0.3699 -0.1070
  323TIP3    H122528   0.647   2.239   7.474 -0.1178  1.3447 -0.0648
  323TIP3    H222529   0.782   2.188   7.521  0.5010  1.0263 -2.0831
  324TIP3   OH222530   3.223   4.683   1.926  0.1700 -0.3923 -0.1438
  324TIP3    H122531   3.136   4.699   1.965  0.0885 -0.6383 -0.2251
  324TIP3    H222532   3.270   4.634   1.993  0.9258  1.4050  0.7206
  325TIP3   OH222533   1.000   5.064   7.943  0.1180 -0.0404  0.2663
  325TIP3    H122534   0.928   5.031   7.996  1.4063 -0.8488  1.5853
  325TIP3    H222535   0.957   5.114   7.873 -1.6654  0.1041  1.4012
  326TIP3   OH222536   2.610   6.657   1.941  0.5808 -0.1167  0.4728
  326TIP3    H122537   2.622   6.610   2.023  1.6240  0.7852  0.8623
  326TIP3    H222538   2.554   6.732   1.964  1.6090  0.6434  0.5838
  327TIP3   OH222539   4.395   5.655   1.073 -0.1112 -0.1782  0.0092
  327TIP3    H122540   4.390   5.735   1.125  2.1798  0.9565 -1.3383
  327TIP3    H222541   4.479   5.662   1.027 -0.5065 -2.6929 -1.2588
  328TIP3   OH222542   0.550   0.104   1.667 -0.3123  0.3799 -0.5359
  328TIP3    H122543   0.497   0.133   1.592 -1.4114  0.5317  0.2771
  328TIP3    H222544   0.531   0.169   1.735 -0.8077 -0.8023  0.4848
  329TIP3   OH222545   1.665   5.630   0.320 -0.5381  0.6220  0.4976
  329TIP3    H122546   1.677   5.642   0.226 -1.7142  0.0332  0.2449
  329TIP3    H222547   1.727   5.561   0.344 -0.0457  0.9605  0.2177
  330TIP3   OH222548   3.486   2.719   1.916 -0.2727  0.0459  0.3589
  330TIP3    H122549   3.478   2.729   1.821  0.6130 -0.5569  0.2044
  330TIP3    H222550   3.547   2.645   1.928 -0.0034  0.4058  1.3855
  331TIP3   OH222551   5.869   6.627   1.008  0.4288  0.0407 -0.2707
  331TIP3    H122552   5.937   6.625   0.941  0.4164 -2.6114 -0.3138
  331TIP3    H222553   5.802   6.685   0.973  1.5619  0.7384 -1.3552
  332TIP3   OH222554   4.111   5.112   1.597 -0.0921  0.3748 -0.2255
  332TIP3    H122555   4.018   5.127   1.613  0.4694  2.8284  1.2763
  332TIP3    H222556   4.149   5.200   1.591  2.1604 -0.5577 -0.7707
  333TIP3   OH222557   2.965   6.161   8.105 -0.3639 -0.1174 -0.2968
  333TIP3    H122558   2.906   6.164   8.181 -1.2511  2.3426 -0.9626
  333TIP3    H222559   3.045   6.203   8.136 -0.5353  0.4109 -0.5628
  334TIP3   OH222560   3.385   5.950   0.598 -0.2184 -0.4433 -0.2198
  334TIP3    H122561   3.477   5.929   0.612 -0.1977 -0.5877 -0.5490
  334TIP3    H222562   3.376   5.951   0.503 -0.9444 -2.1544 -0.1982
  335TIP3   OH222563   5.374   5.768   7.692 -0.2484 -0.7608  0.1814
  335TIP3    H122564   5.316   5.747   7.619  0.0523 -1.6756  0.1971
  335TIP3    H222565   5.316   5.802   7.760 -0.2737  2.8116 -1.3976
  336TIP3   OH222566   6.537   0.936   0.945 -0.8905  0.3264  0.4954
  336TIP3    H122567   6.598   1.008   0.933 -1.1775  0.6562  0.9885
  336TIP3    H222568   6.554   0.877   0.871 -0.2695  0.6180  0.4036
  337TIP3   OH222569   2.176   5.026   1.083  0.3341 -0.4081 -0.2503
  337TIP3    H122570   2.219   4.969   1.019  0.2097 -0.0056 -0.7027
  337TIP3    H222571   2.220   5.110   1.073  1.4275 -0.7516  1.3459
  338TIP3   OH222572   2.153   5.505   7.920 -0.0506 -0.5139 -0.1881
  338TIP3    H122573   2.165   5.596   7.895 -1.7845 -0.2313 -0.1153
  338TIP3    H222574   2.059   5.497   7.938  0.1624 -2.1720  0.3635
  339TIP3   OH222575   1.991   2.464   2.608  0.1599  0.3142  0.3170
  339TIP3    H122576   2.001   2.547   2.655  0.2204  0.8910 -0.6777
  339TIP3    H222577   2.026   2.482   2.521  0.5223 -0.8723  0.2005
  340TIP3   OH222578   1.113   0.553   0.255 -0.1275  0.7754  0.2950
  340TIP3    H122579   1.127   0.501   0.334 -0.6185 -0.5642 -0.4784
  340TIP3    H222580   1.028   0.525   0.222  1.4216 -1.1088 -2.4827
  341TIP3   OH222581   2.103   2.467   2.320 -0.3541  0.7601  0.9460
  341TIP3    H122582   2.089   2.390   2.265 -1.3330  0.4080  1.6412
  341TIP3    H222583   2.198   2.482   2.318 -0.4252  1.2812 -1.4720
  342TIP3   OH222584   1.250   3.305   0.231 -0.2188  0.2958  0.2671
  342TIP3    H122585   1.187   3.336   0.297  0.5879 -1.9575  2.2437
  342TIP3    H222586   1.255   3.211   0.245  2.1295  0.1316 -1.1657
  343TIP3   OH222587   1.192   1.702   0.967 -0.4811 -0.4784 -0.1484
  343TIP3    H122588   1.156   1.733   1.050 -0.5564  0.4049 -0.4945
  343TIP3    H222589   1.143   1.622   0.948  1.1471 -2.0584  1.8090
  344TIP3   OH222590   0.986   2.078   0.387 -0.4144  0.1927 -0.4558
  344TIP3    H122591   1.011   2.074   0.479 -1.3763 -0.8231 -0.2061
  344TIP3    H222592   1.027   2.000   0.348 -1.5297 -0.4210 -0.4514
  345TIP3   OH222593   3.240   1.285   8.114 -0.1303 -0.5356 -0.0933
  345TIP3    H122594   3.320   1.334   8.092  0.1434 -0.4485  1.0265
  345TIP3    H222595   3.191   1.282   8.032  0.8853 -0.3361 -0.7388
  346TIP3   OH222596   3.098   4.547   0.440  0.5708  0.1380  0.1591
  346TIP3    H122597   3.070   4.474   0.384 -0.0921 -0.5154  1.2894
  346TIP3    H222598   3.039   4.542   0.516 -0.0552  2.3770 -0.1036
  347TIP3   OH222599   0.487   3.172   2.002 -0.5493 -0.1364  0.0491
  347TIP3    H122600   0.476   3.265   1.985 -2.0864 -0.5381 -1.4362
  347TIP3    H222601   0.579   3.155   1.984 -0.6099  0.8094 -1.3337
  348TIP3   OH222602   0.813   1.219   2.079 -0.1181  0.0176 -0.2598
  348TIP3    H122603   0.823   1.184   2.168  2.6677 -1.9339 -1.2209
  348TIP3    H222604   0.804   1.313   2.091 -0.1300 -0.2240  2.1037
  349TIP3   OH222605   0.693   4.105   2.869  0.8666 -0.2055 -0.1146
  349TIP3    H122606   0.640   4.102   2.948 -0.1543  1.0796 -0.7326
  349TIP3    H222607   0.781   4.126   2.900  0.7108 -0.8318  0.7712
  350TIP3   OH222608   5.241   0.474   7.567  0.2639  0.2344 -0.4932
  350TIP3    H122609   5.308   0.484   7.635 -1.7352 -0.9894  1.8135
  350TIP3    H222610   5.248   0.382   7.541 -0.9486 -0.1334  0.3582
  351TIP3   OH222611   5.724   0.153   1.561  0.2655 -0.1251  0.3091
  351TIP3    H122612   5.639   0.110   1.550 -0.4573  1.4106 -0.5450
  351TIP3    H222613   5.726   0.180   1.652 -0.0443 -0.4189  0.4030
  352TIP3   OH222614   4.148   6.673   2.006  0.3640  0.0921 -0.3745
  352TIP3    H122615   4.059   6.659   1.975  0.8934 -1.0079 -1.4730
  352TIP3    H222616   4.187   6.586   2.005  1.2479  0.4522  0.7828
  353TIP3   OH222617   4.885   0.324   7.710 -0.1701 -0.7275  0.1027
  353TIP3    H122618   4.804   0.283   7.740  0.4094 -0.9573  1.4364
  353TIP3    H222619   4.866   0.351   7.621 -2.6966  1.8085  1.2512
  354TIP3   OH222620   1.651   2.949   2.556  0.6470  0.2106 -0.0735
  354TIP3    H122621   1.693   2.895   2.489 -2.5434 -2.0299 -0.5137
  354TIP3    H222622   1.704   2.936   2.635  1.8887 -0.7831 -1.0350
  355TIP3   OH222623   2.166   4.431   0.247 -0.0986 -0.1202 -0.2271
  355TIP3    H122624   2.171   4.427   0.152  0.1465 -1.2628 -0.1810
  355TIP3    H222625   2.254   4.460   0.274  0.3143 -1.2312 -0.3029
  356TIP3   OH222626   0.898   6.103   8.065  0.1705  0.2734  0.6852
  356TIP3    H122627   0.864   6.145   7.986  0.2373  0.8912  0.9793
  356TIP3    H222628   0.875   6.010   8.055 -1.1903  0.5863  0.6491
  357TIP3   OH222629   4.731   3.905   1.558  0.1661  0.1706 -0.8145
  357TIP3    H122630   4.800   3.861   1.508 -1.0284 -0.8425 -1.6499
  357TIP3    H222631   4.665   3.837   1.572  0.0526  0.6618  1.4175
  358TIP3   OH222632   3.072   2.278   7.651 -0.2000  0.2173 -0.3544
  358TIP3    H122633   2.978   2.266   7.651 -0.0095 -1.5234 -0.2242
  358TIP3    H222634   3.105   2.215   7.587  0.8808  0.7837 -0.3860
  359TIP3   OH222635   1.493   3.317   2.599  0.1203 -0.0054 -0.1280
  359TIP3    H122636   1.459   3.403   2.622  0.5494  0.1328  0.0016
  359TIP3    H222637   1.580   3.314   2.638  0.1278 -0.4820 -0.1692
  360TIP3   OH222638   3.055   1.493   0.414  0.0785  0.1107 -0.3689
  360TIP3    H122639   3.063   1.547   0.335  0.6029 -0.3894 -0.6637
  360TIP3    H222640   3.135   1.440   0.415  0.4211  0.6263  0.8890
  361TIP3   OH222641   4.345   3.108   0.713  0.2762 -0.2507 -0.1628
  361TIP3    H122642   4.263   3.099   0.760 -0.1148 -1.3451 -1.0104
  361TIP3    H222643   4.325   3.167   0.641  0.0594 -1.0018 -0.7266
  362TIP3   OH222644   1.990   4.993   2.308  0.7620 -0.1388 -0.4116
  362TIP3    H122645   1.963   5.084   2.319  0.7733 -0.3163  1.4117
  362TIP3    H222646   1.911   4.947   2.284  0.1290 -0.0591  1.3528
  363TIP3   OH222647   3.808   0.514   2.791 -0.0918 -0.3047 -0.3037
  363TIP3    H122648   3.741   0.581   2.776  0.9689  1.3033  1.6886
  363TIP3    H222649   3.761   0.443   2.835 -0.5240  0.7869  1.0394
  364TIP3   OH222650   4.725   5.370   7.654 -0.5495  0.0483  0.1915
  364TIP3    H122651   4.717   5.289   7.605 -0.2161 -1.5726  2.6336
  364TIP3    H222652   4.799   5.416   7.615  1.5268 -2.5086  0.8794
  365TIP3   OH222653   5.968   2.873   8.223  0.3974  0.0652 -0.7514
  365TIP3    H122654   5.942   2.781   8.226 -0.0101  0.1661 -1.1023
  365TIP3    H222655   5.985   2.891   8.130  0.1835  0.4201 -0.7259
  366TIP3   OH222656   6.380   0.258   8.028  0.1178 -0.5220 -0.0092
  366TIP3    H122657   6.385   0.352   8.013 -1.8346 -0.5642 -1.2510
  366TIP3    H222658   6.409   0.247   8.119  2.8972  0.9267 -0.6299
  367TIP3   OH222659   0.216   4.555   0.002 -0.0537 -0.2410 -0.2364
  367TIP3    H122660   0.142   4.615  -0.008 -0.2113 -0.4195 -0.1708
  367TIP3    H222661   0.201   4.512   0.087  0.3197 -0.0193 -0.0571
  368TIP3   OH222662   3.391   0.270   0.969 -0.2801  0.1608  0.0688
  368TIP3    H122663   3.419   0.353   1.008 -0.8826  0.3230  0.1702
  368TIP3    H222664   3.338   0.228   1.037  1.2070 -0.9955  0.5651
  369TIP3   OH222665   3.566   2.853   2.158  0.0520  0.3016  0.3388
  369TIP3    H122666   3.534   2.817   2.076 -1.6447  2.6509 -0.1400
  369TIP3    H222667   3.509   2.815   2.225  0.6288 -0.6296  0.3316
  370TIP3   OH222668   1.866   4.355   0.438  0.3739  0.5561 -0.5230
  370TIP3    H122669   1.866   4.340   0.532  0.3200  0.2456 -0.5710
  370TIP3    H222670   1.943   4.308   0.406  0.0662  0.1760 -0.7096
  371TIP3   OH222671   5.001   5.179   3.577  0.5821 -0.3636  0.1896
  371TIP3    H122672   5.010   5.273   3.560  1.7551 -0.6229 -0.8229
  371TIP3    H222673   5.088   5.152   3.609  0.0413 -0.9740  1.2008
  372TIP3   OH222674   6.151   0.860   0.348  0.0563  0.2353  0.4096
  372TIP3    H122675   6.065   0.870   0.388 -0.8992 -0.5710 -1.3723
  372TIP3    H222676   6.174   0.768   0.360  1.1716  0.6472  1.7648
  373TIP3   OH222677   5.241   6.215   2.302 -0.2517  0.5395  0.2364
  373TIP3    H122678   5.318   6.182   2.255 -0.8341  0.4382 -0.6670
  373TIP3    H222679   5.251   6.311   2.300  1.8500  0.5446  3.5467
  374TIP3   OH222680   3.487   1.828   3.006 -0.4591 -0.0355 -0.0731
  374TIP3    H122681   3.479   1.853   3.098  0.2137 -1.1632  0.3057
  374TIP3    H222682   3.396   1.823   2.975 -0.7329 -0.4992  0.7699
  375TIP3   OH222683   3.428   3.277   7.621  0.1271 -0.0075 -0.2330
  375TIP3    H122684   3.338   3.248   7.633 -0.6593  1.7386 -1.4468
  375TIP3    H222685   3.482   3.200   7.638 -1.6827 -1.5087 -1.1296
  376TIP3   OH222686   2.004   5.562   0.893 -0.0850  0.0938 -0.2231
  376TIP3    H122687   2.086   5.584   0.849 -0.1675 -1.1534 -1.0665
  376TIP3    H222688   2.022   5.478   0.936 -0.1655  1.0106  1.7390
  377TIP3   OH222689   3.898   2.497   0.283  0.0613  0.3797 -0.1236
  377TIP3    H122690   3.949   2.577   0.270 -0.8346  0.7039 -1.9097
  377TIP3    H222691   3.929   2.437   0.215 -1.1244  0.1836 -0.5189
  378TIP3   OH222692   1.094   6.246   7.934  0.1847  0.1416  0.3024
  378TIP3    H122693   1.044   6.245   8.015  0.8890  0.3645  0.7512
  378TIP3    H222694   1.087   6.156   7.901 -0.8801  0.2866  0.1140
  379TIP3   OH222695   4.259   6.112   1.428  0.2739 -0.2356 -0.6620
  379TIP3    H122696   4.337   6.101   1.374  0.8410 -1.7929  0.4063
  379TIP3    H222697   4.277   6.191   1.480  0.8820 -0.2604 -0.8262
  380TIP3   OH222698   6.124   1.743   7.393  0.6391  0.2839  0.2878
  380TIP3    H122699   6.040   1.784   7.415  2.1080  3.3642  0.7899
  380TIP3    H222700   6.144   1.775   7.305 -0.0922 -3.0662 -1.2411
  381TIP3   OH222701   0.557   0.230   2.554  0.2659  0.0695  0.1422
  381TIP3    H122702   0.519   0.299   2.609  2.9100  1.9435 -0.2074
  381TIP3    H222703   0.585   0.163   2.617  0.3529  0.6900  0.7786
  382TIP3   OH222704   0.182   6.338   0.471 -0.6467 -0.0026  0.3519
  382TIP3    H122705   0.185   6.251   0.510 -2.2230  0.2383  1.1002
  382TIP3    H222706   0.273   6.367   0.466 -0.0333 -1.9424 -0.5197
  383TIP3   OH222707   3.457   4.588   0.476  0.4036 -0.2236  0.2141
  383TIP3    H122708   3.528   4.542   0.431 -0.7214 -1.3845 -0.4675
  383TIP3    H222709   3.398   4.518   0.506  0.5649  0.5857  2.6138
  384TIP3   OH222710   1.602   2.716   3.383 -0.5219  0.1413  0.1182
  384TIP3    H122711   1.677   2.768   3.411  0.9603 -1.9237  0.2157
  384TIP3    H222712   1.637   2.654   3.319 -1.6087 -2.3167  1.7089
  385TIP3   OH222713   1.616   0.927   2.618  0.7196  0.0451  0.1612
  385TIP3    H122714   1.666   0.965   2.545  0.3219  1.2854  0.5057
  385TIP3    H222715   1.533   0.901   2.579  2.3940 -4.4430 -1.0096
  386TIP3   OH222716   5.826   1.210   2.149 -0.6924  0.4004 -0.3660
  386TIP3    H122717   5.818   1.290   2.202  1.0837 -0.0252  0.6581
  386TIP3    H222718   5.757   1.153   2.182  0.5458  0.0312  1.8333
  387TIP3   OH222719   2.172   5.902   2.066 -0.0625  0.1262  0.4386
  387TIP3    H122720   2.116   5.923   1.991 -1.0046  0.0808  1.1091
  387TIP3    H222721   2.223   5.827   2.038  0.3144  0.7203 -0.5082
  388TIP3   OH222722   0.156   2.948   1.257  0.0947 -0.5083  0.9056
  388TIP3    H122723   0.150   2.986   1.345  2.7639 -1.0850  1.4064
  388TIP3    H222724   0.138   2.855   1.270  0.5474 -0.6037  0.8532
  389TIP3   OH222725   2.791   1.424   1.560  0.7051 -0.4210 -0.3092
  389TIP3    H122726   2.808   1.331   1.574 -0.4738 -0.6833 -0.5437
  389TIP3    H222727   2.861   1.451   1.501  1.4893 -0.9772  0.3414
  390TIP3   OH222728   5.337   3.899   0.195  0.4756 -0.2700 -0.4144
  390TIP3    H122729   5.353   3.981   0.148  0.1607 -0.0516 -0.1473
  390TIP3    H222730   5.299   3.927   0.279  2.4466 -0.5604  0.6204
  391TIP3   OH222731   4.710   0.646   7.492  0.8216  0.0172 -0.1490
  391TIP3    H122732   4.691   0.586   7.421  0.2992  0.3214 -0.2722
  391TIP3    H222733   4.803   0.667   7.482  0.3615  1.4879 -1.8637
  392TIP3   OH222734   6.725   0.517   0.338  0.0096 -0.1278  0.0052
  392TIP3    H122735   6.680   0.598   0.313  0.0716 -0.1577 -0.2015
  392TIP3    H222736   6.683   0.449   0.286 -0.9583 -0.4398  1.1461
  393TIP3   OH222737   2.847   2.493   3.306  0.0249 -0.1915  0.0480
  393TIP3    H122738   2.820   2.540   3.227 -0.3612 -0.1724  0.1910
  393TIP3    H222739   2.835   2.556   3.377 -2.1816 -1.0317  0.4919
  394TIP3   OH222740   2.592   3.494   7.879  0.2167 -0.0488  0.1228
  394TIP3    H122741   2.634   3.464   7.799 -1.2577 -2.8283  0.2555
  394TIP3    H222742   2.500   3.470   7.868 -0.2520  0.6059  2.1550
  395TIP3   OH222743   2.737   3.632   2.017  0.0618  0.0436 -0.0840
  395TIP3    H122744   2.780   3.677   1.944 -0.0224 -0.5608 -0.5104
  395TIP3    H222745   2.647   3.619   1.988  0.0142 -0.1541  0.1478
  396TIP3   OH222746   3.196   2.249   1.231  0.2249 -0.1617  0.1214
  396TIP3    H122747   3.286   2.257   1.201  0.4101 -0.9557  0.4466
  396TIP3    H222748   3.200   2.185   1.302 -0.7491 -1.0059 -0.5544
  397TIP3   OH222749   4.398   4.119   1.832  0.3140  0.3850  0.0626
  397TIP3    H122750   4.447   4.116   1.750  0.2415  1.4932 -0.0401
  397TIP3    H222751   4.388   4.213   1.850 -1.9158  0.1917  0.0114
  398TIP3   OH222752   0.568   6.228   7.656  0.2849  0.6811 -0.5516
  398TIP3    H122753   0.521   6.186   7.584 -1.6598 -0.9486  1.5113
  398TIP3    H222754   0.568   6.162   7.726  4.0275  1.3342  0.2764
  399TIP3   OH222755   6.433   5.116   2.886  0.2953  0.2447  0.0048
  399TIP3    H122756   6.473   5.188   2.935  1.2819 -0.9364  1.0019
  399TIP3    H222757   6.445   5.039   2.942 -0.6948 -0.7134 -1.0489
  400TIP3   OH222758   2.346   4.058   7.710 -0.1306  0.4415 -0.6528
  400TIP3    H122759   2.368   3.969   7.682 -0.2572  0.3183 -0.3665
  400TIP3    H222760   2.400   4.115   7.655  0.4116  0.1703 -0.4073
  401TIP3   OH222761   1.098   5.274   2.564  0.0787 -0.2308 -0.2276
  401TIP3    H122762   1.045   5.197   2.545  0.7504 -0.9797  0.8410
  401TIP3    H222763   1.071   5.301   2.652  1.6727 -0.8334  0.4739
  402TIP3   OH222764   4.320   6.217   0.102  0.0117  0.3650  0.1306
  402TIP3    H122765   4.358   6.242   0.018  1.0045  0.1247  0.4967
  402TIP3    H222766   4.234   6.180   0.080  0.6262 -0.5219 -0.8672
  403TIP3   OH222767   5.435   1.072   0.447  0.6000 -0.2793  0.1035
  403TIP3    H122768   5.530   1.070   0.459  0.3750 -0.8118  2.1146
  403TIP3    H222769   5.417   1.158   0.410  1.9639 -0.6175 -1.4603
  404TIP3   OH222770   6.465   3.325   2.772  0.1730  0.6163  0.1405
  404TIP3    H122771   6.494   3.365   2.854  0.2208  0.5850  0.1391
  404TIP3    H222772   6.444   3.399   2.715 -1.2553  0.6424  0.6655
  405TIP3   OH222773   0.151   2.372   0.747 -0.2895  0.3586 -0.2041
  405TIP3    H122774   0.149   2.445   0.809 -2.0972  0.4915 -0.3417
  405TIP3    H222775   0.078   2.390   0.687  0.8769 -0.2132 -1.8623
  406TIP3   OH222776   6.693   4.637   8.249  0.6437 -0.5846 -0.0378
  406TIP3    H122777   6.749   4.581   8.196 -0.2697 -0.3646 -1.2648
  406TIP3    H222778   6.704   4.724   8.212  0.6805 -0.2503  0.7295
  407TIP3   OH222779   6.777   6.618   0.399  0.1704  0.5677  0.1240
  407TIP3    H122780   6.854   6.567   0.423  0.1189  0.7697  0.7227
  407TIP3    H222781   6.722   6.557   0.350  0.5014  0.2957  0.0897
  408TIP3   OH222782   3.864   1.948   0.411 -0.5180  0.2784 -0.0275
  408TIP3    H122783   3.799   2.015   0.390 -1.6800 -1.0033 -0.6454
  408TIP3    H222784   3.931   1.958   0.344 -0.6443  0.8606 -0.0719
  409TIP3   OH222785   2.158   2.701   1.570 -0.5592 -0.2758  0.0619
  409TIP3    H122786   2.100   2.744   1.632 -0.0759 -0.5015  0.6756
  409TIP3    H222787   2.214   2.771   1.537 -0.9904 -0.1079 -0.3245
  410TIP3   OH222788   0.625   5.325   3.215 -0.5169 -0.1772 -0.1184
  410TIP3    H122789   0.597   5.375   3.139  0.5749  0.4599 -0.1087
  410TIP3    H222790   0.555   5.339   3.280 -2.5275 -2.3632 -1.6059
  411TIP3   OH222791   6.144   1.885   7.149  0.0710  0.2260  0.3641
  411TIP3    H122792   6.094   1.954   7.105  1.3826 -0.6215 -2.7121
  411TIP3    H222793   6.235   1.901   7.124  0.7557 -0.9939  1.9304
  412TIP3   OH222794   1.156   0.861   1.861  0.0471  0.5421  0.0509
  412TIP3    H122795   1.076   0.902   1.893  0.0282  0.8950 -0.4500
  412TIP3    H222796   1.184   0.916   1.788  1.0555  0.7571  0.5732
  413TIP3   OH222797   4.901   1.984   8.259 -0.0131 -0.6828 -0.2097
  413TIP3    H122798   4.948   2.022   8.333  0.9318 -1.1952 -0.5210
  413TIP3    H222799   4.913   1.889   8.268 -1.0634 -0.8389 -0.2663
  414TIP3   OH222800   4.730   0.459   1.952 -0.2603 -0.4565 -0.0087
  414TIP3    H122801   4.741   0.530   2.015  1.4733 -1.0062  0.3754
  414TIP3    H222802   4.733   0.502   1.867 -3.3136  0.3832  0.1898
  415TIP3   OH222803   3.753   0.811   3.458 -0.5259 -0.2014 -0.1775
  415TIP3    H122804   3.691   0.884   3.463 -0.8553 -0.4835 -0.1128
  415TIP3    H222805   3.699   0.733   3.468 -0.0629 -0.4242  0.6348
  416TIP3   OH222806   0.240   3.225   1.854 -0.7367 -0.6738  0.3318
  416TIP3    H122807   0.311   3.201   1.795  0.6667  2.2201  0.6667
  416TIP3    H222808   0.272   3.203   1.942 -0.0707  0.8893  0.5082
  417TIP3   OH222809   5.601   0.688   7.264  0.0978  0.0921  0.4365
  417TIP3    H122810   5.560   0.742   7.196  1.1088  0.5034  0.1412
  417TIP3    H222811   5.527   0.645   7.308 -0.5342 -1.3616 -1.8554
  418TIP3   OH222812   4.218   5.500   2.612 -0.4509 -0.3377 -0.4391
  418TIP3    H122813   4.283   5.465   2.551  0.5452  0.4511  0.1422
  418TIP3    H222814   4.262   5.574   2.654 -1.4406 -0.3044  0.5753
  419TIP3   OH222815   0.699   5.982   1.706 -0.2767  0.7146  0.0787
  419TIP3    H122816   0.683   5.888   1.701 -0.5625  0.6949  1.0872
  419TIP3    H222817   0.794   5.989   1.714 -0.4006  0.3184  2.7804
  420TIP3   OH222818   2.478   0.680   2.206  0.2712 -0.6938  0.0535
  420TIP3    H122819   2.399   0.727   2.234 -0.0866 -0.5036 -1.2123
  420TIP3    H222820   2.547   0.747   2.206  0.2749 -0.6983  0.4900
  421TIP3   OH222821   4.553   0.191   3.385  0.3344  0.9961  0.1460
  421TIP3    H122822   4.591   0.242   3.457  1.4739  1.3296 -0.6630
  421TIP3    H222823   4.519   0.112   3.427  3.0328  0.0702  0.8239
  422TIP3   OH222824   4.517   3.087   1.076 -0.2697 -0.3356  0.4467
  422TIP3    H122825   4.562   3.170   1.092  0.0823 -0.2175 -1.0762
  422TIP3    H222826   4.567   3.023   1.126 -0.2150  0.2703  1.1864
  423TIP3   OH222827   4.280   0.344   2.924  0.8960 -0.0250  0.2680
  423TIP3    H122828   4.225   0.418   2.948  0.5138  0.3267 -1.5903
  423TIP3    H222829   4.302   0.303   3.008  0.9267  2.0284  1.3138
  424TIP3   OH222830   6.257   0.784   1.264 -0.0488  0.4838 -0.2610
  424TIP3    H122831   6.312   0.861   1.251  0.8040 -0.1720 -0.6411
  424TIP3    H222832   6.174   0.818   1.297  0.1195  1.6182 -0.9752
  425TIP3   OH222833   5.374   1.036   1.500 -0.1591  0.4452 -0.1719
  425TIP3    H122834   5.382   1.083   1.417 -0.4872 -0.4820 -0.7485
  425TIP3    H222835   5.288   0.995   1.496  0.2836 -0.5536  0.1133
  426TIP3   OH222836   4.863   5.415   1.709  0.0225 -0.3252  0.1987
  426TIP3    H122837   4.851   5.499   1.665  0.0111 -0.9731 -1.0554
  426TIP3    H222838   4.946   5.382   1.676 -0.2222 -1.0455  0.2821
  427TIP3   OH222839   4.823   4.582   8.094 -0.3026  0.3232 -1.1669
  427TIP3    H122840   4.866   4.504   8.059 -0.5021 -1.1319  1.5628
  427TIP3    H222841   4.730   4.563   8.091 -0.2967 -0.2528  0.8711
  428TIP3   OH222842   4.369   5.116   3.098 -0.0162  0.2439  0.3379
  428TIP3    H122843   4.333   5.191   3.051  1.6176  0.3536 -0.8317
  428TIP3    H222844   4.330   5.121   3.185 -2.2910  0.6665 -0.6471
  429TIP3   OH222845   2.355   3.766   0.419 -0.5514  0.2845  0.5766
  429TIP3    H122846   2.299   3.722   0.483  0.0274  2.2525  2.5765
  429TIP3    H222847   2.299   3.779   0.343 -1.3345 -1.9452  0.7100
  430TIP3   OH222848   5.997   3.587   7.675  0.1382 -0.2249  0.0969
  430TIP3    H122849   5.981   3.661   7.617 -1.5252 -0.2613  0.4670
  430TIP3    H222850   5.951   3.514   7.634  0.1382 -0.5923  0.7404
  431TIP3   OH222851   4.427   2.048   7.283  0.3526  0.2495  0.4703
  431TIP3    H122852   4.402   2.093   7.364  0.7746  0.0913  0.6906
  431TIP3    H222853   4.488   2.108   7.240  3.0743 -1.1635  2.0489
  432TIP3   OH222854   6.448   5.472   1.680 -0.2381 -0.5441 -0.3981
  432TIP3    H122855   6.415   5.490   1.592  0.4774 -0.7305 -0.7156
  432TIP3    H222856   6.522   5.532   1.690 -0.7475 -0.0356  0.3474
  433TIP3   OH222857   0.232   3.023   7.770 -0.1411 -0.5572  0.0427
  433TIP3    H122858   0.204   2.954   7.830  0.9566 -1.5466 -0.5352
  433TIP3    H222859   0.322   3.042   7.795 -0.1357  0.0135 -0.3868
  434TIP3   OH222860   0.309   0.614   3.065 -0.4013  0.0609 -1.0103
  434TIP3    H122861   0.381   0.648   3.012  1.4125 -1.6317  0.2273
  434TIP3    H222862   0.288   0.530   3.026 -1.2801  0.2656 -0.9811
  435TIP3   OH222863   4.752   4.396   3.617 -0.1093 -0.0258  0.0996
  435TIP3    H122864   4.777   4.463   3.681  0.7956  0.5858 -0.8823
  435TIP3    H222865   4.812   4.323   3.633  1.2424  0.7804 -1.1332
  436TIP3   OH222866   3.583   1.672   2.313 -0.0303  0.4253  0.4636
  436TIP3    H122867   3.659   1.632   2.355  0.5550  1.0031 -0.0423
  436TIP3    H222868   3.553   1.738   2.375  1.9534  2.5884 -0.7398
  437TIP3   OH222869   1.622   0.344   2.520 -0.1842 -0.1534 -0.0464
  437TIP3    H122870   1.557   0.396   2.566  0.7578  1.4952 -0.4801
  437TIP3    H222871   1.639   0.393   2.439 -3.3416 -3.9239 -3.4455
  438TIP3   OH222872   5.366   4.064   1.802 -0.2402 -0.6274 -0.5907
  438TIP3    H122873   5.412   4.084   1.720  0.9197 -1.3966 -0.1518
  438TIP3    H222874   5.299   4.133   1.810 -1.7379 -1.6377 -3.1815
  439TIP3   OH222875   4.823   2.672   2.790  0.0850 -0.3927 -0.8714
  439TIP3    H122876   4.735   2.664   2.753 -0.8825 -1.3297  1.3989
  439TIP3    H222877   4.825   2.607   2.861  2.8762 -0.8808 -1.2668
  440TIP3   OH222878   1.274   4.523   1.650  0.2084  0.1910  0.1931
  440TIP3    H122879   1.344   4.566   1.700 -1.0299 -0.0304  2.2279
  440TIP3    H222880   1.207   4.591   1.639  0.0231 -0.0596 -0.2555
  441TIP3   OH222881   2.687   1.627   0.724 -0.8565  0.1909 -0.2266
  441TIP3    H122882   2.716   1.712   0.690  1.6308 -0.0039  1.1335
  441TIP3    H222883   2.671   1.643   0.817  1.2661 -1.0915  0.4305
  442TIP3   OH222884   4.924   4.747   0.242 -0.0512  0.0058  0.2204
  442TIP3    H122885   4.921   4.838   0.214  0.3380  0.6741  2.1909
  442TIP3    H222886   4.959   4.750   0.331  0.1840 -2.0922  0.2571
  443TIP3   OH222887   0.676   2.867   6.638 -0.3009  0.6569 -0.5751
  443TIP3    H122888   0.683   2.824   6.552  0.0334 -2.1072  0.7092
  443TIP3    H222889   0.585   2.856   6.662  0.0908 -0.8077  0.3994
  444TIP3   OH222890   4.653   3.852   1.895 -0.7393 -0.0871  0.7470
  444TIP3    H122891   4.568   3.840   1.852  0.3485 -0.6139 -1.4055
  444TIP3    H222892   4.706   3.778   1.863  1.0600  1.2194  0.5723
  445TIP3   OH222893   0.715   2.008   7.800  0.0296 -0.1816  0.3024
  445TIP3    H122894   0.708   1.913   7.798 -0.9210 -0.1285 -1.5842
  445TIP3    H222895   0.721   2.034   7.708 -2.7004  1.7096  0.5160
  446TIP3   OH222896   3.685   2.716   3.647 -0.4657  0.7740  0.0995
  446TIP3    H122897   3.730   2.779   3.703 -1.3721 -0.0280  1.8265
  446TIP3    H222898   3.597   2.711   3.684 -0.5285 -1.1769 -0.2213
  447TIP3   OH222899   1.327   6.342   1.562 -0.5689  0.1218  0.3850
  447TIP3    H122900   1.259   6.409   1.555 -0.6654  0.0601  0.7099
  447TIP3    H222901   1.353   6.325   1.472  0.0373  1.1829  0.3424
  448TIP3   OH222902   4.673   1.197   2.679 -0.0547  0.0052  0.1622
  448TIP3    H122903   4.715   1.275   2.714 -1.3490  1.6313 -1.7487
  448TIP3    H222904   4.739   1.157   2.623  0.4790 -0.1011  0.8449
  449TIP3   OH222905   0.817   0.467   0.194  0.1913  0.4810  0.3109
  449TIP3    H122906   0.797   0.488   0.284 -0.3023  0.3764  0.2263
  449TIP3    H222907   0.794   0.374   0.185  1.3122  0.1746  0.3865
  450TIP3   OH222908   1.840   2.722   8.124  0.1214  0.0283  0.1021
  450TIP3    H122909   1.861   2.642   8.076  0.8520  0.4729 -0.3497
  450TIP3    H222910   1.747   2.715   8.143  0.3721 -1.3958  0.9625
  451TIP3   OH222911   6.773   4.434   0.349  0.4222 -0.5687 -0.3157
  451TIP3    H122912   6.749   4.405   0.436  1.3485 -1.1024 -0.2293
  451TIP3    H222913   6.725   4.516   0.337  1.9295  0.6636  1.5599
  452TIP3   OH222914   0.718   4.521   7.584 -0.0643  0.8781  0.4292
  452TIP3    H122915   0.727   4.429   7.611 -1.7056  0.4937 -0.2324
  452TIP3    H222916   0.640   4.552   7.630  0.5153  1.9941  0.7062
  453TIP3   OH222917   0.411   4.766   2.266  0.2925  0.0645 -0.2853
  453TIP3    H122918   0.435   4.809   2.348  0.3854 -1.8996  0.7817
  453TIP3    H222919   0.491   4.723   2.237 -0.0753 -0.3738 -0.6701
  454TIP3   OH222920   1.661   5.806   1.576  0.7208 -0.0615  0.6510
  454TIP3    H122921   1.566   5.808   1.589  0.6356 -3.2008  1.4486
  454TIP3    H222922   1.673   5.831   1.485 -1.3305 -3.0222 -0.6189
  455TIP3   OH222923   6.794   6.886   1.812 -0.5704 -0.3560  0.1878
  455TIP3    H122924   6.874   6.907   1.861  0.4145  2.3690 -2.2851
  455TIP3    H222925   6.727   6.942   1.852 -0.2349  0.4230 -0.3290
  456TIP3   OH222926   0.878   7.013   0.786  0.4624 -0.3625 -0.8239
  456TIP3    H122927   0.936   7.082   0.818 -0.7296  0.6868 -0.8443
  456TIP3    H222928   0.795   7.058   0.768 -0.0394 -1.6234 -1.8008
  457TIP3   OH222929   5.005   5.650   7.984  0.2062 -0.0780 -0.2821
  457TIP3    H122930   5.072   5.586   7.961  1.2571  0.7375  0.4318
  457TIP3    H222931   5.045   5.703   8.053 -0.9070  0.8867 -0.3491
  458TIP3   OH222932   4.317   3.592   0.615 -0.4665  0.2608  0.6816
  458TIP3    H122933   4.338   3.678   0.580 -1.0914 -0.2479 -1.0826
  458TIP3    H222934   4.258   3.554   0.549  0.0904 -1.6452  1.2305
  459TIP3   OH222935   4.407   0.133   7.666  0.3974  0.3070  0.3063
  459TIP3    H122936   4.341   0.203   7.671  1.0790  0.8829  1.8223
  459TIP3    H222937   4.360   0.059   7.628 -1.5355  0.2735  2.5248
  460TIP3   OH222938   4.284   3.591   2.615  0.0199 -0.0958 -0.2726
  460TIP3    H122939   4.285   3.677   2.655 -1.6515  0.1030 -0.5659
  460TIP3    H222940   4.280   3.608   2.521 -2.2976 -0.3956 -0.2867
  461TIP3   OH222941   1.978   0.637   0.882  0.2693  0.0940 -0.2326
  461TIP3    H122942   2.002   0.722   0.844 -0.3162 -0.3458 -1.6761
  461TIP3    H222943   2.055   0.610   0.932  1.0455  0.7868 -1.0201
  462TIP3   OH222944   1.420   4.819   1.627  0.0204  0.0170 -0.2842
  462TIP3    H122945   1.507   4.833   1.590  0.0058  0.6274 -0.0968
  462TIP3    H222946   1.371   4.777   1.556  0.1145  0.7882 -0.8112
  463TIP3   OH222947   2.957   1.051   3.115 -0.1419  0.0711 -0.0585
  463TIP3    H122948   2.962   0.956   3.116 -0.8196 -0.0093  2.3403
  463TIP3    H222949   2.986   1.076   3.027  0.6446 -2.2885 -0.5385
  464TIP3   OH222950   0.817   4.283   3.068 -0.1175 -0.5232  0.0953
  464TIP3    H122951   0.863   4.345   3.124 -0.6030  1.1309 -1.2664
  464TIP3    H222952   0.725   4.292   3.093 -0.3212  0.1291 -0.8412
  465TIP3   OH222953   4.923   2.858   2.083 -0.0280  0.5862 -0.0049
  465TIP3    H122954   4.998   2.810   2.049 -0.8493  0.0238 -1.1114
  465TIP3    H222955   4.856   2.790   2.096 -0.4101  1.0995  0.7799
  466TIP3   OH222956   6.364   2.609   0.593  0.1716  0.1605 -0.2004
  466TIP3    H122957   6.332   2.624   0.504  0.1182  1.0454 -0.0404
  466TIP3    H222958   6.289   2.628   0.649  0.6960  1.3473  0.1261
  467TIP3   OH222959   5.935   5.864   1.901  0.0694  0.1660  0.2280
  467TIP3    H122960   5.925   5.941   1.845  0.1866  0.2403  0.3085
  467TIP3    H222961   5.948   5.900   1.989  2.6990  0.1605 -0.0588
  468TIP3   OH222962   5.483   6.929   7.768 -0.6220 -0.2289  0.0156
  468TIP3    H122963   5.551   6.924   7.835 -0.9925 -1.6246  0.3193
  468TIP3    H222964   5.464   7.022   7.760  2.3404  0.3786 -1.1463
  469TIP3   OH222965   3.320   2.826   0.658 -0.1589  0.0588  0.2323
  469TIP3    H122966   3.235   2.786   0.637 -0.7093  0.3803  1.7447
  469TIP3    H222967   3.306   2.919   0.644  0.4526 -0.0205 -1.0718
  470TIP3   OH222968   3.504   0.480   1.150 -0.3198  0.9035  0.4942
  470TIP3    H122969   3.551   0.522   1.222  0.2747  1.1884 -0.0478
  470TIP3    H222970   3.460   0.553   1.105  1.8359  1.2321 -1.2955
  471TIP3   OH222971   3.202   3.132   0.663  0.4219  0.4886 -0.4049
  471TIP3    H122972   3.208   3.119   0.758 -0.3847 -0.2055 -0.4388
  471TIP3    H222973   3.118   3.175   0.650  0.2511  0.0318 -0.8509
  472TIP3   OH222974   6.110   6.258   2.051 -0.1961  0.5458  0.3718
  472TIP3    H122975   6.082   6.166   2.052 -1.1621  0.8274  1.5073
  472TIP3    H222976   6.105   6.285   2.143  0.3637  1.6534  0.0875
  473TIP3   OH222977   3.515   6.560   7.296 -0.1198 -0.0385 -0.3054
  473TIP3    H122978   3.490   6.473   7.264  1.4414 -0.6701  0.0782
  473TIP3    H222979   3.562   6.600   7.223 -0.4897  0.3203 -0.3447
  474TIP3   OH222980   1.499   1.629   0.055 -0.3887 -1.1635  0.4395
  474TIP3    H122981   1.411   1.658   0.080 -0.6712 -0.4854 -1.2259
  474TIP3    H222982   1.498   1.535   0.071 -1.0235 -0.9970  1.5172
  475TIP3   OH222983   2.703   1.135   0.349  0.4638 -0.3123  0.4249
  475TIP3    H122984   2.674   1.212   0.300 -0.8651 -0.6720  0.6198
  475TIP3    H222985   2.757   1.171   0.420 -0.2816  0.4547  0.6124
  476TIP3   OH222986   4.704   3.460   0.861 -0.0209  0.2509  0.2258
  476TIP3    H122987   4.642   3.388   0.849 -0.3003  0.2945  1.3367
  476TIP3    H222988   4.650   3.534   0.890  0.5613  0.2465  1.3657
  477TIP3   OH222989   2.117   4.311   2.736 -0.4632  0.5074 -0.3143
  477TIP3    H122990   2.128   4.288   2.644  1.4664  0.7856 -0.2092
  477TIP3    H222991   2.029   4.347   2.742 -1.4974 -1.6566 -1.5676
  478TIP3   OH222992   6.129   3.422   3.019 -0.0764  0.3957  0.3615
  478TIP3    H122993   6.153   3.513   3.001  0.4685  0.3221  0.6839
  478TIP3    H222994   6.137   3.413   3.114 -1.0523  0.2613  0.4480
  479TIP3   OH222995   3.689   0.343   1.432 -0.3484 -0.1573  0.1127
  479TIP3    H122996   3.683   0.323   1.338 -2.0300  0.2572  0.0967
  479TIP3    H222997   3.763   0.290   1.462  1.2541  0.8948 -1.7220
  480TIP3   OH222998   4.965   5.544   7.570  0.1168 -0.0271 -0.0998
  480TIP3    H122999   5.021   5.482   7.617  0.2374 -2.6201 -3.3561
  480TIP3    H223000   5.012   5.561   7.488 -2.0770  0.7456 -1.2652
  481TIP3   OH223001   2.755   4.582   0.967 -0.6271 -0.1782  0.4205
  481TIP3    H123002   2.669   4.624   0.969 -0.4320  0.2130  1.3105
  481TIP3    H223003   2.817   4.655   0.968 -0.2579 -0.3964  3.3681
  482TIP3   OH223004   6.032   1.070   2.303 -0.2617 -0.7318 -0.4043
  482TIP3    H123005   5.964   1.120   2.258 -1.2766  0.2808  2.0897
  482TIP3    H223006   5.993   0.984   2.319 -0.2742 -0.7524 -0.5453
  483TIP3   OH223007   2.638   2.957   3.015  0.0827  0.3661 -0.2413
  483TIP3    H123008   2.545   2.971   3.034  0.0048  0.0268 -0.3693
  483TIP3    H223009   2.678   3.044   3.026 -0.5075  0.8519 -1.6360
  484TIP3   OH223010   5.973   4.236   0.282  0.4510  0.3327 -0.1202
  484TIP3    H123011   5.894   4.183   0.293 -0.5434  1.6598 -0.6204
  484TIP3    H223012   5.955   4.289   0.204  1.3925  1.4163  0.3781
  485TIP3   OH223013   5.630   4.178   7.364 -0.0873 -0.0560 -0.4615
  485TIP3    H123014   5.695   4.247   7.356 -0.7770  0.4705 -1.7530
  485TIP3    H223015   5.669   4.103   7.319  0.2181 -0.2036  0.0338
  486TIP3   OH223016   4.442   6.352   2.579  0.6535 -0.3234 -0.6171
  486TIP3    H123017   4.431   6.420   2.645 -0.8695 -1.4195  0.3461
  486TIP3    H223018   4.536   6.348   2.563  0.7592  2.1028 -0.8411
  487TIP3   OH223019   4.145   1.422   2.698 -0.6771  0.4855  0.0679
  487TIP3    H123020   4.149   1.513   2.669 -0.2929 -0.0421 -1.6408
  487TIP3    H223021   4.208   1.376   2.644 -0.6368 -0.7656  1.1186
  488TIP3   OH223022   0.718   3.259   2.333 -0.6068 -0.1122 -0.3660
  488TIP3    H123023   0.788   3.241   2.397 -1.7640 -1.9127  0.4894
  488TIP3    H223024   0.747   3.338   2.287  1.7542 -0.5281  0.2717
  489TIP3   OH223025   3.540   1.725   7.959  1.0304  0.1525  0.0195
  489TIP3    H123026   3.483   1.748   8.032 -0.4016 -2.9622  0.0484
  489TIP3    H223027   3.484   1.732   7.882  1.3014 -0.6349 -0.2572
  490TIP3   OH223028   4.337   0.563   8.123  0.0311  0.4850  0.3107
  490TIP3    H123029   4.356   0.639   8.068  0.4127  1.4312  1.6923
  490TIP3    H223030   4.420   0.547   8.169 -1.0452  1.6481  2.8402
  491TIP3   OH223031   0.712   3.934   1.841  0.0492  0.2807  0.4271
  491TIP3    H123032   0.785   3.989   1.870  2.5570 -1.0923 -2.6747
  491TIP3    H223033   0.714   3.938   1.746 -2.6240 -1.5523  0.1488
  492TIP3   OH223034   4.737   0.279   0.327 -0.7492  0.2481 -0.0187
  492TIP3    H123035   4.763   0.196   0.286 -0.8206  0.8392 -1.3070
  492TIP3    H223036   4.705   0.254   0.413  0.5894 -0.9047  0.1835
  493TIP3   OH223037   6.188   2.832   1.690  0.9892 -0.6026  0.5971
  493TIP3    H123038   6.252   2.770   1.724 -1.4472 -4.0191 -0.4711
  493TIP3    H223039   6.115   2.826   1.752 -0.6250 -1.4495 -1.2930
  494TIP3   OH223040   1.167   6.587   2.711  0.4470 -0.8296  0.1254
  494TIP3    H123041   1.096   6.651   2.719 -1.1026 -2.4500  0.1518
  494TIP3    H223042   1.240   6.636   2.674 -0.0682  1.3343  1.7314
  495TIP3   OH223043   3.935   1.171   0.369 -0.1532 -0.1992 -0.1180
  495TIP3    H123044   3.936   1.266   0.359 -1.2343 -0.1479  0.1621
  495TIP3    H223045   4.027   1.148   0.384  0.1207  0.7986 -0.1818
  496TIP3   OH223046   3.879   6.614   1.937  0.2135  0.0411  0.5440
  496TIP3    H123047   3.864   6.682   1.871  1.4334 -0.1993 -0.0131
  496TIP3    H223048   3.877   6.532   1.888 -1.6253 -0.3820  1.2750
  497TIP3   OH223049   4.499   2.693   0.050  0.2064  0.1143 -0.0988
  497TIP3    H123050   4.534   2.658  -0.032 -0.0015  0.6603 -0.4268
  497TIP3    H223051   4.493   2.617   0.108 -0.5344 -0.4462 -0.8895
  498TIP3   OH223052   6.901   2.775   0.101  0.3880  0.1069  0.2675
  498TIP3    H123053   6.908   2.869   0.115  0.7419  0.4359 -1.8201
  498TIP3    H223054   6.817   2.751   0.140 -0.5059  1.6049 -0.6572
  499TIP3   OH223055   0.883   2.284   1.057 -0.9212 -0.5920  0.1013
  499TIP3    H123056   0.970   2.272   1.095 -0.4585  0.2622 -0.6507
  499TIP3    H223057   0.884   2.374   1.022 -2.1726 -0.4984  0.2621
  500TIP3   OH223058   3.323   2.712   2.340 -0.5119  0.0971 -0.3264
  500TIP3    H123059   3.285   2.633   2.303  0.2405  0.5079 -2.0765
  500TIP3    H223060   3.250   2.774   2.346 -1.7873 -1.4234  3.6496
  501TIP3   OH223061   4.428   4.377   0.177  0.0926  0.4731  0.1607
  501TIP3    H123062   4.396   4.361   0.266  0.1687  1.1176  0.3121
  501TIP3    H223063   4.385   4.458   0.151  0.5808  0.6368 -0.1411
  502TIP3   OH223064   0.362   4.645   0.761 -0.2022 -0.0400 -0.0351
  502TIP3    H123065   0.319   4.600   0.688 -0.2603  0.3647 -0.2532
  502TIP3    H223066   0.381   4.576   0.824 -0.0011 -0.4209 -0.5061
  503TIP3   OH223067   5.999   3.879   1.552  0.1017 -0.4692 -0.1776
  503TIP3    H123068   6.061   3.917   1.615  0.6037  0.3948 -1.1519
  503TIP3    H223069   5.915   3.919   1.574  0.6069  1.2222 -1.1418
  504TIP3   OH223070   2.210   1.225   2.974  0.0135  0.7651 -0.1570
  504TIP3    H123071   2.146   1.292   2.997 -0.7604 -0.0114 -0.0081
  504TIP3    H223072   2.295   1.266   2.991 -0.4380  1.7427 -0.1826
  505TIP3   OH223073   5.226   2.185   1.512 -0.5883 -0.3430 -0.0452
  505TIP3    H123074   5.318   2.193   1.489 -0.8597 -0.4411 -1.1963
  505TIP3    H223075   5.213   2.092   1.529 -0.9645 -0.7210 -2.1398
  506TIP3   OH223076   0.469   6.735   0.461 -0.6373 -0.6208  0.0740
  506TIP3    H123077   0.530   6.794   0.506  0.9714 -3.0258  1.2102
  506TIP3    H223078   0.384   6.754   0.501  0.2453 -0.5925  2.0442
  507TIP3   OH223079   6.492   4.524   3.318  0.1165  0.5428 -0.1503
  507TIP3    H123080   6.401   4.495   3.309  0.1004  0.3476  0.5524
  507TIP3    H223081   6.498   4.555   3.409  1.3227 -1.5222  0.5344
  508TIP3   OH223082   1.024   3.004   0.467 -0.3714 -0.1527 -0.9815
  508TIP3    H123083   1.103   3.043   0.431  0.0785  0.1942  0.3184
  508TIP3    H223084   0.958   3.015   0.398  0.5269  0.1633 -1.8174
  509TIP3   OH223085   2.157   2.870   1.823  0.8649 -0.1506 -0.1202
  509TIP3    H123086   2.086   2.925   1.789 -0.8868 -2.2977 -0.1470
  509TIP3    H223087   2.232   2.929   1.831 -0.6018  1.9546 -1.1741
  510TIP3   OH223088   0.457   5.069   1.549  0.0887  0.2454  0.1174
  510TIP3    H123089   0.364   5.057   1.567 -0.1736 -1.7822 -2.1645
  510TIP3    H223090   0.464   5.158   1.516 -1.1102  0.2699 -0.1112
  511TIP3   OH223091   1.726   0.045   3.032  0.5853  0.3948 -0.2191
  511TIP3    H123092   1.710   0.130   2.991 -1.3101  0.5942  0.8207
  511TIP3    H223093   1.646  -0.005   3.016  0.4212 -0.0820  1.7810
  512TIP3   OH223094   6.409   4.160   0.618 -0.1309  0.4063  0.0627
  512TIP3    H123095   6.418   4.138   0.711 -0.9189  0.0978  0.0794
  512TIP3    H223096   6.347   4.232   0.616  2.9027  3.2325  0.0491
  513TIP3   OH223097   1.724   6.260   0.453 -0.3637  0.2249  0.3843
  513TIP3    H123098   1.651   6.291   0.398  0.0708  1.1925  0.3356
  513TIP3    H223099   1.793   6.325   0.439  0.9119 -1.2491 -0.4009
  514TIP3   OH223100   4.289   4.944   0.442  0.1028 -0.1940 -0.6706
  514TIP3    H123101   4.195   4.952   0.455  0.0918  2.4359 -1.8323
  514TIP3    H223102   4.298   4.879   0.372 -0.9568  0.5818 -1.5582
  515TIP3   OH223103   0.135   5.839   2.104 -0.0629 -0.1139 -0.3243
  515TIP3    H123104   0.051   5.825   2.061 -0.9692  2.0787  0.5745
  515TIP3    H223105   0.188   5.884   2.038 -0.1398 -0.1102 -0.3842
  516TIP3   OH223106   0.890   2.594   2.145 -0.2321 -0.0922  0.2851
  516TIP3    H123107   0.978   2.614   2.115 -0.0618  1.0885  1.4608
  516TIP3    H223108   0.834   2.656   2.099 -0.1369  0.7653  1.2802
  517TIP3   OH223109   6.577   1.429   0.826 -0.1665 -0.1083 -0.3191
  517TIP3    H123110   6.656   1.479   0.805  0.9478 -0.2475  2.9299
  517TIP3    H223111   6.512   1.496   0.848  0.4881  0.0104  1.3791
  518TIP3   OH223112   1.201   1.616   0.683 -0.4118  0.4447  0.4829
  518TIP3    H123113   1.204   1.657   0.596  0.2928 -2.0977 -0.7722
  518TIP3    H223114   1.264   1.666   0.735  1.7524 -0.0861 -1.4913
  519TIP3   OH223115   0.437   4.841   2.540  0.3635 -0.1825 -0.3474
  519TIP3    H123116   0.445   4.908   2.609  2.4567 -0.1078 -0.6079
  519TIP3    H223117   0.407   4.763   2.586 -0.7909  0.5415  0.1869
  520TIP3   OH223118   6.832   3.697   2.214  0.0506  0.2353 -0.2355
  520TIP3    H123119   6.877   3.778   2.241  1.2554 -0.5916  0.3385
  520TIP3    H223120   6.852   3.689   2.121  2.9883 -1.1716  0.3769
  521TIP3   OH223121   0.110   2.626   2.379 -0.8146 -0.8577 -0.0527
  521TIP3    H123122   0.101   2.574   2.459 -2.0776 -0.9205 -0.2116
  521TIP3    H223123   0.199   2.661   2.383  0.0321 -2.8871  0.1348
  522TIP3   OH223124   3.004   2.581   1.619  0.4335 -0.0553  0.0298
  522TIP3    H123125   2.952   2.619   1.548  0.0120  0.1662  0.4571
  522TIP3    H223126   2.944   2.576   1.693  1.0887  0.4342  0.6016
  523TIP3   OH223127   0.131   5.816   0.208 -0.5622  0.2208 -0.2160
  523TIP3    H123128   0.079   5.739   0.187 -0.0465 -0.3334  0.5097
  523TIP3    H223129   0.209   5.807   0.153 -0.2455 -0.0657  0.2787
  524TIP3   OH223130   2.317   3.397   3.334 -0.1754 -0.1829  0.5447
  524TIP3    H123131   2.369   3.463   3.288  2.1970 -1.1408  1.6488
  524TIP3    H223132   2.380   3.353   3.391 -1.9387 -2.4638  0.8888
  525TIP3   OH223133   1.775   0.780   3.006 -0.4714 -0.7415 -0.1662
  525TIP3    H123134   1.770   0.762   3.099  1.9089 -1.6118 -0.1635
  525TIP3    H223135   1.736   0.703   2.964 -0.8583 -0.6765  0.0648
  526TIP3   OH223136   1.044   1.828   0.265  0.3232  0.0657  0.7695
  526TIP3    H123137   1.116   1.796   0.319  1.7532  2.3812  0.3586
  526TIP3    H223138   1.054   1.782   0.181 -0.0059 -1.1803  1.3788
  527TIP3   OH223139   4.704   6.600   2.603 -0.2056 -0.3245  0.4032
  527TIP3    H123140   4.761   6.533   2.640 -0.4688 -0.3499  0.7574
  527TIP3    H223141   4.626   6.600   2.658  0.2253  1.0017  1.0680
  528TIP3   OH223142   0.803   4.064   7.812 -0.2054 -0.1663  0.4350
  528TIP3    H123143   0.845   4.006   7.875  1.1781  2.0921  1.7347
  528TIP3    H223144   0.731   4.104   7.860  0.9299  1.6581  0.7067
  529TIP3   OH223145   1.504   3.465   7.541  0.0806 -0.1025 -0.0603
  529TIP3    H123146   1.587   3.489   7.499 -0.3887  0.5274 -0.6720
  529TIP3    H223147   1.478   3.384   7.498  0.2812 -0.1854 -0.0233
  530TIP3   OH223148   4.624   4.876   2.043  0.5976 -0.1128  0.1244
  530TIP3    H123149   4.530   4.892   2.051  0.4465 -0.7655 -0.2347
  530TIP3    H223150   4.630   4.790   2.000  1.3563  0.2685 -0.5732
  531TIP3   OH223151   6.082   5.108   7.477 -0.5424 -0.5907  0.7955
  531TIP3    H123152   6.098   5.100   7.571  2.0298  2.1486  0.7613
  531TIP3    H223153   6.167   5.132   7.440 -1.7573 -0.1724 -2.0496
  532TIP3   OH223154   4.083   2.182   3.563 -0.1287  0.2838 -0.0978
  532TIP3    H123155   4.113   2.255   3.616 -1.4711  1.1230 -0.4384
  532TIP3    H223156   4.143   2.110   3.584  0.2878  1.0326  1.3874
  533TIP3   OH223157   6.576   0.865   2.509 -0.2783  0.1318  0.0302
  533TIP3    H123158   6.636   0.927   2.467 -1.1603  1.4154  0.5920
  533TIP3    H223159   6.614   0.850   2.596 -0.6695  0.8309  0.3319
  534TIP3   OH223160   3.087   4.806   0.495 -0.9555  0.2357 -0.5312
  534TIP3    H123161   3.093   4.716   0.462  1.6374  0.1556 -0.0901
  534TIP3    H223162   3.031   4.851   0.432 -0.9261 -1.3028 -1.7149
  535TIP3   OH223163   3.903   6.130   0.514 -0.2334 -0.5775  0.2789
  535TIP3    H123164   3.883   6.161   0.426 -1.5921 -0.6374  0.5382
  535TIP3    H223165   3.907   6.035   0.507 -0.7578 -0.6104  0.3395
  536TIP3   OH223166   3.326   5.754   1.679 -0.2569 -0.0699 -0.3858
  536TIP3    H123167   3.325   5.659   1.675  1.3186 -0.0914 -0.9746
  536TIP3    H223168   3.281   5.781   1.599 -2.0323 -0.2828  0.5066
  537TIP3   OH223169   2.109   5.243   1.723  0.2144 -0.0434 -0.5548
  537TIP3    H123170   2.132   5.268   1.633 -2.1233 -0.4888 -1.3416
  537TIP3    H223171   2.060   5.318   1.757  0.3931 -0.2042  0.0724
  538TIP3   OH223172   6.484   5.057   7.752 -0.1569 -0.5477 -0.6965
  538TIP3    H123173   6.536   5.040   7.673 -0.9143 -1.0606 -1.1034
  538TIP3    H223174   6.428   4.980   7.761  0.8300 -1.1011  1.1091
  539TIP3   OH223175   2.743   5.493   7.789 -0.2145 -0.8504 -0.3946
  539TIP3    H123176   2.756   5.424   7.853  1.9137 -2.3563 -2.2477
  539TIP3    H223177   2.827   5.539   7.787 -1.7485  2.3289  1.2210
  540TIP3   OH223178   1.184   1.179   0.169 -0.0435 -0.3738 -0.2289
  540TIP3    H123179   1.237   1.128   0.231 -1.9553 -2.0702  0.1335
  540TIP3    H223180   1.149   1.251   0.221 -1.9025 -1.9644  0.8878
  541TIP3   OH223181   5.632   4.845   0.835  0.2411  0.1364 -0.6617
  541TIP3    H123182   5.621   4.931   0.875  0.1203  0.6463 -1.7666
  541TIP3    H223183   5.600   4.855   0.745 -2.7145 -1.8282 -0.0030
  542TIP3   OH223184   5.919   3.022   1.166  0.0703 -0.2062  0.3655
  542TIP3    H123185   6.008   3.009   1.133  0.8501  1.4924  1.6554
  542TIP3    H223186   5.926   3.010   1.260 -0.3399  3.0243  0.9232
  543TIP3   OH223187   4.629   4.594   2.003  0.1019  0.0087  0.2242
  543TIP3    H123188   4.541   4.557   2.002  0.4651 -0.8609 -0.2520
  543TIP3    H223189   4.683   4.530   1.956  0.8106  0.9770 -0.3131
  544TIP3   OH223190   0.781   2.707   2.989  0.0572 -0.1537 -0.2895
  544TIP3    H123191   0.856   2.685   3.045  0.7654  1.5049 -0.5193
  544TIP3    H223192   0.820   2.738   2.907 -0.8334  1.3276 -0.1905
  545TIP3   OH223193   6.238   5.313   1.493 -0.0166  0.3643 -0.2441
  545TIP3    H123194   6.187   5.390   1.521  1.0784  1.1096 -0.2415
  545TIP3    H223195   6.329   5.342   1.498  0.5361 -1.4857  1.4208
  546TIP3   OH223196   3.598   0.430   7.742 -0.2846  0.7257  0.1704
  546TIP3    H123197   3.653   0.504   7.767 -0.1889  0.3678  1.0535
  546TIP3    H223198   3.613   0.420   7.648  0.8339  0.9079  0.3191
  547TIP3   OH223199   6.962   4.184   0.635 -0.2230  0.5021 -0.1366
  547TIP3    H123200   6.952   4.149   0.724  0.4373 -0.2480 -0.3422
  547TIP3    H223201   7.009   4.115   0.588 -1.3678  0.4813 -1.3224
  548TIP3   OH223202   2.272   1.445   2.175  0.0811  0.2215  0.7802
  548TIP3    H123203   2.256   1.392   2.253 -0.8337 -3.0808 -1.3935
  548TIP3    H223204   2.327   1.389   2.119 -2.0808  0.8699 -2.2842
  549TIP3   OH223205   6.578   1.970   0.606 -0.1724  0.0823  0.4251
  549TIP3    H123206   6.543   2.022   0.534 -0.9218 -1.4046 -0.3353
  549TIP3    H223207   6.659   2.015   0.632  0.7485  0.0327 -2.1354
  550TIP3   OH223208   5.545   4.581   7.935 -0.1691  0.3744  0.0740
  550TIP3    H123209   5.462   4.538   7.912 -1.2540  2.2603  0.2787
  550TIP3    H223210   5.582   4.525   8.004 -1.8267  0.0691  0.7735
  551TIP3   OH223211   5.866   4.322   7.611 -0.0648  0.1463  0.6034
  551TIP3    H123212   5.835   4.328   7.520 -0.8597 -0.4843  0.8224
  551TIP3    H223213   5.894   4.411   7.633  0.5868  0.2133 -0.4086
  552TIP3   OH223214   3.440   4.208   3.027  0.2194 -0.4518  0.4715
  552TIP3    H123215   3.355   4.210   3.070  0.7993  0.4113  1.6593
  552TIP3    H223216   3.490   4.143   3.077  0.2596 -0.9688 -0.2296
  553TIP3   OH223217   5.492   3.009   8.069 -0.2083 -0.6334 -0.3221
  553TIP3    H123218   5.435   3.038   8.140 -0.3969 -1.1341 -0.2586
  553TIP3    H223219   5.577   3.049   8.087  0.2567 -2.1733  1.2099
  554TIP3   OH223220   2.861   6.572   8.171  0.1635  0.2916 -0.1040
  554TIP3    H123221   2.911   6.654   8.176  0.9877 -0.2543  0.8406
  554TIP3    H223222   2.924   6.504   8.195 -0.1126 -0.8053 -2.2399
  555TIP3   OH223223   1.644   2.139   2.479  0.1011 -0.3000 -0.5882
  555TIP3    H123224   1.564   2.114   2.525 -0.4313  2.3127  0.0672
  555TIP3    H223225   1.616   2.153   2.389  0.6068 -2.7909 -1.2086
  556TIP3   OH223226   5.998   2.832   2.187 -0.0399  0.2549 -0.2051
  556TIP3    H123227   6.032   2.921   2.179  1.0907 -0.3030 -2.0644
  556TIP3    H223228   6.059   2.788   2.247 -0.4633  0.6313  0.5217
  557TIP3   OH223229   5.278   0.612   7.119 -0.1291  0.8332  0.0240
  557TIP3    H123230   5.317   0.554   7.054  2.4402  3.7807 -1.3278
  557TIP3    H223231   5.337   0.608   7.194 -1.8469 -0.8205  1.3758
  558TIP3   OH223232   0.652   3.368   6.925 -0.1900  0.2237  0.1618
  558TIP3    H123233   0.740   3.333   6.917 -0.0629  0.7724 -1.0991
  558TIP3    H223234   0.621   3.375   6.835 -0.6707  2.1233  0.4368
  559TIP3   OH223235   6.659   2.705   0.196 -0.7107 -0.0726  0.6357
  559TIP3    H123236   6.654   2.664   0.283  1.7700 -1.8400  0.0701
  559TIP3    H223237   6.628   2.638   0.136  0.6643 -0.0909 -0.0847
  560TIP3   OH223238   5.124   6.101   7.139 -0.2723 -0.9819  0.6248
  560TIP3    H123239   5.208   6.128   7.175 -0.5098  1.0328 -0.1891
  560TIP3    H223240   5.120   6.007   7.155  3.1756 -1.6485 -1.3799
  561TIP3   OH223241   6.415   3.381   3.134 -0.2974 -0.3912  0.0832
  561TIP3    H123242   6.321   3.391   3.150 -0.9798 -2.5433 -2.0688
  561TIP3    H223243   6.440   3.304   3.185  0.1535 -0.2822  0.0323
  562TIP3   OH223244   1.978   0.648   7.290 -0.0369  0.4744  0.2967
  562TIP3    H123245   1.939   0.735   7.297  0.0704  0.4063  2.5495
  562TIP3    H223246   2.063   0.663   7.249 -0.6031  1.2052 -0.6590
  563TIP3   OH223247   4.828   6.263   1.463  0.2989  0.4657  0.8152
  563TIP3    H123248   4.780   6.313   1.397 -0.0331 -2.6548 -1.5728
  563TIP3    H223249   4.920   6.284   1.447  0.3889 -1.4261 -2.0016
  564TIP3   OH223250   5.722   0.722   0.806  0.1918 -0.2522  0.4081
  564TIP3    H123251   5.766   0.642   0.833  0.0697 -0.0782  1.1319
  564TIP3    H223252   5.794   0.784   0.789  0.4389 -1.1357 -2.3737
  565TIP3   OH223253   6.772   0.648   7.793 -0.5072  0.1228 -0.2478
  565TIP3    H123254   6.808   0.569   7.753 -3.1538 -1.9070  1.0847
  565TIP3    H223255   6.835   0.672   7.860  0.8783 -0.1714 -1.4082
  566TIP3   OH223256   2.104   4.042   2.038 -0.6524 -0.2205  0.0748
  566TIP3    H123257   2.113   4.114   1.975 -1.9306  0.7661  0.9586
  566TIP3    H223258   2.012   4.017   2.032 -0.9118  0.1972  1.8382
  567TIP3   OH223259   5.259   3.264   2.508 -0.3249 -0.0688 -0.0116
  567TIP3    H123260   5.245   3.182   2.461 -0.4905 -0.6823  1.0682
  567TIP3    H223261   5.193   3.323   2.473 -0.3449 -0.4609 -0.6546
  568TIP3   OH223262   6.122   6.851   7.083 -0.1137  0.0090  0.0149
  568TIP3    H123263   6.090   6.761   7.095  0.8915 -0.1124  2.2602
  568TIP3    H223264   6.079   6.880   7.003 -2.4566 -1.5968  0.5474
  569TIP3   OH223265   4.783   4.414   1.023 -0.2697  0.5969  0.1951
  569TIP3    H123266   4.757   4.359   1.097  1.1043  0.6955  0.7769
  569TIP3    H223267   4.747   4.370   0.947 -2.3987  0.9039  0.9468
  570TIP3   OH223268   0.221   6.300   1.197  0.7021 -0.1457 -0.1169
  570TIP3    H123269   0.270   6.245   1.136 -0.4203 -0.7623 -0.4876
  570TIP3    H223270   0.152   6.244   1.230  0.4529  0.5987  0.6716
  571TIP3   OH223271   0.639   3.265   0.036 -0.8601 -0.0071  0.3235
  571TIP3    H123272   0.649   3.186  -0.017 -0.2993 -2.1862  3.3996
  571TIP3    H223273   0.688   3.332  -0.011 -0.3325 -1.7581 -1.8140
  572TIP3   OH223274   6.201   6.908   1.407 -0.0682 -0.0137 -0.0161
  572TIP3    H123275   6.272   6.934   1.465 -2.0926  1.7904  1.8302
  572TIP3    H223276   6.159   6.833   1.451 -2.0033  1.7567  1.3571
  573TIP3   OH223277   1.583   6.154   1.539  0.1044  0.4131 -0.5648
  573TIP3    H123278   1.508   6.097   1.556  0.6504 -0.4411 -0.9528
  573TIP3    H223279   1.631   6.110   1.469  1.6039  0.3209  0.4855
  574TIP3   OH223280   4.468   2.333   2.886 -0.3172  0.7308  0.3485
  574TIP3    H123281   4.386   2.335   2.838 -0.3433 -0.4575  0.2994
  574TIP3    H223282   4.455   2.265   2.953  0.4281  0.9181  0.6992
  575TIP3   OH223283   1.957   1.027   7.443 -0.6926 -0.2136  0.1606
  575TIP3    H123284   1.972   1.010   7.536  0.0567 -0.6636 -0.0402
  575TIP3    H223285   2.023   1.093   7.420 -2.2242  1.5122  0.4350
  576TIP3   OH223286   4.901   0.370   0.894 -0.3177  0.1537 -0.0234
  576TIP3    H123287   4.882   0.372   0.988  1.9707 -0.1722  0.5183
  576TIP3    H223288   4.902   0.277   0.872  2.0241  0.0296  0.3615
  577TIP3   OH223289   2.943   4.397   1.048 -0.4382 -0.1252  0.1776
  577TIP3    H123290   3.028   4.401   1.003  0.4298 -3.0277  1.3239
  577TIP3    H223291   2.895   4.473   1.014  1.1811 -0.4652 -3.3935
  578TIP3   OH223292   1.279   0.286   0.405 -0.3696 -0.2702  0.4582
  578TIP3    H123293   1.304   0.330   0.324 -0.8920  0.0267  0.4489
  578TIP3    H223294   1.356   0.235   0.430  1.9614  3.7069  2.6110
  579TIP3   OH223295   2.899   1.660   1.334  0.1222 -0.3198  0.1880
  579TIP3    H123296   2.918   1.745   1.373 -0.8201  0.1791 -0.4003
  579TIP3    H223297   2.976   1.606   1.354  0.8453  0.7469  0.3407
  580TIP3   OH223298   1.050   2.110   0.649 -0.9694  0.0221 -0.0695
  580TIP3    H123299   1.023   2.194   0.686 -1.8065  0.1255 -0.8755
  580TIP3    H223300   1.034   2.046   0.718 -2.2873  0.2447 -0.1486
  581TIP3   OH223301   6.296   2.017   2.419  0.6826 -0.4914  0.0584
  581TIP3    H123302   6.344   1.949   2.466 -0.6844 -0.2540  1.9359
  581TIP3    H223303   6.222   1.972   2.379 -0.1961 -0.1617  1.2625
  582TIP3   OH223304   2.494   0.292   1.959  0.3664 -0.1648 -0.3592
  582TIP3    H123305   2.526   0.371   2.002  1.2412 -0.2698 -0.7933
  582TIP3    H223306   2.446   0.324   1.883  0.1768 -0.0367 -0.1886
  583TIP3   OH223307   0.178   0.879   2.315 -0.2102  0.0532 -0.3764
  583TIP3    H123308   0.198   0.893   2.407 -1.1070  0.4913 -0.2381
  583TIP3    H223309   0.089   0.845   2.314 -0.5938  1.0156 -1.1299
  584TIP3   OH223310   4.449   1.548   0.443 -0.2838  0.1918  0.1990
  584TIP3    H123311   4.389   1.486   0.485  1.5070 -1.5252  0.3837
  584TIP3    H223312   4.508   1.575   0.514  0.8693 -0.3405 -0.5327
  585TIP3   OH223313   3.007   5.812   3.196  0.8031  0.0889  0.1723
  585TIP3    H123314   2.997   5.735   3.252  0.4324 -0.4149 -0.5649
  585TIP3    H223315   3.021   5.776   3.109 -0.5103  0.8352 -0.3827
  586TIP3   OH223316   0.641   3.151   6.707  0.6581 -0.4488 -0.1125
  586TIP3    H123317   0.559   3.172   6.662  0.3310  0.2833  0.7880
  586TIP3    H223318   0.657   3.059   6.685  0.4372 -0.1508 -1.5705
  587TIP3   OH223319   0.276   4.086   2.789  0.4410 -0.2026  0.5666
  587TIP3    H123320   0.262   4.181   2.786 -2.1449 -0.5071 -2.4311
  587TIP3    H223321   0.210   4.054   2.850  0.1589 -0.1957  0.2679
  588TIP3   OH223322   2.000   0.259   2.343 -0.1543  0.0626 -0.1855
  588TIP3    H123323   1.974   0.338   2.295  1.8158  0.2021 -1.1115
  588TIP3    H223324   2.063   0.216   2.286  0.5631 -0.9603  1.3190
  589TIP3   OH223325   5.292   1.347   1.785  0.1250 -0.3607  0.0920
  589TIP3    H123326   5.218   1.297   1.752  0.8825 -0.9814 -0.6962
  589TIP3    H223327   5.269   1.438   1.770 -1.9139 -0.2997  2.8401
  590TIP3   OH223328   1.071   1.167   1.166 -0.2737  0.9416 -0.0911
  590TIP3    H123329   1.118   1.084   1.154 -0.6802  0.5156  1.0764
  590TIP3    H223330   1.082   1.213   1.083  1.2280  0.3652 -0.2483
  591TIP3   OH223331   5.194   5.848   7.869 -0.3929  0.3256  0.0251
  591TIP3    H123332   5.114   5.898   7.888 -1.3417 -0.9264 -0.5145
  591TIP3    H223333   5.171   5.758   7.891  0.2953 -0.3206 -1.7310
  592TIP3   OH223334   4.920   2.610   2.269 -0.1498  0.1312  0.2081
  592TIP3    H123335   5.007   2.587   2.237 -0.4696  0.0424 -0.6181
  592TIP3    H223336   4.934   2.689   2.322  0.8819 -1.5282  2.6057
  593TIP3   OH223337   4.140   2.090   8.190 -0.3153 -0.3915 -0.4381
  593TIP3    H123338   4.114   2.179   8.215 -1.1455 -0.5962 -0.5593
  593TIP3    H223339   4.140   2.091   8.095 -3.0143 -1.2542 -0.5094
  594TIP3   OH223340   6.369   4.414   2.230  0.3042  0.7081  0.1298
  594TIP3    H123341   6.403   4.332   2.265  2.3397  1.6722  0.5479
  594TIP3    H223342   6.332   4.460   2.305  1.5268  1.2532  0.4405
  595TIP3   OH223343   1.390   4.941   0.828  0.3505  0.0390  0.0916
  595TIP3    H123344   1.316   5.001   0.837  0.3041 -0.0613  0.3578
  595TIP3    H223345   1.353   4.861   0.791  0.7612  0.9655 -2.6153
  596TIP3   OH223346   1.180   6.733   1.139 -0.5689  0.0463 -0.3048
  596TIP3    H123347   1.104   6.700   1.186 -0.0918 -0.6941 -0.0350
  596TIP3    H223348   1.237   6.657   1.129 -0.1685  0.4366 -1.1116
  597TIP3   OH223349   3.291   1.661   2.286 -0.0960 -0.0042 -0.6639
  597TIP3    H123350   3.373   1.664   2.336 -1.7070 -2.7389  2.5167
  597TIP3    H223351   3.318   1.633   2.198  2.5936  2.2829 -0.7275
  598TIP3   OH223352   6.060   3.584   0.457  0.4553 -0.5601  0.5198
  598TIP3    H123353   6.072   3.491   0.437  0.6737 -0.3315 -0.4587
  598TIP3    H223354   6.035   3.624   0.374 -0.0349  0.2003  1.0102
  599TIP3   OH223355   1.979   3.488   0.817 -0.3772  0.2570  0.0249
  599TIP3    H123356   1.944   3.577   0.815 -0.5538  0.1995  0.3697
  599TIP3    H223357   2.037   3.487   0.893 -0.3001  0.1041 -0.0350
  600TIP3   OH223358   4.068   6.044   2.106  0.7072 -0.3534 -0.0046
  600TIP3    H123359   4.130   6.039   2.179  1.5097  0.2183 -0.6237
  600TIP3    H223360   4.066   6.137   2.082 -0.1536 -0.4160 -0.2034
  601TIP3   OH223361   5.252   1.728   2.347 -0.6065  0.4867  0.1995
  601TIP3    H123362   5.220   1.641   2.371  1.1497  0.1640  1.6043
  601TIP3    H223363   5.347   1.717   2.338 -0.4593  2.0766 -0.5124
  602TIP3   OH223364   6.437   5.378   7.652  0.1784 -0.5379  0.6198
  602TIP3    H123365   6.469   5.368   7.562 -1.4152 -0.8035  0.0559
  602TIP3    H223366   6.374   5.450   7.647 -0.5516 -1.1122  1.3524
  603TIP3   OH223367   0.723   0.981   2.527  0.3511 -0.2234 -0.1405
  603TIP3    H123368   0.673   0.913   2.574 -0.5242 -0.5028 -1.4150
  603TIP3    H223369   0.806   0.987   2.575  0.4133 -2.1278  0.0691
  604TIP3   OH223370   6.434   0.165   1.292 -0.2140 -0.1895  0.6131
  604TIP3    H123371   6.448   0.258   1.310 -0.4690  0.0492 -0.3734
  604TIP3    H223372   6.520   0.125   1.304 -0.1651  0.1136  1.3319
  605TIP3   OH223373   1.708   3.083   0.005 -0.4953 -0.0258 -0.0002
  605TIP3    H123374   1.707   2.993  -0.027 -0.7335 -1.1031  2.7753
  605TIP3    H223375   1.792   3.092   0.049 -1.2229  0.4503  1.3554
  606TIP3   OH223376   1.725   6.214   8.224  0.1634  0.0293 -0.4324
  606TIP3    H123377   1.779   6.155   8.172  0.7020  0.7498 -0.7132
  606TIP3    H223378   1.783   6.243   8.295 -0.1431  0.0952 -0.2092
  607TIP3   OH223379   1.264   3.788   1.148 -0.0610 -0.0986 -0.0868
  607TIP3    H123380   1.349   3.791   1.192  0.6001 -1.0160 -1.2396
  607TIP3    H223381   1.202   3.819   1.213  1.1477  0.5573  0.7979
  608TIP3   OH223382   0.477   6.646   8.096 -0.0540 -0.0654  0.2209
  608TIP3    H123383   0.549   6.645   8.033  0.8463 -2.0795  1.1958
  608TIP3    H223384   0.504   6.707   8.164 -1.3971  2.7891 -1.6040
  609TIP3   OH223385   5.361   6.095   6.828 -0.1177  0.0559 -0.0196
  609TIP3    H123386   5.439   6.038   6.832 -0.1563 -0.2698 -2.3668
  609TIP3    H223387   5.396   6.183   6.815 -0.1075 -0.1144 -1.2584
  610TIP3   OH223388   4.594   3.243   8.112  0.1194 -0.2747  0.0888
  610TIP3    H123389   4.545   3.180   8.060 -1.2372 -0.4836  1.5419
  610TIP3    H223390   4.682   3.242   8.074 -0.1929 -2.1200 -0.7081
  611TIP3   OH223391   5.175   1.962   2.425  0.4929  0.2221 -0.4361
  611TIP3    H123392   5.179   1.870   2.398  0.2296  0.4093 -1.1328
  611TIP3    H223393   5.194   2.011   2.345  0.4125  0.7776 -0.1181
  612TIP3   OH223394   5.992   3.637   2.734 -0.0391  0.3443  0.1913
  612TIP3    H123395   6.000   3.542   2.745  0.3090  0.4363  0.7519
  612TIP3    H223396   5.995   3.672   2.823 -0.6371  0.8507  0.0129
  613TIP3   OH223397   3.542   1.538   0.683  0.0913  0.1549  0.1540
  613TIP3    H123398   3.544   1.633   0.696 -0.5525  0.3117 -0.7377
  613TIP3    H223399   3.560   1.526   0.590 -0.4893 -0.5521  0.1195
  614TIP3   OH223400   4.305   0.319   7.303 -0.0367 -0.2273  0.0523
  614TIP3    H123401   4.239   0.374   7.344  0.1777  0.9118 -1.0618
  614TIP3    H223402   4.256   0.243   7.271 -0.2142 -1.1051  2.2526
  615TIP3   OH223403   2.028   1.332   2.094  0.9610  0.0071 -0.3606
  615TIP3    H123404   2.059   1.317   2.183  1.9498 -1.1764 -0.8625
  615TIP3    H223405   2.049   1.424   2.076  0.7082  0.2658  0.6299
  616TIP3   OH223406   3.536   6.393   1.219  0.5767  0.4258  0.3945
  616TIP3    H123407   3.460   6.394   1.161 -1.0028 -0.4165  2.3381
  616TIP3    H223408   3.611   6.380   1.160 -0.8864  0.0782 -1.4828
  617TIP3   OH223409   0.183   5.100   2.398 -0.0058  0.0591 -0.0862
  617TIP3    H123410   0.255   5.128   2.340  0.4630 -1.1304 -0.1059
  617TIP3    H223411   0.227   5.062   2.474 -0.6121  1.8220  1.2072
  618TIP3   OH223412   3.420   6.167   1.818 -0.4946  0.1581 -0.2956
  618TIP3    H123413   3.416   6.192   1.725  1.0035 -0.0645 -0.4378
  618TIP3    H223414   3.386   6.078   1.820  0.6076 -0.2841 -0.8217
  619TIP3   OH223415   6.468   6.394   0.039 -0.0686 -0.1067 -0.0531
  619TIP3    H123416   6.417   6.313   0.045  0.2662 -0.3072  0.0795
  619TIP3    H223417   6.408   6.456  -0.002  0.1783 -0.8433 -1.5871
  620TIP3   OH223418   4.719   2.175   3.753  0.6091  0.1249 -0.1670
  620TIP3    H123419   4.744   2.156   3.843 -0.4394  3.8733  1.0818
  620TIP3    H223420   4.802   2.171   3.704  0.9235 -3.9123  0.3745
  621TIP3   OH223421   2.780   6.563   2.623 -0.9074 -0.3198  0.3118
  621TIP3    H123422   2.842   6.491   2.636  0.8395  0.9653 -0.4273
  621TIP3    H223423   2.698   6.521   2.601 -0.3096 -2.1092  1.3022
  622TIP3   OH223424   4.152   4.614   2.323  0.2866  0.5429 -0.4162
  622TIP3    H123425   4.225   4.556   2.348  0.5092  0.3593 -1.4468
  622TIP3    H223426   4.076   4.556   2.319  0.1061  0.6981  0.4608
  623TIP3   OH223427   2.883   1.895   1.487  0.2242  0.4077 -0.2795
  623TIP3    H123428   2.918   1.941   1.411  0.2358  0.6654 -0.1215
  623TIP3    H223429   2.960   1.863   1.533  0.1937 -0.2759 -0.6986
  624TIP3   OH223430   5.238   1.405   7.711  0.1392 -0.7181  0.3397
  624TIP3    H123431   5.169   1.466   7.686  0.1087 -1.5853 -1.9645
  624TIP3    H223432   5.314   1.431   7.658  1.1205 -0.7477  1.6770
  625TIP3   OH223433   1.437   3.648   2.067  0.0344 -0.3366 -0.0971
  625TIP3    H123434   1.342   3.653   2.080 -0.2312 -2.0529 -1.0224
  625TIP3    H223435   1.467   3.588   2.135  0.2846 -0.6483 -0.4779
  626TIP3   OH223436   2.659   6.247   1.135  0.3943  0.6996  0.4994
  626TIP3    H123437   2.694   6.235   1.224  2.1763 -0.3104 -0.2794
  626TIP3    H223438   2.641   6.159   1.104  0.4815  0.9877 -0.3927
  627TIP3   OH223439   2.696   0.942   0.881 -0.4207  0.1838 -0.3075
  627TIP3    H123440   2.699   0.958   0.787  0.2091 -1.8420 -0.6793
  627TIP3    H223441   2.788   0.938   0.908 -0.5930  0.2168  0.3113
  628TIP3   OH223442   0.459   6.830   2.263  0.6615  0.0010 -0.0128
  628TIP3    H123443   0.475   6.918   2.229 -0.1621  0.3304  0.4276
  628TIP3    H223444   0.545   6.799   2.289  0.8765  0.9445  0.4620
  629TIP3   OH223445   3.094   0.338   2.957  0.1199  0.3485 -0.5178
  629TIP3    H123446   3.054   0.296   3.033  3.5780 -2.1473  0.1727
  629TIP3    H223447   3.135   0.417   2.992 -1.3704  1.1980 -0.6121
  630TIP3   OH223448   5.098   1.342   1.424 -0.1034 -0.0660 -0.4348
  630TIP3    H123449   5.144   1.273   1.376  0.8118  0.4161 -0.2561
  630TIP3    H223450   5.156   1.418   1.419 -0.0742  0.0616  1.2689
  631TIP3   OH223451   5.898   1.699   2.509  0.2291  0.1223  0.0866
  631TIP3    H123452   5.968   1.635   2.520  0.8534  0.5079 -1.3899
  631TIP3    H223453   5.834   1.654   2.453 -0.9080 -0.3372  1.6533
  632TIP3   OH223454   6.337   6.202   1.637 -0.4833 -0.3699  0.0762
  632TIP3    H123455   6.402   6.137   1.662  2.4706  1.2777 -2.5242
  632TIP3    H223456   6.325   6.257   1.715  1.9660 -0.2391  0.4192
  633TIP3   OH223457   1.577   0.468   8.247  0.0657  0.2017  0.5260
  633TIP3    H123458   1.652   0.410   8.260  0.7065  0.6494 -0.8884
  633TIP3    H223459   1.542   0.442   8.162  0.2097  1.6699 -0.0167
  634TIP3   OH223460   1.921   5.480   8.055  0.7307 -0.1486 -0.9780
  634TIP3    H123461   1.828   5.477   8.078  1.1503 -0.3770  0.8091
  634TIP3    H223462   1.963   5.417   8.114  2.2161  1.0321 -0.7140
  635TIP3   OH223463   3.816   0.864   2.881  0.3935  0.0687 -0.3510
  635TIP3    H123464   3.807   0.955   2.854  0.4627  0.1285 -0.1755
  635TIP3    H223465   3.741   0.848   2.938  1.6926  0.7635  1.6492
  636TIP3   OH223466   2.829   0.294   7.513 -0.4693 -0.5955 -0.4517
  636TIP3    H123467   2.756   0.293   7.574  1.8673  1.3790  2.6833
  636TIP3    H223468   2.846   0.387   7.497  0.2199 -1.0349 -2.6461
  637TIP3   OH223469   0.757   7.029   1.428  0.1015 -0.1221 -0.1756
  637TIP3    H123470   0.694   7.101   1.431  1.6477  1.2702  0.0320
  637TIP3    H223471   0.722   6.965   1.489 -0.9056  0.7885  0.2411
  638TIP3   OH223472   4.894   0.251   1.652  0.2171 -0.0518  0.1905
  638TIP3    H123473   4.926   0.287   1.734 -0.1720  1.2506 -0.1913
  638TIP3    H223474   4.799   0.262   1.656  0.0960 -1.0047  0.0317
  639TIP3   OH223475   6.889   2.915   1.729  0.0728  0.1227 -0.1397
  639TIP3    H123476   6.864   2.999   1.767 -1.1584  0.8504 -2.3721
  639TIP3    H223477   6.834   2.851   1.772 -2.0290  1.0482 -1.2986
  640TIP3   OH223478   1.645   0.695   0.096  0.1803  0.0477 -0.1867
  640TIP3    H123479   1.585   0.694   0.170 -1.8515  1.1182 -1.7151
  640TIP3    H223480   1.625   0.615   0.047  1.6342 -0.7469  0.4355
  641TIP3   OH223481   3.071   1.732   2.421  0.0243  0.1236  0.1471
  641TIP3    H123482   2.993   1.707   2.371 -0.8174  0.3139  1.3413
  641TIP3    H223483   3.144   1.695   2.370 -0.8248 -0.0442 -0.9951
  642TIP3   OH223484   0.547   3.074   8.139 -0.0393 -0.5548  0.3014
  642TIP3    H123485   0.496   3.148   8.173 -0.4736 -0.6194 -0.1970
  642TIP3    H223486   0.495   2.997   8.160 -0.2811 -0.6009 -0.4445
  643TIP3   OH223487   6.400   6.772   2.173  0.2271 -0.4584 -0.3012
  643TIP3    H123488   6.355   6.777   2.088  2.5032  0.1176 -1.5319
  643TIP3    H223489   6.431   6.860   2.189  0.0062 -0.6143  1.0728
  644TIP3   OH223490   6.837   3.852   0.699  0.2815 -0.0161  0.1960
  644TIP3    H123491   6.883   3.918   0.648  0.4862 -1.0053 -0.9196
  644TIP3    H223492   6.764   3.825   0.644 -1.1916  0.9016  1.5801
  645TIP3   OH223493   4.390   2.640   1.222 -0.0728  0.2218  0.3193
  645TIP3    H123494   4.315   2.688   1.188 -0.7998 -1.1926 -0.1602
  645TIP3    H223495   4.393   2.560   1.170  1.0170 -0.3329  1.1789
  646TIP3   OH223496   0.473   6.104   1.844 -0.4255  0.2158 -0.3585
  646TIP3    H123497   0.456   6.193   1.811  1.1165  1.2336  1.3762
  646TIP3    H223498   0.550   6.075   1.796  0.1525  0.5726  0.3353
  647TIP3   OH223499   0.894   3.585   0.776 -0.4161  0.1455  0.3754
  647TIP3    H123500   0.850   3.507   0.744 -1.0498  1.3166 -1.8557
  647TIP3    H223501   0.984   3.577   0.745 -0.6817  0.6242 -0.5767
  648TIP3   OH223502   0.065   4.835   2.632 -0.3301 -0.2026 -0.3316
  648TIP3    H123503   0.128   4.907   2.638 -0.5811  0.0974 -1.2289
  648TIP3    H223504  -0.010   4.865   2.683  0.4113 -0.7510  1.1278
  649TIP3   OH223505   5.422   4.294   2.315 -0.2793 -0.3184 -0.1681
  649TIP3    H123506   5.379   4.265   2.234  1.5653  0.3589 -1.4588
  649TIP3    H223507   5.350   4.322   2.372 -1.9112 -3.8160 -0.2439
  650TIP3   OH223508   3.205   6.796   7.376  0.2787 -0.0983 -0.4506
  650TIP3    H123509   3.273   6.860   7.357  0.3230 -0.3656 -1.2026
  650TIP3    H223510   3.206   6.788   7.472  0.6741  0.5736 -0.3924
  651TIP3   OH223511   4.032   0.297   0.995 -0.1772 -0.3242  0.0616
  651TIP3    H123512   4.077   0.216   1.017 -1.4804 -0.7079  1.4471
  651TIP3    H223513   4.019   0.342   1.078 -0.6775  0.6749 -0.5259
  652TIP3   OH223514   2.369   5.599   1.054  0.3838 -0.1808 -0.0132
  652TIP3    H123515   2.421   5.539   1.106  2.1280  1.4221  0.2173
  652TIP3    H223516   2.306   5.636   1.116  1.9138  1.1141  0.8576
  653TIP3   OH223517   5.175   1.321   0.658  0.3530  0.0221  0.1897
  653TIP3    H123518   5.141   1.377   0.588  0.6473 -1.5656 -1.3164
  653TIP3    H223519   5.271   1.330   0.651  0.3960 -0.4497  0.0813
  654TIP3   OH223520   4.398   0.307   2.479  0.0696  0.2270  0.5436
  654TIP3    H123521   4.416   0.221   2.519  2.7066  0.7182  0.6288
  654TIP3    H223522   4.409   0.292   2.385 -2.2266 -0.0648  0.2646
  655TIP3   OH223523   0.802   4.192   1.448  0.1266 -0.3123 -0.2505
  655TIP3    H123524   0.850   4.155   1.375 -0.7446 -0.2321 -0.8789
  655TIP3    H223525   0.778   4.280   1.419  1.1198  0.3136  0.7467
  656TIP3   OH223526   0.922   5.860   1.524 -0.2365 -0.3461  0.1934
  656TIP3    H123527   0.982   5.840   1.452  0.2307 -1.0989  0.7731
  656TIP3    H223528   0.977   5.898   1.592 -0.3073 -1.4865  0.9183
  657TIP3   OH223529   0.999   0.081   1.885 -0.0179  0.4712 -0.6636
  657TIP3    H123530   0.909   0.104   1.860 -0.2181 -0.9036 -1.2939
  657TIP3    H223531   0.990   0.003   1.939  0.8167  0.2212 -0.8722
  658TIP3   OH223532   3.705   6.952   1.447  0.0008  0.1998 -0.2366
  658TIP3    H123533   3.727   7.024   1.387 -2.0742 -0.6394 -2.1836
  658TIP3    H223534   3.767   6.883   1.424  0.8447  0.7187  0.4018
  659TIP3   OH223535   4.723   3.202   1.387 -0.2644 -0.3830  0.2004
  659TIP3    H123536   4.686   3.124   1.429 -0.3257 -0.2246  0.4463
  659TIP3    H223537   4.815   3.181   1.372 -1.0911 -2.1021 -3.5157
  660TIP3   OH223538   6.192   4.518   0.431  0.1221  0.2549  0.0080
  660TIP3    H123539   6.249   4.592   0.453  0.5081 -0.3212  1.0241
  660TIP3    H223540   6.186   4.520   0.335  3.0686 -0.5340 -0.2754
  661TIP3   OH223541   5.656   1.276   1.424 -0.3660 -0.0528  0.4244
  661TIP3    H123542   5.644   1.344   1.491 -0.2724  1.0689 -0.6506
  661TIP3    H223543   5.722   1.312   1.365 -2.4391  0.3037 -1.8545
  662TIP3   OH223544   3.678   0.261   1.165  0.2315 -0.3371  0.5228
  662TIP3    H123545   3.698   0.221   1.081 -1.4554 -1.2423  0.5164
  662TIP3    H223546   3.628   0.339   1.143 -0.1283 -0.5228  0.6751
  663TIP3   OH223547   5.722   5.988   1.225 -0.4173 -0.7426 -0.2726
  663TIP3    H123548   5.692   5.924   1.160 -0.6720 -1.0583  0.1516
  663TIP3    H223549   5.812   5.963   1.244 -1.3904 -2.8699  2.1154
  664TIP3   OH223550   6.862   5.273   7.904  0.3810  0.0018 -0.3151
  664TIP3    H123551   6.877   5.362   7.933 -0.8706  0.0373  0.2813
  664TIP3    H223552   6.780   5.277   7.855  0.8733 -0.6298 -1.2309
  665TIP3   OH223553   1.853   5.208   1.500 -0.4687  0.5717 -0.2327
  665TIP3    H123554   1.759   5.192   1.506 -0.2966 -0.2494  0.5659
  665TIP3    H223555   1.877   5.175   1.414 -0.7297 -0.2809  0.0120
  666TIP3   OH223556   4.336   2.150   2.107 -0.2152  0.1199  0.2298
  666TIP3    H123557   4.249   2.190   2.113 -0.4899 -0.6955  2.6549
  666TIP3    H223558   4.388   2.194   2.174  1.4011  0.8210 -1.3925
  667TIP3   OH223559   6.831   3.333   2.864 -0.5223  0.1255 -0.2088
  667TIP3    H123560   6.774   3.370   2.796 -0.4624  1.5762  0.4987
  667TIP3    H223561   6.830   3.398   2.934  0.1967 -0.8965  0.7796
  668TIP3   OH223562   3.626   2.834   1.062 -0.3311 -0.4743  0.1676
  668TIP3    H123563   3.688   2.886   1.112  0.8027 -1.1600 -0.4852
  668TIP3    H223564   3.674   2.806   0.984 -1.0700 -2.0283  0.2187
  669TIP3   OH223565   0.515   5.902   0.615  0.0317 -0.0719  0.3411
  669TIP3    H123566   0.515   5.809   0.594  2.0242  0.1777 -1.0060
  669TIP3    H223567   0.515   5.904   0.711  1.4105 -1.5272  0.4267
  670TIP3   OH223568   1.601   4.254   7.358 -0.1523  0.1900 -0.0354
  670TIP3    H123569   1.535   4.194   7.391  0.5033 -0.9334 -0.7167
  670TIP3    H223570   1.672   4.249   7.422  0.3272 -0.5440 -0.6196
  671TIP3   OH223571   0.967   5.027   1.296 -0.1387 -0.1024 -0.0758
  671TIP3    H123572   1.053   5.011   1.334  0.5096  2.2847 -0.3715
  671TIP3    H223573   0.912   5.053   1.370 -0.1814 -0.1208 -0.1011
  672TIP3   OH223574   3.383   4.210   7.814  0.4061  0.4033 -0.2414
  672TIP3    H123575   3.358   4.297   7.844  1.6274  1.0212 -0.9677
  672TIP3    H223576   3.473   4.220   7.783  0.4151 -1.0225 -0.7291
  673TIP3   OH223577   0.374   0.221   1.188  0.2520  0.0217 -0.8171
  673TIP3    H123578   0.424   0.209   1.269 -1.0507 -0.7231 -0.0938
  673TIP3    H223579   0.422   0.290   1.142  0.5615  1.1018  0.9787
  674TIP3   OH223580   4.840   2.547   3.061  0.0991  0.0474  0.5181
  674TIP3    H123581   4.841   2.474   3.122 -1.4493  2.1171  3.2263
  674TIP3    H223582   4.916   2.600   3.085  0.7766 -0.2296 -0.9086
  675TIP3   OH223583   2.566   1.607   2.572 -0.1108 -0.4515 -0.3438
  675TIP3    H123584   2.537   1.560   2.650 -2.7523  0.5326 -0.6301
  675TIP3    H223585   2.632   1.668   2.604  0.8973 -1.9560  0.5898
  676TIP3   OH223586   3.450   3.985   2.695  0.2533  0.2009  0.0314
  676TIP3    H123587   3.512   3.951   2.760  0.7630  0.7204 -0.1616
  676TIP3    H223588   3.388   4.037   2.746  0.6274  0.5731  0.1250
  677TIP3   OH223589   6.672   1.279   2.653 -0.1492 -0.3276  0.5102
  677TIP3    H123590   6.657   1.344   2.720  0.3139  1.0757 -0.6947
  677TIP3    H223591   6.767   1.262   2.657 -0.1986 -0.6034  0.5363
  678TIP3   OH223592   2.833   5.852   1.926  0.4978 -0.1423 -0.3802
  678TIP3    H123593   2.859   5.896   1.845  0.6456  0.5682  0.0368
  678TIP3    H223594   2.916   5.835   1.971  0.7054 -3.4157 -1.7626
  679TIP3   OH223595   3.237   3.769   0.887  0.0301 -0.0331 -0.1099
  679TIP3    H123596   3.196   3.815   0.959  1.5881 -1.1945  1.6165
  679TIP3    H223597   3.306   3.717   0.928 -0.2226 -2.1892 -2.2067
  680TIP3   OH223598   3.015   6.745   0.689 -0.0575 -0.3779  0.0527
  680TIP3    H123599   3.095   6.725   0.639  0.9114  0.3358  1.2832
  680TIP3    H223600   3.039   6.729   0.780 -1.1024  0.5671  0.5081
  681TIP3   OH223601   6.535   3.933   7.573 -0.0485  0.5368 -0.0292
  681TIP3    H123602   6.575   3.956   7.489 -1.2287 -0.0906 -0.7975
  681TIP3    H223603   6.604   3.886   7.620  0.4833  0.4735 -0.8445
  682TIP3   OH223604   0.397   6.351   1.734  1.0761  0.5234 -0.0768
  682TIP3    H123605   0.325   6.319   1.680  1.0511 -0.1345  0.3392
  682TIP3    H223606   0.354   6.408   1.799  0.9247  0.1463  0.1602
  683TIP3   OH223607   0.628   1.320   2.909  0.1043  0.4834  0.3302
  683TIP3    H123608   0.537   1.289   2.906  0.2236  0.1765 -0.1777
  683TIP3    H223609   0.648   1.324   3.002 -1.2352  2.9427  0.5794
  684TIP3   OH223610   3.815   0.828   0.882 -0.3421  0.4627 -0.1960
  684TIP3    H123611   3.859   0.910   0.863 -0.5292  0.5886 -0.0892
  684TIP3    H223612   3.837   0.771   0.808  0.5970  0.2763  0.2097
  685TIP3   OH223613   0.507   1.264   7.657 -0.6663 -0.2201  0.2095
  685TIP3    H123614   0.423   1.241   7.619  0.1556  0.1703 -1.9899
  685TIP3    H223615   0.571   1.212   7.608  0.5231  0.8286  0.5751
  686TIP3   OH223616   3.777   1.519   2.460 -0.2064 -0.1814 -0.0773
  686TIP3    H123617   3.791   1.514   2.555 -0.5950  1.5198  0.1122
  686TIP3    H223618   3.848   1.575   2.429 -0.1090 -0.6956 -0.7901
  687TIP3   OH223619   2.277   6.609   2.171 -0.7157  0.2865  0.7702
  687TIP3    H123620   2.270   6.560   2.252  1.5140  1.1091  1.5155
  687TIP3    H223621   2.273   6.543   2.102 -0.0558 -0.6831  1.6489
  688TIP3   OH223622   5.518   1.902   1.018  0.2844 -0.6537  0.2067
  688TIP3    H123623   5.484   1.824   1.062 -0.7487 -1.1433 -1.3711
  688TIP3    H223624   5.579   1.869   0.953 -1.4982 -0.3548 -1.7058
  689TIP3   OH223625   4.249   0.702   2.287  0.3196  0.2926  0.3535
  689TIP3    H123626   4.237   0.629   2.348  0.9837  1.5255  2.0419
  689TIP3    H223627   4.255   0.661   2.201 -3.3443 -1.3273  0.7090
  690TIP3   OH223628   0.956   1.817   7.289  0.0988 -0.9894 -0.0030
  690TIP3    H123629   1.033   1.792   7.340  0.4038 -0.2436 -0.0802
  690TIP3    H223630   0.973   1.908   7.264  0.0777 -1.4281 -1.6717
  691TIP3   OH223631   4.058   2.307   0.051 -0.5677  0.5500  0.1905
  691TIP3    H123632   4.122   2.321   0.120  1.4018 -0.4295 -1.3176
  691TIP3    H223633   4.087   2.364  -0.020 -1.8450  0.6683 -0.2554
  692TIP3   OH223634   2.565   3.222   1.266 -0.5739  0.1407  0.3670
  692TIP3    H123635   2.602   3.194   1.182 -0.3383  0.2539  0.4328
  692TIP3    H223636   2.562   3.142   1.318 -1.0311  0.0049  0.1383
  693TIP3   OH223637   1.524   3.835   7.435 -0.1219 -1.0162  0.4698
  693TIP3    H123638   1.500   3.742   7.433 -1.7916 -0.6138 -1.1312
  693TIP3    H223639   1.568   3.850   7.351 -1.4291 -0.0204 -0.0768
  694TIP3   OH223640   2.493   6.329   8.086 -0.7648 -0.3607  0.3847
  694TIP3    H123641   2.526   6.310   7.998 -2.0443 -2.1071  0.2285
  694TIP3    H223642   2.475   6.423   8.086  1.5120  0.1455 -0.3935
  695TIP3   OH223643   4.199   1.390   7.555 -0.0565  0.1259 -0.2842
  695TIP3    H123644   4.187   1.307   7.510 -1.0419  0.6989 -1.1376
  695TIP3    H223645   4.157   1.379   7.640 -0.0004 -0.3129 -0.3140
  696TIP3   OH223646   2.797   4.353   1.347 -0.0578 -1.2292 -0.3319
  696TIP3    H123647   2.801   4.345   1.442 -1.1307 -1.9633 -0.3265
  696TIP3    H223648   2.739   4.428   1.332 -0.0023 -1.2021 -0.4133
  697TIP3   OH223649   1.260   5.013   7.850  0.2224 -0.1044  0.2745
  697TIP3    H123650   1.252   5.022   7.755 -1.1792 -1.1901  0.2557
  697TIP3    H223651   1.173   5.034   7.883  0.8400  0.7976  1.3873
  698TIP3   OH223652   5.667   3.512   1.036  0.0018  0.0478  0.3220
  698TIP3    H123653   5.577   3.544   1.046 -0.4604 -0.9583 -0.4239
  698TIP3    H223654   5.709   3.531   1.120 -1.1517 -0.2054  0.9737
  699TIP3   OH223655   3.273   0.270   2.482  0.1290 -0.0346 -0.2605
  699TIP3    H123656   3.279   0.182   2.444 -0.0127  0.7693 -2.3167
  699TIP3    H223657   3.180   0.280   2.503  0.2566 -0.5979  0.6265
  700TIP3   OH223658   2.562   6.983   0.600  0.4687  0.0431 -0.2967
  700TIP3    H123659   2.504   6.916   0.565  0.8247 -0.1533 -0.5206
  700TIP3    H223660   2.646   6.938   0.612  0.6854  0.4257 -0.3686
  701TIP3   OH223661   1.482   0.368   8.015  0.4119  0.5884 -0.0814
  701TIP3    H123662   1.544   0.349   7.945 -0.4345 -1.6753 -0.3192
  701TIP3    H223663   1.408   0.310   7.998 -0.8270  1.6550  1.3972
  702TIP3   OH223664   6.072   4.518   2.945 -0.1087 -0.7259 -0.2135
  702TIP3    H123665   5.978   4.512   2.961 -0.1712 -0.5641 -0.5158
  702TIP3    H223666   6.109   4.538   3.031 -0.4254 -0.0142 -0.2302
  703TIP3   OH223667   4.632   5.994   7.311  0.1258  0.1702 -0.0774
  703TIP3    H123668   4.615   6.067   7.370  0.1312 -1.3091  1.8857
  703TIP3    H223669   4.721   5.966   7.332  0.1458 -0.3687 -0.8347
  704TIP3   OH223670   6.983   5.145   8.094 -0.5168  0.6104 -0.5232
  704TIP3    H123671   6.931   5.176   8.168  0.1493 -1.2739  0.7849
  704TIP3    H223672   6.951   5.197   8.020 -1.4317  2.3155  0.9839
  705TIP3   OH223673   5.223   6.474   0.418 -0.0993 -0.0671  0.5176
  705TIP3    H123674   5.138   6.493   0.457  0.1277  0.0336  0.9704
  705TIP3    H223675   5.203   6.448   0.328 -0.5444  0.7044  0.3840
  706TIP3   OH223676   1.083   3.001   7.824 -0.9523  0.2154  0.2113
  706TIP3    H123677   1.144   3.061   7.780  1.4409 -0.7446  2.0004
  706TIP3    H223678   1.089   2.920   7.772 -0.3700 -0.0026  0.6103
  707TIP3   OH223679   3.076   0.888   0.524  0.1315  0.0872  0.8226
  707TIP3    H123680   3.101   0.801   0.493 -1.2138 -1.0674  2.7891
  707TIP3    H223681   3.040   0.931   0.446 -2.1484 -2.3126  0.4025
  708TIP3   OH223682   5.421   6.978   8.119  0.1477 -0.6267  0.3714
  708TIP3    H123683   5.504   6.932   8.109 -0.4500 -1.2874 -1.8710
  708TIP3    H223684   5.444   7.071   8.108  0.4515 -0.8894 -1.5169
  709TIP3   OH223685   1.704   6.977   2.015  0.2999 -0.2383 -0.0716
  709TIP3    H123686   1.707   6.882   2.031 -0.2112 -0.1414  0.6404
  709TIP3    H223687   1.731   7.016   2.098  2.2166  0.2417 -0.8697
  710TIP3   OH223688   4.968   2.530   0.346 -0.4992 -0.2446  1.1726
  710TIP3    H123689   4.938   2.441   0.364 -0.9584 -0.2645  0.3691
  710TIP3    H223690   4.952   2.578   0.428  1.4074 -1.2904  2.2210
  711TIP3   OH223691   1.615   4.172   0.112  0.1340  0.3611  0.0601
  711TIP3    H123692   1.600   4.091   0.159  2.4660  0.7549  1.6694
  711TIP3    H223693   1.617   4.240   0.180  0.8505  1.3662 -0.9201
  712TIP3   OH223694   2.531   4.757   1.629 -0.6899 -0.3613  0.0446
  712TIP3    H123695   2.557   4.675   1.671 -0.7896 -0.3750  0.0794
  712TIP3    H223696   2.436   4.757   1.632 -0.7121 -0.5622 -0.5748
  713TIP3   OH223697   3.487   0.746   2.528 -0.5973 -0.3036  0.6344
  713TIP3    H123698   3.472   0.742   2.433 -0.7447 -0.4152  0.6612
  713TIP3    H223699   3.494   0.840   2.546  1.8541 -0.3412  0.1592
  714TIP3   OH223700   1.770   3.595   3.087 -0.2646 -0.4336  0.1065
  714TIP3    H123701   1.699   3.539   3.120 -0.7516  0.7061  1.0779
  714TIP3    H223702   1.804   3.638   3.166 -1.2320  2.1414 -0.7905
  715TIP3   OH223703   2.338   5.652   0.160 -0.1301 -0.5496  0.3538
  715TIP3    H123704   2.425   5.674   0.128 -0.5575  0.5305 -0.1179
  715TIP3    H223705   2.318   5.720   0.225 -1.9592  1.3384 -1.9771
  716TIP3   OH223706   1.001   6.957   2.108  0.2916  0.5158 -0.2977
  716TIP3    H123707   1.001   6.996   2.196  0.9372  0.5540 -0.3058
  716TIP3    H223708   0.911   6.928   2.094  0.3520 -0.1961  0.6923
  717TIP3   OH223709   0.428   4.144   8.152 -0.5417  0.4809 -0.1597
  717TIP3    H123710   0.518   4.112   8.158 -0.2158  1.6118  1.5885
  717TIP3    H223711   0.374   4.065   8.161  0.2637  0.0830  1.5301
  718TIP3   OH223712   4.854   2.201   7.279  0.1453 -0.1120 -0.6969
  718TIP3    H123713   4.777   2.158   7.243 -1.0523  2.1317 -1.0035
  718TIP3    H223714   4.928   2.151   7.244 -1.1213 -2.7877  0.2164
  719TIP3   OH223715   4.301   2.881   0.978 -0.1588 -0.1239  0.1340
  719TIP3    H123716   4.374   2.942   0.981  0.0625 -0.4095  0.5274
  719TIP3    H223717   4.263   2.894   0.890  0.7145 -0.3929 -0.2911
  720TIP3   OH223718   1.760   3.257   6.908 -0.1720  0.1008  0.1379
  720TIP3    H123719   1.740   3.203   6.831 -0.6105 -0.4366  0.6153
  720TIP3    H223720   1.772   3.194   6.979  2.1241  0.4672  0.1375
  721TIP3   OH223721   3.179   1.900   1.168  0.4124  0.3616  0.4128
  721TIP3    H123722   3.248   1.837   1.186 -1.5381 -1.5949  1.5779
  721TIP3    H223723   3.121   1.856   1.106  0.2937  2.0370 -0.7376
  722TIP3   OH223724   2.942   1.151   0.837 -0.0893 -0.2530 -0.2075
  722TIP3    H123725   2.859   1.190   0.809 -1.2821 -2.0495  0.6700
  722TIP3    H223726   2.975   1.210   0.905 -0.9407  0.1559 -0.1429
  723TIP3   OH223727   0.622   0.934   1.266 -0.1325 -0.3502 -0.2765
  723TIP3    H123728   0.658   1.022   1.255 -1.3344  0.1131 -0.7077
  723TIP3    H223729   0.645   0.909   1.356  1.3375 -0.1403 -0.5782
  724TIP3   OH223730   3.081   1.070   1.525 -0.3109 -0.1252  0.2212
  724TIP3    H123731   3.146   1.067   1.454 -1.2816 -0.8442 -0.6691
  724TIP3    H223732   3.108   1.000   1.585  0.9663  0.9904  1.0102
  725TIP3   OH223733   4.528   6.514   0.672 -0.6448 -0.5846  0.0424
  725TIP3    H123734   4.573   6.504   0.588 -1.8478  1.6217 -0.9538
  725TIP3    H223735   4.490   6.602   0.668 -0.2337 -0.1665  3.1676
  726TIP3   OH223736   4.554   2.678   3.351  0.5426 -0.5513 -0.4747
  726TIP3    H123737   4.538   2.590   3.317 -1.2234 -0.1597 -0.7819
  726TIP3    H223738   4.567   2.666   3.445  1.5379 -1.2437 -0.6880
  727TIP3   OH223739   2.552   4.066   0.943 -0.2392  0.1365 -0.2977
  727TIP3    H123740   2.621   4.131   0.954 -0.3006  0.6065 -2.2404
  727TIP3    H223741   2.595   3.991   0.902 -0.6599 -0.0042 -0.4982
  728TIP3   OH223742   2.009   3.944   2.427  0.3249 -0.1650  0.4910
  728TIP3    H123743   2.091   3.935   2.475  0.4543  2.0628  0.7781
  728TIP3    H223744   2.030   3.920   2.337  2.3287  3.7339 -0.2842
  729TIP3   OH223745   4.932   5.933   6.748  0.1135  0.4461 -0.2410
  729TIP3    H123746   4.984   5.996   6.797  0.4304 -0.3299  0.4628
  729TIP3    H223747   4.860   5.911   6.808  0.7402 -0.8359  0.0763
  730TIP3   OH223748   2.301   1.698   0.859  0.0957 -0.1336 -0.2305
  730TIP3    H123749   2.255   1.776   0.827  1.2808  0.2677 -1.0306
  730TIP3    H223750   2.323   1.650   0.779 -0.0590 -0.9719  0.2222
  731TIP3   OH223751   1.867   4.610   8.240  0.4935  0.0839  0.4480
  731TIP3    H123752   1.835   4.639   8.155  0.0914  2.1096  1.2249
  731TIP3    H223753   1.889   4.517   8.228 -1.1156 -0.1133 -1.4023
  732TIP3   OH223754   1.873   5.667   2.953  0.0208 -0.8003  0.1252
  732TIP3    H123755   1.957   5.623   2.939  1.0221  0.9496  0.3591
  732TIP3    H223756   1.821   5.604   3.004  2.0819 -0.9764  2.1360
  733TIP3   OH223757   3.924   5.641   8.190 -0.3247  0.1080 -0.3353
  733TIP3    H123758   4.015   5.612   8.194 -0.4251 -0.4359 -1.5568
  733TIP3    H223759   3.883   5.603   8.267 -0.1852 -2.1633 -1.3098
  734TIP3   OH223760   5.550   5.644   1.860 -0.1160  0.3485 -0.0333
  734TIP3    H123761   5.534   5.694   1.780 -1.6265  0.6200  0.4064
  734TIP3    H223762   5.471   5.590   1.871  1.4299 -2.1241 -0.4581
  735TIP3   OH223763   2.218   5.331   1.056 -0.2099  0.2955  0.3968
  735TIP3    H123764   2.211   5.416   1.099 -1.0838  0.1395  0.5957
  735TIP3    H223765   2.311   5.321   1.036 -0.2588  1.8065 -0.6955
  736TIP3   OH223766   6.172   3.790   2.589  0.4432 -0.0975  0.0604
  736TIP3    H123767   6.101   3.732   2.616 -1.7417  2.4862  0.2211
  736TIP3    H223768   6.182   3.851   2.661  1.0016  1.2037 -1.0801
  737TIP3   OH223769   4.975   5.396   0.088 -0.4412 -0.1396 -0.2132
  737TIP3    H123770   5.025   5.349   0.155  0.8791  1.6390  0.1134
  737TIP3    H223771   4.889   5.354   0.090 -0.5021 -0.1253  2.6824
  738TIP3   OH223772   0.963   3.966   8.225 -0.0388  0.5414 -0.2166
  738TIP3    H123773   0.904   3.894   8.249 -0.0647  0.2584 -1.0780
  738TIP3    H223774   1.004   3.936   8.144  0.0407  1.4530 -0.5148
  739TIP3   OH223775   6.554   0.436   3.101 -0.2662  0.7492 -0.1916
  739TIP3    H123776   6.561   0.341   3.107 -0.4880  0.7350 -0.1399
  739TIP3    H223777   6.477   0.457   3.153  0.3776  1.0549  0.6546
  740TIP3   OH223778   3.388   6.374   0.105 -0.6632 -0.3657  1.0825
  740TIP3    H123779   3.409   6.350   0.014  0.8881 -0.5950  1.4828
  740TIP3    H223780   3.293   6.392   0.103 -0.2164  2.7635 -1.3003
  741TIP3   OH223781   0.223   4.005   1.150 -0.5305 -0.4177 -0.3162
  741TIP3    H123782   0.203   4.042   1.064 -0.2753  0.3413 -0.0532
  741TIP3    H223783   0.157   3.937   1.163 -0.9080 -0.1621 -0.8716
  742TIP3   OH223784   0.460   4.566   1.859 -0.7098  0.5102  0.8357
  742TIP3    H123785   0.397   4.620   1.907 -0.4669  0.1670  1.5539
  742TIP3    H223786   0.545   4.594   1.892 -0.4333  1.3340 -0.5054
  743TIP3   OH223787   0.111   5.082   1.277 -0.3069  0.0373  0.1649
  743TIP3    H123788   0.074   5.021   1.341 -0.9469  0.1087 -0.1253
  743TIP3    H223789   0.200   5.052   1.263 -0.5806 -0.7595  0.1195
  744TIP3   OH223790   2.772   6.901   7.854 -0.1272 -0.1385 -0.0398
  744TIP3    H123791   2.864   6.876   7.843 -0.1144  0.2026 -0.8103
  744TIP3    H223792   2.773   6.996   7.856 -0.5372 -0.0996 -0.9217
  745TIP3   OH223793   2.540   4.621   3.404  0.6939  0.2122 -0.2909
  745TIP3    H123794   2.535   4.717   3.403  1.4352  0.2557 -0.7235
  745TIP3    H223795   2.565   4.597   3.315  2.1132 -0.2658  0.1963
  746TIP3   OH223796   6.697   2.203   1.960  0.4176  0.8183  0.2954
  746TIP3    H123797   6.658   2.268   2.017 -2.1489 -0.1562 -0.2310
  746TIP3    H223798   6.678   2.119   2.003 -0.5716  0.1395 -1.3800
  747TIP3   OH223799   0.024   6.825   1.947  0.3768  0.9894 -0.7188
  747TIP3    H123800  -0.004   6.764   2.015 -2.5433  1.0813 -1.6969
  747TIP3    H223801   0.011   6.911   1.986 -1.2608  1.0410 -1.3355
  748TIP3   OH223802   1.024   2.843   2.026 -0.0477  0.5502  0.4706
  748TIP3    H123803   1.031   2.859   1.932 -0.9862 -0.1787  0.2478
  748TIP3    H223804   0.929   2.845   2.043  0.1050  0.5120  1.3655
  749TIP3   OH223805   1.839   0.550   8.088 -0.6694 -0.0338  0.5971
  749TIP3    H123806   1.911   0.561   8.025 -0.1867  0.1977  1.1877
  749TIP3    H223807   1.829   0.455   8.095  0.4989 -0.1037  1.5440
  750TIP3   OH223808   6.857   4.665   2.974  0.2129  0.0531 -0.1955
  750TIP3    H123809   6.841   4.736   2.911 -1.4664  0.2571  0.4271
  750TIP3    H223810   6.900   4.597   2.923 -1.0798  0.2261 -1.5733
  751TIP3   OH223811   6.285   4.999   0.396 -0.5854  0.2489  0.1145
  751TIP3    H123812   6.376   5.023   0.377 -0.9037  1.8536  0.4880
  751TIP3    H223813   6.234   5.044   0.329 -1.1961  0.4933  0.7336
  752TIP3   OH223814   4.689   0.694   3.185  0.1356  0.9505  0.3518
  752TIP3    H123815   4.618   0.630   3.198  0.8887  0.2210  0.9487
  752TIP3    H223816   4.699   0.699   3.090  0.2495 -0.0458  0.3002
  753TIP3   OH223817   2.156   2.631   1.214 -0.0204 -0.6176 -0.1049
  753TIP3    H123818   2.061   2.621   1.228  0.1641 -0.3472  1.5898
  753TIP3    H223819   2.194   2.607   1.298  1.1031  4.4502  1.1536
  754TIP3   OH223820   6.641   2.311   0.980  0.1568  0.3820 -0.6758
  754TIP3    H123821   6.713   2.371   0.961  1.7120 -0.2870  2.4090
  754TIP3    H223822   6.682   2.226   0.989 -1.1002 -0.1408  0.4714
  755TIP3   OH223823   2.540   0.691   1.702 -0.7690 -0.4159 -0.1923
  755TIP3    H123824   2.595   0.663   1.628 -0.0491 -0.1828  0.2405
  755TIP3    H223825   2.515   0.780   1.681 -1.0072 -0.5343 -0.4085
  756TIP3   OH223826   6.554   7.010   2.201  0.1401 -0.4537 -0.1646
  756TIP3    H123827   6.565   6.981   2.292  0.0962 -0.8338 -0.2797
  756TIP3    H223828   6.628   6.971   2.154  0.0429 -0.4345 -0.3349
  757TIP3   OH223829   4.298   6.444   1.197 -0.1989  0.0910  0.0844
  757TIP3    H123830   4.262   6.450   1.285  1.4013  0.3403  0.7506
  757TIP3    H223831   4.382   6.491   1.201  0.3402 -0.6747 -1.3265
  758TIP3   OH223832   6.325   4.857   1.794  0.5471 -0.2425 -0.0558
  758TIP3    H123833   6.407   4.809   1.802  1.4667  1.0575 -1.1952
  758TIP3    H223834   6.282   4.818   1.718  0.8452  0.0850 -0.3974
  759TIP3   OH223835   3.047   5.877   1.700 -0.1887 -0.4444 -0.4122
  759TIP3    H123836   3.107   5.912   1.635 -0.7760  1.0567 -0.1845
  759TIP3    H223837   3.093   5.887   1.783 -0.2387 -0.4911 -0.3782
  760TIP3   OH223838   1.628   6.704   2.795  0.0532  0.1501 -0.1061
  760TIP3    H123839   1.705   6.674   2.843  0.8715  2.6882  0.3587
  760TIP3    H223840   1.594   6.777   2.847 -0.8565  1.0214 -1.8206
  761TIP3   OH223841   5.744   1.486   1.867  0.2502 -0.1356 -0.3632
  761TIP3    H123842   5.690   1.491   1.947 -0.1044  1.1294 -0.6579
  761TIP3    H223843   5.684   1.510   1.797  0.9110  0.1241 -0.8442
  762TIP3   OH223844   3.229   5.224   0.365  0.4745 -0.3912 -0.1842
  762TIP3    H123845   3.314   5.184   0.383  0.3704 -0.1644  0.8571
  762TIP3    H223846   3.246   5.318   0.362  0.4116 -0.3975 -0.8711
  763TIP3   OH223847   0.858   4.547   0.585  0.3743  0.3246 -0.3556
  763TIP3    H123848   0.832   4.632   0.549  0.1869  0.5606  0.3201
  763TIP3    H223849   0.929   4.518   0.529  1.7612  1.8368  0.5417
  764TIP3   OH223850   3.766   6.829   2.940 -0.0167  0.6920  0.2422
  764TIP3    H123851   3.703   6.819   3.012  0.7872 -1.1176  0.7614
  764TIP3    H223852   3.801   6.741   2.927  1.6914  1.4645 -0.6898
  765TIP3   OH223853   4.114   4.067   0.791  0.5807 -0.5729 -0.3057
  765TIP3    H123854   4.032   4.097   0.829  0.3492 -3.4729  1.8795
  765TIP3    H223855   4.087   4.008   0.720  0.8004 -0.4707 -0.4747
  766TIP3   OH223856   6.300   3.852   7.384 -0.1559 -0.4434 -0.3521
  766TIP3    H123857   6.390   3.874   7.408 -1.1727  2.1478  1.5950
  766TIP3    H223858   6.259   3.824   7.466 -1.9683  1.9149 -0.3360
  767TIP3   OH223859   3.913   5.046   0.886  0.2647  0.7573 -0.0360
  767TIP3    H123860   3.972   5.097   0.941 -0.4057  0.0546  1.3869
  767TIP3    H223861   3.834   5.034   0.939 -0.2021 -0.4084 -0.9411
  768TIP3   OH223862   6.029   3.570   1.184  0.8092 -0.1743  0.4023
  768TIP3    H123863   5.996   3.584   1.095 -0.0423  0.5282  0.8236
  768TIP3    H223864   6.046   3.476   1.188 -1.7017 -0.6984  0.3549
  769TIP3   OH223865   0.000   1.641   8.052 -0.8136  0.0128  0.4937
  769TIP3    H123866  -0.021   1.594   7.972  2.3747 -0.4013 -0.2306
  769TIP3    H223867  -0.016   1.578   8.122  1.1452 -1.4662 -0.2873
  770TIP3   OH223868   3.221   3.026   0.935  0.0319 -0.4879 -0.0756
  770TIP3    H123869   3.188   2.978   1.011 -0.1426  1.0648  0.8601
  770TIP3    H223870   3.284   3.088   0.971 -0.3416  0.5345 -1.1420
  771TIP3   OH223871   1.585   5.482   1.795 -0.1813  0.2370 -0.3084
  771TIP3    H123872   1.570   5.399   1.840 -0.3752 -0.0710 -0.9318
  771TIP3    H223873   1.557   5.549   1.858  0.6269 -0.1366  0.4594
  772TIP3   OH223874   6.382   5.924   2.750 -0.2040 -0.1462 -0.3646
  772TIP3    H123875   6.423   5.877   2.823  1.4084 -0.0290 -1.1467
  772TIP3    H223876   6.348   5.855   2.693  0.8397 -0.3482 -0.7685
  773TIP3   OH223877   6.546   2.442   1.294  0.5665 -0.4510 -0.6372
  773TIP3    H123878   6.529   2.408   1.383 -2.1106  0.2714 -0.7766
  773TIP3    H223879   6.640   2.458   1.292  1.1525 -2.9901  1.1552
  774TIP3   OH223880   5.604   0.074   1.894 -0.4466 -0.2541 -0.1708
  774TIP3    H123881   5.537   0.140   1.915 -1.0567 -0.6140 -0.9131
  774TIP3    H223882   5.629   0.037   1.978 -0.7154  0.3387  0.1752
  775TIP3   OH223883   6.517   6.356   2.082  0.1502  0.2984 -0.1094
  775TIP3    H123884   6.563   6.355   2.167 -1.0291 -1.7161  0.5884
  775TIP3    H223885   6.443   6.415   2.096 -0.1702 -0.2014  0.3676
  776TIP3   OH223886   6.960   2.564   8.045 -0.5841 -0.5796 -0.2319
  776TIP3    H123887   6.988   2.619   8.119  0.8445  1.8836 -2.4162
  776TIP3    H223888   6.871   2.538   8.067 -0.0202 -0.4358  2.5851
  777TIP3   OH223889   5.263   0.484   2.318 -0.5913 -0.5509  0.4330
  777TIP3    H123890   5.209   0.505   2.394 -0.8981 -1.1481  0.3841
  777TIP3    H223891   5.209   0.425   2.265 -0.1584 -0.5993  0.0372
  778TIP3   OH223892   3.630   3.590   1.806  0.3508  0.0467  0.0909
  778TIP3    H123893   3.544   3.586   1.765 -0.9001  0.8580  2.4071
  778TIP3    H223894   3.647   3.500   1.835 -0.9602  0.3052  1.8304
  779TIP3   OH223895   4.764   2.300   0.230  0.1892 -0.5407  0.7600
  779TIP3    H123896   4.673   2.273   0.236 -0.0405  0.0985  0.3233
  779TIP3    H223897   4.803   2.274   0.313 -0.2576 -1.2808  0.7454
  780TIP3   OH223898   5.548   5.368   3.125  0.0483 -0.3266  0.1111
  780TIP3    H123899   5.498   5.289   3.143  1.2824 -0.6526  2.6215
  780TIP3    H223900   5.635   5.336   3.101 -0.0227  0.2576 -0.9659
  781TIP3   OH223901   0.075   0.930   1.562 -0.5339  0.5220  0.7158
  781TIP3    H123902   0.128   0.960   1.636 -1.4815  1.6748  0.9604
  781TIP3    H223903   0.018   1.005   1.542 -0.7102  0.0167 -0.7893
  782TIP3   OH223904   3.095   0.232   7.880  0.6315 -0.5486 -0.0448
  782TIP3    H123905   3.156   0.201   7.813 -1.7731 -1.8691 -1.8173
  782TIP3    H223906   3.060   0.314   7.845  2.2858  0.9317  1.6031
  783TIP3   OH223907   7.032   4.359   0.429  0.0518 -0.1238 -0.0107
  783TIP3    H123908   7.005   4.338   0.518  0.0427 -1.5661 -0.3395
  783TIP3    H223909   6.951   4.387   0.385 -0.1100 -0.3055  0.1741
  784TIP3   OH223910   5.255   5.461   2.101 -0.8401 -0.3333 -0.1379
  784TIP3    H123911   5.219   5.489   2.017 -0.1847 -0.2436 -0.3973
  784TIP3    H223912   5.214   5.377   2.118  0.4577 -1.3032 -1.5179
  785TIP3   OH223913   6.616   2.800   7.839  0.1386  0.2273  0.3740
  785TIP3    H123914   6.647   2.886   7.812  0.0528 -0.0935 -0.8084
  785TIP3    H223915   6.646   2.790   7.929  0.7763  1.1893  0.2761
  786TIP3   OH223916   6.820   3.612   8.009 -0.4584 -0.1616 -0.3109
  786TIP3    H123917   6.784   3.678   8.068  0.0442  1.0503 -1.3055
  786TIP3    H223918   6.795   3.528   8.048 -3.4803  0.5764 -0.4078
  787TIP3   OH223919   5.357   5.397   2.447 -0.2013  0.9017 -0.2875
  787TIP3    H123920   5.410   5.398   2.527  0.1020  0.8362 -0.4853
  787TIP3    H223921   5.271   5.429   2.475 -0.3660  0.0213  0.2530
  788TIP3   OH223922   5.356   0.908   2.107 -0.2276  0.0572  0.0024
  788TIP3    H123923   5.411   0.939   2.035  0.6251 -0.5140  0.3936
  788TIP3    H223924   5.418   0.885   2.177 -0.9278 -0.9572  0.3196
  789TIP3   OH223925   6.610   3.433   1.176 -0.0898  0.1756 -0.0010
  789TIP3    H123926   6.665   3.374   1.227 -0.4066 -0.6086 -0.5411
  789TIP3    H223927   6.551   3.375   1.128  1.4196  0.7051 -2.7425
  790TIP3   OH223928   4.000   5.418   0.748 -0.2406  0.3580 -0.4874
  790TIP3    H123929   3.997   5.349   0.681  0.0636 -0.8232  0.6760
  790TIP3    H223930   4.089   5.452   0.743 -0.1008  0.0092 -0.4421
  791TIP3   OH223931   6.649   6.630   1.986  0.7276 -0.3281  0.4444
  791TIP3    H123932   6.721   6.671   2.034 -0.8443  0.9275  1.8546
  791TIP3    H223933   6.570   6.672   2.020 -0.7158 -1.8289 -0.8567
  792TIP3   OH223934   1.381   5.196   0.663  0.1031 -0.0390 -0.0104
  792TIP3    H123935   1.349   5.158   0.745 -1.5265  0.9873 -0.1247
  792TIP3    H223936   1.327   5.156   0.595  0.5104  0.1395 -0.4449
  793TIP3   OH223937   4.432   3.745   1.173 -0.1430 -0.0975 -0.5141
  793TIP3    H123938   4.351   3.797   1.169 -0.3063 -0.1832  1.0707
  793TIP3    H223939   4.495   3.803   1.216  0.1792 -0.6121 -0.2923
  794TIP3   OH223940   0.690   4.424   8.083 -0.3072 -0.3314  0.5012
  794TIP3    H123941   0.679   4.404   7.990  0.3302 -0.3423  0.4298
  794TIP3    H223942   0.782   4.447   8.093 -0.5383  0.4109  0.9973
  795TIP3   OH223943   0.858   2.635   1.247 -0.7695  0.3505  0.2346
  795TIP3    H123944   0.889   2.705   1.306 -1.3595  1.6125 -0.8920
  795TIP3    H223945   0.925   2.632   1.178 -0.5968 -0.4228  0.4305
  796TIP3   OH223946   6.800   4.175   3.135  0.2994 -0.2368  0.7743
  796TIP3    H123947   6.883   4.191   3.089 -0.6901 -0.0892 -1.0587
  796TIP3    H223948   6.790   4.249   3.194 -0.0972  1.5810 -1.4356
  797TIP3   OH223949   3.593   6.078   2.608 -0.3182 -0.1990 -0.2840
  797TIP3    H123950   3.646   6.156   2.622 -1.8584  0.7795  0.3733
  797TIP3    H223951   3.539   6.071   2.687  1.4581 -3.3716  0.8054
  798TIP3   OH223952   1.731   3.312   3.051 -0.7405 -0.0232  0.3598
  798TIP3    H123953   1.789   3.337   3.122  1.4862 -1.7033 -0.7448
  798TIP3    H223954   1.693   3.229   3.080 -0.5467 -0.2435 -0.0127
  799TIP3   OH223955   4.728   1.935   7.252 -0.2688  0.5824 -0.3177
  799TIP3    H123956   4.710   1.844   7.229 -1.6665  0.5551  0.7731
  799TIP3    H223957   4.728   1.981   7.167 -2.1484 -0.0209 -0.6857
  800TIP3   OH223958   3.512   1.909   2.414  0.3330  0.0240 -0.5098
  800TIP3    H123959   3.566   1.984   2.390 -1.5758  2.1270  1.2137
  800TIP3    H223960   3.434   1.917   2.359 -1.3370  1.3371  1.8546
  801TIP3   OH223961   5.565   2.675   6.637 -0.7782  0.1566 -0.0768
  801TIP3    H123962   5.605   2.756   6.605 -0.2413  0.0578  0.3315
  801TIP3    H223963   5.587   2.673   6.730  0.9519 -1.4655 -0.4719
  802TIP3   OH223964   3.294   4.371   0.489  0.1971  0.2222 -0.7332
  802TIP3    H123965   3.288   4.303   0.422 -0.0703 -0.6285  0.1286
  802TIP3    H223966   3.245   4.445   0.454  0.1627 -0.1724 -1.5225
  803TIP3   OH223967   5.515   0.513   8.033 -0.0766  0.0518 -0.0639
  803TIP3    H123968   5.469   0.595   8.051 -0.8569 -0.5712  0.9388
  803TIP3    H223969   5.607   0.535   8.045 -0.0278  1.3914 -2.3670
  804TIP3   OH223970   3.486   2.453   2.143  0.0256  1.0076 -0.4270
  804TIP3    H123971   3.535   2.498   2.212  2.5611  1.3383 -2.3202
  804TIP3    H223972   3.531   2.369   2.133  0.3182  1.3565 -2.3126
  805TIP3   OH223973   1.821   3.742   2.080 -0.1751 -0.1405 -0.0221
  805TIP3    H123974   1.836   3.830   2.045 -0.4425  0.8999  2.3465
  805TIP3    H223975   1.785   3.693   2.006 -1.4847  2.1467 -0.9981
  806TIP3   OH223976   3.698   2.052   2.778  0.0093 -0.1324  0.7369
  806TIP3    H123977   3.612   2.095   2.779  0.2358  0.5448 -2.0714
  806TIP3    H223978   3.677   1.959   2.773 -0.5368 -0.0449  1.2003
  807TIP3   OH223979   4.785   4.978   3.003 -0.0273 -0.2992  0.2547
  807TIP3    H123980   4.830   5.055   3.038 -0.1100 -0.3905  0.5582
  807TIP3    H223981   4.853   4.911   2.998 -0.6610 -1.2801  3.2444
  808TIP3   OH223982   4.069   6.785   2.284  0.0869 -0.3642 -0.2536
  808TIP3    H123983   4.072   6.769   2.190 -0.2346 -1.1777 -0.1356
  808TIP3    H223984   4.011   6.716   2.318 -0.5652  0.4884  0.4200
  809TIP3   OH223985   4.053   3.092   2.822  0.0497  0.0905  0.1126
  809TIP3    H123986   4.002   3.102   2.903  0.5243  0.2145  0.4044
  809TIP3    H223987   4.064   2.997   2.812  1.9745  0.1026  1.4911
  810TIP3   OH223988   1.301   0.890   3.454  0.2556 -0.3180 -0.4115
  810TIP3    H123989   1.348   0.886   3.372  0.7761 -1.2228 -0.0753
  810TIP3    H223990   1.351   0.835   3.514  0.4042  1.0277  0.7827
  811TIP3   OH223991   2.161   2.805   0.453  0.0256  0.1748 -0.3073
  811TIP3    H123992   2.155   2.901   0.449 -0.5712  0.1348 -0.3403
  811TIP3    H223993   2.255   2.788   0.453  0.1317  0.7225 -1.1401
  812TIP3   OH223994   2.151   6.752   7.789 -0.1795  0.0787  0.0717
  812TIP3    H123995   2.148   6.771   7.695 -1.0852  0.8431  0.2375
  812TIP3    H223996   2.226   6.693   7.800 -0.2850 -0.3025 -1.1750
  813TIP3   OH223997   3.878   0.649   1.383  0.2942 -0.0827 -0.3896
  813TIP3    H123998   3.973   0.655   1.397  0.1292  2.1502  0.2684
  813TIP3    H223999   3.863   0.699   1.302 -0.3958  0.4034  0.0268
  814TIP3   OH224000   5.945   1.665   1.750  0.3324  0.0391  0.0454
  814TIP3    H124001   5.910   1.747   1.786 -2.7689 -0.2866 -1.8662
  814TIP3    H224002   5.889   1.597   1.787 -0.2954 -0.6636 -2.0707
  815TIP3   OH224003   2.740   4.276   2.409 -0.0224  0.1678  0.5624
  815TIP3    H124004   2.681   4.322   2.469 -0.2947  0.0443  0.3924
  815TIP3    H224005   2.739   4.185   2.440  1.3114  0.4471  1.5311
  816TIP3   OH224006   4.968   0.715   0.181 -0.0895 -0.2450 -0.2712
  816TIP3    H124007   4.948   0.803   0.148  0.6594 -0.4319 -1.2912
  816TIP3    H224008   4.914   0.657   0.127 -1.3799 -0.3619  1.1068
  817TIP3   OH224009   1.467   2.899   1.767  0.5967 -0.1719 -0.3271
  817TIP3    H124010   1.429   2.986   1.763 -0.0011 -0.1888  2.6688
  817TIP3    H224011   1.523   2.893   1.690 -1.8500  1.5834 -2.3907
  818TIP3   OH224012   4.014   5.426   3.020 -0.0879  0.0727  0.3347
  818TIP3    H124013   3.986   5.444   2.931  0.3118 -1.5950 -0.1688
  818TIP3    H224014   4.093   5.373   3.010  0.8604  1.1413  1.7004
  819TIP3   OH224015   7.003   3.153   0.331 -0.2254  0.5840 -0.4770
  819TIP3    H124016   7.015   3.140   0.237  3.9578  1.1203 -0.2157
  819TIP3    H224017   7.084   3.120   0.370 -1.4363  1.2259  2.8725
  820TIP3   OH224018   2.708   4.382   0.286 -0.1072 -0.3130 -0.0216
  820TIP3    H124019   2.764   4.329   0.342 -1.0022 -1.2847 -0.0040
  820TIP3    H224020   2.753   4.382   0.201 -0.6098 -2.0613 -0.3352
  821TIP3   OH224021   5.207   0.846   2.746  0.4231  0.0636 -0.2434
  821TIP3    H124022   5.237   0.801   2.667 -0.3713 -0.5524 -0.2110
  821TIP3    H224023   5.247   0.933   2.741  0.1840  0.1242 -1.4602
  822TIP3   OH224024   5.338   5.188   7.758  0.3044  0.1262 -0.1127
  822TIP3    H124025   5.408   5.152   7.811  0.7239 -3.4816 -2.7296
  822TIP3    H224026   5.260   5.139   7.784 -0.7677  2.2758  0.9579
  823TIP3   OH224027   7.023   3.041   7.164  0.3057  0.2236 -0.0642
  823TIP3    H124028   6.991   3.079   7.082 -2.8372 -1.2398  0.3393
  823TIP3    H224029   7.092   2.980   7.137 -2.5533 -2.3956 -2.1471
  824TIP3   OH224030   5.461   3.241   2.684 -0.1209 -0.0551 -0.1868
  824TIP3    H124031   5.494   3.155   2.657 -2.4250 -0.7963 -0.9244
  824TIP3    H224032   5.389   3.259   2.622  1.6018  3.4125 -1.4501
  825TIP3   OH224033   2.248   5.030   7.601  0.1995  0.0044 -0.2529
  825TIP3    H124034   2.154   5.015   7.587  0.5101 -1.5414 -0.9410
  825TIP3    H224035   2.287   4.943   7.595  1.8574  0.7752 -1.3033
  826TIP3   OH224036   5.937   6.880   1.796 -0.4244 -0.7140 -0.4119
  826TIP3    H124037   5.948   6.847   1.885  0.9553  1.3048  0.2557
  826TIP3    H224038   6.010   6.941   1.785 -1.8759  0.8113 -2.1103
  827TIP3   OH224039   1.271   2.636   1.478 -0.1611 -0.3183  0.1194
  827TIP3    H124040   1.243   2.600   1.562  0.1364 -0.0769  0.3234
  827TIP3    H224041   1.287   2.729   1.495  2.1641 -0.6877  0.3923
  828TIP3   OH224042   2.153   5.639   7.581  0.4735  0.5216 -0.1920
  828TIP3    H124043   2.105   5.582   7.521 -0.0306  0.2689  0.4439
  828TIP3    H224044   2.086   5.696   7.619  0.8997  1.2122 -0.4444
  829TIP3   OH224045   2.308   3.433   0.571  0.2411 -0.0422 -0.4533
  829TIP3    H124046   2.216   3.408   0.564  0.0037  1.0156 -1.4580
  829TIP3    H224047   2.337   3.443   0.480  0.8683  1.2990 -0.1309
  830TIP3   OH224048   4.799   4.050   1.219 -0.0292 -0.3515  0.3563
  830TIP3    H124049   4.869   4.072   1.158  0.7557 -1.2491  0.9050
  830TIP3    H224050   4.767   4.135   1.250  1.0292  0.0750  0.3246
  831TIP3   OH224051   3.178   3.176   7.668  0.0414  0.3518  0.2372
  831TIP3    H124052   3.107   3.240   7.674 -2.0059 -1.9162  2.6435
  831TIP3    H224053   3.173   3.143   7.579 -0.7303  1.4824 -0.1628
  832TIP3   OH224054   1.459   1.126   2.270 -0.3433 -0.3507 -0.3226
  832TIP3    H124055   1.387   1.189   2.279 -0.8786 -0.8397 -1.0132
  832TIP3    H224056   1.438   1.056   2.331 -1.0492 -1.0132 -1.2887
  833TIP3   OH224057   2.361   4.775   7.550  0.2260  0.1428  0.1835
  833TIP3    H124058   2.422   4.754   7.621  2.7358 -0.3102 -1.9630
  833TIP3    H224059   2.288   4.714   7.563  2.5598 -2.9365  0.0533
  834TIP3   OH224060   3.592   3.004   1.689 -0.6280  0.2371  0.1910
  834TIP3    H124061   3.676   2.976   1.653 -0.7356 -0.1386  0.2211
  834TIP3    H224062   3.612   3.029   1.780 -1.1640 -3.6961  1.5905
  835TIP3   OH224063   4.799   6.113   2.007  0.2505 -0.6540  0.6363
  835TIP3    H124064   4.741   6.175   2.049  0.2930 -0.0579 -0.1540
  835TIP3    H224065   4.880   6.162   1.992  1.1587 -1.6137  2.1766
  836TIP3   OH224066   5.245   3.366   7.701  0.0568 -0.3844  0.0246
  836TIP3    H124067   5.259   3.277   7.734  0.5901 -1.4197 -2.7087
  836TIP3    H224068   5.181   3.355   7.631  3.5745  0.4743 -3.6563
  837TIP3   OH224069   0.280   3.051   2.417  0.7263  0.0124 -0.1861
  837TIP3    H124070   0.262   3.138   2.453  2.2005 -0.1599  1.0715
  837TIP3    H224071   0.256   3.058   2.324 -3.9077  0.2619  0.8022
  838TIP3   OH224072   6.456   4.402   2.816  0.3830  0.1039  0.2134
  838TIP3    H124073   6.487   4.451   2.892 -0.9403  1.6063 -0.1379
  838TIP3    H224074   6.361   4.394   2.830 -0.5960  3.5525 -2.7589
  839TIP3   OH224075   1.991   0.987   0.390  0.2905  0.2136  0.5745
  839TIP3    H124076   2.012   0.992   0.297  1.3214 -1.9466  0.6387
  839TIP3    H224077   1.996   1.078   0.420 -1.2969  1.1530 -1.6755
  840TIP3   OH224078   6.444   4.803   1.473 -0.3039  0.3933  0.2580
  840TIP3    H124079   6.376   4.868   1.488 -1.0786 -0.2526 -0.3930
  840TIP3    H224080   6.459   4.764   1.559 -0.2610  1.0061  0.5352
  841TIP3   OH224081   4.576   5.694   0.855  0.0190  0.8445  0.6563
  841TIP3    H124082   4.496   5.736   0.823 -1.4829 -2.0839  0.2225
  841TIP3    H224083   4.606   5.641   0.781 -0.2194 -1.5594  2.1720
  842TIP3   OH224084   5.649   3.529   2.832 -0.3414  0.6999  0.4400
  842TIP3    H124085   5.644   3.531   2.736 -0.0451  1.5914  0.4355
  842TIP3    H224086   5.686   3.613   2.856  0.6712  0.0407  1.2861
  843TIP3   OH224087   6.799   1.404   0.063  0.1245  0.7064 -0.2271
  843TIP3    H124088   6.757   1.400   0.149  1.6958 -0.2070  0.5482
  843TIP3    H224089   6.742   1.460   0.011 -2.9204 -1.6277  0.2565
  844TIP3   OH224090   2.707   2.647   1.667  0.0628  0.0641 -0.4374
  844TIP3    H124091   2.746   2.733   1.649 -0.3499  0.4029  0.2629
  844TIP3    H224092   2.613   2.661   1.657 -0.2634  0.3877  2.2977
  845TIP3   OH224093   4.505   4.608   3.048 -0.2725  0.5659  0.3470
  845TIP3    H124094   4.428   4.552   3.037 -0.1276  0.4810 -0.2661
  845TIP3    H224095   4.476   4.695   3.020  0.3880  0.1405 -1.8521
  846TIP3   OH224096   3.075   0.800   2.547 -0.6371  0.0214  0.0941
  846TIP3    H124097   3.104   0.715   2.579 -3.2927 -0.8420  0.4242
  846TIP3    H224098   3.109   0.862   2.612 -0.1429 -0.9545  0.8003
  847TIP3   OH224099   2.341   6.624   1.016 -0.2556 -0.0748 -0.4565
  847TIP3    H124100   2.323   6.643   0.924 -0.0990  0.9540 -0.2886
  847TIP3    H224101   2.379   6.705   1.050 -0.7697 -0.2749  0.6396
  848TIP3   OH224102   3.448   1.822   3.616 -0.4056  0.7786  0.5858
  848TIP3    H124103   3.512   1.892   3.599  0.9349 -0.3976  0.5662
  848TIP3    H224104   3.502   1.744   3.631 -1.8633 -0.4271 -0.1579
  849TIP3   OH224105   4.210   2.146   2.622  0.3752  0.0786  0.0326
  849TIP3    H124106   4.120   2.179   2.622  0.8390  1.6060 -1.9810
  849TIP3    H224107   4.257   2.204   2.681 -0.2386 -1.8911  2.6119
  850TIP3   OH224108   2.441   1.231   2.652 -0.1505  0.0408  0.0555
  850TIP3    H124109   2.443   1.303   2.715 -0.5298 -0.6519  0.8760
  850TIP3    H224110   2.388   1.164   2.694  0.3075 -0.7748 -0.6383
  851TIP3   OH224111   3.475   3.681   2.953  0.3435  0.2191 -0.8777
  851TIP3    H124112   3.421   3.662   2.877 -0.4900  1.8138 -0.7198
  851TIP3    H224113   3.418   3.734   3.010  0.2930 -2.3187  1.6893
  852TIP3   OH224114   5.727   2.259   1.082  0.1846 -0.2197 -0.0986
  852TIP3    H124115   5.635   2.246   1.058  0.0089  0.4069  0.2168
  852TIP3    H224116   5.741   2.353   1.073  0.0103  0.1347  2.5342
  853TIP3   OH224117   2.648   2.823   0.030  0.0612  0.3514 -0.4088
  853TIP3    H124118   2.611   2.744  -0.010  0.1189 -0.7223  1.5070
  853TIP3    H224119   2.584   2.891   0.014 -0.4607 -0.3239 -1.2683
  854TIP3   OH224120   1.675   3.701   2.717  0.5158  0.2224 -0.2808
  854TIP3    H124121   1.685   3.692   2.622 -1.0580 -4.6562 -0.2465
  854TIP3    H224122   1.586   3.735   2.728  0.0704 -0.8001 -0.6108
  855TIP3   OH224123   4.826   6.614   0.058  0.3675  0.1826 -0.0428
  855TIP3    H124124   4.792   6.569   0.135  1.0373 -0.0160  0.1442
  855TIP3    H224125   4.806   6.556  -0.016 -2.1088  1.2894 -0.3329
  856TIP3   OH224126   2.867   1.978   0.911  0.2082 -0.2340  0.5051
  856TIP3    H124127   2.852   1.894   0.953 -1.7049 -0.5446 -0.7047
  856TIP3    H224128   2.914   1.957   0.830  2.0489  0.1648  1.4099
  857TIP3   OH224129   4.718   5.194   2.362 -0.3462  0.5912  0.1585
  857TIP3    H124130   4.723   5.206   2.457 -2.1178  1.2228  0.2092
  857TIP3    H224131   4.632   5.155   2.347 -0.6308  1.6876 -1.2769
  858TIP3   OH224132   6.300   6.774   1.906  0.4029  0.1126  0.1043
  858TIP3    H124133   6.232   6.707   1.899  1.6490 -1.5378  2.6177
  858TIP3    H224134   6.373   6.740   1.854  1.2234 -0.7882  1.7967
  859TIP3   OH224135   1.173   2.106   1.898  0.0467 -0.6345 -0.5513
  859TIP3    H124136   1.159   2.182   1.842  0.9099 -0.7951 -0.9961
  859TIP3    H224137   1.085   2.070   1.910 -0.5941  1.2629  0.9122
  860TIP3   OH224138   2.478   0.710   0.638 -0.4330  0.0201 -0.3754
  860TIP3    H124139   2.440   0.767   0.705  0.2780  0.1792 -0.1009
  860TIP3    H224140   2.464   0.757   0.556 -0.4212  0.2920 -0.2243
  861TIP3   OH224141   2.134   4.658   0.407 -0.0360  0.0293  0.1129
  861TIP3    H124142   2.186   4.636   0.484  1.9929  0.9625 -0.8901
  861TIP3    H224143   2.116   4.574   0.365 -1.8070 -0.5639  1.9251
  862TIP3   OH224144   5.887   2.289   1.473 -0.6184 -0.1165 -0.0607
  862TIP3    H124145   5.970   2.329   1.449 -0.0454 -1.3783 -0.2783
  862TIP3    H224146   5.882   2.210   1.420 -1.1775 -0.9158  1.1267
  863TIP3   OH224147   0.712   3.838   1.384  0.4480 -0.2659  0.3620
  863TIP3    H124148   0.692   3.907   1.321 -1.0690 -0.8250  0.1846
  863TIP3    H224149   0.761   3.882   1.453 -0.4492  0.9885  0.2324
  864TIP3   OH224150   5.484   1.984   0.177 -0.2191 -0.0758 -0.0957
  864TIP3    H124151   5.468   2.010   0.268 -0.7154 -0.4441 -0.0769
  864TIP3    H224152   5.446   2.055   0.125 -0.6445 -0.2569 -0.0299
  865TIP3   OH224153   5.074   5.999   2.029 -0.0385  0.0378  0.1632
  865TIP3    H124154   4.995   6.026   2.078  0.1803 -0.7121  0.9622
  865TIP3    H224155   5.085   6.067   1.963 -1.1078  0.3938  0.3169
  866TIP3   OH224156   6.432   2.703   1.277 -0.1320 -0.2923 -0.3155
  866TIP3    H124157   6.477   2.618   1.283 -0.1456 -0.2501  0.6288
  866TIP3    H224158   6.351   2.684   1.230  0.8013 -0.3858 -1.9641
  867TIP3   OH224159   2.246   0.354   0.747 -0.6468  0.1259 -0.0772
  867TIP3    H124160   2.296   0.295   0.690  0.1312 -0.9859  1.6922
  867TIP3    H224161   2.236   0.434   0.695  3.1361  0.5028 -0.4595
  868TIP3   OH224162   2.646   0.629   7.373 -0.4910  0.3439 -0.4611
  868TIP3    H124163   2.571   0.599   7.425 -0.2717 -0.7692 -0.7587
  868TIP3    H224164   2.613   0.633   7.283 -0.0979 -0.6124 -0.6699
  869TIP3   OH224165   6.046   4.510   1.248  0.9853 -0.7605  0.2047
  869TIP3    H124166   6.004   4.533   1.165  1.0048  1.5738  0.7809
  869TIP3    H224167   6.120   4.455   1.222 -0.1005 -1.6376 -1.1508
  870TIP3   OH224168   4.129   1.311   1.774 -0.3770 -0.7525  0.5959
  870TIP3    H124169   4.036   1.295   1.793 -1.3389  1.1044 -1.8421
  870TIP3    H224170   4.149   1.393   1.820 -0.8925  0.4174 -1.1504
  871TIP3   OH224171   6.020   3.363   2.103  0.2481 -0.0350 -0.2147
  871TIP3    H124172   5.937   3.402   2.131  0.2229 -0.7772  0.7987
  871TIP3    H224173   5.997   3.314   2.024 -0.6992 -1.6214  0.9599
  872TIP3   OH224174   4.794   5.732   2.773  0.2334 -0.2444  0.3220
  872TIP3    H124175   4.729   5.738   2.844  0.4764  2.7724  0.4014
  872TIP3    H224176   4.870   5.690   2.814 -0.2795 -0.2162  1.3324
  873TIP3   OH224177   6.966   2.960   7.706 -0.0254 -0.0387  0.0752
  873TIP3    H124178   6.874   2.985   7.697 -0.0845 -0.5353 -0.7719
  873TIP3    H224179   6.971   2.920   7.793 -0.5047  0.4434  0.3296
  874TIP3   OH224180   0.351   0.152   2.022  0.8946 -0.2879 -0.3911
  874TIP3    H124181   0.368   0.226   2.080  0.8495 -0.7148  0.1804
  874TIP3    H224182   0.271   0.175   1.976 -0.0634 -0.6880  1.0086
  875TIP3   OH224183   3.889   0.367   0.345 -0.0908 -0.9976  0.2460
  875TIP3    H124184   3.820   0.433   0.348 -0.4265 -1.3636  2.2232
  875TIP3    H224185   3.907   0.354   0.252 -0.7567  1.0841 -0.2185
  876TIP3   OH224186   5.931   6.676   2.410  0.7977  0.1765 -0.9073
  876TIP3    H124187   6.017   6.651   2.444  0.0559 -0.4305  0.5905
  876TIP3    H224188   5.907   6.753   2.461  0.7538  0.8140 -1.8543
  877TIP3   OH224189   1.370   1.154   8.214  0.2248  0.4758  0.4873
  877TIP3    H124190   1.305   1.154   8.283 -2.2465 -2.5779 -1.5674
  877TIP3    H224191   1.336   1.214   8.148  0.8326  0.8158  0.4749
  878TIP3   OH224192   2.876   6.696   2.411  0.2142  0.4524  0.3258
  878TIP3    H124193   2.859   6.633   2.340 -0.3280  1.9761 -0.9682
  878TIP3    H224194   2.838   6.655   2.489 -1.5658 -0.1387 -0.7827
  879TIP3   OH224195   4.042   4.873   0.320  0.2439  0.7925 -0.6427
  879TIP3    H124196   3.966   4.894   0.375 -0.4691  0.8506 -1.6267
  879TIP3    H224197   4.042   4.778   0.314 -0.0043  0.8115 -0.9809
  880TIP3   OH224198   2.297   5.496   0.443  0.1720  0.4851 -0.0727
  880TIP3    H124199   2.219   5.528   0.488  1.1109  2.0448  0.5108
  880TIP3    H224200   2.342   5.443   0.509 -1.2903 -2.0531 -0.9832
  881TIP3   OH224201   4.424   1.088   1.162 -0.4572 -0.1194 -0.4850
  881TIP3    H124202   4.345   1.113   1.210 -0.8747  0.3430 -1.3862
  881TIP3    H224203   4.472   1.170   1.150 -0.8950 -0.0171 -1.7767
  882TIP3   OH224204   4.821   5.363   0.808 -0.5836 -0.0261  0.5771
  882TIP3    H124205   4.864   5.401   0.884  1.1740 -0.6823 -0.0326
  882TIP3    H224206   4.766   5.293   0.844  0.4988 -0.5642  1.2103
  883TIP3   OH224207   1.567   4.132   2.587 -0.0323 -0.0898 -0.2883
  883TIP3    H124208   1.583   4.224   2.606  1.7857 -0.6760  1.3402
  883TIP3    H224209   1.486   4.111   2.634 -0.1362  0.5172 -0.1917
  884TIP3   OH224210   0.008   3.191   1.181  0.0989 -0.7912 -0.3555
  884TIP3    H124211   0.070   3.120   1.168 -0.0116 -1.0141  0.3197
  884TIP3    H224212  -0.026   3.210   1.093  1.4283 -0.3725 -0.8072
  885TIP3   OH224213   0.657   1.290   6.842  0.1383  0.2413  0.2645
  885TIP3    H124214   0.565   1.265   6.847 -0.0615  1.1531  2.2294
  885TIP3    H224215   0.702   1.222   6.893  0.9522 -1.5589 -2.6189
  886TIP3   OH224216   2.185   3.871   7.003 -0.0459 -0.1292  0.1306
  886TIP3    H124217   2.265   3.874   6.950  0.3582 -1.3450  0.6313
  886TIP3    H224218   2.181   3.781   7.035 -1.0785  0.1899  0.9613
  887TIP3   OH224219   2.869   6.074   7.812  0.3852 -0.2991  0.4580
  887TIP3    H124220   2.947   6.066   7.756  1.3566  0.3001  1.6783
  887TIP3    H224221   2.899   6.126   7.887 -0.9324 -0.8990  1.4366
  888TIP3   OH224222   6.337   5.561   1.436  0.1742  0.4151 -0.3617
  888TIP3    H124223   6.289   5.579   1.355 -0.0779  0.4257 -0.2130
  888TIP3    H224224   6.347   5.646   1.478 -1.3963  0.1818  0.5495
  889TIP3   OH224225   2.897   0.644   2.228 -0.3871 -0.3715  0.2804
  889TIP3    H124226   2.988   0.638   2.197 -0.8790 -2.3519 -0.9673
  889TIP3    H224227   2.850   0.681   2.154 -0.7478 -0.2578  0.5674
  890TIP3   OH224228   1.520   1.559   8.015  0.9566  0.0760  0.5535
  890TIP3    H124229   1.502   1.618   8.089  0.3209  0.5420  0.0421
  890TIP3    H224230   1.435   1.546   7.974  1.6621  2.3254 -1.9396
  891TIP3   OH224231   5.212   5.216   2.691  0.5991  0.2065  0.9749
  891TIP3    H124232   5.193   5.181   2.604  0.1328 -0.0677  1.1823
  891TIP3    H224233   5.157   5.165   2.750  1.5210 -0.1775  1.5288
  892TIP3   OH224234   6.747   2.300   7.989  0.4221 -0.5981 -0.0350
  892TIP3    H124235   6.699   2.376   7.955  2.1489 -0.3436 -2.0715
  892TIP3    H224236   6.748   2.238   7.917  3.5010 -0.3889 -0.2910
  893TIP3   OH224237   4.652   0.200   2.282  0.6067  0.0370 -0.4296
  893TIP3    H124238   4.731   0.253   2.283  1.8116 -1.6248 -1.8810
  893TIP3    H224239   4.617   0.207   2.371  2.6560  0.4112  0.3906
  894TIP3   OH224240   4.703   3.226   0.370  0.7280 -0.1265  0.4849
  894TIP3    H124241   4.723   3.309   0.414 -0.2497  0.1376  0.4537
  894TIP3    H224242   4.734   3.238   0.280  0.3837  0.2977  0.4199
  895TIP3   OH224243   6.716   6.046   0.727 -0.2085  0.3595  0.2464
  895TIP3    H124244   6.621   6.059   0.735 -0.0954  2.9238 -1.4303
  895TIP3    H224245   6.727   5.951   0.723 -2.4632 -0.1284  2.5814
  896TIP3   OH224246   0.206   0.071   2.296  0.5851  0.1416  0.2183
  896TIP3    H124247   0.301   0.061   2.287  0.6307 -1.1367  1.7758
  896TIP3    H224248   0.190   0.163   2.274  1.9745  0.0531 -1.4144
  897TIP3   OH224249   3.032   1.290   2.247  0.3953  0.3823  0.2364
  897TIP3    H124250   2.952   1.295   2.194 -1.1375  0.6107  2.4215
  897TIP3    H224251   3.078   1.371   2.229 -0.9202  1.2081  0.4515
  898TIP3   OH224252   4.478   5.800   1.518 -0.2461 -0.1283  0.4007
  898TIP3    H124253   4.386   5.793   1.545 -0.7297  2.6128 -0.1979
  898TIP3    H224254   4.503   5.889   1.544  2.2847 -0.8223  0.5741
  899TIP3   OH224255   1.989   4.233   2.498  0.0422 -0.1501  0.0838
  899TIP3    H124256   1.946   4.273   2.422  2.5675  0.5198 -1.1040
  899TIP3    H224257   1.984   4.139   2.481  1.8887  0.0081 -1.8206
  900TIP3   OH224258   5.256   0.555   0.806 -0.3780 -0.0739  0.3098
  900TIP3    H124259   5.169   0.594   0.807  0.4719  1.9642 -0.3999
  900TIP3    H224260   5.277   0.539   0.898 -1.2464 -0.0313  0.5236
  901TIP3   OH224261   1.416   1.883   8.067 -0.0041 -0.5629  0.3492
  901TIP3    H124262   1.331   1.848   8.041 -0.7861  0.4251  1.4651
  901TIP3    H224263   1.413   1.886   8.163  1.6256 -1.2951  0.4589
  902TIP3   OH224264   3.445   1.431   3.049 -0.0522  0.2178 -0.1247
  902TIP3    H124265   3.473   1.507   2.998  0.7274 -0.0321 -0.0815
  902TIP3    H224266   3.385   1.467   3.115  0.1352  0.7630 -0.2479
  903TIP3   OH224267   0.470   1.561   1.400 -0.3027  0.2029  0.3533
  903TIP3    H124268   0.398   1.502   1.419 -1.3454  2.1296  3.0356
  903TIP3    H224269   0.549   1.512   1.425 -0.9578 -0.7281  0.6252
  904TIP3   OH224270   3.629   1.296   3.241  0.2810 -0.7071  0.2742
  904TIP3    H124271   3.693   1.236   3.203  1.0632  1.4538 -2.0809
  904TIP3    H224272   3.562   1.307   3.174 -1.0205 -0.6013  1.5353
  905TIP3   OH224273   4.214   4.036   7.745  0.2078 -0.1763 -0.5437
  905TIP3    H124274   4.234   3.960   7.691  1.5823  0.2254 -0.6519
  905TIP3    H224275   4.300   4.072   7.769 -0.1641 -1.4575  3.5557
  906TIP3   OH224276   0.335   5.805   2.365 -0.0953  0.2625 -0.3681
  906TIP3    H124277   0.404   5.865   2.338 -0.4830  1.3062  0.8111
  906TIP3    H224278   0.276   5.800   2.290  0.3483  0.7675 -0.7513
  907TIP3   OH224279   5.685   0.023   2.708  0.2630 -0.4085 -0.5094
  907TIP3    H124280   5.701   0.089   2.640  0.5452 -0.0854 -0.1351
  907TIP3    H224281   5.648  -0.052   2.660 -1.8227  0.6634 -0.7283
  908TIP3   OH224282   1.059   4.325   2.086 -0.1701  0.0037 -0.3086
  908TIP3    H124283   1.147   4.303   2.054 -0.5640  0.3924 -1.7270
  908TIP3    H224284   1.001   4.300   2.015 -1.0688  1.2114 -0.0293
  909TIP3   OH224285   4.900   3.147   2.036  0.3239 -0.3611 -0.5624
  909TIP3    H124286   4.929   3.057   2.046  0.6156 -0.2017  0.0876
  909TIP3    H224287   4.858   3.169   2.119 -0.2114 -0.0642 -0.9055
  910TIP3   OH224288   4.509   2.680   0.907 -0.1906 -0.2341 -0.3388
  910TIP3    H124289   4.514   2.756   0.848  0.1088  0.8917  1.0658
  910TIP3    H224290   4.432   2.697   0.961 -2.1413 -2.6321 -2.1552
  911TIP3   OH224291   6.721   2.848   2.796 -0.4089 -0.3493  0.7140
  911TIP3    H124292   6.680   2.933   2.778  0.9439  0.0101 -0.9878
  911TIP3    H224293   6.647   2.789   2.811 -1.5848  0.3443 -1.8102
  912TIP3   OH224294   5.773   6.229   2.469 -0.0487  0.6362 -0.2612
  912TIP3    H124295   5.768   6.322   2.489  1.9273  0.4021  1.6736
  912TIP3    H224296   5.714   6.217   2.394 -2.0419  3.0058  0.7998
  913TIP3   OH224297   6.666   1.696   2.639  0.2857  0.7726  0.0170
  913TIP3    H124298   6.651   1.648   2.720  1.2643 -0.7086 -0.6381
  913TIP3    H224299   6.669   1.788   2.666  1.1358  0.2815  1.7440
  914TIP3   OH224300   2.353   4.470   1.352  0.1218  0.1470 -1.0811
  914TIP3    H124301   2.326   4.408   1.283 -0.1566 -0.0729 -0.7760
  914TIP3    H224302   2.447   4.457   1.359 -0.0632 -0.9523 -0.3448
  915TIP3   OH224303   5.011   1.693   2.057 -0.5162  0.4020 -0.7404
  915TIP3    H124304   4.930   1.724   2.098 -0.6574 -0.9438  0.0600
  915TIP3    H224305   4.989   1.606   2.025  1.0447 -0.7379  1.0476
  916TIP3   OH224306   3.739   4.162   1.585  0.2340  0.3227 -0.0881
  916TIP3    H124307   3.817   4.113   1.612  0.9878  1.5152  0.0044
  916TIP3    H224308   3.687   4.170   1.665  0.4614  0.2940  0.0648
  917TIP3   OH224309   2.602   0.242   1.384  0.1283  0.2792  0.0553
  917TIP3    H124310   2.591   0.266   1.292 -0.3179  0.3519  0.1269
  917TIP3    H224311   2.696   0.246   1.398  0.3383 -1.0591 -0.7678
  918TIP3   OH224312   6.635   1.816   0.273 -0.4068 -0.1679  0.3108
  918TIP3    H124313   6.646   1.765   0.193  0.3503 -0.4689  0.5993
  918TIP3    H224314   6.553   1.864   0.260 -0.4259 -0.4182 -0.5275
  919TIP3   OH224315   5.576   4.352   2.568  0.1702 -0.2353 -0.1196
  919TIP3    H124316   5.541   4.294   2.501  0.1364  0.9270 -1.1456
  919TIP3    H224317   5.519   4.338   2.644  0.4120 -1.8036 -0.2046
  920TIP3   OH224318   0.313   1.155   7.497 -0.5912 -0.0914  0.4218
  920TIP3    H124319   0.278   1.066   7.503  0.2167 -0.4832 -0.4474
  920TIP3    H224320   0.242   1.207   7.461 -1.3489 -0.2039  1.7070
  921TIP3   OH224321   2.819   0.907   2.455  0.0431 -0.1281  0.0759
  921TIP3    H124322   2.907   0.869   2.461  0.3434  0.7892  2.6041
  921TIP3    H224323   2.834   1.001   2.445 -0.5965  0.1725  1.6629
  922TIP3   OH224324   2.379   2.781   0.801  0.0082 -0.1719 -0.4041
  922TIP3    H124325   2.287   2.767   0.780 -0.4244  0.4948  0.8809
  922TIP3    H224326   2.420   2.696   0.787 -0.6080 -0.2629 -1.8528
  923TIP3   OH224327   4.784   2.739   1.480 -0.2318  0.0679  0.0491
  923TIP3    H124328   4.879   2.749   1.474 -0.0084 -0.1178  2.1987
  923TIP3    H224329   4.755   2.817   1.529 -1.3038  0.5021 -1.2281
  924TIP3   OH224330   3.711   2.160   0.263  0.0101 -0.2407 -0.0519
  924TIP3    H124331   3.617   2.180   0.268 -0.0540 -0.1459 -1.3624
  924TIP3    H224332   3.742   2.212   0.189  1.0624 -0.4489  0.2335
  925TIP3   OH224333   4.186   4.864   2.813  0.4516  0.9367 -0.2028
  925TIP3    H124334   4.142   4.931   2.761 -0.1363  1.0637  0.4514
  925TIP3    H224335   4.153   4.781   2.777 -1.3555  1.0299  1.1140
  926TIP3   OH224336   3.608   6.472   2.365 -0.3166  0.1474  0.2050
  926TIP3    H124337   3.583   6.547   2.311  1.0972 -1.0805 -2.3156
  926TIP3    H224338   3.530   6.417   2.366 -0.5201  0.4223 -0.1489
  927TIP3   OH224339   5.236   2.484   8.033  0.1558 -0.2979  0.3169
  927TIP3    H124340   5.251   2.578   8.028  1.1484 -0.4636  0.1473
  927TIP3    H224341   5.270   2.459   8.119  1.5157 -0.7817 -0.3397
  928TIP3   OH224342   1.387   5.745   7.776 -0.1842 -0.2973  0.1257
  928TIP3    H124343   1.471   5.767   7.736 -0.3195 -2.2986 -1.4156
  928TIP3    H224344   1.346   5.830   7.794  2.3934  0.7591  1.5767
  929TIP3   OH224345   2.398   4.039   2.853  0.1381 -0.1197  0.2149
  929TIP3    H124346   2.392   4.134   2.849 -0.4281 -0.1759 -2.3030
  929TIP3    H224347   2.421   4.019   2.944 -2.2794  2.2621  1.4761
  930TIP3   OH224348   6.323   3.032   0.538 -0.2241 -0.2462  0.8060
  930TIP3    H124349   6.318   2.937   0.531 -1.3479 -0.1694  0.4497
  930TIP3    H224350   6.358   3.048   0.625  1.5587 -1.0023  0.2853
  931TIP3   OH224351   3.797   5.038   2.905  0.0152 -0.5150  0.7682
  931TIP3    H124352   3.714   5.083   2.892 -0.4736 -1.1829  1.4735
  931TIP3    H224353   3.802   4.975   2.833  0.7379  0.6794 -0.2663
  932TIP3   OH224354   3.012   1.794   3.488  0.5569  0.3991  0.0622
  932TIP3    H124355   3.089   1.843   3.516  0.7119 -0.9313  2.1815
  932TIP3    H224356   2.941   1.859   3.488  1.3569  1.2999 -0.4223
  933TIP3   OH224357   1.360   2.421   7.233 -0.3989  0.4906  0.2468
  933TIP3    H124358   1.319   2.334   7.235 -0.2998  0.4454  0.2775
  933TIP3    H224359   1.446   2.409   7.272  0.5618  0.1143 -1.8648
  934TIP3   OH224360   4.176   5.740   2.823  0.1112 -0.1682 -0.1105
  934TIP3    H124361   4.081   5.740   2.815  0.0384  1.3392  0.3283
  934TIP3    H224362   4.207   5.776   2.740  0.2856 -0.5123 -0.1942
  935TIP3   OH224363   1.279   4.819   0.561 -0.5304 -0.1740  0.3061
  935TIP3    H124364   1.331   4.830   0.481 -0.8245 -0.2493  0.1000
  935TIP3    H224365   1.216   4.891   0.559  0.5398  0.8129  1.3365
  936TIP3   OH224366   6.727   4.567   1.962  0.1125 -0.3638 -0.0035
  936TIP3    H124367   6.641   4.525   1.974  0.5624 -0.7909  2.2033
  936TIP3    H224368   6.790   4.500   1.988  1.0358  0.4536 -0.0814
  937TIP3   OH224369   4.922   0.835   2.654  0.2035 -0.3046 -0.0671
  937TIP3    H124370   4.918   0.741   2.672  2.2155 -0.5809 -0.7760
  937TIP3    H224371   5.008   0.862   2.687 -0.8361  1.5694  1.2613
  938TIP3   OH224372   4.914   0.862   1.724  0.0578  0.8172  0.5771
  938TIP3    H124373   4.934   0.822   1.640  0.3590  1.0176  0.5503
  938TIP3    H224374   4.888   0.952   1.702 -1.9613  0.2678  0.5070
  939TIP3   OH224375   0.517   0.720   2.905  0.1006 -0.3505 -0.9275
  939TIP3    H124376   0.496   0.807   2.873  0.9439  0.0834 -0.3196
  939TIP3    H224377   0.610   0.722   2.925 -0.0888 -1.0408  0.1646
  940TIP3   OH224378   5.791   0.886   1.047  0.0447  0.5342 -0.0467
  940TIP3    H124379   5.742   0.805   1.064  0.2696  0.0120 -1.7531
  940TIP3    H224380   5.832   0.907   1.131 -0.5903 -0.7218  0.6025
  941TIP3   OH224381   0.289   4.110   2.517 -0.0783 -0.3925 -1.1050
  941TIP3    H124382   0.314   4.119   2.609 -1.4019 -3.5441 -0.3121
  941TIP3    H224383   0.220   4.176   2.505 -0.1233 -0.1598  0.2451
  942TIP3   OH224384   0.932   6.737   1.590  0.3295 -0.2056  0.0267
  942TIP3    H124385   0.870   6.774   1.653 -0.1984 -1.0972  0.0382
  942TIP3    H224386   0.980   6.813   1.557  1.8436  0.1875  2.7370
  943TIP3   OH224387   3.408   3.995   7.627  0.4374  0.0077  0.2111
  943TIP3    H124388   3.396   4.031   7.715  1.2737 -0.3223  0.4666
  943TIP3    H224389   3.386   4.068   7.568 -1.8897 -0.2685  0.6231
  944TIP3   OH224390   0.730   6.746   0.724 -0.6773 -0.0057  0.0704
  944TIP3    H124391   0.804   6.762   0.783 -1.5549  2.3652  0.6565
  944TIP3    H224392   0.663   6.808   0.753 -2.7669 -1.7796 -0.7148
  945TIP3   OH224393   5.167   5.512   1.813  0.8961  0.4591  0.0822
  945TIP3    H124394   5.184   5.469   1.729  0.3713  2.3393 -1.0438
  945TIP3    H224395   5.138   5.600   1.789  0.1927  0.8604  2.2385
  946TIP3   OH224396   2.850   2.997   0.237 -0.0620  0.3317 -0.2827
  946TIP3    H124397   2.885   3.076   0.197  1.0018 -0.2025 -0.4734
  946TIP3    H224398   2.756   3.010   0.240  0.2379  2.8008  2.2622
  947TIP3   OH224399   4.125   2.042   1.229  0.0274  0.0813  0.0050
  947TIP3    H124400   4.206   2.017   1.184 -0.6811 -0.2088 -1.1781
  947TIP3    H224401   4.139   2.016   1.320  0.2357 -2.6208 -0.6886
  948TIP3   OH224402   3.911   5.974   0.181 -0.4373 -0.2429 -0.9499
  948TIP3    H124403   3.846   5.912   0.149  0.9985 -1.4316 -1.7016
  948TIP3    H224404   3.862   6.055   0.196 -2.2782 -1.3974 -0.3721
  949TIP3   OH224405   6.755   2.071   7.761 -0.2279 -0.2219  0.0481
  949TIP3    H124406   6.758   1.999   7.698  1.5878  0.0388 -0.2347
  949TIP3    H224407   6.845   2.103   7.764 -0.3582  0.1055  2.3973
  950TIP3   OH224408   6.002   2.809   7.624  0.3874  0.1208 -0.1216
  950TIP3    H124409   6.084   2.821   7.673 -0.4143  0.2931  1.2532
  950TIP3    H224410   5.975   2.898   7.600  0.3141  0.1137 -0.0669
  951TIP3   OH224411   3.881   5.854   0.502 -0.4694  0.3084 -0.8379
  951TIP3    H124412   3.878   5.797   0.425  0.3294 -0.3040 -0.4268
  951TIP3    H224413   3.863   5.796   0.576  0.4944  0.5414 -0.3967
  952TIP3   OH224414   0.061   2.683   1.332  0.1575 -0.0046 -0.3435
  952TIP3    H124415   0.004   2.693   1.408 -1.9299  2.3134 -2.0535
  952TIP3    H224416   0.092   2.593   1.336 -3.9048 -1.5553  0.5755
  953TIP3   OH224417   6.736   2.046   2.367 -0.5963  0.5264  0.3052
  953TIP3    H124418   6.687   2.009   2.441 -0.3999 -0.5980 -0.1001
  953TIP3    H224419   6.754   2.136   2.393 -0.9820  0.3060  1.4050
  954TIP3   OH224420   3.705   1.784   3.697  0.0630 -0.3487 -0.0863
  954TIP3    H124421   3.770   1.748   3.757 -0.0374 -0.7967 -0.2443
  954TIP3    H224422   3.733   1.875   3.683 -0.0635 -0.1621  0.8434
  955TIP3   OH224423   6.901   3.011   1.463 -0.2278 -0.0769  0.3927
  955TIP3    H124424   6.906   2.976   1.552  1.3101  1.5093  0.9891
  955TIP3    H224425   6.986   3.053   1.449 -1.8643  3.3701 -0.2240
  956TIP3   OH224426   1.657   1.878   7.936 -0.1420 -0.0454 -0.2287
  956TIP3    H124427   1.569   1.888   7.973  0.1044 -1.0121  0.6442
  956TIP3    H224428   1.694   1.802   7.981  1.1695  0.3823 -0.5466
  957TIP3   OH224429   0.922   4.751   2.015 -0.1882  0.5223 -0.2305
  957TIP3    H124430   0.892   4.683   1.954 -0.3411 -0.5523  0.9889
  957TIP3    H224431   0.992   4.709   2.064 -0.8752  0.9304  1.1519
  958TIP3   OH224432   4.521   0.060   7.996 -0.2605  0.7479  0.6215
  958TIP3    H124433   4.441   0.110   7.980 -0.5697 -0.0852 -0.5602
  958TIP3    H224434   4.581   0.088   7.927  0.0284  0.4302  0.7409
  959TIP3   OH224435   2.858   4.127   0.181  0.2310 -0.0614 -0.0136
  959TIP3    H124436   2.917   4.201   0.200  0.1266  0.0440 -0.0977
  959TIP3    H224437   2.912   4.049   0.194 -0.2950 -0.0894  2.5276
  960TIP3   OH224438   2.074   1.711   2.109  0.4520 -0.0038  0.4493
  960TIP3    H124439   1.992   1.662   2.120  0.8138 -0.4925  0.9814
  960TIP3    H224440   2.053   1.799   2.143 -0.4007  0.4478 -1.1361
  961TIP3   OH224441   2.705   4.720   0.572 -0.6623 -0.2826  0.3295
  961TIP3    H124442   2.611   4.728   0.561 -0.5164  0.4324 -0.4106
  961TIP3    H224443   2.740   4.806   0.552  0.3475 -1.0697 -1.5534
  962TIP3   OH224444   2.364   0.505   1.402  0.2685 -0.4792  0.1557
  962TIP3    H124445   2.283   0.455   1.403  0.0464 -0.1189  0.6458
  962TIP3    H224446   2.408   0.478   1.322 -0.1288 -1.0041  0.1088
  963TIP3   OH224447   3.214   6.145   7.791  0.0542 -0.3129 -0.3127
  963TIP3    H124448   3.301   6.124   7.756  0.1862 -1.8395  0.8331
  963TIP3    H224449   3.153   6.104   7.731 -0.0013  2.0354 -1.9841
  964TIP3   OH224450   3.448   0.479   0.495  0.5637 -0.5206  0.1146
  964TIP3    H124451   3.376   0.463   0.434 -0.4925  0.6892  0.9913
  964TIP3    H224452   3.406   0.517   0.572  2.1554  0.2350  0.6477
  965TIP3   OH224453   2.981   2.017   2.453 -0.4955  0.2186 -0.3917
  965TIP3    H124454   3.021   2.057   2.377  0.5501  1.5260  0.7907
  965TIP3    H224455   3.006   1.925   2.448  2.1239  0.8393 -0.0994
  966TIP3   OH224456   0.062   2.932   0.799 -0.3248  0.5225 -0.0130
  966TIP3    H124457  -0.032   2.951   0.810 -0.3267 -0.0080  0.9979
  966TIP3    H224458   0.103   2.970   0.877 -0.0121 -1.3321  0.7801
  967TIP3   OH224459   4.010   6.333   2.072 -0.1671  0.4935 -0.1812
  967TIP3    H124460   4.055   6.328   2.156 -2.1262  2.4710  1.0973
  967TIP3    H224461   3.921   6.361   2.094 -0.5089  1.9518 -2.9888
  968TIP3   OH224462   1.494   6.332   1.230  0.3535  0.2903 -0.5148
  968TIP3    H124463   1.479   6.238   1.225 -2.2280  0.6939 -2.0495
  968TIP3    H224464   1.572   6.341   1.285  0.1837 -2.6756  0.3798
  969TIP3   OH224465   3.894   2.005   3.629  0.4821 -0.1059 -0.2295
  969TIP3    H124466   3.957   2.066   3.591  0.7052  0.0804  0.4181
  969TIP3    H224467   3.944   1.924   3.643  0.1846 -0.4501 -1.0955
  970TIP3   OH224468   2.249   0.117   2.474 -0.2185  0.8821 -0.6124
  970TIP3    H124469   2.228   0.110   2.380  0.5048 -1.5553 -0.6754
  970TIP3    H224470   2.321   0.180   2.478 -1.3694  2.3209 -1.4504
  971TIP3   OH224471   0.685   0.801   1.523 -0.1078 -0.0843  0.4503
  971TIP3    H124472   0.678   0.765   1.611  1.1661  0.8663  0.9776
  971TIP3    H224473   0.764   0.762   1.487 -1.0761 -1.1163 -0.6187
  972TIP3   OH224474   0.353   2.498   1.543 -0.0889 -0.3326 -0.1789
  972TIP3    H124475   0.421   2.434   1.523 -0.7159 -0.8420 -0.7120
  972TIP3    H224476   0.271   2.454   1.522 -0.8290 -0.8409  3.1962
  973TIP3   OH224477   4.751   4.578   1.433  0.6809  0.0508 -0.0527
  973TIP3    H124478   4.678   4.582   1.495  1.3297 -0.4249  0.7707
  973TIP3    H224479   4.804   4.655   1.455  1.6278 -0.8342  0.9468
  974TIP3   OH224480   1.918   1.605   7.568 -0.3842 -0.5709  0.0940
  974TIP3    H124481   1.845   1.580   7.512 -0.3519 -2.7639  0.9288
  974TIP3    H224482   1.895   1.692   7.601 -2.3199 -0.9553 -0.1678
  975TIP3   OH224483   2.920   0.458   7.770  0.5383  0.2113 -0.1551
  975TIP3    H124484   2.830   0.489   7.759  0.2327 -0.8176 -0.7141
  975TIP3    H224485   2.955   0.453   7.681 -0.3154 -3.4947 -0.4464
  976TIP3   OH224486   3.817   0.059   2.280 -0.0670  0.1255  0.2370
  976TIP3    H124487   3.815   0.147   2.319  1.2449 -0.2284  1.1741
  976TIP3    H224488   3.816  -0.000   2.355  2.0398 -0.5835 -0.2374
  977TIP3   OH224489   6.277   5.866   3.076 -0.4813 -0.3539 -0.0316
  977TIP3    H124490   6.209   5.898   3.017  0.1722  2.0470  0.4224
  977TIP3    H224491   6.265   5.771   3.076 -0.5019 -0.5320 -4.0338
  978TIP3   OH224492   6.543   4.017   7.181  0.2377 -0.1334 -0.3567
  978TIP3    H124493   6.577   3.980   7.100  1.3601  1.1387 -0.4984
  978TIP3    H224494   6.520   4.107   7.159  1.1453  0.4305  0.8468
  979TIP3   OH224495   3.045   5.263   1.569 -0.0664 -0.0870  0.2906
  979TIP3    H124496   2.986   5.337   1.580  1.1062  0.9317 -0.0337
  979TIP3    H224497   3.050   5.222   1.655  0.0244  0.8055  0.7116
  980TIP3   OH224498   6.977   2.664   1.072 -0.0919  0.1350 -0.0918
  980TIP3    H124499   7.006   2.686   1.161  1.4248 -0.6766 -0.3551
  980TIP3    H224500   6.943   2.747   1.037 -1.6654  0.2465  1.5611
  981TIP3   OH224501   1.800   2.121   0.481  0.2233  0.3554 -0.3939
  981TIP3    H124502   1.885   2.116   0.526 -0.4440  0.6546  0.9557
  981TIP3    H224503   1.786   2.214   0.465  0.2222  0.2918 -0.7663
  982TIP3   OH224504   6.756   1.021   2.904  0.2170  0.6792 -0.2383
  982TIP3    H124505   6.662   1.019   2.920 -0.2212  1.1137 -2.3673
  982TIP3    H224506   6.796   0.982   2.982 -1.5750  2.3013  1.5672
  983TIP3   OH224507   6.720   2.039   0.959  0.0423  0.4677 -0.2029
  983TIP3    H124508   6.799   1.990   0.934 -0.8740 -0.8721 -0.6108
  983TIP3    H224509   6.690   1.995   1.039 -0.4977  0.7175 -0.2694
  984TIP3   OH224510   2.280   6.771   0.788  0.2363 -0.1215 -0.1613
  984TIP3    H124511   2.342   6.769   0.715  0.6970 -1.1408  0.2313
  984TIP3    H224512   2.270   6.863   0.809  0.7230  0.1297 -0.9846
  985TIP3   OH224513   6.267   7.022   0.070 -0.3487  0.5071 -0.2032
  985TIP3    H124514   6.203   6.970   0.022  1.7772 -0.5753 -2.0019
  985TIP3    H224515   6.257   7.111   0.035  0.2292  0.0072 -1.6907
  986TIP3   OH224516   5.330   6.202   8.244 -0.1066 -0.3691 -0.7471
  986TIP3    H124517   5.330   6.131   8.180  0.6663 -0.3683 -0.7610
  986TIP3    H224518   5.395   6.264   8.211  1.9464 -1.3755  1.0992
  987TIP3   OH224519   5.690   2.474   0.231  0.6637 -0.1696  0.4755
  987TIP3    H124520   5.741   2.399   0.201 -0.9525 -1.0521 -0.1802
  987TIP3    H224521   5.663   2.451   0.320 -1.8583 -1.5842 -0.5221
  988TIP3   OH224522   5.745   0.663   2.178 -0.5906  0.4274  0.1319
  988TIP3    H124523   5.653   0.672   2.150 -0.6070  1.9806  0.6209
  988TIP3    H224524   5.791   0.637   2.098 -1.2998  0.6079 -0.3500
  989TIP3   OH224525   1.035   4.014   1.760  0.1489 -0.1297  0.6648
  989TIP3    H124526   1.129   4.030   1.754  0.2228 -0.1323  1.6424
  989TIP3    H224527   1.010   4.051   1.845 -0.4158 -1.6189  1.1748
  990TIP3   OH224528   0.529   2.040   1.514 -0.2285  0.1453 -0.1379
  990TIP3    H124529   0.516   1.965   1.456 -0.2092  0.2048 -0.2188
  990TIP3    H224530   0.441   2.068   1.538 -0.2873  1.0031 -1.2630
  991TIP3   OH224531   1.305   1.579   3.206  0.0779  0.5287 -0.3134
  991TIP3    H124532   1.218   1.592   3.244  0.1657 -1.3874  0.6646
  991TIP3    H224533   1.324   1.486   3.221  1.4817  0.4353 -2.2577
  992TIP3   OH224534   5.135   3.452   1.694  0.0175  0.2165  0.3316
  992TIP3    H124535   5.108   3.541   1.675  1.0478  0.4555 -0.0573
  992TIP3    H224536   5.054   3.407   1.719 -0.3314  1.5685  1.7952
  993TIP3   OH224537   1.069   5.077   0.608  0.2108  0.0358  0.4204
  993TIP3    H124538   1.127   5.095   0.533 -0.1041 -0.3238  0.0842
  993TIP3    H224539   1.053   5.162   0.647  1.3738  0.0867  0.8222
  994TIP3   OH224540   4.199   1.725   3.710 -0.0252  0.2549  0.8809
  994TIP3    H124541   4.253   1.701   3.634 -0.3363 -0.5532  0.9044
  994TIP3    H224542   4.213   1.819   3.720 -0.3745  0.4854 -0.4919
  995TIP3   OH224543   4.032   5.208   1.060 -0.3365 -0.3865 -0.1309
  995TIP3    H124544   4.092   5.272   1.099 -1.7298  0.5265  0.5953
  995TIP3    H224545   3.998   5.159   1.134 -1.3705 -0.0949 -0.3954
  996TIP3   OH224546   2.640   2.791   7.321 -0.1925 -0.7731  0.3357
  996TIP3    H124547   2.621   2.884   7.333 -0.4510 -0.5920 -1.2941
  996TIP3    H224548   2.687   2.786   7.238  0.5831 -2.0251  0.8101
  997TIP3   OH224549   4.346   4.627   1.230  0.4376  0.1189  0.2515
  997TIP3    H124550   4.332   4.564   1.300 -0.2995 -0.2431 -0.2128
  997TIP3    H224551   4.389   4.701   1.273  0.9703 -0.5339  0.8685
  998TIP3   OH224552   6.013   4.849   0.153  0.1735  0.0033  0.5711
  998TIP3    H124553   5.973   4.768   0.182 -0.0757 -0.5157 -1.1071
  998TIP3    H224554   6.001   4.849   0.058  0.0059  2.0843  0.5446
  999TIP3   OH224555   0.860   3.202   2.542 -0.0871  0.3715 -0.2907
  999TIP3    H124556   0.813   3.130   2.583 -0.3793  0.3776 -0.6129
  999TIP3    H224557   0.897   3.252   2.616  0.1072 -0.0954 -0.0695
 1000TIP3   OH224558   3.677   5.615   1.546  0.3023 -0.0264  0.0195
 1000TIP3    H124559   3.587   5.583   1.549  0.6805 -1.1112  0.1801
 1000TIP3    H224560   3.728   5.540   1.517  0.9887  0.9834 -1.5165
 1001TIP3   OH224561   6.312   2.715   0.331  0.1443  0.4907  0.1020
 1001TIP3    H124562   6.403   2.731   0.308  0.6274  2.3820  2.8084
 1001TIP3    H224563   6.262   2.753   0.259  1.5039  1.2209 -0.4947
 1002TIP3   OH224564   2.924   3.587   1.607  0.7316 -0.7271 -0.0957
 1002TIP3    H124565   2.929   3.678   1.634  0.7055 -0.8265  0.2615
 1002TIP3    H224566   2.891   3.589   1.517 -0.5943 -0.4368  0.3660
 1003TIP3   OH224567   3.674   4.710   0.961 -0.0327  0.3570  0.0727
 1003TIP3    H124568   3.600   4.764   0.988 -0.3497 -0.4222  0.7917
 1003TIP3    H224569   3.639   4.657   0.889 -0.7024 -1.1891  1.4630
 1004TIP3   OH224570   4.949   3.222   6.504  0.3745  0.0113  0.0904
 1004TIP3    H124571   4.854   3.231   6.512  0.1779 -0.8933 -0.9794
 1004TIP3    H224572   4.972   3.284   6.434  0.5897  0.3007  0.4171
 1005TIP3   OH224573   6.475   5.298   2.423  0.4214 -0.2276 -0.2726
 1005TIP3    H124574   6.557   5.265   2.461  1.5767  2.8266  0.1810
 1005TIP3    H224575   6.489   5.294   2.328  1.1611  0.3528 -0.1973
 1006TIP3   OH224576   1.409   6.276   0.615 -0.4592  0.2030  0.3068
 1006TIP3    H124577   1.398   6.247   0.525 -0.1148  0.5290  0.1565
 1006TIP3    H224578   1.320   6.285   0.648 -0.5965  0.5059 -0.1389
 1007TIP3   OH224579   2.696   6.825   8.123  0.8661 -0.5534 -0.2217
 1007TIP3    H124580   2.687   6.731   8.108 -0.7246 -0.1760 -2.1150
 1007TIP3    H224581   2.685   6.864   8.036  1.3081  1.3920  0.5456
 1008TIP3   OH224582   4.123   3.212   2.341  0.0831  0.3338 -0.2392
 1008TIP3    H124583   4.124   3.215   2.437  0.0667  1.0055 -0.2564
 1008TIP3    H224584   4.069   3.136   2.320  0.6731 -0.2480  0.2868
 1009TIP3   OH224585   0.244   4.056   1.465 -0.1946 -0.0294  0.4806
 1009TIP3    H124586   0.289   4.093   1.389 -0.2965  1.0711  0.9433
 1009TIP3    H224587   0.273   3.965   1.468 -0.0821 -0.0530 -0.7927
 1010TIP3   OH224588   3.600   3.094   7.710  0.4218  0.1920 -0.3886
 1010TIP3    H124589   3.538   3.024   7.732 -0.0379  0.5062 -0.6857
 1010TIP3    H224590   3.686   3.053   7.720  0.2166  0.0297  1.0151
 1011TIP3   OH224591   5.101   1.945   1.908 -0.2217 -0.2150 -0.9404
 1011TIP3    H124592   5.031   1.880   1.911  1.5429 -2.2949  2.7782
 1011TIP3    H224593   5.098   1.987   1.994  2.8332 -0.1937 -0.7368
 1012TIP3   OH224594   5.001   3.637   8.073 -0.5142  0.6864  0.2383
 1012TIP3    H124595   5.073   3.597   8.025 -1.1304  0.0118 -0.1514
 1012TIP3    H224596   5.038   3.664   8.156 -0.3225 -1.7869  1.0327
 1013TIP3   OH224597   5.465   0.398   0.214  0.5614 -0.2379 -0.5013
 1013TIP3    H124598   5.403   0.413   0.142  0.1610 -2.1164 -0.6122
 1013TIP3    H224599   5.412   0.408   0.293  0.5267 -0.1379 -0.5368
 1014TIP3   OH224600   5.612   2.058   8.026  0.2033 -0.6049 -0.6732
 1014TIP3    H124601   5.627   2.096   8.113  0.5398 -3.3180  0.5766
 1014TIP3    H224602   5.690   2.082   7.976  0.7532 -0.2996  0.2994
 1015TIP3   OH224603   1.911   0.936   7.809  0.0842 -0.2622 -0.6762
 1015TIP3    H124604   1.968   0.861   7.794  0.6719  0.2203 -0.8867
 1015TIP3    H224605   1.847   0.905   7.873  1.3105 -0.4508  0.4997
 1016TIP3   OH224606   5.698   4.453   1.601  0.0865 -0.0750 -0.3607
 1016TIP3    H124607   5.607   4.481   1.588 -1.0219 -3.0249  0.2027
 1016TIP3    H224608   5.691   4.374   1.656  3.0661  0.0834  0.4112
 1017TIP3   OH224609   0.232   4.550   7.667 -0.5639  0.6300 -0.2141
 1017TIP3    H124610   0.207   4.465   7.702 -1.4506  0.4156 -1.2994
 1017TIP3    H224611   0.173   4.564   7.592 -0.5777  2.2750  0.0500
 1018TIP3   OH224612   5.864   4.914   1.624 -0.1827 -0.3413  0.1640
 1018TIP3    H124613   5.852   4.834   1.573  0.2845 -1.2709  1.4606
 1018TIP3    H224614   5.848   4.985   1.562  1.5446 -1.3914 -1.5921
 1019TIP3   OH224615   4.787   1.725   2.211 -0.0454  0.1570  0.1380
 1019TIP3    H124616   4.768   1.807   2.257  1.3452  0.1190  0.8265
 1019TIP3    H224617   4.791   1.659   2.281  0.1625 -0.2531 -0.2539
 1020TIP3   OH224618   2.747   0.602   7.972  0.0026 -0.6488 -0.4648
 1020TIP3    H124619   2.787   0.517   7.991  0.1630 -0.9806 -2.1608
 1020TIP3    H224620   2.698   0.589   7.890 -1.1163  0.5374 -0.0375
 1021TIP3   OH224621   6.113   5.004   8.084  0.2313  0.3666  0.1391
 1021TIP3    H124622   6.176   4.982   8.153  0.9500 -0.0301 -0.6249
 1021TIP3    H224623   6.041   4.941   8.096  0.1145  0.6243  0.8256
 1022TIP3   OH224624   1.518   2.309   7.805  0.2204 -0.4877  0.0397
 1022TIP3    H124625   1.588   2.347   7.753  0.7965 -0.6203  0.6984
 1022TIP3    H224626   1.440   2.361   7.785  0.4822 -0.4009 -0.7685
 1023TIP3   OH224627   3.010   5.463   2.162 -0.4694  0.3323  0.0556
 1023TIP3    H124628   3.068   5.388   2.147 -1.3660 -0.7518  1.6787
 1023TIP3    H224629   2.942   5.454   2.095  0.8684  1.3096 -1.5174
 1024TIP3   OH224630   2.114   0.493   0.533 -0.2769 -0.2925 -0.6543
 1024TIP3    H124631   2.185   0.461   0.477 -1.7593  0.4757 -3.1263
 1024TIP3    H224632   2.134   0.585   0.547 -0.5080 -0.2060 -0.8927
 1025TIP3   OH224633   2.551   2.269   3.168  0.1862 -0.1574  0.2074
 1025TIP3    H124634   2.523   2.186   3.206  0.6506 -0.4688 -0.1099
 1025TIP3    H224635   2.495   2.335   3.208 -0.6949 -0.7092 -0.0979
 1026TIP3   OH224636   6.631   1.530   2.847 -0.5786  0.3406  0.2505
 1026TIP3    H124637   6.703   1.560   2.904  1.1643 -1.9767 -0.5954
 1026TIP3    H224638   6.566   1.497   2.908 -1.1068  2.6461  1.0498
 1027TIP3   OH224639   6.786   2.885   2.198  0.2683  0.4304 -0.1304
 1027TIP3    H124640   6.871   2.854   2.229  0.1532 -0.5737 -0.7739
 1027TIP3    H224641   6.805   2.967   2.153  0.8047  0.5439  0.2942
 1028TIP3   OH224642   1.206   1.364   2.414 -0.1196  0.2628 -0.6785
 1028TIP3    H124643   1.179   1.334   2.328  0.0375 -0.1436 -0.5889
 1028TIP3    H224644   1.296   1.397   2.402 -0.4177  1.0413 -0.8497
 1029TIP3   OH224645   6.974   5.248   0.146  0.2414  0.2706 -0.1362
 1029TIP3    H124646   6.940   5.311   0.082  1.4756  1.1302  0.0279
 1029TIP3    H224647   6.963   5.163   0.103 -0.6713  0.6620 -0.7063
 1030TIP3   OH224648   4.617   6.116   2.269 -0.0133  0.1753  0.0603
 1030TIP3    H124649   4.523   6.110   2.251  0.2177  1.7762 -1.9385
 1030TIP3    H224650   4.653   6.035   2.234 -0.3731  0.5961 -1.3574
 1031TIP3   OH224651   0.595   2.456   7.695  0.2308  0.2560  0.4064
 1031TIP3    H124652   0.675   2.500   7.724  0.4117  1.8480 -2.0948
 1031TIP3    H224653   0.625   2.372   7.661  0.6907  0.4029  0.4398
 1032TIP3   OH224654   4.403   3.839   3.583  0.0735  0.1766 -0.1438
 1032TIP3    H124655   4.393   3.925   3.542  0.5038 -0.1168 -0.8780
 1032TIP3    H224656   4.450   3.787   3.518 -1.2856 -0.9859 -0.2397
 1033TIP3   OH224657   2.003   3.131   7.081  0.4263  0.2349 -0.4316
 1033TIP3    H124658   1.929   3.072   7.069 -0.2520  0.9570  0.0970
 1033TIP3    H224659   2.068   3.101   7.017 -0.6154  0.0667 -1.4482
 1034TIP3   OH224660   0.724   3.667   7.493  0.2699  0.4350  1.0709
 1034TIP3    H124661   0.682   3.593   7.449 -1.5401  0.2595  2.9954
 1034TIP3    H224662   0.671   3.743   7.469  1.1329  0.8752  0.4745
 1035TIP3   OH224663   0.377   4.441   1.376 -0.2168  0.3643  0.2165
 1035TIP3    H124664   0.306   4.458   1.437  1.3661 -2.3172  3.0825
 1035TIP3    H224665   0.365   4.350   1.348  2.3790 -0.4548  1.4227
 1036TIP3   OH224666   6.669   0.745   0.734 -0.4202  0.1256  0.9497
 1036TIP3    H124667   6.646   0.654   0.718  1.1692 -0.0159 -0.9748
 1036TIP3    H224668   6.610   0.795   0.678 -0.1378  0.1547  0.6751
 1037TIP3   OH224669   0.903   2.675   1.563 -0.1227 -1.1018  0.5243
 1037TIP3    H124670   0.815   2.647   1.536 -0.3210 -0.1967  0.1961
 1037TIP3    H224671   0.897   2.682   1.659 -1.1330  1.2297  0.3459
 1038TIP3   OH224672   0.898   0.523   8.082  0.2635  0.1684 -0.3860
 1038TIP3    H124673   0.907   0.617   8.100 -1.6796  0.7126 -1.9254
 1038TIP3    H224674   0.812   0.514   8.040 -0.6732 -2.6349  1.7790
 1039TIP3   OH224675   0.115   1.739   0.879 -0.2146  0.2995 -1.0276
 1039TIP3    H124676   0.038   1.746   0.935  0.7032 -2.5732  0.7963
 1039TIP3    H224677   0.159   1.824   0.886 -2.2139  1.3495 -0.6589
 1040TIP3   OH224678   6.182   2.750   2.343 -0.3556 -0.4225  0.4365
 1040TIP3    H124679   6.273   2.730   2.322  0.0907 -0.2430  2.0879
 1040TIP3    H224680   6.146   2.666   2.373 -0.8270 -0.5583 -0.4823
 1041TIP3   OH224681   6.235   3.286   1.900  0.6511 -0.4167 -0.4841
 1041TIP3    H124682   6.179   3.328   1.835  1.9541  2.0374 -0.1493
 1041TIP3    H224683   6.234   3.345   1.975  1.1249 -1.9649  0.7979
 1042TIP3   OH224684   3.068   2.783   3.619  0.2507  0.4636 -0.1619
 1042TIP3    H124685   3.162   2.776   3.602  0.4730 -0.5236  1.2515
 1042TIP3    H224686   3.054   2.729   3.697 -1.6296 -0.0522 -0.8027
 1043TIP3   OH224687   5.272   2.683   1.730 -0.2745  0.1613 -0.0722
 1043TIP3    H124688   5.334   2.622   1.692  0.3838 -0.6525  2.1384
 1043TIP3    H224689   5.199   2.628   1.760 -1.2507  0.8907 -1.0207
 1044TIP3   OH224690   1.754   3.170   1.522 -0.2604  0.1963  0.1773
 1044TIP3    H124691   1.757   3.200   1.613 -0.6185  2.2206 -0.4288
 1044TIP3    H224692   1.710   3.241   1.475  0.3346 -0.5983 -1.6576
 1045TIP3   OH224693   0.049   6.602   1.471  0.1443  0.2757 -0.1483
 1045TIP3    H124694   0.032   6.681   1.420 -0.1606  0.4012  0.1427
 1045TIP3    H224695  -0.010   6.536   1.434  0.7638  0.0442 -0.7239
 1046TIP3   OH224696   2.059   0.992   1.620 -0.7523 -0.1570 -0.1353
 1046TIP3    H124697   1.980   1.045   1.611 -0.8893 -0.3881 -0.2918
 1046TIP3    H224698   2.068   0.946   1.537  0.2138  0.7713 -0.5710
 1047TIP3   OH224699   1.887   0.414   2.772 -0.0345  0.2359 -0.1700
 1047TIP3    H124700   1.954   0.473   2.806  2.4548 -3.2012  1.3650
 1047TIP3    H224701   1.926   0.375   2.694 -0.4921 -1.2681  0.3194
 1048TIP3   OH224702   5.386   6.337   0.885  0.7895 -0.2795  0.3277
 1048TIP3    H124703   5.457   6.315   0.945 -0.3734 -0.0841  1.8543
 1048TIP3    H224704   5.327   6.262   0.889  0.2721  0.1092  0.1045
 1049TIP3   OH224705   4.154   5.922   0.375 -0.4446 -0.6010  0.0356
 1049TIP3    H124706   4.071   5.910   0.329 -1.0351  0.3655  0.8027
 1049TIP3    H224707   4.129   5.931   0.467  0.1576  2.7105  0.0176
 1050TIP3   OH224708   5.869   5.300   7.164  0.3581 -0.4365  0.7751
 1050TIP3    H124709   5.850   5.393   7.151 -2.8779 -0.8698  1.4365
 1050TIP3    H224710   5.866   5.288   7.259  2.2577 -1.0007  0.7976
 1051TIP3   OH224711   4.665   4.399   0.058  0.0710 -0.5773 -0.0546
 1051TIP3    H124712   4.728   4.359   0.119  1.1835  1.3411  0.1192
 1051TIP3    H224713   4.584   4.406   0.109  0.4289 -0.7631  0.5542
 1052TIP3   OH224714   6.965   4.959   1.728  0.0743  0.2954  0.5202
 1052TIP3    H124715   6.971   4.926   1.818 -0.2027  0.1213  0.4738
 1052TIP3    H224716   6.896   5.025   1.731  0.6481  0.9096  0.6204
 1053TIP3   OH224717   4.562   3.707   1.503 -0.1094  0.3239 -0.3617
 1053TIP3    H124718   4.581   3.618   1.475 -1.0934  0.2045 -0.6901
 1053TIP3    H224719   4.519   3.747   1.427  1.1247  1.3752 -0.5508
 1054TIP3   OH224720   5.835   7.015   2.406 -0.4370  0.1845  0.2356
 1054TIP3    H124721   5.787   6.953   2.461 -0.3755 -1.2462 -1.2327
 1054TIP3    H224722   5.793   7.099   2.421 -2.2445 -0.7004  0.3457
 1055TIP3   OH224723   1.440   1.782   2.633 -0.5819 -0.3139 -0.4710
 1055TIP3    H124724   1.375   1.713   2.615 -2.2972  1.5117 -1.7687
 1055TIP3    H224725   1.429   1.802   2.726 -2.6978  0.6338 -0.8559
 1056TIP3   OH224726   0.502   0.461   0.065  0.2350  0.5675 -0.1357
 1056TIP3    H124727   0.443   0.483   0.137  0.9492  1.5854  0.1599
 1056TIP3    H224728   0.561   0.536   0.058  0.8189  0.0436 -1.1264
 1057TIP3   OH224729   4.322   3.416   0.004 -0.5225 -0.2936 -0.3448
 1057TIP3    H124730   4.360   3.458   0.081  0.8447 -0.6551 -0.7994
 1057TIP3    H224731   4.231   3.401   0.028 -0.2121 -0.0800  1.0680
 1058TIP3   OH224732   0.585   6.475   7.742  0.1285  0.1718  0.1343
 1058TIP3    H124733   0.586   6.390   7.698  2.0732  0.8032 -1.1781
 1058TIP3    H224734   0.496   6.508   7.729  0.7907  0.7667 -4.4018
 1059TIP3   OH224735   5.015   3.382   2.431  0.0992 -0.0907 -0.3398
 1059TIP3    H124736   4.995   3.455   2.373  0.0522 -0.0178 -0.2318
 1059TIP3    H224737   4.963   3.309   2.397  1.5579 -0.5941 -1.5876
 1060TIP3   OH224738   6.680   3.935   2.086 -0.6159 -0.4398 -0.0655
 1060TIP3    H124739   6.681   3.913   2.179 -1.9273 -0.8705 -0.1258
 1060TIP3    H224740   6.626   3.866   2.046  0.0589 -0.3497 -1.1756
 1061TIP3   OH224741   4.898   2.600   7.918 -0.3148 -0.3589  0.0467
 1061TIP3    H124742   4.921   2.618   7.827  0.8010  0.8170  0.5310
 1061TIP3    H224743   4.979   2.566   7.957 -0.6201 -0.3161  0.7308
 1062TIP3   OH224744   5.580   3.021   2.585 -0.1221  0.1482 -0.3099
 1062TIP3    H124745   5.587   2.928   2.609  0.0791  0.3479  0.4051
 1062TIP3    H224746   5.669   3.047   2.565 -0.4462 -0.4071 -2.8274
 1063TIP3   OH224747   5.516   5.429   0.602 -0.0001  0.6089  0.5158
 1063TIP3    H124748   5.475   5.383   0.529 -0.7020 -2.1564  2.5110
 1063TIP3    H224749   5.609   5.434   0.578 -0.2038 -0.2477 -0.5297
 1064TIP3   OH224750   3.221   2.064   1.511  0.2467 -0.4668 -0.0477
 1064TIP3    H124751   3.183   1.997   1.568  0.3842 -1.0714 -0.6570
 1064TIP3    H224752   3.158   2.136   1.512 -0.8501 -1.3994 -0.9344
 1065TIP3   OH224753   3.477   6.329   7.178 -0.7883 -0.2217 -0.2246
 1065TIP3    H124754   3.421   6.356   7.105  0.0332  0.6895 -0.5216
 1065TIP3    H224755   3.425   6.262   7.223 -2.6806  1.4563  0.2409
 1066TIP3   OH224756   3.702   4.170   1.308  0.0369  0.1884  0.5137
 1066TIP3    H124757   3.782   4.218   1.288  0.5650 -0.9649 -0.2973
 1066TIP3    H224758   3.689   4.184   1.402  1.8224 -0.4746  0.9109
 1067TIP3   OH224759   0.379   0.488   8.105  0.3464 -0.1561 -0.1884
 1067TIP3    H124760   0.435   0.472   8.181  0.6171 -0.1716 -0.3898
 1067TIP3    H224761   0.295   0.447   8.128  0.3318  0.0978  0.2241
 1068TIP3   OH224762   4.903   6.406   2.061 -0.9084 -0.3532 -0.0998
 1068TIP3    H124763   4.827   6.394   2.003 -0.4632  1.1409 -1.0439
 1068TIP3    H224764   4.969   6.447   2.005 -0.4989  1.2819  1.4982
 1069TIP3   OH224765   2.297   3.257   1.537 -0.5686  0.5011 -0.1178
 1069TIP3    H124766   2.249   3.260   1.454 -1.3396 -0.7382  0.2446
 1069TIP3    H224767   2.283   3.343   1.576 -1.8879  0.4342 -0.3834
 1070TIP3   OH224768   5.690   0.037   7.307 -0.1970  0.1867  0.2816
 1070TIP3    H124769   5.701   0.054   7.401  0.1725 -1.1174  0.4949
 1070TIP3    H224770   5.622  -0.031   7.303  0.1600 -0.1378 -0.3617
 1071TIP3   OH224771   2.909   0.943   1.089  0.2994  0.2816 -0.0225
 1071TIP3    H124772   2.907   1.031   1.053  2.4517  1.1083  1.6774
 1071TIP3    H224773   2.899   0.954   1.183 -1.6062 -1.5121  0.0584
 1072TIP3   OH224774   2.479   3.600   3.240  0.2541 -0.1935 -0.2879
 1072TIP3    H124775   2.554   3.645   3.280 -0.0414 -0.4479  0.5644
 1072TIP3    H224776   2.431   3.670   3.196  1.7805 -0.2249 -2.1944
 1073TIP3   OH224777   4.312   5.681   0.721  0.1322 -0.0402 -0.1382
 1073TIP3    H124778   4.222   5.680   0.755  0.3908 -1.6581  0.5857
 1073TIP3    H224779   4.307   5.631   0.640  0.3469  0.0757 -0.2237
 1074TIP3   OH224780   5.438   5.186   0.019 -0.1262 -0.0549 -0.0673
 1074TIP3    H124781   5.520   5.171   0.067 -0.4338  0.4810  0.6500
 1074TIP3    H224782   5.402   5.098   0.007 -0.8518 -0.1296  2.1924
 1075TIP3   OH224783   2.583   6.394   0.190 -0.3406  0.1074 -0.3544
 1075TIP3    H124784   2.642   6.440   0.130 -1.7975  1.8534 -0.5205
 1075TIP3    H224785   2.614   6.303   0.189  0.7064  0.4299 -2.4436
 1076TIP3   OH224786   1.845   1.778   8.145  0.0254 -0.6171  0.1432
 1076TIP3    H124787   1.873   1.793   8.235 -0.8004 -0.3494  0.3678
 1076TIP3    H224788   1.858   1.684   8.131  0.3876 -0.6163  0.4571
 1077TIP3   OH224789   5.571   2.940   3.173 -0.3061  0.4486  0.2163
 1077TIP3    H124790   5.596   3.008   3.236 -1.7559  0.4178  0.8571
 1077TIP3    H224791   5.634   2.950   3.101  0.6244  1.2815  1.1060
 1078TIP3   OH224792   1.204   5.736   1.942 -0.4873  0.2487  0.0656
 1078TIP3    H124793   1.275   5.788   1.903 -0.3592  1.5946  1.9464
 1078TIP3    H224794   1.248   5.671   1.996 -0.6763  0.7970  0.8855
 1079TIP3   OH224795   6.596   1.807   1.149  0.4446  0.3027 -0.2697
 1079TIP3    H124796   6.683   1.778   1.124 -0.2209 -1.2732 -0.8839
 1079TIP3    H224797   6.568   1.743   1.215 -0.1887  0.8847  0.0352
 1080TIP3   OH224798   1.122   5.908   7.965 -0.0371  0.0327 -0.0396
 1080TIP3    H124799   1.095   5.865   7.884  0.2851 -1.5136  0.6511
 1080TIP3    H224800   1.131   5.838   8.029  0.8748  1.0736  1.0388
 1081TIP3   OH224801   4.886   5.499   0.356 -0.0981 -0.4709  0.0951
 1081TIP3    H124802   4.963   5.527   0.405 -0.3106 -1.2882  0.9174
 1081TIP3    H224803   4.874   5.568   0.290 -0.2483  1.0557  1.6387
 1082TIP3   OH224804   0.609   3.519   3.125 -0.0403  0.9829 -0.0697
 1082TIP3    H124805   0.691   3.499   3.170 -0.2439  0.4108  0.0602
 1082TIP3    H224806   0.586   3.607   3.152  0.1050  0.8309  0.5501
 1083TIP3   OH224807   6.218   4.790   1.019 -0.0511 -0.3993 -0.9963
 1083TIP3    H124808   6.281   4.806   1.090  0.4752  1.6790 -1.8660
 1083TIP3    H224809   6.256   4.718   0.969  1.2170  0.2386 -0.9921
 1084TIP3   OH224810   3.664   5.866   8.100 -0.4955  0.2291 -0.1890
 1084TIP3    H124811   3.650   5.810   8.023  1.0191  0.6053 -0.7756
 1084TIP3    H224812   3.744   5.832   8.140 -0.8227  0.5563  0.7669
 1085TIP3   OH224813   2.920   0.560   7.475 -0.1256 -0.9046 -0.0606
 1085TIP3    H124814   3.002   0.596   7.443 -0.0375  1.7648  2.6839
 1085TIP3    H224815   2.852   0.613   7.433 -0.1598  0.1806  1.2983
 1086TIP3   OH224816   3.588   2.696   0.666 -0.0033 -0.1962 -0.0839
 1086TIP3    H124817   3.568   2.612   0.624  1.2761 -0.7065  0.2681
 1086TIP3    H224818   3.504   2.741   0.672 -0.6825 -1.3785 -0.4510
 1087TIP3   OH224819   5.698   5.783   2.481  0.3114 -0.1139  0.0351
 1087TIP3    H124820   5.737   5.849   2.538 -0.5542  0.1548  0.3335
 1087TIP3    H224821   5.761   5.711   2.481  0.5422  0.0810  0.9498
 1088TIP3   OH224822   2.220   2.751   7.714 -0.1499  0.0963  0.0671
 1088TIP3    H124823   2.224   2.816   7.645 -2.2708  0.4040  0.1611
 1088TIP3    H224824   2.220   2.667   7.668  1.8290  0.1423 -0.0898
 1089TIP3   OH224825   5.013   2.909   0.529 -0.3689  0.4832 -0.1054
 1089TIP3    H124826   5.075   2.841   0.556 -1.6360 -0.5238  0.3342
 1089TIP3    H224827   5.059   2.957   0.459  1.1632  0.2193  0.6887
 1090TIP3   OH224828   5.507   1.159   7.965  0.1231  0.3739  0.0494
 1090TIP3    H124829   5.565   1.183   7.892  0.3990 -1.9726 -0.5888
 1090TIP3    H224830   5.419   1.178   7.933  0.1945 -1.1156 -1.1860
 1091TIP3   OH224831   3.311   5.818   1.261  0.1825 -0.5437  0.3776
 1091TIP3    H124832   3.256   5.767   1.320  0.1891 -1.9328 -0.7737
 1091TIP3    H224833   3.389   5.764   1.248  1.0266  0.5928  0.5687
 1092TIP3   OH224834   2.361   4.576   7.805 -0.4699  0.0268  0.4929
 1092TIP3    H124835   2.400   4.539   7.885 -1.4773 -0.8844  0.5914
 1092TIP3    H224836   2.383   4.669   7.808  1.8682 -0.4710  0.4233
 1093TIP3   OH224837   5.493   5.773   3.265 -0.2712  0.2498 -0.3127
 1093TIP3    H124838   5.407   5.743   3.295 -0.1440  0.0912 -0.1065
 1093TIP3    H224839   5.477   5.806   3.177 -0.5858  0.4187 -0.1956
 1094TIP3   OH224840   0.927   6.462   2.339  0.4834 -0.3826 -0.2419
 1094TIP3    H124841   0.976   6.397   2.288  1.0092  0.5079 -0.8986
 1094TIP3    H224842   0.945   6.545   2.295  0.8442  0.3982  1.3161
 1095TIP3   OH224843   5.820   3.742   8.194  0.5907  0.6559 -0.6171
 1095TIP3    H124844   5.814   3.651   8.163  0.6405  1.0463 -1.8003
 1095TIP3    H224845   5.769   3.742   8.275  0.5776 -0.4245 -0.6053
 1096TIP3   OH224846   6.226   6.044   0.649  0.3191  0.4624 -0.2582
 1096TIP3    H124847   6.211   6.049   0.744 -1.2117  2.0625 -0.5357
 1096TIP3    H224848   6.212   5.951   0.628  0.7519  0.0675  1.0760
 1097TIP3   OH224849   1.007   3.156   0.137 -0.3601 -0.6524  1.0402
 1097TIP3    H124850   1.077   3.217   0.118 -1.4844 -0.0450 -1.6875
 1097TIP3    H224851   1.027   3.078   0.085 -0.8858 -1.1188  1.5066
 1098TIP3   OH224852   2.873   6.557   1.538 -0.0139  0.5980  0.0410
 1098TIP3    H124853   2.801   6.508   1.579  0.8712  0.0848  1.0306
 1098TIP3    H224854   2.833   6.640   1.513 -1.3852 -0.3570 -1.0787
 1099TIP3   OH224855   4.928   6.309   0.287  0.2210 -0.2699 -0.2380
 1099TIP3    H124856   4.924   6.384   0.347  0.0026 -0.3166 -0.1907
 1099TIP3    H224857   4.850   6.319   0.232 -0.0944 -0.7447  0.1101
 1100TIP3   OH224858   4.647   2.611   7.117  0.0156 -0.3981 -0.3817
 1100TIP3    H124859   4.738   2.629   7.093 -0.0944  0.5393 -0.1191
 1100TIP3    H224860   4.651   2.528   7.164  0.8953  0.1848  0.6177
 1101TIP3   OH224861   5.113   5.369   7.716 -0.0295 -0.2998 -0.3715
 1101TIP3    H124862   5.151   5.281   7.729 -1.1433 -0.6811  0.4118
 1101TIP3    H224863   5.146   5.420   7.790 -0.9049 -0.5938  0.2334
 1102TIP3   OH224864   0.560   2.073   8.029 -0.1981 -0.1214  0.0156
 1102TIP3    H124865   0.548   1.978   8.029  0.5542 -0.2242  0.4287
 1102TIP3    H224866   0.576   2.094   7.937  2.1163 -0.7467  0.2268
 1103TIP3   OH224867   5.073   2.996   7.487 -0.5292 -0.1097 -0.0380
 1103TIP3    H124868   5.116   2.911   7.497  0.1584  0.4593  2.2105
 1103TIP3    H224869   4.984   2.974   7.456 -0.5306 -1.6858  1.0022
 1104TIP3   OH224870   0.561   0.231   1.381  0.3480  0.2219 -0.0600
 1104TIP3    H124871   0.634   0.234   1.320  2.1296 -1.8901  1.7655
 1104TIP3    H224872   0.560   0.317   1.423  3.0378 -0.2072  1.1080
 1105TIP3   OH224873   0.470   4.830   1.435 -0.1153 -0.0632 -0.0262
 1105TIP3    H124874   0.500   4.906   1.485 -1.3740  1.4126 -1.3774
 1105TIP3    H224875   0.404   4.789   1.491 -0.7089  0.9120  0.0091
 1106TIP3   OH224876   4.364   6.631   7.566 -0.3002  0.2680 -0.8800
 1106TIP3    H124877   4.406   6.548   7.543  0.2469  0.5556 -0.9279
 1106TIP3    H224878   4.272   6.617   7.545 -0.6075 -1.0476  1.0612
 1107TIP3   OH224879   3.895   2.955   8.187  0.2842  0.1807 -0.0849
 1107TIP3    H124880   3.835   3.016   8.144 -0.4576  0.4731  1.3030
 1107TIP3    H224881   3.934   3.006   8.258 -0.5388 -0.9968  1.2558
 1108TIP3   OH224882   5.193   2.759   7.554  0.4319  0.3728  0.7464
 1108TIP3    H124883   5.253   2.739   7.626  1.0376  0.4317  0.2636
 1108TIP3    H224884   5.112   2.711   7.576  0.9837 -0.5122  0.9033
 1109TIP3   OH224885   5.322   4.453   7.809  0.0484 -0.0832 -0.0326
 1109TIP3    H124886   5.389   4.411   7.756  0.2032  1.0179 -0.7365
 1109TIP3    H224887   5.278   4.381   7.853 -0.6326 -1.1264 -2.2829
 1110TIP3   OH224888   4.663   4.340   1.778 -0.5711 -0.7537  0.7646
 1110TIP3    H124889   4.743   4.390   1.762 -1.9694  0.6961 -2.7336
 1110TIP3    H224890   4.690   4.249   1.772  1.0803 -0.3646  1.5882
 1111TIP3   OH224891   1.258   6.895   0.456 -0.0400  0.1361 -0.3430
 1111TIP3    H124892   1.199   6.947   0.401 -1.0412  0.5204  1.0333
 1111TIP3    H224893   1.223   6.905   0.545  0.4015 -1.9650  0.1359
 1112TIP3   OH224894   1.985   5.346   7.728  0.6774  0.2963  0.4933
 1112TIP3    H124895   1.968   5.410   7.660  2.0057  0.4898  0.3168
 1112TIP3    H224896   2.071   5.370   7.763  0.9387 -1.0341  0.8270
 1113TIP3   OH224897   6.877   1.920   3.131  0.3515  0.7321 -0.1586
 1113TIP3    H124898   6.954   1.964   3.093 -0.4626  1.4954 -0.9683
 1113TIP3    H224899   6.868   1.839   3.080  0.5437  0.7006 -0.1434
 1114TIP3   OH224900   3.336   6.155   3.070 -0.3049 -0.1734 -0.2679
 1114TIP3    H124901   3.282   6.191   3.141 -0.2499  0.2263 -0.4302
 1114TIP3    H224902   3.273   6.127   3.004 -0.3558 -0.5327 -0.0741
 1115TIP3   OH224903   2.750   4.912   7.672 -0.1903 -0.2111 -0.1100
 1115TIP3    H124904   2.829   4.963   7.686  0.3852 -1.0491 -0.2043
 1115TIP3    H224905   2.757   4.881   7.581  0.1477 -1.5492  0.3433
 1116TIP3   OH224906   6.141   5.368   1.872 -0.7162 -0.1264  0.5800
 1116TIP3    H124907   6.081   5.349   1.800 -0.5056  0.0130  0.3667
 1116TIP3    H224908   6.152   5.284   1.917 -0.1413 -0.4137 -0.0850
 1117TIP3   OH224909   0.505   0.093   2.287 -0.1255 -0.1528  0.0728
 1117TIP3    H124910   0.500   0.115   2.380 -0.0927  1.6580 -0.3183
 1117TIP3    H224911   0.599   0.099   2.267 -0.2878  1.0597 -0.4062
 1118TIP3   OH224912   4.655   4.676   0.159 -0.1860 -0.9271  0.3133
 1118TIP3    H124913   4.740   4.671   0.202 -0.3781  0.5673  0.9168
 1118TIP3    H224914   4.646   4.592   0.113  0.9307 -1.7150  1.4766
 1119TIP3   OH224915   5.448   2.835   7.346  0.0939  0.7945  0.3544
 1119TIP3    H124916   5.404   2.769   7.399  0.6502  1.4160  1.6315
 1119TIP3    H224917   5.378   2.873   7.292 -0.9408  1.6087  2.1827
 1120TIP3   OH224918   0.534   2.117   2.161  0.1835 -0.6208 -0.1413
 1120TIP3    H124919   0.461   2.121   2.224 -0.8591 -0.8785 -1.3006
 1120TIP3    H224920   0.510   2.047   2.101  1.0851 -0.2700 -0.9396
 1121TIP3   OH224921   2.234   6.397   1.474  0.5042  0.3453 -0.2158
 1121TIP3    H124922   2.299   6.448   1.426  1.6125 -0.2966  0.5623
 1121TIP3    H224923   2.233   6.312   1.431 -0.1943  0.5111 -0.5368
 1122TIP3   OH224924   1.226   1.201   0.901 -0.7467  0.2430  0.4142
 1122TIP3    H124925   1.266   1.115   0.898 -1.5231 -0.1044 -0.4076
 1122TIP3    H224926   1.260   1.247   0.825  0.9499  1.2834  1.7245
 1123TIP3   OH224927   2.453   6.211   2.426 -0.2590 -0.3224 -0.1462
 1123TIP3    H124928   2.375   6.168   2.459 -1.3098  0.1493 -1.8811
 1123TIP3    H224929   2.509   6.140   2.396 -0.9486 -0.5952 -0.8158
 1124TIP3   OH224930   3.610   6.010   1.965 -0.0181 -0.3719 -0.9031
 1124TIP3    H124931   3.556   6.031   1.889 -1.8213 -0.5271  0.2784
 1124TIP3    H224932   3.590   6.077   2.029 -0.8356 -1.8815  0.5047
 1125TIP3   OH224933   0.549   6.064   7.870 -0.2613 -0.0834  0.7278
 1125TIP3    H124934   0.579   5.983   7.911 -0.0078 -1.0535 -1.2670
 1125TIP3    H224935   0.610   6.131   7.902  1.3118 -1.2089  0.2442
 1126TIP3   OH224936   6.597   0.785   1.894 -0.5047  0.1176  0.4867
 1126TIP3    H124937   6.552   0.701   1.882 -0.8555  0.4521 -0.7771
 1126TIP3    H224938   6.542   0.833   1.956  0.9555 -1.4280  3.1613
 1127TIP3   OH224939   2.590   5.030   1.640  0.5514 -0.1445 -0.1414
 1127TIP3    H124940   2.555   4.941   1.636  1.0465 -0.4248  1.2136
 1127TIP3    H224941   2.563   5.062   1.726  0.9425  0.7729 -0.3524
 1128TIP3   OH224942   1.191   0.032   0.244 -0.3008 -0.5340 -0.2361
 1128TIP3    H124943   1.271   0.033   0.192 -0.9521 -0.0707 -1.2530
 1128TIP3    H224944   1.140   0.106   0.212 -2.4509 -2.5143 -1.6998
 1129TIP3   OH224945   5.134   3.677   1.111 -0.9087  0.1775 -0.0387
 1129TIP3    H124946   5.153   3.769   1.093 -2.3477  0.2129 -1.7050
 1129TIP3    H224947   5.039   3.673   1.114 -0.8710 -1.3222 -0.3903
 1130TIP3   OH224948   4.934   2.324   2.306  0.5021 -0.3074 -0.1990
 1130TIP3    H124949   4.894   2.411   2.297 -1.2732 -0.8213  1.8315
 1130TIP3    H224950   4.983   2.329   2.388  0.6684 -1.1036 -0.2471
 1131TIP3   OH224951   5.897   3.221   1.916  0.3599  0.1551 -0.3906
 1131TIP3    H124952   5.905   3.143   1.862 -0.6600 -0.2828  0.0425
 1131TIP3    H224953   5.890   3.293   1.854  2.6196  0.0887 -0.7912
 1132TIP3   OH224954   4.369   6.006   2.205  0.1929  0.4227  0.3240
 1132TIP3    H124955   4.330   5.927   2.241 -1.7056  1.5101  0.7722
 1132TIP3    H224956   4.406   5.979   2.121  1.7623 -1.4327  1.5337
 1133TIP3   OH224957   2.837   2.228   1.776  0.3518 -0.3860 -0.4434
 1133TIP3    H124958   2.779   2.159   1.744 -1.7732  1.3189 -0.4579
 1133TIP3    H224959   2.852   2.206   1.868  1.7630 -2.1569 -1.0356
 1134TIP3   OH224960   5.905   1.442   0.918  0.0776  0.0460  0.0658
 1134TIP3    H124961   5.961   1.518   0.906 -0.0977 -0.0387 -1.5348
 1134TIP3    H224962   5.960   1.367   0.892 -1.0319  0.0636 -2.6926
 1135TIP3   OH224963   5.445   6.513   0.693 -0.1246  0.4597 -0.1409
 1135TIP3    H124964   5.432   6.442   0.756 -0.8870  0.1719 -0.6105
 1135TIP3    H224965   5.433   6.472   0.608  1.6960  0.6687 -0.5341
 1136TIP3   OH224966   2.741   5.040   2.504 -0.1592  0.2306 -0.6954
 1136TIP3    H124967   2.718   5.033   2.411 -0.3350  2.3504 -0.8590
 1136TIP3    H224968   2.801   5.114   2.509  2.4072 -1.7605  0.5157
 1137TIP3   OH224969   3.978   1.758   1.310 -0.1408 -0.3029 -0.3563
 1137TIP3    H124970   3.966   1.849   1.337  2.8636  0.5647 -1.5620
 1137TIP3    H224971   3.899   1.737   1.261 -0.7633  1.7777 -0.3521
 1138TIP3   OH224972   6.480   5.479   0.852 -0.0956  0.2278 -0.5202
 1138TIP3    H124973   6.575   5.489   0.839 -0.0686 -1.0569 -1.4658
 1138TIP3    H224974   6.448   5.569   0.860  1.0105  0.7505 -1.6062
 1139TIP3   OH224975   2.179   1.221   0.580  0.6218  0.0071 -0.2300
 1139TIP3    H124976   2.142   1.310   0.588  2.0557  0.4718  2.0026
 1139TIP3    H224977   2.225   1.223   0.496 -0.0155  1.1245 -0.5857
 1140TIP3   OH224978   6.606   5.294   2.719 -0.2302 -0.9493 -0.0729
 1140TIP3    H124979   6.546   5.225   2.746 -1.4603  0.1194  0.0112
 1140TIP3    H224980   6.562   5.376   2.743  1.3773 -0.1229  0.2430
 1141TIP3   OH224981   3.772   6.682   1.141 -0.8683  0.2114 -0.3479
 1141TIP3    H124982   3.751   6.589   1.148 -0.4509  0.1838  0.7628
 1141TIP3    H224983   3.694   6.727   1.172 -0.2324  0.1555  1.4729
 1142TIP3   OH224984   1.411   0.824   1.431  0.0667 -0.1991  0.0053
 1142TIP3    H124985   1.418   0.914   1.463 -0.9916 -0.5988  1.5195
 1142TIP3    H224986   1.392   0.773   1.510 -0.7879 -1.5493 -1.0349
 1143TIP3   OH224987   1.740   3.198   7.892 -0.5311 -0.4520 -0.3127
 1143TIP3    H124988   1.799   3.269   7.915 -0.5877 -0.9637  1.5907
 1143TIP3    H224989   1.787   3.149   7.824  0.0531  0.6700 -0.7310
 1144TIP3   OH224990   5.821   5.382   0.547  0.3283  0.2739 -0.1557
 1144TIP3    H124991   5.853   5.435   0.620 -0.9483  2.1698 -0.8799
 1144TIP3    H224992   5.811   5.294   0.583  1.4882  0.7493  1.4171
 1145TIP3   OH224993   5.020   0.392   2.221 -0.3735 -0.0345 -0.0753
 1145TIP3    H124994   5.055   0.436   2.143  0.1690  0.6595  0.5389
 1145TIP3    H224995   4.972   0.461   2.268  1.3773  0.2307  1.4504
 1146TIP3   OH224996   2.656   5.715   0.412 -0.0098  0.2025 -0.1186
 1146TIP3    H124997   2.659   5.631   0.365  1.8425  0.2366 -0.1707
 1146TIP3    H224998   2.714   5.772   0.361  1.8154  0.3387  1.9806
 1147TIP3   OH224999   3.248   1.556   7.428 -0.9080 -0.0768  0.3630
 1147TIP3    H125000   3.252   1.629   7.366 -0.6453  0.1870  0.6896
 1147TIP3    H225001   3.158   1.525   7.422 -1.0580  0.3587  0.3191
 1148TIP3   OH225002   0.712   6.534   7.228 -0.3468  0.3420 -0.1326
 1148TIP3    H125003   0.661   6.472   7.280  1.1895 -1.9400 -1.1887
 1148TIP3    H225004   0.684   6.620   7.259 -1.9159 -0.8626  2.0483
 1149TIP3   OH225005   3.172   5.233   2.119  0.3735  0.0042  0.4924
 1149TIP3    H125006   3.195   5.189   2.200  0.4583 -0.1237  0.3993
 1149TIP3    H225007   3.242   5.209   2.058  1.8809  2.3525  1.1497
 1150TIP3   OH225008   4.704   0.523   7.847 -0.1536 -0.4668  0.1150
 1150TIP3    H125009   4.788   0.478   7.836 -0.3601 -0.6051 -1.0451
 1150TIP3    H225010   4.660   0.475   7.917 -0.6408 -2.5413 -1.5155
 1151TIP3   OH225011   3.779   4.332   3.546  0.0879 -0.2727 -0.2066
 1151TIP3    H125012   3.761   4.279   3.468  2.7720  0.5422 -1.5128
 1151TIP3    H225013   3.766   4.272   3.619  0.0732 -1.8792 -1.4549
 1152TIP3   OH225014   5.037   0.530   1.647 -0.6759 -0.1252  0.0867
 1152TIP3    H125015   5.104   0.584   1.689  0.2635 -1.8087  0.8614
 1152TIP3    H225016   5.085   0.482   1.578 -1.0239 -1.4225  0.7128
 1153TIP3   OH225017   5.383   1.348   8.219 -0.1888 -0.1161 -0.0014
 1153TIP3    H125018   5.470   1.385   8.231  0.1863 -1.0404  0.1788
 1153TIP3    H225019   5.362   1.367   8.127  1.5650 -2.6306 -1.0386
 1154TIP3   OH225020   1.317   6.128   1.742 -0.2768 -0.3088 -0.0712
 1154TIP3    H125021   1.369   6.185   1.799 -1.1882  0.8928 -0.3946
 1154TIP3    H225022   1.295   6.184   1.667 -0.4849 -1.3623 -0.8170
 1155TIP3   OH225023   3.989   6.082   1.494 -0.4068 -0.5936  0.1753
 1155TIP3    H125024   4.083   6.091   1.507 -0.4188  0.9515 -0.5467
 1155TIP3    H225025   3.951   6.155   1.544 -1.2104 -1.1578  0.3968
 1156TIP3   OH225026   5.553   2.783   1.174  0.9480 -0.4874 -1.1472
 1156TIP3    H125027   5.609   2.820   1.105  1.7306 -1.6780 -1.1714
 1156TIP3    H225028   5.467   2.772   1.132  1.3478 -0.9514 -1.8543
 1157TIP3   OH225029   3.675   4.915   2.346 -0.2227  0.2638  0.0124
 1157TIP3    H125030   3.738   4.858   2.391 -0.7457  0.1750  0.6531
 1157TIP3    H225031   3.728   4.987   2.312  0.0814  0.8567  1.6400
 1158TIP3   OH225032   4.494   0.838   1.583 -0.2530  0.5850 -0.2372
 1158TIP3    H125033   4.546   0.867   1.508  0.1372  0.6737  0.0642
 1158TIP3    H225034   4.404   0.864   1.562 -0.5223 -1.2103 -1.6261
 1159TIP3   OH225035   0.011   5.162   0.982  0.3555 -0.4030 -0.2098
 1159TIP3    H125036   0.039   5.108   1.056  1.2012 -1.6045 -1.3599
 1159TIP3    H225037  -0.081   5.139   0.969  0.8521 -2.0419 -1.0389
 1160TIP3   OH225038   1.808   5.807   2.094  0.2104  0.4806  0.4521
 1160TIP3    H125039   1.855   5.724   2.103 -0.8721 -0.0878  1.1120
 1160TIP3    H225040   1.736   5.787   2.033 -0.3594  0.7927  1.0151
 1161TIP3   OH225041   1.534   6.676   0.820 -0.3857  0.1803  0.3885
 1161TIP3    H125042   1.568   6.594   0.784  2.1012  1.5089 -0.5453
 1161TIP3    H225043   1.483   6.714   0.749  0.6348  0.6261 -0.1215
 1162TIP3   OH225044   1.756   4.779   8.070  0.3499  0.2736  0.2364
 1162TIP3    H125045   1.806   4.781   7.988  0.5124 -2.8392  0.1371
 1162TIP3    H225046   1.777   4.862   8.113  1.4696  1.3322 -2.1667
 1163TIP3   OH225047   4.010   4.417   2.490  0.4614 -0.1692  0.0237
 1163TIP3    H125048   4.011   4.382   2.401 -1.3794 -1.4617  0.4346
 1163TIP3    H225049   3.957   4.354   2.540  0.7977  0.9136  1.8621
 1164TIP3   OH225050   3.851   3.804   3.232  0.1924 -0.3626 -0.0897
 1164TIP3    H125051   3.804   3.881   3.264  1.8296  1.1310 -1.0710
 1164TIP3    H225052   3.826   3.734   3.292 -2.3218  0.5926  0.1075
 1165TIP3   OH225053   4.222   4.742   3.611 -0.2371  0.2373 -1.0612
 1165TIP3    H125054   4.152   4.759   3.548 -1.4771  1.3123  0.5433
 1165TIP3    H225055   4.208   4.652   3.639 -0.9584  0.4329 -0.7801
 1166TIP3   OH225056   6.755   3.248   2.205  0.1336 -0.3839 -0.2654
 1166TIP3    H125057   6.778   3.178   2.144  0.6709  0.0732 -0.6045
 1166TIP3    H225058   6.771   3.211   2.291  2.4653 -0.0407 -0.4778
 1167TIP3   OH225059   4.709   5.703   1.421  0.3595  0.1692  0.0789
 1167TIP3    H125060   4.729   5.786   1.379 -0.3084 -0.5002 -1.6523
 1167TIP3    H225061   4.615   5.708   1.442 -0.4227 -1.1574 -2.6553
 1168TIP3   OH225062   4.023   4.035   2.240  0.4239  0.2439 -0.0658
 1168TIP3    H125063   4.076   4.006   2.315  1.5445 -1.5744 -1.4950
 1168TIP3    H225064   4.046   3.974   2.170 -2.0896  0.6649 -1.3355
 1169TIP3   OH225065   0.692   3.118   0.928  0.7421  0.1891  0.2113
 1169TIP3    H125066   0.778   3.157   0.944  0.8179 -0.1042  0.5219
 1169TIP3    H225067   0.701   3.027   0.956 -0.0016  0.4489  1.3467
 1170TIP3   OH225068   1.182   5.650   7.270  0.0736  0.0233 -0.3746
 1170TIP3    H125069   1.115   5.645   7.202 -0.2808 -1.0994  0.0528
 1170TIP3    H225070   1.151   5.594   7.340  0.3526  1.3050  0.8154
 1171TIP3   OH225071   2.861   5.970   0.957  0.2884  0.3241 -0.4961
 1171TIP3    H125072   2.935   5.925   0.998  0.7849  0.9339 -0.6932
 1171TIP3    H225073   2.900   6.048   0.917 -0.4212  0.5106 -0.8459
 1172TIP3   OH225074   5.914   2.780   2.658 -0.1518  0.6097  0.3160
 1172TIP3    H125075   5.824   2.750   2.646 -0.3144  1.6307 -1.3457
 1172TIP3    H225076   5.967   2.703   2.639 -0.6542 -0.0448  1.4689
 1173TIP3   OH225077   1.271   4.360   7.965  0.4954 -0.2962  0.3658
 1173TIP3    H125078   1.268   4.265   7.959  1.2744 -0.2662 -0.7277
 1173TIP3    H225079   1.350   4.385   7.919  0.0344  0.9198  0.1925
 1174TIP3   OH225080   6.446   1.386   7.678  0.6530 -0.4244 -0.7610
 1174TIP3    H125081   6.390   1.311   7.696  2.3635 -1.0456  2.9461
 1174TIP3    H225082   6.425   1.411   7.587 -1.2772 -4.1773 -1.5384
 1175TIP3   OH225083   3.910   1.409   2.082 -0.6503  0.4964 -0.3846
 1175TIP3    H125084   3.819   1.437   2.075 -0.7551 -0.2191 -2.9503
 1175TIP3    H225085   3.924   1.354   2.005  0.9070 -2.5261  1.8579
 1176TIP3   OH225086   2.912   1.313   2.697  0.2324 -0.1393 -0.3643
 1176TIP3    H125087   2.822   1.343   2.711 -0.0662 -0.4905 -1.4167
 1176TIP3    H225088   2.967   1.383   2.731 -0.4427  0.4139 -0.4006
 1177TIP3   OH225089   3.710   3.664   2.404 -0.1711  0.6281  0.4892
 1177TIP3    H125090   3.722   3.610   2.482 -0.0360  1.8963  1.3546
 1177TIP3    H225091   3.681   3.601   2.337 -0.6918 -0.4111  1.6446
 1178TIP3   OH225092   0.020   6.184   0.903  0.1502  0.1379  0.0538
 1178TIP3    H125093   0.069   6.134   0.838 -0.7713 -1.1007  0.2778
 1178TIP3    H225094   0.028   6.133   0.983 -0.9328  0.2645  0.2578
 1179TIP3   OH225095   6.722   5.434   1.826 -1.2174  0.1744 -0.2826
 1179TIP3    H125096   6.636   5.421   1.866 -0.8571  2.5946  1.4547
 1179TIP3    H225097   6.713   5.516   1.777 -0.1614 -0.0675 -0.9071
 1180TIP3   OH225098   3.922   1.282   0.006 -0.1200 -0.1866  0.1878
 1180TIP3    H125099   3.968   1.353   0.051  0.5715 -0.6491  0.2313
 1180TIP3    H225100   3.972   1.269  -0.075 -0.8388  0.0554 -0.3054
 1181TIP3   OH225101   6.473   5.309   1.894  0.2429  0.4629 -0.2627
 1181TIP3    H125102   6.472   5.215   1.872  1.3778  0.1951  0.7351
 1181TIP3    H225103   6.431   5.351   1.819  0.8052 -0.7409 -1.2964
 1182TIP3   OH225104   1.169   2.444   1.231 -0.2375  0.1039 -0.2312
 1182TIP3    H125105   1.235   2.495   1.278  1.4943 -0.0111 -2.3656
 1182TIP3    H225106   1.218   2.371   1.192 -1.5081  0.2749 -2.2919
 1183TIP3   OH225107   5.264   0.043   0.332  0.4144 -0.4133  0.3181
 1183TIP3    H125108   5.255   0.064   0.239  0.4768 -1.9369 -0.0447
 1183TIP3    H225109   5.265  -0.052   0.336 -0.2962 -0.3845  1.9578
 1184TIP3   OH225110   0.460   3.992   2.028  0.1496  0.2796 -0.4046
 1184TIP3    H125111   0.468   4.079   1.990  1.0330  0.2538 -0.3058
 1184TIP3    H225112   0.434   3.936   1.955 -1.8351  0.8480 -0.1805
 1185TIP3   OH225113   1.403   6.713   2.643  0.2148 -0.0902  0.2840
 1185TIP3    H125114   1.423   6.743   2.554  0.1282  0.4653  0.4502
 1185TIP3    H225115   1.486   6.722   2.690 -0.1395  1.2210  0.6983
 1186TIP3   OH225116   2.553   1.372   3.336 -0.5374 -0.0132  0.3673
 1186TIP3    H125117   2.467   1.406   3.363 -0.0692  0.2616  1.6055
 1186TIP3    H225118   2.592   1.442   3.284 -1.8003 -0.8724 -1.8699
 1187TIP3   OH225119   1.354   0.695   0.460 -0.0343 -0.5723 -0.3569
 1187TIP3    H125120   1.314   0.622   0.507  0.0952  0.3073  1.1993
 1187TIP3    H225121   1.427   0.656   0.412 -0.4470 -1.5852 -0.1850
 1188TIP3   OH225122   5.980   0.292   1.220 -0.6584 -0.1631  0.5426
 1188TIP3    H125123   6.074   0.294   1.198 -1.1032  0.1492 -1.5064
 1188TIP3    H225124   5.970   0.214   1.273  0.6627 -0.5847  0.2138
 1189TIP3   OH225125   0.704   6.072   2.811  0.6255 -0.0327  0.1416
 1189TIP3    H125126   0.696   6.036   2.900 -0.1840  0.7118  0.3809
 1189TIP3    H225127   0.715   6.166   2.825 -1.0570  0.3002 -0.5899
 1190TIP3   OH225128   3.206   3.694   2.261 -0.1550 -0.5951 -0.5284
 1190TIP3    H125129   3.287   3.699   2.312  0.2465  1.4426 -1.2551
 1190TIP3    H225130   3.211   3.610   2.217  1.5942 -0.5154 -0.5565
 1191TIP3   OH225131   4.469   6.049   2.502  0.3641  0.2964  0.2973
 1191TIP3    H125132   4.449   6.140   2.525 -2.0499  0.1605 -0.9959
 1191TIP3    H225133   4.500   6.054   2.411 -1.1147 -0.2465 -0.2743
 1192TIP3   OH225134   2.812   4.385   3.004  0.3126  0.4335 -0.3442
 1192TIP3    H125135   2.852   4.302   3.029  1.3305  0.9847 -0.0939
 1192TIP3    H225136   2.756   4.363   2.929 -0.5458 -0.7171  0.6055
 1193TIP3   OH225137   1.035   4.769   0.774 -0.0809  0.0262  0.0517
 1193TIP3    H125138   1.020   4.774   0.680  0.9190  0.5094 -0.0939
 1193TIP3    H225139   1.016   4.857   0.806 -0.1215 -0.0596  0.2667
 1194TIP3   OH225140   5.294   2.871   3.056  0.2072 -0.0861  0.4928
 1194TIP3    H125141   5.384   2.887   3.084  0.6323 -2.0233  0.3440
 1194TIP3    H225142   5.295   2.885   2.961  0.3608 -0.1494  0.4857
 1195TIP3   OH225143   6.569   4.522   7.771 -0.1707 -0.5823  0.0640
 1195TIP3    H125144   6.659   4.501   7.798 -0.1686  1.2937  1.7864
 1195TIP3    H225145   6.580   4.577   7.693  0.4468  2.0336  1.8533
 1196TIP3   OH225146   0.684   4.819   0.919  0.4459 -0.3973 -0.3473
 1196TIP3    H125147   0.754   4.874   0.883  1.6153 -0.6166  1.4713
 1196TIP3    H225148   0.716   4.729   0.909 -0.2547 -0.6001 -0.8391
 1197TIP3   OH225149   1.036   6.295   0.006  0.6320  1.1903 -0.7694
 1197TIP3    H125150   1.117   6.249  -0.016 -0.2832 -1.1492  0.5048
 1197TIP3    H225151   1.062   6.358   0.073  1.4570  0.7740 -0.6875
 1198TIP3   OH225152   5.957   4.687   2.465 -0.0805 -0.6215  0.0762
 1198TIP3    H125153   5.945   4.623   2.395 -0.0381 -0.2362 -0.2871
 1198TIP3    H225154   5.895   4.757   2.446 -1.0882 -1.1658  1.2196
 1199TIP3   OH225155   6.744   1.558   7.259  0.7083  0.3815  0.0326
 1199TIP3    H125156   6.825   1.550   7.209  0.0891 -1.0051 -0.7891
 1199TIP3    H225157   6.712   1.469   7.269 -0.0869  0.7876  1.4359
 1200TIP3   OH225158   3.346   2.824   8.095 -0.3432  0.0354  0.5831
 1200TIP3    H125159   3.357   2.908   8.051 -1.9814 -0.5942 -1.1179
 1200TIP3    H225160   3.434   2.801   8.124  0.5072  1.3127 -0.8460
 1201TIP3   OH225161   1.031   0.066   1.362  0.6002 -0.2360  0.0097
 1201TIP3    H125162   1.031   0.114   1.279  1.4054 -2.4335 -1.3773
 1201TIP3    H225163   0.942   0.034   1.372  0.6680 -0.5640 -0.4051
 1202TIP3   OH225164   4.773   0.799   7.884  0.0507  0.0526  0.5888
 1202TIP3    H125165   4.744   0.710   7.863  0.3266  0.0539  0.1879
 1202TIP3    H225166   4.759   0.848   7.803  0.7644  0.1540  0.5201
 1203TIP3   OH225167   3.275   2.556   1.682 -0.0505 -0.0571 -0.0177
 1203TIP3    H125168   3.184   2.569   1.657 -0.0560  1.0556  0.5051
 1203TIP3    H225169   3.323   2.624   1.634  0.2742  0.4167  0.9457
 1204TIP3   OH225170   0.420   6.463   0.490  0.2433 -0.0058  0.1314
 1204TIP3    H125171   0.448   6.552   0.470 -0.0781  0.2408  0.7356
 1204TIP3    H225172   0.473   6.407   0.433  0.6675  0.5541 -0.0287
 1205TIP3   OH225173   5.987   4.264   0.826 -0.2292  0.5440 -0.0631
 1205TIP3    H125174   5.989   4.271   0.731 -1.1465  0.3450 -0.1102
 1205TIP3    H225175   6.070   4.302   0.855  0.3808 -0.0496 -0.9710
 1206TIP3   OH225176   4.301   4.257   0.794  0.3205 -0.2950  0.2117
 1206TIP3    H125177   4.231   4.193   0.780 -0.3550  0.1395  1.4600
 1206TIP3    H225178   4.329   4.242   0.884  1.3213  0.0558 -0.0305
 1207TIP3   OH225179   0.675   3.016   7.620  0.8488  0.0780  0.3365
 1207TIP3    H125180   0.679   3.110   7.633  2.2650  0.1405 -0.3850
 1207TIP3    H225181   0.712   2.978   7.699  1.8744  0.1944 -0.0774
 1208TIP3   OH225182   1.603   1.042   1.795  0.1618 -0.5031 -0.1065
 1208TIP3    H125183   1.625   0.950   1.787 -0.9617 -0.6902 -1.2198
 1208TIP3    H225184   1.630   1.065   1.884  3.7291 -0.9684 -0.8964
 1209TIP3   OH225185   4.613   2.565   0.346 -0.2103 -0.2696 -0.2950
 1209TIP3    H125186   4.618   2.583   0.440  0.9390 -0.0684 -0.3757
 1209TIP3    H225187   4.699   2.528   0.325 -0.2660  0.1981 -1.3711
 1210TIP3   OH225188   3.292   1.536   1.996  0.4269 -0.1157 -0.1039
 1210TIP3    H125189   3.295   1.442   1.975  2.9313  0.6122 -4.1640
 1210TIP3    H225190   3.200   1.559   1.992 -0.2803 -2.3656  1.2786
 1211TIP3   OH225191   2.173   0.514   1.054 -0.5533 -0.2534  0.0297
 1211TIP3    H125192   2.176   0.427   1.013  0.1547  1.0503 -2.8656
 1211TIP3    H225193   2.259   0.525   1.094 -0.1224 -0.3152 -0.8716
 1212TIP3   OH225194   3.571   1.230   1.781  0.1611  0.0358 -0.5046
 1212TIP3    H125195   3.580   1.135   1.789 -0.7606 -0.2063 -1.9395
 1212TIP3    H225196   3.531   1.258   1.863  1.9206 -0.5699  0.6099
 1213TIP3   OH225197   6.022   5.015   0.808  0.2403 -0.0018 -0.3864
 1213TIP3    H125198   6.001   5.070   0.883 -0.9337 -0.9762  0.0333
 1213TIP3    H225199   6.118   5.011   0.806  0.2883 -0.1373  1.1967
 1214TIP3   OH225200   4.059   2.148   2.232 -0.2121 -0.2154 -0.0695
 1214TIP3    H125201   3.985   2.201   2.204  0.7412  0.7657 -0.8379
 1214TIP3    H225202   4.084   2.184   2.317  0.0024  0.1340 -0.2758
 1215TIP3   OH225203   2.829   1.362   2.052 -0.3008  0.4279  0.1162
 1215TIP3    H125204   2.877   1.439   2.020 -1.9283  0.5933 -2.1256
 1215TIP3    H225205   2.740   1.374   2.019 -0.4084 -2.8522 -1.1067
 1216TIP3   OH225206   4.904   1.841   0.297 -0.4140 -0.4347 -0.1508
 1216TIP3    H125207   4.930   1.788   0.221 -0.6305 -1.1311  0.2448
 1216TIP3    H225208   4.987   1.867   0.338 -0.2891 -1.6677  0.4467
 1217TIP3   OH225209   4.380   2.417   1.055  0.0400 -0.1261 -0.2782
 1217TIP3    H125210   4.290   2.386   1.071 -0.6742  1.4361 -1.0638
 1217TIP3    H225211   4.380   2.444   0.964  0.6127  2.0967  0.3208
 1218TIP3   OH225212   2.770   2.932   0.507 -0.1016 -0.4467  0.4360
 1218TIP3    H125213   2.708   2.892   0.446 -0.3789  0.1227  0.3359
 1218TIP3    H225214   2.838   2.969   0.452 -1.0200  1.2345  0.3405
 1219TIP3   OH225215   4.076   4.865   7.669  0.0046 -0.4347 -0.7201
 1219TIP3    H125216   4.048   4.888   7.581 -1.0995  2.0502  0.1921
 1219TIP3    H225217   4.164   4.903   7.676 -0.0424 -0.3391 -0.6484
 1220TIP3   OH225218   2.839   1.966   3.196  0.2218 -0.2532 -0.0750
 1220TIP3    H125219   2.848   1.952   3.290  0.1654  2.5336  0.4309
 1220TIP3    H225220   2.823   2.060   3.187 -0.2489 -0.5117 -2.8522
 1221TIP3   OH225221   5.619   2.517   7.851  0.1266 -0.1865 -0.3139
 1221TIP3    H125222   5.551   2.583   7.835  1.3841  2.1782  3.0198
 1221TIP3    H225223   5.573   2.445   7.894 -0.4801  1.0442  1.1827
 1222TIP3   OH225224   2.025   1.989   7.373  0.1399  0.5957  0.1708
 1222TIP3    H125225   2.118   1.967   7.382 -0.0140 -0.4179 -0.4637
 1222TIP3    H225226   1.990   1.920   7.315 -0.5939  2.0603 -1.2030
 1223TIP3   OH225227   0.571   5.200   0.425  0.0069 -0.0879 -0.6169
 1223TIP3    H125228   0.617   5.212   0.508  0.7990  3.3079 -1.4182
 1223TIP3    H225229   0.640   5.178   0.362 -0.1862  0.1084 -0.9000
 1224TIP3   OH225230   1.216   1.647   8.060  0.1817 -0.0858 -0.4981
 1224TIP3    H125231   1.121   1.641   8.063  0.1097  0.4884 -1.1794
 1224TIP3    H225232   1.241   1.601   7.980  0.6992 -2.2857  0.8731
 1225TIP3   OH225233   1.913   2.873   6.959  0.6238 -0.2955  0.0756
 1225TIP3    H125234   1.903   2.781   6.937  1.7284 -0.6683  1.0376
 1225TIP3    H225235   1.846   2.890   7.025 -1.5681  0.3951 -2.1852
 1226TIP3   OH225236   2.372   6.214   1.291  0.1955  0.3258  0.1916
 1226TIP3    H125237   2.338   6.128   1.265 -1.0622  0.5125  1.1632
 1226TIP3    H225238   2.378   6.263   1.209 -0.4225 -0.2295 -0.1951
 1227TIP3   OH225239   6.537   6.691   0.114  0.5535 -0.2176 -0.3517
 1227TIP3    H125240   6.544   6.596   0.115 -0.1560 -0.2756  0.8428
 1227TIP3    H225241   6.553   6.715   0.022  1.1486 -1.4382 -0.5943
 1228TIP3   OH225242   0.034   0.090   0.097 -0.0817  0.4289  0.2349
 1228TIP3    H125243   0.006   0.034   0.025  0.7715  0.9581 -0.5315
 1228TIP3    H225244   0.092   0.034   0.149  0.3935  0.4423 -0.2670
 1229TIP3   OH225245   2.619   4.527   1.777  0.0481  0.0864  0.0596
 1229TIP3    H125246   2.700   4.478   1.791  0.9375  1.6168  0.5186
 1229TIP3    H225247   2.592   4.554   1.865  0.8149  2.2616 -0.3132
 1230TIP3   OH225248   5.219   2.733   0.628  0.5682 -0.0803  0.1116
 1230TIP3    H125249   5.179   2.647   0.616  0.5011 -0.1634  0.8892
 1230TIP3    H225250   5.273   2.724   0.707  0.5394  0.5929  0.2160
 1231TIP3   OH225251   3.683   0.901   1.674 -0.3770  0.6042 -0.2482
 1231TIP3    H125252   3.623   0.849   1.620 -0.7301  2.3361 -1.5970
 1231TIP3    H225253   3.765   0.902   1.624 -1.1183  3.3973 -1.5875
 1232TIP3   OH225254   0.286   5.414   0.088 -0.1528  0.3921  0.0346
 1232TIP3    H125255   0.362   5.355   0.095 -0.9132 -0.5747  0.3125
 1232TIP3    H225256   0.251   5.396   0.000 -1.3561 -0.8098  0.7199
 1233TIP3   OH225257   0.891   1.832   1.040 -0.5881 -0.2846  0.1130
 1233TIP3    H125258   0.811   1.809   1.087 -1.2348 -0.9628 -1.2528
 1233TIP3    H225259   0.870   1.912   0.993 -0.3473 -0.2727  0.0214
 1234TIP3   OH225260   5.954   6.882   2.064  0.1033 -0.0817 -0.5060
 1234TIP3    H125261   6.000   6.877   2.148  1.3809  2.6666 -0.9372
 1234TIP3    H225262   6.007   6.942   2.011 -2.5490  1.0787 -2.0306
 1235TIP3   OH225263   5.416   2.625   2.163 -0.1760  0.8577  0.2677
 1235TIP3    H125264   5.425   2.667   2.078 -1.4843 -0.3520 -0.5168
 1235TIP3    H225265   5.418   2.531   2.144  1.4510  0.5158  1.8140
 1236TIP3   OH225266   4.128   5.758   0.916 -0.0496 -0.0991 -0.2846
 1236TIP3    H125267   4.206   5.803   0.884 -0.6527  0.8506 -0.4702
 1236TIP3    H225268   4.123   5.782   1.008  0.2991 -0.7855 -0.0856
 1237TIP3   OH225269   2.242   2.274   2.158 -0.4271 -0.0039  0.1142
 1237TIP3    H125270   2.315   2.238   2.208 -1.8891 -1.4925  1.2482
 1237TIP3    H225271   2.271   2.267   2.067  0.3243 -1.8084  0.4503
 1238TIP3   OH225272   5.909   6.133   2.834 -0.1838 -0.4719 -0.4752
 1238TIP3    H125273   5.939   6.064   2.894  1.5316  0.3542 -0.3022
 1238TIP3    H225274   5.847   6.184   2.886 -0.2557 -0.9577 -0.0730
 1239TIP3   OH225275   0.175   3.321   2.421  0.4162  0.2184 -0.0716
 1239TIP3    H125276   0.188   3.364   2.506  1.2386  1.1934 -0.6659
 1239TIP3    H225277   0.085   3.290   2.424 -0.1543  1.7910  0.5083
 1240TIP3   OH225278   1.115   4.309   1.700 -0.2162 -0.0953  0.7075
 1240TIP3    H125279   1.170   4.369   1.650  1.7738 -1.8005  0.7051
 1240TIP3    H225280   1.167   4.288   1.777 -1.8577 -0.0548  1.8678
 1241TIP3   OH225281   6.144   3.838   1.178 -0.0225  0.5160 -0.1504
 1241TIP3    H125282   6.084   3.763   1.184 -1.2021  1.4840  0.5142
 1241TIP3    H225283   6.154   3.854   1.084 -0.4510  0.0598 -0.2778
 1242TIP3   OH225284   5.325   1.501   1.360  0.0966  0.1055  0.8509
 1242TIP3    H125285   5.387   1.433   1.389 -0.1215 -0.6839 -0.4482
 1242TIP3    H225286   5.355   1.524   1.272 -0.2788  1.1749  0.9929
 1243TIP3   OH225287   3.862   1.890   0.666 -0.5782  0.7096 -0.4960
 1243TIP3    H125288   3.829   1.938   0.591 -0.2680 -0.3421 -1.3345
 1243TIP3    H225289   3.957   1.898   0.660 -0.5463  0.4875 -0.3217
 1244TIP3   OH225290   0.344   4.089   7.830  0.4161  0.3092  0.9133
 1244TIP3    H125291   0.255   4.124   7.840  1.0345  2.1985  0.1906
 1244TIP3    H225292   0.375   4.127   7.748  1.4317 -1.4237  0.4466
 1245TIP3   OH225293   1.944   6.965   3.161 -0.7288  0.3460  0.4110
 1245TIP3    H125294   1.888   6.889   3.175 -1.1264  0.0764 -2.1433
 1245TIP3    H225295   1.887   7.029   3.117  0.2464  1.1419  0.2728
 1246TIP3   OH225296   3.285   4.217   7.197  0.0327 -0.4253  0.6993
 1246TIP3    H125297   3.212   4.177   7.150  0.7675 -1.1714  0.1659
 1246TIP3    H225298   3.266   4.201   7.290 -0.1016 -1.2960  0.5280
 1247TIP3   OH225299   1.749   3.829   0.474 -0.4599 -0.0528 -0.2764
 1247TIP3    H125300   1.710   3.825   0.387 -1.1299  1.9629 -0.1277
 1247TIP3    H225301   1.783   3.918   0.480  2.1950 -1.0288  0.4665
 1248TIP3   OH225302   5.875   1.400   2.329 -0.1987 -0.5686 -0.1924
 1248TIP3    H125303   5.791   1.442   2.348  0.4232  0.2736  0.8167
 1248TIP3    H225304   5.923   1.464   2.278  0.4697 -0.3340  0.7037
 1249TIP3   OH225305   6.647   4.008   3.534 -0.1380 -0.1507  0.0078
 1249TIP3    H125306   6.723   4.025   3.478  0.1905 -2.0754 -0.1873
 1249TIP3    H225307   6.683   4.005   3.623 -0.0265 -0.7331 -0.0527
 1250TIP3   OH225308   0.916   1.006   1.884 -0.0535  0.1004 -0.0778
 1250TIP3    H125309   0.854   1.019   1.813 -0.1525  0.4523  0.0706
 1250TIP3    H225310   0.889   1.068   1.952 -0.6243 -0.9906  0.7106
 1251TIP3   OH225311   2.603   0.669   0.048  0.3689 -0.0729  0.0540
 1251TIP3    H125312   2.508   0.676   0.051  0.3072 -0.9647  2.3441
 1251TIP3    H225313   2.634   0.760   0.048 -0.5059  0.2998  2.8136
 1252TIP3   OH225314   0.672   3.725   2.026 -0.0585  0.0393  0.3559
 1252TIP3    H125315   0.646   3.811   1.992 -0.5836  0.3313  1.4593
 1252TIP3    H225316   0.591   3.689   2.064  0.1418 -0.9692 -0.1350
 1253TIP3   OH225317   0.269   2.064   7.786 -0.0216  0.0098  0.5357
 1253TIP3    H125318   0.275   2.114   7.705  2.5408  0.0266  0.6533
 1253TIP3    H225319   0.273   2.130   7.855 -2.2355 -0.0012  0.7341
 1254TIP3   OH225320   5.622   2.711   6.916  0.0552  0.3674  0.0396
 1254TIP3    H125321   5.648   2.804   6.914  1.9662 -0.1277 -0.3509
 1254TIP3    H225322   5.570   2.702   6.995  0.3277  1.6697  0.3897
 1255TIP3   OH225323   2.362   5.562   2.331 -0.0989  0.3337  0.1593
 1255TIP3    H125324   2.316   5.525   2.255 -0.8602  1.4125  0.0771
 1255TIP3    H225325   2.408   5.487   2.369 -1.3143 -0.6444 -0.2036
 1256TIP3   OH225326   0.569   5.772   0.981 -0.3747 -0.5394  0.0928
 1256TIP3    H125327   0.661   5.782   0.956 -0.3535  0.1730  0.4162
 1256TIP3    H225328   0.557   5.678   0.992  0.8233 -0.5433  1.8424
 1257TIP3   OH225329   2.704   2.150   2.297 -0.4945  0.7077 -0.0171
 1257TIP3    H125330   2.743   2.238   2.298 -0.3532  0.6520 -0.4630
 1257TIP3    H225331   2.774   2.093   2.329 -0.2180  0.6152 -0.7637
 1258TIP3   OH225332   5.821   2.463   2.674 -0.2933 -0.3176 -0.5868
 1258TIP3    H125333   5.846   2.371   2.678  1.5436  0.1546  3.0886
 1258TIP3    H225334   5.750   2.471   2.738  1.3315  1.1415  1.1719
 1259TIP3   OH225335   1.343   2.422   0.998  0.6155  0.2897 -0.1156
 1259TIP3    H125336   1.387   2.414   1.083 -1.1051 -0.4968  0.7456
 1259TIP3    H225337   1.324   2.515   0.989 -0.6708  0.1793  1.1761
 1260TIP3   OH225338   0.774   2.336   7.248 -0.0717  0.4820 -0.2044
 1260TIP3    H125339   0.681   2.347   7.265 -0.4314  0.1935 -1.7629
 1260TIP3    H225340   0.777   2.302   7.158  1.5201  0.1857 -0.0609
 1261TIP3   OH225341   3.844   1.650   0.531 -0.3739 -0.2546 -0.2707
 1261TIP3    H125342   3.785   1.666   0.458 -0.6524  2.0211  0.3822
 1261TIP3    H225343   3.861   1.736   0.569  2.4255 -0.9346  0.3108
 1262TIP3   OH225344   3.033   5.207   2.720  0.2358  0.6310  0.1018
 1262TIP3    H125345   3.115   5.238   2.759  0.4900  1.0897 -0.7736
 1262TIP3    H225346   2.978   5.285   2.713  0.7470  0.8670 -1.7981
 1263TIP3   OH225347   5.873   2.536   0.788  0.0511 -0.3939 -0.7514
 1263TIP3    H125348   5.781   2.548   0.810  0.7401  2.8659  0.9225
 1263TIP3    H225349   5.875   2.455   0.736 -3.4277 -1.6586  0.8174
 1264TIP3   OH225350   3.889   2.026   2.586 -0.2170 -0.6899  0.1740
 1264TIP3    H125351   3.918   2.112   2.556  1.0616 -1.2145 -0.1714
 1264TIP3    H225352   3.818   2.044   2.648  0.2103  0.6240  0.3036
 1265TIP3   OH225353   3.730   1.709   3.009 -0.3455 -0.2975  0.8367
 1265TIP3    H125354   3.656   1.764   3.034  1.7835  4.1711 -1.4604
 1265TIP3    H225355   3.729   1.710   2.914  2.0232 -0.9395  0.7503
 1266TIP3   OH225356   3.934   5.044   3.135 -0.1292 -0.0440 -0.0955
 1266TIP3    H125357   3.874   5.051   3.061 -0.3967  1.9030  0.2344
 1266TIP3    H225358   4.018   5.074   3.101 -0.8704  3.7630  0.9455
 1267TIP3   OH225359   6.521   5.350   7.374 -0.3891  0.3508 -0.3572
 1267TIP3    H125360   6.616   5.355   7.368 -0.4675  1.2000 -1.4161
 1267TIP3    H225361   6.490   5.399   7.297 -1.6772  0.1839  0.0269
 1268TIP3   OH225362   5.065   0.022   1.317  0.1314  0.3833  0.0030
 1268TIP3    H125363   5.018  -0.061   1.330  1.5281 -0.5932 -1.0215
 1268TIP3    H225364   5.144   0.013   1.371  0.2723  1.0823 -0.0822
 1269TIP3   OH225365   3.095   2.240   0.819  0.2796 -0.0042 -0.6348
 1269TIP3    H125366   3.046   2.231   0.901 -0.8181 -3.7783 -1.5033
 1269TIP3    H225367   3.183   2.266   0.847 -0.1788 -0.6597  1.7042
 1270TIP3   OH225368   4.705   2.651   3.604  0.2927  0.3262 -0.1108
 1270TIP3    H125369   4.697   2.559   3.579 -0.7635  0.1756  0.6806
 1270TIP3    H225370   4.725   2.648   3.698  1.2273  0.9032 -0.2788
 1271TIP3   OH225371   6.225   6.370   0.604 -0.1062 -0.6689  0.3314
 1271TIP3    H125372   6.218   6.276   0.589 -0.1162 -0.4128 -1.3856
 1271TIP3    H225373   6.167   6.386   0.679 -1.7282 -1.7304 -0.6332
 1272TIP3   OH225374   1.466   2.549   7.588 -0.0180  0.6229  0.0474
 1272TIP3    H125375   1.495   2.511   7.504 -1.4887 -1.8675  0.5605
 1272TIP3    H225376   1.375   2.520   7.597 -0.3865  2.1423  1.8258
 1273TIP3   OH225377   0.070   0.437   8.116 -0.1127  0.1801 -0.2713
 1273TIP3    H125378   0.013   0.424   8.192  0.6704 -0.4258  0.2261
 1273TIP3    H225379   0.096   0.349   8.090 -0.7041  0.3462 -1.5230
 1274TIP3   OH225380   2.583   1.633   0.969  0.1552 -0.2053  0.3270
 1274TIP3    H125381   2.531   1.552   0.973  0.5232 -0.4557  0.1545
 1274TIP3    H225382   2.531   1.697   1.017 -0.6215 -0.2759 -0.4111
 1275TIP3   OH225383   2.623   4.818   3.094  0.3978 -0.4900 -0.6078
 1275TIP3    H125384   2.548   4.848   3.147  1.9180  3.2097 -0.2025
 1275TIP3    H225385   2.588   4.813   3.005 -0.4809  0.7824 -0.3662
 1276TIP3   OH225386   6.060   5.239   1.233 -0.1787  0.1004  0.2386
 1276TIP3    H125387   6.152   5.215   1.221 -0.2766  0.5253 -1.5134
 1276TIP3    H225388   6.061   5.297   1.310  0.9542 -0.2043  0.4744
 1277TIP3   OH225389   6.304   1.705   2.913 -0.0736  0.2812  0.2867
 1277TIP3    H125390   6.274   1.784   2.958 -0.2874 -0.8535  2.3093
 1277TIP3    H225391   6.365   1.664   2.975 -0.2056 -1.2761 -0.5591
 1278TIP3   OH225392   3.960   0.737   0.418  0.6452 -0.0317  0.8898
 1278TIP3    H125393   4.048   0.770   0.399  0.1966  2.1586  2.1526
 1278TIP3    H225394   3.908   0.764   0.343  0.7609 -0.0402  0.8052
 1279TIP3   OH225395   6.306   3.929   1.962  0.1690  0.1860 -0.5152
 1279TIP3    H125396   6.330   3.960   2.049 -0.2485  2.1747 -1.0772
 1279TIP3    H225397   6.375   3.867   1.939  0.4241 -0.1765  1.1043
 1280TIP3   OH225398   2.567   5.093   0.249 -0.1716 -0.0532 -0.3003
 1280TIP3    H125399   2.528   5.094   0.336  0.9187  0.9827  0.2073
 1280TIP3    H225400   2.653   5.053   0.262 -0.4348 -0.9352 -1.1261
 1281TIP3   OH225401   3.010   6.422   0.172 -0.1099  0.2910  0.1825
 1281TIP3    H125402   3.016   6.327   0.168  2.2127  0.3641  0.9137
 1281TIP3    H225403   2.961   6.440   0.252 -1.2709 -0.2536 -0.3756
 1282TIP3   OH225404   5.020   2.840   2.711 -0.0262 -0.1230 -0.2723
 1282TIP3    H125405   4.952   2.779   2.740  0.4864 -1.0336 -0.9356
 1282TIP3    H225406   5.102   2.804   2.746  0.2005  0.6276  0.0013
 1283TIP3   OH225407   6.595   0.412   1.803 -0.0842 -0.0314 -0.7269
 1283TIP3    H125408   6.516   0.389   1.754 -0.8257 -2.4712  1.4077
 1283TIP3    H225409   6.562   0.454   1.883  1.0929  3.6748 -1.9608
 1284TIP3   OH225410   0.792   5.853   0.489 -0.3606 -0.3126  0.1442
 1284TIP3    H125411   0.819   5.919   0.553 -0.0967 -0.2902  0.0123
 1284TIP3    H225412   0.709   5.886   0.454 -0.4221 -0.2425  0.3554
 1285TIP3   OH225413   4.106   4.270   2.754  0.0448 -0.1982 -0.1928
 1285TIP3    H125414   4.021   4.226   2.763 -0.0196 -0.3093 -1.2144
 1285TIP3    H225415   4.155   4.244   2.832 -1.5055  1.3830  1.4316
 1286TIP3   OH225416   4.103   4.390   7.599 -0.1903  0.2093  0.5037
 1286TIP3    H125417   4.185   4.360   7.560 -0.8979 -1.0941 -0.0318
 1286TIP3    H225418   4.058   4.309   7.625 -1.8192  0.8311 -0.2682
 1287TIP3   OH225419   2.715   1.348   0.757 -0.3654 -0.6192 -0.4011
 1287TIP3    H125420   2.640   1.291   0.736 -0.8975  0.3805 -1.3368
 1287TIP3    H225421   2.684   1.436   0.736  0.7772 -0.0892  0.0854
 1288TIP3   OH225422   4.616   4.874   3.207  0.0838 -0.3638 -1.3218
 1288TIP3    H125423   4.530   4.841   3.183 -0.0750 -0.7482 -0.2720
 1288TIP3    H225424   4.658   4.896   3.124 -1.8497  1.9886 -1.7847
 1289TIP3   OH225425   1.211   4.611   8.161 -0.2364  0.2903  0.1907
 1289TIP3    H125426   1.193   4.565   8.080 -0.5735 -0.2496  0.5633
 1289TIP3    H225427   1.305   4.629   8.160  0.1137 -1.3694  0.5264
 1290TIP3   OH225428   0.727   0.208   1.136  0.1353  0.7142 -0.2678
 1290TIP3    H125429   0.757   0.185   1.047 -0.3263  1.0519 -0.5137
 1290TIP3    H225430   0.789   0.273   1.166 -0.5984  1.7611 -0.9577
 1291TIP3   OH225431   0.674   6.449   3.218 -0.8627  0.5832 -0.2556
 1291TIP3    H125432   0.700   6.489   3.301 -1.0232  2.8008 -1.1811
 1291TIP3    H225433   0.737   6.483   3.154 -1.4611 -0.1016 -1.2396
 1292TIP3   OH225434   1.653   5.719   7.691  0.0102 -0.1485  0.0444
 1292TIP3    H125435   1.665   5.814   7.685 -1.5739  0.1484  0.9501
 1292TIP3    H225436   1.697   5.684   7.614 -0.6147  1.4465 -1.0986
 1293TIP3   OH225437   5.023   2.866   1.369 -0.4405  0.6251  0.9211
 1293TIP3    H125438   4.965   2.918   1.312 -1.8759  0.5051  2.1990
 1293TIP3    H225439   5.044   2.789   1.317  0.1776  1.5794 -0.2985
 1294TIP3   OH225440   2.385   5.316   0.675  1.0759  0.0662  0.3215
 1294TIP3    H125441   2.292   5.298   0.689  0.7948  1.6874  0.7315
 1294TIP3    H225442   2.419   5.236   0.636 -0.2297 -1.0075  1.2655
 1295TIP3   OH225443   3.733   2.284   2.922  0.0049  0.3218 -0.2513
 1295TIP3    H125444   3.797   2.288   2.993 -1.1698 -0.4697  0.8980
 1295TIP3    H225445   3.739   2.194   2.890 -1.1970 -0.0774  0.5557
 1296TIP3   OH225446   5.583   3.287   3.029  0.0096 -0.4003  0.3782
 1296TIP3    H125447   5.591   3.228   3.103  0.7692 -0.2409  0.4279
 1296TIP3    H225448   5.663   3.274   2.978 -0.9656 -1.2974 -1.0149
 1297TIP3   OH225449   3.700   1.044   0.459  0.1365  0.0675 -1.3724
 1297TIP3    H125450   3.777   1.090   0.425  1.0608 -0.9905 -0.7636
 1297TIP3    H225451   3.660   1.004   0.383 -0.6759  1.8212 -1.9175
 1298TIP3   OH225452   5.950   6.255   0.257  0.1311  0.0358 -0.5907
 1298TIP3    H125453   5.871   6.250   0.309  0.9817  1.6630  0.9612
 1298TIP3    H225454   5.965   6.165   0.227 -1.4175 -0.5829  0.3910
 1299TIP3   OH225455   4.195   5.022   2.593  0.7300  0.2636  0.3204
 1299TIP3    H125456   4.117   4.987   2.550  0.8531  0.5023 -0.0983
 1299TIP3    H225457   4.268   4.996   2.537  0.9691 -0.0608  0.7726
 1300TIP3   OH225458   5.004   5.315   1.331 -0.1105  0.3154 -0.1156
 1300TIP3    H125459   5.074   5.317   1.265 -0.0861  0.2666 -0.0916
 1300TIP3    H225460   5.051   5.302   1.414 -0.2356 -1.1468 -0.2414
 1301TIP3   OH225461   2.640   5.709   1.055 -0.3897  0.0016 -0.0132
 1301TIP3    H125462   2.546   5.727   1.064 -0.3412  0.4482 -0.3434
 1301TIP3    H225463   2.681   5.795   1.063 -0.1249  0.0204 -1.3416
 1302TIP3   OH225464   3.173   6.169   1.000  0.7437 -0.1977 -0.0340
 1302TIP3    H125465   3.207   6.172   0.910  1.3738  0.4691  0.2098
 1302TIP3    H225466   3.206   6.086   1.035  0.8406 -0.2696 -0.2929
 1303TIP3   OH225467   6.011   0.042   0.462  0.0593 -0.1938 -0.3052
 1303TIP3    H125468   5.976  -0.019   0.526  0.5711  0.9479  1.1129
 1303TIP3    H225469   6.097   0.007   0.439  1.1850  0.8921  1.9307
 1304TIP3   OH225470   6.215   3.239   0.087 -0.2827 -0.3232 -0.5729
 1304TIP3    H125471   6.241   3.234   0.179 -0.1606  0.0579 -0.5858
 1304TIP3    H225472   6.213   3.148   0.058 -0.8741 -0.4849 -0.0383
 1305TIP3   OH225473   2.089   5.485   0.099 -0.2545 -0.1782 -0.6071
 1305TIP3    H125474   2.008   5.449   0.065 -0.2550  0.7108 -1.5795
 1305TIP3    H225475   2.121   5.543   0.030  1.7528 -1.3019 -0.7096
 1306TIP3   OH225476   0.507   3.205   2.525 -0.9948  0.0953  0.2741
 1306TIP3    H125477   0.444   3.136   2.505 -0.4751 -0.7598  1.4382
 1306TIP3    H225478   0.568   3.204   2.451  1.1132 -3.2355  1.8186
 1307TIP3   OH225479   0.028   1.868   2.055 -0.0535 -0.3565  0.2444
 1307TIP3    H125480  -0.002   1.884   1.966 -0.3164 -0.4997  0.3066
 1307TIP3    H225481  -0.039   1.811   2.093  0.2150 -0.5435  0.4363
 1308TIP3   OH225482   3.444   1.597   1.469 -0.0761  0.5041  0.2460
 1308TIP3    H125483   3.508   1.528   1.483 -0.1001  0.3905 -0.2022
 1308TIP3    H225484   3.359   1.555   1.483 -0.1653  0.0999 -1.3134
 1309TIP3   OH225485   5.395   1.710   0.152 -0.7778  0.0538 -0.1427
 1309TIP3    H125486   5.315   1.715   0.100  0.0214  0.7000 -1.3441
 1309TIP3    H225487   5.426   1.800   0.156  0.8377 -0.4171 -1.2469
 1310TIP3   OH225488   4.455   2.909   7.578  0.0190  0.5159 -0.6163
 1310TIP3    H125489   4.492   2.893   7.492 -0.8791 -1.5368 -0.6732
 1310TIP3    H225490   4.361   2.895   7.567  0.1228 -2.2732  1.1504
 1311TIP3   OH225491   6.886   5.208   0.578  0.7524 -0.1358  0.2592
 1311TIP3    H125492   6.951   5.165   0.634  2.2501  1.8854  0.1859
 1311TIP3    H225493   6.933   5.282   0.539 -0.9569 -0.0136 -1.7258
 1312TIP3   OH225494   4.823   6.765   8.092 -0.1263  0.2180 -0.0756
 1312TIP3    H125495   4.876   6.751   8.014  0.3035  0.6154  0.1384
 1312TIP3    H225496   4.830   6.682   8.140  0.6000  0.3858  0.1222
 1313TIP3   OH225497   0.671   6.898   1.641 -0.3375  0.0146  0.1982
 1313TIP3    H125498   0.603   6.835   1.665 -0.5872  0.4842  0.7388
 1313TIP3    H225499   0.641   6.981   1.677  1.3458 -0.0787  2.0085
 1314TIP3   OH225500   0.949   4.569   8.066  0.1922 -0.0171 -0.0668
 1314TIP3    H125501   0.984   4.547   7.979  0.4016 -0.0603  0.0270
 1314TIP3    H225502   1.026   4.568   8.123  0.0534  0.0081  0.1196
 1315TIP3   OH225503   4.767   2.198   1.803  0.2005  0.3041 -0.1866
 1315TIP3    H125504   4.850   2.243   1.822  0.6393 -0.0109 -1.2863
 1315TIP3    H225505   4.731   2.177   1.889  0.7143  1.4344  0.3216
 1316TIP3   OH225506   0.294   4.496   1.633 -0.3830  0.1902  0.5557
 1316TIP3    H125507   0.351   4.520   1.706  1.4061  1.2149 -1.0927
 1316TIP3    H225508   0.284   4.401   1.641  1.4024  0.0042  1.0312
 1317TIP3   OH225509   0.114   2.797   0.025 -0.2401  0.0822  0.6514
 1317TIP3    H125510   0.165   2.729   0.068 -0.9929 -0.7292  0.3063
 1317TIP3    H225511   0.023   2.777   0.048 -0.5922  0.0661 -0.6696
 1318TIP3   OH225512   6.803   2.808   1.261  0.3186 -0.4347 -0.0299
 1318TIP3    H125513   6.852   2.881   1.298 -0.4624 -0.7043  1.6271
 1318TIP3    H225514   6.716   2.843   1.243  0.2363 -0.7067 -0.1774
 1319TIP3   OH225515   3.500   3.258   1.568 -0.3188  0.4258 -0.2049
 1319TIP3    H125516   3.506   3.174   1.613 -0.3648  1.4009  1.7317
 1319TIP3    H225517   3.583   3.266   1.521  0.6879  0.2816  1.4663
 1320TIP3   OH225518   3.408   3.201   2.819 -0.3852  0.2538  0.1787
 1320TIP3    H125519   3.314   3.207   2.830 -0.3473  0.2596  0.5065
 1320TIP3    H225520   3.423   3.111   2.789 -0.2182 -0.8480  3.2667
 1321TIP3   OH225521   4.203   0.694   2.589 -0.2231 -0.0353 -0.2861
 1321TIP3    H125522   4.144   0.621   2.572 -0.2992 -0.3347  1.1070
 1321TIP3    H225523   4.183   0.720   2.679  0.8517  0.7256 -0.2473
 1322TIP3   OH225524   4.454   4.512   7.645  0.6146 -0.7538  0.5086
 1322TIP3    H125525   4.493   4.541   7.563 -0.7284 -1.2499 -0.3350
 1322TIP3    H225526   4.424   4.423   7.628  0.9210 -1.1244  1.7594
 1323TIP3   OH225527   5.569   4.891   8.183  0.2978  0.0585  0.3452
 1323TIP3    H125528   5.621   4.834   8.126  1.5358  1.4024  0.0653
 1323TIP3    H225529   5.618   4.893   8.266 -0.3368 -0.1749  0.7280
 1324TIP3   OH225530   6.613   5.491   0.123  0.4531 -0.1182 -0.1470
 1324TIP3    H125531   6.659   5.575   0.132 -0.3221  0.2350  0.6626
 1324TIP3    H225532   6.638   5.442   0.201  0.4845 -0.4339 -0.3561
 1325TIP3   OH225533   5.061   1.417   2.694  0.4907 -0.1431 -0.1426
 1325TIP3    H125534   5.052   1.328   2.727  1.1073 -0.7924 -1.6388
 1325TIP3    H225535   4.972   1.443   2.671  0.1786 -0.0059  1.1473
 1326TIP3   OH225536   4.625   2.379   3.561 -0.4654  0.3144 -0.5290
 1326TIP3    H125537   4.648   2.327   3.637 -0.0570  1.0896 -0.1082
 1326TIP3    H225538   4.530   2.370   3.552 -0.4592 -0.0902 -0.1648
 1327TIP3   OH225539   5.958   5.190   0.989  0.2792 -0.5427 -0.4066
 1327TIP3    H125540   5.987   5.224   1.074  0.4565  0.7249 -0.9410
 1327TIP3    H225541   5.863   5.195   0.993  0.3090  0.3670 -0.5937
 1328TIP3   OH225542   5.311   4.185   1.112 -0.2414  0.2083  0.7514
 1328TIP3    H125543   5.216   4.198   1.122  0.0259  0.4952  3.5692
 1328TIP3    H225544   5.348   4.210   1.196  2.1128 -2.2736  0.6086
 1329TIP3   OH225545   5.865   4.674   1.948  0.0932  0.0484  0.0073
 1329TIP3    H125546   5.865   4.768   1.968  1.0858 -0.2699  1.7884
 1329TIP3    H225547   5.954   4.656   1.920 -0.6673 -0.0003 -2.6495
 1330TIP3   OH225548   0.832   0.010   7.528  0.1765  0.0756 -0.0758
 1330TIP3    H125549   0.809   0.007   7.435 -0.1936 -0.7973  0.0351
 1330TIP3    H225550   0.792   0.091   7.560  0.5253  0.5151 -0.7274
 1331TIP3   OH225551   0.677   6.245   1.585  0.1078 -0.7861  0.4746
 1331TIP3    H125552   0.584   6.262   1.570  0.0933 -0.6757  0.6900
 1331TIP3    H225553   0.679   6.161   1.629  0.1229 -0.8837  0.2897
 1332TIP3   OH225554   3.354   0.922   7.981 -0.4381  0.1383 -0.4493
 1332TIP3    H125555   3.318   0.985   7.918  0.3226 -0.6086 -1.6838
 1332TIP3    H225556   3.278   0.891   8.030 -1.1961  0.1270 -1.5820
 1333TIP3   OH225557   5.105   3.874   0.936  0.1755 -0.4638  0.3181
 1333TIP3    H125558   5.108   3.956   0.886 -2.5483 -2.3362 -3.3206
 1333TIP3    H225559   5.012   3.856   0.947  0.6918 -3.0998  0.9889
 1334TIP3   OH225560   1.286   1.530   1.502 -0.3026 -0.0743 -0.3151
 1334TIP3    H125561   1.361   1.580   1.534 -1.1186  0.7813  0.3156
 1334TIP3    H225562   1.224   1.597   1.473 -1.1269 -0.7459 -0.1245
 1335TIP3   OH225563   6.274   0.958   1.922  0.6389 -0.6264 -0.1595
 1335TIP3    H125564   6.221   0.903   1.865  1.3745 -2.1164  0.5621
 1335TIP3    H225565   6.347   0.988   1.868  0.8473 -1.2944 -0.2489
 1336TIP3   OH225566   2.628   1.126   3.259  0.2636  0.0872  0.0895
 1336TIP3    H125567   2.583   1.047   3.289  0.7557 -0.6245 -0.9937
 1336TIP3    H225568   2.576   1.198   3.296 -2.2393 -0.6686 -1.6831
 1337TIP3   OH225569   5.258   3.867   3.046  0.2707  0.5234  0.5880
 1337TIP3    H125570   5.268   3.794   3.107  1.3772  0.7407  0.6855
 1337TIP3    H225571   5.345   3.878   3.008 -0.4821  0.1231 -1.3552
 1338TIP3   OH225572   1.995   2.872   2.479  0.5069 -0.3191 -0.6512
 1338TIP3    H125573   1.994   2.809   2.406  0.5676  1.5881 -2.3769
 1338TIP3    H225574   2.085   2.905   2.480 -0.0399  1.2411 -1.1486
 1339TIP3   OH225575   6.506   0.481   0.801 -0.0133 -0.3447  0.1496
 1339TIP3    H125576   6.531   0.493   0.892 -2.0001 -0.0815  0.7268
 1339TIP3    H225577   6.492   0.387   0.792 -0.7891 -0.2722  0.4415
 1340TIP3   OH225578   4.008   4.988   0.064  0.1922 -0.2368 -0.1172
 1340TIP3    H125579   3.976   4.915   0.010 -0.9861 -1.4472  2.1097
 1340TIP3    H225580   4.017   4.951   0.152  1.3038  1.8735  0.7158
 1341TIP3   OH225581   1.654   0.441   1.338  0.1098 -0.1095  0.7679
 1341TIP3    H125582   1.682   0.517   1.388 -0.9201 -0.1590  1.4609
 1341TIP3    H225583   1.639   0.373   1.404  0.4735 -0.7427  0.2130
 1342TIP3   OH225584   3.163   5.658   1.420  0.0520 -0.1949  0.3229
 1342TIP3    H125585   3.088   5.670   1.362 -0.1237 -0.1691  0.5511
 1342TIP3    H225586   3.144   5.576   1.466  0.1705 -0.1971  0.3672
 1343TIP3   OH225587   4.714   5.110   2.093  0.1501  0.0291  0.3013
 1343TIP3    H125588   4.803   5.074   2.102 -0.6461 -1.6974  1.9329
 1343TIP3    H225589   4.663   5.038   2.056 -0.9253  0.3810  1.0511
 1344TIP3   OH225590   1.369   0.317   2.366  0.0836 -0.0024  1.3040
 1344TIP3    H125591   1.420   0.238   2.380 -1.4313 -1.5378 -1.1408
 1344TIP3    H225592   1.297   0.310   2.430 -0.9120 -1.4788  0.0937
 1345TIP3   OH225593   3.492   1.037   1.133  0.5646  0.3831  0.0447
 1345TIP3    H125594   3.448   1.076   1.057  1.7548  0.6594 -0.5322
 1345TIP3    H225595   3.510   1.110   1.191  0.1957  0.2603  0.3150
 1346TIP3   OH225596   0.781   3.482   2.139  0.2756  0.0748 -0.5461
 1346TIP3    H125597   0.708   3.536   2.108 -0.2720  0.2939  1.0047
 1346TIP3    H225598   0.858   3.518   2.095 -0.5518 -0.2940 -2.3735
 1347TIP3   OH225599   0.122   5.525   3.170  0.2174 -0.6292  0.0612
 1347TIP3    H125600   0.202   5.579   3.174  0.4393 -1.0037  1.7234
 1347TIP3    H225601   0.051   5.589   3.168  0.5300 -0.2796 -2.2252
 1348TIP3   OH225602   1.800   1.519   8.066  0.2343 -0.1373  0.1265
 1348TIP3    H125603   1.707   1.535   8.048  0.2485  0.3922  0.5024
 1348TIP3    H225604   1.812   1.426   8.048 -1.1250 -1.0327  3.1568
 1349TIP3   OH225605   3.657   0.115   1.724  0.1373  0.4731 -0.3470
 1349TIP3    H125606   3.752   0.102   1.724  0.0674 -0.1219  0.9684
 1349TIP3    H225607   3.643   0.187   1.662  1.5495  1.3059  0.2570
 1350TIP3   OH225608   5.871   0.676   1.601  0.4236 -0.7228 -0.5353
 1350TIP3    H125609   5.779   0.659   1.580  0.4904  0.2731 -1.7771
 1350TIP3    H225610   5.917   0.600   1.567  0.1025 -1.0390 -0.2723
 1351TIP3   OH225611   4.822   4.648   2.201  0.3838 -0.5508  0.5293
 1351TIP3    H125612   4.787   4.580   2.259  2.0534 -0.9165  1.1605
 1351TIP3    H225613   4.744   4.692   2.167 -0.6717 -0.1934  3.1632
 1352TIP3   OH225614   6.105   4.752   2.215  0.0914  0.1805 -0.0701
 1352TIP3    H125615   6.053   4.812   2.268 -0.3555  0.1248 -0.4380
 1352TIP3    H225616   6.134   4.685   2.276 -1.2707 -0.4487 -0.0598
 1353TIP3   OH225617   3.883   1.038   0.689 -0.6680 -0.4399  0.0599
 1353TIP3    H125618   3.856   1.081   0.770 -0.4581 -0.1734 -0.0120
 1353TIP3    H225619   3.806   1.041   0.633 -0.1377  1.4604 -0.6318
 1354TIP3   OH225620   1.129   1.884   2.867  0.4493  0.4694  0.8968
 1354TIP3    H125621   1.048   1.907   2.911  1.4676  2.9583  1.6514
 1354TIP3    H225622   1.131   1.938   2.788  1.4053  0.5393  0.9476
 1355TIP3   OH225623   3.396   6.588   0.829  0.0556 -0.7314 -0.4784
 1355TIP3    H125624   3.441   6.673   0.826 -0.9683 -0.1942 -1.5224
 1355TIP3    H225625   3.411   6.551   0.742 -0.8076 -0.9093 -0.5574
 1356TIP3   OH225626   6.120   1.668   0.150 -0.6016 -0.4125 -0.1026
 1356TIP3    H125627   6.043   1.657   0.096 -1.7076  0.3198  1.2427
 1356TIP3    H225628   6.086   1.673   0.240  0.8063  1.6273  0.4007
 1357TIP3   OH225629   1.251   6.543   0.463  0.0046 -0.0784 -0.0893
 1357TIP3    H125630   1.237   6.483   0.536 -1.2809 -0.3568 -0.5353
 1357TIP3    H225631   1.329   6.593   0.488 -0.5182 -0.0180  1.5569
 1358TIP3   OH225632   4.160   4.520   0.808 -0.1130  0.2767 -0.7823
 1358TIP3    H125633   4.210   4.567   0.874 -0.6207  0.5491 -0.5860
 1358TIP3    H225634   4.200   4.434   0.804 -1.5449 -0.5968  1.6100
 1359TIP3   OH225635   0.316   2.021   2.864  0.0446  0.1171  0.3818
 1359TIP3    H125636   0.290   2.088   2.802 -0.6524 -2.0673 -1.8379
 1359TIP3    H225637   0.242   2.014   2.925 -0.6998  0.0953 -0.5066
 1360TIP3   OH225638   3.911   4.010   0.538 -0.3758  0.7312  0.7298
 1360TIP3    H125639   3.866   4.094   0.536  0.2106  1.1338 -3.0288
 1360TIP3    H225640   3.854   3.951   0.488  0.3239 -0.5065  1.3312
 1361TIP3   OH225641   4.846   2.548   2.008 -0.0844 -0.1734  0.3036
 1361TIP3    H125642   4.873   2.546   2.099 -1.2209 -1.6396  0.6417
 1361TIP3    H225643   4.762   2.502   2.006 -0.4943  0.5427 -1.3514
 1362TIP3   OH225644   6.938   1.263   1.837  0.5268  0.2291 -0.0350
 1362TIP3    H125645   6.864   1.244   1.896 -0.7812 -0.0099 -1.6923
 1362TIP3    H225646   6.977   1.177   1.820 -0.7467 -0.0869 -1.5715
 1363TIP3   OH225647   1.791   1.404   1.896  0.5534  0.2981  0.0420
 1363TIP3    H125648   1.875   1.360   1.904  1.0779  1.3032  0.1675
 1363TIP3    H225649   1.812   1.492   1.867 -0.5791  0.0528 -1.7199
 1364TIP3   OH225650   1.738   4.688   2.607  1.2985 -0.7936  0.4097
 1364TIP3    H125651   1.695   4.720   2.686  2.2643 -1.3331  1.1600
 1364TIP3    H225652   1.668   4.642   2.559  0.4444  0.4512  0.3927
 1365TIP3   OH225653   2.807   3.694   8.148  0.0971 -0.1279  0.4086
 1365TIP3    H125654   2.839   3.628   8.087 -0.5200  1.0866 -1.3016
 1365TIP3    H225655   2.876   3.761   8.149 -1.3914  1.5503 -1.7686
 1366TIP3   OH225656   6.396   0.243   7.569 -0.1843 -0.2747  0.5743
 1366TIP3    H125657   6.389   0.160   7.522  0.0319 -0.3784  0.7252
 1366TIP3    H225658   6.322   0.244   7.629 -0.5346 -0.0866  0.1458
 1367TIP3   OH225659   0.143   6.970   1.059  0.3191  0.4716 -0.3730
 1367TIP3    H125660   0.137   6.901   0.992  0.0754 -1.0303  1.1435
 1367TIP3    H225661   0.122   7.050   1.011 -2.9340 -0.8971 -1.5668
 1368TIP3   OH225662   5.699   2.215   8.238 -0.3591 -0.1864 -0.2432
 1368TIP3    H125663   5.733   2.211   8.328  0.1531 -0.4692 -0.4474
 1368TIP3    H225664   5.699   2.308   8.217 -0.8994 -0.0762  0.2041
 1369TIP3   OH225665   1.919   5.188   7.925 -0.0105  0.0414 -0.0159
 1369TIP3    H125666   1.923   5.240   7.845 -0.2638  0.2390  0.0999
 1369TIP3    H225667   1.958   5.244   7.992 -2.9082  1.2900  0.7511
 1370TIP3   OH225668   5.315   1.088   2.689 -0.1779 -0.1041  0.3071
 1370TIP3    H125669   5.371   1.146   2.740 -0.4026  0.3529  0.0390
 1370TIP3    H225670   5.376   1.032   2.640  0.0470  0.5979 -0.2239
 1371TIP3   OH225671   3.761   5.522   0.603  0.3382  0.0356 -0.3208
 1371TIP3    H125672   3.799   5.498   0.688  0.6293  2.7293  0.3929
 1371TIP3    H225673   3.829   5.499   0.539 -0.2801 -2.9837 -0.0450
 1372TIP3   OH225674   4.843   3.560   3.008  0.0744  0.4073  0.5139
 1372TIP3    H125675   4.864   3.643   3.050 -0.4950  0.9935 -0.3507
 1372TIP3    H225676   4.918   3.542   2.951  1.1141 -0.6673  2.1239
 1373TIP3   OH225677   5.554   4.972   1.078  0.0702  0.4865 -0.1234
 1373TIP3    H125678   5.544   5.010   1.165 -0.2980  0.2912 -0.0773
 1373TIP3    H225679   5.483   4.907   1.072  1.1645 -0.7701  0.1069
 1374TIP3   OH225680   0.544   5.698   1.716 -0.3627  0.4401 -0.3346
 1374TIP3    H125681   0.563   5.605   1.719 -1.2717  0.2590  0.0349
 1374TIP3    H225682   0.449   5.704   1.709 -0.5206  1.3300  1.7398
 1375TIP3   OH225683   0.936   6.632   2.108 -0.3083 -0.1343  0.5648
 1375TIP3    H125684   0.927   6.584   2.025  0.7006  0.7842 -0.1036
 1375TIP3    H225685   1.015   6.686   2.096 -0.5088  0.4869  1.8922
 1376TIP3   OH225686   5.877   1.090   1.692  0.0534 -0.2452 -0.2842
 1376TIP3    H125687   5.900   1.149   1.764  0.1163  2.0022 -2.0387
 1376TIP3    H225688   5.782   1.079   1.700 -0.1116  0.9023 -0.4655
 1377TIP3   OH225689   3.515   5.908   0.347 -0.2577 -0.0414 -0.2766
 1377TIP3    H125690   3.544   5.817   0.357 -2.7324 -0.8849  0.0499
 1377TIP3    H225691   3.479   5.912   0.258 -0.5248  0.4796 -0.1491
 1378TIP3   OH225692   6.110   0.829   2.102 -0.0857  0.2349 -0.1253
 1378TIP3    H125693   6.161   0.780   2.167 -0.7823  0.4323  0.5876
 1378TIP3    H225694   6.176   0.881   2.055  0.2375  1.7906  1.9133
 1379TIP3   OH225695   2.705   0.383   1.702 -0.6517 -0.0501 -0.0623
 1379TIP3    H125696   2.609   0.379   1.702 -0.6480 -0.9134 -1.7373
 1379TIP3    H225697   2.732   0.316   1.764 -1.1300 -1.2176 -1.0796
 1380TIP3   OH225698   6.381   2.420   1.063  0.5829  0.0482 -0.5125
 1380TIP3    H125699   6.428   2.454   1.140 -0.1739  1.7394 -0.7439
 1380TIP3    H225700   6.449   2.394   1.002  1.2881  2.1084 -0.6894
 1381TIP3   OH225701   0.690   4.104   2.168 -0.0790 -0.1547  0.3305
 1381TIP3    H125702   0.613   4.067   2.125 -0.5882  0.2682  0.8705
 1381TIP3    H225703   0.684   4.075   2.259  0.8538 -0.8195  0.2048
 1382TIP3   OH225704   6.349   6.218   1.151 -0.2695 -0.0373  0.3421
 1382TIP3    H125705   6.391   6.282   1.093 -0.7760  0.6803  0.7511
 1382TIP3    H225706   6.256   6.227   1.134 -0.3076 -1.1809 -0.0999
 1383TIP3   OH225707   0.293   0.668   7.913 -0.0258 -0.0328  0.3343
 1383TIP3    H125708   0.321   0.602   7.977  1.7914 -0.3162 -0.6980
 1383TIP3    H225709   0.229   0.721   7.961 -0.7096 -1.8366  1.5428
 1384TIP3   OH225710   4.650   3.624   2.442 -0.2683  0.0146 -0.4059
 1384TIP3    H125711   4.692   3.559   2.386 -0.7618 -0.3693 -0.3307
 1384TIP3    H225712   4.678   3.600   2.531 -2.4211 -1.6149 -0.1133
 1385TIP3   OH225713   2.721   5.619   3.720  0.0797 -0.5621  0.9725
 1385TIP3    H125714   2.779   5.563   3.771  0.7806  0.4750  1.3535
 1385TIP3    H225715   2.696   5.566   3.645  0.3036 -1.5611  1.5872
 1386TIP3   OH225716   1.065   3.415   0.455  0.4659  0.8099  0.2327
 1386TIP3    H125717   1.071   3.510   0.443  2.4814  0.5259 -1.5108
 1386TIP3    H225718   1.128   3.395   0.523  0.4147  0.6653  0.2382
 1387TIP3   OH225719   4.149   0.066   1.108 -0.7996 -0.2250 -0.9379
 1387TIP3    H125720   4.237   0.102   1.122 -1.6771  2.1514 -1.0976
 1387TIP3    H225721   4.164  -0.014   1.057  1.1981  0.9345 -2.3346
 1388TIP3   OH225722   4.340   4.944   2.083  0.0062 -0.5679 -0.3833
 1388TIP3    H125723   4.366   5.030   2.049 -0.9636 -0.3934 -0.7236
 1388TIP3    H225724   4.247   4.955   2.104  0.1882 -1.1650  0.7662
 1389TIP3   OH225725   2.361   5.364   1.759  0.4810 -0.0229  0.3913
 1389TIP3    H125726   2.268   5.345   1.755  0.6981 -0.8465 -1.1724
 1389TIP3    H225727   2.402   5.297   1.705  1.7442  1.8478 -1.1094
 1390TIP3   OH225728   6.386   3.997   2.224 -0.0731  0.4255  0.1978
 1390TIP3    H125729   6.388   4.069   2.288  0.7688  0.8767 -0.3107
 1390TIP3    H225730   6.376   3.918   2.277 -0.3168  0.8642  0.8191
 1391TIP3   OH225731   1.593   4.730   1.302 -0.4126 -0.1554  0.3420
 1391TIP3    H125732   1.650   4.759   1.230 -0.5440 -2.0029 -0.5381
 1391TIP3    H225733   1.543   4.809   1.326  1.8764  1.3221  0.5921
 1392TIP3   OH225734   2.239   1.246   0.334 -0.0277  0.0589 -0.1437
 1392TIP3    H125735   2.241   1.155   0.304  1.6438  0.8000 -2.5079
 1392TIP3    H225736   2.221   1.298   0.256 -2.0720  1.7852  1.3301
 1393TIP3   OH225737   1.503   1.923   0.946 -0.3857 -0.2172 -0.2060
 1393TIP3    H125738   1.577   1.961   0.993  0.4057 -1.0505 -0.7647
 1393TIP3    H225739   1.446   1.998   0.927 -1.2311  0.0834  2.8745
 1394TIP3   OH225740   5.906   4.000   1.259 -0.3934  0.8418 -0.2027
 1394TIP3    H125741   5.958   4.006   1.179 -0.4258  0.3620 -0.2591
 1394TIP3    H225742   5.946   3.928   1.308 -0.0425  1.4599  0.4538
 1395TIP3   OH225743   0.647   2.051   2.509 -0.6459 -0.1590 -0.2830
 1395TIP3    H125744   0.552   2.062   2.509 -0.8311 -1.6098 -0.8542
 1395TIP3    H225745   0.662   1.966   2.550  0.5409  0.7852  1.3907
 1396TIP3   OH225746   1.823   1.641   2.436  0.1672 -0.5667  0.2223
 1396TIP3    H125747   1.740   1.687   2.450  1.4105  1.9945 -0.0824
 1396TIP3    H225748   1.813   1.599   2.351 -0.6520  0.1689 -0.0598
 1397TIP3   OH225749   3.384   2.455   8.147 -0.1970 -0.3647 -0.0113
 1397TIP3    H125750   3.463   2.428   8.100 -0.0976 -0.6524  0.3114
 1397TIP3    H225751   3.415   2.481   8.233  0.0772  3.4040 -1.0876
 1398TIP3   OH225752   7.032   7.042   2.131 -0.5331  0.0458 -0.1145
 1398TIP3    H125753   7.118   7.054   2.169  0.0440  0.1981 -1.4218
 1398TIP3    H225754   6.990   7.128   2.138 -1.3796 -0.4828  2.3107
 1399TIP3   OH225755   4.125   3.836   3.546 -0.4035 -0.0625  0.6931
 1399TIP3    H125756   4.123   3.893   3.469 -1.1516 -0.5245  0.3688
 1399TIP3    H225757   4.218   3.827   3.566 -0.2738  2.1484  1.4015
 1400TIP3   OH225758   1.107   2.811   0.636 -0.7505 -0.2921  0.1302
 1400TIP3    H125759   1.055   2.862   0.574 -0.3543 -0.8079 -0.6509
 1400TIP3    H225760   1.046   2.786   0.705 -1.3091 -0.0841 -0.2842
 1401TIP3   OH225761   5.535   1.978   1.498  0.5484  0.5359  0.6089
 1401TIP3    H125762   5.547   2.047   1.432 -1.8323  1.3499  0.9500
 1401TIP3    H225763   5.468   1.921   1.461  1.0514 -0.4748  1.2308
 1402TIP3   OH225764   3.248   0.598   2.687 -0.1146 -0.5041 -0.5309
 1402TIP3    H125765   3.322   0.614   2.628  0.0650  0.4999 -0.0541
 1402TIP3    H225766   3.286   0.601   2.775 -0.8395  0.8637 -0.2353
 1403TIP3   OH225767   5.813   0.428   1.408  0.7507  0.1737  0.4065
 1403TIP3    H125768   5.857   0.394   1.330  1.5963  2.6420 -0.3038
 1403TIP3    H225769   5.857   0.385   1.481  2.1278  0.1352 -0.3970
 1404TIP3   OH225770   3.302   0.340   1.809 -0.5081 -0.1476 -0.6512
 1404TIP3    H125771   3.281   0.423   1.852 -2.7576 -0.9339 -0.0842
 1404TIP3    H225772   3.335   0.366   1.723 -0.3121  1.3403 -0.1627
 1405TIP3   OH225773   6.714   1.279   3.164  0.0261  0.5249 -0.0777
 1405TIP3    H125774   6.772   1.207   3.189  2.0026  2.2660  0.5846
 1405TIP3    H225775   6.642   1.274   3.228  1.0614  0.1970  1.1109
 1406TIP3   OH225776   5.924   2.649   1.324  0.1770 -0.5555 -0.0696
 1406TIP3    H125777   5.934   2.686   1.236 -2.4573  1.2952  0.2952
 1406TIP3    H225778   6.007   2.668   1.367  0.4729  1.2040 -1.2803
 1407TIP3   OH225779   6.080   3.459   1.757 -0.5670  0.0457  0.7027
 1407TIP3    H125780   6.088   3.470   1.662  1.4964  1.2666  0.9602
 1407TIP3    H225781   6.044   3.542   1.788 -0.2143  0.0507  1.0990
 1408TIP3   OH225782   5.705   1.752   2.146  0.3616 -0.0017  0.1528
 1408TIP3    H125783   5.776   1.688   2.151  1.8015  1.6248  3.0886
 1408TIP3    H225784   5.637   1.718   2.203 -0.2707 -0.4377 -0.8398
 1409TIP3   OH225785   5.181   4.446   2.370  0.6462 -0.0022 -0.0045
 1409TIP3    H125786   5.237   4.508   2.324 -1.0952  0.5567 -1.5234
 1409TIP3    H225787   5.179   4.477   2.461  0.8538  1.3809 -0.4571
 1410TIP3   OH225788   5.521   4.750   1.350 -0.1937 -0.1753 -0.2244
 1410TIP3    H125789   5.585   4.734   1.281  0.0465 -0.6064  0.0977
 1410TIP3    H225790   5.486   4.837   1.330 -0.1270 -0.2972 -0.8881
 1411TIP3   OH225791   3.764   2.736   0.295 -0.6583 -0.7750 -0.2784
 1411TIP3    H125792   3.678   2.737   0.253 -0.5363 -1.6367 -0.5640
 1411TIP3    H225793   3.789   2.644   0.297 -0.0719 -0.6102  0.4912
 1412TIP3   OH225794   2.018   5.499   0.532 -0.0118 -0.1974 -0.0190
 1412TIP3    H125795   1.992   5.573   0.588 -0.6363  0.5982 -1.3160
 1412TIP3    H225796   1.945   5.487   0.472  0.9449 -0.5351 -1.1571
 1413TIP3   OH225797   3.051   6.170   2.634 -0.1753 -0.2419 -0.6593
 1413TIP3    H125798   3.016   6.258   2.641  2.1470  0.7470 -0.7637
 1413TIP3    H225799   3.058   6.140   2.725  2.0129  0.9766 -0.3687
 1414TIP3   OH225800   2.991   4.734   7.861  0.4268  0.0044 -0.3343
 1414TIP3    H125801   2.942   4.691   7.791  0.3951 -1.7168  0.6703
 1414TIP3    H225802   2.984   4.827   7.843 -3.0601 -0.1473 -0.3350
 1415TIP3   OH225803   6.473   0.546   7.018 -0.0349 -0.3009 -0.1008
 1415TIP3    H125804   6.516   0.547   6.932 -0.7485  0.0583 -0.4670
 1415TIP3    H225805   6.541   0.571   7.079  0.2047  0.6370 -0.7188
 1416TIP3   OH225806   0.728   6.468   1.814 -1.0479  0.8103 -0.0754
 1416TIP3    H125807   0.747   6.457   1.720 -0.9519 -1.2495  0.1397
 1416TIP3    H225808   0.710   6.562   1.824  2.0479  1.7095 -1.5811
 1417TIP3   OH225809   4.887   2.943   1.061 -0.2812 -0.0838  0.3866
 1417TIP3    H125810   4.964   2.925   1.006  1.7281 -0.7627  3.1655
 1417TIP3    H225811   4.836   2.862   1.057  0.0550 -0.2770 -0.1308
 1418TIP3   OH225812   3.048   4.332   0.210  0.1268  0.3159 -0.0565
 1418TIP3    H125813   3.138   4.301   0.201 -0.0337 -0.0369 -0.5040
 1418TIP3    H225814   3.053   4.426   0.193  0.3428  0.2219 -0.5218
 1419TIP3   OH225815   2.996   3.404   7.313 -0.0897 -0.0740  0.2475
 1419TIP3    H125816   2.963   3.491   7.291  0.0524 -0.1120 -0.1222
 1419TIP3    H225817   2.920   3.347   7.304 -0.1255 -0.0258  0.2451
 1420TIP3   OH225818   1.750   2.503   0.706  0.7859 -0.4869  0.0180
 1420TIP3    H125819   1.686   2.441   0.741 -0.0716  1.0820  1.3949
 1420TIP3    H225820   1.697   2.577   0.676  1.8958  0.7348  0.9437
 1421TIP3   OH225821   0.333   4.247   1.005 -0.0277 -0.3177 -0.1736
 1421TIP3    H125822   0.332   4.343   1.009 -0.4510 -0.2763 -0.9328
 1421TIP3    H225823   0.242   4.221   1.018 -0.0524 -0.5631 -0.7722
 1422TIP3   OH225824   0.123   5.683   7.527  0.5488  0.0078  0.8475
 1422TIP3    H125825   0.094   5.624   7.458 -0.3050  1.5516 -0.1846
 1422TIP3    H225826   0.050   5.744   7.539  0.1874 -0.8654  3.9525
 1423TIP3   OH225827   6.944   0.853   0.986  0.0584 -0.0845 -0.3704
 1423TIP3    H125828   6.990   0.770   0.981  0.0026 -0.2075  0.7578
 1423TIP3    H225829   6.958   0.894   0.901  0.6235 -0.9601 -0.7144
 1424TIP3   OH225830   1.448   4.657   1.859 -0.3209  0.2350 -0.2019
 1424TIP3    H125831   1.438   4.729   1.798  0.7679 -0.1130 -0.8208
 1424TIP3    H225832   1.377   4.669   1.923  1.0009  3.0208  0.9178
 1425TIP3   OH225833   4.066   0.365   8.031 -1.1229  0.5264 -0.1619
 1425TIP3    H125834   4.059   0.375   7.936 -0.4428 -0.4876 -0.3241
 1425TIP3    H225835   4.034   0.276   8.048  2.4978 -0.8793  0.0658
 1426TIP3   OH225836   5.662   2.315   0.511 -0.0625 -0.5702  0.0537
 1426TIP3    H125837   5.756   2.329   0.507 -0.2238  0.5559 -0.2530
 1426TIP3    H225838   5.636   2.343   0.598 -0.1415 -0.7203  0.0802
 1427TIP3   OH225839   4.363   0.195   0.294  0.3041 -0.0742  0.1979
 1427TIP3    H125840   4.295   0.224   0.355 -0.8852  0.8853 -1.4847
 1427TIP3    H225841   4.325   0.118   0.251 -0.0377  0.8173 -1.1767
 1428TIP3   OH225842   1.976   5.846   0.753 -0.3687 -0.1169 -0.1325
 1428TIP3    H125843   1.935   5.932   0.761 -0.6004 -0.3656  1.8080
 1428TIP3    H225844   1.915   5.794   0.701 -0.1918  0.9013 -1.3811
 1429TIP3   OH225845   5.353   4.135   6.965  0.9160  0.3635  0.4349
 1429TIP3    H125846   5.375   4.075   6.894  2.8798  1.7265 -0.1863
 1429TIP3    H225847   5.265   4.108   6.992  2.3387 -4.1007  1.5474
 1430TIP3   OH225848   0.483   1.575   0.036 -0.7828  0.3691  0.0620
 1430TIP3    H125849   0.416   1.574  -0.032  0.0115 -0.0520 -0.7348
 1430TIP3    H225850   0.435   1.592   0.117 -1.9232 -0.5657 -0.3965
 1431TIP3   OH225851   1.420   5.531   7.521  0.2847  0.1446 -0.1146
 1431TIP3    H125852   1.475   5.520   7.444  1.3634 -3.1600  0.9241
 1431TIP3    H225853   1.372   5.448   7.528 -2.1298  1.5298  1.0777
 1432TIP3   OH225854   0.768   6.501   1.276 -0.3571  0.5900 -0.8543
 1432TIP3    H125855   0.687   6.550   1.288  0.3867  2.3259 -2.5113
 1432TIP3    H225856   0.751   6.444   1.201 -0.6662 -0.5549  0.0487
 1433TIP3   OH225857   6.853   5.293   2.026  0.6240  0.1739  0.0142
 1433TIP3    H125858   6.794   5.220   2.043 -0.1804  0.5923 -0.8643
 1433TIP3    H225859   6.811   5.341   1.955  0.5506  2.1172  1.2856
 1434TIP3   OH225860   5.481   5.817   2.310  0.2100 -0.1739 -0.4612
 1434TIP3    H125861   5.561   5.801   2.361  0.2107  1.0994 -0.0112
 1434TIP3    H225862   5.451   5.730   2.284  2.3182 -0.6502 -1.5320
 1435TIP3   OH225863   2.872   0.092   0.337  0.6351 -0.0977  0.7552
 1435TIP3    H125864   2.822   0.150   0.394 -0.1185 -0.4090  0.4232
 1435TIP3    H225865   2.903   0.022   0.394 -0.0773 -0.3839  0.8025
 1436TIP3   OH225866   4.045   5.886   7.074 -0.4210  0.5199 -0.9325
 1436TIP3    H125867   4.053   5.871   6.979  1.8676 -0.4660 -0.6685
 1436TIP3    H225868   3.978   5.825   7.102  0.5636 -0.9401 -1.6188
 1437TIP3   OH225869   3.806   1.270   1.108 -0.8910 -0.2290 -0.3196
 1437TIP3    H125870   3.818   1.359   1.076 -1.1390 -0.6218 -1.5643
 1437TIP3    H225871   3.889   1.248   1.150 -0.4937  0.2681 -0.8268
 1438TIP3   OH225872   0.201   3.518   2.217 -0.2094 -0.2252  0.0693
 1438TIP3    H125873   0.129   3.493   2.159  0.8017 -1.0391 -0.8770
 1438TIP3    H225874   0.244   3.436   2.239  0.6727  0.2814  0.2987
 1439TIP3   OH225875   1.437   2.962   3.269 -0.0122  0.2946 -0.2924
 1439TIP3    H125876   1.457   2.877   3.306  1.6611  0.7859  0.0305
 1439TIP3    H225877   1.362   2.994   3.319  0.2529 -0.3843  0.5546
 1440TIP3   OH225878   4.470   2.379   0.099  0.2690  0.0464 -0.3922
 1440TIP3    H125879   4.476   2.310   0.166 -0.9073  0.7942  0.5095
 1440TIP3    H225880   4.534   2.352   0.033  0.0940 -1.7373  0.0933
 1441TIP3   OH225881   5.954   4.962   1.881  0.2153 -0.1160  0.3188
 1441TIP3    H125882   5.884   4.966   1.945  0.6789  2.6809  0.8067
 1441TIP3    H225883   5.915   4.922   1.804 -1.6165  0.4030  0.9425
 1442TIP3   OH225884   0.609   3.790   3.180  0.2809 -0.6811  0.1144
 1442TIP3    H125885   0.532   3.834   3.145  2.1834  1.1534 -2.1153
 1442TIP3    H225886   0.676   3.859   3.185  2.0762 -2.3748  1.0382
 1443TIP3   OH225887   6.902   1.320   7.181  0.4562 -0.2382 -0.3861
 1443TIP3    H125888   6.914   1.240   7.130 -0.9920  0.8657 -2.6357
 1443TIP3    H225889   6.986   1.366   7.175  1.1202 -1.3209  0.4610
 1444TIP3   OH225890   1.842   3.711   0.827  0.5125 -0.0282  0.2969
 1444TIP3    H125891   1.803   3.759   0.899  1.2295 -0.4752  1.0017
 1444TIP3    H225892   1.786   3.729   0.752 -0.2259  0.4621  0.9616
 1445TIP3   OH225893   5.504   4.877   3.607 -0.3316  0.2578  0.4382
 1445TIP3    H125894   5.479   4.937   3.536 -0.7247  0.1098  0.4498
 1445TIP3    H225895   5.479   4.790   3.574  0.5467  0.0566  0.2774
 1446TIP3   OH225896   4.686   1.505   2.071  0.3018  0.0333 -1.0937
 1446TIP3    H125897   4.671   1.446   2.144  1.5792  0.6402 -0.3011
 1446TIP3    H225898   4.745   1.572   2.105  0.5987  0.5714 -2.5567
 1447TIP3   OH225899   0.482   1.084   2.361 -0.9977 -0.5744  0.7331
 1447TIP3    H125900   0.567   1.073   2.402 -0.5535 -0.7210 -0.2073
 1447TIP3    H225901   0.421   1.035   2.416 -0.2612 -1.5208  0.7144
 1448TIP3   OH225902   6.277   5.028   3.197 -0.3265  0.0118 -0.1465
 1448TIP3    H125903   6.254   5.020   3.105  0.9880 -0.9432 -0.4384
 1448TIP3    H225904   6.358   4.976   3.206  0.8024  1.8368  1.0850
 1449TIP3   OH225905   5.384   6.681   7.847 -0.1718 -0.4239  0.2815
 1449TIP3    H125906   5.435   6.757   7.819  1.1335 -0.8917  1.2855
 1449TIP3    H225907   5.307   6.681   7.790  1.7649 -0.6940 -2.5139
 1450TIP3   OH225908   6.097   5.072   3.401 -0.1759 -0.1078  0.7395
 1450TIP3    H125909   6.165   5.050   3.338 -0.7672 -0.8657  0.3547
 1450TIP3    H225910   6.107   5.166   3.414  0.8648 -0.1820  0.6046
 1451TIP3   OH225911   1.710   0.915   0.969 -0.0648  0.4990 -0.1748
 1451TIP3    H125912   1.799   0.920   1.002  0.7838 -0.9901 -2.0947
 1451TIP3    H225913   1.716   0.864   0.888 -2.3985  1.7450 -1.2573
 1452TIP3   OH225914   5.189   1.634   8.184  0.4020  0.2783 -0.0261
 1452TIP3    H125915   5.214   1.640   8.092 -1.1785  0.1890 -0.4981
 1452TIP3    H225916   5.229   1.553   8.215  1.0047  0.3460 -0.6157
 1453TIP3   OH225917   5.311   4.964   0.788  0.1075  0.8673 -0.1695
 1453TIP3    H125918   5.399   4.974   0.753  0.1762  1.2649  0.1073
 1453TIP3    H225919   5.260   5.033   0.745 -0.1326  0.4721 -0.5273
 1454TIP3   OH225920   1.865   0.711   2.598 -0.2652  0.0303 -0.0620
 1454TIP3    H125921   1.780   0.752   2.617 -0.0120  0.2271  0.6755
 1454TIP3    H225922   1.928   0.761   2.651  0.2633 -0.3247 -0.3506
 1455TIP3   OH225923   6.923   3.299   0.682  0.0501 -0.2193  1.1888
 1455TIP3    H125924   6.914   3.393   0.696  1.8317  0.0135  0.9583
 1455TIP3    H225925   6.880   3.283   0.598  1.7909  0.8334  0.0354
 1456TIP3   OH225926   3.941   5.269   8.006 -0.3361  0.0903 -0.0650
 1456TIP3    H125927   3.964   5.176   8.000  1.7998  0.4186  1.5679
 1456TIP3    H225928   3.892   5.276   8.088  0.9628  0.5980  0.7013
 1457TIP3   OH225929   4.986   0.341   0.497  0.1386  0.6409  0.1571
 1457TIP3    H125930   4.924   0.374   0.562 -0.4681 -0.6839  0.2856
 1457TIP3    H225931   4.931   0.299   0.431  0.8310  0.7355 -0.4914
 1458TIP3   OH225932   2.422   0.843   8.005 -0.0879  0.0648 -0.1083
 1458TIP3    H125933   2.344   0.788   7.997  0.4136 -0.4952 -1.3215
 1458TIP3    H225934   2.393   0.929   7.973  0.2032 -0.5702 -2.2554
 1459TIP3   OH225935   6.769   1.639   2.357  0.4354  0.5102  0.2228
 1459TIP3    H125936   6.699   1.606   2.414  1.0020  1.3094  1.4263
 1459TIP3    H225937   6.792   1.564   2.303  0.1341 -0.4124  1.3228
 1460TIP3   OH225938   1.073   2.189   7.805  0.1167  0.0434  0.1362
 1460TIP3    H125939   1.033   2.199   7.891  2.2217 -0.4770  1.2538
 1460TIP3    H225940   1.093   2.278   7.777 -1.3860  0.2811 -0.2747
 1461TIP3   OH225941   1.545   0.889   0.290 -0.6612 -0.3531  0.2539
 1461TIP3    H125942   1.466   0.843   0.263  0.9879 -2.9622 -0.4094
 1461TIP3    H225943   1.607   0.876   0.219  0.7533  0.6554  1.2386
 1462TIP3   OH225944   5.994   5.501   0.773  0.3267 -0.5863 -0.6283
 1462TIP3    H125945   5.972   5.586   0.812  0.1045  0.1111 -2.1659
 1462TIP3    H225946   6.078   5.478   0.812  0.7108  0.6748 -0.6548
 1463TIP3   OH225947   4.347   1.571   7.257 -0.0268  0.0533 -0.3995
 1463TIP3    H125948   4.278   1.599   7.317  1.1540 -0.8075  1.4410
 1463TIP3    H225949   4.341   1.632   7.183 -2.1543  0.5307  0.1218
 1464TIP3   OH225950   2.263   6.657   1.354 -0.4343 -0.0195 -0.7316
 1464TIP3    H125951   2.291   6.702   1.434 -0.4519 -2.6266  0.8441
 1464TIP3    H225952   2.173   6.687   1.340 -0.7953 -0.2409  0.8413
 1465TIP3   OH225953   1.148   2.296   7.440 -0.3802 -0.1019  0.0101
 1465TIP3    H125954   1.061   2.256   7.442 -0.9046  0.8557 -1.5839
 1465TIP3    H225955   1.183   2.273   7.354  1.2852 -1.0913  0.9049
 1466TIP3   OH225956   3.382   1.722   1.192 -0.3789 -0.0173 -0.5792
 1466TIP3    H125957   3.429   1.700   1.272 -0.9179 -0.3027 -0.3290
 1466TIP3    H225958   3.449   1.725   1.124  0.1779  0.8653 -0.0050
 1467TIP3   OH225959   1.426   7.024   1.948 -0.5179  0.5764  0.7377
 1467TIP3    H125960   1.516   6.994   1.935 -1.3128 -1.5547 -0.3215
 1467TIP3    H225961   1.400   6.988   2.033 -0.1334  1.9456  1.4719
 1468TIP3   OH225962   7.023   6.093   1.174  0.0381  0.0420  0.6228
 1468TIP3    H125963   7.096   6.045   1.213  1.9036  1.0224 -1.4309
 1468TIP3    H225964   6.951   6.030   1.173  1.9841 -2.3697 -0.7586
 1469TIP3   OH225965   0.278   1.602   8.087 -0.3428  0.4045 -0.3371
 1469TIP3    H125966   0.184   1.613   8.075 -0.6921 -0.4565  1.2676
 1469TIP3    H225967   0.287   1.515   8.126  1.3172 -0.3755 -2.2805
 1470TIP3   OH225968   4.511   5.409   2.157  0.0130 -0.3492  0.2405
 1470TIP3    H125969   4.519   5.489   2.106  1.6143  0.6408  1.9272
 1470TIP3    H225970   4.450   5.355   2.107 -0.7473  1.7053 -1.1820
 1471TIP3   OH225971   4.566   3.830   3.846 -0.1304  0.3224 -0.4611
 1471TIP3    H125972   4.497   3.886   3.879  0.0140  1.2060 -1.6056
 1471TIP3    H225973   4.543   3.814   3.755 -0.3949 -1.8536 -0.0822
 1472TIP3   OH225974   2.287   3.837   1.825 -0.1600 -0.1046  0.2932
 1472TIP3    H125975   2.263   3.910   1.883  0.2819  0.8688 -0.7238
 1472TIP3    H225976   2.274   3.871   1.737  0.1184 -1.2442 -0.2035
 1473TIP3   OH225977   3.803   5.918   1.450  0.2081 -0.2522 -0.2239
 1473TIP3    H125978   3.872   5.985   1.453 -1.5511  1.6412  0.5310
 1473TIP3    H225979   3.723   5.968   1.432 -1.4209 -1.9663  1.8295
 1474TIP3   OH225980   5.360   4.780   1.053  0.2923 -0.1610  0.3254
 1474TIP3    H125981   5.411   4.772   0.973  0.2031  0.3918  0.2132
 1474TIP3    H225982   5.321   4.693   1.065  0.5714 -0.3401 -0.0471
 1475TIP3   OH225983   2.080   2.420   7.952  0.1535  0.4338  0.0139
 1475TIP3    H125984   1.985   2.427   7.941 -0.0715 -2.3213 -0.4461
 1475TIP3    H225985   2.111   2.511   7.949 -2.5321  1.4951  1.1278
 1476TIP3   OH225986   3.739   4.591   1.348  0.5026  0.3177  0.5312
 1476TIP3    H125987   3.719   4.517   1.404  0.1012 -0.1754 -0.2400
 1476TIP3    H225988   3.662   4.599   1.290  0.8966  0.8066  0.0626
 1477TIP3   OH225989   1.898   1.523   1.115 -0.1245  0.4479 -0.1518
 1477TIP3    H125990   1.941   1.439   1.130 -0.4695  0.2626 -0.1825
 1477TIP3    H225991   1.856   1.513   1.030 -0.3405  0.5784 -0.0605
 1478TIP3   OH225992   3.742   2.081   3.188  0.1944 -0.0691 -0.0285
 1478TIP3    H125993   3.821   2.080   3.134  0.3972  0.0660  0.2611
 1478TIP3    H225994   3.741   1.995   3.231  0.0688 -0.1518 -0.1963
 1479TIP3   OH225995   6.240   5.339   2.794 -0.2779  0.3812  0.2241
 1479TIP3    H125996   6.198   5.375   2.872 -1.0866 -1.1168  0.5127
 1479TIP3    H225997   6.268   5.252   2.819  1.3593  0.6497 -0.5548
 1480TIP3   OH225998   1.917   4.777   1.423  0.1280 -0.3572 -0.1413
 1480TIP3    H125999   2.007   4.810   1.415 -0.4851  1.1039 -1.6008
 1480TIP3    H226000   1.877   4.797   1.338 -1.4386 -1.4334  0.3151
 1481TIP3   OH226001   1.312   0.802   0.712 -0.2005  0.3436  0.1290
 1481TIP3    H126002   1.378   0.871   0.723  0.3248 -0.0940 -0.2462
 1481TIP3    H226003   1.340   0.754   0.635  0.1620 -1.0891  1.1136
 1482TIP3   OH226004   4.303   4.598   0.006  0.4625  0.5427 -0.8462
 1482TIP3    H126005   4.235   4.605  -0.061 -0.4503  2.2062  0.1870
 1482TIP3    H226006   4.383   4.627  -0.039  0.6811 -1.8848 -2.2071
 1483TIP3   OH226007   2.557   0.871   3.316  0.0096  0.2541 -0.3555
 1483TIP3    H126008   2.637   0.881   3.367  0.5424 -0.8431 -0.9616
 1483TIP3    H226009   2.545   0.777   3.306 -0.7481  0.4212 -1.2211
 1484TIP3   OH226010   2.296   3.545   7.849 -0.7690 -0.2218 -0.0392
 1484TIP3    H126011   2.307   3.637   7.873  2.0803 -0.4558 -0.1228
 1484TIP3    H226012   2.293   3.545   7.753  2.4877 -0.3617 -0.2436
 1485TIP3   OH226013   1.930   0.106   0.453  0.2567  0.0383  0.3980
 1485TIP3    H126014   1.906   0.159   0.530 -0.1871  2.7642 -1.4522
 1485TIP3    H226015   2.023   0.089   0.463  0.4785  1.4566  0.9596
 1486TIP3   OH226016   1.412   6.177   2.269 -0.0310 -0.3738  0.0662
 1486TIP3    H126017   1.469   6.102   2.281  0.3930  0.2225  2.2116
 1486TIP3    H226018   1.451   6.246   2.323 -1.2643  0.8912 -0.5950
 1487TIP3   OH226019   3.380   0.494   2.068 -0.6127  0.7341  0.2251
 1487TIP3    H126020   3.289   0.468   2.079 -0.3728 -0.4880 -0.4517
 1487TIP3    H226021   3.428   0.411   2.061  0.4027  1.3619 -0.5523
 1488TIP3   OH226022   4.782   6.080   0.770 -0.4297 -0.4449  0.0925
 1488TIP3    H126023   4.802   6.021   0.842  1.8606 -0.1088 -0.1988
 1488TIP3    H226024   4.818   6.036   0.693  0.7555  1.0098 -0.2159
 1489TIP3   OH226025   3.792   2.385   0.501  0.3319  0.6552 -0.5062
 1489TIP3    H126026   3.844   2.309   0.476 -1.3311 -0.7662  0.1408
 1489TIP3    H226027   3.788   2.438   0.422  1.7214  0.2129 -0.9085
 1490TIP3   OH226028   4.208   6.901   7.818 -0.1929  0.3689  0.1039
 1490TIP3    H126029   4.118   6.869   7.830  0.7072 -1.8969  1.5059
 1490TIP3    H226030   4.210   6.934   7.728 -2.3806  0.3421 -0.0118
 1491TIP3   OH226031   5.731   4.468   1.019  0.4880  0.1689 -0.5826
 1491TIP3    H126032   5.824   4.451   1.003  0.6740  0.1569  0.4284
 1491TIP3    H226033   5.730   4.522   1.098 -0.4445 -2.1752  1.1187
 1492TIP3   OH226034   3.795   2.916   2.585 -0.1883  0.1017 -0.4431
 1492TIP3    H126035   3.708   2.882   2.564  0.1128 -0.7181 -0.3902
 1492TIP3    H226036   3.821   2.966   2.508 -0.6733  0.2903 -0.4862
 1493TIP3   OH226037   2.130   6.848   2.152 -0.1259 -0.0360  0.4190
 1493TIP3    H126038   2.110   6.755   2.159  0.8846 -0.1430  2.5900
 1493TIP3    H226039   2.167   6.858   2.064 -1.7307 -1.3384 -0.4760
 1494TIP3   OH226040   1.514   5.985   0.608 -0.1324 -0.2579 -0.9486
 1494TIP3    H126041   1.487   6.071   0.575  2.8388  1.4511  0.5820
 1494TIP3    H226042   1.596   5.967   0.563  0.8944 -0.7307  0.9814
 1495TIP3   OH226043   2.388   4.708   2.319  0.5619 -0.1639  0.5344
 1495TIP3    H126044   2.474   4.666   2.314  1.4722  1.4165  1.6201
 1495TIP3    H226045   2.376   4.725   2.413 -0.6046  0.2878  0.3146
 1496TIP3   OH226046   5.413   1.436   7.153  0.4517  0.4456 -0.4726
 1496TIP3    H126047   5.439   1.512   7.206  0.3089 -0.3296  0.7377
 1496TIP3    H226048   5.318   1.431   7.163  0.3731  0.5188 -1.1291
 1497TIP3   OH226049   3.858   6.085   0.779  0.2659  0.1170  0.1974
 1497TIP3    H126050   3.844   6.153   0.845 -1.3457 -0.2460  0.2657
 1497TIP3    H226051   3.868   6.133   0.697 -0.3005  0.4656  0.3268
 1498TIP3   OH226052   0.402   0.483   0.353 -0.2362  0.5940 -0.4927
 1498TIP3    H126053   0.434   0.554   0.409  2.2016 -0.9182  0.1744
 1498TIP3    H226054   0.359   0.422   0.413 -0.2027  0.3654 -0.6989
 1499TIP3   OH226055   5.559   2.935   0.900 -0.1614 -0.0438 -0.2384
 1499TIP3    H126056   5.494   2.991   0.857  1.3352  1.2443 -0.9450
 1499TIP3    H226057   5.642   2.981   0.887  1.1083 -2.2708 -0.5567
 1500TIP3   OH226058   0.535   5.174   1.040  0.3971  0.5921 -0.8735
 1500TIP3    H126059   0.624   5.142   1.056  0.1570  0.8597  1.1616
 1500TIP3    H226060   0.481   5.131   1.106 -0.6793  1.8349 -0.9013
 1501TIP3   OH226061   4.947   4.907   0.911 -0.0266  0.5735  0.0200
 1501TIP3    H126062   4.968   4.815   0.896  2.4950  0.9743  0.5047
 1501TIP3    H226063   4.942   4.945   0.823  1.9268  0.4811 -0.1912
 1502TIP3   OH226064   4.474   0.930   1.857 -0.3672 -0.0116  0.0452
 1502TIP3    H126065   4.542   0.889   1.911 -1.3546 -1.1764  0.4414
 1502TIP3    H226066   4.482   0.886   1.772  2.0859  2.7437 -1.3383
 1503TIP3   OH226067   5.583   2.385   2.868  0.0525 -0.0007 -1.0624
 1503TIP3    H126068   5.643   2.417   2.935  1.1370 -1.4011 -1.3321
 1503TIP3    H226069   5.529   2.320   2.914  0.0453 -0.1528 -1.2891
 1504TIP3   OH226070   4.318   4.856   0.848  0.2584  0.0205  0.8151
 1504TIP3    H126071   4.263   4.879   0.773  0.2291 -2.2756  0.0260
 1504TIP3    H226072   4.259   4.809   0.907  0.4063  1.3514  2.0629
 1505TIP3   OH226073   6.318   1.443   2.329  0.0645 -0.4098 -0.4877
 1505TIP3    H126074   6.400   1.439   2.380 -1.2094 -0.8247  1.6470
 1505TIP3    H226075   6.313   1.359   2.285  0.1703 -0.9022  0.4204
 1506TIP3   OH226076   1.025   0.970   0.149 -0.0357 -0.0775  0.0493
 1506TIP3    H126077   1.085   1.043   0.134 -1.3867  0.8612 -1.0602
 1506TIP3    H226078   1.053   0.932   0.232  1.1475  1.2455  0.2877
 1507TIP3   OH226079   2.407   5.496   8.143  0.0229  0.4798  0.1982
 1507TIP3    H126080   2.346   5.569   8.143 -1.5713 -0.8012  0.8400
 1507TIP3    H226081   2.493   5.537   8.152 -0.8012  2.2753  0.3045
 1508TIP3   OH226082   2.762   3.472   0.782  0.7489  0.1085  0.0848
 1508TIP3    H126083   2.675   3.441   0.806  0.4893  0.5826 -0.2236
 1508TIP3    H226084   2.748   3.524   0.702  1.1664  1.0283  0.5936
 1509TIP3   OH226085   3.442   6.692   7.899 -0.1023 -0.1314  0.4748
 1509TIP3    H126086   3.497   6.616   7.882  0.6339  0.2230  1.2302
 1509TIP3    H226087   3.490   6.766   7.861 -0.7481 -0.0112 -0.1358
 1510TIP3   OH226088   2.357   5.811   7.516 -0.0569  0.0446 -0.0194
 1510TIP3    H126089   2.284   5.752   7.535  0.4071 -0.7559 -0.6728
 1510TIP3    H226090   2.318   5.899   7.516 -0.9037 -0.3231  0.1812
 1511TIP3   OH226091   1.153   4.213   8.256  0.5249 -0.0524  0.3260
 1511TIP3    H126092   1.177   4.305   8.270 -4.2159  1.2535  1.7613
 1511TIP3    H226093   1.145   4.204   8.161  1.9411  0.6674  0.1130
 1512TIP3   OH226094   2.405   3.829   7.911  0.1497  0.1861 -0.3433
 1512TIP3    H126095   2.486   3.852   7.958 -0.2579 -1.9360  1.5931
 1512TIP3    H226096   2.435   3.794   7.827  1.1087  1.2478 -0.4664
 1513TIP3   OH226097   6.982   1.312   0.471  0.4983 -0.3454  0.5565
 1513TIP3    H126098   6.931   1.233   0.455 -0.2786  0.5398 -1.8839
 1513TIP3    H226099   6.919   1.384   0.457  1.4288  0.7332  1.6734
 1514TIP3   OH226100   3.308   6.947   0.950  0.4995  0.3990  0.2947
 1514TIP3    H126101   3.297   6.914   1.039 -2.2368  1.3624  0.4126
 1514TIP3    H226102   3.383   7.005   0.955  0.8521 -0.1412  1.7889
 1515TIP3   OH226103   3.015   0.329   1.181  0.7262 -0.4938  0.1117
 1515TIP3    H126104   2.942   0.315   1.121 -0.0499  3.2489 -0.0960
 1515TIP3    H226105   3.091   0.293   1.136  0.0315  1.3414 -2.8203
 1516TIP3   OH226106   3.083   6.564   7.475 -0.2545 -0.8708  0.0264
 1516TIP3    H126107   3.101   6.652   7.443  0.1504 -0.1635  2.0721
 1516TIP3    H226108   2.989   6.553   7.460  0.1970 -1.4244 -3.1927
 1517TIP3   OH226109   2.677   1.566   2.924 -0.2387  0.2308  0.0673
 1517TIP3    H126110   2.753   1.508   2.926 -0.3458  0.0775 -0.2302
 1517TIP3    H226111   2.653   1.577   3.016 -1.3366 -1.6870  0.0716
 1518TIP3   OH226112   4.999   5.219   8.036 -0.0904 -0.1321  0.3785
 1518TIP3    H126113   4.933   5.283   8.010 -0.6585 -1.5175 -1.9424
 1518TIP3    H226114   5.082   5.264   8.026 -0.5749  1.3856  2.5412
 1519TIP3   OH226115   5.884   6.536   0.524 -0.6104 -0.6907  0.0172
 1519TIP3    H126116   5.960   6.571   0.478  0.2609  0.3416  2.1331
 1519TIP3    H226117   5.816   6.602   0.512 -0.7455 -0.9530 -0.6968
 1520TIP3   OH226118   6.275   3.708   7.672 -0.4946  0.0539  0.0796
 1520TIP3    H126119   6.333   3.758   7.728 -0.6145 -0.3296  0.5547
 1520TIP3    H226120   6.227   3.650   7.732 -1.3892  0.3850 -0.2908
 1521TIP3   OH226121   2.127   0.770   0.534  0.1073  0.4316  0.6576
 1521TIP3    H126122   2.195   0.827   0.573  0.8321  0.0683 -0.0490
 1521TIP3    H226123   2.085   0.825   0.468  0.2440  0.4121  0.5540
 1522TIP3   OH226124   5.093   0.045   1.613  0.2487 -0.1213 -0.1722
 1522TIP3    H126125   5.025   0.112   1.622 -0.2391 -0.6227 -0.0214
 1522TIP3    H226126   5.044  -0.035   1.592  0.9787  0.1032 -3.2462
 1523TIP3   OH226127   3.757   5.683   3.591  0.3913  0.3721  0.7151
 1523TIP3    H126128   3.829   5.629   3.625 -0.3538 -1.0106  0.2159
 1523TIP3    H226129   3.771   5.684   3.497 -0.4300 -0.2422  0.5704
 1524TIP3   OH226130   1.387   0.504   1.235 -0.4298  0.8777 -0.0382
 1524TIP3    H126131   1.465   0.493   1.288  1.2735  1.7457 -2.2168
 1524TIP3    H226132   1.357   0.415   1.216  0.8493  0.5019 -0.3265
 1525TIP3   OH226133   0.731   1.855   1.376 -0.7024  0.0380  0.1693
 1525TIP3    H126134   0.766   1.936   1.338 -0.7635  0.4007  0.8706
 1525TIP3    H226135   0.761   1.856   1.467 -0.3202 -0.9611  0.0629
 1526TIP3   OH226136   1.371   6.935   1.100 -0.0086  0.5837 -0.2377
 1526TIP3    H126137   1.427   6.923   1.177  0.9932 -1.3395 -1.1950
 1526TIP3    H226138   1.297   6.876   1.115  0.2412  0.1246 -0.7616
 1527TIP3   OH226139   1.425   5.518   0.322 -0.0752  0.1975 -0.0939
 1527TIP3    H126140   1.404   5.481   0.408  0.1481 -0.9084 -0.4980
 1527TIP3    H226141   1.503   5.572   0.338 -0.7940  1.0443  0.6328
 1528TIP3   OH226142   6.074   6.683   0.840 -0.1427  0.0375 -0.0987
 1528TIP3    H126143   6.043   6.716   0.755  0.2225 -0.1793 -0.3219
 1528TIP3    H226144   6.163   6.652   0.822  0.1177  0.4268  0.4686
 1529TIP3   OH226145   0.028   2.203   0.928 -0.5145 -0.0480  0.5281
 1529TIP3    H126146   0.046   2.262   0.855  1.6920 -0.9315  0.2615
 1529TIP3    H226147  -0.014   2.127   0.888 -1.3869  0.4147  0.5466
 1530TIP3   OH226148   6.002   2.280   8.091  0.2983 -0.0500 -0.6367
 1530TIP3    H126149   5.916   2.305   8.059  0.0823 -0.6659 -0.5386
 1530TIP3    H226150   6.059   2.285   8.014  0.3406  1.0743 -0.5558
 1531TIP3   OH226151   3.834   5.211   7.427 -0.1995  0.1026  0.2436
 1531TIP3    H126152   3.776   5.188   7.355  0.0044 -0.8897  0.3847
 1531TIP3    H226153   3.894   5.137   7.435  2.2692  1.7967 -1.0668
 1532TIP3   OH226154   3.211   1.983   1.876  0.0916  0.4103  0.1892
 1532TIP3    H126155   3.224   2.078   1.886  1.0109  0.6181 -2.2319
 1532TIP3    H226156   3.179   1.954   1.961 -0.0454  2.8675  1.0583
 1533TIP3   OH226157   4.636   0.869   0.905 -0.0051 -0.0449 -0.5527
 1533TIP3    H126158   4.666   0.852   0.815 -0.7921  1.6174 -1.1821
 1533TIP3    H226159   4.544   0.893   0.894  0.0829  0.8734  0.6260
 1534TIP3   OH226160   3.683   3.829   1.915 -0.3327  0.5907 -0.3141
 1534TIP3    H126161   3.686   3.738   1.883 -1.5752  0.7998 -1.1096
 1534TIP3    H226162   3.715   3.823   2.005 -0.5796 -0.6811 -0.2808
 1535TIP3   OH226163   0.637   2.444   1.786  0.1527 -0.1556 -0.1603
 1535TIP3    H126164   0.707   2.397   1.740  0.5466  0.4838 -0.2195
 1535TIP3    H226165   0.562   2.384   1.782  0.5022 -0.5720 -0.6708
 1536TIP3   OH226166   1.486   5.140   8.198  0.2644  0.2299  0.2875
 1536TIP3    H126167   1.402   5.095   8.205  1.1552 -1.8644 -1.5312
 1536TIP3    H226168   1.529   5.123   8.282  0.1180 -1.3509  0.0600
 1537TIP3   OH226169   0.983   0.023   8.238  0.4477 -0.4615  0.1279
 1537TIP3    H126170   0.905   0.017   8.183  0.6948  0.1175 -0.2985
 1537TIP3    H226171   1.020  -0.065   8.237  0.1227 -0.5967 -0.1491
 1538TIP3   OH226172   4.258   1.070   7.986 -0.3026  0.6215  0.4590
 1538TIP3    H126173   4.302   1.036   8.063 -1.1322  0.5779  0.9208
 1538TIP3    H226174   4.254   0.996   7.926 -1.1955  0.1682  1.0601
 1539TIP3   OH226175   4.505   7.031   0.503 -0.5616  0.3396 -0.1350
 1539TIP3    H126176   4.502   6.973   0.427  0.4891  0.6182 -0.4052
 1539TIP3    H226177   4.484   7.118   0.469 -4.3536 -0.1369  0.6307
 1540TIP3   OH226178   5.670   5.763   1.045  0.5079 -0.1026  0.3729
 1540TIP3    H126179   5.725   5.685   1.057  0.3423 -0.5297 -1.4422
 1540TIP3    H226180   5.658   5.770   0.951 -2.5838 -0.0318  0.6798
 1541TIP3   OH226181   2.589   6.066   0.433  0.2396  0.1120  0.6660
 1541TIP3    H126182   2.559   5.980   0.462 -1.0450 -0.0362 -0.9109
 1541TIP3    H226183   2.565   6.126   0.504 -1.2247 -0.4644  0.6903
 1542TIP3   OH226184   1.293   3.088   0.438  0.4495 -0.0633  0.0844
 1542TIP3    H126185   1.357   3.026   0.469 -0.2387 -0.5528  0.5507
 1542TIP3    H226186   1.286   3.153   0.508  0.1215 -0.2491  0.2255
 1543TIP3   OH226187   4.348   0.226   2.211 -0.3940  0.4043  0.0175
 1543TIP3    H126188   4.284   0.196   2.146 -0.9254 -0.7626  1.0511
 1543TIP3    H226189   4.403   0.149   2.227  0.6770  1.1146 -0.1368
 1544TIP3   OH226190   5.705   2.019   1.246  0.2346  0.2824 -0.1071
 1544TIP3    H126191   5.662   2.007   1.162  0.4679  0.5725 -0.2733
 1544TIP3    H226192   5.787   2.064   1.224  0.6279 -0.2719  0.1987
 1545TIP3   OH226193   1.789   6.751   2.117  0.0633  0.4488 -0.1211
 1545TIP3    H126194   1.728   6.678   2.129  0.1262  0.2521 -0.9111
 1545TIP3    H226195   1.876   6.710   2.117  0.0792  0.4568 -0.9538
 1546TIP3   OH226196   2.646   5.810   0.047  0.3611 -0.1275 -0.1153
 1546TIP3    H126197   2.657   5.860  -0.034  1.7944 -0.9041 -0.4187
 1546TIP3    H226198   2.694   5.861   0.112  1.8104 -1.0548 -0.4215
 1547TIP3   OH226199   3.954   5.512   3.700 -0.3828 -0.6068  0.3745
 1547TIP3    H126200   4.048   5.512   3.714  0.0759 -2.3814 -1.9585
 1547TIP3    H226201   3.924   5.429   3.738 -0.9355 -0.2843  0.6610
 1548TIP3   OH226202   3.027   6.274   7.579  0.1538  0.2149 -0.3000
 1548TIP3    H126203   3.034   6.179   7.565 -0.4393  0.0888  0.1974
 1548TIP3    H226204   2.991   6.307   7.497  0.1484 -0.0294 -0.3982
 1549TIP3   OH226205   0.967   6.003   1.778 -0.7158  0.5801  0.0968
 1549TIP3    H126206   0.994   6.093   1.793  0.1849  0.6284 -1.6192
 1549TIP3    H226207   0.988   5.958   1.860  0.8980  1.4824  0.2201
 1550TIP3   OH226208   6.076   0.976   7.030  0.5439  0.4373 -0.7920
 1550TIP3    H126209   6.005   0.913   7.040  2.6757 -2.2521 -1.3770
 1550TIP3    H226210   6.032   1.060   7.016 -2.4669 -0.7037  0.7965
 1551TIP3   OH226211   5.171   0.471   0.271  0.7859 -0.4773  0.1323
 1551TIP3    H126212   5.146   0.462   0.363  2.0500 -0.6167  0.4774
 1551TIP3    H226213   5.137   0.392   0.230  0.1610 -0.3889  0.4558
 1552TIP3   OH226214   3.339   0.809   3.823  0.0517 -0.1976 -0.6797
 1552TIP3    H126215   3.337   0.845   3.735  0.7903 -0.8415 -0.9684
 1552TIP3    H226216   3.408   0.743   3.821  0.0614 -0.2451  0.3704
 1553TIP3   OH226217   5.223   4.292   1.781 -0.1507 -0.1507  0.3517
 1553TIP3    H126218   5.245   4.381   1.753  1.0325 -0.5710 -0.1017
 1553TIP3    H226219   5.127   4.293   1.789 -0.1084  1.4027  1.2080
 1554TIP3   OH226220   0.170   1.280   1.716  0.2596 -0.4943 -0.3510
 1554TIP3    H126221   0.166   1.371   1.686 -1.0225 -0.8181 -1.2462
 1554TIP3    H226222   0.117   1.232   1.653 -0.9288 -1.5177  1.3447
 1555TIP3   OH226223   5.881   1.817   0.227 -0.0193 -0.0076  0.2618
 1555TIP3    H126224   5.962   1.864   0.207  0.6846 -1.3852 -0.2756
 1555TIP3    H226225   5.820   1.845   0.160 -0.2029  1.4774  0.9990
 1556TIP3   OH226226   6.208   4.009   2.762 -0.5592 -0.6751 -0.1913
 1556TIP3    H126227   6.167   4.083   2.718 -1.5925 -1.4828 -0.6213
 1556TIP3    H226228   6.162   4.001   2.845  1.6786  1.1249  1.3404
 1557TIP3   OH226229   3.253   1.837   7.368  0.7913 -0.5590  0.0883
 1557TIP3    H126230   3.340   1.841   7.406  0.4180 -0.4100  0.9626
 1557TIP3    H226231   3.252   1.908   7.304  0.8221  0.4805  1.1860
 1558TIP3   OH226232   3.454   2.939   2.727  0.3000  0.5932  0.6300
 1558TIP3    H126233   3.370   2.897   2.706  0.3082 -0.2669  2.1791
 1558TIP3    H226234   3.518   2.894   2.673 -0.3436  2.1824 -1.6353
 1559TIP3   OH226235   3.133   5.865   1.020 -0.5424  0.2174 -0.6523
 1559TIP3    H126236   3.175   5.844   0.937  0.8765 -0.2601  0.1615
 1559TIP3    H226237   3.201   5.853   1.086 -1.3574  1.5200  0.4984
 1560TIP3   OH226238   2.867   3.713   0.979  0.2288 -0.2600 -0.8111
 1560TIP3    H126239   2.822   3.767   0.915 -1.4138 -0.4356  0.1432
 1560TIP3    H226240   2.866   3.625   0.941  2.8066  0.2636 -2.3120
 1561TIP3   OH226241   7.001   2.318   0.089  0.0984  0.2391  0.0169
 1561TIP3    H126242   7.090   2.311   0.055  0.0772  0.3334 -0.0576
 1561TIP3    H226243   7.012   2.328   0.183  0.1481 -0.2591  0.0643
 1562TIP3   OH226244   6.269   3.716   3.360  0.0275  0.2190 -0.8996
 1562TIP3    H126245   6.345   3.740   3.414 -1.6375 -0.1639  1.7661
 1562TIP3    H226246   6.254   3.624   3.379 -0.1056 -0.2014 -2.7979
 1563TIP3   OH226247   4.688   4.097   0.579 -0.8429  0.6008 -0.1274
 1563TIP3    H126248   4.683   4.023   0.518 -1.8581  0.6244 -0.0942
 1563TIP3    H226249   4.618   4.156   0.551 -1.2499  0.6629  0.9821
 1564TIP3   OH226250   6.671   0.179   7.371 -0.6241  0.1276 -0.0189
 1564TIP3    H126251   6.745   0.136   7.328 -0.5954  0.3597 -0.2058
 1564TIP3    H226252   6.636   0.113   7.431 -2.3228 -1.1656 -2.2676
 1565TIP3   OH226253   3.379   0.989   0.399 -0.3614 -0.4709 -0.1636
 1565TIP3    H126254   3.321   0.986   0.322 -2.8962 -0.9465  1.6369
 1565TIP3    H226255   3.452   0.931   0.375 -1.3132 -1.0082 -2.0179
 1566TIP3   OH226256   3.581   0.841   8.106 -0.2159  0.0822 -0.2258
 1566TIP3    H126257   3.594   0.899   8.182 -0.5356 -0.6313  0.3883
 1566TIP3    H226258   3.503   0.877   8.063 -0.0113  0.5154 -0.2474
 1567TIP3   OH226259   4.505   4.789   3.525 -0.7014  0.3692  0.2638
 1567TIP3    H126260   4.410   4.779   3.533 -0.8509 -1.8302 -2.6200
 1567TIP3    H226261   4.539   4.700   3.533  1.2423  1.1778  1.7463
 1568TIP3   OH226262   4.871   0.406   7.403 -0.6891  0.0941  0.5636
 1568TIP3    H126263   4.807   0.419   7.334  0.6651  0.6795 -0.6328
 1568TIP3    H226264   4.910   0.492   7.417  1.1868 -0.5959 -0.1372
 1569TIP3   OH226265   4.281   7.018   1.968  0.1993 -0.1338 -0.1618
 1569TIP3    H126266   4.243   6.972   1.893 -1.0287  0.0664  0.3093
 1569TIP3    H226267   4.207   7.032   2.027  0.9898  0.4433  0.7175
 1570TIP3   OH226268   5.540   4.571   0.862 -0.0202  0.7706 -0.5290
 1570TIP3    H126269   5.612   4.510   0.878  0.2719  1.3521  0.4780
 1570TIP3    H226270   5.581   4.657   0.856 -0.5631  1.0344 -0.5679
 1571TIP3   OH226271   4.853   1.732   7.975 -0.1671  0.2336 -0.4584
 1571TIP3    H126272   4.944   1.759   7.965 -0.3640  1.7188  1.2179
 1571TIP3    H226273   4.852   1.680   8.055 -0.9742  1.4657  0.3836
 1572TIP3   OH226274   2.900   6.429   0.432 -0.0273 -0.2091 -0.0472
 1572TIP3    H126275   2.901   6.351   0.488 -0.7789 -0.2980 -0.1563
 1572TIP3    H226276   2.844   6.491   0.478  1.4634  0.7214  0.6174
 1573TIP3   OH226277   4.376   5.153   7.979  0.0899  0.1964  0.3056
 1573TIP3    H126278   4.317   5.138   8.052  0.5261  1.3714  0.9339
 1573TIP3    H226279   4.330   5.215   7.923 -0.0941 -0.4223 -0.2338
 1574TIP3   OH226280   4.305   4.823   8.044 -0.2624 -0.4675  0.2620
 1574TIP3    H126281   4.287   4.893   7.981  1.0971  1.0134  1.3987
 1574TIP3    H226282   4.302   4.867   8.129 -0.2735 -2.0184  1.0952
 1575TIP3   OH226283   4.634   6.648   3.014  0.0827 -0.4750  0.6432
 1575TIP3    H126284   4.588   6.647   3.098  2.1030 -0.5703  1.8306
 1575TIP3    H226285   4.695   6.721   3.021 -0.1745 -0.0470 -1.0524
 1576TIP3   OH226286   3.958   5.954   7.838 -0.1718  0.5479  0.1758
 1576TIP3    H126287   4.015   5.990   7.770 -0.3468  0.3660 -0.0632
 1576TIP3    H226288   3.898   5.897   7.792  0.5777 -0.6547  0.6390
 1577TIP3   OH226289   1.170   5.339   6.879 -0.1448 -0.0103 -0.2267
 1577TIP3    H126290   1.225   5.409   6.913 -0.7797  0.2542  0.2671
 1577TIP3    H226291   1.081   5.365   6.900 -0.3184 -1.8524  1.7044
 1578TIP3   OH226292   2.290   5.448   7.243  0.0682 -0.4472 -0.1223
 1578TIP3    H126293   2.314   5.455   7.151 -2.7619 -0.8057 -0.9903
 1578TIP3    H226294   2.373   5.449   7.290  1.6182 -0.6172 -2.6822
 1579TIP3   OH226295   4.055   4.610   1.795 -0.9262  0.0007 -0.6531
 1579TIP3    H126296   4.132   4.663   1.814 -0.5995 -0.5112 -0.5350
 1579TIP3    H226297   4.004   4.611   1.876 -1.0523  0.3515 -0.7366
 1580TIP3   OH226298   0.382   2.636   2.647  0.2532  0.0181 -0.2665
 1580TIP3    H126299   0.318   2.614   2.715 -0.7985 -0.9346 -1.5088
 1580TIP3    H226300   0.442   2.697   2.690  1.3465 -2.6955  2.4024
 1581TIP3   OH226301   4.046   5.375   1.643 -0.2098 -0.0085 -0.5257
 1581TIP3    H126302   4.098   5.450   1.614  1.3533 -0.6298  0.5804
 1581TIP3    H226303   3.957   5.395   1.612  0.2521  2.0568 -0.6743
 1582TIP3   OH226304   1.581   2.127   1.842  0.2971  0.0205  0.4240
 1582TIP3    H126305   1.675   2.134   1.860  0.0063  0.6632  1.8940
 1582TIP3    H226306   1.554   2.216   1.822  0.3755 -0.4958 -2.3744
 1583TIP3   OH226307   0.477   6.612   3.381  0.4315 -0.1126 -0.0833
 1583TIP3    H126308   0.446   6.589   3.293  0.6359 -0.4950 -0.0552
 1583TIP3    H226309   0.399   6.605   3.436  0.2774  0.2458 -0.2565
 1584TIP3   OH226310   6.341   3.549   2.653 -0.1561  0.2304 -0.0840
 1584TIP3    H126311   6.249   3.522   2.655 -0.1202  0.0842 -0.3474
 1584TIP3    H226312   6.358   3.573   2.562  0.6119 -1.6726 -0.4874
 1585TIP3   OH226313   3.733   5.090   7.640 -0.0109  0.3912 -0.6469
 1585TIP3    H126314   3.768   5.148   7.572 -0.6464  1.5015 -0.0537
 1585TIP3    H226315   3.721   5.147   7.716  0.9787 -0.8871  0.5246
 1586TIP3   OH226316   5.324   3.740   1.763  0.0193 -0.0532 -0.1260
 1586TIP3    H126317   5.350   3.832   1.758  0.2889 -0.1532 -0.6248
 1586TIP3    H226318   5.373   3.706   1.837 -1.3690  0.6046  1.1571
 1587TIP3   OH226319   4.833   2.036   0.552 -0.3881  0.3685  0.4610
 1587TIP3    H126320   4.870   2.034   0.640 -1.0658 -0.2096  0.7385
 1587TIP3    H226321   4.905   2.010   0.495 -0.1894 -0.1132  0.9265
 1588TIP3   OH226322   3.048   5.034   0.247  0.0827 -0.8036 -0.4073
 1588TIP3    H126323   3.100   5.102   0.290 -1.2608 -1.5317  2.6245
 1588TIP3    H226324   3.106   4.999   0.178  1.5780  1.8760 -0.6443
 1589TIP3   OH226325   3.641   3.115   1.939  0.2305 -0.3417 -1.0521
 1589TIP3    H126326   3.614   3.200   1.905 -0.2490 -0.3334 -0.6641
 1589TIP3    H226327   3.585   3.101   2.016  1.1793 -0.4321 -0.3705
 1590TIP3   OH226328   5.799   6.938   7.710 -0.1601  0.3201 -0.8146
 1590TIP3    H126329   5.849   6.902   7.637  0.9853  2.2465 -1.0669
 1590TIP3    H226330   5.842   6.904   7.788 -0.4349 -0.5427 -1.0375
 1591TIP3   OH226331   3.268   5.529   0.979  0.3426 -0.0414 -0.2625
 1591TIP3    H126332   3.176   5.511   0.998  0.8489 -0.7828  1.7333
 1591TIP3    H226333   3.266   5.600   0.914 -1.6523 -2.3448 -2.9951
 1592TIP3   OH226334   1.210   4.587   1.151  0.2395 -0.2297  0.0194
 1592TIP3    H126335   1.122   4.562   1.122  0.0211 -0.8434  1.1697
 1592TIP3    H226336   1.220   4.677   1.122 -0.0298 -0.7307 -1.7957
 1593TIP3   OH226337   2.833   4.772   8.262  0.4724 -0.1327 -0.2238
 1593TIP3    H126338   2.755   4.782   8.207 -0.0802  1.1247  0.7368
 1593TIP3    H226339   2.892   4.841   8.232  1.2958 -1.1795 -1.0511
 1594TIP3   OH226340   1.042   3.694   0.487  0.1569 -0.0054 -0.1712
 1594TIP3    H126341   1.018   3.787   0.481  0.0023 -0.0607 -0.4588
 1594TIP3    H226342   1.091   3.687   0.568 -1.4687 -0.0302  0.8522
 1595TIP3   OH226343   0.750   4.789   8.020  0.1188 -0.6285 -0.0349
 1595TIP3    H126344   0.812   4.717   8.006  0.7730 -0.1374  0.3191
 1595TIP3    H226345   0.772   4.823   8.107  1.4636  1.5862 -1.1503
 1596TIP3   OH226346   5.523   4.472   0.358 -0.6490  0.3339  0.4354
 1596TIP3    H126347   5.492   4.435   0.275 -1.0691 -2.5989  1.7583
 1596TIP3    H226348   5.469   4.429   0.424  1.3255  0.7051  2.3806
 1597TIP3   OH226349   5.310   4.647   7.245  0.3058  0.5680  0.2143
 1597TIP3    H126350   5.239   4.638   7.183  0.1121  0.9193  0.3826
 1597TIP3    H226351   5.370   4.709   7.204 -0.2999  1.5665  0.7976
 1598TIP3   OH226352   4.913   3.102   2.747 -0.1907 -0.4498  0.1724
 1598TIP3    H126353   4.840   3.110   2.685  1.0337 -2.8872 -1.7503
 1598TIP3    H226354   4.939   3.010   2.742  1.3519 -0.2542  2.7992
 1599TIP3   OH226355   4.374   1.668   3.474 -0.0782  0.3101 -0.2420
 1599TIP3    H126356   4.301   1.638   3.420 -1.0377  0.0575  1.1596
 1599TIP3    H226357   4.408   1.589   3.515  2.3074  0.1088 -2.3551
 1600TIP3   OH226358   2.983   2.850   0.865 -0.1378  0.2896 -0.5761
 1600TIP3    H126359   3.051   2.916   0.874  0.9401 -0.7606 -0.7978
 1600TIP3    H226360   2.998   2.789   0.937 -1.0452  0.2098 -0.4346
 1601TIP3   OH226361   6.965   5.599   0.562  0.2328  0.0952  0.0732
 1601TIP3    H126362   7.003   5.685   0.542 -0.2182  1.3293  3.7268
 1601TIP3    H226363   7.036   5.537   0.547  1.0541  1.2742 -1.1311
 1602TIP3   OH226364   4.871   5.029   0.199 -0.3971 -0.3066 -0.6130
 1602TIP3    H126365   4.836   5.112   0.232  2.2388  0.2975  0.9744
 1602TIP3    H226366   4.813   5.004   0.128 -2.5199  1.7935  0.2768
 1603TIP3   OH226367   1.297   5.221   2.360 -0.0330  0.5602  1.0517
 1603TIP3    H126368   1.294   5.292   2.295 -1.3710 -0.0687  0.3705
 1603TIP3    H226369   1.257   5.259   2.438 -3.1294 -0.0836 -0.0721
 1604TIP3   OH226370   3.385   0.988   3.242 -0.1258 -0.5230  0.2753
 1604TIP3    H126371   3.329   0.916   3.210 -0.8344  0.1199  0.0298
 1604TIP3    H226372   3.419   1.029   3.163 -0.2379 -0.1913  0.3983
 1605TIP3   OH226373   1.028   4.664   1.577  0.0263  0.0090  0.0961
 1605TIP3    H126374   0.965   4.665   1.649 -0.3393 -1.2735 -0.1792
 1605TIP3    H226375   0.976   4.643   1.500  0.5167  0.7261 -0.4367
 1606TIP3   OH226376   1.547   5.673   0.637  0.1496 -0.5368 -0.7423
 1606TIP3    H126377   1.509   5.598   0.591 -3.2924 -1.7827  3.4895
 1606TIP3    H226378   1.496   5.748   0.607 -3.1181 -1.5633  1.7736
 1607TIP3   OH226379   5.986   6.068   2.418  0.1092  0.1192 -0.7704
 1607TIP3    H126380   5.986   5.998   2.484  0.2643 -0.6277 -1.5386
 1607TIP3    H226381   5.915   6.126   2.444  0.2692 -0.0841  0.1388
 1608TIP3   OH226382   3.239   3.223   1.827 -0.3192  0.2036 -0.1382
 1608TIP3    H126383   3.184   3.260   1.758 -2.3828  0.4090  1.5109
 1608TIP3    H226384   3.194   3.143   1.853  2.0231 -1.4960 -0.9901
 1609TIP3   OH226385   3.280   3.033   1.299  0.0520  0.5637 -0.3304
 1609TIP3    H126386   3.220   2.986   1.241  0.0331  0.1695 -0.0003
 1609TIP3    H226387   3.241   3.022   1.386  0.5133  0.4563 -0.1365
 1610TIP3   OH226388   0.603   5.401   2.786 -0.0778 -0.0436  0.2993
 1610TIP3    H126389   0.600   5.427   2.878  1.2588  0.0204  0.3456
 1610TIP3    H226390   0.573   5.310   2.786 -0.6079  0.1226  0.7130
 1611TIP3   OH226391   0.519   6.988   1.997 -0.3836  0.0198  0.0305
 1611TIP3    H126392   0.473   6.961   1.918 -1.1230  0.9012  0.1303
 1611TIP3    H226393   0.457   7.047   2.041  0.8306  1.2571  0.1692
 1612TIP3   OH226394   4.492   7.028   1.610 -0.6625 -0.0630  0.1434
 1612TIP3    H126395   4.446   6.944   1.607  0.3998 -0.7228  1.4700
 1612TIP3    H226396   4.532   7.037   1.523 -2.1966 -0.0691 -0.6004
 1613TIP3   OH226397   3.513   6.592   0.161  0.8099 -0.4059 -0.3720
 1613TIP3    H126398   3.472   6.506   0.167  1.8970 -0.9291 -0.2463
 1613TIP3    H226399   3.518   6.610   0.067 -0.0833 -0.1418 -0.3769
 1614TIP3   OH226400   3.895   4.724   2.865 -0.4457 -0.3842  0.2066
 1614TIP3    H126401   3.971   4.722   2.806 -0.8805  2.0355 -0.5686
 1614TIP3    H226402   3.822   4.695   2.810 -0.8033  1.6209 -0.5003
 1615TIP3   OH226403   0.321   4.236   1.660 -0.0824  0.0221 -0.5289
 1615TIP3    H126404   0.306   4.160   1.605  1.1861 -0.1929 -0.6134
 1615TIP3    H226405   0.413   4.258   1.645  0.6095 -0.6270  2.2258
 1616TIP3   OH226406   3.453   1.868   2.054 -0.5377  0.0617 -0.6495
 1616TIP3    H126407   3.481   1.777   2.049 -0.3819  0.1033 -0.5421
 1616TIP3    H226408   3.367   1.865   2.095  0.2805  0.1132  1.1293
 1617TIP3   OH226409   4.245   0.936   3.528 -0.1976 -0.1531 -0.1747
 1617TIP3    H126410   4.161   0.926   3.483  0.2321  0.5013 -1.1542
 1617TIP3    H226411   4.295   0.858   3.505  0.1213  0.3079 -1.0724
 1618TIP3   OH226412   3.826   0.241   2.487 -0.4260 -0.1921 -0.5956
 1618TIP3    H126413   3.882   0.310   2.452 -1.3631  1.9981  1.9153
 1618TIP3    H226414   3.851   0.232   2.578 -1.5688 -1.9441 -0.3929
 1619TIP3   OH226415   0.910   2.929   7.340  0.4591 -0.0861 -0.1071
 1619TIP3    H126416   0.930   2.932   7.247 -1.9038 -0.5738 -0.7154
 1619TIP3    H226417   0.815   2.913   7.343  0.6427 -1.1827  2.3692
 1620TIP3   OH226418   5.035   1.117   1.106 -0.2302  0.2215  0.5962
 1620TIP3    H126419   5.083   1.195   1.079 -0.8037  0.6094  0.6758
 1620TIP3    H226420   4.952   1.123   1.060 -0.7158  0.2276  1.4438
 1621TIP3   OH226421   4.865   5.202   3.131 -0.1339 -0.0519 -0.0087
 1621TIP3    H126422   4.910   5.259   3.194 -0.2448  0.5388 -0.4547
 1621TIP3    H226423   4.806   5.150   3.185 -0.8164  1.0106  0.3137
 1622TIP3   OH226424   3.232   3.573   7.355  0.1006  0.0157  0.1629
 1622TIP3    H126425   3.191   3.648   7.398  0.5351  0.6650 -0.5305
 1622TIP3    H226426   3.171   3.549   7.286 -0.1913 -0.4918  0.5825
 1623TIP3   OH226427   2.669   2.246   2.610  0.1318 -0.2274 -0.6038
 1623TIP3    H126428   2.750   2.262   2.560  0.8051 -1.5634 -0.0060
 1623TIP3    H226429   2.659   2.323   2.665  2.0358 -0.7691  0.6283
 1624TIP3   OH226430   0.111   3.038   7.418  0.0044  0.4430  0.0694
 1624TIP3    H126431   0.153   3.113   7.374  0.0790  0.1799 -0.3161
 1624TIP3    H226432   0.087   2.979   7.346  2.2496 -1.1165  0.4819
 1625TIP3   OH226433   6.413   3.578   0.456 -0.0329  0.1929  0.8221
 1625TIP3    H126434   6.451   3.490   0.456  0.2453  0.3098  0.3790
 1625TIP3    H226435   6.345   3.575   0.387 -0.5060  0.1219  1.2854
 1626TIP3   OH226436   5.937   6.617   7.137 -0.1929 -0.2466  0.4279
 1626TIP3    H126437   5.888   6.685   7.185 -0.9600 -1.1676  0.9782
 1626TIP3    H226438   5.881   6.540   7.141  0.2877 -0.6985 -0.9204
 1627TIP3   OH226439   6.200   2.656   1.164  0.0397  0.1252 -0.1113
 1627TIP3    H126440   6.203   2.727   1.099 -1.5534  0.2160 -0.1109
 1627TIP3    H226441   6.191   2.577   1.111  2.8476 -0.2747 -0.1783
 1628TIP3   OH226442   2.439   3.457   2.565 -0.4088 -0.1420  0.3571
 1628TIP3    H126443   2.366   3.496   2.518 -1.7177 -1.3846  1.2845
 1628TIP3    H226444   2.452   3.372   2.524  0.1189 -0.1793  0.5926
 1629TIP3   OH226445   6.533   0.932   0.600  0.6183  0.0067 -0.2596
 1629TIP3    H126446   6.448   0.918   0.641  1.3028 -1.5099  0.7456
 1629TIP3    H226447   6.513   0.958   0.510 -0.9334 -2.0668 -0.5907
 1630TIP3   OH226448   4.334   1.607   8.105 -0.0064 -0.0424  0.3106
 1630TIP3    H126449   4.338   1.517   8.136  0.0116 -1.0729 -2.4807
 1630TIP3    H226450   4.397   1.654   8.160 -0.5023 -1.5390  2.2567
 1631TIP3   OH226451   2.024   6.076   1.084  0.0214  0.4542  0.2126
 1631TIP3    H126452   1.993   6.053   0.996  2.9425 -0.5887 -0.6528
 1631TIP3    H226453   2.010   5.997   1.136 -0.7148  0.7146  0.4231
 1632TIP3   OH226454   6.419   2.611   7.704 -0.5078  0.0825  0.1194
 1632TIP3    H126455   6.486   2.654   7.758  0.3416 -0.2222 -0.6807
 1632TIP3    H226456   6.340   2.664   7.719 -0.0857  0.4831  1.0256
 1633TIP3   OH226457   5.558   0.405   7.489 -0.0916  0.0834 -0.2795
 1633TIP3    H126458   5.634   0.389   7.433 -0.2677 -0.9291 -0.2498
 1633TIP3    H226459   5.590   0.464   7.557  0.1100  1.3798 -1.4612
 1634TIP3   OH226460   2.419   6.040   1.617  0.3126 -0.2127  0.5301
 1634TIP3    H126461   2.476   6.017   1.544 -0.0419 -0.4903  0.3383
 1634TIP3    H226462   2.333   6.053   1.578  0.7023  2.6816  0.4109
 1635TIP3   OH226463   2.063   2.154   0.620 -0.2156  0.0624 -0.1422
 1635TIP3    H126464   2.113   2.099   0.560 -1.6238 -2.8796  1.1833
 1635TIP3    H226465   2.116   2.156   0.700 -0.2301  0.6132 -0.1386
 1636TIP3   OH226466   4.629   2.622   0.611  0.0902 -0.1396 -0.0649
 1636TIP3    H126467   4.625   2.717   0.609  2.8930  0.0584 -0.6695
 1636TIP3    H226468   4.647   2.601   0.703  0.3732  0.0066 -0.0844
 1637TIP3   OH226469   2.271   3.836   2.433  0.0881 -0.0295 -0.0652
 1637TIP3    H126470   2.318   3.899   2.378  0.0338 -0.7572 -0.9769
 1637TIP3    H226471   2.256   3.882   2.515 -0.4390  1.3402 -0.8981
 1638TIP3   OH226472   1.353   0.094   1.731  0.4145 -0.3111 -0.6055
 1638TIP3    H126473   1.381   0.171   1.781 -0.6129 -0.2404 -0.1141
 1638TIP3    H226474   1.383   0.019   1.783  0.8076 -0.2485 -0.7366
 1639TIP3   OH226475   5.707   0.823   7.988 -0.5897  0.5235 -0.2708
 1639TIP3    H126476   5.782   0.877   8.013 -0.3045 -0.1004  0.2760
 1639TIP3    H226477   5.679   0.857   7.903  0.1584  0.9302 -0.3616
 1640TIP3   OH226478   0.686   0.678   0.826 -0.0009  0.0045 -0.1902
 1640TIP3    H126479   0.720   0.712   0.743  1.7157  0.0471  0.5074
 1640TIP3    H226480   0.601   0.723   0.837  0.2598  0.8335 -1.3643
 1641TIP3   OH226481   3.139   0.129   0.604  0.5806 -0.5971  0.0237
 1641TIP3    H126482   3.096   0.107   0.686 -0.0180  0.9281  0.1536
 1641TIP3    H226483   3.227   0.156   0.630  0.8816 -1.5172 -0.0051
 1642TIP3   OH226484   3.538   4.759   8.121 -0.2471 -0.3112  0.5796
 1642TIP3    H126485   3.464   4.724   8.072 -1.7397  0.4286  2.1720
 1642TIP3    H226486   3.524   4.854   8.120  1.2356 -0.0700  0.1204
 1643TIP3   OH226487   4.990   3.164   1.170  0.0457  0.1392  0.6518
 1643TIP3    H126488   4.963   3.087   1.121 -0.7302  0.6216  0.3027
 1643TIP3    H226489   5.080   3.145   1.197 -0.8237 -1.8562  2.5055
 1644TIP3   OH226490   1.130   1.819   1.217  0.0754  0.2259  0.4793
 1644TIP3    H126491   1.086   1.897   1.252 -0.2677  0.2383  0.0341
 1644TIP3    H226492   1.059   1.767   1.179  0.4127  0.1316 -0.0263
 1645TIP3   OH226493   1.387   1.327   3.246 -0.1582 -0.0120 -0.3965
 1645TIP3    H126494   1.432   1.253   3.205 -2.4834 -2.3580  1.0031
 1645TIP3    H226495   1.406   1.316   3.340 -1.8993  0.1526 -0.0039
 1646TIP3   OH226496   0.132   4.980   0.126 -0.1286 -0.0789  0.0073
 1646TIP3    H126497   0.064   4.947   0.185  0.2339 -1.8248 -0.4997
 1646TIP3    H226498   0.193   5.027   0.183 -0.5493 -0.4761  0.7945
 1647TIP3   OH226499   4.311   6.963   1.404  0.5657 -0.0557  0.4742
 1647TIP3    H126500   4.281   7.050   1.430  1.0028  0.4143 -0.5267
 1647TIP3    H226501   4.391   6.980   1.353 -0.9538 -0.7432 -2.3756
 1648TIP3   OH226502   1.704   6.226   2.048 -0.2774  0.2115  0.6137
 1648TIP3    H126503   1.686   6.168   2.122 -1.5725 -0.2671 -0.0544
 1648TIP3    H226504   1.704   6.168   1.972 -1.0191  0.9985  0.0009
 1649TIP3   OH226505   5.246   5.495   7.925  0.4943 -0.6273 -0.0286
 1649TIP3    H126506   5.260   5.420   7.983  0.6127 -0.3841  0.2597
 1649TIP3    H226507   5.333   5.531   7.909  0.3693 -0.0820  0.4694
 1650TIP3   OH226508   1.021   6.493   7.817  0.0383  0.5787  0.1973
 1650TIP3    H126509   1.079   6.431   7.862 -0.7378 -0.3966 -0.0909
 1650TIP3    H226510   0.994   6.447   7.737 -0.2995  1.4267 -0.1935
 1651TIP3   OH226511   5.475   0.592   2.198  0.4206 -0.1337  0.7308
 1651TIP3    H126512   5.482   0.644   2.279  0.9028 -1.6064  1.6777
 1651TIP3    H226513   5.394   0.542   2.209  0.0701  0.2502 -0.0732
 1652TIP3   OH226514   0.547   4.142   3.136 -0.7373 -0.5100  0.3384
 1652TIP3    H126515   0.562   4.198   3.212 -0.8566  0.1756 -0.1318
 1652TIP3    H226516   0.456   4.158   3.112 -0.5846 -0.4100 -0.1899
 1653TIP3   OH226517   6.961   2.314   1.847 -0.1531  0.3990 -0.1247
 1653TIP3    H126518   6.879   2.270   1.869  0.5509 -0.1527  1.5592
 1653TIP3    H226519   6.938   2.407   1.841 -1.1787  0.0833 -1.2263
 1654TIP3   OH226520   2.066   6.673   8.081 -0.4282 -0.7941 -0.1257
 1654TIP3    H126521   2.057   6.603   8.016 -1.0242 -2.6591  1.8452
 1654TIP3    H226522   1.976   6.693   8.107 -0.3641  1.6119 -1.4679
 1655TIP3   OH226523   5.982   0.898   0.579  0.6139  0.5231  0.6444
 1655TIP3    H126524   6.017   0.809   0.589 -0.3632  0.1784  1.0529
 1655TIP3    H226525   5.991   0.937   0.666  2.2754  1.3147  0.1704
 1656TIP3   OH226526   3.438   4.126   0.924  0.2415  0.8506 -0.0467
 1656TIP3    H126527   3.447   4.038   0.959 -1.9466  0.0983 -1.1907
 1656TIP3    H226528   3.513   4.174   0.959  1.3280 -1.3694  0.8328
 1657TIP3   OH226529   2.733   4.992   0.575 -0.1195 -0.1763 -0.3004
 1657TIP3    H126530   2.758   5.008   0.666  0.4717  0.8005 -0.6224
 1657TIP3    H226531   2.797   5.041   0.524 -0.4074 -0.7730 -1.2488
 1658TIP3   OH226532   3.078   3.583   3.477 -0.1520  0.4851 -0.0872
 1658TIP3    H126533   3.028   3.582   3.559 -0.6239 -1.4988 -0.3417
 1658TIP3    H226534   3.070   3.673   3.445 -2.0503  0.6700  0.7918
 1659TIP3   OH226535   2.564   6.921   7.234 -0.0740  0.4118 -0.1500
 1659TIP3    H126536   2.646   6.935   7.188  0.1354  1.3982  0.4946
 1659TIP3    H226537   2.568   6.981   7.309 -1.6003  0.8763 -0.4054
 1660TIP3   OH226538   3.693   1.123   1.458 -0.0640  0.6762  0.2259
 1660TIP3    H126539   3.639   1.056   1.502 -0.7806  0.9455 -0.2123
 1660TIP3    H226540   3.770   1.075   1.427  0.1400  0.3585  1.2003
 1661TIP3   OH226541   6.811   2.092   1.253  0.1101  0.5584  0.5384
 1661TIP3    H126542   6.742   2.086   1.187  0.3001 -4.1186  0.4115
 1661TIP3    H226543   6.768   2.068   1.335  1.1569 -0.5800  0.7877
 1662TIP3   OH226544   1.600   6.438   0.700 -0.6479 -0.0675 -0.2719
 1662TIP3    H126545   1.516   6.396   0.682 -0.3687 -0.2586 -1.1594
 1662TIP3    H226546   1.663   6.390   0.646 -0.0838  0.5415 -0.1653
 1663TIP3   OH226547   6.687   6.469   2.956  0.3412  0.0067  0.0907
 1663TIP3    H126548   6.635   6.537   2.912 -3.1005 -0.4077  3.0153
 1663TIP3    H226549   6.755   6.518   3.002 -1.3025  1.4819  1.1369
 1664TIP3   OH226550   5.499   6.223   1.159  0.4715  0.1652  0.3474
 1664TIP3    H126551   5.491   6.135   1.197 -0.4977 -0.1179 -0.4461
 1664TIP3    H226552   5.532   6.277   1.230  3.0028 -1.2162  0.3219
 1665TIP3   OH226553   2.681   5.519   0.856 -0.4500  0.2421 -0.4079
 1665TIP3    H126554   2.697   5.604   0.898  3.2147 -0.4278 -0.0451
 1665TIP3    H226555   2.613   5.478   0.910  0.3017  1.5446  1.6749
 1666TIP3   OH226556   5.304   2.937   2.777 -0.3359 -0.0122 -0.2443
 1666TIP3    H126557   5.274   2.956   2.688  1.0880 -0.3081 -0.8170
 1666TIP3    H226558   5.366   3.008   2.796  1.6440 -1.5437 -0.6869
 1667TIP3   OH226559   1.809   5.568   7.495  0.0258 -0.3486  0.9588
 1667TIP3    H126560   1.877   5.509   7.465  1.2310  0.5956  1.7666
 1667TIP3    H226561   1.740   5.560   7.429  1.2115 -0.7792 -0.2762
 1668TIP3   OH226562   5.751   4.369   0.744 -0.1161 -0.0737  0.6298
 1668TIP3    H126563   5.826   4.425   0.723 -0.2119  0.3199  1.3018
 1668TIP3    H226564   5.781   4.314   0.816  0.7221 -2.4914 -1.4305
 1669TIP3   OH226565   6.810   4.088   1.150  0.0360 -0.8161 -0.2925
 1669TIP3    H126566   6.839   4.011   1.199  0.8083 -0.2330  0.2095
 1669TIP3    H226567   6.832   4.162   1.207  2.2499 -0.0029 -2.0556
 1670TIP3   OH226568   4.135   1.153   2.066  0.5183 -0.0794 -0.4463
 1670TIP3    H126569   4.226   1.131   2.044  0.7285  0.0274  0.2960
 1670TIP3    H226570   4.083   1.099   2.007  1.0594 -0.7101 -0.3651
 1671TIP3   OH226571   3.755   3.668   3.865 -0.0850 -0.1588  0.6307
 1671TIP3    H126572   3.804   3.654   3.784 -2.1355 -0.6139 -0.6238
 1671TIP3    H226573   3.764   3.587   3.914 -0.7422 -0.8074 -0.2781
 1672TIP3   OH226574   1.720   4.441   7.183  0.0970 -0.4159  0.2140
 1672TIP3    H126575   1.808   4.458   7.217  0.0062 -0.2046  0.3479
 1672TIP3    H226576   1.680   4.382   7.246  0.1223 -0.4671  0.1826
 1673TIP3   OH226577   3.838   6.945   2.514  0.0378  0.2866 -0.6523
 1673TIP3    H126578   3.912   7.006   2.510  0.2861 -0.0594 -2.0639
 1673TIP3    H226579   3.879   6.859   2.521 -0.3154  0.2367  1.3815
 1674TIP3   OH226580   1.866   0.414   0.729  0.3809 -0.6355 -0.2712
 1674TIP3    H126581   1.916   0.472   0.672  1.2655 -1.6429 -0.5444
 1674TIP3    H226582   1.906   0.423   0.815 -0.4033  0.2263  0.0241
 1675TIP3   OH226583   5.394   6.246   7.828 -0.1393  0.7268  0.3339
 1675TIP3    H126584   5.423   6.197   7.751 -0.1646  1.1364  0.0581
 1675TIP3    H226585   5.299   6.250   7.819 -0.1907  0.3061  0.6747
 1676TIP3   OH226586   5.850   6.805   0.475  0.1175  0.1880 -0.4650
 1676TIP3    H126587   5.770   6.759   0.450 -1.1257  1.6074  0.7373
 1676TIP3    H226588   5.824   6.863   0.546  2.0774  1.2230 -0.5075
 1677TIP3   OH226589   0.278   4.647   2.985  0.4136  0.0537  0.2077
 1677TIP3    H126590   0.326   4.577   3.030  0.0728 -1.6451 -1.8984
 1677TIP3    H226591   0.193   4.607   2.964  1.1371  0.0811 -3.3479
 1678TIP3   OH226592   2.172   3.923   0.860  0.1737 -0.4214 -0.4115
 1678TIP3    H126593   2.144   3.991   0.799 -2.1957  1.3169  2.3919
 1678TIP3    H226594   2.237   3.966   0.916  0.0381 -1.0292  0.2240
 1679TIP3   OH226595   1.371   5.272   0.221 -0.2210  0.3588 -0.0007
 1679TIP3    H126596   1.454   5.226   0.217 -0.1973  0.3304  0.6904
 1679TIP3    H226597   1.394   5.365   0.223 -0.2284  0.3691 -0.3581
 1680TIP3   OH226598   0.380   2.947   2.139 -0.2937 -0.5017 -0.4479
 1680TIP3    H126599   0.463   2.933   2.185 -0.8179  0.4217  0.8491
 1680TIP3    H226600   0.393   3.027   2.089 -0.4514 -0.2573 -0.1018
 1681TIP3   OH226601   0.583   0.449   0.924  0.5346  0.2800 -0.4487
 1681TIP3    H126602   0.619   0.531   0.890  0.5061  0.5382  0.1309
 1681TIP3    H226603   0.508   0.476   0.977  0.9238 -0.0604  0.2893
 1682TIP3   OH226604   6.558   1.050   8.256  0.2663 -0.3748  0.2092
 1682TIP3    H126605   6.634   1.093   8.218  0.4162  0.2413  1.2085
 1682TIP3    H226606   6.507   1.120   8.296 -1.2359 -0.6548 -1.0669
 1683TIP3   OH226607   2.488   0.577   1.938 -0.4024  0.2225 -0.0551
 1683TIP3    H126608   2.523   0.640   1.874  2.5015 -0.5599  0.6445
 1683TIP3    H226609   2.510   0.615   2.023 -2.5917  0.3400  0.5305
 1684TIP3   OH226610   3.484   5.177   0.848  0.2374 -0.3039  0.0742
 1684TIP3    H126611   3.396   5.189   0.886  0.6964  1.2104  0.7375
 1684TIP3    H226612   3.479   5.220   0.762 -0.4825 -2.7914 -1.2274
 1685TIP3   OH226613   2.400   5.899   0.866  0.2067  0.5627  0.0425
 1685TIP3    H126614   2.315   5.888   0.824  0.6878  0.7471 -1.0114
 1685TIP3    H226615   2.461   5.849   0.812  0.8865  0.9929  0.3894
 1686TIP3   OH226616   3.183   3.659   8.026  0.3838  0.6039  0.2166
 1686TIP3    H126617   3.189   3.647   7.931  1.8422  2.9616 -0.0530
 1686TIP3    H226618   3.096   3.696   8.040  0.9553  2.3602 -0.5394
 1687TIP3   OH226619   4.952   4.459   1.737 -0.6330 -0.3012 -0.3000
 1687TIP3    H126620   4.977   4.412   1.817  1.6372  0.1388 -0.6758
 1687TIP3    H226621   4.937   4.390   1.673 -1.4891 -0.6289  0.2422
 1688TIP3   OH226622   1.003   6.275   1.856 -0.0253 -0.2313  0.0272
 1688TIP3    H126623   1.077   6.319   1.814 -1.3335  0.6072 -1.5374
 1688TIP3    H226624   0.930   6.337   1.847 -0.3221  0.2922  4.1747
 1689TIP3   OH226625   5.759   5.760   7.414 -0.6882  0.5038 -0.4390
 1689TIP3    H126626   5.744   5.735   7.506 -0.3484 -1.4335 -0.8666
 1689TIP3    H226627   5.675   5.796   7.385 -1.4038 -0.6805  0.0963
 1690TIP3   OH226628   1.032   6.874   2.885  0.2278 -0.1599 -0.0968
 1690TIP3    H126629   1.087   6.926   2.943  0.6182 -1.2682  0.5399
 1690TIP3    H226630   0.981   6.818   2.943  0.4304 -1.0940 -0.7983
 1691TIP3   OH226631   2.147   0.710   0.249  0.2986  0.1082 -0.3621
 1691TIP3    H126632   2.087   0.652   0.202  0.0658  1.3822 -1.6945
 1691TIP3    H226633   2.115   0.709   0.339 -1.6507  0.6503 -1.0031
 1692TIP3   OH226634   0.848   5.788   0.175  0.0253 -0.0060  0.0675
 1692TIP3    H126635   0.779   5.834   0.127  0.9349  0.5720 -0.7377
 1692TIP3    H226636   0.923   5.848   0.173 -0.1277  0.4485  2.9941
 1693TIP3   OH226637   1.058   0.950   7.963 -0.6953  0.4354 -0.4344
 1693TIP3    H126638   1.070   0.890   7.890  1.3930  0.8268 -0.4733
 1693TIP3    H226639   1.134   1.008   7.960 -1.2575  1.3533  1.2297
 1694TIP3   OH226640   6.098   6.772   0.576  0.7635  0.4152 -0.3515
 1694TIP3    H126641   6.017   6.776   0.527 -0.0145  0.4074  0.8860
 1694TIP3    H226642   6.153   6.710   0.527 -0.3541 -0.3578 -0.6584
 1695TIP3   OH226643   0.209   3.862   2.131 -0.2586  0.0129  0.1227
 1695TIP3    H126644   0.182   3.779   2.093 -0.0455 -0.1645  0.3489
 1695TIP3    H226645   0.299   3.875   2.099 -1.4302  1.9388 -2.8730
 1696TIP3   OH226646   3.783   5.228   2.606 -0.0062  0.1977 -0.3113
 1696TIP3    H126647   3.751   5.197   2.522  0.4680 -2.1926  0.2938
 1696TIP3    H226648   3.874   5.252   2.590 -0.1186  0.4218 -0.6183
 1697TIP3   OH226649   4.860   6.637   7.476  0.4744  0.4114  0.0351
 1697TIP3    H126650   4.910   6.558   7.457  2.0269  1.7148 -1.6470
 1697TIP3    H226651   4.805   6.649   7.398  1.7079  2.0064 -0.6418
 1698TIP3   OH226652   0.086   4.063   1.981 -0.2826 -0.3233  0.1830
 1698TIP3    H126653   0.156   4.004   2.006  0.8750  1.2842  0.8738
 1698TIP3    H226654   0.044   4.087   2.063 -0.0065  0.6745  0.0470
 1699TIP3   OH226655   4.331   0.214   1.795  0.3570 -0.4834  0.1325
 1699TIP3    H126656   4.315   0.145   1.860  0.7319 -0.3437  0.3774
 1699TIP3    H226657   4.371   0.284   1.845 -1.7838  0.7149  0.2949
 1700TIP3   OH226658   0.780   1.697   2.921 -0.2221  0.1890 -0.4645
 1700TIP3    H126659   0.812   1.783   2.946 -2.3173  0.8841  0.0430
 1700TIP3    H226660   0.834   1.636   2.972  1.6740  1.1264 -1.2670
 1701TIP3   OH226661   5.681   3.224   6.883  0.8597 -0.0976 -0.6295
 1701TIP3    H126662   5.692   3.129   6.890  1.3696 -0.0354 -0.5492
 1701TIP3    H226663   5.680   3.255   6.974 -1.0387 -0.2034 -0.5795
 1702TIP3   OH226664   4.715   5.455   3.168 -0.0136  0.3829  0.0585
 1702TIP3    H126665   4.806   5.464   3.199  0.0220  0.2574 -0.0099
 1702TIP3    H226666   4.706   5.362   3.149 -0.6706  0.0730  1.6853
 1703TIP3   OH226667   4.119   2.288   3.290 -0.5598 -0.2678 -0.7358
 1703TIP3    H126668   4.094   2.239   3.367 -0.4823 -1.1351 -1.2491
 1703TIP3    H226669   4.142   2.222   3.225  0.4495  0.4613 -1.1479
 1704TIP3   OH226670   1.746   5.975   0.437 -0.0689 -0.1589  0.3171
 1704TIP3    H126671   1.755   6.068   0.418 -2.9538  0.2691  0.6589
 1704TIP3    H226672   1.702   5.939   0.361 -1.4300 -0.6768  1.3157
 1705TIP3   OH226673   0.372   3.366   7.994 -0.0313 -0.2809 -0.3263
 1705TIP3    H126674   0.418   3.396   8.073  1.3482 -3.2912  0.1459
 1705TIP3    H226675   0.376   3.441   7.934  1.7880  1.0074  1.2745
 1706TIP3   OH226676   2.322   4.120   7.100  0.2843  0.2966  0.4759
 1706TIP3    H126677   2.401   4.084   7.060 -0.8932  0.6773 -2.4104
 1706TIP3    H226678   2.251   4.070   7.061 -1.0412  1.5361  1.2157
 1707TIP3   OH226679   0.441   4.104   0.579 -0.1574  0.5405 -0.3422
 1707TIP3    H126680   0.363   4.159   0.585  0.4303  1.2981  0.6462
 1707TIP3    H226681   0.471   4.116   0.489 -0.7478  0.8368 -0.5098
 1708TIP3   OH226682   2.787   5.147   1.482  0.0036  0.4790 -0.3990
 1708TIP3    H126683   2.863   5.128   1.537 -0.5485 -1.0159 -0.0910
 1708TIP3    H226684   2.716   5.098   1.522 -0.5945 -0.0334 -1.9944
 1709TIP3   OH226685   2.676   2.548   1.377 -0.2865  0.5655 -0.3702
 1709TIP3    H126686   2.675   2.513   1.466  1.9659 -1.4304 -1.0038
 1709TIP3    H226687   2.612   2.495   1.330  1.6166 -1.4878 -0.8355
 1710TIP3   OH226688   6.407   0.187   2.497  0.1251  0.6486  0.1950
 1710TIP3    H126689   6.428   0.107   2.546 -0.3478 -0.0379 -0.7107
 1710TIP3    H226690   6.321   0.171   2.459  0.3579  1.2776 -0.6355
 1711TIP3   OH226691   4.957   1.614   1.021  0.0119  0.3807 -0.2028
 1711TIP3    H126692   4.899   1.563   0.964  1.0165  0.9456 -1.8017
 1711TIP3    H226693   5.041   1.615   0.975  0.4700  2.0938  0.5948
 1712TIP3   OH226694   4.597   2.229   2.363  0.4174  0.3741  0.0373
 1712TIP3    H126695   4.548   2.302   2.326 -1.1263 -0.6371 -0.0211
 1712TIP3    H226696   4.620   2.258   2.452 -2.5979 -0.0147  1.0776
 1713TIP3   OH226697   3.920   2.911   1.131 -0.0486  0.6467  0.5577
 1713TIP3    H126698   3.943   2.953   1.214  1.2479  0.2884  0.3940
 1713TIP3    H226699   3.896   2.821   1.156  2.3815 -0.1218  0.3752
 1714TIP3   OH226700   3.843   1.169   7.554 -0.4280  0.4507  0.4706
 1714TIP3    H126701   3.784   1.244   7.558  0.0523  0.8046  1.0582
 1714TIP3    H226702   3.798   1.100   7.602 -0.5968  0.5571  0.4651
 1715TIP3   OH226703   5.159   6.584   6.946  0.1440 -0.1566  0.3357
 1715TIP3    H126704   5.101   6.518   6.909  0.7150 -0.0992 -0.6953
 1715TIP3    H226705   5.108   6.665   6.944 -0.8108 -0.6618  2.2538
 1716TIP3   OH226706   6.894   2.055   2.646 -0.1583  0.2846  0.0185
 1716TIP3    H126707   6.880   1.972   2.599 -0.2381  0.5312 -0.4002
 1716TIP3    H226708   6.807   2.096   2.648 -0.3657 -0.1862  1.2826
 1717TIP3   OH226709   3.011   0.759   1.989 -0.1813 -0.0350  0.3055
 1717TIP3    H126710   2.985   0.669   1.970  1.2796 -0.0210 -2.1544
 1717TIP3    H226711   2.943   0.813   1.949 -0.3536 -0.0510  0.5805
 1718TIP3   OH226712   5.361   6.998   0.584  0.1922 -0.2425  0.6006
 1718TIP3    H126713   5.288   7.009   0.644 -1.6639 -0.7692 -1.4351
 1718TIP3    H226714   5.353   7.072   0.523  1.2245 -0.4346  0.2090
 1719TIP3   OH226715   1.231   1.605   2.634 -0.1822 -0.2897 -0.1636
 1719TIP3    H126716   1.182   1.573   2.710 -0.1622 -1.5638 -0.6523
 1719TIP3    H226717   1.214   1.539   2.566  0.5452  0.3414 -0.9781
 1720TIP3   OH226718   6.564   5.575   7.834 -0.5783 -0.0816 -0.2909
 1720TIP3    H126719   6.501   5.640   7.864  0.1062  0.6478 -0.3964
 1720TIP3    H226720   6.562   5.583   7.738 -0.2494  0.0270 -0.2904
 1721TIP3   OH226721   0.212   5.490   0.332 -0.1589 -0.8640 -0.1707
 1721TIP3    H126722   0.211   5.458   0.242  0.4303 -0.4075 -0.3409
 1721TIP3    H226723   0.304   5.486   0.359 -0.1858 -0.0336  0.0604
 1722TIP3   OH226724   4.204   4.084   7.465 -0.5466 -0.2280 -0.8008
 1722TIP3    H126725   4.213   4.118   7.376 -0.6988 -0.0116 -0.7347
 1722TIP3    H226726   4.113   4.053   7.470 -0.8983  0.8445 -0.3516
 1723TIP3   OH226727   5.600   6.716   0.803 -0.0810 -0.7541  0.4685
 1723TIP3    H126728   5.621   6.768   0.726  0.2215  2.1997  2.3890
 1723TIP3    H226729   5.573   6.631   0.768  0.7894  0.1735 -2.7987
 1724TIP3   OH226730   4.315   0.820   7.425  0.3090  0.1747 -0.0303
 1724TIP3    H126731   4.231   0.774   7.427  0.9933 -1.2138 -1.2177
 1724TIP3    H226732   4.301   0.892   7.363 -0.2832  0.5777  0.5541
 1725TIP3   OH226733   2.188   6.969   1.321  0.6249 -0.1923  0.2314
 1725TIP3    H126734   2.094   6.956   1.333  0.5398 -0.2286 -0.4437
 1725TIP3    H226735   2.218   7.008   1.403 -0.2460  1.2392 -0.1077
 1726TIP3   OH226736   7.019   1.551   3.211 -0.2135  0.2935  0.1739
 1726TIP3    H126737   7.008   1.456   3.221 -1.8718  0.6025  1.8967
 1726TIP3    H226738   7.112   1.562   3.194  0.8386 -1.4736  3.7029
 1727TIP3   OH226739   1.658   4.954   0.963  0.2845  0.1334  0.1079
 1727TIP3    H126740   1.717   4.910   0.902 -0.3785  1.0496 -1.2766
 1727TIP3    H226741   1.570   4.928   0.934 -0.1256  2.1326 -0.6706
 1728TIP3   OH226742   4.239   3.879   2.968 -0.8527  0.5452  0.3127
 1728TIP3    H126743   4.199   3.817   2.907  1.2699 -0.5997 -0.0183
 1728TIP3    H226744   4.230   3.838   3.054 -2.0602  1.2209  0.5369
 1729TIP3   OH226745   1.210   0.410   1.578 -0.1263 -0.2734  0.0916
 1729TIP3    H126746   1.273   0.372   1.639 -0.4021 -1.9251 -0.6007
 1729TIP3    H226747   1.128   0.414   1.628  0.5470  2.2471  1.1216
 1730TIP3   OH226748   1.743   0.834   0.481 -0.2742  0.6018 -0.7242
 1730TIP3    H126749   1.814   0.895   0.462  0.1439 -0.1388 -1.6207
 1730TIP3    H226750   1.669   0.866   0.430 -0.5672  1.3176  0.1326
 1731TIP3   OH226751   0.160   1.662   2.869  0.7090 -0.2641  0.0589
 1731TIP3    H126752   0.147   1.737   2.811 -0.4562 -0.7771 -0.3871
 1731TIP3    H226753   0.092   1.600   2.843  0.7890 -0.9208  1.3279
 1732TIP3   OH226754   0.332   5.340   2.585  0.5804 -0.3366  0.0339
 1732TIP3    H126755   0.374   5.399   2.522 -2.3972  1.9121 -0.0729
 1732TIP3    H226756   0.403   5.284   2.616  2.4523 -0.9996 -4.5367
 1733TIP3   OH226757   6.935   3.436   1.640  0.1810 -0.0874  0.3125
 1733TIP3    H126758   6.933   3.532   1.645 -2.0865 -0.0877  0.4743
 1733TIP3    H226759   6.985   3.417   1.561 -0.4472  1.2977 -0.4606
 1734TIP3   OH226760   2.555   3.771   3.005  0.4294  0.1956  0.7010
 1734TIP3    H126761   2.473   3.805   3.042 -1.3930 -2.7890 -0.2489
 1734TIP3    H226762   2.545   3.780   2.911  1.7537  0.8484  0.6000
 1735TIP3   OH226763   1.856   5.258   2.343 -0.1532  0.3555  0.4737
 1735TIP3    H126764   1.818   5.317   2.407  0.4737  0.4587  0.7514
 1735TIP3    H226765   1.800   5.267   2.266 -2.6269 -1.7870  1.8314
 1736TIP3   OH226766   6.206   0.370   2.373  0.4108 -0.2257 -0.5242
 1736TIP3    H126767   6.124   0.322   2.384  1.2620 -1.7907 -0.7439
 1736TIP3    H226768   6.214   0.423   2.452 -1.0563  0.3623 -0.7440
 1737TIP3   OH226769   3.794   3.487   2.603 -0.4096 -0.1134 -0.5268
 1737TIP3    H126770   3.734   3.419   2.634  0.0260 -0.1006  0.3526
 1737TIP3    H226771   3.876   3.440   2.585 -0.0494  0.2028  0.2630
 1738TIP3   OH226772   1.553   1.703   2.401  0.8409  0.2951  0.6120
 1738TIP3    H126773   1.511   1.758   2.467 -1.3300 -0.0859 -0.3356
 1738TIP3    H226774   1.559   1.760   2.324  0.6212 -0.1169  0.2850
 1739TIP3   OH226775   5.205   2.590   2.764 -0.1593  0.4173  0.5978
 1739TIP3    H126776   5.290   2.612   2.802  0.7325 -0.6100 -0.7083
 1739TIP3    H226777   5.146   2.585   2.839  1.4804 -1.2886  1.8907
 1740TIP3   OH226778   4.754   4.185   2.568  0.7019 -0.1549  0.5510
 1740TIP3    H126779   4.759   4.149   2.657 -1.9247 -0.6910  0.5690
 1740TIP3    H226780   4.774   4.278   2.579 -0.5411 -0.0108  1.9123
 1741TIP3   OH226781   6.784   6.212   1.888 -0.0903 -0.4785 -0.5069
 1741TIP3    H126782   6.732   6.277   1.934  1.3004  0.7554 -0.6088
 1741TIP3    H226783   6.760   6.128   1.927  0.6852  0.4581  2.1479
 1742TIP3   OH226784   6.468   5.777   0.883 -0.4477 -0.1299  0.3135
 1742TIP3    H126785   6.408   5.777   0.808 -1.0403  1.3288  0.7475
 1742TIP3    H226786   6.420   5.822   0.952  0.1552 -1.3150  1.5394
 1743TIP3   OH226787   3.864   0.808   7.701 -0.5089  0.0588  0.2792
 1743TIP3    H126788   3.952   0.839   7.722 -0.5257 -0.2946  0.8843
 1743TIP3    H226789   3.808   0.883   7.719 -0.3787  0.1592  0.2727
 1744TIP3   OH226790   3.906   0.108   1.578  0.2968 -0.1094  0.2311
 1744TIP3    H126791   3.894   0.065   1.493 -0.0579  1.1552 -0.3839
 1744TIP3    H226792   3.963   0.182   1.559  0.3831  0.0666  1.1464
 1745TIP3   OH226793   6.586   1.002   7.869  0.3278 -0.4249 -0.6037
 1745TIP3    H126794   6.550   1.090   7.879  0.7240 -0.2467 -0.6989
 1745TIP3    H226795   6.614   0.977   7.957 -0.2431 -0.6597 -0.4884
 1746TIP3   OH226796   3.358   1.798   1.730  0.2622 -0.1648 -0.7795
 1746TIP3    H126797   3.297   1.729   1.757 -0.1706 -0.1923 -1.7885
 1746TIP3    H226798   3.333   1.873   1.783 -0.2192 -0.3683 -0.7091
 1747TIP3   OH226799   2.265   6.160   8.063  0.1615  0.2558  0.7021
 1747TIP3    H126800   2.274   6.126   7.974 -0.2715 -0.2132  0.8286
 1747TIP3    H226801   2.330   6.229   8.069  0.2777  0.2108  0.0584
 1748TIP3   OH226802   5.748   4.627   8.219 -0.0409  0.0152 -0.3994
 1748TIP3    H126803   5.807   4.613   8.293 -1.8583  0.1353  1.1462
 1748TIP3    H226804   5.753   4.546   8.168  1.9894  0.3142 -0.7372
 1749TIP3   OH226805   3.078   6.721   1.698 -0.1949  0.3328  0.3290
 1749TIP3    H126806   3.027   6.642   1.684  0.9337 -0.2546 -0.6504
 1749TIP3    H226807   3.020   6.780   1.746 -1.9814 -0.0780 -1.2529
 1750TIP3   OH226808   6.802   4.178   7.844  0.0031  0.2449 -0.2848
 1750TIP3    H126809   6.811   4.197   7.751  0.5897  0.5656 -0.1696
 1750TIP3    H226810   6.825   4.260   7.888  0.9297 -0.2437  0.1722
 1751TIP3   OH226811   3.011   1.289   1.062  0.1008  0.6136 -0.2855
 1751TIP3    H126812   3.005   1.385   1.061  0.7539  0.7383  1.6752
 1751TIP3    H226813   2.985   1.265   1.151  0.8216 -0.9626 -0.4635
 1752TIP3   OH226814   4.238   2.392   2.754  0.1472 -0.2891 -0.2445
 1752TIP3    H126815   4.202   2.460   2.697 -0.6692 -0.5267 -0.0347
 1752TIP3    H226816   4.211   2.418   2.842 -1.2122 -1.4709 -0.2658
 1753TIP3   OH226817   5.916   1.141   1.239 -0.4394  0.2155  0.1072
 1753TIP3    H126818   5.883   1.231   1.241 -0.2806  0.2706  0.2797
 1753TIP3    H226819   6.007   1.149   1.209 -0.2208  0.1768  0.7465
 1754TIP3   OH226820   4.606   5.162   0.821  0.0691 -0.1092  0.0405
 1754TIP3    H126821   4.552   5.174   0.743 -0.8736  1.9363  0.9484
 1754TIP3    H226822   4.543   5.156   0.893  0.9786  1.6373  1.0470
 1755TIP3   OH226823   5.900   1.404   0.204  0.3799 -0.3681 -0.2823
 1755TIP3    H126824   5.822   1.452   0.175 -0.5507 -1.2940  0.6184
 1755TIP3    H226825   5.916   1.339   0.135  0.4616 -0.0650 -0.5493
 1756TIP3   OH226826   5.214   1.625   0.889 -0.2645  0.5248  0.4291
 1756TIP3    H126827   5.284   1.688   0.906 -0.4276  0.7408  0.3041
 1756TIP3    H226828   5.224   1.604   0.796  0.8383 -0.9038  0.8206
 1757TIP3   OH226829   4.397   0.156   3.674  0.0795  0.4276 -0.1104
 1757TIP3    H126830   4.311   0.160   3.630  0.4123  1.0207 -0.7293
 1757TIP3    H226831   4.431   0.069   3.651 -0.8851 -0.3180  1.1835
 1758TIP3   OH226832   1.912   2.005   7.940  0.3219 -0.3196 -0.1057
 1758TIP3    H126833   1.881   2.073   7.999 -2.3284 -0.3636 -1.2975
 1758TIP3    H226834   1.856   1.929   7.960  0.9338 -1.0535 -1.0956
 1759TIP3   OH226835   5.133   5.557   2.505  0.2277  0.8893  0.1752
 1759TIP3    H126836   5.110   5.600   2.587 -1.3272  0.8915 -0.2225
 1759TIP3    H226837   5.112   5.621   2.437 -1.7828 -0.2792 -0.4077
 1760TIP3   OH226838   5.398   4.779   7.018  0.2577 -0.0950 -0.3041
 1760TIP3    H126839   5.466   4.821   7.071 -0.7932  1.0907  0.1356
 1760TIP3    H226840   5.445   4.708   6.972  1.1918 -1.2214  2.1956
 1761TIP3   OH226841   6.346   3.219   0.331  0.0759  0.0005  0.0083
 1761TIP3    H126842   6.429   3.243   0.371 -1.8611  1.7671  3.4028
 1761TIP3    H226843   6.321   3.137   0.374  0.8373 -1.6057 -2.4145
 1762TIP3   OH226844   5.693   2.986   1.396 -0.0184  0.0407  0.1100
 1762TIP3    H126845   5.695   2.891   1.381  0.2268  0.0550  0.0407
 1762TIP3    H226846   5.631   3.020   1.331  0.4235  0.0088 -0.3395
 1763TIP3   OH226847   1.482   1.226   3.530  0.3018 -0.2984 -0.0510
 1763TIP3    H126848   1.524   1.311   3.542 -1.0325  0.2800  0.7402
 1763TIP3    H226849   1.537   1.180   3.467  1.8865  0.5727  0.6513
 1764TIP3   OH226850   1.864   0.136   0.734 -0.5636  0.3440  0.3616
 1764TIP3    H126851   1.854   0.223   0.770 -0.3931 -0.2020  1.7931
 1764TIP3    H226852   1.899   0.083   0.806  2.9721 -0.1015 -1.4193
 1765TIP3   OH226853   6.755   4.090   7.330 -0.5916 -0.5407  0.5018
 1765TIP3    H126854   6.679   4.054   7.283  0.9545 -1.9190 -1.0730
 1765TIP3    H226855   6.812   4.124   7.261  2.3169 -3.6639  1.0968
 1766TIP3   OH226856   3.479   2.307   1.095 -0.3156 -0.1025  0.2763
 1766TIP3    H126857   3.448   2.325   1.006  0.4880 -0.0041  0.0060
 1766TIP3    H226858   3.526   2.224   1.087  1.2932  0.7665  0.2105
 1767TIP3   OH226859   3.011   6.358   7.914  0.2659  0.3215 -0.5939
 1767TIP3    H126860   2.975   6.296   7.978 -1.2105 -0.4623 -2.1137
 1767TIP3    H226861   3.075   6.408   7.964 -1.2206  0.1398  1.6612
 1768TIP3   OH226862   3.754   5.473   7.050  0.0899  0.2712  0.1539
 1768TIP3    H126863   3.806   5.399   7.019 -0.0673 -0.3983  1.4015
 1768TIP3    H226864   3.699   5.436   7.119 -1.3452  1.1686 -0.4576
 1769TIP3   OH226865   0.443   5.800   0.266  0.7800  0.0908  0.1496
 1769TIP3    H126866   0.373   5.786   0.203 -0.0284 -1.4271  1.3094
 1769TIP3    H226867   0.479   5.713   0.282 -0.9721 -0.1385  3.8623
 1770TIP3   OH226868   6.848   4.914   2.845 -0.5246  0.5456 -0.3279
 1770TIP3    H126869   6.874   5.004   2.825 -0.8942  0.4118 -1.4763
 1770TIP3    H226870   6.769   4.899   2.793  1.0804 -1.3357 -2.5023
 1771TIP3   OH226871   0.944   1.592   1.165 -0.1444  0.0676  0.3551
 1771TIP3    H126872   0.870   1.618   1.110 -0.4455 -1.0094  0.2199
 1771TIP3    H226873   0.967   1.504   1.134  0.5370 -0.0193  1.0768
 1772TIP3   OH226874   0.731   0.860   0.612  0.0755 -0.7826  0.4689
 1772TIP3    H126875   0.777   0.926   0.664  0.5645 -0.4494 -0.3545
 1772TIP3    H226876   0.781   0.856   0.530 -1.6032 -0.1195 -0.6274
 1773TIP3   OH226877   1.924   3.110   0.165 -0.0455 -0.2929  0.0830
 1773TIP3    H126878   1.913   3.117   0.260  0.0934  0.4612  0.0474
 1773TIP3    H226879   2.016   3.087   0.154  0.0017 -0.1234  0.1209
 1774TIP3   OH226880   3.288   1.127   2.431  0.5459  0.0319  0.1969
 1774TIP3    H126881   3.249   1.075   2.360  0.1812 -0.8360  1.0002
 1774TIP3    H226882   3.271   1.075   2.510  0.3513  1.2974  1.0105
 1775TIP3   OH226883   4.840   2.300   0.512 -0.0358 -0.1906  0.3906
 1775TIP3    H126884   4.888   2.317   0.593 -0.5834 -1.0145  0.8961
 1775TIP3    H226885   4.813   2.209   0.518  1.5311 -0.8679 -1.5869
 1776TIP3   OH226886   2.365   1.946   0.272 -0.3608  0.5776 -0.1111
 1776TIP3    H126887   2.331   1.906   0.353 -1.7876 -1.5907 -1.6597
 1776TIP3    H226888   2.293   2.002   0.241  0.7643  2.6682  0.8318
 1777TIP3   OH226889   0.264   0.095   2.900  0.1827 -0.3231 -0.0538
 1777TIP3    H126890   0.247   0.041   2.823  2.4900 -0.4701 -0.5496
 1777TIP3    H226891   0.351   0.066   2.931  0.7114  1.8786  0.7164
 1778TIP3   OH226892   1.359   6.042   0.845 -0.1747 -0.3886  0.3053
 1778TIP3    H126893   1.358   6.136   0.863 -1.1733 -0.4859  0.8752
 1778TIP3    H226894   1.399   6.034   0.759  0.2199  0.5343  0.3968
 1779TIP3   OH226895   3.604   0.876   0.288 -0.1404  0.6805  0.2147
 1779TIP3    H126896   3.536   0.808   0.288 -0.1478  0.6737  1.2960
 1779TIP3    H226897   3.679   0.835   0.244 -1.5401  1.4790 -3.2792
 1780TIP3   OH226898   5.682   1.580   7.359  0.3052  0.2542  0.4101
 1780TIP3    H126899   5.613   1.624   7.309  1.0581  0.5334 -0.4139
 1780TIP3    H226900   5.726   1.525   7.294  1.7550  1.1573  0.6088
 1781TIP3   OH226901   1.512   5.244   1.921  0.4580 -0.1230  0.8485
 1781TIP3    H126902   1.506   5.163   1.871 -0.3392 -0.0217  0.7772
 1781TIP3    H226903   1.462   5.228   2.000  1.2395 -0.0817  1.3677
 1782TIP3   OH226904   4.522   6.493   2.300  0.1006 -0.0322 -0.0315
 1782TIP3    H126905   4.575   6.435   2.355  0.5944 -0.9648 -1.4409
 1782TIP3    H226906   4.583   6.531   2.238 -0.1987  2.1430  0.8963
 1783TIP3   OH226907   0.302   2.275   1.088 -0.2175  0.1075 -0.5719
 1783TIP3    H126908   0.347   2.244   1.167 -1.7059  1.5830  0.9564
 1783TIP3    H226909   0.211   2.248   1.100 -0.6814  1.2874 -1.2412
 1784TIP3   OH226910   4.783   2.909   7.470  0.1239 -0.4622 -0.4465
 1784TIP3    H126911   4.787   2.894   7.376  1.0467 -2.2507 -0.1459
 1784TIP3    H226912   4.795   2.823   7.510 -0.2398  0.2523  1.3234
 1785TIP3   OH226913   3.874   3.442   1.977 -0.4873  0.1324 -0.2360
 1785TIP3    H126914   3.948   3.493   1.943 -0.1755  0.8694  1.4580
 1785TIP3    H226915   3.893   3.352   1.949  1.9928 -0.0077  1.5520
 1786TIP3   OH226916   4.319   7.023   0.695 -0.2020 -0.2158 -0.2003
 1786TIP3    H126917   4.253   7.075   0.649  0.3076 -0.7349 -1.5694
 1786TIP3    H226918   4.394   7.022   0.636  1.6729  1.6590  1.9414
 1787TIP3   OH226919   4.954   2.877   7.773  0.4102  0.2897 -0.2852
 1787TIP3    H126920   4.893   2.937   7.730  1.2189  1.2423 -0.1459
 1787TIP3    H226921   4.940   2.793   7.730 -2.0177  0.1068  0.7123
 1788TIP3   OH226922   4.612   0.856   0.366 -0.0318 -0.7149  0.0323
 1788TIP3    H126923   4.676   0.922   0.393 -0.9351  1.0612 -1.9272
 1788TIP3    H226924   4.661   0.797   0.309  0.6194 -1.3999  1.2541
 1789TIP3   OH226925   0.159   2.614   1.751 -0.0462  0.4379  0.3225
 1789TIP3    H126926   0.252   2.614   1.775  0.0801 -0.8493 -0.0866
 1789TIP3    H226927   0.121   2.686   1.801  0.5438 -0.9803  2.9455
 1790TIP3   OH226928   6.117   3.252   7.954  0.5998 -0.0010 -0.0710
 1790TIP3    H126929   6.044   3.239   7.894  1.6910 -0.7659 -1.2763
 1790TIP3    H226930   6.115   3.346   7.974 -0.1288  0.1571 -0.8258
 1791TIP3   OH226931   0.906   4.074   2.008  0.2679  0.0458 -0.1140
 1791TIP3    H126932   0.820   4.112   2.028  1.0348  1.5575  0.4910
 1791TIP3    H226933   0.925   4.016   2.081  0.8696  1.7306  1.1457
 1792TIP3   OH226934   6.601   2.969   0.779  0.2193 -0.2624  0.1342
 1792TIP3    H126935   6.659   3.041   0.802 -0.0101 -0.3969  1.2092
 1792TIP3    H226936   6.513   3.004   0.790  0.1056 -0.7137  0.7040
 1793TIP3   OH226937   5.039   1.207   0.370 -0.2162 -0.0428 -0.1914
 1793TIP3    H126938   5.000   1.291   0.346 -2.3243 -1.5336 -2.3566
 1793TIP3    H226939   5.119   1.202   0.319  0.5240  1.0708  0.8018
 1794TIP3   OH226940   0.128   1.484   0.368 -0.3813 -0.2937  0.2323
 1794TIP3    H126941   0.092   1.567   0.400 -0.1326  0.4136 -1.2510
 1794TIP3    H226942   0.061   1.420   0.390 -0.6295  0.2957  1.3060
 1795TIP3   OH226943   3.394   3.476   3.187 -0.0718 -0.5109 -0.2374
 1795TIP3    H126944   3.451   3.467   3.264  0.9866  2.8710 -0.4562
 1795TIP3    H226945   3.447   3.445   3.114 -0.3403 -1.8361  0.1034
 1796TIP3   OH226946   6.070   4.842   2.665 -0.6275  0.8771  0.3648
 1796TIP3    H126947   6.048   4.781   2.595  1.2384 -0.9729  1.2812
 1796TIP3    H226948   6.000   4.831   2.729 -1.9949  2.1050 -0.8519
 1797TIP3   OH226949   4.353   4.892   7.529 -0.7682  0.0663  0.2603
 1797TIP3    H126950   4.437   4.889   7.483 -1.1761  0.1926 -0.5000
 1797TIP3    H226951   4.288   4.902   7.460 -1.5665 -1.7989  0.6789
 1798TIP3   OH226952   4.891   5.960   7.355 -0.2296 -0.4915  0.1404
 1798TIP3    H126953   4.888   5.925   7.444 -0.6148 -0.6872  0.0523
 1798TIP3    H226954   4.981   5.944   7.326  0.3515  1.0133  1.0620
 1799TIP3   OH226955   3.893   5.244   2.063 -0.0626 -0.1512  0.1045
 1799TIP3    H126956   3.802   5.250   2.034 -0.0406 -0.2199  0.0222
 1799TIP3    H226957   3.920   5.335   2.077 -0.1519 -0.1323  0.1558
 1800TIP3   OH226958   2.967   2.864   0.008 -0.5550  0.0675 -0.3038
 1800TIP3    H126959   2.996   2.922  -0.063 -0.6839 -0.0878 -0.4866
 1800TIP3    H226960   2.871   2.869   0.004 -0.5564  0.6808  0.3816
 1801TIP3   OH226961   6.330   1.797   1.906  0.8897 -0.4828  0.0119
 1801TIP3    H126962   6.342   1.891   1.915  2.9305 -0.7653  0.8808
 1801TIP3    H226963   6.305   1.767   1.993 -2.4838 -0.4976 -0.8218
 1802TIP3   OH226964   2.332   0.680   0.055  0.3510 -0.6778 -0.8486
 1802TIP3    H126965   2.287   0.718   0.131  1.2534  0.2515 -0.7458
 1802TIP3    H226966   2.265   0.629   0.010 -0.6166  0.0876 -0.3179
 1803TIP3   OH226967   3.287   1.422   1.213  0.3236  0.2326  0.1890
 1803TIP3    H126968   3.287   1.478   1.136  2.0976  0.5863  0.3974
 1803TIP3    H226969   3.379   1.399   1.226 -0.2530 -2.1831  0.5183
 1804TIP3   OH226970   5.321   6.774   2.760 -0.2847 -0.4841 -0.5759
 1804TIP3    H126971   5.410   6.761   2.794  0.1007 -1.5285 -1.9037
 1804TIP3    H226972   5.277   6.691   2.776 -0.4643 -0.5767 -1.5383
 1805TIP3   OH226973   5.303   2.131   1.916  0.0624  0.3463  0.4457
 1805TIP3    H126974   5.234   2.065   1.923 -2.3946  2.9047  2.8106
 1805TIP3    H226975   5.367   2.092   1.856 -2.5958 -2.8822 -0.6203
 1806TIP3   OH226976   6.924   4.495   7.024 -0.2453  0.5760  0.3426
 1806TIP3    H126977   7.006   4.522   6.983 -1.6291  1.9624 -1.7171
 1806TIP3    H226978   6.934   4.518   7.117  2.0698 -0.3524  0.3817
 1807TIP3   OH226979   3.109   2.485   3.188  0.6528  0.0494  0.0870
 1807TIP3    H126980   3.023   2.478   3.230  0.5849  1.2411  0.1837
 1807TIP3    H226981   3.166   2.521   3.256  1.1076 -0.2267 -0.1428
 1808TIP3   OH226982   5.798   2.414   7.648 -0.0361  0.5704 -0.2160
 1808TIP3    H126983   5.753   2.462   7.718  0.7662  0.2482  0.5506
 1808TIP3    H226984   5.741   2.341   7.628  0.6359 -0.5262  1.5896
 1809TIP3   OH226985   6.269   3.420   2.163 -0.0177 -0.1439  0.3634
 1809TIP3    H126986   6.178   3.391   2.169  0.3036 -1.5350 -0.9095
 1809TIP3    H226987   6.268   3.486   2.093 -0.1773  0.4835  0.9462
 1810TIP3   OH226988   1.541   4.487   0.592 -0.3931  0.2544  0.6240
 1810TIP3    H126989   1.611   4.423   0.602  0.8940  1.4392 -0.4649
 1810TIP3    H226990   1.463   4.434   0.576  0.8516 -1.0536 -1.5710
 1811TIP3   OH226991   0.442   6.075   3.048 -0.0008 -0.4062 -0.1227
 1811TIP3    H126992   0.530   6.041   3.036 -0.0508 -0.4187 -0.4551
 1811TIP3    H226993   0.416   6.046   3.136  0.8062  0.6623  0.4885
 1812TIP3   OH226994   0.097   0.068   1.791  0.8630 -0.3423  0.5099
 1812TIP3    H126995   0.160   0.008   1.752 -0.0102 -1.0534  0.1530
 1812TIP3    H226996   0.022   0.065   1.732  0.4613  0.4269  0.9688
 1813TIP3   OH226997   3.437   4.553   2.450 -0.4713 -0.0596  0.1754
 1813TIP3    H126998   3.507   4.506   2.406 -0.0941  0.8451 -0.2254
 1813TIP3    H226999   3.379   4.485   2.483 -0.9089 -0.7862 -1.9484
 1814TIP3   OH227000   2.599   4.493   3.144  0.4159  0.4296  0.2711
 1814TIP3    H127001   2.685   4.467   3.110  0.9614  1.1715  1.0348
 1814TIP3    H227002   2.570   4.562   3.084  0.3769  0.2144  0.0417
 1815TIP3   OH227003   0.364   5.397   7.588  0.0957 -0.4575  0.3032
 1815TIP3    H127004   0.421   5.440   7.651  1.3347 -1.2416 -0.2619
 1815TIP3    H227005   0.329   5.469   7.535  0.3430  0.0501  0.8168
 1816TIP3   OH227006   1.237   3.252   7.156  0.0323 -0.1704 -0.0504
 1816TIP3    H127007   1.167   3.317   7.163  1.0306  1.1320 -1.4865
 1816TIP3    H227008   1.204   3.188   7.093 -0.9780 -1.1752  1.4143
 1817TIP3   OH227009   3.689   4.587   2.769 -0.4438 -0.3442 -0.7205
 1817TIP3    H127010   3.602   4.614   2.739 -0.7049  0.8716  1.0392
 1817TIP3    H227011   3.735   4.565   2.688 -1.3721  2.0311 -1.9982
 1818TIP3   OH227012   2.308   1.308   2.417  0.0325  0.5413 -0.2253
 1818TIP3    H127013   2.399   1.290   2.439  0.3165  1.6295 -0.4426
 1818TIP3    H227014   2.257   1.268   2.488  0.8050  1.9962  1.2137
 1819TIP3   OH227015   2.419   6.368   1.067  0.3731 -0.0551  0.2743
 1819TIP3    H127016   2.513   6.355   1.078  0.3753 -2.3236 -1.4748
 1819TIP3    H227017   2.411   6.456   1.031  1.9791 -0.2450 -0.6534
 1820TIP3   OH227018   2.721   6.190   0.646 -0.3694  0.2040  0.1962
 1820TIP3    H127019   2.802   6.226   0.682 -0.7208  2.0876 -0.7525
 1820TIP3    H227020   2.652   6.230   0.700 -0.7369  0.1921 -0.2628
 1821TIP3   OH227021   1.906   4.346   8.084  0.6471 -0.3547  0.5378
 1821TIP3    H127022   1.818   4.308   8.080  0.0402  1.0772 -1.3366
 1821TIP3    H227023   1.963   4.280   8.043  0.2640 -0.7760  0.6716
 1822TIP3   OH227024   0.773   3.780   0.024 -0.1527  0.1390 -0.3215
 1822TIP3    H127025   0.752   3.773   0.117  0.9912  0.2871 -0.0348
 1822TIP3    H227026   0.720   3.712  -0.017 -1.4451  0.7448  0.2949
 1823TIP3   OH227027   5.204   2.477   7.429  0.0339  0.4512 -0.9894
 1823TIP3    H127028   5.145   2.548   7.405  0.2416  0.4513 -1.5115
 1823TIP3    H227029   5.281   2.490   7.374  0.3633  0.2287 -0.5876
 1824TIP3   OH227030   2.279   4.485   0.576  0.6791  0.2096  0.2981
 1824TIP3    H127031   2.295   4.439   0.659 -1.8013 -1.8493 -0.2327
 1824TIP3    H227032   2.341   4.446   0.514  0.8431 -0.0444  0.6161
 1825TIP3   OH227033   6.180   2.530   1.970 -0.1068  0.7419  0.6334
 1825TIP3    H127034   6.093   2.525   2.010  0.1500  0.3777  1.1712
 1825TIP3    H227035   6.181   2.459   1.906 -0.8209  1.8636 -0.6530
 1826TIP3   OH227036   0.133   6.487   7.825 -0.0044  0.5020 -0.6643
 1826TIP3    H127037   0.163   6.498   7.915 -1.2508 -1.0160 -0.0162
 1826TIP3    H227038   0.038   6.493   7.830 -0.1100  0.0507 -1.8206
 1827TIP3   OH227039   0.654   5.924   0.054 -0.5770 -0.0685 -0.5131
 1827TIP3    H127040   0.648   6.008   0.010  1.7963 -1.6450 -4.3178
 1827TIP3    H227041   0.587   5.870   0.013  0.4155 -1.0640 -0.8746
 1828TIP3   OH227042   5.353   1.057   7.681 -0.5167  0.5284 -0.1166
 1828TIP3    H127043   5.325   1.013   7.601 -1.3095  1.4375 -0.3519
 1828TIP3    H227044   5.414   1.124   7.652 -0.9842  1.0138  0.0118
 1829TIP3   OH227045   3.865   1.486   3.026  0.2419 -0.1355  0.2803
 1829TIP3    H127046   3.867   1.451   3.115  0.4690 -0.6498  0.0745
 1829TIP3    H227047   3.826   1.573   3.036 -0.0903 -0.3399  0.8284
 1830TIP3   OH227048   0.146   0.429   1.598  0.1206  0.4040 -0.1992
 1830TIP3    H127049   0.113   0.504   1.548  0.0800  0.2829 -0.3573
 1830TIP3    H227050   0.108   0.353   1.554  2.9583  0.0362 -2.2607
 1831TIP3   OH227051   0.140   0.299   1.926  0.0955 -0.1630 -0.7538
 1831TIP3    H127052   0.120   0.221   1.873 -1.0329 -2.5799  2.8204
 1831TIP3    H227053   0.068   0.360   1.907 -0.6472 -1.2328 -1.5204
 1832TIP3   OH227054   4.875   1.186   2.030  0.0141  0.8585  0.2194
 1832TIP3    H127055   4.944   1.134   2.073 -0.6310  0.3679  0.6874
 1832TIP3    H227056   4.827   1.225   2.102 -0.9004  0.2717 -0.0549
 1833TIP3   OH227057   4.372   4.997   3.369  0.1798  0.2888  0.1205
 1833TIP3    H127058   4.343   5.084   3.342 -3.1021 -1.2262 -1.8179
 1833TIP3    H227059   4.299   4.962   3.419  1.1577 -1.6204  0.2909
 1834TIP3   OH227060   6.036   3.995   1.934  0.4756 -0.1946 -0.5831
 1834TIP3    H127061   6.125   3.961   1.945  0.3526 -0.0949  0.9526
 1834TIP3    H227062   6.034   4.075   1.988 -0.3288  0.2145 -1.1910
 1835TIP3   OH227063   3.195   6.578   0.021 -0.2416  0.1806  0.0436
 1835TIP3    H127064   3.120   6.587   0.080  0.9422 -1.8138  2.0206
 1835TIP3    H227065   3.241   6.661   0.029 -1.0032  0.5655  0.6479
 1836TIP3   OH227066   5.470   2.637   2.427  0.3559  0.0825 -0.0531
 1836TIP3    H127067   5.479   2.622   2.333  0.2695 -1.5863  0.1750
 1836TIP3    H227068   5.376   2.647   2.441  0.1009 -2.0336  0.1227
 1837TIP3   OH227069   1.142   6.313   2.210  0.2153 -0.4215  0.2992
 1837TIP3    H127070   1.216   6.254   2.222 -0.5751 -1.6196 -0.4933
 1837TIP3    H227071   1.181   6.397   2.186  1.4433 -0.1922  2.7264
 1838TIP3   OH227072   2.233   2.973   7.540  0.0253 -0.1882  0.1687
 1838TIP3    H127073   2.193   3.017   7.464 -1.8463 -1.4249  0.3841
 1838TIP3    H227074   2.275   2.896   7.503 -1.4641 -1.1533  0.4333
 1839TIP3   OH227075   0.799   2.906   7.856 -0.4019  0.2546  0.2630
 1839TIP3    H127076   0.881   2.957   7.861  0.6796 -1.2489 -1.2047
 1839TIP3    H227077   0.788   2.871   7.944  0.1206  1.0701  0.6745
 1840TIP3   OH227078   4.528   0.369   3.762 -0.1944 -0.4730 -0.1108
 1840TIP3    H127079   4.493   0.389   3.849 -0.6641  0.5541 -0.5157
 1840TIP3    H227080   4.483   0.288   3.736 -2.3742  0.8185 -0.6288
 1841TIP3   OH227081   2.840   0.860   1.620  0.1031  0.1963  0.1276
 1841TIP3    H127082   2.808   0.913   1.693  0.7235 -0.1113  0.6296
 1841TIP3    H227083   2.857   0.774   1.658 -0.1294 -0.1402 -0.5086
 1842TIP3   OH227084   1.654   2.610   7.829 -0.3049 -0.3663  0.0932
 1842TIP3    H127085   1.744   2.618   7.797 -0.2092  0.2296  0.5013
 1842TIP3    H227086   1.600   2.624   7.751 -0.0625  0.3954  0.0527
 1843TIP3   OH227087   4.450   0.576   3.180 -0.1100 -0.3354 -0.0021
 1843TIP3    H127088   4.394   0.499   3.192 -4.2068  2.2247 -0.9108
 1843TIP3    H227089   4.436   0.629   3.258  1.6260  0.1307  0.0283
 1844TIP3   OH227090   2.876   5.325   3.402  0.3034 -0.3335 -0.0449
 1844TIP3    H127091   2.903   5.308   3.492  1.4532 -0.2575 -0.3655
 1844TIP3    H227092   2.870   5.238   3.362  1.0877 -0.2900 -0.2575
 1845TIP3   OH227093   2.743   4.788   1.460  0.3694  0.0258 -0.2148
 1845TIP3    H127094   2.657   4.784   1.503 -0.2431 -2.5385 -1.4625
 1845TIP3    H227095   2.803   4.751   1.524 -0.1488 -1.6526 -0.6462
 1846TIP3   OH227096   2.521   3.595   2.219 -0.0271 -0.5939 -0.6701
 1846TIP3    H127097   2.604   3.562   2.185  1.4118  1.6426  0.4331
 1846TIP3    H227098   2.515   3.558   2.307  0.7622  0.6551 -0.0610
 1847TIP3   OH227099   6.137   5.860   2.524  0.0434 -0.6105  0.1796
 1847TIP3    H127100   6.208   5.885   2.466 -1.3284  1.0722 -0.8976
 1847TIP3    H227101   6.093   5.788   2.479  0.1166 -0.5834  0.0656
 1848TIP3   OH227102   4.368   0.567   1.808  0.0222  0.2531 -0.2500
 1848TIP3    H127103   4.419   0.583   1.730 -0.1927 -1.5957 -0.7997
 1848TIP3    H227104   4.418   0.503   1.858 -1.0816 -0.5919 -0.1725
 1849TIP3   OH227105   6.708   4.048   2.558 -0.3859 -0.2384  0.0275
 1849TIP3    H127106   6.682   3.992   2.486 -0.5603 -0.1105 -0.0089
 1849TIP3    H227107   6.630   4.055   2.613  0.1467 -1.5171  1.0012
 1850TIP3   OH227108   3.702   1.403   7.571  0.0122  0.2374 -0.3987
 1850TIP3    H127109   3.622   1.364   7.608  0.6580 -1.8722 -1.0514
 1850TIP3    H227110   3.673   1.445   7.490 -0.2991 -1.8048 -1.4323
 1851TIP3   OH227111   4.060   4.485   1.556 -0.3808  0.0470 -0.0601
 1851TIP3    H127112   4.078   4.547   1.627  2.8402  0.5798 -1.1839
 1851TIP3    H227113   3.965   4.487   1.546 -0.7388  1.7683  2.5845
 1852TIP3   OH227114   1.819   5.024   8.152  1.0052  0.4709 -0.9085
 1852TIP3    H127115   1.833   5.068   8.236  4.0274  0.6518 -1.4042
 1852TIP3    H227116   1.849   5.087   8.086 -0.1383 -0.1435 -2.0712
 1853TIP3   OH227117   5.773   5.081   0.043 -0.3456 -0.1994 -0.1091
 1853TIP3    H127118   5.852   5.036   0.013 -0.9461 -1.5435  0.2328
 1853TIP3    H227119   5.737   5.121  -0.036  0.0952 -0.5079 -0.4734
 1854TIP3   OH227120   0.626   5.806   7.905  0.6051  0.5746 -0.4838
 1854TIP3    H127121   0.673   5.780   7.825 -2.0399 -1.5239 -1.5133
 1854TIP3    H227122   0.541   5.838   7.874 -0.5446 -0.4428  1.4536
 1855TIP3   OH227123   3.827   3.236   1.459 -0.0299 -0.6251  0.0212
 1855TIP3    H127124   3.841   3.144   1.436  1.1538 -0.2353 -0.9565
 1855TIP3    H227125   3.799   3.277   1.377 -2.5296 -0.4557  0.8933
 1856TIP3   OH227126   2.154   6.147   0.607 -0.1187  0.0443  0.1704
 1856TIP3    H127127   2.163   6.215   0.540  0.5982 -1.2548 -1.0981
 1856TIP3    H227128   2.127   6.195   0.686  0.0582  1.7475 -0.7551
 1857TIP3   OH227129   0.501   1.151   7.923 -0.3528  0.5951  0.1973
 1857TIP3    H127130   0.516   1.208   7.848  0.7230 -1.2078 -1.0438
 1857TIP3    H227131   0.466   1.070   7.885  1.1623 -0.7333  1.5020
 1858TIP3   OH227132   0.357   3.285   1.592  0.3198 -0.0953 -0.2642
 1858TIP3    H127133   0.417   3.347   1.552 -1.1935 -1.3300 -5.1164
 1858TIP3    H227134   0.408   3.204   1.600  0.7969  0.3052  1.1284
 1859TIP3   OH227135   5.732   0.396   0.079 -0.1501 -0.5483 -0.1440
 1859TIP3    H127136   5.718   0.414  -0.014 -1.8113  1.6662  0.4737
 1859TIP3    H227137   5.645   0.403   0.119  0.7793  0.3953  1.8620
 1860TIP3   OH227138   1.696   0.501   2.325  0.0521 -0.0218 -0.9095
 1860TIP3    H127139   1.789   0.509   2.347  0.4073 -1.6673 -1.6750
 1860TIP3    H227140   1.691   0.530   2.234  0.0500 -1.1850 -1.2841
 1861TIP3   OH227141   3.406   4.038   2.429  0.0561  0.2378 -0.3985
 1861TIP3    H127142   3.435   4.043   2.520  1.0067 -2.6520 -0.4338
 1861TIP3    H227143   3.487   4.030   2.378 -0.4975  0.8232 -1.4136
 1862TIP3   OH227144   5.337   2.174   8.232  0.4358  0.0318  0.0667
 1862TIP3    H127145   5.323   2.167   8.138  1.0203  1.6472 -0.1844
 1862TIP3    H227146   5.349   2.268   8.247  0.5598 -0.2178  1.7205
 1863TIP3   OH227147   2.443   3.355   7.626 -0.9054 -0.3158 -0.4620
 1863TIP3    H127148   2.497   3.333   7.551 -1.3534 -1.0459 -0.5844
 1863TIP3    H227149   2.419   3.447   7.613 -2.5037 -0.9263 -2.1943
 1864TIP3   OH227150   1.074   0.160   0.841 -0.7387  0.0291  1.0282
 1864TIP3    H127151   1.099   0.134   0.753 -1.5949  1.4773  0.3146
 1864TIP3    H227152   1.112   0.248   0.851  0.8561 -0.7903  2.7963
 1865TIP3   OH227153   0.418   4.876   0.994 -0.5035 -0.3354 -0.1033
 1865TIP3    H127154   0.363   4.839   0.925  0.9583  0.3784 -1.7397
 1865TIP3    H227155   0.508   4.857   0.966  0.1355  0.2639  1.4406
 1866TIP3   OH227156   1.415   0.907   2.432 -0.0721 -0.1552  0.4421
 1866TIP3    H127157   1.402   0.818   2.398  1.9734 -0.7290  1.0149
 1866TIP3    H227158   1.338   0.923   2.488 -1.4805 -0.7304 -1.2387
 1867TIP3   OH227159   0.303   4.940   7.639 -0.5636  0.3728 -0.1070
 1867TIP3    H127160   0.290   5.035   7.647 -0.6860  0.2780  0.8936
 1867TIP3    H227161   0.317   4.910   7.729 -1.6645 -0.7318 -0.2789
 1868TIP3   OH227162   2.242   6.328   7.692  0.4129 -0.1849  0.0090
 1868TIP3    H127163   2.196   6.391   7.747 -0.8198 -0.4778 -0.6651
 1868TIP3    H227164   2.200   6.244   7.710  1.6251 -0.7241  0.4252
 1869TIP3   OH227165   4.966   0.218   3.065  0.3786  0.5110  0.3742
 1869TIP3    H127166   4.883   0.263   3.052 -0.2894 -0.6304  0.6091
 1869TIP3    H227167   4.954   0.132   3.026  1.8996  0.7712 -0.7653
 1870TIP3   OH227168   0.841   1.550   7.869 -0.2393  0.0453  0.0196
 1870TIP3    H127169   0.817   1.621   7.809 -0.5234  0.4204  0.5609
 1870TIP3    H227170   0.758   1.506   7.888 -0.1490 -0.0792  0.1271
 1871TIP3   OH227171   4.286   2.507   1.628  0.1922 -0.5090  0.2352
 1871TIP3    H127172   4.356   2.445   1.651  0.1516 -0.6784 -0.0999
 1871TIP3    H227173   4.228   2.457   1.571  0.8453  0.2209 -1.1167
 1872TIP3   OH227174   1.575   3.511   7.810  0.3762  0.8693 -0.2086
 1872TIP3    H127175   1.655   3.460   7.799 -0.3914 -0.4305  0.0326
 1872TIP3    H227176   1.517   3.481   7.740 -0.4638  0.6364  0.5609
 1873TIP3   OH227177   0.807   0.061   3.050 -0.2401 -0.2690 -0.1087
 1873TIP3    H127178   0.894   0.101   3.038 -0.3456  0.1158  0.3690
 1873TIP3    H227179   0.750   0.135   3.071 -0.5913 -0.5811  0.0433
 1874TIP3   OH227180   4.808   4.401   0.487  0.7089 -0.3591  0.2161
 1874TIP3    H127181   4.794   4.341   0.561 -1.9032  0.2517  0.3020
 1874TIP3    H227182   4.821   4.487   0.527 -0.0994 -0.1303  0.0062
 1875TIP3   OH227183   3.623   6.982   0.623  0.5878 -0.2671 -0.4239
 1875TIP3    H127184   3.646   7.063   0.668 -2.5379  0.5919 -0.0807
 1875TIP3    H227185   3.646   6.913   0.684  0.5349  0.5906  0.6007
 1876TIP3   OH227186   6.342   1.354   0.406 -0.5623  0.3567 -0.0002
 1876TIP3    H127187   6.294   1.293   0.462  0.0813 -0.6205 -0.5056
 1876TIP3    H227188   6.415   1.383   0.461 -1.4458  1.5331  0.6226
 1877TIP3   OH227189   0.833   3.976   1.591  0.5324  0.3249 -0.2480
 1877TIP3    H127190   0.826   4.062   1.551  2.1094  0.8725  0.5576
 1877TIP3    H227191   0.919   3.976   1.634  0.2078 -1.3329  0.5037
 1878TIP3   OH227192   4.812   4.591   2.938 -0.0456 -1.1666 -0.6152
 1878TIP3    H127193   4.799   4.671   2.988 -0.5150 -1.9238  0.5204
 1878TIP3    H227194   4.906   4.588   2.920  0.1191 -0.8419  0.1735
 1879TIP3   OH227195   1.227   6.909   7.581 -0.1612 -0.5797 -0.3913
 1879TIP3    H127196   1.302   6.966   7.597 -0.5629  0.1149 -0.9462
 1879TIP3    H227197   1.175   6.914   7.662 -0.1190 -0.2812 -0.3832
 1880TIP3   OH227198   5.044   0.645   7.472 -0.5719  0.4097 -0.8261
 1880TIP3    H127199   5.106   0.718   7.478 -0.4871  0.3009 -0.3721
 1880TIP3    H227200   5.093   0.569   7.503 -1.4174  0.6077  1.1207
 1881TIP3   OH227201   0.431   1.251   0.237 -0.1909 -0.2424 -0.2210
 1881TIP3    H127202   0.344   1.247   0.278 -0.1780  1.9697  0.1120
 1881TIP3    H227203   0.492   1.241   0.310 -0.1458  4.8021  0.7394
 1882TIP3   OH227204   5.716   4.220   1.301 -0.3504  0.0184  0.1999
 1882TIP3    H127205   5.772   4.147   1.277  0.6374  1.3470 -1.8972
 1882TIP3    H227206   5.758   4.258   1.378  2.2783  1.4320 -1.7378
 1883TIP3   OH227207   1.865   1.831   7.688 -0.0856 -0.1558  0.2535
 1883TIP3    H127208   1.845   1.876   7.770  1.5718 -0.5220  0.9035
 1883TIP3    H227209   1.841   1.893   7.620  2.0135  1.7198  1.1115
 1884TIP3   OH227210   5.165   6.108   2.559  0.8845  0.2876 -0.1290
 1884TIP3    H127211   5.153   6.200   2.579 -1.7221  0.0581 -0.3746
 1884TIP3    H227212   5.203   6.107   2.471  2.7719  1.1060  0.6280
 1885TIP3   OH227213   3.417   3.635   1.017 -0.0406  0.3690 -0.2586
 1885TIP3    H127214   3.440   3.568   0.952 -1.2831 -0.5184  0.1750
 1885TIP3    H227215   3.404   3.586   1.098  0.4844  1.3400  0.4296
 1886TIP3   OH227216   0.515   5.508   6.998  0.0124  0.1627 -0.1067
 1886TIP3    H127217   0.489   5.504   6.905  2.8461 -1.3390 -0.9413
 1886TIP3    H227218   0.587   5.571   7.000 -0.1416  0.3189  1.1240
 1887TIP3   OH227219   6.482   5.899   7.976 -0.0828 -0.2890  0.0055
 1887TIP3    H127220   6.457   5.913   8.067 -0.1887 -0.6892  0.0411
 1887TIP3    H227221   6.432   5.822   7.948 -2.2583  1.4723 -1.2709
 1888TIP3   OH227222   6.122   1.915   0.496  0.0490  0.1171  0.3711
 1888TIP3    H127223   6.131   1.821   0.509 -2.6137  0.0044  2.1213
 1888TIP3    H227224   6.157   1.954   0.576  0.8619  0.6123 -0.2158
 1889TIP3   OH227225   2.122   4.079   7.863  0.2031 -0.0430  0.4471
 1889TIP3    H127226   2.079   4.158   7.831 -1.0913 -0.6185  0.6851
 1889TIP3    H227227   2.209   4.081   7.824 -0.0775  1.1165 -0.1501
 1890TIP3   OH227228   2.683   1.997   1.682  0.2589  0.1838  0.1171
 1890TIP3    H127229   2.605   1.959   1.644  1.3885 -0.6176 -1.5045
 1890TIP3    H227230   2.755   1.944   1.649  1.6165  1.6771  0.5135
 1891TIP3   OH227231   1.960   1.422   0.619 -0.1030 -0.6282 -0.4914
 1891TIP3    H127232   1.949   1.517   0.627  0.6784 -0.5115 -0.7848
 1891TIP3    H227233   1.874   1.386   0.640 -0.8765  0.2271 -2.0400
 1892TIP3   OH227234   6.458   4.110   8.253  0.7218  0.2714  0.1669
 1892TIP3    H127235   6.423   4.123   8.164 -0.0631  0.0077  0.4323
 1892TIP3    H227236   6.524   4.179   8.262 -1.0387  2.0546  0.3219
 1893TIP3   OH227237   2.932   5.696   1.262 -0.2001 -0.0559 -0.3902
 1893TIP3    H127238   2.861   5.695   1.326 -0.3611 -0.2294 -0.5713
 1893TIP3    H227239   2.966   5.785   1.265  0.2175 -0.2264  0.4076
 1894TIP3   OH227240   1.292   2.294   2.689  0.2806  0.7387  0.5324
 1894TIP3    H127241   1.300   2.201   2.666  0.1742  0.7548  0.4324
 1894TIP3    H227242   1.382   2.327   2.687  0.0769  1.3321 -2.2858
 1895TIP3   OH227243   4.243   4.506   3.318 -0.1326  0.8876  0.6145
 1895TIP3    H127244   4.324   4.548   3.347 -0.4272  0.7466  1.7097
 1895TIP3    H227245   4.230   4.433   3.379  0.2600 -0.7170 -1.1182
 1896TIP3   OH227246   0.102   5.324   1.393  0.5802  0.6997  0.6249
 1896TIP3    H127247   0.131   5.234   1.409  0.7642  0.8271  1.0043
 1896TIP3    H227248   0.006   5.317   1.388  0.6565  0.2784 -0.6395
 1897TIP3   OH227249   4.263   0.850   1.212 -0.1655  0.3163  0.0862
 1897TIP3    H127250   4.218   0.912   1.269 -0.3258  1.4103 -1.2011
 1897TIP3    H227251   4.323   0.903   1.160 -1.0580 -0.4138 -1.8053
 1898TIP3   OH227252   4.575   0.350   1.326  0.1155  0.1494  0.0614
 1898TIP3    H127253   4.557   0.443   1.311 -1.1818  0.6743  3.9039
 1898TIP3    H227254   4.659   0.349   1.371 -0.0869 -0.4840  0.4385
 1899TIP3   OH227255   0.500   1.960   0.582 -0.0912 -0.1846 -0.5541
 1899TIP3    H127256   0.576   1.948   0.638  1.4257  0.3624 -2.3800
 1899TIP3    H227257   0.483   2.054   0.584  0.2810 -0.0880 -1.3316
 1900TIP3   OH227258   4.999   5.305   2.385  0.8806 -0.2641  0.9344
 1900TIP3    H127259   5.042   5.375   2.434  1.3145  2.4110 -2.8140
 1900TIP3    H227260   4.912   5.298   2.423 -0.3380  4.6615 -0.2263
 1901TIP3   OH227261   0.794   4.859   2.664  0.1338 -0.5625  0.2346
 1901TIP3    H127262   0.757   4.931   2.716  0.7946 -1.7242  2.4524
 1901TIP3    H227263   0.887   4.861   2.684  0.2751 -1.5484 -0.2773
 1902TIP3   OH227264   0.377   5.251   7.015 -0.3431  0.4745 -0.6253
 1902TIP3    H127265   0.387   5.340   6.981 -2.8055  0.9200 -0.3569
 1902TIP3    H227266   0.289   5.249   7.052 -0.3104 -2.0470 -0.5051
 1903TIP3   OH227267   0.473   5.453   0.390  0.3323 -0.2574  0.3315
 1903TIP3    H127268   0.532   5.503   0.334 -0.9059  1.4242  0.4308
 1903TIP3    H227269   0.515   5.368   0.400  2.2502  0.5526 -0.3467
 1904TIP3   OH227270   4.827   6.463   8.112  0.2305 -0.3325 -0.1476
 1904TIP3    H127271   4.866   6.379   8.138  3.5446  0.9617 -0.4124
 1904TIP3    H227272   4.810   6.454   8.018  2.7641 -0.0621 -0.7056
 1905TIP3   OH227273   2.014   0.912   1.991 -0.4319  0.4874  0.0314
 1905TIP3    H127274   2.012   0.830   1.942  2.6959 -0.8754  1.8716
 1905TIP3    H227275   1.963   0.894   2.070  1.9148 -0.5836  1.4305
 1906TIP3   OH227276   6.086   5.966   1.263  0.7467  0.4474  0.1420
 1906TIP3    H127277   6.113   5.979   1.354  0.9100 -0.3047  0.1999
 1906TIP3    H227278   6.103   5.874   1.245  0.2387  0.4714 -0.4973
 1907TIP3   OH227279   4.014   3.702   0.973 -0.2395 -0.0615  0.1964
 1907TIP3    H127280   4.093   3.654   0.948 -0.7054 -0.6684 -0.1545
 1907TIP3    H227281   3.949   3.678   0.906 -0.8768 -0.0028  0.7818
 1908TIP3   OH227282   0.737   1.422   0.530 -0.2052  0.5916 -0.0116
 1908TIP3    H127283   0.797   1.458   0.595  0.9263 -0.8218 -0.2232
 1908TIP3    H227284   0.702   1.498   0.485  1.1408  1.4721  0.3771
 1909TIP3   OH227285   6.211   2.323   1.729  0.4875 -0.2597 -0.0988
 1909TIP3    H127286   6.159   2.243   1.740  0.9915 -0.4272  1.2674
 1909TIP3    H227287   6.185   2.357   1.643 -1.0772 -0.8992  0.0978
 1910TIP3   OH227288   6.781   3.362   8.156  0.0172  0.4208 -0.3111
 1910TIP3    H127289   6.796   3.283   8.104  2.9686  0.1075  0.7886
 1910TIP3    H227290   6.708   3.340   8.213 -0.3365 -0.8579 -1.2228
 1911TIP3   OH227291   3.935   5.546   1.009  0.9263 -0.2345 -0.0584
 1911TIP3    H127292   3.931   5.470   0.951 -0.3272 -0.9246  0.8782
 1911TIP3    H227293   4.029   5.562   1.021  1.2441  0.3410 -2.7442
 1912TIP3   OH227294   4.280   6.755   1.170 -0.7447  0.2562 -0.3946
 1912TIP3    H127295   4.260   6.783   1.260  0.1116  3.1332 -1.0087
 1912TIP3    H227296   4.196   6.761   1.124 -1.1089 -0.8735  0.0726
 1913TIP3   OH227297   5.808   6.959   0.695  0.1917  0.3531  0.3991
 1913TIP3    H127298   5.718   6.978   0.721  0.6203 -0.2316  2.5321
 1913TIP3    H227299   5.856   6.955   0.778  2.1015  0.2252 -0.6624
 1914TIP3   OH227300   5.927   0.085   1.392  0.1157  0.7264 -0.0487
 1914TIP3    H127301   5.941  -0.005   1.361 -0.0436  0.5939  0.2536
 1914TIP3    H227302   5.874   0.074   1.471  0.1514  1.0849  0.0242
 1915TIP3   OH227303   4.664   5.623   0.571  0.0487  0.0379 -0.0552
 1915TIP3    H127304   4.622   5.709   0.560  1.5631  0.7646 -0.4129
 1915TIP3    H227305   4.737   5.624   0.509  1.5691 -0.5301  1.6361
 1916TIP3   OH227306   4.029   3.462   7.786 -0.3167  0.1216  0.0037
 1916TIP3    H127307   3.969   3.425   7.721  1.7077 -0.5657 -1.5839
 1916TIP3    H227308   4.045   3.390   7.848  0.3919 -0.3723 -0.7256
 1917TIP3   OH227309   0.696   2.216   1.304  0.2125  0.0697 -0.0736
 1917TIP3    H127310   0.648   2.135   1.290 -1.7081  1.3293 -1.1679
 1917TIP3    H227311   0.749   2.227   1.225 -1.2693  0.9702 -0.9955
 1918TIP3   OH227312   3.400   0.180   0.707 -1.0059  0.7284  0.3101
 1918TIP3    H127313   3.468   0.214   0.650 -0.6734  0.0995  0.3181
 1918TIP3    H227314   3.419   0.218   0.793 -1.2259  1.2992  0.1065
 1919TIP3   OH227315   2.370   1.908   2.625  0.1710  0.0302 -0.1812
 1919TIP3    H127316   2.433   1.884   2.693  0.2020  0.8548  0.0944
 1919TIP3    H227317   2.294   1.852   2.642  1.1736 -1.6829 -1.1268
 1920TIP3   OH227318   1.717   1.270   1.303 -0.1815  0.3710 -0.0500
 1920TIP3    H127319   1.684   1.248   1.216  0.8924  1.9380 -0.8774
 1920TIP3    H227320   1.673   1.352   1.326  0.0458  0.3206  0.6045
 1921TIP3   OH227321   2.750   1.848   2.593  0.3813  0.0223  0.3206
 1921TIP3    H127322   2.766   1.919   2.656  0.3341  1.5527 -1.3179
 1921TIP3    H227323   2.749   1.891   2.508  1.9773 -2.1936 -0.9179
 1922TIP3   OH227324   5.838   2.757   2.957  0.0326 -0.4140 -0.0928
 1922TIP3    H127325   5.830   2.830   3.018  1.6995  0.1934 -0.5317
 1922TIP3    H227326   5.872   2.796   2.876 -1.6037 -1.2827 -1.2673
 1923TIP3   OH227327   3.547   4.548   1.746  0.4460 -0.3898 -0.3466
 1923TIP3    H127328   3.501   4.632   1.742 -1.7225 -1.5207 -1.4605
 1923TIP3    H227329   3.525   4.512   1.832 -0.8602 -0.9366 -0.8848
 1924TIP3   OH227330   3.751   6.579   3.426  0.1603 -0.4458 -0.5412
 1924TIP3    H127331   3.833   6.532   3.412  0.4194 -0.4898  0.9752
 1924TIP3    H227332   3.684   6.511   3.428  0.3730 -0.6426  0.3560
 1925TIP3   OH227333   2.408   2.834   2.691 -0.3842  0.6121 -0.8932
 1925TIP3    H127334   2.449   2.748   2.699  0.1585  0.7384 -2.0949
 1925TIP3    H227335   2.350   2.840   2.767  0.0261 -0.5560 -0.4606
 1926TIP3   OH227336   1.321   0.617   1.906 -0.3769 -0.0251  0.3269
 1926TIP3    H127337   1.300   0.565   1.983 -0.8277 -0.6394 -0.1931
 1926TIP3    H227338   1.243   0.670   1.891 -0.0952  0.4586  0.5901
 1927TIP3   OH227339   0.694   3.869   1.031  0.2132  0.1691  0.5383
 1927TIP3    H127340   0.629   3.856   1.101 -0.4082  0.8751  0.1001
 1927TIP3    H227341   0.646   3.914   0.962  1.3367  1.3065  0.4627
 1928TIP3   OH227342   5.368   6.256   0.496  0.3087  0.1732  0.5856
 1928TIP3    H127343   5.317   6.177   0.479  0.1500  0.0143  1.7008
 1928TIP3    H227344   5.303   6.327   0.492  0.2462  0.1219  0.6862
 1929TIP3   OH227345   0.636   2.993   2.295  0.0739 -0.0597  0.1779
 1929TIP3    H127346   0.708   2.942   2.331 -0.2208 -0.3011  0.4260
 1929TIP3    H227347   0.672   3.081   2.286 -0.7029  0.8182  3.9528
 1930TIP3   OH227348   1.506   4.249   1.778  0.0937 -0.0131  0.1572
 1930TIP3    H127349   1.518   4.312   1.707  0.6402  1.5566  1.5686
 1930TIP3    H227350   1.462   4.175   1.738  1.9096  0.0789 -2.1994
 1931TIP3   OH227351   3.931   1.925   8.118 -0.1027 -0.8955  0.3305
 1931TIP3    H127352   3.950   1.838   8.154  1.5213 -1.2233 -1.2019
 1931TIP3    H227353   3.999   1.981   8.154  0.9004 -1.0058 -1.3225
 1932TIP3   OH227354   6.898   0.052   7.305  0.1476 -0.5105  0.0198
 1932TIP3    H127355   6.951   0.110   7.360 -0.3771 -1.3510  1.4816
 1932TIP3    H227356   6.958   0.021   7.237  0.8402  0.4980  0.1448
 1933TIP3   OH227357   0.605   1.206   0.453 -0.0825  0.2843  0.4496
 1933TIP3    H127358   0.648   1.282   0.490 -0.1364  0.8116 -0.5563
 1933TIP3    H227359   0.576   1.155   0.530  0.9688  0.6781  1.1228
 1934TIP3   OH227360   1.272   0.255   1.353 -0.5656  0.3527 -0.0136
 1934TIP3    H127361   1.252   0.321   1.419 -1.2828 -0.4056  0.5473
 1934TIP3    H227362   1.219   0.179   1.378  0.7464 -0.6742 -0.2593
 1935TIP3   OH227363   3.505   6.747   8.184 -0.6654 -0.3985  0.4225
 1935TIP3    H127364   3.484   6.787   8.100  0.2656  1.9425  1.2257
 1935TIP3    H227365   3.502   6.819   8.247 -1.2911 -2.0719  2.4187
 1936TIP3   OH227366   6.318   1.159   7.743  0.3438  0.6232  0.4915
 1936TIP3    H127367   6.329   1.068   7.771  1.6850  0.2223 -1.2114
 1936TIP3    H227368   6.240   1.188   7.790  0.3153 -1.1533  1.6676
 1937TIP3   OH227369   6.966   2.859   7.966  0.5310  0.7320  0.1642
 1937TIP3    H127370   6.922   2.782   8.002  0.8749  0.6155  0.3465
 1937TIP3    H227371   7.052   2.827   7.940  0.8312  1.1404  0.6257
 1938TIP3   OH227372   3.170   1.855   2.133 -0.4446  0.5454  0.0495
 1938TIP3    H127373   3.129   1.789   2.076  0.3285  1.1600 -1.2379
 1938TIP3    H227374   3.179   1.810   2.217 -1.1810 -0.5395 -0.4223
 1939TIP3   OH227375   6.128   0.228   1.529 -0.4084  0.3706  0.3608
 1939TIP3    H127376   6.105   0.159   1.466 -0.5903  0.7471  0.0072
 1939TIP3    H227377   6.046   0.244   1.576 -0.4843  0.6472  0.1410
 1940TIP3   OH227378   2.379   5.346   0.075  0.1721 -0.3022 -0.3611
 1940TIP3    H127379   2.441   5.272   0.076  1.2947  0.6086  0.7661
 1940TIP3    H227380   2.397   5.392  -0.007 -0.9139 -1.5529 -1.3417
 1941TIP3   OH227381   6.602   2.542   0.395  0.2118 -0.0132 -0.1459
 1941TIP3    H127382   6.608   2.446   0.401 -1.1601 -0.2835 -2.2173
 1941TIP3    H227383   6.547   2.567   0.469 -1.1913 -1.0852 -0.7824
 1942TIP3   OH227384   3.970   5.891   3.072  0.0804 -0.2396 -0.0516
 1942TIP3    H127385   4.029   5.829   3.116 -0.6293 -0.5843  0.4310
 1942TIP3    H227386   4.003   5.977   3.097 -1.1427 -0.3896  2.3905
 1943TIP3   OH227387   2.160   6.509   0.786 -0.1374 -0.1846 -0.0854
 1943TIP3    H127388   2.186   6.601   0.793  1.5562 -0.7039  0.8350
 1943TIP3    H227389   2.242   6.461   0.780 -1.0066 -1.5225 -2.8161
 1944TIP3   OH227390   2.039   6.860   0.624 -0.4346  0.5077 -0.3207
 1944TIP3    H127391   2.085   6.820   0.698 -3.1188  0.1936  1.3005
 1944TIP3    H227392   2.072   6.950   0.622  1.2924 -0.0811 -0.1938
 1945TIP3   OH227393   2.888   4.813   2.366 -0.3203 -0.3490  0.0597
 1945TIP3    H127394   2.971   4.768   2.377 -0.2181 -0.4947 -1.1379
 1945TIP3    H227395   2.897   4.893   2.418 -1.4905 -2.7549  4.4752
 1946TIP3   OH227396   2.958   0.072   8.087  0.6973 -0.1681  0.5371
 1946TIP3    H127397   2.996   0.105   8.006  0.4681 -0.4702  0.3090
 1946TIP3    H227398   2.870   0.111   8.090  0.1738 -1.2648 -0.0600
 1947TIP3   OH227399   5.378   5.990   8.058 -0.1644 -0.9046  0.4321
 1947TIP3    H127400   5.452   6.027   8.010 -1.0719  0.5815  0.0888
 1947TIP3    H227401   5.348   5.916   8.006  2.1388 -2.7025  1.4762
 1948TIP3   OH227402   5.690   5.303   7.709 -0.1496  0.3062 -0.2596
 1948TIP3    H127403   5.772   5.345   7.685 -0.0654  0.3639  0.1183
 1948TIP3    H227404   5.703   5.211   7.688 -0.1195  0.3745 -0.5373
 1949TIP3   OH227405   0.896   1.357   2.529  0.0262  0.1387 -0.2494
 1949TIP3    H127406   0.864   1.399   2.608 -0.3609 -0.3043 -0.1613
 1949TIP3    H227407   0.941   1.426   2.480  1.0669  0.2050  0.7801
 1950TIP3   OH227408   1.177   1.696   0.052 -0.2432 -0.2732  0.0439
 1950TIP3    H127409   1.132   1.617   0.082  2.1855 -1.7780 -0.0131
 1950TIP3    H227410   1.203   1.677  -0.038 -2.0465  1.7679 -1.0132
 1951TIP3   OH227411   1.876   1.772   7.255 -0.3686  0.4593 -0.2885
 1951TIP3    H127412   1.828   1.843   7.212 -0.8595 -1.0066 -2.3436
 1951TIP3    H227413   1.811   1.728   7.309 -0.7886 -0.1065 -1.2325
 1952TIP3   OH227414   4.687   3.907   2.409 -0.3545  0.3452 -0.4501
 1952TIP3    H127415   4.608   3.959   2.394 -2.0977 -2.4326 -1.7137
 1952TIP3    H227416   4.654   3.818   2.425  2.4557 -0.4891  1.3258
 1953TIP3   OH227417   6.830   3.090   0.100 -0.2853  0.2685  0.2198
 1953TIP3    H127418   6.807   3.176   0.135  0.1969  0.5323 -0.1059
 1953TIP3    H227419   6.832   3.102   0.005 -1.5982 -0.4530  0.0803
 1954TIP3   OH227420   0.898   5.591   7.398 -0.2111  0.0819  0.1096
 1954TIP3    H127421   0.874   5.552   7.313 -1.2396  3.2890 -1.2314
 1954TIP3    H227422   0.815   5.603   7.443  0.3073 -1.3039  1.5320
 1955TIP3   OH227423   2.834   0.953   1.866 -0.0743 -0.5340  0.1967
 1955TIP3    H127424   2.755   0.908   1.895 -0.0357  0.0718  1.3072
 1955TIP3    H227425   2.866   0.998   1.945  0.4111  0.6404 -0.6438
 1956TIP3   OH227426   5.241   4.193   3.039  0.2221 -0.1445  0.2491
 1956TIP3    H127427   5.218   4.172   3.130  0.3685 -0.3230  0.2469
 1956TIP3    H227428   5.187   4.268   3.017  0.3882  0.0709  0.5756
 1957TIP3   OH227429   3.708   5.066   7.995  0.2898 -0.3397 -0.0026
 1957TIP3    H127430   3.704   5.137   7.931 -0.0945  0.8102  1.2495
 1957TIP3    H227431   3.627   5.076   8.046  1.1790 -0.4237  1.4658
 1958TIP3   OH227432   6.735   6.727   0.653 -0.0894  0.4648  0.3083
 1958TIP3    H127433   6.704   6.714   0.563 -0.0260  2.1038  0.0319
 1958TIP3    H227434   6.819   6.681   0.657 -0.4739 -0.3116 -0.2095
 1959TIP3   OH227435   4.327   2.826   0.630  0.2272  0.4068  0.1646
 1959TIP3    H127436   4.281   2.899   0.589 -2.2076 -2.6452 -3.1255
 1959TIP3    H227437   4.411   2.821   0.583 -0.4988 -0.1283 -1.1150
 1960TIP3   OH227438   2.173   6.831   1.862  0.3622  0.3091  0.0935
 1960TIP3    H127439   2.176   6.895   1.791  0.6267  0.7222  0.4706
 1960TIP3    H227440   2.090   6.785   1.850  1.2105 -0.9085 -1.5886
 1961TIP3   OH227441   6.702   5.649   0.547 -0.4137 -0.1606 -0.0159
 1961TIP3    H127442   6.789   5.613   0.560  0.7642  2.5302  0.2282
 1961TIP3    H227443   6.698   5.671   0.454 -0.5206  0.4182  0.1198
 1962TIP3   OH227444   0.701   2.942   2.609  0.3630  0.3011  0.5229
 1962TIP3    H127445   0.668   2.855   2.632 -1.3726  0.6183 -0.6316
 1962TIP3    H227446   0.760   2.926   2.535 -1.4867  0.2598 -1.0042
 1963TIP3   OH227447   2.878   4.461   1.951  0.8666  0.1404 -0.2729
 1963TIP3    H127448   2.844   4.403   2.019 -0.2722 -0.3205 -1.2031
 1963TIP3    H227449   2.885   4.546   1.994  1.2306 -0.3813  0.7229
 1964TIP3   OH227450   6.640   3.846   2.377  0.0101  0.1005 -0.0671
 1964TIP3    H127451   6.545   3.853   2.384 -0.1450  1.3293 -2.4009
 1964TIP3    H227452   6.655   3.762   2.334  0.1795 -1.1748  2.3344
 1965TIP3   OH227453   3.819   0.590   7.851  0.2894  0.2494  0.4944
 1965TIP3    H127454   3.842   0.663   7.794 -0.2266  0.1032  0.0839
 1965TIP3    H227455   3.894   0.531   7.847 -0.3320 -0.5061 -1.2835
 1966TIP3   OH227456   0.981   6.050   2.670  0.4996 -0.4996 -0.2866
 1966TIP3    H127457   1.001   6.119   2.607 -0.0449 -0.4140 -0.3755
 1966TIP3    H227458   0.971   6.097   2.754  0.5677 -0.5257 -0.2643
 1967TIP3   OH227459   5.496   2.661   3.184  0.0466 -0.1771  0.6413
 1967TIP3    H127460   5.412   2.648   3.229 -1.3970  0.5941 -1.6503
 1967TIP3    H227461   5.509   2.756   3.185  1.5126 -0.3443  1.9189
 1968TIP3   OH227462   4.986   5.408   3.262 -0.1233 -0.3419 -0.0520
 1968TIP3    H127463   5.064   5.372   3.221 -0.0949  0.0995 -0.3895
 1968TIP3    H227464   5.019   5.475   3.323 -0.2660  0.2611 -0.6285
 1969TIP3   OH227465   0.445   5.586   7.252  0.4861 -0.0064  0.1921
 1969TIP3    H127466   0.486   5.671   7.269 -1.3623  1.2203 -1.1104
 1969TIP3    H227467   0.466   5.567   7.161 -0.8885  0.1518 -0.1851
 1970TIP3   OH227468   0.723   0.449   1.737 -0.2219 -0.0763 -0.1724
 1970TIP3    H127469   0.658   0.387   1.769  0.7594  0.7391  3.9644
 1970TIP3    H227470   0.694   0.534   1.771  1.9892  0.5786  0.2701
 1971TIP3   OH227471   3.287   6.177   0.742  0.2383  0.3779  0.5022
 1971TIP3    H127472   3.244   6.188   0.658 -2.2873 -1.9904  1.3383
 1971TIP3    H227473   3.350   6.107   0.728 -2.0113 -1.9180  1.0062
 1972TIP3   OH227474   4.147   1.659   2.578 -0.5696 -0.5213 -0.0945
 1972TIP3    H127475   4.201   1.738   2.579 -2.1735  0.6231 -0.2008
 1972TIP3    H227476   4.069   1.683   2.528 -2.1246 -1.4279  1.7494
 1973TIP3   OH227477   1.339   2.672   2.473 -0.4255 -0.0774 -0.7496
 1973TIP3    H127478   1.424   2.629   2.474 -1.1376 -1.5393 -1.0205
 1973TIP3    H227479   1.315   2.676   2.381 -0.9134 -0.2120 -0.6324
 1974TIP3   OH227480   6.199   2.211   1.037  0.3787 -0.4766  0.4701
 1974TIP3    H127481   6.203   2.306   1.031  1.0275 -0.4693  0.9220
 1974TIP3    H227482   6.290   2.183   1.041  0.1984 -1.1278  0.2406
 1975TIP3   OH227483   3.680   6.808   0.869  0.6457  0.4606  0.5812
 1975TIP3    H127484   3.622   6.797   0.944  0.4528 -0.6912  0.2873
 1975TIP3    H227485   3.742   6.735   0.876  1.5061  1.1543  0.3899
 1976TIP3   OH227486   6.254   1.189   2.225  0.0552  0.3701 -0.0699
 1976TIP3    H127487   6.191   1.127   2.261 -0.9260  2.1300  1.3859
 1976TIP3    H227488   6.218   1.212   2.139 -0.5555  0.3483  0.1759
 1977TIP3   OH227489   2.013   2.451   3.310 -0.0209  0.0370 -0.8259
 1977TIP3    H127490   2.022   2.369   3.261  0.5962  0.4810 -1.4821
 1977TIP3    H227491   1.977   2.425   3.395  2.2012 -1.2327 -0.1660
 1978TIP3   OH227492   0.845   2.840   2.406  0.6868 -0.1845  0.3524
 1978TIP3    H127493   0.834   2.746   2.392  1.1552 -0.5148  1.9921
 1978TIP3    H227494   0.924   2.863   2.358  0.1352 -0.4530 -0.7034
 1979TIP3   OH227495   3.298   3.319   1.389 -0.2860 -0.0782  0.1599
 1979TIP3    H127496   3.264   3.232   1.369  0.5935 -0.0995 -1.3433
 1979TIP3    H227497   3.374   3.303   1.445  0.0969 -0.3212 -0.4153
 1980TIP3   OH227498   4.088   2.952   0.475  0.0773  0.0194  0.1680
 1980TIP3    H127499   4.019   2.887   0.490 -0.6957  0.5978 -0.7673
 1980TIP3    H227500   4.041   3.034   0.464  0.8187  0.2571 -1.5216
 1981TIP3   OH227501   4.786   0.402   1.132  0.2414 -0.2745  0.3963
 1981TIP3    H127502   4.769   0.393   1.226  0.5120  0.7787  0.5635
 1981TIP3    H227503   4.737   0.480   1.106  2.3078  1.0412  0.2574
 1982TIP3   OH227504   0.485   3.634   0.587 -0.1973 -0.2920 -0.2541
 1982TIP3    H127505   0.420   3.564   0.582 -0.6773 -0.0272  1.5260
 1982TIP3    H227506   0.567   3.592   0.561 -0.6679 -1.2363 -0.2535
 1983TIP3   OH227507   4.773   1.842   1.019 -0.0721 -0.4064  0.0553
 1983TIP3    H127508   4.835   1.777   1.053 -0.9413 -0.6178  1.3392
 1983TIP3    H227509   4.821   1.889   0.952  0.7310 -2.1017 -0.6227
 1984TIP3   OH227510   2.410   5.133   2.917 -0.2187 -0.2209  0.1814
 1984TIP3    H127511   2.422   5.069   2.847 -0.2039  0.0895 -0.1034
 1984TIP3    H227512   2.354   5.201   2.878  1.2407  0.8565 -0.1224
 1985TIP3   OH227513   6.753   3.698   0.368 -0.0606  0.4093  0.0842
 1985TIP3    H127514   6.662   3.676   0.347 -0.1909  0.6830  0.3450
 1985TIP3    H227515   6.805   3.654   0.301 -0.1678 -2.0205  1.5028
 1986TIP3   OH227516   6.305   1.891   0.253 -0.2611  0.0682  0.0197
 1986TIP3    H127517   6.264   1.816   0.210 -0.0046  0.1905 -0.4471
 1986TIP3    H227518   6.285   1.879   0.346 -0.5875 -0.3480 -0.1000
 1987TIP3   OH227519   3.942   3.245   2.599  0.7128  0.1584 -0.6672
 1987TIP3    H127520   3.980   3.192   2.669 -0.6298  0.3069  0.2087
 1987TIP3    H227521   3.861   3.200   2.576 -2.9000  3.7413  3.1098
 1988TIP3   OH227522   1.502   2.618   1.865 -0.2324 -0.0149 -0.5064
 1988TIP3    H127523   1.488   2.705   1.827  0.6120 -0.7647 -2.7162
 1988TIP3    H227524   1.572   2.631   1.929 -0.4948  1.0100 -0.4017
 1989TIP3   OH227525   2.767   6.627   0.626 -0.7062 -0.1926 -0.2243
 1989TIP3    H127526   2.841   6.662   0.675  0.2106 -2.6113  0.2719
 1989TIP3    H227527   2.722   6.570   0.689 -2.5307  0.5919 -0.7635
 1990TIP3   OH227528   2.302   4.499   2.652  0.1588 -0.0183  0.5067
 1990TIP3    H127529   2.239   4.479   2.722 -1.1823  0.7494 -0.4181
 1990TIP3    H227530   2.305   4.419   2.599 -0.7870  0.2438  0.0335
 1991TIP3   OH227531   5.329   5.966   0.584 -0.3581  0.3728 -0.3582
 1991TIP3    H127532   5.411   5.999   0.620 -0.5142 -0.4970  0.8919
 1991TIP3    H227533   5.345   5.873   0.567 -1.3917 -0.1152  1.0706
 1992TIP3   OH227534   0.861   5.400   1.114 -0.3656 -0.0937  0.2371
 1992TIP3    H127535   0.783   5.415   1.167 -0.4248  1.0417 -0.1404
 1992TIP3    H227536   0.933   5.430   1.169 -0.3255  0.1352  0.0570
 1993TIP3   OH227537   2.152   0.231   0.976  0.6199  0.1191  0.1744
 1993TIP3    H127538   2.197   0.265   0.899 -0.3151 -2.2102 -1.5052
 1993TIP3    H227539   2.070   0.280   0.980  0.7567  0.3832 -0.2090
 1994TIP3   OH227540   6.504   2.135   7.885 -0.0641 -0.7510 -0.7422
 1994TIP3    H127541   6.584   2.140   7.832  0.7010  1.3803  0.4712
 1994TIP3    H227542   6.435   2.112   7.823  1.0723 -0.0560 -2.3313
 1995TIP3   OH227543   3.059   2.300   1.597 -0.0268 -0.0285 -0.4240
 1995TIP3    H127544   3.046   2.394   1.605  0.3618  0.0954 -1.1588
 1995TIP3    H227545   2.991   2.261   1.653 -0.1559  0.6801 -0.0797
 1996TIP3   OH227546   2.098   4.850   3.105 -0.4588  0.4470  0.4488
 1996TIP3    H127547   2.082   4.844   3.199 -0.3576 -0.8544  0.4053
 1996TIP3    H227548   2.013   4.832   3.065 -0.4500  0.7691  0.2798
 1997TIP3   OH227549   2.933   1.210   0.505  0.1735  0.2341 -0.1084
 1997TIP3    H127550   2.896   1.296   0.528 -0.5083  0.5977 -2.3932
 1997TIP3    H227551   3.017   1.208   0.552  0.7543  2.6625 -0.8724
 1998TIP3   OH227552   6.858   4.344   1.358 -0.3247 -0.0182 -0.8065
 1998TIP3    H127553   6.834   4.368   1.268 -0.6323  0.8561 -0.5049
 1998TIP3    H227554   6.809   4.406   1.412  3.1774  2.4609 -0.1425
 1999TIP3   OH227555   3.194   3.284   2.980  0.0493 -0.9129  0.1612
 1999TIP3    H127556   3.125   3.220   2.993 -1.2223 -0.3703 -3.1509
 1999TIP3    H227557   3.152   3.357   2.934  2.0435  1.1347  1.3487
 2000TIP3   OH227558   5.268   6.100   0.970  0.4474 -0.4647 -0.1172
 2000TIP3    H127559   5.330   6.082   1.040  0.7426 -0.7548 -0.4524
 2000TIP3    H227560   5.244   6.014   0.935 -2.2323 -0.6147  1.7732
 2001TIP3   OH227561   1.567   2.867   1.124 -0.7481  0.7227  0.1095
 2001TIP3    H127562   1.490   2.823   1.159 -0.1171  1.2449  2.3043
 2001TIP3    H227563   1.571   2.839   1.033  0.4309 -5.0741  1.5101
 2002TIP3   OH227564   6.782   4.716   3.246 -0.1390  0.1922  0.0703
 2002TIP3    H127565   6.802   4.732   3.154 -0.3478 -0.6681 -0.1383
 2002TIP3    H227566   6.851   4.762   3.294 -0.2949  1.0442 -0.4915
 2003TIP3   OH227567   5.726   4.794   7.924 -0.3900  0.2954 -0.3281
 2003TIP3    H127568   5.661   4.724   7.917 -0.9831  0.8108 -0.0648
 2003TIP3    H227569   5.806   4.749   7.950 -0.9979 -0.1799  0.8074
 2004TIP3   OH227570   3.451   6.140   1.269  0.0902 -0.4382  0.1017
 2004TIP3    H127571   3.482   6.223   1.234  0.5763  0.5010  2.5373
 2004TIP3    H227572   3.465   6.076   1.199  1.7961  1.1113 -1.0309
 2005TIP3   OH227573   4.219   6.489   1.449 -0.5632  0.1364  0.3050
 2005TIP3    H127574   4.212   6.583   1.464 -2.1701  0.0502  0.2502
 2005TIP3    H227575   4.181   6.449   1.527  1.6391 -0.5362  1.1127
 2006TIP3   OH227576   6.605   1.597   2.021  0.3403 -0.5127 -0.4082
 2006TIP3    H127577   6.510   1.590   2.026  0.2596  0.3712 -0.5252
 2006TIP3    H227578   6.636   1.557   2.102 -0.1747 -0.1662 -0.0310
 2007TIP3   OH227579   0.739   1.494   0.177  0.5074 -0.6004 -0.2513
 2007TIP3    H127580   0.754   1.574   0.227 -0.1441  0.5572 -1.7927
 2007TIP3    H227581   0.646   1.499   0.151  0.9963 -0.7252 -2.1803
 2008TIP3   OH227582   1.798   1.877   1.410  0.0408  0.0550 -0.5185
 2008TIP3    H127583   1.785   1.791   1.370  0.6796 -0.5899  0.6264
 2008TIP3    H227584   1.714   1.921   1.398 -0.6263 -1.0924 -0.2613
 2009TIP3   OH227585   4.091   4.486   1.175 -0.0131 -0.4996 -0.6916
 2009TIP3    H127586   4.108   4.571   1.133 -1.1545 -0.4785 -1.1397
 2009TIP3    H227587   4.071   4.509   1.266  2.1541 -0.5200 -0.1522
 2010TIP3   OH227588   5.068   1.010   0.128  0.2474 -0.4480  0.2255
 2010TIP3    H127589   5.139   1.040   0.070 -1.0234 -1.1066 -1.7991
 2010TIP3    H227590   5.113   0.979   0.206  2.0175  1.2337 -0.0347
 2011TIP3   OH227591   1.115   2.753   3.205 -0.1928  0.1081 -0.1181
 2011TIP3    H127592   1.201   2.716   3.227  0.1324  0.2860 -1.0164
 2011TIP3    H227593   1.094   2.713   3.120 -0.6544  0.6397 -0.2556
 2012TIP3   OH227594   6.890   4.066   8.215  0.1553 -0.3267  0.0408
 2012TIP3    H127595   6.983   4.060   8.194  0.1308  0.6985 -0.4230
 2012TIP3    H227596   6.888   4.091   8.308  0.3922  1.1089 -0.3116
 2013TIP3   OH227597   5.693   5.203   8.074  0.9430 -0.1542 -0.3568
 2013TIP3    H127598   5.655   5.288   8.099  0.2153 -0.5841  0.0260
 2013TIP3    H227599   5.751   5.224   8.000  0.2279  0.5742 -0.7285
 2014TIP3   OH227600   4.164   3.822   3.219 -0.2012  0.0386  0.0951
 2014TIP3    H127601   4.173   3.885   3.290 -0.0221 -0.8890  0.9221
 2014TIP3    H227602   4.070   3.819   3.201 -0.0425  1.9700 -1.3207
 2015TIP3   OH227603   1.979   4.957   0.232 -0.3328 -0.0842  0.0642
 2015TIP3    H127604   1.966   4.891   0.165  0.7254  0.1584 -0.3900
 2015TIP3    H227605   1.947   5.038   0.193  0.8847  0.1836 -0.4116
 2016TIP3   OH227606   4.100   1.051   1.287 -0.1668  0.2594 -0.0473
 2016TIP3    H127607   4.126   1.139   1.313 -0.6192  0.3797 -0.0078
 2016TIP3    H227608   4.080   1.058   1.194 -0.8602  0.3520  0.1016
 2017TIP3   OH227609   1.510   3.091   2.208 -0.1201  0.6540 -0.0316
 2017TIP3    H127610   1.600   3.061   2.222  0.0903  1.4044  0.2831
 2017TIP3    H227611   1.499   3.164   2.269 -0.3466  1.7462 -1.3352
 2018TIP3   OH227612   1.390   3.647   7.242  0.9407  0.3494  0.0117
 2018TIP3    H127613   1.443   3.567   7.235 -0.0537 -0.4962  1.5427
 2018TIP3    H227614   1.359   3.663   7.153  1.2786 -0.8993 -0.3544
 2019TIP3   OH227615   6.482   2.654   1.979 -0.1184 -0.0363  0.3125
 2019TIP3    H127616   6.503   2.561   1.973  1.4840  0.3326 -0.5704
 2019TIP3    H227617   6.393   2.661   1.945  0.2837 -1.0852 -1.0607
 2020TIP3   OH227618   3.270   6.601   3.096  0.3279  0.3558  0.1731
 2020TIP3    H127619   3.264   6.692   3.126 -1.3964  0.0927  0.7748
 2020TIP3    H227620   3.201   6.594   3.030  0.7328 -0.4059 -0.1670
 2021TIP3   OH227621   4.793   3.799   2.664  0.0627  0.4412  0.2633
 2021TIP3    H127622   4.810   3.716   2.709  0.0102  0.5147  0.4184
 2021TIP3    H227623   4.841   3.791   2.582 -0.7888 -0.1693 -0.1935
 2022TIP3   OH227624   4.775   3.516   2.653  0.5670 -0.0644  0.3514
 2022TIP3    H127625   4.850   3.470   2.690  0.7593  1.1092  1.4475
 2022TIP3    H227626   4.709   3.515   2.722  0.7948  1.8249  0.6419
 2023TIP3   OH227627   2.695   3.628   3.422 -0.7330 -0.6151 -0.1789
 2023TIP3    H127628   2.640   3.656   3.495  0.1029 -0.0712  0.2661
 2023TIP3    H227629   2.717   3.537   3.441  1.1118  0.0888  1.3340
 2024TIP3   OH227630   1.743   1.279   2.277 -0.4290  0.2269  0.2887
 2024TIP3    H127631   1.695   1.206   2.238 -0.9195  0.4776  0.4118
 2024TIP3    H227632   1.833   1.247   2.285 -0.6125 -0.3204  0.2302
 2025TIP3   OH227633   5.490   1.173   7.082 -0.5905 -0.0239  0.3503
 2025TIP3    H127634   5.490   1.265   7.111  1.7039  0.1567 -0.0804
 2025TIP3    H227635   5.500   1.178   6.987 -2.1643 -0.7416  0.1102
 2026TIP3   OH227636   5.096   5.567   0.501  0.2714  0.3384  0.7047
 2026TIP3    H127637   5.065   5.557   0.591 -2.8533  0.5158 -0.2371
 2026TIP3    H227638   5.140   5.652   0.501 -1.5886  1.3748  1.6515
 2027TIP3   OH227639   5.881   6.276   0.664 -0.0877 -0.4240 -0.6313
 2027TIP3    H127640   5.842   6.291   0.751  1.7117 -1.3976  0.4022
 2027TIP3    H227641   5.908   6.363   0.635  1.5237 -0.3373  0.9394
 2028TIP3   OH227642   2.701   2.968   2.721  0.4153 -0.1403 -0.1881
 2028TIP3    H127643   2.712   2.915   2.800 -1.3347 -0.0785  0.1265
 2028TIP3    H227644   2.634   2.923   2.671  0.4256  0.6393 -0.9288
 2029TIP3   OH227645   4.738   3.924   0.384 -0.1794 -0.2118  0.4022
 2029TIP3    H127646   4.683   3.852   0.353 -0.6037 -0.4165  1.5707
 2029TIP3    H227647   4.730   3.991   0.316 -1.3802 -0.4895  0.2404
 2030TIP3   OH227648   4.124   2.302   1.127  0.1101 -0.3918  0.2330
 2030TIP3    H127649   4.078   2.237   1.180 -2.6968  2.3460  1.4651
 2030TIP3    H227650   4.055   2.349   1.081  2.1561  0.4500 -2.1995
 2031TIP3   OH227651   3.023   3.994   1.032 -0.1182 -1.0201 -0.4773
 2031TIP3    H127652   2.954   3.928   1.041 -2.6307  1.5772  0.5300
 2031TIP3    H227653   3.024   4.015   0.939 -2.4127  0.5399 -0.2191
 2032TIP3   OH227654   2.444   4.289   2.116 -0.1353  0.0621 -0.5003
 2032TIP3    H127655   2.407   4.344   2.185  0.5392 -1.1858  0.9286
 2032TIP3    H227656   2.455   4.203   2.157  0.9971 -0.5343 -1.9431
 2033TIP3   OH227657   1.682   6.506   1.935 -0.0508  0.4885 -0.4525
 2033TIP3    H127658   1.649   6.513   1.845  1.7130  1.8991 -1.0390
 2033TIP3    H227659   1.758   6.448   1.928  1.0061  1.7991 -0.1719
 2034TIP3   OH227660   1.618   6.851   1.759 -0.0161  0.1894 -0.2542
 2034TIP3    H127661   1.564   6.817   1.688  0.3929 -2.6975  0.6885
 2034TIP3    H227662   1.583   6.810   1.838  0.7475  1.8064  1.0038
 2035TIP3   OH227663   3.587   5.649   0.425  0.0974 -0.7063 -0.5954
 2035TIP3    H127664   3.630   5.602   0.497  1.2943  0.0868 -0.7548
 2035TIP3    H227665   3.525   5.587   0.389 -0.4581 -1.1542  1.0632
 2036TIP3   OH227666   0.496   5.599   2.133  0.3356 -0.5629  0.2227
 2036TIP3    H127667   0.471   5.676   2.082 -0.6428 -1.3049 -0.4536
 2036TIP3    H227668   0.589   5.613   2.153  0.2055  0.7226  0.0068
 2037TIP3   OH227669   4.785   3.230   7.464 -0.1023 -0.1337  0.3099
 2037TIP3    H127670   4.808   3.185   7.545 -0.9178 -0.4653  0.3663
 2037TIP3    H227671   4.699   3.269   7.482  0.5332  1.3750  0.2336
 2038TIP3   OH227672   2.801   5.194   1.070  0.4812 -0.3212 -0.0066
 2038TIP3    H127673   2.804   5.279   1.116 -1.8067 -0.0528 -0.2281
 2038TIP3    H227674   2.826   5.130   1.137 -0.0529  0.3318  0.8458
 2039TIP3   OH227675   6.367   1.539   0.219 -0.0231  0.2218  0.1268
 2039TIP3    H127676   6.338   1.482   0.290 -0.0706 -0.0111 -0.0782
 2039TIP3    H227677   6.287   1.579   0.186 -0.0862 -0.2063 -0.2543
 2040TIP3   OH227678   6.469   5.930   1.156  0.1493  0.0048 -0.2471
 2040TIP3    H127679   6.465   6.025   1.159 -0.5414 -0.0123 -0.5708
 2040TIP3    H227680   6.563   5.910   1.161  0.2281  0.6315  1.6480
 2041TIP3   OH227681   6.860   4.486   7.813  0.2612 -0.3263 -0.1776
 2041TIP3    H127682   6.884   4.455   7.726 -0.8592 -1.4477 -0.1257
 2041TIP3    H227683   6.937   4.469   7.867  0.7489 -0.1759 -0.8244
 2042TIP3   OH227684   1.866   5.717   1.202 -0.1665  0.6975 -0.3725
 2042TIP3    H127685   1.804   5.783   1.234  0.1648  3.0182 -3.9090
 2042TIP3    H227686   1.832   5.693   1.116  1.8993 -0.7432 -0.8581
 2043TIP3   OH227687   4.419   2.421   2.249 -0.4595 -0.1785  0.2040
 2043TIP3    H127688   4.390   2.482   2.317  1.0345  0.6087  0.1584
 2043TIP3    H227689   4.367   2.444   2.172 -2.0676 -0.9854  0.9808
 2044TIP3   OH227690   2.292   3.276   1.220  0.1318 -0.6291  0.3696
 2044TIP3    H127691   2.379   3.295   1.254  0.1851  0.7768 -0.4768
 2044TIP3    H227692   2.303   3.198   1.166  0.3748 -1.8625  2.1141
 2045TIP3   OH227693   4.125   3.680   7.635 -0.2568  0.6924  0.1143
 2045TIP3    H127694   4.082   3.620   7.696 -0.2240 -0.1940 -0.7106
 2045TIP3    H227695   4.216   3.651   7.631  0.5117  2.5961  1.8898
 2046TIP3   OH227696   5.044   6.364   2.670 -0.1792 -0.3548  0.1404
 2046TIP3    H127697   4.957   6.398   2.687  0.3358  0.6843  0.8342
 2046TIP3    H227698   5.079   6.420   2.600 -0.7362 -1.9631 -1.4936
 2047TIP3   OH227699   6.248   2.244   0.523  0.0851 -0.0199  0.0720
 2047TIP3    H127700   6.261   2.155   0.556 -0.0991  0.8147  2.6187
 2047TIP3    H227701   6.223   2.295   0.601  0.6188  2.3599 -1.2225
 2048TIP3   OH227702   5.092   5.176   0.267 -0.6706  0.5001 -0.3385
 2048TIP3    H127703   5.170   5.122   0.260 -0.7944  0.3607 -0.7003
 2048TIP3    H227704   5.020   5.118   0.241 -0.8209  0.7936 -0.5904
 2049TIP3   OH227705   1.135   5.349   1.661  0.3708  0.0665  0.3684
 2049TIP3    H127706   1.039   5.350   1.659  0.3235  2.5829 -1.2788
 2049TIP3    H227707   1.159   5.440   1.673  2.6694 -0.7771  3.5338
 2050TIP3   OH227708   2.449   5.209   1.224  0.5686  0.5293 -0.3532
 2050TIP3    H127709   2.458   5.303   1.238 -4.5414  1.1959  0.6669
 2050TIP3    H227710   2.454   5.170   1.311  0.7598  0.1435 -0.5338
 2051TIP3   OH227711   2.881   2.251   2.982  0.1040 -0.6127 -0.4037
 2051TIP3    H127712   2.848   2.316   3.044  0.9865  0.1467 -0.7120
 2051TIP3    H227713   2.802   2.209   2.946 -0.4479 -0.2042  0.3075
 2052TIP3   OH227714   5.485   4.161   1.547  0.2416 -0.3031  0.0114
 2052TIP3    H127715   5.462   4.195   1.461  1.0590 -0.6458 -0.3583
 2052TIP3    H227716   5.472   4.235   1.606  0.4405  0.1775 -0.5338
 2053TIP3   OH227717   6.672   2.212   7.435 -0.3957  0.1190  0.0700
 2053TIP3    H127718   6.616   2.202   7.359 -0.3995 -0.1334  0.1049
 2053TIP3    H227719   6.619   2.260   7.499 -1.4650 -2.1777  1.0136
 2054TIP3   OH227720   0.552   0.470   1.533 -0.5931 -0.0208  0.3198
 2054TIP3    H127721   0.634   0.468   1.582 -1.5996 -5.9628  2.6513
 2054TIP3    H227722   0.505   0.545   1.568  2.2170  1.1763  1.8686
 2055TIP3   OH227723   1.572   2.335   0.863 -0.1395 -0.0418  0.3703
 2055TIP3    H127724   1.499   2.379   0.907 -1.7451  0.5244 -2.6348
 2055TIP3    H227725   1.543   2.244   0.855 -0.4172  0.1168 -0.5415
 2056TIP3   OH227726   1.595   5.725   0.038 -0.4412 -0.1066  0.1007
 2056TIP3    H127727   1.628   5.675  -0.037  1.3259 -0.6056  1.1426
 2056TIP3    H227728   1.538   5.791  -0.000  2.2675  1.2377 -1.9813
 2057TIP3   OH227729   3.050   0.478   1.419 -1.1721 -0.6734  0.1627
 2057TIP3    H127730   3.046   0.436   1.333 -1.6396  0.8434 -0.5852
 2057TIP3    H227731   3.106   0.555   1.406 -3.5273  1.2149  0.4435
 2058TIP3   OH227732   4.074   1.699   1.634 -0.5932  0.0140 -0.4187
 2058TIP3    H127733   4.045   1.788   1.655  0.0729  0.0204  0.5325
 2058TIP3    H227734   3.997   1.645   1.651 -2.5277  0.7746 -5.1695
 2059TIP3   OH227735   0.113   2.017   0.507  0.7312 -0.0223  0.6170
 2059TIP3    H127736   0.048   1.967   0.457  2.2727 -2.1074  0.5777
 2059TIP3    H227737   0.074   2.027   0.594 -0.1633 -0.1266  0.2381
 2060TIP3   OH227738   4.989   6.029   0.070  0.5436  0.2778  0.5756
 2060TIP3    H127739   5.046   6.062   0.140  1.1855 -1.0200  0.6978
 2060TIP3    H227740   4.908   6.005   0.115 -0.6080  3.1565  0.2447
 2061TIP3   OH227741   5.375   3.529   2.663 -0.6890 -0.5642 -0.4049
 2061TIP3    H127742   5.381   3.483   2.579 -0.4763 -1.2260 -0.0407
 2061TIP3    H227743   5.415   3.614   2.647  1.7468 -1.5910 -0.3670
 2062TIP3   OH227744   5.433   5.502   1.444 -0.1469  0.1036 -0.0809
 2062TIP3    H127745   5.515   5.467   1.478  0.7329  1.3930 -0.7573
 2062TIP3    H227746   5.457   5.589   1.410 -1.6380  0.2001 -0.9734
 2063TIP3   OH227747   4.224   6.590   7.918  0.0361 -0.1026  0.4369
 2063TIP3    H127748   4.291   6.651   7.888 -1.9805  1.4475 -1.1633
 2063TIP3    H227749   4.164   6.644   7.969 -2.9012 -0.1084 -2.6632
 2064TIP3   OH227750   0.417   0.074   0.399  0.1053 -0.5677  0.5901
 2064TIP3    H127751   0.488   0.042   0.455 -0.9405 -0.2109  2.2001
 2064TIP3    H227752   0.461   0.122   0.329  1.4707  1.3158  2.5894
 2065TIP3   OH227753   2.297   0.306   2.724  0.1134  0.1212  0.5919
 2065TIP3    H127754   2.373   0.263   2.766  0.5937  0.1685 -0.2060
 2065TIP3    H227755   2.268   0.370   2.788  1.4784  0.9080  0.4765
 2066TIP3   OH227756   5.071   0.467   8.109  0.1011  0.5272 -0.3324
 2066TIP3    H127757   5.051   0.559   8.089 -0.6118  0.1577 -1.4054
 2066TIP3    H227758   4.991   0.434   8.150  0.3763  0.4049  0.0986
 2067TIP3   OH227759   5.788   5.518   7.889  0.3220 -0.2848 -0.3952
 2067TIP3    H127760   5.853   5.475   7.833 -0.6280 -1.7670 -0.4131
 2067TIP3    H227761   5.810   5.489   7.978 -0.6095 -1.2492 -0.4559
 2068TIP3   OH227762   3.671   5.224   1.904 -0.1456 -0.1146  0.0437
 2068TIP3    H127763   3.604   5.169   1.863 -2.0609  1.1237  1.3261
 2068TIP3    H227764   3.677   5.301   1.847  1.2097 -0.7927 -0.7772
 2069TIP3   OH227765   0.680   0.240   0.538 -0.0187  0.3607  0.0497
 2069TIP3    H127766   0.753   0.180   0.519 -0.1175  0.1237  0.3991
 2069TIP3    H227767   0.625   0.237   0.460  0.3881  0.6018 -0.2458
 2070TIP3   OH227768   5.938   2.294   0.667 -0.1972  0.4255  0.2644
 2070TIP3    H127769   5.969   2.217   0.619 -0.7110  0.1833  0.3106
 2070TIP3    H227770   6.008   2.313   0.730 -0.4628 -0.5885  0.8977
 2071TIP3   OH227771   6.240   2.333   3.352  0.2048  0.7746 -0.3498
 2071TIP3    H127772   6.307   2.393   3.385  1.0205 -0.8735  1.1232
 2071TIP3    H227773   6.262   2.323   3.259  1.0119  1.5288 -0.2594
 2072TIP3   OH227774   0.327   5.696   3.135 -0.6984  0.0759 -0.4102
 2072TIP3    H127775   0.324   5.737   3.222 -0.3098  1.0777 -0.8579
 2072TIP3    H227776   0.411   5.721   3.099  0.0470 -2.0253 -0.3085
 2073TIP3   OH227777   5.491   1.694   7.208  0.3333 -0.4073 -0.7142
 2073TIP3    H127778   5.507   1.725   7.119  0.0107 -1.5106 -1.1810
 2073TIP3    H227779   5.493   1.772   7.262  2.1918  0.1009 -1.4500
 2074TIP3   OH227780   6.550   3.342   0.479 -0.0616 -0.0228  0.5683
 2074TIP3    H127781   6.534   3.336   0.573  1.0349  2.7285  1.0420
 2074TIP3    H227782   6.645   3.345   0.471 -0.0890 -1.5852 -0.8022
 2075TIP3   OH227783   5.874   2.623   0.045  0.3953 -0.0310 -0.2499
 2075TIP3    H127784   5.792   2.586   0.078  0.2937  0.9935  0.7209
 2075TIP3    H227785   5.933   2.548   0.037 -0.2506 -0.6094  0.2562
 2076TIP3   OH227786   3.085   4.345   2.218  0.8244 -0.1650 -0.0215
 2076TIP3    H127787   2.998   4.318   2.192  0.8200  0.3024 -0.5147
 2076TIP3    H227788   3.079   4.356   2.313  0.6612 -1.2291  0.1012
 2077TIP3   OH227789   5.828   5.575   7.207  0.2562  0.0387  0.0564
 2077TIP3    H127790   5.810   5.610   7.119  1.9193  2.9251  0.7191
 2077TIP3    H227791   5.800   5.645   7.266 -1.4908 -2.1302  1.9423
 2078TIP3   OH227792   3.977   2.283   2.499  0.4669 -0.5050  0.0321
 2078TIP3    H127793   4.007   2.360   2.451 -0.3408 -1.4348 -2.1218
 2078TIP3    H227794   3.891   2.308   2.532  0.9995  0.1211  0.9992
 2079TIP3   OH227795   3.871   6.856   8.263 -0.9070  0.3585 -0.1244
 2079TIP3    H127796   3.831   6.816   8.341  0.4959  1.0767  1.0218
 2079TIP3    H227797   3.810   6.837   8.192 -1.7102 -1.2521  0.9405
 2080TIP3   OH227798   6.516   6.419   1.808 -0.3604  0.0524 -0.2748
 2080TIP3    H127799   6.424   6.395   1.819  0.4084 -2.6022  1.4089
 2080TIP3    H227800   6.552   6.416   1.897  2.2348 -3.4069 -1.2023
 2081TIP3   OH227801   4.737   2.840   0.101 -0.3285 -0.5153 -0.1990
 2081TIP3    H127802   4.658   2.786   0.089  0.6651 -1.7316 -1.7257
 2081TIP3    H227803   4.765   2.822   0.191 -2.2145  0.5809  0.6569
 2082TIP3   OH227804   1.219   3.270   0.634 -0.1442 -0.1535 -0.0845
 2082TIP3    H127805   1.266   3.332   0.689  0.8891 -0.9816  0.0108
 2082TIP3    H227806   1.192   3.200   0.694  1.9089 -1.5962 -0.7248
 2083TIP3   OH227807   4.302   3.510   1.289  0.2886  0.1987 -0.1191
 2083TIP3    H127808   4.351   3.474   1.363 -2.1805  0.5155  1.8100
 2083TIP3    H227809   4.365   3.566   1.243  3.0131 -3.0409 -0.6886
 2084TIP3   OH227810   4.621   5.360   0.600 -0.1369  0.2090  0.3101
 2084TIP3    H127811   4.641   5.454   0.611 -2.8188  0.7955  0.7770
 2084TIP3    H227812   4.663   5.319   0.675  1.4216  0.9352 -0.1067
 2085TIP3   OH227813   6.761   3.598   7.412 -0.1158 -0.3634  0.6022
 2085TIP3    H127814   6.814   3.677   7.403 -0.2252 -0.3799 -0.2674
 2085TIP3    H227815   6.724   3.584   7.325 -0.1912 -1.3123  0.7770
 2086TIP3   OH227816   4.686   6.321   2.424 -0.2353  0.1221 -0.5457
 2086TIP3    H127817   4.667   6.263   2.350  1.8777 -0.2708 -0.8679
 2086TIP3    H227818   4.778   6.344   2.412  0.5770 -0.9324  2.6035
 2087TIP3   OH227819   5.540   6.776   2.375 -0.2993  0.2945  0.1131
 2087TIP3    H127820   5.561   6.870   2.376 -1.1771  0.4904  0.4198
 2087TIP3    H227821   5.455   6.771   2.331 -0.6032 -0.2867  0.7519
 2088TIP3   OH227822   3.746   1.040   7.786 -0.2861 -0.0652 -0.5404
 2088TIP3    H127823   3.659   1.064   7.753 -0.0172  2.2479  0.2827
 2088TIP3    H227824   3.764   1.103   7.855  2.1627 -0.3268 -0.8610
 2089TIP3   OH227825   1.069   2.929   8.220  0.9236 -0.1451  0.1026
 2089TIP3    H127826   0.981   2.919   8.184  0.5326  1.2401  0.6300
 2089TIP3    H227827   1.096   2.839   8.242 -0.5011 -0.5484  0.2991
 2090TIP3   OH227828   1.456   3.378   7.079 -0.0412 -0.1946  0.1536
 2090TIP3    H127829   1.520   3.309   7.059  1.5619  1.6599 -1.5020
 2090TIP3    H227830   1.382   3.331   7.117  1.2425 -2.7463 -0.2766
 2091TIP3   OH227831   6.063   3.622   6.979 -0.2109 -0.1136 -0.3860
 2091TIP3    H127832   6.059   3.716   6.963 -1.8147  0.4105  2.3575
 2091TIP3    H227833   6.126   3.589   6.915  0.3161  2.7794 -1.5181
 2092TIP3   OH227834   1.341   4.666   7.403 -0.0617 -0.0755 -0.4400
 2092TIP3    H127835   1.275   4.734   7.413  0.1123 -0.0413  0.5723
 2092TIP3    H227836   1.402   4.701   7.338 -0.2026  0.5601 -0.2344
 2093TIP3   OH227837   2.123   6.153   0.023 -0.1929  0.1849 -0.4012
 2093TIP3    H127838   2.080   6.073   0.054 -1.6365  1.0016 -0.2017
 2093TIP3    H227839   2.180   6.124  -0.048  0.0834 -1.1539  0.3383
 2094TIP3   OH227840   5.486   5.391   1.150 -0.2669  0.1764  0.4965
 2094TIP3    H127841   5.572   5.370   1.111 -0.4719  0.4133 -0.0899
 2094TIP3    H227842   5.508   5.442   1.228  0.0798  3.0794 -1.3493
 2095TIP3   OH227843   6.641   2.701   3.321  0.0386 -0.2199  0.3849
 2095TIP3    H127844   6.724   2.736   3.353  1.8110 -0.7883 -3.1619
 2095TIP3    H227845   6.582   2.777   3.323  1.1320  0.6517  1.3061
 2096TIP3   OH227846   3.870   6.567   2.967 -0.0927 -0.0113  0.5629
 2096TIP3    H127847   3.936   6.573   3.036 -1.9384 -1.9977  2.6847
 2096TIP3    H227848   3.898   6.493   2.913 -0.2833 -0.5264  1.1560
 2097TIP3   OH227849   2.136   2.309   0.303  0.1097 -0.6666  0.7713
 2097TIP3    H127850   2.172   2.397   0.311 -2.5244  0.5560 -0.0129
 2097TIP3    H227851   2.069   2.304   0.371  0.3439 -2.1832  0.9331
 2098TIP3   OH227852   6.874   4.340   2.061 -0.3380  0.0470 -0.1681
 2098TIP3    H127853   6.933   4.295   2.121  0.2610  1.0269 -0.0001
 2098TIP3    H227854   6.799   4.280   2.051 -1.5466  0.7218  3.3303
 2099TIP3   OH227855   6.814   4.003   1.817 -0.0184  0.3445  0.3440
 2099TIP3    H127856   6.821   3.989   1.912 -1.2248 -1.3921  0.2228
 2099TIP3    H227857   6.750   4.073   1.808  0.3642  0.7645  0.8084
 2100TIP3   OH227858   5.069   6.396   1.389 -0.5236 -0.0723 -0.7623
 2100TIP3    H127859   5.149   6.367   1.433 -1.5603 -0.5122  0.8970
 2100TIP3    H227860   5.075   6.357   1.302  0.4025 -1.2818 -0.1891
 2101TIP3   OH227861   6.335   3.095   1.729  0.4566  0.0640 -0.1234
 2101TIP3    H127862   6.289   3.013   1.715 -0.9602  1.0430 -1.5984
 2101TIP3    H227863   6.291   3.136   1.803  2.2186 -1.1463  1.7188
 2102TIP3   OH227864   4.660   4.791   0.767 -0.0546  0.3251  0.3508
 2102TIP3    H127865   4.717   4.722   0.733  0.2912  0.2933  0.9900
 2102TIP3    H227866   4.651   4.852   0.694 -0.6864 -0.5835 -0.3588
 2103TIP3   OH227867   4.912   5.660   1.598  0.0631  0.1944 -0.1630
 2103TIP3    H127868   4.971   5.731   1.572 -1.2521  0.7088 -1.9230
 2103TIP3    H227869   4.829   5.681   1.556 -1.1316 -1.0267  1.4436
 2104TIP3   OH227870   2.599   0.894   2.611 -0.1668  0.6250  0.1348
 2104TIP3    H127871   2.666   0.843   2.565 -0.0563 -0.2631  1.2101
 2104TIP3    H227872   2.632   0.984   2.609  1.2898  0.1517  0.9743
 2105TIP3   OH227873   5.997   4.555   0.988  0.5344  0.7348 -0.3375
 2105TIP3    H127874   6.068   4.542   0.926  0.5252  0.6336 -0.3276
 2105TIP3    H227875   5.947   4.629   0.953  0.3422  0.4734 -0.6215
 2106TIP3   OH227876   5.928   5.204   2.194 -0.0316 -0.5815 -0.4800
 2106TIP3    H127877   5.881   5.272   2.147 -0.2487 -1.7233 -2.0085
 2106TIP3    H227878   6.020   5.225   2.181 -0.0968 -0.0353 -0.0830
 2107TIP3   OH227879   6.357   1.886   2.185 -0.0618  0.2259 -0.2941
 2107TIP3    H127880   6.337   1.978   2.168 -0.6141  0.3487  0.9412
 2107TIP3    H227881   6.431   1.888   2.245  0.6810 -0.1752 -1.1623
 2108TIP3   OH227882   1.532   2.742   8.035 -0.1597 -0.0551  0.1978
 2108TIP3    H127883   1.450   2.772   7.995 -0.3864 -1.7985 -0.7561
 2108TIP3    H227884   1.583   2.709   7.961  0.8393 -0.2206  0.9550
 2109TIP3   OH227885   1.198   4.241   2.619  0.2918  0.1048  0.1754
 2109TIP3    H127886   1.204   4.148   2.642 -0.7308 -0.0205 -0.0244
 2109TIP3    H227887   1.183   4.242   2.525  0.1855  0.4648  0.1942
 2110TIP3   OH227888   0.852   1.853   1.621  0.7848 -0.0435 -0.6066
 2110TIP3    H127889   0.852   1.782   1.685 -1.9800  0.4172  0.0269
 2110TIP3    H227890   0.794   1.919   1.659 -1.3836  0.0577 -3.7637
 2111TIP3   OH227891   4.849   1.026   0.393 -0.0742  0.5415  0.1781
 2111TIP3    H127892   4.931   1.074   0.377  0.6327 -0.5294  0.4703
 2111TIP3    H227893   4.830   1.041   0.485 -0.2924  0.9147  0.0733
 2112TIP3   OH227894   0.170   3.839   3.360  0.0938 -0.4275 -0.3116
 2112TIP3    H127895   0.168   3.756   3.312 -0.8516 -0.2238 -0.6495
 2112TIP3    H227896   0.079   3.868   3.362  0.2263 -0.0040  0.8789
 2113TIP3   OH227897   1.451   3.535   8.264 -0.2545 -0.6771 -0.6317
 2113TIP3    H127898   1.369   3.585   8.262  0.7409  1.0892  0.5844
 2113TIP3    H227899   1.511   3.588   8.317  1.5598 -2.1389 -1.1124
 2114TIP3   OH227900   1.682   5.909   1.316  0.2932 -0.2172 -0.1341
 2114TIP3    H127901   1.623   5.848   1.271 -1.0767  0.6440  0.4332
 2114TIP3    H227902   1.687   5.985   1.258  0.3650 -0.0445  0.0950
 2115TIP3   OH227903   0.425   3.722   2.815  0.5445 -0.0538  0.2194
 2115TIP3    H127904   0.466   3.803   2.784 -1.1230  0.7597  0.0127
 2115TIP3    H227905   0.385   3.746   2.899 -0.3976 -0.5097 -0.0801
 2116TIP3   OH227906   4.774   4.850   1.522  0.3210  0.8877  0.0238
 2116TIP3    H127907   4.848   4.863   1.581  0.4229  0.1619  0.0704
 2116TIP3    H227908   4.802   4.888   1.439  0.5733  1.0144  0.1679
 2117TIP3   OH227909   6.685   0.226   0.473 -0.1423  0.1664 -0.3724
 2117TIP3    H127910   6.733   0.200   0.395  2.2276  1.9097  0.3951
 2117TIP3    H227911   6.636   0.304   0.446  1.5528  1.4407  0.0844
 2118TIP3   OH227912   5.567   2.824   1.655 -0.4720 -0.0105 -0.1703
 2118TIP3    H127913   5.475   2.847   1.655 -0.6131 -0.5643 -0.3371
 2118TIP3    H227914   5.581   2.781   1.570  0.2310  1.2128 -0.7077
 2119TIP3   OH227915   3.337   6.419   1.036  1.0374  0.4351  0.2120
 2119TIP3    H127916   3.340   6.471   0.955 -0.8382  1.2437  0.6200
 2119TIP3    H227917   3.297   6.336   1.009 -0.2665  0.9759  0.4083
 2120TIP3   OH227918   2.317   4.746   1.943  0.0244  0.5545  0.0348
 2120TIP3    H127919   2.286   4.672   1.891 -1.6041  1.4258 -0.3010
 2120TIP3    H227920   2.238   4.798   1.960  0.8222  1.2358  1.8632
 2121TIP3   OH227921   1.758   5.028   2.100  0.0208  0.0657  0.2705
 2121TIP3    H127922   1.749   4.996   2.010  2.6054 -0.7303  0.1961
 2121TIP3    H227923   1.740   4.952   2.155 -1.5695  0.5558  0.4597
 2122TIP3   OH227924   2.455   2.627   8.187  0.4257 -0.0792 -0.0477
 2122TIP3    H127925   2.450   2.623   8.091 -0.2046  0.3156 -0.0349
 2122TIP3    H227926   2.416   2.711   8.210  3.9760  1.6686  0.3418
 2123TIP3   OH227927   6.373   1.956   1.015  0.1070 -0.3235 -0.9320
 2123TIP3    H127928   6.343   1.878   1.061 -0.9118 -0.5578 -1.9619
 2123TIP3    H227929   6.468   1.955   1.026 -0.0962 -0.3048  1.2270
 2124TIP3   OH227930   1.336   1.912   0.076  0.4682 -0.1003 -0.2821
 2124TIP3    H127931   1.295   1.989   0.114  0.7374  0.0217 -0.2347
 2124TIP3    H227932   1.266   1.848   0.070  0.0949  0.3462 -0.8779
 2125TIP3   OH227933   3.628   4.217   7.430 -0.0711  0.0020  0.2467
 2125TIP3    H127934   3.557   4.243   7.372 -1.9639 -0.5080  2.2070
 2125TIP3    H227935   3.667   4.141   7.388 -0.3502  0.5628 -1.0969
 2126TIP3   OH227936   0.023   1.735   0.154  0.1132 -0.1138  0.1039
 2126TIP3    H127937  -0.049   1.796   0.137  0.3278 -0.3408 -1.9465
 2126TIP3    H227938   0.091   1.789   0.195 -0.4126  0.5904  0.0646
 2127TIP3   OH227939   0.678   2.903   1.674  0.3352 -0.0801  0.6299
 2127TIP3    H127940   0.726   2.824   1.699  1.6245 -0.2150 -1.9633
 2127TIP3    H227941   0.590   2.871   1.651  0.3171 -0.4856  1.2411
 2128TIP3   OH227942   0.937   2.540   2.599  0.5380 -0.3324 -0.1088
 2128TIP3    H127943   0.968   2.518   2.512  0.7387  0.1788 -0.1720
 2128TIP3    H227944   0.983   2.480   2.657  0.6751 -0.4305 -0.3192
 2129TIP3   OH227945   6.373   4.187   1.938  0.0961 -0.3014 -0.1031
 2129TIP3    H127946   6.425   4.178   1.857 -0.1251 -0.0980 -0.2679
 2129TIP3    H227947   6.331   4.102   1.948  0.0614 -0.3019 -0.2450
 2130TIP3   OH227948   5.616   1.391   6.944 -0.2348  0.4502  0.0756
 2130TIP3    H127949   5.538   1.444   6.960 -0.7260  0.2249 -1.4208
 2130TIP3    H227950   5.596   1.343   6.864  1.0506 -0.3825  0.2302
 2131TIP3   OH227951   5.067   6.763   0.555 -0.3355 -0.5136 -0.0948
 2131TIP3    H127952   5.002   6.811   0.607  1.2571  1.6171  0.0306
 2131TIP3    H227953   5.128   6.729   0.620  0.5666  0.4638 -0.4143
 2132TIP3   OH227954   4.330   4.966   1.704  0.0211  0.4453 -0.1807
 2132TIP3    H127955   4.283   5.044   1.675  0.4968 -0.2800 -3.1324
 2132TIP3    H227956   4.375   4.934   1.626  0.0963 -2.6226  1.0031
 2133TIP3   OH227957   0.346   6.590   7.657 -0.9785 -0.1287  0.1345
 2133TIP3    H127958   0.306   6.633   7.582 -0.0793 -0.0397 -0.3117
 2133TIP3    H227959   0.281   6.527   7.687 -1.3419 -0.1816 -0.7342
 2134TIP3   OH227960   5.098   6.163   6.880 -0.4769  0.3424  0.0136
 2134TIP3    H127961   5.119   6.183   6.971  0.0589 -0.4203  0.0630
 2134TIP3    H227962   5.178   6.127   6.843 -0.6183  0.8449 -0.8321
 2135TIP3   OH227963   3.734   4.434   2.105 -0.6590 -0.3071 -0.0581
 2135TIP3    H127964   3.815   4.384   2.090  0.0046 -0.1464  2.4905
 2135TIP3    H227965   3.699   4.398   2.186 -0.7149  2.6144  1.3374
 2136TIP3   OH227966   5.641   0.323   0.419  0.3797  0.5549 -0.2642
 2136TIP3    H127967   5.582   0.327   0.344 -0.4971  0.9384  0.4242
 2136TIP3    H227968   5.583   0.326   0.496  1.2500  0.1201  0.4272
 2137TIP3   OH227969   5.042   0.485   3.039  1.0749  0.2875  0.5360
 2137TIP3    H127970   5.020   0.394   3.022  1.4610 -0.1934  2.4437
 2137TIP3    H227971   5.058   0.490   3.133  0.5394  2.4465  0.5808
 2138TIP3   OH227972   6.491   0.208   2.871 -0.3663  0.1073  0.3100
 2138TIP3    H127973   6.405   0.250   2.874 -0.5207 -0.2519  1.1500
 2138TIP3    H227974   6.514   0.195   2.963 -0.2425 -1.4729  0.0835
 2139TIP3   OH227975   6.704   4.964   0.289 -0.0098  0.1799 -0.0291
 2139TIP3    H127976   6.686   5.009   0.207 -0.7422 -2.6106 -1.5505
 2139TIP3    H227977   6.655   5.013   0.355  2.3900  3.8747 -0.6831
 2140TIP3   OH227978   0.101   4.831   2.254  0.4680  0.5177  0.0658
 2140TIP3    H127979   0.079   4.738   2.252  0.7883  0.4280  0.5502
 2140TIP3    H227980   0.188   4.835   2.294  0.8901  0.9489 -0.8656
 2141TIP3   OH227981   3.381   3.434   0.237  0.5787  0.2225 -0.1882
 2141TIP3    H127982   3.409   3.346   0.208 -1.7317 -1.1361  1.4312
 2141TIP3    H227983   3.292   3.443   0.204  0.5703  1.7585  0.1811
 2142TIP3   OH227984   4.933   6.318   2.319  0.1033  0.0951 -0.6759
 2142TIP3    H127985   5.027   6.308   2.330  0.1838  1.9668  0.7608
 2142TIP3    H227986   4.923   6.370   2.239  0.3494  0.6158 -0.3737
 2143TIP3   OH227987   5.058   0.439   1.179  0.6318 -0.4670  0.2539
 2143TIP3    H127988   5.053   0.347   1.155  0.7557 -0.6132  0.7869
 2143TIP3    H227989   4.971   0.474   1.159 -0.2906 -1.3073  2.5376
 2144TIP3   OH227990   5.080   6.107   0.628 -0.4044  0.1076 -0.6566
 2144TIP3    H127991   5.158   6.055   0.610  0.0497  0.7989 -0.7109
 2144TIP3    H227992   5.014   6.042   0.653 -0.6511 -0.7869 -3.2667
 2145TIP3   OH227993   5.300   2.207   7.968  0.4665 -0.4818 -0.5830
 2145TIP3    H127994   5.370   2.231   7.907 -0.3685 -0.3701 -1.5273
 2145TIP3    H227995   5.239   2.281   7.965  1.6713  0.7962  2.4418
 2146TIP3   OH227996   2.712   3.985   0.584  0.2099  0.3590  0.4536
 2146TIP3    H127997   2.760   4.026   0.656  2.5731 -4.4080  2.0374
 2146TIP3    H227998   2.632   3.952   0.624  1.7604 -2.7450  1.2975
 2147TIP3   OH227999   4.807   4.065   7.354 -0.3361 -0.2096 -0.2005
 2147TIP3    H128000   4.753   3.987   7.340 -1.2124  0.7099 -2.4098
 2147TIP3    H228001   4.743   4.136   7.362  0.4915  0.6013 -0.6655
 2148TIP3   OH228002   2.239   3.275   1.958 -0.3529  0.1850  0.0048
 2148TIP3    H128003   2.331   3.248   1.957 -0.1356  0.7356 -2.4061
 2148TIP3    H228004   2.202   3.235   1.879 -2.4887 -0.8725  1.4759
 2149TIP3   OH228005   0.262   0.973   0.712 -0.3307 -0.3691  0.3716
 2149TIP3    H128006   0.256   0.957   0.618 -1.3185  1.3977  0.0794
 2149TIP3    H228007   0.337   1.031   0.722 -0.4014 -0.3203  0.6347
 2150TIP3   OH228008   2.672   3.373   0.361 -0.5353 -0.7564  0.4780
 2150TIP3    H128009   2.626   3.331   0.433 -1.1967 -1.2577 -0.2094
 2150TIP3    H228010   2.624   3.345   0.283  0.2773 -0.3893 -0.1736
 2151TIP3   OH228011   1.596   5.269   0.829 -0.4209 -0.5419  0.0431
 2151TIP3    H128012   1.680   5.239   0.795 -0.5003 -2.2554  1.2417
 2151TIP3    H228013   1.538   5.266   0.753  0.4587  0.1969 -0.6901
 2152TIP3   OH228014   6.717   0.780   2.762 -0.1360  0.8934  0.2836
 2152TIP3    H128015   6.699   0.723   2.836 -0.4498  0.3432 -0.2066
 2152TIP3    H228016   6.763   0.855   2.800  1.8473 -0.4713  0.7349
 2153TIP3   OH228017   4.570   3.811   2.966  0.2219  0.5047  0.0819
 2153TIP3    H128018   4.618   3.864   2.902 -0.8571  2.3711  0.7598
 2153TIP3    H228019   4.483   3.851   2.971 -1.6580 -2.9420 -1.3312
 2154TIP3   OH228020   6.676   3.994   2.885 -0.2184  0.3581  0.3158
 2154TIP3    H128021   6.723   4.072   2.855 -0.1666  1.0034  1.9677
 2154TIP3    H228022   6.706   3.924   2.827  1.6191  1.0690  0.3528
 2155TIP3   OH228023   5.718   6.221   0.424  0.5746  0.2161 -0.2192
 2155TIP3    H128024   5.705   6.128   0.408 -0.8422  0.1113  1.3319
 2155TIP3    H228025   5.735   6.227   0.518  2.1957  1.4056 -0.5301
 2156TIP3   OH228026   5.686   1.063   8.164  0.3693 -0.0057  0.4276
 2156TIP3    H128027   5.766   1.045   8.115  0.9671  0.7256  1.0875
 2156TIP3    H228028   5.627   1.104   8.100  0.2784 -1.1046 -0.2129
 2157TIP3   OH228029   1.174   3.424   8.194 -0.2556 -0.1444  0.6018
 2157TIP3    H128030   1.112   3.497   8.191  0.1909  0.2216 -2.0226
 2157TIP3    H228031   1.158   3.375   8.113  1.2384 -1.4311  1.0348
 2158TIP3   OH228032   6.215   0.844   0.046  0.3573  0.0007 -0.2316
 2158TIP3    H128033   6.200   0.877   0.135  2.4168 -0.5948  0.3926
 2158TIP3    H228034   6.309   0.829   0.042  0.0338 -1.9375 -1.8629
 2159TIP3   OH228035   3.701   3.368   3.169  0.3726  0.0389 -0.3945
 2159TIP3    H128036   3.753   3.298   3.128  2.2106  1.2307 -0.1879
 2159TIP3    H228037   3.637   3.392   3.102  1.8492  0.3835 -1.7432
 2160TIP3   OH228038   1.779   3.435   8.184 -0.2146  0.2695 -0.3167
 2160TIP3    H128039   1.838   3.447   8.110  0.8743  1.0400  0.6223
 2160TIP3    H228040   1.709   3.380   8.151  2.0122 -2.3628 -1.0040
 2161TIP3   OH228041   4.606   4.551   7.867  0.0269 -0.7615 -0.3912
 2161TIP3    H128042   4.696   4.563   7.837  0.1957 -2.9101 -0.9071
 2161TIP3    H228043   4.560   4.514   7.792 -1.2748  0.1684 -0.0925
 2162TIP3   OH228044   4.780   1.549   8.175  0.2030  0.4154  0.0857
 2162TIP3    H128045   4.693   1.586   8.186  0.5666  0.7894  2.1278
 2162TIP3    H228046   4.778   1.466   8.223  0.5304 -0.3404 -1.1732
 2163TIP3   OH228047   5.003   1.487   2.944 -0.0434  0.6467  0.0717
 2163TIP3    H128048   5.052   1.456   2.868 -0.9738  0.7023 -0.5803
 2163TIP3    H228049   4.911   1.475   2.919 -0.3946 -1.1337  1.9274
 2164TIP3   OH228050   6.332   6.606   0.819 -0.0280  0.0104 -0.2324
 2164TIP3    H128051   6.384   6.545   0.870  0.1925 -0.5465 -1.0923
 2164TIP3    H228052   6.393   6.643   0.755  0.3268  2.6438  1.4758
 2165TIP3   OH228053   2.802   3.484   2.234  0.0893  0.3004  0.2789
 2165TIP3    H128054   2.795   3.552   2.167  2.0068  0.2800  0.0021
 2165TIP3    H228055   2.851   3.414   2.191  0.7322 -0.0108  1.4788
 2166TIP3   OH228056   1.398   6.647   2.345  1.0416  0.0120  0.2717
 2166TIP3    H128057   1.381   6.579   2.409 -1.0965  0.0699 -0.1723
 2166TIP3    H228058   1.486   6.628   2.312  0.8622 -1.9373  0.8341
 2167TIP3   OH228059   3.463   5.428   7.682 -0.5285  0.3186 -0.8967
 2167TIP3    H128060   3.509   5.483   7.618 -0.4375  0.7157 -0.4888
 2167TIP3    H228061   3.390   5.481   7.712 -0.7690  0.0020 -0.9183
 2168TIP3   OH228062   4.457   1.588   7.865  0.8961 -0.3687  0.3667
 2168TIP3    H128063   4.434   1.621   7.951  0.8917  1.3269 -0.2540
 2168TIP3    H228064   4.429   1.496   7.866 -1.0844  0.1943  1.4239
 2169TIP3   OH228065   5.216   6.122   2.853 -0.4564 -0.0046 -0.2733
 2169TIP3    H128066   5.123   6.120   2.878 -0.5187 -1.8079 -0.5274
 2169TIP3    H228067   5.217   6.088   2.764  0.3103  1.5444 -0.8849
 2170TIP3   OH228068   2.514   2.527   1.950 -0.0620  0.0412  0.1453
 2170TIP3    H128069   2.543   2.589   2.018 -0.9074  0.6920 -0.0725
 2170TIP3    H228070   2.530   2.441   1.988  0.4868  0.3897  0.7374
 2171TIP3   OH228071   6.022   4.358   0.005 -0.2448 -0.1401  0.2189
 2171TIP3    H128072   6.102   4.311  -0.019 -0.3060 -0.2382  0.2059
 2171TIP3    H228073   6.015   4.428  -0.060 -0.1425 -0.1014  0.2493
 2172TIP3   OH228074   2.443   0.514   1.139  0.0530  0.7604 -0.8692
 2172TIP3    H128075   2.468   0.437   1.087  0.0554 -0.5354  0.9791
 2172TIP3    H228076   2.500   0.584   1.107  1.3774 -0.4734 -1.3092
 2173TIP3   OH228077   2.160   0.914   8.158 -0.1968  0.2205  0.2095
 2173TIP3    H128078   2.154   0.834   8.105  0.3076  1.3377 -1.6484
 2173TIP3    H228079   2.252   0.922   8.180 -0.7668 -2.0376  4.3986
 2174TIP3   OH228080   2.465   5.640   1.693  0.6510  0.8262 -0.3295
 2174TIP3    H128081   2.465   5.544   1.701  1.2789  0.6479 -2.0302
 2174TIP3    H228082   2.380   5.661   1.655 -0.3647  1.1952  1.9840
 2175TIP3   OH228083   1.396   0.363   1.782 -0.5862  0.0295 -0.6134
 2175TIP3    H128084   1.364   0.382   1.870  1.5638 -0.7446  0.4053
 2175TIP3    H228085   1.489   0.389   1.784 -1.0411  2.4253 -3.4742
 2176TIP3   OH228086   3.739   5.141   0.659  0.2322  0.0490  0.1341
 2176TIP3    H128087   3.691   5.215   0.696 -1.2746 -0.4402 -0.7430
 2176TIP3    H228088   3.799   5.114   0.728  0.6662  1.9402  0.5464
 2177TIP3   OH228089   2.919   5.501   1.633  0.5009  0.1677 -0.2025
 2177TIP3    H128090   2.860   5.566   1.672 -1.0337 -1.1448 -0.2073
 2177TIP3    H228091   2.983   5.482   1.701 -1.3069 -1.0654  1.2746
 2178TIP3   OH228092   0.137   1.580   2.228  0.2878 -0.3735  0.2168
 2178TIP3    H128093   0.177   1.627   2.155  0.7043 -0.4212  0.4118
 2178TIP3    H228094   0.085   1.510   2.187  0.5102 -0.3908 -0.0320
 2179TIP3   OH228095   6.615   1.408   0.285 -0.4096 -0.2292  0.3498
 2179TIP3    H128096   6.619   1.446   0.373  0.8752  1.6913 -0.4758
 2179TIP3    H228097   6.532   1.439   0.249 -0.6452 -0.4996  0.6515
 2180TIP3   OH228098   2.770   3.604   1.346 -0.4204  0.0927 -0.7118
 2180TIP3    H128099   2.729   3.684   1.312  0.2513  0.3271 -0.9722
 2180TIP3    H228100   2.838   3.582   1.282  0.8839  0.5606  0.4693
 2181TIP3   OH228101   0.810   3.562   7.830  0.1453  0.4773  0.5677
 2181TIP3    H128102   0.818   3.606   7.745  1.2224  0.2141  0.5142
 2181TIP3    H228103   0.750   3.490   7.814  1.1705 -0.2259 -0.2643
 2182TIP3   OH228104   5.101   1.803   1.186  0.5395 -0.3613  0.0452
 2182TIP3    H128105   5.067   1.743   1.120  0.6957  0.6782 -1.0107
 2182TIP3    H228106   5.196   1.801   1.174  0.4854  0.8841 -0.7269
 2183TIP3   OH228107   2.071   0.719   2.243  0.1377  0.4360 -0.5508
 2183TIP3    H128108   2.109   0.668   2.172 -0.7704 -2.4612  0.8880
 2183TIP3    H228109   2.008   0.660   2.284 -0.4815  2.5181  1.7322
 2184TIP3   OH228110   1.307   2.708   0.471 -0.3335 -0.2483  0.2183
 2184TIP3    H128111   1.298   2.750   0.385  1.5690  1.2804  0.6990
 2184TIP3    H228112   1.255   2.762   0.530  0.6596  0.4077  0.5136
 2185TIP3   OH228113   3.719   1.755   2.751  0.0174 -0.7430  0.2009
 2185TIP3    H128114   3.641   1.770   2.698 -0.2160 -0.7926  0.5302
 2185TIP3    H228115   3.752   1.670   2.720  1.0591  0.1619 -1.3057
 2186TIP3   OH228116   1.968   2.420   1.486  0.4964 -0.1310  0.6098
 2186TIP3    H128117   1.920   2.496   1.518  0.0166  0.6679 -1.7668
 2186TIP3    H228118   2.026   2.396   1.558 -0.9689  1.0355  2.2828
 2187TIP3   OH228119   4.188   1.564   1.876  0.5836  0.1615 -0.2688
 2187TIP3    H128120   4.243   1.616   1.934  1.7474 -1.8884  0.5858
 2187TIP3    H228121   4.206   1.598   1.788  1.4174  1.0798  0.2355
 2188TIP3   OH228122   3.176   4.418   8.110  0.0631  0.0715 -0.9483
 2188TIP3    H128123   3.259   4.401   8.154 -1.0103 -1.0961  0.7748
 2188TIP3    H228124   3.192   4.394   8.018  1.6282 -0.0209 -0.6792
 2189TIP3   OH228125   2.390   0.940   1.102  0.0053  0.2775 -1.0413
 2189TIP3    H128126   2.449   0.865   1.111 -0.2602  0.3390  2.3315
 2189TIP3    H228127   2.307   0.909   1.138 -0.0060  2.2354  0.8332
 2190TIP3   OH228128   0.089   0.740   0.608  0.3295 -0.0019 -0.2914
 2190TIP3    H128129  -0.002   0.735   0.580  0.3463  1.4896 -0.6685
 2190TIP3    H228130   0.134   0.786   0.538  1.8535 -2.5504 -1.1206
 2191TIP3   OH228131   3.717   1.857   1.749 -0.2115 -0.0162 -0.5200
 2191TIP3    H128132   3.811   1.853   1.730 -0.0768 -0.1307  0.1491
 2191TIP3    H228133   3.710   1.923   1.817 -0.4538 -0.9783  0.4060
 2192TIP3   OH228134   4.884   3.488   1.402  0.8627 -0.2645  0.4981
 2192TIP3    H128135   4.874   3.452   1.314  0.6985  0.0706  0.3785
 2192TIP3    H228136   4.884   3.411   1.459  0.0433 -0.4412  0.2822
 2193TIP3   OH228137   4.601   1.704   7.433 -0.3432 -0.0035 -0.1293
 2193TIP3    H128138   4.672   1.643   7.414 -0.6497 -0.1403 -0.8669
 2193TIP3    H228139   4.529   1.649   7.463 -0.4269  0.0507 -0.2287
 2194TIP3   OH228140   3.989   3.317   3.809 -0.2085 -0.2811 -0.2481
 2194TIP3    H128141   3.936   3.327   3.730 -1.1339  0.5442  0.4481
 2194TIP3    H228142   4.063   3.263   3.782 -1.0426 -0.8694 -1.4197
 2195TIP3   OH228143   1.777   6.941   1.549  0.4270 -0.4405 -0.3310
 2195TIP3    H128144   1.695   6.990   1.558  0.3262 -0.1984 -2.2104
 2195TIP3    H228145   1.771   6.872   1.616  0.2420  1.5956  1.8616
 2196TIP3   OH228146   6.240   2.023   0.703 -0.1159  0.1072 -0.5347
 2196TIP3    H128147   6.173   2.024   0.772 -0.8966  0.8280 -1.2840
 2196TIP3    H228148   6.310   2.079   0.737 -0.3540  0.1989 -0.1860
 2197TIP3   OH228149   5.645   2.759   0.624  0.4369 -0.0932  0.0192
 2197TIP3    H128150   5.729   2.801   0.645  0.5549 -0.8246  1.1195
 2197TIP3    H228151   5.617   2.720   0.707 -0.0076 -1.5690 -0.7872
 2198TIP3   OH228152   3.758   1.708   1.484 -0.8186 -0.5176 -0.2118
 2198TIP3    H128153   3.819   1.634   1.484 -0.2258 -0.0454 -1.1762
 2198TIP3    H228154   3.808   1.781   1.449 -0.8960  0.8154  2.2316
 2199TIP3   OH228155   3.056   6.672   1.226 -0.4339  0.5816  0.6274
 2199TIP3    H128156   2.997   6.693   1.298  0.7717  1.3871  1.4090
 2199TIP3    H228157   3.093   6.587   1.251  1.0300  1.4873  1.7037
 2200TIP3   OH228158   1.739   2.543   3.221  0.1492 -0.7587  0.3455
 2200TIP3    H128159   1.810   2.544   3.285  1.8827 -1.5819 -1.4766
 2200TIP3    H228160   1.765   2.478   3.156 -1.4112  0.1966 -1.3471
 2201TIP3   OH228161   2.893   3.465   0.131 -0.0846  0.7544 -0.3328
 2201TIP3    H128162   2.864   3.404   0.062  0.0630  0.3621 -0.0540
 2201TIP3    H228163   2.976   3.500   0.099  0.5150 -0.2208  0.1034
 2202TIP3   OH228164   2.086   3.822   1.581 -0.1658 -0.6205 -0.1596
 2202TIP3    H128165   2.143   3.789   1.511  0.9095  1.8889 -0.5601
 2202TIP3    H228166   2.029   3.885   1.537 -1.2568 -0.9234  0.7899
 2203TIP3   OH228167   3.159   0.406   0.739 -0.1329 -0.2342  0.3072
 2203TIP3    H128168   3.072   0.422   0.777 -0.0031  1.4198  0.0059
 2203TIP3    H228169   3.214   0.385   0.814 -0.7070 -0.9013  0.5511
 2204TIP3   OH228170   5.108   6.106   0.323 -0.3781  0.4962  0.5278
 2204TIP3    H128171   5.061   6.051   0.385 -0.7353 -0.0057 -0.1743
 2204TIP3    H228172   5.078   6.195   0.341  0.8139  0.5967  2.2234
 2205TIP3   OH228173   4.850   2.913   3.358 -0.2243 -0.0046  0.1904
 2205TIP3    H128174   4.921   2.917   3.423 -0.2057  1.2017  0.1155
 2205TIP3    H228175   4.885   2.858   3.288 -0.0743 -0.9514  0.9855
 2206TIP3   OH228176   3.348   4.829   0.428  0.5042 -0.3008 -0.2774
 2206TIP3    H128177   3.387   4.742   0.436  0.3592 -0.6425 -2.4979
 2206TIP3    H228178   3.261   4.820   0.468  0.8589 -0.8872  0.3884
 2207TIP3   OH228179   6.958   0.053   0.478 -0.2647 -0.2821 -0.3163
 2207TIP3    H128180   7.050   0.037   0.458  0.1257 -1.7762  2.2514
 2207TIP3    H228181   6.910  -0.012   0.427  0.2516 -0.6557 -0.3287
 2208TIP3   OH228182   3.463   1.273   2.593 -0.3483  0.0477 -0.1516
 2208TIP3    H128183   3.389   1.245   2.538 -0.7731  0.2372  0.3163
 2208TIP3    H228184   3.502   1.192   2.623 -0.9926 -0.0612  0.4224
 2209TIP3   OH228185   3.124   2.255   2.601 -0.3273 -0.1897 -0.1447
 2209TIP3    H128186   3.055   2.203   2.561 -0.0293  0.0049 -0.9150
 2209TIP3    H228187   3.134   2.217   2.689 -0.6741 -0.9037 -0.4041
 2210TIP3   OH228188   5.131   4.602   2.051  0.0853  0.3874  0.0362
 2210TIP3    H128189   5.166   4.513   2.042  1.4576  0.9403 -0.4673
 2210TIP3    H228190   5.177   4.637   2.127 -0.6708  0.5789  0.4104
 2211TIP3   OH228191   0.696   0.500   7.621  0.4495 -0.7037 -0.5286
 2211TIP3    H128192   0.752   0.577   7.632 -0.6722  0.1284 -0.4294
 2211TIP3    H228193   0.609   0.531   7.643  0.2271 -2.4867  1.4278
 2212TIP3   OH228194   6.957   1.681   2.650  0.2345 -0.6925 -0.0045
 2212TIP3    H128195   7.003   1.605   2.614 -0.8312 -1.4255  0.1663
 2212TIP3    H228196   6.868   1.674   2.617  0.1037  0.4731  0.0435
 2213TIP3   OH228197   4.020   3.025   1.349 -0.2990 -0.1204  0.2589
 2213TIP3    H128198   4.082   2.955   1.368  1.7590  1.0106 -1.8232
 2213TIP3    H228199   4.071   3.090   1.300 -2.7785  1.5940 -0.2383
 2214TIP3   OH228200   1.037   4.975   1.821 -0.6282 -0.0414  0.1815
 2214TIP3    H128201   1.095   5.043   1.855  0.5262 -0.4739 -0.8742
 2214TIP3    H228202   1.033   4.909   1.891  1.6542 -0.8906 -0.3997
 2215TIP3   OH228203   5.430   0.166   7.756  0.2744  0.3863  0.4761
 2215TIP3    H128204   5.346   0.129   7.782  0.9339 -1.2564  0.4370
 2215TIP3    H228205   5.411   0.256   7.732 -1.3976  0.1590  0.8407
 2216TIP3   OH228206   0.909   6.356   1.476 -1.0088 -0.1970 -0.4647
 2216TIP3    H128207   0.824   6.327   1.509 -1.1150 -0.3930 -0.9005
 2216TIP3    H228208   0.889   6.398   1.393 -0.6853 -0.1769 -0.5347
 2217TIP3   OH228209   0.828   4.825   0.533  0.0227 -0.0375  0.2484
 2217TIP3    H128210   0.773   4.837   0.611  0.4661 -0.5577  0.6482
 2217TIP3    H228211   0.832   4.912   0.493 -2.7440 -0.3398 -0.9271
 2218TIP3   OH228212   1.377   6.078   2.666 -0.3116  0.9076 -0.3667
 2218TIP3    H128213   1.342   6.153   2.714 -1.3143  0.7601 -0.8214
 2218TIP3    H228214   1.343   6.002   2.712  3.2866  0.5423  2.0427
 2219TIP3   OH228215   4.307   5.862   2.635 -0.0323 -0.2524  0.2909
 2219TIP3    H128216   4.379   5.924   2.623 -1.6561  1.7990  0.6070
 2219TIP3    H228217   4.286   5.832   2.546  1.7257 -1.5751  0.2693
 2220TIP3   OH228218   2.876   6.234   2.168 -0.3270  0.7457  0.1150
 2220TIP3    H128219   2.787   6.244   2.135 -0.5806 -2.5647 -0.5963
 2220TIP3    H228220   2.929   6.217   2.090  0.6115  0.9470  0.6941
 2221TIP3   OH228221   2.560   1.164   1.931 -0.3979  0.2238 -0.3794
 2221TIP3    H128222   2.479   1.204   1.899  0.9238  2.9628 -0.5395
 2221TIP3    H228223   2.577   1.208   2.015  0.4975 -0.9345  0.0756
 2222TIP3   OH228224   4.222   5.567   1.583 -0.1261 -0.1824  0.0127
 2222TIP3    H128225   4.209   5.660   1.564  1.2288 -0.1231 -0.7766
 2222TIP3    H228226   4.274   5.535   1.509  1.5204 -0.9943  1.4548
 2223TIP3   OH228227   6.626   0.777   0.271 -0.3334 -0.4232  0.3729
 2223TIP3    H128228   6.591   0.817   0.191 -2.3321 -1.7799  0.4811
 2223TIP3    H228229   6.589   0.829   0.342 -0.1667 -0.4049  0.4468
 2224TIP3   OH228230   6.587   4.850   2.671 -0.2087 -0.1308 -0.2883
 2224TIP3    H128231   6.512   4.905   2.649 -1.8054 -2.2074 -0.3822
 2224TIP3    H228232   6.553   4.761   2.664  2.4727 -1.1884 -1.0026
 2225TIP3   OH228233   0.607   3.925   7.315 -0.1849 -0.0304 -0.3162
 2225TIP3    H128234   0.662   3.915   7.237  0.7129 -1.1714  0.4420
 2225TIP3    H228235   0.662   3.973   7.377 -1.1931  1.6319 -0.6356
 2226TIP3   OH228236   5.154   5.306   7.078  0.3042 -0.2695  0.8351
 2226TIP3    H128237   5.107   5.224   7.095 -1.1692  0.7273  1.8131
 2226TIP3    H228238   5.179   5.301   6.986 -0.0360 -1.6904  0.7997
 2227TIP3   OH228239   4.724   5.991   8.095  0.2410 -0.3702  0.4575
 2227TIP3    H128240   4.669   6.034   8.030  1.5198  1.7313  0.6766
 2227TIP3    H228241   4.683   6.010   8.179 -0.0072 -0.8885  0.4583
 2228TIP3   OH228242   2.701   1.513   8.040  0.0019  0.1679 -0.0277
 2228TIP3    H128243   2.667   1.443   8.096  1.5492 -1.0009 -0.4652
 2228TIP3    H228244   2.717   1.470   7.956  2.6221  0.5609  0.1970
 2229TIP3   OH228245   1.497   4.731   8.188  0.2296 -0.0241  0.1520
 2229TIP3    H128246   1.582   4.771   8.173  0.2286  0.0129  0.2498
 2229TIP3    H228247   1.504   4.690   8.274  0.4564 -0.8190 -0.2385
 2230TIP3   OH228248   1.137   3.534   1.033 -0.1421  0.2188  0.1223
 2230TIP3    H128249   1.044   3.554   1.043 -0.0854  0.9979 -0.7495
 2230TIP3    H228250   1.181   3.595   1.093 -0.0721  1.5741 -1.2554
 2231TIP3   OH228251   2.328   6.086   2.207 -0.2461  0.2061  0.1253
 2231TIP3    H128252   2.256   6.035   2.171 -1.2055  0.7120  1.2495
 2231TIP3    H228253   2.295   6.176   2.208  0.7413  0.5846 -0.1598
 2232TIP3   OH228254   1.099   2.632   7.394  0.4200 -0.3301 -0.8064
 2232TIP3    H128255   1.053   2.647   7.477 -1.0202  0.6841 -1.7532
 2232TIP3    H228256   1.107   2.537   7.388 -1.4629 -0.5371 -0.5381
 2233TIP3   OH228257   3.673   5.735   1.945  0.3726  0.0899  0.4452
 2233TIP3    H128258   3.757   5.752   1.989  0.6813  1.6441 -0.6581
 2233TIP3    H228259   3.638   5.822   1.927 -0.4528 -0.5236 -1.0139
 2234TIP3   OH228260   2.428   5.028   0.027  0.2833 -0.3272 -1.0266
 2234TIP3    H128261   2.390   4.943   0.049  1.5019 -1.0492 -1.6089
 2234TIP3    H228262   2.458   5.063   0.111 -1.4104  0.1428 -0.5977
 2235TIP3   OH228263   2.945   2.951   2.568 -0.0881 -0.4955 -0.1288
 2235TIP3    H128264   2.857   2.968   2.603 -0.1633  0.8844 -0.9079
 2235TIP3    H228265   2.948   3.002   2.487  0.8886 -1.7959 -0.9431
 2236TIP3   OH228266   3.031   1.991   0.668 -0.5902  0.2281 -0.6918
 2236TIP3    H128267   3.058   2.079   0.694 -0.0691 -0.4813  1.3326
 2236TIP3    H228268   3.079   1.974   0.587  0.6880  1.1285 -0.1428
 2237TIP3   OH228269   3.588   2.664   8.103  0.0124 -0.1780 -0.1864
 2237TIP3    H128270   3.603   2.593   8.040  1.3062 -0.3989  0.3464
 2237TIP3    H228271   3.631   2.740   8.064 -0.9335  0.2116 -0.5103
 2238TIP3   OH228272   4.767   5.271   0.253  0.1218  0.5501 -0.7581
 2238TIP3    H128273   4.798   5.346   0.302  1.3028 -1.3332  1.5700
 2238TIP3    H228274   4.683   5.247   0.294 -0.3151  0.6468 -1.5680
 2239TIP3   OH228275   4.636   6.434   7.154  0.4423 -0.1018 -0.3341
 2239TIP3    H128276   4.553   6.400   7.189 -0.0459  0.8393 -0.5425
 2239TIP3    H228277   4.681   6.357   7.119  0.0243 -0.7469  0.5129
 2240TIP3   OH228278   6.809   5.362   8.232 -0.1722  0.3947 -0.0246
 2240TIP3    H128279   6.812   5.417   8.154  0.8884  2.0334  1.1073
 2240TIP3    H228280   6.747   5.405   8.290  0.8583  0.5773  0.9804
 2241TIP3   OH228281   5.961   6.851   7.934 -0.0610 -0.1583 -0.3991
 2241TIP3    H128282   6.022   6.906   7.885 -0.5940  2.0334  1.2716
 2241TIP3    H228283   5.955   6.892   8.020  0.0982 -3.2872  1.2612
 2242TIP3   OH228284   3.207   2.876   2.630  0.1302 -0.4838  0.1488
 2242TIP3    H128285   3.204   2.813   2.702  0.7743 -1.7787 -0.9208
 2242TIP3    H228286   3.117   2.907   2.621 -0.1452 -1.0578  0.8571
 2243TIP3   OH228287   1.484   4.575   7.925  0.7034  0.3957 -0.2031
 2243TIP3    H128288   1.436   4.639   7.872 -0.3629 -0.2880 -0.0984
 2243TIP3    H228289   1.546   4.627   7.975  1.9873  1.0343 -2.3440
 2244TIP3   OH228290   0.438   0.772   2.282  0.0043 -0.2994  0.6538
 2244TIP3    H128291   0.345   0.788   2.265 -0.0364 -0.6631  0.5396
 2244TIP3    H228292   0.478   0.764   2.196  0.2158  0.2537  0.6935
 2245TIP3   OH228293   5.953   1.795   0.911  0.1606 -0.0549  0.3593
 2245TIP3    H128294   6.015   1.733   0.873 -0.8027 -1.3640  0.8276
 2245TIP3    H228295   5.989   1.881   0.890  0.4565 -0.7227 -2.1761
 2246TIP3   OH228296   4.732   6.934   7.765 -0.0856  0.3137  0.5652
 2246TIP3    H128297   4.810   6.896   7.806  1.6636  1.4897 -1.4495
 2246TIP3    H228298   4.708   6.871   7.698 -0.5567  0.2156  0.8237
 2247TIP3   OH228299   1.214   4.857   1.080 -0.1777 -0.4948 -0.5150
 2247TIP3    H128300   1.138   4.913   1.095  0.2655 -0.4065  1.9452
 2247TIP3    H228301   1.281   4.916   1.047 -0.4881 -0.0848 -0.4230
 2248TIP3   OH228302   3.732   2.370   2.556 -0.3952  0.0474 -0.1590
 2248TIP3    H128303   3.694   2.436   2.614  0.1478  0.1652  0.0709
 2248TIP3    H228304   3.660   2.309   2.538 -0.4746 -0.2361  1.0063
 2249TIP3   OH228305   1.930   3.602   2.676 -0.9562 -0.0924 -0.4837
 2249TIP3    H128306   1.853   3.653   2.702 -1.5025 -1.7523  1.4297
 2249TIP3    H228307   1.970   3.574   2.758 -0.2133 -1.9972 -1.4213
 2250TIP3   OH228308   0.467   1.816   8.034 -0.2595 -0.3641 -0.2232
 2250TIP3    H128309   0.537   1.755   8.055 -1.8874 -1.9417  0.9348
 2250TIP3    H228310   0.388   1.762   8.031 -1.2953  1.0761 -2.9125
 2251TIP3   OH228311   0.501   4.263   7.363 -0.1884 -0.4323  0.2371
 2251TIP3    H128312   0.591   4.233   7.370  0.0252  0.0376 -0.4014
 2251TIP3    H228313   0.457   4.197   7.310  0.2449  0.2783 -1.0399
 2252TIP3   OH228314   2.973   3.199   2.108  0.1796  0.3610  0.2226
 2252TIP3    H128315   3.022   3.143   2.048 -0.3561 -0.1479  0.2438
 2252TIP3    H228316   2.891   3.216   2.063  0.7947  2.1256 -0.2890
 2253TIP3   OH228317   2.619   1.599   3.189  0.1736 -0.3372  0.1019
 2253TIP3    H128318   2.700   1.596   3.240  0.6993 -0.0195 -0.6944
 2253TIP3    H228319   2.606   1.692   3.170 -0.2857 -0.4055  0.0749
 2254TIP3   OH228320   6.136   3.177   2.424  0.1305 -0.2742 -0.1992
 2254TIP3    H128321   6.174   3.099   2.463 -0.2954 -0.9138 -1.0437
 2254TIP3    H228322   6.134   3.159   2.330 -3.0542 -0.6458 -0.1433
 2255TIP3   OH228323   6.502   2.150   0.401 -0.0504 -0.1889  0.0519
 2255TIP3    H128324   6.586   2.194   0.385 -0.3925  0.2001 -0.7828
 2255TIP3    H228325   6.437   2.217   0.378 -0.5829 -0.6779  0.1392
 2256TIP3   OH228326   0.120   3.400   0.175  0.3099  0.4959 -0.5540
 2256TIP3    H128327   0.086   3.312   0.154  0.7678  0.0289  0.5928
 2256TIP3    H228328   0.215   3.391   0.167  0.5743  0.0965  2.2563
 2257TIP3   OH228329   2.213   5.867   0.622 -0.1005 -0.2287  0.1549
 2257TIP3    H128330   2.131   5.839   0.664  0.5839  0.4670  2.0367
 2257TIP3    H228331   2.196   5.957   0.595 -0.2990 -0.4428 -0.4608
 2258TIP3   OH228332   6.340   6.981   0.655  0.5066  0.5412  0.6595
 2258TIP3    H128333   6.267   6.919   0.649  1.0918 -0.2353  1.3538
 2258TIP3    H228334   6.360   7.003   0.564  0.6394 -0.7160  0.3597
 2259TIP3   OH228335   1.549   1.316   1.768  0.0829  0.3038  0.5611
 2259TIP3    H128336   1.629   1.357   1.801  1.4288 -0.6281 -1.3644
 2259TIP3    H228337   1.562   1.223   1.784 -1.3063  0.2568  1.5573
 2260TIP3   OH228338   6.976   3.839   3.524  0.0395 -0.0769  0.2920
 2260TIP3    H128339   6.921   3.781   3.577  0.2106 -1.2570 -0.7731
 2260TIP3    H228340   6.913   3.893   3.476 -0.1535 -0.1245  0.4873
 2261TIP3   OH228341   6.274   3.564   1.935  0.0543 -0.5618  0.2079
 2261TIP3    H128342   6.275   3.545   1.841  0.0369 -1.6631  0.4177
 2261TIP3    H228343   6.217   3.640   1.944 -0.1802 -0.6342 -0.6369
 2262TIP3   OH228344   3.237   4.506   1.692 -0.1187 -0.2556 -0.4995
 2262TIP3    H128345   3.242   4.557   1.773  0.2467  0.8451 -1.1930
 2262TIP3    H228346   3.186   4.561   1.632 -0.6241 -1.1782 -0.9386
 2263TIP3   OH228347   1.277   4.079   7.950 -0.1473 -0.6220  0.4828
 2263TIP3    H128348   1.350   4.038   7.997 -0.5908 -0.2834  1.4926
 2263TIP3    H228349   1.202   4.021   7.967  0.1426 -1.7967 -1.7648
 2264TIP3   OH228350   3.830   2.861   2.066 -0.2126  0.5640  0.2833
 2264TIP3    H128351   3.843   2.855   1.972 -0.1615  1.2576  0.2393
 2264TIP3    H228352   3.736   2.850   2.078 -1.0421  5.1688 -0.3413
 2265TIP3   OH228353   3.224   5.816   8.063 -0.3220 -0.5824  0.2592
 2265TIP3    H128354   3.277   5.856   7.993  0.2528  0.4332  1.2415
 2265TIP3    H228355   3.247   5.723   8.060  2.9302  0.0360  1.7635
 2266TIP3   OH228356   0.955   1.086   7.655  0.6201  0.6734  0.5133
 2266TIP3    H128357   0.991   1.009   7.698 -0.4112 -0.2585 -0.2267
 2266TIP3    H228358   1.014   1.103   7.582  1.6752  1.5082  1.5236
 2267TIP3   OH228359   5.424   0.436   7.764  0.3805  0.2593 -0.6326
 2267TIP3    H128360   5.412   0.450   7.858  1.5248 -2.1930 -0.0671
 2267TIP3    H228361   5.503   0.486   7.742 -0.1301  1.1889 -0.4280
 2268TIP3   OH228362   3.982   1.877   2.820  0.4551  0.4518  0.5130
 2268TIP3    H128363   3.940   1.793   2.801  0.1558  0.7202 -0.0367
 2268TIP3    H228364   3.971   1.928   2.740  1.4351  0.6958  0.5160
 2269TIP3   OH228365   2.501   4.037   2.478  0.2005 -0.1366  0.4477
 2269TIP3    H128366   2.517   4.043   2.384 -0.3247  1.8997  0.4570
 2269TIP3    H228367   2.588   4.030   2.517  0.4686 -0.0535 -0.1293
 2270TIP3   OH228368   5.559   3.423   2.032 -0.4066  0.1277  0.5145
 2270TIP3    H128369   5.470   3.434   2.065 -1.5078  1.1376 -2.4860
 2270TIP3    H228370   5.554   3.349   1.972  0.8637  0.0158  0.5153
 2271TIP3   OH228371   6.652   6.430   0.257  0.7492 -0.7026 -0.0466
 2271TIP3    H128372   6.618   6.378   0.184  1.5895 -0.1853 -0.8173
 2271TIP3    H228373   6.629   6.379   0.335 -0.0503 -1.3211 -0.6664
 2272TIP3   OH228374   0.332   3.893   2.376 -0.2289 -0.1144  0.2470
 2272TIP3    H128375   0.310   3.970   2.428 -0.0327  0.3664 -0.3761
 2272TIP3    H228376   0.276   3.900   2.299  1.1091  0.3766 -0.6910
 2273TIP3   OH228377   5.311   3.620   2.344  0.1226  0.2960 -0.1243
 2273TIP3    H128378   5.294   3.594   2.253 -1.2108  2.0312 -0.4448
 2273TIP3    H228379   5.405   3.634   2.348  0.5816 -2.1758 -0.5144
 2274TIP3   OH228380   6.110   3.116   3.068 -0.1700  0.1881  0.9242
 2274TIP3    H128381   6.197   3.110   3.107  0.2889  0.9269  0.0351
 2274TIP3    H228382   6.073   3.197   3.103  0.0269  0.5677  0.2545
 2275TIP3   OH228383   4.426   5.118   0.607 -0.0561  0.0398 -0.4264
 2275TIP3    H128384   4.379   5.040   0.578 -0.1647  0.6467 -2.0155
 2275TIP3    H228385   4.368   5.158   0.672  0.4721 -1.7108  1.1920
 2276TIP3   OH228386   1.662   2.358   0.351  0.2456  0.7352 -0.2051
 2276TIP3    H128387   1.757   2.366   0.357  0.1487  1.2505  1.0929
 2276TIP3    H228388   1.630   2.404   0.429 -1.0397  0.0298 -0.2979
 2277TIP3   OH228389   6.007   4.410   7.861 -0.1280  0.0743  0.2913
 2277TIP3    H128390   5.999   4.323   7.899  1.3465 -0.4184 -0.4399
 2277TIP3    H228391   6.101   4.430   7.867 -0.3679  1.3855 -0.0281
 2278TIP3   OH228392   2.502   3.327   0.850  0.0056 -0.0467  0.4685
 2278TIP3    H128393   2.568   3.301   0.914 -0.2755  0.1133  0.8300
 2278TIP3    H228394   2.428   3.268   0.866 -1.0122  1.5218  1.9372
 2279TIP3   OH228395   2.914   3.869   1.629  0.0481  0.6161 -0.1228
 2279TIP3    H128396   2.967   3.913   1.562  1.3750 -1.6675 -0.7016
 2279TIP3    H228397   2.939   3.911   1.711  1.0038  1.1619 -0.6771
 2280TIP3   OH228398   4.010   1.525   0.355 -0.5371 -0.5529  0.3259
 2280TIP3    H128399   3.946   1.537   0.285 -0.9616 -1.4474  0.5546
 2280TIP3    H228400   3.962   1.548   0.435 -0.3253 -0.4193  0.4144
 2281TIP3   OH228401   5.866   2.916   0.549  0.2099 -0.2227 -0.0279
 2281TIP3    H128402   5.915   2.835   0.532 -0.7114 -0.5486 -1.2844
 2281TIP3    H228403   5.898   2.978   0.484 -1.5891 -0.7004 -1.4474
 2282TIP3   OH228404   1.360   6.924   2.191  0.0618 -0.3390  0.1535
 2282TIP3    H128405   1.277   6.917   2.237 -0.7954 -0.5004 -1.3488
 2282TIP3    H228406   1.393   6.834   2.187 -0.1740 -0.4156 -0.0884
 2283TIP3   OH228407   6.349   4.207   2.411 -0.6347 -0.2961  0.0057
 2283TIP3    H128408   6.378   4.185   2.500  1.7164  4.5372  0.8033
 2283TIP3    H228409   6.259   4.237   2.422 -0.2350  0.6457  0.9581
 2284TIP3   OH228410   4.756   2.691   1.079 -0.2591  0.0224 -0.5252
 2284TIP3    H128411   4.787   2.603   1.102 -0.1324  0.0933 -0.4233
 2284TIP3    H228412   4.682   2.675   1.020  1.0101 -0.1237 -2.1312
 2285TIP3   OH228413   1.958   5.565   2.047  0.1570  0.0255 -0.3614
 2285TIP3    H128414   2.052   5.573   2.063  0.2130  0.2182 -0.7897
 2285TIP3    H228415   1.937   5.475   2.075  0.1979  0.4301  1.0440
 2286TIP3   OH228416   6.403   3.286   2.492  0.2017 -0.0998 -0.0759
 2286TIP3    H128417   6.380   3.241   2.573 -2.5881  0.1694 -0.6245
 2286TIP3    H228418   6.343   3.250   2.427  0.7479  1.4099 -1.4879
 2287TIP3   OH228419   1.878   0.471   7.810  0.0969  0.3332  0.3403
 2287TIP3    H128420   1.835   0.406   7.866  1.1015 -0.3302  0.3619
 2287TIP3    H228421   1.806   0.525   7.777 -0.6774 -0.3005  0.9429
 2288TIP3   OH228422   4.448   4.352   2.484 -0.3201 -0.0858 -0.6647
 2288TIP3    H128423   4.379   4.300   2.524  0.8184  0.1046  1.7139
 2288TIP3    H228424   4.437   4.440   2.520  0.3753  0.2724 -1.2824
 2289TIP3   OH228425   6.224   3.499   6.761  0.2309  0.0745 -0.5422
 2289TIP3    H128426   6.149   3.445   6.734 -0.3837  0.7163 -0.1635
 2289TIP3    H228427   6.272   3.514   6.680  0.0097 -0.4379 -0.7759
 2290TIP3   OH228428   1.612   2.934   1.504  0.5762 -0.1433 -0.2453
 2290TIP3    H128429   1.686   2.874   1.502 -0.6684 -1.7381 -0.9909
 2290TIP3    H228430   1.651   3.021   1.505  2.4343 -0.9294 -0.7538
 2291TIP3   OH228431   5.478   6.217   2.618 -0.1433  0.0942  0.4847
 2291TIP3    H128432   5.551   6.272   2.645 -0.8270  0.4748  1.6285
 2291TIP3    H228433   5.405   6.278   2.607 -0.5262 -0.3942  0.2840
 2292TIP3   OH228434   6.522   2.414   1.860 -0.2934  0.6789 -0.0804
 2292TIP3    H128435   6.595   2.355   1.882  1.2115  2.9282  1.3557
 2292TIP3    H228436   6.463   2.360   1.807  0.7386 -2.2351  1.5104
 2293TIP3   OH228437   3.670   4.261   2.847 -0.3412 -0.5390  0.8619
 2293TIP3    H128438   3.609   4.211   2.900 -2.3562 -0.9441 -1.6263
 2293TIP3    H228439   3.619   4.336   2.816  0.8513 -0.1090 -0.1351
 2294TIP3   OH228440   2.012   0.531   0.071  0.4294 -0.3013 -0.6567
 2294TIP3    H128441   2.071   0.553  -0.000  1.1311  0.1959  0.0572
 2294TIP3    H228442   1.937   0.589   0.059  0.9669  0.4575 -0.4685
 2295TIP3   OH228443   2.521   1.339   0.493 -0.4049 -0.0817  0.0753
 2295TIP3    H128444   2.542   1.380   0.409 -1.1969 -0.8386 -0.5130
 2295TIP3    H228445   2.435   1.300   0.479  0.2048 -1.7244  0.6620
 2296TIP3   OH228446   2.461   6.991   2.551 -0.1881  0.3270  0.1733
 2296TIP3    H128447   2.370   7.018   2.542 -0.4020 -0.3962  0.1246
 2296TIP3    H228448   2.469   6.914   2.496  0.9136  1.3945 -1.2649
 2297TIP3   OH228449   4.476   6.384   0.277 -0.2015  0.4575 -0.3095
 2297TIP3    H128450   4.418   6.354   0.208  1.3693  0.1582 -1.5723
 2297TIP3    H228451   4.490   6.307   0.332 -0.1856  0.2535 -0.5989
 2298TIP3   OH228452   3.044   6.569   0.945 -0.4893  0.7159  0.3513
 2298TIP3    H128453   3.065   6.627   1.018 -3.3029  0.8462  1.1692
 2298TIP3    H228454   3.011   6.489   0.987 -3.2819  1.2278 -0.6620
 2299TIP3   OH228455   6.297   0.628   1.027 -0.1082 -0.1332 -0.0874
 2299TIP3    H128456   6.274   0.662   1.114 -1.2237 -0.0117 -0.4132
 2299TIP3    H228457   6.233   0.559   1.011 -1.0318  0.9948 -1.5263
 2300TIP3   OH228458   3.339   4.316   2.554  0.5008 -0.1231  0.1854
 2300TIP3    H128459   3.380   4.230   2.549 -0.3370 -0.6734  1.8712
 2300TIP3    H228460   3.340   4.337   2.648  2.3449  2.5541 -0.3157
 2301TIP3   OH228461   0.573   0.237   0.266  0.3562 -0.2330 -0.2105
 2301TIP3    H128462   0.561   0.320   0.218  0.3251 -1.3673 -2.2865
 2301TIP3    H228463   0.643   0.192   0.219  1.0051 -1.0278  1.4370
 2302TIP3   OH228464   6.738   3.542   2.692  0.6658  0.3655 -0.3892
 2302TIP3    H128465   6.717   3.535   2.599 -1.0077 -1.6715  0.0711
 2302TIP3    H228466   6.765   3.633   2.703 -2.5719  1.7261 -2.2371
 2303TIP3   OH228467   5.116   1.101   7.806 -0.1094  0.1926 -0.0016
 2303TIP3    H128468   5.075   1.034   7.750 -0.2376 -1.2747  1.7656
 2303TIP3    H228469   5.202   1.114   7.766 -0.4153 -0.3657 -0.8976
 2304TIP3   OH228470   1.667   2.741   3.010  0.3554  0.4688  0.0538
 2304TIP3    H128471   1.751   2.767   3.047  0.3901 -0.1923  0.4533
 2304TIP3    H228472   1.646   2.658   3.053  1.2767 -1.3187 -2.7160
 2305TIP3   OH228473   0.423   2.667   1.849  0.4590  0.0094 -1.1533
 2305TIP3    H128474   0.493   2.608   1.823  0.3610  0.1367 -1.7176
 2305TIP3    H228475   0.442   2.688   1.940 -0.1981 -1.8997 -0.5272
 2306TIP3   OH228476   6.779   6.225   0.947  0.2034  0.0240 -0.7300
 2306TIP3    H128477   6.875   6.219   0.955  0.1242 -0.2572  0.2008
 2306TIP3    H228478   6.757   6.159   0.882  0.4948 -1.2704  0.4219
 2307TIP3   OH228479   6.263   0.042   0.901  0.6173  0.1320 -0.1528
 2307TIP3    H128480   6.243  -0.015   0.826 -0.3262 -0.2610  0.3858
 2307TIP3    H228481   6.284  -0.018   0.972 -1.7302  0.3514  0.8154
 2308TIP3   OH228482   2.115   5.242   0.282 -0.1603  0.1477 -0.6051
 2308TIP3    H128483   2.130   5.148   0.278 -1.5498 -0.0668 -2.5664
 2308TIP3    H228484   2.043   5.257   0.220 -0.2561  2.4395 -0.0244
 2309TIP3   OH228485   1.161   6.163   0.246  0.2880 -0.4043  0.2254
 2309TIP3    H128486   1.254   6.147   0.230  0.5496  0.3235  0.9629
 2309TIP3    H228487   1.149   6.256   0.227 -0.6195 -0.7949 -1.2802
 2310TIP3   OH228488   1.919   2.563   7.704 -0.1328 -0.1899  0.2725
 2310TIP3    H128489   1.875   2.479   7.723  1.6041 -1.4809 -1.0400
 2310TIP3    H228490   2.005   2.537   7.670 -0.4364  2.0263 -2.5589
 2311TIP3   OH228491   1.853   1.185   0.237 -0.5668  0.2717 -0.2622
 2311TIP3    H128492   1.909   1.130   0.183  2.0882 -0.2177  2.6588
 2311TIP3    H228493   1.855   1.271   0.195  0.7677 -0.2462 -1.3244
 2312TIP3   OH228494   4.515   3.039   0.288  0.1932  0.2738 -0.1551
 2312TIP3    H128495   4.588   3.100   0.297  0.2358  0.0466  1.4446
 2312TIP3    H228496   4.531   2.994   0.205  1.2532  1.0193 -0.3717
 2313TIP3   OH228497   2.697   1.625   0.422 -0.2257  0.3083  0.1090
 2313TIP3    H128498   2.761   1.682   0.466 -2.1860  3.2200 -0.4783
 2313TIP3    H228499   2.730   1.537   0.435  2.8321  1.5135  1.5167
 2314TIP3   OH228500   0.290   3.580   0.943 -0.8270  0.1057  0.1784
 2314TIP3    H128501   0.349   3.506   0.955 -1.4699 -0.7809 -1.7849
 2314TIP3    H228502   0.228   3.574   1.016 -2.3278 -2.7683 -1.1745
 2315TIP3   OH228503   0.164   3.474   1.769 -0.1497 -0.4879  0.1986
 2315TIP3    H128504   0.202   3.386   1.775  4.1208  1.0397 -1.1277
 2315TIP3    H228505   0.179   3.500   1.679 -0.7250  1.8493  0.7236
 2316TIP3   OH228506   5.655   6.820   1.811 -0.2505 -0.4730  0.6476
 2316TIP3    H128507   5.742   6.854   1.830 -0.1339  0.6715 -1.6110
 2316TIP3    H228508   5.604   6.897   1.787 -1.1521 -1.4084 -0.5720
 2317TIP3   OH228509   6.509   4.114   7.801 -0.3502  0.8077 -0.2991
 2317TIP3    H128510   6.520   4.042   7.739 -0.1352 -2.0455  2.7650
 2317TIP3    H228511   6.583   4.173   7.783  0.9442 -1.0393 -1.3182
 2318TIP3   OH228512   1.786   5.172   1.757 -0.8269 -0.0241 -0.2464
 2318TIP3    H128513   1.853   5.168   1.689 -3.2060 -0.4867 -2.7632
 2318TIP3    H228514   1.770   5.080   1.779 -1.8455 -0.0641 -1.0473
 2319TIP3   OH228515   6.869   2.312   1.494 -0.0653 -0.6982 -0.1280
 2319TIP3    H128516   6.960   2.340   1.491 -0.0946 -0.6274 -0.3623
 2319TIP3    H228517   6.826   2.361   1.424  0.1349 -2.1839 -1.3513
 2320TIP3   OH228518   3.473   1.459   0.270  0.3242  0.5442  0.0984
 2320TIP3    H128519   3.423   1.513   0.210  0.4669  0.3407 -0.2065
 2320TIP3    H228520   3.410   1.395   0.304  0.4374  0.1027 -0.5068
 2321TIP3   OH228521   3.444   4.716   2.700 -1.3845 -0.0892 -0.3220
 2321TIP3    H128522   3.366   4.716   2.756 -0.3885  0.3483  1.1443
 2321TIP3    H228523   3.421   4.662   2.625 -2.9982 -0.1915  0.2202
 2322TIP3   OH228524   4.478   4.624   2.335 -0.5050 -0.2155 -0.6577
 2322TIP3    H128525   4.457   4.628   2.242  2.2224  1.5676 -1.2884
 2322TIP3    H228526   4.545   4.556   2.342 -1.5311 -1.1879  0.2537
 2323TIP3   OH228527   3.230   4.117   2.806  0.2603 -0.5785 -0.0034
 2323TIP3    H128528   3.226   4.120   2.902 -1.2014 -1.7585  0.0079
 2323TIP3    H228529   3.147   4.155   2.777  0.9661  0.3792 -0.8415
 2324TIP3   OH228530   1.200   6.830   2.398  0.0922 -0.3959  0.2632
 2324TIP3    H128531   1.202   6.897   2.467  0.3201  0.7052 -0.7646
 2324TIP3    H228532   1.282   6.783   2.408  1.0255  0.9995 -0.3845
 2325TIP3   OH228533   2.829   0.373   2.165 -0.4241  0.1270  0.9227
 2325TIP3    H128534   2.817   0.352   2.257 -2.3314 -0.0119  0.6907
 2325TIP3    H228535   2.840   0.468   2.163  1.9095 -0.0596  1.4296
 2326TIP3   OH228536   0.436   6.235   1.438  0.7806 -0.1102 -0.1176
 2326TIP3    H128537   0.353   6.231   1.391  0.1716  0.9380  0.8445
 2326TIP3    H228538   0.457   6.143   1.457 -1.7916 -0.2957  2.4323
 2327TIP3   OH228539   3.790   5.847   2.324  0.6687  0.2014 -0.2790
 2327TIP3    H128540   3.762   5.756   2.333 -1.3018  0.7782 -0.1970
 2327TIP3    H228541   3.831   5.852   2.238 -0.3038 -0.5191 -0.7992
 2328TIP3   OH228542   3.895   2.596   3.509  0.1212 -0.8697 -0.3182
 2328TIP3    H128543   3.822   2.650   3.539 -0.1610  0.2792 -2.8349
 2328TIP3    H228544   3.854   2.520   3.468  0.3965 -1.0213 -0.3210
 2329TIP3   OH228545   3.239   1.480   1.592  0.0020  0.1980  0.1172
 2329TIP3    H128546   3.197   1.465   1.677 -0.0928  0.6193  0.1451
 2329TIP3    H228547   3.174   1.451   1.528  0.6534 -1.6034  0.1982
 2330TIP3   OH228548   6.800   3.981   0.388  0.2106 -0.1629 -0.7754
 2330TIP3    H128549   6.706   3.988   0.371 -0.2351 -1.1719  1.0421
 2330TIP3    H228550   6.818   3.887   0.386  0.9032 -0.0627  0.1243
 2331TIP3   OH228551   6.194   6.973   7.829 -0.3967  0.1827  0.1090
 2331TIP3    H128552   6.241   6.925   7.761 -1.4447 -2.5842  1.1963
 2331TIP3    H228553   6.255   7.041   7.858  1.4544 -0.9041 -1.0561
 2332TIP3   OH228554   3.962   5.386   7.757 -0.1286  0.2287 -0.3530
 2332TIP3    H128555   3.884   5.348   7.716  0.0810 -0.9738  0.3266
 2332TIP3    H228556   3.953   5.365   7.850  0.2521  1.4335 -0.0266
 2333TIP3   OH228557   0.764   5.782   6.798 -0.2149 -0.2789 -0.9021
 2333TIP3    H128558   0.772   5.715   6.865  0.7886  1.0590  0.3971
 2333TIP3    H228559   0.804   5.744   6.720  1.7346 -0.6683  0.2287
 2334TIP3   OH228560   6.837   0.214   7.903 -0.1784 -0.0278  0.7391
 2334TIP3    H128561   6.764   0.196   7.843 -1.9211  1.3636  2.3123
 2334TIP3    H228562   6.915   0.213   7.847 -1.5009 -0.6446 -1.1921
 2335TIP3   OH228563   4.044   2.550   2.356  0.2846  0.4455 -0.5390
 2335TIP3    H128564   4.002   2.502   2.284  1.9567  0.2998 -1.4731
 2335TIP3    H228565   4.066   2.635   2.318  0.9853  0.4486 -0.1388
 2336TIP3   OH228566   4.319   4.017   2.058  0.2564 -0.0901 -0.2003
 2336TIP3    H128567   4.256   3.959   2.014 -1.1360  1.8186 -0.8899
 2336TIP3    H228568   4.365   4.061   1.986 -1.5999  2.6044  0.1122
 2337TIP3   OH228569   5.123   5.556   0.757 -0.4554 -0.3960 -0.1891
 2337TIP3    H128570   5.077   5.592   0.833  0.7202  0.5301  0.1164
 2337TIP3    H228571   5.186   5.494   0.794  2.1011  2.0836 -0.0279
 2338TIP3   OH228572   4.586   4.941   0.291  0.2012  0.3368 -0.6140
 2338TIP3    H128573   4.657   4.891   0.251 -0.1190 -1.8891  1.3652
 2338TIP3    H228574   4.514   4.878   0.298 -1.0369  1.7589 -0.0495
 2339TIP3   OH228575   6.344   1.178   0.926  0.6396 -0.3320 -0.1983
 2339TIP3    H128576   6.398   1.223   0.861  0.1221 -1.2151 -1.2650
 2339TIP3    H228577   6.389   1.095   0.941  0.4241 -0.3967  0.0909
 2340TIP3   OH228578   2.783   4.932   0.249 -0.0488  0.2788 -0.3064
 2340TIP3    H128579   2.781   4.853   0.303 -0.2334  0.3734 -0.1733
 2340TIP3    H228580   2.876   4.952   0.239  0.0618  2.4728  3.2110
 2341TIP3   OH228581   2.467   1.544   1.903 -0.6413 -0.2006 -0.0938
 2341TIP3    H128582   2.446   1.451   1.887  0.8055 -0.8218  1.3562
 2341TIP3    H228583   2.557   1.553   1.872 -1.2308  1.1346 -1.5567
 2342TIP3   OH228584   1.364   1.835   3.162 -0.2238 -0.2166 -0.2591
 2342TIP3    H128585   1.364   1.742   3.184  1.1172 -0.4048 -0.9627
 2342TIP3    H228586   1.438   1.871   3.212 -1.9763  0.9185  1.6587
 2343TIP3   OH228587   6.937   6.939   1.408  0.8954 -0.0422  0.1595
 2343TIP3    H128588   6.898   6.885   1.340 -0.6050  0.6560  0.4182
 2343TIP3    H228589   7.029   6.948   1.382  0.6742 -0.9412 -1.0121
 2344TIP3   OH228590   3.949   0.264   3.222 -0.1248 -0.2874  0.4803
 2344TIP3    H128591   3.858   0.252   3.194  0.1575  0.9502 -1.0637
 2344TIP3    H228592   3.987   0.176   3.215 -0.4412 -0.3031 -1.8195
 2345TIP3   OH228593   0.148   4.011   0.879 -0.5514  0.5736  0.0282
 2345TIP3    H128594   0.170   4.004   0.787  0.5298  1.8580  0.1624
 2345TIP3    H228595   0.060   4.048   0.880 -1.1510 -0.7572 -0.4683
 2346TIP3   OH228596   6.003   6.584   2.167 -0.6180 -0.0818  0.4146
 2346TIP3    H128597   6.013   6.638   2.245  0.6797  0.2968 -0.0037
 2346TIP3    H228598   5.978   6.498   2.201 -2.8504  0.7421  1.0812
 2347TIP3   OH228599   4.233   3.037   8.149 -0.2471 -0.1263 -0.1998
 2347TIP3    H128600   4.320   3.000   8.164 -0.2673 -0.3066 -0.5111
 2347TIP3    H228601   4.200   3.057   8.237  0.2577  0.2954 -0.1001
 2348TIP3   OH228602   2.440   4.478   7.551 -0.2386  0.3404 -0.4259
 2348TIP3    H128603   2.404   4.509   7.634 -0.5719 -0.1835 -0.3743
 2348TIP3    H228604   2.535   4.488   7.560 -0.3639  2.6921 -0.9352
 2349TIP3   OH228605   1.585   2.150   8.027 -0.1189 -0.0261  0.4110
 2349TIP3    H128606   1.544   2.196   7.954  2.0360  0.1716 -0.7716
 2349TIP3    H228607   1.563   2.058   8.013  0.1862  0.0229 -0.4495
 2350TIP3   OH228608   6.738   1.553   3.162  0.2914 -0.0697 -0.0284
 2350TIP3    H128609   6.763   1.461   3.170 -0.0591 -0.2069 -0.4870
 2350TIP3    H228610   6.816   1.601   3.189  0.5790 -0.5012 -0.0784
 2351TIP3   OH228611   6.469   5.527   2.826  0.0123 -0.7908  0.2784
 2351TIP3    H128612   6.462   5.590   2.754  1.0466 -0.5865  0.3451
 2351TIP3    H228613   6.382   5.527   2.866  0.2266  1.3464  0.8785
 2352TIP3   OH228614   5.586   1.491   2.107 -0.1995 -0.0166  0.0113
 2352TIP3    H128615   5.554   1.415   2.155  0.2492  0.5433  1.2326
 2352TIP3    H228616   5.515   1.555   2.113 -0.6968 -0.3999 -1.2631
 2353TIP3   OH228617   2.644   2.498   7.681  0.1719 -0.4280  0.2273
 2353TIP3    H128618   2.574   2.500   7.615  0.1973  0.9347  0.2173
 2353TIP3    H228619   2.697   2.422   7.657  0.4216  0.2621 -1.6148
 2354TIP3   OH228620   5.349   6.468   2.285 -0.2241 -0.2183 -0.1799
 2354TIP3    H128621   5.341   6.534   2.216 -1.4121 -0.2955 -0.1310
 2354TIP3    H228622   5.442   6.446   2.286 -0.2727 -0.7929 -2.3384
 2355TIP3   OH228623   1.780   1.266   0.934 -0.6387  0.2108  0.5208
 2355TIP3    H128624   1.694   1.235   0.908 -0.9188 -0.8770  2.4931
 2355TIP3    H228625   1.777   1.361   0.923 -1.5403  0.0440 -0.8523
 2356TIP3   OH228626   5.287   2.954   1.699 -0.0321  0.0522  0.6831
 2356TIP3    H128627   5.198   2.979   1.676  0.3647  1.5846  0.6842
 2356TIP3    H228628   5.280   2.864   1.731 -1.6520  0.3580  1.2327
 2357TIP3   OH228629   4.074   4.284   0.996 -0.1604  0.3616  0.3137
 2357TIP3    H128630   4.077   4.371   1.035 -2.8486  1.0809 -0.8722
 2357TIP3    H228631   4.008   4.290   0.928 -2.6885 -3.3031  2.0963
 2358TIP3   OH228632   5.473   0.801   0.830  0.1853 -0.6135  0.0008
 2358TIP3    H128633   5.565   0.774   0.823  0.5609  0.5258  0.2728
 2358TIP3    H228634   5.430   0.757   0.756  1.6275  1.4315 -2.2256
 2359TIP3   OH228635   6.907   3.311   3.466 -0.4940 -0.2761 -0.3781
 2359TIP3    H128636   6.888   3.375   3.534 -0.9601 -0.4498 -0.3463
 2359TIP3    H228637   6.902   3.227   3.510 -1.2838 -0.4207 -0.7274
 2360TIP3   OH228638   0.795   0.987   0.356 -0.4119 -0.1477  0.5648
 2360TIP3    H128639   0.855   1.024   0.292  1.0828 -1.0365  1.4078
 2360TIP3    H228640   0.785   1.056   0.422 -1.9521  0.7693 -0.5488
 2361TIP3   OH228641   2.520   3.244   0.533  0.2856  0.6250 -0.8769
 2361TIP3    H128642   2.439   3.277   0.570  0.4772  0.7351 -0.5531
 2361TIP3    H228643   2.560   3.193   0.603  0.1529 -0.0173 -1.2667
 2362TIP3   OH228644   2.380   5.929   8.163  0.0101  0.1518  0.2996
 2362TIP3    H128645   2.394   6.023   8.174 -0.9257  0.3414 -0.0762
 2362TIP3    H228646   2.380   5.894   8.253 -1.0059  0.7134  0.5264
 2363TIP3   OH228647   6.855   1.705   2.925  0.2376 -0.4067  0.0759
 2363TIP3    H128648   6.890   1.729   2.839  0.2581  0.6264  0.3583
 2363TIP3    H228649   6.911   1.632   2.954  0.2007 -0.7952 -0.7897
 2364TIP3   OH228650   6.069   4.221   2.607  0.1580  0.1628 -0.3748
 2364TIP3    H128651   6.011   4.199   2.534 -2.8363 -0.8689  2.1095
 2364TIP3    H228652   6.034   4.303   2.642 -0.0617 -0.5946  1.3121
 2365TIP3   OH228653   5.837   5.217   7.427  0.6062  0.4211 -0.0343
 2365TIP3    H128654   5.913   5.166   7.453  1.7840  0.8186 -2.4263
 2365TIP3    H228655   5.778   5.153   7.387 -0.0673  0.2150  1.2518
 2366TIP3   OH228656   5.495   0.635   1.784  0.4283 -0.0643 -0.0459
 2366TIP3    H128657   5.524   0.606   1.698  0.6555  0.1211 -0.0315
 2366TIP3    H228658   5.575   0.638   1.837  0.0465 -2.0710  0.7376
 2367TIP3   OH228659   5.170   4.732   0.806 -0.5951 -0.0532  0.6566
 2367TIP3    H128660   5.102   4.752   0.741 -0.2624 -0.8097  0.0610
 2367TIP3    H228661   5.223   4.812   0.811 -2.3970  1.1352  2.2679
 2368TIP3   OH228662   1.957   6.737   1.388 -0.1522  0.5311 -0.6254
 2368TIP3    H128663   1.888   6.780   1.438  0.8109  0.9031  0.4216
 2368TIP3    H228664   1.911   6.680   1.327 -1.3634 -0.3132  1.0116
 2369TIP3   OH228665   5.337   4.861   2.622 -0.0905  0.0186  0.0473
 2369TIP3    H128666   5.293   4.928   2.570 -1.4976 -0.8176  0.0901
 2369TIP3    H228667   5.395   4.909   2.681  1.1101  1.0333 -1.8519
 2370TIP3   OH228668   1.608   5.784   1.892 -0.1125 -0.0747  0.7160
 2370TIP3    H128669   1.655   5.829   1.821 -2.3054 -1.8280 -2.0903
 2370TIP3    H228670   1.539   5.845   1.917 -0.8207 -0.3631 -0.4587
 2371TIP3   OH228671   1.974   2.461   0.858 -0.5654  0.3338 -0.0165
 2371TIP3    H128672   1.885   2.493   0.842 -0.3704  1.2015  0.5591
 2371TIP3    H228673   2.026   2.497   0.787 -0.6480 -0.1171 -0.3141
 2372TIP3   OH228674   6.219   1.679   1.401 -0.1461  0.1290  0.2779
 2372TIP3    H128675   6.175   1.626   1.468  3.3076 -0.2427  2.4843
 2372TIP3    H228676   6.202   1.769   1.428 -1.1831  0.0623 -0.0984
 2373TIP3   OH228677   0.216   4.363   2.839  0.1647  0.0943  0.0403
 2373TIP3    H128678   0.189   4.376   2.930  0.9905  0.6897  0.2168
 2373TIP3    H228679   0.171   4.432   2.790 -0.6239 -0.4963 -0.0820
 2374TIP3   OH228680   5.980   1.751   7.958  0.7211  0.0059  0.0798
 2374TIP3    H128681   5.976   1.743   7.862 -1.1530  0.2744  0.1028
 2374TIP3    H228682   6.056   1.808   7.973 -1.0753  3.1066 -1.5173
 2375TIP3   OH228683   4.631   1.762   0.307 -0.0492 -0.5172 -0.3759
 2375TIP3    H128684   4.725   1.778   0.316  0.2083 -1.1530 -1.6153
 2375TIP3    H228685   4.621   1.669   0.329 -0.3030 -0.5674 -0.6936
 2376TIP3   OH228686   4.557   1.013   7.975 -0.3474  0.3505  0.1541
 2376TIP3    H128687   4.592   0.924   7.970 -1.8144 -0.2702  0.3833
 2376TIP3    H228688   4.496   1.019   7.902  0.5645  1.5758 -0.5343
 2377TIP3   OH228689   5.028   3.484   0.681 -0.1021 -0.3937  0.1610
 2377TIP3    H128690   5.107   3.531   0.709 -0.9171  0.3911  1.2493
 2377TIP3    H228691   4.956   3.539   0.712 -1.1016 -0.1582 -2.3612
 2378TIP3   OH228692   2.396   1.242   7.655 -0.6595  0.5589  0.1902
 2378TIP3    H128693   2.317   1.285   7.689  0.1063  3.7248 -1.5762
 2378TIP3    H228694   2.407   1.279   7.567  1.4229 -1.7135 -0.6140
 2379TIP3   OH228695   0.506   3.898   7.944 -0.1047 -0.6193 -0.6151
 2379TIP3    H128696   0.541   3.964   8.004 -1.5320 -0.2237 -0.1667
 2379TIP3    H228697   0.441   3.945   7.892 -0.6514 -1.5136 -0.7714
 2380TIP3   OH228698   4.660   6.651   7.286  0.5145 -0.7947  0.0760
 2380TIP3    H128699   4.659   6.583   7.219  0.2618 -1.0552  0.3393
 2380TIP3    H228700   4.623   6.608   7.364 -0.8710 -0.0039 -0.1091
 2381TIP3   OH228701   6.946   3.209   0.950  0.5541  0.4095 -0.2410
 2381TIP3    H128702   6.922   3.251   0.867  1.8192  1.0126 -0.3197
 2381TIP3    H228703   6.862   3.184   0.989 -0.0919  0.6433 -1.4245
 2382TIP3   OH228704   4.205   1.237   3.496 -0.7644  0.1236  0.2398
 2382TIP3    H128705   4.256   1.156   3.499 -1.0230 -0.0685 -0.3583
 2382TIP3    H228706   4.268   1.306   3.516 -0.5866 -0.2399  0.9604
 2383TIP3   OH228707   0.364   2.196   0.166  0.3577  0.2601  0.6692
 2383TIP3    H128708   0.292   2.215   0.104  0.2909 -1.0472  0.3201
 2383TIP3    H228709   0.428   2.149   0.113  0.0594 -1.3731  1.7010
 2384TIP3   OH228710   2.870   4.238   0.479 -0.4709  0.1535 -0.5389
 2384TIP3    H128711   2.864   4.144   0.459  1.7451  0.0954 -1.2512
 2384TIP3    H228712   2.875   4.242   0.574  0.5521 -0.5740 -0.5452
 2385TIP3   OH228713   0.200   1.193   0.400  0.4897 -0.0725 -0.2304
 2385TIP3    H128714   0.257   1.227   0.470  0.5088 -1.5995  0.5370
 2385TIP3    H228715   0.121   1.247   0.405  1.3983  1.3420 -0.5718
 2386TIP3   OH228716   4.072   2.739   1.650  0.2656  0.4335 -0.5459
 2386TIP3    H128717   4.123   2.790   1.588  0.6715 -0.0676 -0.6304
 2386TIP3    H228718   4.041   2.664   1.600 -2.4922  1.8104 -1.1383
 2387TIP3   OH228719   0.171   4.712   1.195  0.0571  0.0061  0.1322
 2387TIP3    H128720   0.120   4.707   1.276  0.5086  1.3938  0.5325
 2387TIP3    H228721   0.235   4.642   1.202 -0.1099 -0.0785  0.8403
 2388TIP3   OH228722   6.221   2.800   0.930 -0.2795  0.2726 -0.2182
 2388TIP3    H128723   6.266   2.876   0.893  1.6747 -1.8066 -2.4012
 2388TIP3    H228724   6.194   2.749   0.855 -3.1856 -0.4189  1.1549
 2389TIP3   OH228725   5.106   4.712   1.201 -0.0436 -0.3772 -0.2801
 2389TIP3    H128726   5.147   4.751   1.123 -0.2938  0.0922 -0.1842
 2389TIP3    H228727   5.013   4.706   1.178 -0.3927  1.2737  0.5617
 2390TIP3   OH228728   3.300   3.855   3.050 -0.2239  0.1210 -0.0075
 2390TIP3    H128729   3.303   3.844   3.145  1.6714 -0.6080 -0.1116
 2390TIP3    H228730   3.287   3.949   3.037  1.1708  0.4883  1.0086
 2391TIP3   OH228731   4.217   1.820   0.323  0.5761  0.1606 -0.4931
 2391TIP3    H128732   4.169   1.892   0.364 -0.2160 -0.8032  0.3358
 2391TIP3    H228733   4.192   1.743   0.375  1.8476 -0.6128 -1.0011
 2392TIP3   OH228734   2.702   4.057   8.223  0.4595  0.0019  0.2059
 2392TIP3    H128735   2.676   4.140   8.181 -0.8463 -0.9943 -1.0817
 2392TIP3    H228736   2.753   4.084   8.299  0.2791  1.9903 -0.3031
 2393TIP3   OH228737   2.096   2.580   0.618  0.0060  0.5254  0.5233
 2393TIP3    H128738   2.110   2.651   0.556 -1.1960  1.9850  1.8512
 2393TIP3    H228739   2.155   2.510   0.588  1.2633  2.0688 -0.8021
 2394TIP3   OH228740   2.777   1.839   0.565  0.6377 -0.0854  0.2401
 2394TIP3    H128741   2.722   1.895   0.512  1.4256 -1.1924 -1.8602
 2394TIP3    H228742   2.854   1.893   0.585  0.0977  0.5139  0.7338
 2395TIP3   OH228743   5.078   1.023   0.578 -0.0089 -0.1161  0.1014
 2395TIP3    H128744   5.097   1.109   0.542  1.7057  0.5735  2.4197
 2395TIP3    H228745   4.987   1.028   0.605  0.2056  1.1473  0.6450
 2396TIP3   OH228746   6.174   4.064   1.433 -0.3326 -0.5105 -0.0046
 2396TIP3    H128747   6.090   4.023   1.411 -0.8509  0.8154 -0.6064
 2396TIP3    H228748   6.157   4.110   1.515 -0.1627 -0.3592 -0.0545
 2397TIP3   OH228749   3.615   2.225   1.439  0.5316 -0.5899 -0.5353
 2397TIP3    H128750   3.627   2.216   1.344 -1.6544 -1.0558 -0.8228
 2397TIP3    H228751   3.547   2.291   1.448  1.4306  0.2072  0.7961
 2398TIP3   OH228752   1.293   1.323   1.686  0.2119  0.2390 -0.0221
 2398TIP3    H128753   1.387   1.323   1.701  0.1072 -1.1338  0.8957
 2398TIP3    H228754   1.282   1.353   1.596  1.5496  0.1483 -0.2294
 2399TIP3   OH228755   5.178   0.098   7.851 -0.9931 -0.0366 -0.8796
 2399TIP3    H128756   5.110   0.156   7.886 -1.2921 -0.0609 -1.4081
 2399TIP3    H228757   5.192   0.033   7.919 -1.9468 -0.3995 -1.0134
 2400TIP3   OH228758   2.947   0.263   0.098 -0.1537 -0.0254 -0.2606
 2400TIP3    H128759   2.995   0.322   0.040 -2.1696  0.1249 -1.8769
 2400TIP3    H228760   2.869   0.312   0.124  0.9993  0.2038  3.3190
 2401TIP3   OH228761   4.372   0.548   0.640 -0.6267 -0.1056  0.5149
 2401TIP3    H128762   4.420   0.586   0.566 -0.6371 -0.4318  0.3393
 2401TIP3    H228763   4.438   0.537   0.708 -0.2045 -1.5493 -0.0875
 2402TIP3   OH228764   3.975   4.318   0.341 -0.1878 -0.6479  0.2773
 2402TIP3    H128765   3.922   4.372   0.282  1.0927 -0.7419 -1.0172
 2402TIP3    H228766   3.914   4.253   0.375 -1.2418  0.1847  0.0330
 2403TIP3   OH228767   3.274   4.496   2.127 -0.3334 -0.1905 -0.8699
 2403TIP3    H128768   3.197   4.440   2.138 -0.0525 -0.4204 -0.0124
 2403TIP3    H228769   3.294   4.527   2.215  0.0854  0.5003 -1.2015
 2404TIP3   OH228770   4.217   5.976   7.258  0.2371  0.3297  0.3471
 2404TIP3    H128771   4.163   5.953   7.182 -0.8098  0.6093  0.9848
 2404TIP3    H228772   4.157   5.972   7.332  1.2531  0.0449  1.1761
 2405TIP3   OH228773   4.524   6.506   1.570 -0.4617  0.2949 -0.1521
 2405TIP3    H128774   4.578   6.427   1.569  0.0886  0.6311 -2.2592
 2405TIP3    H228775   4.563   6.563   1.503 -1.1077  2.1772  0.9872
 2406TIP3   OH228776   3.133   0.785   8.095  0.4818  0.1310  0.4416
 2406TIP3    H128777   3.046   0.779   8.135  0.7446  0.4666  1.0778
 2406TIP3    H228778   3.130   0.724   8.022 -0.1608 -0.1607  0.7027
 2407TIP3   OH228779   5.749   3.609   1.253  0.1816  0.3997  0.1645
 2407TIP3    H128780   5.839   3.625   1.223  0.3304 -0.0633  0.3472
 2407TIP3    H228781   5.746   3.645   1.341 -0.0133  1.0189 -0.0910
 2408TIP3   OH228782   3.028   0.765   0.935 -0.0054 -0.1653 -0.0088
 2408TIP3    H128783   3.116   0.800   0.950  0.0337 -0.4391  0.4254
 2408TIP3    H228784   2.970   0.824   0.983 -0.2922  1.2525 -1.9875
 2409TIP3   OH228785   0.334   3.459   0.441  0.5243  0.9798 -0.0159
 2409TIP3    H128786   0.255   3.407   0.426  0.3827  0.2952  2.5362
 2409TIP3    H228787   0.390   3.442   0.365 -0.5866 -0.8542 -0.4686
 2410TIP3   OH228788   5.717   0.201   2.922  0.1459  0.6096 -0.3931
 2410TIP3    H128789   5.787   0.260   2.895 -0.0256  0.2702 -1.6433
 2410TIP3    H228790   5.706   0.141   2.848 -0.5487 -0.1860  0.3336
 2411TIP3   OH228791   4.651   0.872   2.746 -0.7298 -0.2666  0.3082
 2411TIP3    H128792   4.732   0.845   2.703 -1.2219  0.6816 -1.3170
 2411TIP3    H228793   4.617   0.792   2.786  1.0165 -0.6617  1.0764
 2412TIP3   OH228794   6.322   0.478   0.117 -0.1042 -0.0270  0.4205
 2412TIP3    H128795   6.239   0.506   0.155  0.4151  1.2370  0.6909
 2412TIP3    H228796   6.386   0.491   0.187  0.2060 -1.8575  0.5164
 2413TIP3   OH228797   5.191   0.995   1.291 -0.2896  0.4883 -0.6015
 2413TIP3    H128798   5.248   0.955   1.225 -0.4580 -1.7290  0.5194
 2413TIP3    H228799   5.135   1.055   1.241  0.9378  0.3787 -2.1648
 2414TIP3   OH228800   0.953   4.774   0.235 -0.2231  0.7703 -0.4180
 2414TIP3    H128801   1.036   4.730   0.217 -0.7842  0.0274 -1.1986
 2414TIP3    H228802   0.979   4.864   0.255  0.9703  0.0834  1.4729
 2415TIP3   OH228803   4.875   6.889   1.165  0.1695  0.7031  0.0287
 2415TIP3    H128804   4.951   6.924   1.119  0.2386  0.2996 -0.1694
 2415TIP3    H228805   4.883   6.794   1.156  0.7154  0.5476  1.7023
 2416TIP3   OH228806   4.701   4.900   1.058  0.0981 -0.1723  0.2931
 2416TIP3    H128807   4.624   4.955   1.046 -1.7203 -2.5213  0.3803
 2416TIP3    H228808   4.719   4.865   0.971  0.7832  0.0169  0.3583
 2417TIP3   OH228809   3.679   6.500   8.016  0.2129  0.2932 -0.1416
 2417TIP3    H128810   3.605   6.465   7.966  0.0357 -0.4107  0.5751
 2417TIP3    H228811   3.670   6.595   8.009 -1.1802  0.2423  0.4984
 2418TIP3   OH228812   2.365   1.828   2.110 -0.1383 -0.4201  0.0801
 2418TIP3    H128813   2.406   1.904   2.068 -0.9335 -0.9942 -1.8324
 2418TIP3    H228814   2.358   1.853   2.202 -1.0291  2.1537 -0.5835
 2419TIP3   OH228815   1.648   1.397   0.529  0.2358  0.3689  0.0431
 2419TIP3    H128816   1.660   1.452   0.451 -2.1227 -0.2309 -0.8307
 2419TIP3    H228817   1.649   1.307   0.494  2.4348 -0.1406  1.2245
 2420TIP3   OH228818   5.713   1.905   0.053  0.0955 -0.2027  0.3763
 2420TIP3    H128819   5.623   1.929   0.075 -0.7185 -1.4197 -1.3527
 2420TIP3    H228820   5.746   1.981   0.005 -0.4997 -0.2708 -0.1584
 2421TIP3   OH228821   5.295   2.566   3.319 -0.6165  0.0846  0.1171
 2421TIP3    H128822   5.247   2.494   3.278  0.4068 -0.3391 -0.3701
 2421TIP3    H228823   5.264   2.568   3.409 -3.4198  1.4466 -0.7414
 2422TIP3   OH228824   6.965   1.235   3.019 -0.4669 -0.7269  0.2794
 2422TIP3    H128825   6.961   1.149   3.061 -0.4538 -1.3669 -0.9992
 2422TIP3    H228826   6.878   1.273   3.033 -0.9734 -1.5857 -0.4441
 2423TIP3   OH228827   4.460   5.711   6.997  0.0047 -0.3831  0.2632
 2423TIP3    H128828   4.383   5.763   6.971 -0.7027 -1.5233  0.0212
 2423TIP3    H228829   4.470   5.730   7.090 -1.4827 -1.3202  0.6559
 2424TIP3   OH228830   4.657   6.924   0.699  0.4563  0.5445 -0.2589
 2424TIP3    H128831   4.595   6.972   0.644  0.8886 -0.5084 -1.7131
 2424TIP3    H228832   4.742   6.939   0.658  0.6465 -1.1524 -0.5379
 2425TIP3   OH228833   2.674   6.051   2.692 -0.2850 -0.6512 -0.4689
 2425TIP3    H128834   2.582   6.052   2.720 -0.0165  1.4334  0.5263
 2425TIP3    H228835   2.670   6.035   2.598 -1.4848 -3.3197 -0.0527
 2426TIP3   OH228836   0.641   4.608   2.294  0.1154 -0.0153  0.2951
 2426TIP3    H128837   0.597   4.542   2.348  0.7024  0.1391  0.9924
 2426TIP3    H228838   0.681   4.558   2.223  0.7151 -0.4602  0.9181
 2427TIP3   OH228839   5.267   0.824   1.036 -0.3584 -0.8421 -0.2179
 2427TIP3    H128840   5.327   0.836   0.962 -1.2352 -1.0112 -0.9810
 2427TIP3    H228841   5.273   0.731   1.057 -0.8273 -0.9943 -0.7271
 2428TIP3   OH228842   4.837   1.088   2.448 -0.0444 -0.5363  0.1532
 2428TIP3    H128843   4.824   0.993   2.444 -0.3425 -0.5355  0.8348
 2428TIP3    H228844   4.924   1.098   2.486  0.5859 -0.5325 -1.2470
 2429TIP3   OH228845   6.939   3.071   3.621 -0.2745  0.4734 -0.2847
 2429TIP3    H128846   7.008   3.080   3.687  0.0270 -0.7917 -0.4074
 2429TIP3    H228847   6.859   3.059   3.671 -0.1180 -0.0029 -0.1528
 2430TIP3   OH228848   2.431   2.835   7.979 -0.5557 -0.3240  0.2267
 2430TIP3    H128849   2.413   2.773   7.908 -1.1237 -0.8181  0.7858
 2430TIP3    H228850   2.349   2.883   7.991 -0.9468 -1.2523  1.5049
 2431TIP3   OH228851   6.025   5.477   1.516  0.2655  0.2282  0.4836
 2431TIP3    H128852   6.009   5.403   1.575  1.8010  0.3595  1.1117
 2431TIP3    H228853   6.038   5.552   1.574 -1.4327  1.0742 -0.1471
 2432TIP3   OH228854   6.652   0.638   1.569  0.3769 -0.4970  0.9626
 2432TIP3    H128855   6.636   0.580   1.644 -0.5140  0.6417  1.6830
 2432TIP3    H228856   6.576   0.625   1.512  1.7634 -2.5246 -0.5933
 2433TIP3   OH228857   5.891   0.874   1.931  0.1389 -0.3076 -0.3311
 2433TIP3    H128858   5.953   0.865   2.004  1.0358 -0.2319 -1.0732
 2433TIP3    H228859   5.945   0.864   1.853 -0.3551  2.0709 -1.0484
 2434TIP3   OH228860   6.999   5.933   2.355  0.4681  0.0132  0.2074
 2434TIP3    H128861   7.058   5.897   2.288  1.1993 -0.0472  0.8671
 2434TIP3    H228862   6.994   5.864   2.421  1.8974  1.0864  1.5015
 2435TIP3   OH228863   0.548   1.055   2.053  0.2165 -0.3470  0.0032
 2435TIP3    H128864   0.560   0.962   2.038  0.6635 -0.0812 -1.4056
 2435TIP3    H228865   0.638   1.088   2.065  0.1319  0.0458 -0.4356
 2436TIP3   OH228866   1.997   3.530   2.922 -0.3965 -0.4254 -0.5595
 2436TIP3    H128867   1.915   3.520   2.971  0.2813 -1.5488  0.3860
 2436TIP3    H228868   2.054   3.581   2.981  0.3244 -1.5396 -0.2622
 2437TIP3   OH228869   4.755   3.139   0.882  0.4372  0.0291  0.2745
 2437TIP3    H128870   4.828   3.202   0.880  0.7772 -0.2426  2.1740
 2437TIP3    H228871   4.762   3.098   0.968 -1.5461 -0.5262  0.2027
 2438TIP3   OH228872   2.082   1.523   1.889 -0.1228 -0.0447 -0.3870
 2438TIP3    H128873   2.048   1.441   1.853 -0.3634 -0.6636  1.1976
 2438TIP3    H228874   2.107   1.574   1.812 -0.6170 -1.3183 -1.4246
 2439TIP3   OH228875   0.088   2.367   1.621  0.4549  0.1498 -0.0374
 2439TIP3    H128876   0.055   2.326   1.701  0.9211 -0.2578 -0.0479
 2439TIP3    H228877   0.129   2.448   1.651  3.1456 -1.3143  0.5500
 2440TIP3   OH228878   1.176   0.688   1.267 -0.6657  0.2537 -0.1516
 2440TIP3    H128879   1.161   0.668   1.175 -2.0255  0.5417 -0.0145
 2440TIP3    H228880   1.240   0.623   1.296 -0.8091 -0.3291 -1.1101
 2441TIP3   OH228881   2.541   4.371   1.564 -0.4604 -0.1557  0.3770
 2441TIP3    H128882   2.577   4.436   1.624  1.1884  0.8366 -1.5720
 2441TIP3    H228883   2.597   4.294   1.576  0.6186  0.4334 -0.6333
 2442TIP3   OH228884   3.968   5.027   1.862  0.2086 -0.8477  0.1407
 2442TIP3    H128885   3.955   5.122   1.861  4.5367 -0.0147  1.8745
 2442TIP3    H228886   4.046   5.013   1.809  0.4753 -3.2355  1.0400
 2443TIP3   OH228887   0.076   4.277   1.799 -0.3004 -0.2322  0.0555
 2443TIP3    H128888   0.047   4.215   1.866 -0.6739 -0.5979 -0.4361
 2443TIP3    H228889   0.163   4.246   1.775 -0.8284 -1.1000 -0.8084
 2444TIP3   OH228890   5.892   2.653   7.914 -0.6373  0.2565 -0.2584
 2444TIP3    H128891   5.808   2.637   7.872 -0.1445  0.3787 -1.3357
 2444TIP3    H228892   5.914   2.743   7.892  1.6300 -0.8923 -3.5619
 2445TIP3   OH228893   5.865   1.859   2.716  0.0198 -0.3888  0.2829
 2445TIP3    H128894   5.879   1.800   2.642  1.2799 -0.6756  0.7158
 2445TIP3    H228895   5.845   1.801   2.789  2.3599 -0.4414  0.9692
 2446TIP3   OH228896   1.749   3.355   0.332  0.4764 -0.3437  0.3367
 2446TIP3    H128897   1.817   3.376   0.268  0.1450 -0.1070  0.0572
 2446TIP3    H228898   1.779   3.274   0.373 -0.0038 -1.3127 -1.1269
 2447TIP3   OH228899   6.115   2.529   7.536 -0.6796 -0.3320 -0.1981
 2447TIP3    H128900   6.176   2.459   7.558 -1.4494 -1.0706 -0.3606
 2447TIP3    H228901   6.113   2.585   7.615 -0.3568 -0.7042  0.0777
 2448TIP3   OH228902   3.380   3.175   3.153  0.4669 -0.3243 -0.2385
 2448TIP3    H128903   3.350   3.253   3.107  4.2390  0.5914 -1.4490
 2448TIP3    H228904   3.411   3.116   3.084 -1.1373 -2.4520  0.7380
 2449TIP3   OH228905   1.613   0.430   0.660  0.2374 -0.3764  0.4477
 2449TIP3    H128906   1.564   0.465   0.734  1.9553 -0.8119  1.8641
 2449TIP3    H228907   1.700   0.413   0.695  0.3121 -3.4145 -0.8776
 2450TIP3   OH228908   6.488   5.158   0.339 -0.6924 -0.1166  0.3149
 2450TIP3    H128909   6.398   5.186   0.322  0.1401  1.6019 -1.7494
 2450TIP3    H228910   6.531   5.235   0.376  0.3561 -0.3288 -0.4231
 2451TIP3   OH228911   5.020   4.025   2.459  0.0245  0.8842  0.1574
 2451TIP3    H128912   5.074   4.080   2.515  0.4911 -0.0702  0.6882
 2451TIP3    H228913   5.075   3.948   2.441 -0.8132  0.3150 -0.0436
 2452TIP3   OH228914   5.922   5.808   8.136 -0.4007  0.2890  0.1630
 2452TIP3    H128915   5.876   5.753   8.200 -0.6929 -1.0541 -1.1650
 2452TIP3    H228916   5.852   5.858   8.093 -0.3741 -0.0054 -0.2237
 2453TIP3   OH228917   4.258   0.161   1.502  0.0872  0.2322 -0.2226
 2453TIP3    H128918   4.254   0.256   1.503  0.7384  0.2686 -0.1547
 2453TIP3    H228919   4.275   0.137   1.594  2.0526  0.1924 -0.5400
 2454TIP3   OH228920   3.370   3.625   1.985 -0.2882  0.6039  0.4068
 2454TIP3    H128921   3.454   3.672   1.991  0.3342 -0.5783  1.2702
 2454TIP3    H228922   3.395   3.533   1.977 -1.4887 -0.0003  2.7864
 2455TIP3   OH228923   3.356   6.256   2.262  0.0051  0.2319 -0.0474
 2455TIP3    H128924   3.261   6.250   2.271 -0.0957  1.7921  0.1858
 2455TIP3    H228925   3.371   6.252   2.168 -0.2938  0.0131 -0.0869
 2456TIP3   OH228926   2.413   1.796   2.382  0.3500  0.3445 -0.3853
 2456TIP3    H128927   2.358   1.717   2.380 -0.3061  0.8030 -0.9035
 2456TIP3    H228928   2.401   1.832   2.470 -0.2369  0.4690 -0.5095
 2457TIP3   OH228929   2.410   1.926   1.594 -0.1490  0.3984 -0.5408
 2457TIP3    H128930   2.369   1.849   1.633  0.4692 -0.3598 -1.3552
 2457TIP3    H228931   2.396   1.996   1.658  0.4991 -0.7144  0.8582
 2458TIP3   OH228932   1.947   5.819   7.732  0.2213  0.2099  0.1161
 2458TIP3    H128933   1.927   5.912   7.722  1.5100  0.5302  0.3431
 2458TIP3    H228934   2.030   5.818   7.779  0.3851 -1.0555 -0.1883
 2459TIP3   OH228935   4.197   0.570   2.031 -0.8747 -0.1572  0.3646
 2459TIP3    H128936   4.252   0.578   1.953 -3.0062  0.4537 -1.1960
 2459TIP3    H228937   4.194   0.476   2.049  2.3026 -0.1084  1.8704
 2460TIP3   OH228938   1.016   0.722   2.324 -0.5266 -0.2013  0.7700
 2460TIP3    H128939   1.087   0.780   2.353  0.8843 -1.3359 -0.2614
 2460TIP3    H228940   1.050   0.633   2.337 -1.3101 -0.7700 -0.7607
 2461TIP3   OH228941   0.248   2.117   1.551  0.4203 -0.1537 -0.2485
 2461TIP3    H128942   0.237   2.191   1.610 -1.2656 -1.5190  1.2674
 2461TIP3    H228943   0.169   2.064   1.563 -0.2724 -0.3461 -4.0900
 2462TIP3   OH228944   1.299   6.525   2.109  0.1940  0.3317 -0.0180
 2462TIP3    H128945   1.333   6.584   2.176 -0.9376  1.1056 -0.1020
 2462TIP3    H228946   1.260   6.582   2.043  0.4281 -0.4601 -0.8660
 2463TIP3   OH228947   0.518   1.645   2.987  0.2102  0.2243 -0.1689
 2463TIP3    H128948   0.513   1.730   3.030  0.4250 -0.1609  0.6344
 2463TIP3    H228949   0.610   1.637   2.960  0.3291 -0.0121  0.3010
 2464TIP3   OH228950   1.368   0.286   0.824 -0.0492 -0.2686 -0.1282
 2464TIP3    H128951   1.397   0.364   0.871 -0.3913 -0.6154  0.6955
 2464TIP3    H228952   1.343   0.225   0.894 -1.7057 -0.3724 -0.7630
 2465TIP3   OH228953   4.966   2.291   8.207 -0.7928 -0.3361 -0.2051
 2465TIP3    H128954   4.888   2.339   8.236  0.0569  1.1439 -0.2627
 2465TIP3    H228955   5.004   2.257   8.287 -1.3637 -0.8806 -0.1544
 2466TIP3   OH228956   5.611   0.229   7.971  0.2509  0.0998 -0.4627
 2466TIP3    H128957   5.533   0.228   8.027  0.7566 -0.6062  0.2598
 2466TIP3    H228958   5.577   0.222   7.882 -0.4901 -1.0911 -0.1156
 2467TIP3   OH228959   4.484   0.483   2.790  0.3137 -0.2923  0.2662
 2467TIP3    H128960   4.505   0.545   2.860 -0.5292 -0.2775  0.5187
 2467TIP3    H228961   4.427   0.419   2.832  0.2244 -0.5759 -0.2856
 2468TIP3   OH228962   5.042   0.822   1.976  0.1062 -0.4486 -0.0386
 2468TIP3    H128963   5.062   0.865   1.893  0.3911 -0.1932  0.1616
 2468TIP3    H228964   5.060   0.888   2.043  1.4475 -1.1691  0.3435
 2469TIP3   OH228965   6.977   0.950   2.510  0.0281 -0.2758 -0.2045
 2469TIP3    H128966   6.964   1.018   2.445 -1.2169 -1.2105 -0.9870
 2469TIP3    H228967   7.010   0.996   2.587  0.6643  0.9733 -1.1941
 2470TIP3   OH228968   1.075   3.287   1.402 -0.3038  0.4628 -0.4641
 2470TIP3    H128969   1.074   3.300   1.497 -0.1875  0.7660 -0.5023
 2470TIP3    H228970   1.037   3.367   1.367 -1.0530  0.0346 -0.6443
 2471TIP3   OH228971   5.751   3.191   2.370  0.1566 -0.5367  0.3755
 2471TIP3    H128972   5.788   3.252   2.307 -1.1479  0.7027  0.7490
 2471TIP3    H228973   5.812   3.117   2.371  0.0133 -0.8359 -2.6726
 2472TIP3   OH228974   1.976   2.215   2.081 -0.0072 -0.4050 -0.3766
 2472TIP3    H128975   2.071   2.217   2.091  0.0542  2.0796 -0.7152
 2472TIP3    H228976   1.945   2.164   2.156  1.5817 -1.4053 -0.3574
 2473TIP3   OH228977   1.091   1.105   7.393 -0.3522 -0.4566 -0.1846
 2473TIP3    H128978   1.056   1.020   7.365 -0.5251 -0.6762  0.6605
 2473TIP3    H228979   1.172   1.116   7.344 -1.0039 -0.4834 -1.3060
 2474TIP3   OH228980   5.075   4.910   3.426 -0.1783 -0.2044 -0.2763
 2474TIP3    H128981   5.164   4.940   3.406  0.1729  0.0772  1.4854
 2474TIP3    H228982   5.085   4.817   3.445 -0.6240 -0.6337 -2.0254
 2475TIP3   OH228983   6.326   4.745   0.477 -0.2381  0.2617 -0.1128
 2475TIP3    H128984   6.329   4.838   0.454 -1.3071  0.1259 -0.8673
 2475TIP3    H228985   6.417   4.718   0.480  0.3462  2.0467  3.2054
 2476TIP3   OH228986   1.750   4.102   0.383  0.1587 -0.0622 -0.0515
 2476TIP3    H128987   1.746   4.166   0.454 -3.0022 -0.9223  0.6991
 2476TIP3    H228988   1.776   4.153   0.306 -0.8618  1.8585  0.8164
 2477TIP3   OH228989   3.994   1.765   1.940  0.3509 -0.1230  0.1341
 2477TIP3    H128990   4.049   1.831   1.897 -2.2405  0.6339 -2.3296
 2477TIP3    H228991   4.031   1.681   1.912  0.1864  0.3669 -1.6675
 2478TIP3   OH228992   1.391   2.265   0.411 -0.4397  0.1042 -0.6694
 2478TIP3    H128993   1.474   2.251   0.364 -1.0979  0.2391 -1.9038
 2478TIP3    H228994   1.333   2.305   0.346 -1.3949  0.2568  0.2592
 2479TIP3   OH228995   2.778   0.643   1.214  0.3004 -0.6713  0.5040
 2479TIP3    H128996   2.873   0.638   1.206  0.3185 -1.8920  1.2558
 2479TIP3    H228997   2.760   0.612   1.303 -0.7075  0.9395  0.9039
 2480TIP3   OH228998   0.051   3.533   8.054  0.2877  0.3668  0.0868
 2480TIP3    H128999  -0.012   3.603   8.043  0.5829  0.7248  0.6520
 2480TIP3    H229000   0.006   3.467   8.107  1.0641  1.5517  2.3398
 2481TIP3   OH229001   1.688   5.463   3.058 -0.2687 -0.3704  0.8892
 2481TIP3    H129002   1.606   5.480   3.011  0.1754  1.0210  0.5820
 2481TIP3    H229003   1.661   5.449   3.148 -0.8839 -0.2270  0.7318
 2482TIP3   OH229004   5.523   0.021   2.404  0.1939 -0.4016 -0.8414
 2482TIP3    H129005   5.516   0.071   2.323  1.2378  1.0850 -0.0589
 2482TIP3    H229006   5.528   0.088   2.473 -0.2450 -1.6229  0.4143
 2483TIP3   OH229007   3.161   2.232   2.875  0.0618 -0.4180 -0.2829
 2483TIP3    H129008   3.212   2.157   2.906  0.2912 -0.1926 -0.1116
 2483TIP3    H229009   3.072   2.214   2.904  0.0885 -0.6868 -0.3564
 2484TIP3   OH229010   4.912   4.762   3.249 -0.5658  0.4314 -0.9766
 2484TIP3    H129011   4.823   4.792   3.268 -0.1114  0.3307  1.5677
 2484TIP3    H229012   4.969   4.820   3.300  0.6024 -1.6926  0.2818
 2485TIP3   OH229013   6.125   2.557   2.569  0.1617  0.0620  0.4439
 2485TIP3    H129014   6.100   2.505   2.492  0.5288  0.1860  0.2414
 2485TIP3    H229015   6.108   2.498   2.643 -2.3420  0.6969  0.4784
 2486TIP3   OH229016   0.978   5.193   2.253  0.0096 -0.0461  0.0690
 2486TIP3    H129017   0.962   5.195   2.347 -1.0786  1.6820 -0.1035
 2486TIP3    H229018   0.906   5.243   2.215  0.5150 -0.5614 -1.6754
 2487TIP3   OH229019   4.836   1.747   2.952  0.3237  0.1685 -0.0396
 2487TIP3    H129020   4.781   1.670   2.971  0.8637 -0.0172  0.8621
 2487TIP3    H229021   4.899   1.749   3.025 -0.3029  2.0481  0.5061
 2488TIP3   OH229022   0.744   5.605   0.597 -0.1827  0.4408  0.0164
 2488TIP3    H129023   0.650   5.604   0.618 -0.3863 -0.2252 -0.8756
 2488TIP3    H229024   0.756   5.685   0.546 -0.5446 -0.1418 -1.0166
 2489TIP3   OH229025   0.235   6.997   0.240  0.1137 -0.0581 -0.4319
 2489TIP3    H129026   0.263   6.910   0.212  0.6180  0.0760 -0.3503
 2489TIP3    H229027   0.305   7.028   0.298  1.0437  1.2685 -2.1412
 2490TIP3   OH229028   5.295   4.966   0.276  0.2750  0.1686 -0.4779
 2490TIP3    H129029   5.304   4.944   0.183  1.2066  2.1755 -0.9215
 2490TIP3    H229030   5.385   4.972   0.307 -0.0278 -0.0149  0.4545
 2491TIP3   OH229031   5.439   2.772   1.927 -0.4429 -0.6010 -0.4275
 2491TIP3    H129032   5.396   2.739   1.848 -0.9555  1.2046 -0.9564
 2491TIP3    H229033   5.505   2.833   1.895  0.5921 -1.1980  0.4943
 2492TIP3   OH229034   6.993   3.740   0.890 -0.2427 -1.0922 -0.2832
 2492TIP3    H129035   6.944   3.810   0.846  1.3023  1.7587  2.0966
 2492TIP3    H229036   7.029   3.687   0.819 -2.0977  0.0856 -2.2105
 2493TIP3   OH229037   1.614   2.246   1.549  0.3766  0.3431  0.3794
 2493TIP3    H129038   1.687   2.215   1.602  0.4230  0.9574  0.6899
 2493TIP3    H229039   1.564   2.167   1.528 -0.0628  0.1509  1.9861
 2494TIP3   OH229040   3.540   0.773   1.190  0.1060  0.2563 -0.0241
 2494TIP3    H129041   3.520   0.863   1.164 -1.6584 -0.1055 -0.0485
 2494TIP3    H229042   3.456   0.728   1.186  0.6154 -0.9600  1.8018
 2495TIP3   OH229043   2.243   2.130   0.799  0.5076 -0.0140  0.3622
 2495TIP3    H129044   2.205   2.097   0.881  1.4788  0.6427  1.0951
 2495TIP3    H229045   2.336   2.111   0.807  0.7214  0.7661 -0.2546
 2496TIP3   OH229046   3.480   2.481   0.523 -0.4971  0.3079 -0.1087
 2496TIP3    H129047   3.440   2.408   0.571  1.2012 -1.9903 -1.9794
 2496TIP3    H229048   3.423   2.494   0.447 -0.7659  0.9580  0.1916
 2497TIP3   OH229049   2.331   4.425   1.884 -0.0859 -0.0860  0.1876
 2497TIP3    H129050   2.363   4.381   1.962  0.4648 -0.3390 -0.1735
 2497TIP3    H229051   2.386   4.391   1.813 -1.2114 -0.5882 -0.4603
 2498TIP3   OH229052   5.550   3.119   1.764  0.2988 -0.1597  0.8226
 2498TIP3    H129053   5.480   3.153   1.708  0.1565  1.1443  1.7456
 2498TIP3    H229054   5.589   3.048   1.713  0.2819  1.0699 -1.0012
 2499TIP3   OH229055   2.645   4.259   7.804  0.7677 -0.0417  0.6904
 2499TIP3    H129056   2.563   4.227   7.768 -0.5918  2.2224  1.5501
 2499TIP3    H229057   2.663   4.340   7.755  0.9266  1.0159  2.4018
 2500TIP3   OH229058   3.453   5.667   7.535 -0.8371 -0.0105 -0.4952
 2500TIP3    H129059   3.367   5.706   7.549 -1.1483 -0.5790 -0.7688
 2500TIP3    H229060   3.466   5.670   7.440 -0.8339 -0.4884 -0.5154
 2501TIP3   OH229061   0.493   2.018   1.183  0.1045 -0.1923 -0.4627
 2501TIP3    H129062   0.412   2.041   1.229  0.9529 -1.4829  1.8563
 2501TIP3    H229063   0.496   1.923   1.187  0.9049 -0.2648 -2.0985
 2502TIP3   OH229064   3.752   4.758   1.630 -0.6274  0.6245 -0.2190
 2502TIP3    H129065   3.690   4.779   1.559  0.6435  0.9785 -1.2674
 2502TIP3    H229066   3.758   4.663   1.629  0.2006  0.6765 -1.3332
 2503TIP3   OH229067   1.942   3.023   1.743 -0.1488 -0.1059  0.0048
 2503TIP3    H129068   1.876   2.976   1.692  0.1446  0.7941 -1.2375
 2503TIP3    H229069   1.906   3.111   1.755  0.6211  0.2621 -0.3048
 2504TIP3   OH229070   1.112   3.844   1.372 -0.0467  0.1138  0.1921
 2504TIP3    H129071   1.081   3.933   1.384 -0.8659 -0.2235  0.6056
 2504TIP3    H229072   1.043   3.789   1.408  1.5828 -0.6244  2.3727
 2505TIP3   OH229073   2.821   1.974   3.500  0.8045  0.0026 -0.0959
 2505TIP3    H129074   2.773   2.054   3.480  1.6046  0.7906  0.9826
 2505TIP3    H229075   2.772   1.934   3.571 -1.6575 -2.4431 -2.9175
 2506TIP3   OH229076   1.036   4.101   7.238  0.3419 -0.6358  0.0551
 2506TIP3    H129077   0.980   4.090   7.162 -0.2144  0.1683  0.3426
 2506TIP3    H229078   1.011   4.029   7.297 -3.0616  1.7144  1.7987
 2507TIP3   OH229079   4.736   3.062   7.689  0.5397 -0.3629 -0.3822
 2507TIP3    H129080   4.644   3.046   7.710  0.3197  0.7908 -0.4218
 2507TIP3    H229081   4.753   3.008   7.612 -0.0484 -0.7331 -0.2559
 2508TIP3   OH229082   4.194   2.464   2.072 -0.3687  0.2869 -0.2219
 2508TIP3    H129083   4.150   2.547   2.054 -0.0216  0.5163 -0.0411
 2508TIP3    H229084   4.125   2.406   2.102 -0.8439  0.1103 -1.5757
 2509TIP3   OH229085   2.058   4.776   0.042  0.0355  0.3358  0.1769
 2509TIP3    H129086   1.984   4.717   0.029 -0.0548  0.2880  0.9083
 2509TIP3    H229087   2.080   4.806  -0.047 -0.2075 -0.4337 -0.1488
 2510TIP3   OH229088   6.465   1.079   1.724 -0.2880 -0.2705  0.3739
 2510TIP3    H129089   6.546   1.027   1.715 -1.5534 -2.2207 -0.4703
 2510TIP3    H229090   6.426   1.077   1.637 -1.6605 -0.0788  0.9607
 2511TIP3   OH229091   6.465   0.204   0.791  0.5207 -0.0080  0.7058
 2511TIP3    H129092   6.542   0.171   0.837  0.6176 -2.9786 -1.2869
 2511TIP3    H229093   6.391   0.162   0.836  0.0691  1.8246  1.7984
 2512TIP3   OH229094   1.169   4.844   7.531  0.9216  0.9268  0.1689
 2512TIP3    H129095   1.082   4.842   7.491  0.6750 -1.0816  0.6970
 2512TIP3    H229096   1.186   4.937   7.548 -0.2590  1.5452 -1.7297
 2513TIP3   OH229097   1.836   2.449   2.258 -0.2266 -0.3346  0.0573
 2513TIP3    H129098   1.925   2.481   2.274 -0.7718  0.5859  1.4246
 2513TIP3    H229099   1.838   2.358   2.287  0.2761 -0.3372  0.0248
 2514TIP3   OH229100   4.041   0.041   2.082  0.0974  0.4788 -0.2356
 2514TIP3    H129101   3.973   0.035   2.015  1.1064  2.2324 -1.4756
 2514TIP3    H229102   3.991   0.043   2.165 -1.1242 -2.5102 -0.7559
 2515TIP3   OH229103   2.704   6.302   2.792  0.2591  0.3064  0.2054
 2515TIP3    H129104   2.610   6.321   2.788  0.0344 -0.5121  1.0668
 2515TIP3    H229105   2.712   6.213   2.758  0.7520  0.4526 -0.0667
 2516TIP3   OH229106   0.910   3.262   7.338  0.0434  0.5770  0.0620
 2516TIP3    H129107   0.971   3.309   7.282 -0.3311 -0.7015 -1.4717
 2516TIP3    H229108   0.935   3.170   7.330  0.7966  0.3908  3.0384
 2517TIP3   OH229109   1.629   0.774   1.679 -0.0389  0.1314  0.2068
 2517TIP3    H129110   1.545   0.729   1.674 -0.3475  0.5793  1.1420
 2517TIP3    H229111   1.681   0.723   1.741  0.3954 -0.1651 -0.3948
 2518TIP3   OH229112   1.237   5.093   0.387  0.7611 -1.2073 -0.2980
 2518TIP3    H129113   1.198   5.027   0.329  0.4275 -0.9249 -0.4005
 2518TIP3    H229114   1.274   5.158   0.328 -0.0793 -0.6261 -0.2093
 2519TIP3   OH229115   0.422   0.743   1.471  0.5186  0.0922 -0.5610
 2519TIP3    H129116   0.371   0.814   1.431  1.0405  0.7496 -0.0803
 2519TIP3    H229117   0.513   0.770   1.459  0.7499 -0.8376 -0.9774
 2520TIP3   OH229118   2.639   6.747   2.826  0.1224  0.1409 -0.0622
 2520TIP3    H129119   2.650   6.691   2.750 -0.9205  1.2519 -1.0796
 2520TIP3    H229120   2.544   6.750   2.840  0.2990 -0.0734  1.3194
 2521TIP3   OH229121   5.207   3.854   2.767 -0.0407  0.4244 -0.2303
 2521TIP3    H129122   5.206   3.825   2.858  2.7453 -1.6761 -0.7415
 2521TIP3    H229123   5.157   3.787   2.720  0.3873  0.3120 -0.5273
 2522TIP3   OH229124   6.900   0.586   7.415  0.0569  0.2078 -0.0963
 2522TIP3    H129125   6.944   0.669   7.431 -2.6453  1.9158 -0.8344
 2522TIP3    H229126   6.897   0.543   7.501  2.3378  0.3714  0.1052
 2523TIP3   OH229127   6.680   1.061   7.228 -0.5430  0.2748 -0.0954
 2523TIP3    H129128   6.728   1.077   7.147  0.2738 -0.1197  0.2951
 2523TIP3    H229129   6.599   1.019   7.201  0.8319 -2.2780 -0.5723
 2524TIP3   OH229130   3.405   3.559   0.510  0.5429  0.5426  0.3955
 2524TIP3    H129131   3.323   3.557   0.559  1.0121 -0.2055  1.1738
 2524TIP3    H229132   3.379   3.545   0.419 -0.1598 -0.1772  0.6923
 2525TIP3   OH229133   2.713   5.780   1.403 -0.1556  0.3035  0.2882
 2525TIP3    H129134   2.625   5.761   1.371 -0.2368  2.7262 -1.1722
 2525TIP3    H229135   2.718   5.735   1.487 -2.3416 -0.8869 -0.1428
 2526TIP3   OH229136   1.683   3.831   7.710  0.0764 -0.0533 -0.1046
 2526TIP3    H129137   1.603   3.831   7.656  0.0873 -2.5793 -0.2614
 2526TIP3    H229138   1.693   3.740   7.737  2.4465  0.3597  0.6448
 2527TIP3   OH229139   0.251   1.382   8.242 -0.0224 -0.8680  0.5655
 2527TIP3    H129140   0.316   1.404   8.308 -0.3128  1.3649  0.1779
 2527TIP3    H229141   0.172   1.429   8.270 -0.2130 -0.0364 -1.2117
 2528TIP3   OH229142   1.170   6.929   7.870 -0.2437 -0.0638 -0.0022
 2528TIP3    H129143   1.077   6.906   7.869 -0.0794 -0.8807  1.2610
 2528TIP3    H229144   1.171   7.023   7.886 -0.8615  0.2064 -1.4095
 2529TIP3   OH229145   2.232   4.817   1.621 -0.2954  0.0149 -0.1875
 2529TIP3    H129146   2.169   4.863   1.676  0.6047  1.8819 -0.6322
 2529TIP3    H229147   2.198   4.727   1.616 -2.6904  0.8410 -0.1240
 2530TIP3   OH229148   4.212   2.433   0.218  0.0152 -0.1056  0.1625
 2530TIP3    H129149   4.241   2.481   0.295 -0.2813 -1.3828  1.1205
 2530TIP3    H229150   4.291   2.423   0.165  0.3885  0.1655  0.6557
 2531TIP3   OH229151   3.468   1.829   3.275  0.6723  0.0466  0.3874
 2531TIP3    H129152   3.486   1.775   3.352 -0.9214  1.3586  1.7539
 2531TIP3    H229153   3.465   1.918   3.308 -0.5721  0.6013 -1.0965
 2532TIP3   OH229154   4.337   1.892   1.108  0.2726 -0.0019  0.1892
 2532TIP3    H129155   4.291   1.840   1.042  0.3828  0.4710 -0.2758
 2532TIP3    H229156   4.427   1.861   1.105 -0.0226 -1.0051  1.1787
 2533TIP3   OH229157   0.808   4.484   0.847  0.0827  1.0742  0.0657
 2533TIP3    H129158   0.822   4.525   0.762  1.9083  0.5500  0.0690
 2533TIP3    H229159   0.882   4.514   0.901 -0.0843  0.0191  0.9238
 2534TIP3   OH229160   0.583   0.888   7.675 -0.1654  0.2347 -0.9391
 2534TIP3    H129161   0.506   0.939   7.700 -0.4597  0.5740 -2.4576
 2534TIP3    H229162   0.550   0.798   7.664 -0.0751  0.1247 -0.3460
 2535TIP3   OH229163   2.841   2.224   7.425  0.3045 -0.2235 -0.5376
 2535TIP3    H129164   2.752   2.206   7.396  1.2192 -4.5348 -1.3451
 2535TIP3    H229165   2.879   2.137   7.441  3.7321  1.4827  1.8175
 2536TIP3   OH229166   6.178   4.692   1.571 -0.0780  0.1119  0.6258
 2536TIP3    H129167   6.121   4.750   1.521  1.2853  0.2313 -0.8448
 2536TIP3    H229168   6.147   4.604   1.550  0.1427  0.1826 -0.0142
 2537TIP3   OH229169   0.232   4.364   8.092  0.2453  0.4301 -0.1360
 2537TIP3    H129170   0.313   4.313   8.092 -0.3912 -0.6343  1.0861
 2537TIP3    H229171   0.254   4.444   8.140  0.9696  0.8766 -1.1621
 2538TIP3   OH229172   3.092   5.785   2.527  0.5687 -0.6175 -0.0833
 2538TIP3    H129173   3.110   5.876   2.504  0.1116 -0.9202 -1.7492
 2538TIP3    H229174   3.042   5.790   2.608  2.5686  0.4824  1.1853
 2539TIP3   OH229175   6.878   3.845   7.361 -0.5340  0.0623  0.1254
 2539TIP3    H129176   6.872   3.932   7.400 -0.2481  0.0492  0.1977
 2539TIP3    H229177   6.971   3.831   7.345 -0.4535 -0.6922  1.1736
 2540TIP3   OH229178   0.505   3.051   0.274  0.3678  0.2787  0.8013
 2540TIP3    H129179   0.587   3.099   0.282  1.3321 -0.8732 -1.3983
 2540TIP3    H229180   0.525   2.963   0.307  0.5372 -0.4872 -1.2339
 2541TIP3   OH229181   5.519   5.242   1.969 -0.3475 -0.4126  0.5072
 2541TIP3    H129182   5.449   5.308   1.964 -0.5254 -0.6247  0.1670
 2541TIP3    H229183   5.474   5.159   1.952  0.1992 -0.4222 -1.0861
 2542TIP3   OH229184   7.037   4.918   1.468  0.3089 -0.3381  0.6016
 2542TIP3    H129185   7.051   4.947   1.558  2.2054 -0.4395  0.3756
 2542TIP3    H229186   6.956   4.866   1.472 -1.2624  2.0304  1.6457
 2543TIP3   OH229187   2.544   4.611   0.169 -0.3032  0.4014 -0.0520
 2543TIP3    H129188   2.639   4.618   0.161 -0.3609  0.8570 -0.4286
 2543TIP3    H229189   2.530   4.561   0.249  0.2671 -0.3918 -0.4304
 2544TIP3   OH229190   3.262   4.684   8.086  0.1326  0.0385 -0.1432
 2544TIP3    H129191   3.232   4.592   8.087  2.5407 -0.8346 -1.1646
 2544TIP3    H229192   3.261   4.708   7.993 -0.9524  1.2506  0.1613
 2545TIP3   OH229193   5.434   5.648   2.834  0.5793 -0.4854 -0.2470
 2545TIP3    H129194   5.525   5.678   2.835  0.9694 -1.5927  0.8105
 2545TIP3    H229195   5.390   5.706   2.772  1.9212  0.3089 -0.5019
 2546TIP3   OH229196   5.214   0.047   0.042  0.1862 -0.0431 -0.1221
 2546TIP3    H129197   5.150  -0.024   0.036 -0.0758  0.0572  1.2125
 2546TIP3    H229198   5.287   0.019  -0.013 -0.1777 -1.0525 -0.1036
 2547TIP3   OH229199   0.416   1.602   7.728  0.2209  0.0430 -0.4982
 2547TIP3    H129200   0.351   1.559   7.673 -1.6015  0.0026  1.5776
 2547TIP3    H229201   0.368   1.672   7.773  1.5590 -0.0462  1.1806
 2548TIP3   OH229202   2.252   2.989   1.501  0.2010  0.3497 -0.7008
 2548TIP3    H129203   2.260   3.062   1.563 -0.0292 -0.0351 -0.2105
 2548TIP3    H229204   2.168   3.002   1.459  0.2992  0.5413 -0.8369
 2549TIP3   OH229205   4.164   5.734   7.583 -0.4053 -0.4298 -0.0575
 2549TIP3    H129206   4.213   5.816   7.590  1.2129 -1.2065 -1.5815
 2549TIP3    H229207   4.131   5.733   7.492 -2.4882 -0.3897  0.6347
 2550TIP3   OH229208   2.341   0.393   3.484 -0.4284  0.0902  0.3746
 2550TIP3    H129209   2.294   0.384   3.401 -1.1483  4.3199  0.0694
 2550TIP3    H229210   2.274   0.376   3.551 -0.9938  0.7109 -0.0133
 2551TIP3   OH229211   3.873   1.504   8.040  0.3642  0.2951  0.1356
 2551TIP3    H129212   3.838   1.546   7.961  1.1310 -2.6251 -1.9124
 2551TIP3    H229213   3.956   1.549   8.056 -0.0448  1.2774 -0.4041
 2552TIP3   OH229214   2.997   3.354   0.694 -0.2991  0.4749  0.3656
 2552TIP3    H129215   3.057   3.427   0.711 -1.2521  1.5407 -0.6025
 2552TIP3    H229216   2.923   3.371   0.752 -0.7330  0.5703 -0.2011
 2553TIP3   OH229217   2.435   5.994   3.095 -0.2720  0.1128  0.3591
 2553TIP3    H129218   2.434   6.003   2.999 -1.6766  0.8505  0.4103
 2553TIP3    H229219   2.457   6.081   3.127 -0.0902 -0.0610  0.7036
 2554TIP3   OH229220   3.646   6.687   2.193  0.2040 -0.3976 -0.2425
 2554TIP3    H129221   3.632   6.781   2.206 -0.7678 -0.2719 -1.8948
 2554TIP3    H229222   3.731   6.682   2.149  0.5244 -0.3529  0.3576
 2555TIP3   OH229223   4.284   6.293   1.696  0.3002  0.2113 -0.0702
 2555TIP3    H129224   4.380   6.291   1.701  0.7429  3.7315 -2.8207
 2555TIP3    H229225   4.257   6.342   1.773  0.7089 -0.3719  0.4610
 2556TIP3   OH229226   3.643   2.873   1.363  0.1853  0.1968  0.2882
 2556TIP3    H129227   3.694   2.794   1.379 -0.5476 -0.6113 -1.2405
 2556TIP3    H229228   3.564   2.843   1.320 -0.4777  1.6917  0.3856
 2557TIP3   OH229229   2.949   6.356   1.395  0.3810 -0.2862  0.1337
 2557TIP3    H129230   2.925   6.433   1.447 -0.5311 -0.1141 -0.5305
 2557TIP3    H229231   3.045   6.361   1.389  0.4973 -0.1748  1.5754
 2558TIP3   OH229232   1.756   0.805   7.998 -0.2153  0.5124 -0.2582
 2558TIP3    H129233   1.674   0.780   7.957  0.2091  1.1858 -1.6012
 2558TIP3    H229234   1.785   0.726   8.044 -0.8316 -0.2304 -1.0987
 2559TIP3   OH229235   0.313   4.924   1.827  0.6383 -0.4141  0.4700
 2559TIP3    H129236   0.290   4.860   1.895  0.5040 -1.0579 -0.1754
 2559TIP3    H229237   0.286   4.884   1.745  0.6948  0.4083  0.0319
 2560TIP3   OH229238   5.746   6.451   1.740  0.4619 -0.4209 -0.1536
 2560TIP3    H129239   5.679   6.491   1.685 -0.9134 -0.9073  1.1121
 2560TIP3    H229240   5.721   6.474   1.829  1.1554 -1.8487  0.4313
 2561TIP3   OH229241   6.001   6.314   2.626  0.0175 -0.0275 -0.2937
 2561TIP3    H129242   5.992   6.390   2.683 -1.3439 -0.7606  0.5110
 2561TIP3    H229243   5.981   6.239   2.682  0.6759 -0.9403 -1.2346
 2562TIP3   OH229244   2.626   1.198   1.159 -0.0501  0.1577  0.3109
 2562TIP3    H129245   2.576   1.132   1.206 -2.0504  0.1458 -1.6261
 2562TIP3    H229246   2.598   1.188   1.067  0.8193  2.5680 -0.2943
 2563TIP3   OH229247   1.706   6.412   3.066 -0.0970  0.0287  0.1512
 2563TIP3    H129248   1.751   6.338   3.107 -0.3453 -0.4911 -0.4871
 2563TIP3    H229249   1.613   6.387   3.068 -0.0512 -0.3898 -1.4212
 2564TIP3   OH229250   6.898   5.156   2.725  0.4077  0.2094  0.5052
 2564TIP3    H129251   6.819   5.192   2.684  0.6077 -0.3169 -0.3899
 2564TIP3    H229252   6.968   5.215   2.696  0.6641 -0.5938 -0.5727
 2565TIP3   OH229253   3.875   5.532   7.351  0.4176  0.2260  0.7324
 2565TIP3    H129254   3.839   5.576   7.428 -0.3370 -0.4752  0.7906
 2565TIP3    H229255   3.860   5.439   7.367 -0.8094  0.1362 -0.7702
 2566TIP3   OH229256   0.945   1.825   2.213 -0.5720 -0.2681 -0.3590
 2566TIP3    H129257   0.898   1.908   2.224  0.0309  0.0031  0.2492
 2566TIP3    H229258   1.037   1.851   2.205 -0.5436 -0.7365 -2.1119
 2567TIP3   OH229259   1.815   4.032   1.691  0.1381 -0.3560 -0.0548
 2567TIP3    H129260   1.797   4.113   1.642 -0.4213  0.1929  1.0060
 2567TIP3    H229261   1.909   4.032   1.704  0.4867 -1.1529 -2.1591
 2568TIP3   OH229262   1.958   3.862   7.911 -0.5552  0.9695 -0.3367
 2568TIP3    H129263   2.020   3.931   7.888  0.9014 -0.5888 -1.2791
 2568TIP3    H229264   1.981   3.838   8.001 -0.2153  0.8320 -0.4598
 2569TIP3   OH229265   5.452   2.620   2.877 -0.6826 -0.2636 -0.0332
 2569TIP3    H129266   5.455   2.655   2.966  0.5697  0.0688 -0.2002
 2569TIP3    H229267   5.488   2.532   2.885 -0.7404 -0.3006 -0.1810
 2570TIP3   OH229268   4.569   3.436   1.480 -0.1921  0.4382  0.2371
 2570TIP3    H129269   4.589   3.424   1.573 -1.3099  2.5467  0.8008
 2570TIP3    H229270   4.629   3.376   1.435  0.3198 -0.6903  2.3005
 2571TIP3   OH229271   3.205   2.534   2.591  0.0189 -0.2475  0.2337
 2571TIP3    H129272   3.229   2.514   2.501 -2.3557 -1.5917 -0.2139
 2571TIP3    H229273   3.161   2.454   2.622  2.2630 -0.5102  3.2347
 2572TIP3   OH229274   6.720   2.599   2.240  0.2361  0.7284  0.2890
 2572TIP3    H129275   6.713   2.580   2.334 -1.6390 -1.5343 -0.2041
 2572TIP3    H229276   6.757   2.687   2.236 -2.5470  2.2587  3.2791
 2573TIP3   OH229277   0.573   5.104   3.008 -0.0022  0.1556 -0.2452
 2573TIP3    H129278   0.478   5.097   3.015  0.1361 -2.1309  0.3083
 2573TIP3    H229279   0.602   5.130   3.096 -0.1029  0.8932 -0.4248
 2574TIP3   OH229280   2.122   4.629   0.893 -0.5128 -0.2452  0.3191
 2574TIP3    H129281   2.115   4.540   0.929 -0.0880 -1.1389 -1.6837
 2574TIP3    H229282   2.033   4.650   0.865 -0.4426 -0.4350 -0.0570
 2575TIP3   OH229283   4.844   3.593   3.732 -0.0973 -0.1788 -0.2781
 2575TIP3    H129284   4.763   3.560   3.694 -0.5596  1.6419 -0.9499
 2575TIP3    H229285   4.910   3.526   3.711 -1.4452 -1.8763  0.6208
 2576TIP3   OH229286   2.464   4.281   0.733 -0.4777  0.3051 -0.3126
 2576TIP3    H129287   2.510   4.217   0.788 -2.2951 -0.1722  0.7230
 2576TIP3    H229288   2.533   4.319   0.678  0.6595 -2.7494 -1.2245
 2577TIP3   OH229289   5.123   3.730   7.208  0.2411 -0.0076  0.0064
 2577TIP3    H129290   5.085   3.790   7.144  0.3022  0.7983  0.7028
 2577TIP3    H229291   5.153   3.655   7.156 -0.8047  0.0749 -0.7493
 2578TIP3   OH229292   6.347   0.109   2.114 -0.2725 -0.3456  0.4409
 2578TIP3    H129293   6.373   0.107   2.022 -0.3115 -0.7010  0.4371
 2578TIP3    H229294   6.411   0.054   2.158 -1.3296 -1.7242  0.3473
 2579TIP3   OH229295   6.041   2.410   3.115 -0.1707 -0.0799 -0.2902
 2579TIP3    H129296   6.090   2.328   3.111  2.4900  1.3931 -1.1106
 2579TIP3    H229297   6.083   2.460   3.185 -1.0492  0.9515 -0.4657
 2580TIP3   OH229298   0.777   5.230   0.041  0.3845 -0.3671 -0.8428
 2580TIP3    H129299   0.857   5.206  -0.006  0.4757  0.7431 -1.2602
 2580TIP3    H229300   0.740   5.303  -0.008 -0.2737 -0.1092  0.0093
 2581TIP3   OH229301   0.176   2.209   8.246 -0.3209 -0.1610 -0.2186
 2581TIP3    H129302   0.206   2.120   8.227  0.8508  0.7942 -3.6732
 2581TIP3    H229303   0.155   2.246   8.160  0.3405  3.2626  0.9307
 2582TIP3   OH229304   1.901   1.410   0.110 -0.2401  0.0288  0.5126
 2582TIP3    H129305   1.853   1.415   0.028 -0.0604  2.5006  0.4898
 2582TIP3    H229306   1.940   1.497   0.121 -0.9810  0.0802  3.6213
 2583TIP3   OH229307   6.909   2.446   0.654  0.0755 -0.9616  0.1205
 2583TIP3    H129308   6.915   2.488   0.569  1.6748 -1.4338 -0.0388
 2583TIP3    H229309   6.854   2.504   0.707  1.5161  0.9023 -0.3422
 2584TIP3   OH229310   1.123   5.680   1.031  0.6144  0.5221 -0.2900
 2584TIP3    H129311   1.055   5.648   0.972  1.6996 -0.5970 -0.9697
 2584TIP3    H229312   1.192   5.712   0.973  0.9842  0.9670  0.3872
 2585TIP3   OH229313   6.733   1.407   7.623 -0.4696  0.7413 -0.7781
 2585TIP3    H129314   6.780   1.408   7.539 -1.2398  1.2058 -1.2132
 2585TIP3    H229315   6.641   1.411   7.599 -0.6758  2.1103  0.1187
 2586TIP3   OH229316   0.962   3.919   0.801 -0.0671  0.9358 -0.5030
 2586TIP3    H129317   1.039   3.866   0.821  0.4409  1.7976 -0.1197
 2586TIP3    H229318   0.895   3.855   0.776  0.4460  0.1022  0.1936
 2587TIP3   OH229319   3.101   3.693   0.469 -0.0529 -0.1903  0.1730
 2587TIP3    H129320   3.156   3.712   0.394 -0.4421  2.2923  0.4549
 2587TIP3    H229321   3.028   3.642   0.433  1.7795 -2.6175 -0.3705
 2588TIP3   OH229322   2.022   4.765   1.965 -0.5199 -0.0167 -0.5027
 2588TIP3    H129323   2.045   4.854   1.939  1.2687  0.4258  2.1905
 2588TIP3    H229324   1.931   4.754   1.938 -1.3224  3.2375  0.4736
 2589TIP3   OH229325   3.716   2.022   2.282  0.1266  0.5786  0.3839
 2589TIP3    H129326   3.687   1.966   2.210  1.4529  1.1135 -0.6020
 2589TIP3    H229327   3.811   2.023   2.274  0.2518  1.1607  1.7717
 2590TIP3   OH229328   4.561   5.891   0.602  0.2068  0.0782 -0.1150
 2590TIP3    H129329   4.546   5.971   0.653  1.4260 -1.7085  3.3516
 2590TIP3    H229330   4.473   5.866   0.572 -0.3403  2.0873 -0.3874
 2591TIP3   OH229331   1.827   2.919   3.396 -0.4806 -0.3236 -0.0885
 2591TIP3    H129332   1.873   3.003   3.408  0.6096 -0.7103 -1.3884
 2591TIP3    H229333   1.892   2.861   3.356 -1.4519 -1.5778  0.0818
 2592TIP3   OH229334   6.750   1.204   8.116  0.1828  0.9305 -0.1996
 2592TIP3    H129335   6.782   1.256   8.190 -2.5429  1.4928  0.7038
 2592TIP3    H229336   6.743   1.267   8.044 -1.0329  1.3625  0.2713
 2593TIP3   OH229337   5.892   4.248   3.076 -0.4157 -0.6345  0.3148
 2593TIP3    H129338   5.858   4.334   3.102 -1.8463 -0.7080 -1.1997
 2593TIP3    H229339   5.962   4.230   3.139 -0.4793  1.3723  1.0148
 2594TIP3   OH229340   6.833   4.992   1.250 -0.2003 -0.2936 -0.2857
 2594TIP3    H129341   6.841   4.898   1.234  0.5893 -0.3784  0.5441
 2594TIP3    H229342   6.898   5.011   1.318 -0.0515  0.9322 -0.7365
 2595TIP3   OH229343   0.975   4.423   0.138  0.2125  0.0944  0.8394
 2595TIP3    H129344   0.955   4.331   0.122 -0.2957  0.4954 -1.2130
 2595TIP3    H229345   0.891   4.461   0.164  0.2100  0.1286  0.7826
 2596TIP3   OH229346   2.922   6.276   0.834 -0.3564  0.0564 -0.2874
 2596TIP3    H129347   2.955   6.274   0.924 -0.3236 -1.1738 -0.3077
 2596TIP3    H229348   2.993   6.314   0.783  0.2100 -0.6058 -0.0097
 2597TIP3   OH229349   4.636   0.865   0.036 -0.2098  0.1681 -0.4649
 2597TIP3    H129350   4.547   0.900   0.027 -0.0584  0.2989 -1.6281
 2597TIP3    H229351   4.692   0.942   0.041  0.0506  0.1377 -2.2522
 2598TIP3   OH229352   5.097   1.692   7.863  0.0598  0.1387  0.1332
 2598TIP3    H129353   5.142   1.775   7.849  3.0677 -1.3945 -0.1210
 2598TIP3    H229354   5.066   1.666   7.776  1.4768 -0.1950 -0.3056
 2599TIP3   OH229355   6.497   5.928   0.001  0.1318 -0.5183  0.3243
 2599TIP3    H129356   6.562   5.964   0.061  1.1148 -0.5805 -0.6605
 2599TIP3    H229357   6.438   5.876   0.056  0.1039  0.6543  1.4190
 2600TIP3   OH229358   4.940   4.389   7.940 -0.0629 -0.4744  0.1082
 2600TIP3    H129359   4.921   4.296   7.936 -0.1645 -0.4260 -0.6817
 2600TIP3    H229360   4.874   4.430   7.884  0.1165  0.0455  0.2697
 2601TIP3   OH229361   3.556   4.208   1.798 -0.1360  0.0171 -0.1967
 2601TIP3    H129362   3.554   4.290   1.847 -1.7225 -0.6485  0.9251
 2601TIP3    H229363   3.477   4.162   1.825  0.0408 -1.3169 -1.8129
 2602TIP3   OH229364   2.819   2.486   0.343 -0.4699 -0.6141  0.2501
 2602TIP3    H129365   2.812   2.407   0.290  0.6916 -0.3146 -0.3789
 2602TIP3    H229366   2.805   2.456   0.433  0.9472 -1.7057  0.1302
 2603TIP3   OH229367   0.458   1.426   3.158  0.1263 -0.3776  0.3131
 2603TIP3    H129368   0.495   1.490   3.097 -0.1798  0.7515  1.2917
 2603TIP3    H229369   0.531   1.367   3.177  0.5505 -0.0335 -0.1976
 2604TIP3   OH229370   6.073   4.844   7.626 -0.3848 -0.0357  0.0835
 2604TIP3    H129371   5.988   4.867   7.588 -0.6499  0.4147  0.9298
 2604TIP3    H229372   6.103   4.924   7.668  0.3755 -0.2520 -0.0470
 2605TIP3   OH229373   1.301   2.410   0.638 -1.0891  0.4170 -0.7229
 2605TIP3    H129374   1.316   2.324   0.597 -1.0041 -0.1397  0.4256
 2605TIP3    H229375   1.368   2.466   0.600 -0.8831 -0.1293 -1.1948
 2606TIP3   OH229376   1.123   6.634   7.542 -0.8089 -0.4462 -0.1923
 2606TIP3    H129377   1.176   6.712   7.526  0.0415 -1.2673 -1.6633
 2606TIP3    H229378   1.033   6.662   7.531 -0.7481  0.9467  2.1617
 2607TIP3   OH229379   2.460   6.677   7.157  0.3554 -0.0765 -0.2604
 2607TIP3    H129380   2.527   6.627   7.111 -0.2426 -0.2877 -0.9417
 2607TIP3    H229381   2.501   6.762   7.176  0.6993 -0.0673 -1.0035
 2608TIP3   OH229382   3.735   1.239   7.990  0.1674  0.0762  0.1819
 2608TIP3    H129383   3.659   1.227   8.047 -1.3172 -0.2860 -1.7536
 2608TIP3    H229384   3.802   1.277   8.047 -0.5283 -2.0527  2.5986
 2609TIP3   OH229385   4.293   5.585   1.314  0.0324  0.2746 -0.0229
 2609TIP3    H129386   4.223   5.646   1.290 -0.0972 -0.0926 -0.6164
 2609TIP3    H229387   4.356   5.593   1.243 -0.0082 -0.3097 -0.1263
 2610TIP3   OH229388   0.986   2.529   3.524  0.0310  0.0947 -0.4261
 2610TIP3    H129389   0.905   2.478   3.528 -0.2081  0.5638  1.1711
 2610TIP3    H229390   0.971   2.602   3.583  1.3818  0.5544 -0.6286
 2611TIP3   OH229391   3.449   2.237   0.231 -0.1216 -0.6234  0.0663
 2611TIP3    H129392   3.378   2.300   0.240 -0.4709 -1.0165  0.1001
 2611TIP3    H229393   3.409   2.163   0.185  0.4303 -0.5864 -0.4734
 2612TIP3   OH229394   1.583   6.049   7.391 -0.1160 -0.6662 -0.2579
 2612TIP3    H129395   1.632   6.128   7.417 -1.6599  0.1423  0.3075
 2612TIP3    H229396   1.578   5.997   7.471 -0.3431 -0.6667 -0.2740
 2613TIP3   OH229397   1.307   4.683   0.798  0.1535  0.2872 -0.2501
 2613TIP3    H129398   1.285   4.730   0.717 -0.2547  0.3615 -0.0956
 2613TIP3    H229399   1.223   4.668   0.841  0.3084 -0.3020 -0.1408
 2614TIP3   OH229400   5.790   1.752   0.486 -0.2341  0.4278  0.1284
 2614TIP3    H129401   5.825   1.775   0.400  1.0731  0.2756  0.5980
 2614TIP3    H229402   5.853   1.690   0.522 -0.9764  0.1792  1.0360
 2615TIP3   OH229403   3.490   3.678   1.310  0.7210  0.1914  0.2743
 2615TIP3    H129404   3.568   3.718   1.271  0.4348  0.7793  0.2993
 2615TIP3    H229405   3.488   3.712   1.399 -0.0925  0.9495 -0.0169
 2616TIP3   OH229406   5.690   1.760   7.731  0.4302  0.2126  0.7101
 2616TIP3    H129407   5.694   1.685   7.672 -1.7248 -1.1841  2.2296
 2616TIP3    H229408   5.777   1.801   7.723  1.0537 -1.3408 -1.4965
 2617TIP3   OH229409   4.588   0.946   1.338  0.6780  0.2579 -0.3482
 2617TIP3    H129410   4.533   0.986   1.271  0.3970  0.1115 -0.2044
 2617TIP3    H229411   4.675   0.985   1.324  0.8089 -0.3535 -1.2987
 2618TIP3   OH229412   5.066   0.858   0.855 -0.3826 -0.7496 -0.1120
 2618TIP3    H129413   5.155   0.841   0.887  0.0969 -0.0931 -1.0688
 2618TIP3    H229414   5.072   0.940   0.807 -1.6523 -0.3547  0.3382
 2619TIP3   OH229415   4.912   3.410   3.321  0.2215 -0.0154  0.5508
 2619TIP3    H129416   4.916   3.358   3.401 -0.0259  0.4707  0.8875
 2619TIP3    H229417   4.883   3.497   3.350 -0.6628 -0.0500 -0.1654
 2620TIP3   OH229418   3.660   4.224   1.045  0.2664 -0.4501 -0.6774
 2620TIP3    H129419   3.745   4.192   1.015  0.9603  0.5017  0.2006
 2620TIP3    H229420   3.662   4.212   1.140 -2.0551 -3.8182 -0.8941
 2621TIP3   OH229421   1.920   2.195   0.851 -0.3247 -0.9084 -0.0158
 2621TIP3    H129422   1.917   2.290   0.844 -2.3907 -0.7617  1.9942
 2621TIP3    H229423   1.969   2.167   0.773  1.2153  1.8090 -0.1376
 2622TIP3   OH229424   6.375   5.195   8.128  0.0170 -0.3590 -0.4370
 2622TIP3    H129425   6.335   5.227   8.046  1.2992  1.5344 -0.3948
 2622TIP3    H229426   6.384   5.273   8.182  2.6677 -0.8743  0.0023
 2623TIP3   OH229427   0.047   3.586   3.422  0.5383 -0.8534  0.0680
 2623TIP3    H129428   0.075   3.607   3.333 -0.8891  1.9365  0.1571
 2623TIP3    H229429  -0.016   3.515   3.412  1.3887 -1.4802 -0.9863
 2624TIP3   OH229430   1.753   6.763   0.967 -0.3674 -0.3718  0.0959
 2624TIP3    H129431   1.659   6.769   0.951 -0.1602 -1.5033 -1.8450
 2624TIP3    H229432   1.787   6.713   0.892  1.4936 -1.7401  1.7549
 2625TIP3   OH229433   3.959   3.191   0.491  0.6304 -0.4082 -0.5860
 2625TIP3    H129434   4.013   3.225   0.562  1.2100 -1.0901 -0.6940
 2625TIP3    H229435   3.889   3.256   0.482  0.9343  0.0407  0.1376
 2626TIP3   OH229436   1.727   1.229   3.381 -0.1247 -0.4422 -0.3952
 2626TIP3    H129437   1.703   1.318   3.407  0.9203  0.1022 -1.2219
 2626TIP3    H229438   1.788   1.240   3.309 -0.8078 -1.8691 -1.2405
 2627TIP3   OH229439   0.573   5.419   1.740 -0.0037 -0.0887 -0.7385
 2627TIP3    H129440   0.611   5.394   1.824 -0.1306  0.3341 -0.5504
 2627TIP3    H229441   0.483   5.388   1.744  0.2214 -0.8077 -1.0571
 2628TIP3   OH229442   6.639   7.028   0.579 -0.5108  0.1197 -0.3699
 2628TIP3    H129443   6.610   6.960   0.519  0.8550  0.7114 -1.7794
 2628TIP3    H229444   6.640   7.108   0.526  1.7973  0.4620  0.0654
 2629TIP3   OH229445   1.322   2.760   1.068  0.5304  0.3715  0.0607
 2629TIP3    H129446   1.240   2.807   1.083 -0.2127 -1.2549  1.4737
 2629TIP3    H229447   1.315   2.728   0.979 -1.4487 -1.5777  0.8119
 2630TIP3   OH229448   0.548   3.743   2.487 -0.2273  0.9670 -0.5066
 2630TIP3    H129449   0.481   3.691   2.531  0.7179  0.2900  0.1909
 2630TIP3    H229450   0.500   3.814   2.445 -1.5596 -0.3825 -1.3935
 2631TIP3   OH229451   6.620   5.602   1.396 -0.2352  0.2454 -0.0047
 2631TIP3    H129452   6.529   5.574   1.394  0.0714 -1.0806  1.6422
 2631TIP3    H229453   6.618   5.695   1.374 -1.8362 -0.0361 -1.1526
 2632TIP3   OH229454   2.051   1.750   0.486 -0.6020 -0.2717  0.2817
 2632TIP3    H129455   1.970   1.759   0.436 -0.5421 -0.5206  0.1330
 2632TIP3    H229456   2.104   1.689   0.434 -0.3596 -0.1861  0.4260
 2633TIP3   OH229457   5.231   0.198   2.512 -0.3258  0.3320 -0.2772
 2633TIP3    H129458   5.318   0.217   2.546 -0.8182  0.0534  1.2384
 2633TIP3    H229459   5.194   0.284   2.493  0.3593  0.4370 -1.1698
 2634TIP3   OH229460   4.457   1.459   2.632  0.4631 -0.4923 -0.2944
 2634TIP3    H129461   4.491   1.415   2.709  2.7249 -0.8368 -1.4062
 2634TIP3    H229462   4.421   1.388   2.578  0.1420 -0.4216 -0.1759
 2635TIP3   OH229463   5.775   0.305   1.824  0.5490  0.3916  0.0183
 2635TIP3    H129464   5.748   0.220   1.859 -0.8555  0.6037 -0.5250
 2635TIP3    H229465   5.716   0.369   1.865 -0.1819  0.7957 -1.5971
 2636TIP3   OH229466   3.369   2.102   2.254  0.4606 -0.0783 -0.3297
 2636TIP3    H129467   3.274   2.100   2.252  0.4172  0.4227  0.6997
 2636TIP3    H229468   3.394   2.144   2.172 -0.2240  0.2411 -0.3825
 2637TIP3   OH229469   5.952   5.541   2.189 -0.6475 -0.0610 -0.3042
 2637TIP3    H129470   6.029   5.570   2.141 -0.3630  0.8287  0.6468
 2637TIP3    H229471   5.878   5.567   2.134 -0.3068  0.2011 -0.6454
 2638TIP3   OH229472   2.854   6.820   1.369  0.0815 -0.6713 -0.2206
 2638TIP3    H129473   2.872   6.908   1.403  1.0503 -0.1765 -1.8493
 2638TIP3    H229474   2.762   6.822   1.343 -0.8016 -1.1817  2.4969
 2639TIP3   OH229475   2.747   0.215   3.281 -0.2715  0.1121 -0.2601
 2639TIP3    H129476   2.659   0.199   3.246 -0.5512  0.6808  0.1737
 2639TIP3    H229477   2.733   0.269   3.358  0.4531  0.0772 -0.0964
 2640TIP3   OH229478   1.805   6.746   8.162  0.0785  0.3828 -0.4784
 2640TIP3    H129479   1.747   6.710   8.229 -0.6274 -0.1880 -1.3821
 2640TIP3    H229480   1.768   6.718   8.079  1.3889  0.4004 -1.1040
 2641TIP3   OH229481   0.833   0.020   0.507 -0.2737  0.0196 -0.7554
 2641TIP3    H129482   0.890  -0.024   0.571 -0.1306  0.5004 -0.5465
 2641TIP3    H229483   0.865  -0.012   0.422  1.7796  1.8977 -0.7909
 2642TIP3   OH229484   3.939   6.525   8.097 -0.1778 -0.4115  0.1589
 2642TIP3    H129485   3.990   6.601   8.123 -1.0717  0.3814 -0.3633
 2642TIP3    H229486   3.848   6.549   8.116 -0.4432 -1.4668  0.2861
 2643TIP3   OH229487   4.350   1.400   0.018  0.1025 -0.5562 -0.3944
 2643TIP3    H129488   4.369   1.306   0.022  0.2592 -0.5115 -0.0553
 2643TIP3    H229489   4.403   1.438   0.087  0.2902 -0.1702 -0.7493
 2644TIP3   OH229490   0.979   1.977   7.672  0.1916 -0.0136 -0.2455
 2644TIP3    H129491   1.005   2.056   7.719 -1.3001 -0.3035  1.1735
 2644TIP3    H229492   0.950   2.008   7.586  0.1968  0.9062  0.0741
 2645TIP3   OH229493   6.594   5.300   7.884  0.5242 -0.8458  0.0230
 2645TIP3    H129494   6.519   5.268   7.833  0.3364 -0.5880  0.1303
 2645TIP3    H229495   6.584   5.395   7.882  0.9166 -0.8085 -0.0549
 2646TIP3   OH229496   2.080   3.782   1.117  0.1491 -0.4174  0.5959
 2646TIP3    H129497   2.095   3.772   1.023 -0.5768 -0.7169  0.5027
 2646TIP3    H229498   2.168   3.789   1.155  0.4447 -0.2630 -0.1057
 2647TIP3   OH229499   5.248   2.515   1.429  0.1693 -0.4069  0.3427
 2647TIP3    H129500   5.343   2.506   1.439 -0.0035 -3.6955  0.1872
 2647TIP3    H229501   5.216   2.425   1.431 -2.8599  0.5531 -0.7447
 2648TIP3   OH229502   3.273   5.341   1.399 -0.1172  0.3114 -0.0812
 2648TIP3    H129503   3.233   5.305   1.320 -0.9411 -0.2158  0.5539
 2648TIP3    H229504   3.207   5.327   1.467 -0.0077  2.0145  0.4178
 2649TIP3   OH229505   3.774   1.111   2.790 -0.2996  0.4507 -0.1912
 2649TIP3    H129506   3.806   1.121   2.700  3.1721  0.5145  0.9072
 2649TIP3    H229507   3.730   1.194   2.809  0.6055  1.2032 -1.2354
 2650TIP3   OH229508   3.897   4.791   1.414 -0.4592 -0.2172 -0.2490
 2650TIP3    H129509   3.875   4.780   1.507  1.1582 -2.9279 -0.0614
 2650TIP3    H229510   3.845   4.724   1.370  1.6799 -1.6916 -0.7007
 2651TIP3   OH229511   3.087   6.106   2.919 -0.2303  0.6275 -0.0065
 2651TIP3    H129512   3.099   6.011   2.911  0.2642  0.7471 -0.8785
 2651TIP3    H229513   3.021   6.117   2.988  1.9712 -0.2428  2.4259
 2652TIP3   OH229514   6.472   3.820   0.282 -0.1277  0.1830  0.0230
 2652TIP3    H129515   6.377   3.833   0.275 -0.4884 -1.4537  1.0315
 2652TIP3    H229516   6.510   3.906   0.266 -1.7966  0.9112 -0.2518
 2653TIP3   OH229517   4.587   6.024   7.718  0.4405 -0.1937 -0.5190
 2653TIP3    H129518   4.610   5.956   7.655  0.6735  1.7988 -2.7016
 2653TIP3    H229519   4.549   6.094   7.666 -0.2740  1.1811  1.6970
 2654TIP3   OH229520   2.293   6.035   7.817 -0.3183 -0.0764 -0.2731
 2654TIP3    H129521   2.379   5.992   7.813  0.8552  2.0853  0.5138
 2654TIP3    H229522   2.253   6.015   7.732  1.6274  0.1591 -1.3168
 2655TIP3   OH229523   4.868   3.258   8.043 -0.1464 -0.0860 -0.4701
 2655TIP3    H129524   4.922   3.209   8.106  0.1069 -1.0485 -1.4119
 2655TIP3    H229525   4.906   3.238   7.958 -2.0556 -0.8680 -1.1777
 2656TIP3   OH229526   5.435   1.691   1.180  0.1118 -0.1205  0.0249
 2656TIP3    H129527   5.395   1.713   1.264  1.0368 -2.1183  1.0538
 2656TIP3    H229528   5.529   1.690   1.197  0.2552 -1.8456 -0.6591
 2657TIP3   OH229529   6.115   0.300   3.243 -0.3280  0.6422  0.4037
 2657TIP3    H129530   6.176   0.227   3.249  0.9706  1.6201 -0.4731
 2657TIP3    H229531   6.163   0.369   3.196 -2.8250  0.6460 -2.5162
 2658TIP3   OH229532   6.904   4.494   0.692 -0.5434  0.3505  0.1363
 2658TIP3    H129533   6.880   4.538   0.773 -1.8487  0.9698 -0.5689
 2658TIP3    H229534   6.834   4.430   0.677 -0.0075 -0.1702 -0.1994
 2659TIP3   OH229535   0.085   4.323   1.434  0.8210 -0.2200  0.0503
 2659TIP3    H129536   0.096   4.235   1.469 -0.9826 -0.6871 -0.4660
 2659TIP3    H229537  -0.008   4.331   1.416  0.9720  1.7180 -0.1486
 2660TIP3   OH229538   4.109   3.510   6.945  0.1238 -0.0324  0.3387
 2660TIP3    H129539   4.031   3.541   6.992 -0.0552 -0.5004  0.3547
 2660TIP3    H229540   4.122   3.421   6.977  0.4844 -0.0666  0.1017
 2661TIP3   OH229541   5.999   5.044   7.190 -0.2626 -0.4732  0.0091
 2661TIP3    H129542   5.941   5.117   7.167  1.3601  0.2380 -2.2546
 2661TIP3    H229543   5.948   4.966   7.170 -1.1530  0.0886  0.0149
 2662TIP3   OH229544   4.102   4.870   3.343 -0.1156  0.4076 -0.0612
 2662TIP3    H129545   4.069   4.959   3.332 -1.0056 -0.0307 -1.0863
 2662TIP3    H229546   4.088   4.828   3.258 -1.3006 -1.2261  0.8841
 2663TIP3   OH229547   1.906   6.990   0.935  0.4125  0.0086 -0.1969
 2663TIP3    H129548   1.868   6.903   0.927  0.6284 -0.1989  0.9023
 2663TIP3    H229549   1.874   7.022   1.020 -0.1425  1.2304 -0.8405
 2664TIP3   OH229550   1.616   5.280   2.555  0.2525 -0.7244  0.0388
 2664TIP3    H129551   1.627   5.315   2.643 -1.4071 -0.2727  0.0924
 2664TIP3    H229552   1.588   5.354   2.502 -3.7536 -1.8403  0.2422
 2665TIP3   OH229553   2.742   2.197   0.814  0.1407 -0.8065  0.0481
 2665TIP3    H129554   2.802   2.127   0.839 -0.4592 -1.1664  0.5017
 2665TIP3    H229555   2.728   2.246   0.895  0.6697 -0.0646 -0.2948
 2666TIP3   OH229556   5.558   2.871   0.223  0.1458  0.4775 -0.2528
 2666TIP3    H129557   5.503   2.943   0.255 -1.8319 -0.4945 -1.2334
 2666TIP3    H229558   5.648   2.902   0.234 -0.3060  0.7544  4.8796
 2667TIP3   OH229559   3.761   6.786   8.023 -0.3431 -0.7786 -1.0187
 2667TIP3    H129560   3.724   6.762   7.938 -1.9261  1.2139 -0.9492
 2667TIP3    H229561   3.754   6.881   8.027  1.0491 -0.6914  0.7702
 2668TIP3   OH229562   2.612   6.354   7.849  0.0329 -0.2826 -0.0947
 2668TIP3    H129563   2.700   6.383   7.825 -0.3199 -0.0495 -1.1729
 2668TIP3    H229564   2.570   6.333   7.765 -0.4664 -1.7875  0.5001
 2669TIP3   OH229565   5.653   4.213   0.132  0.1952 -1.2197 -0.3183
 2669TIP3    H129566   5.642   4.144   0.197 -2.0088 -1.7657 -1.1631
 2669TIP3    H229567   5.711   4.175   0.066  0.1471 -1.7419 -0.0635
 2670TIP3   OH229568   1.060   1.414   0.978 -0.2400  0.3336  0.1861
 2670TIP3    H129569   0.991   1.364   0.934  0.0398 -0.0677  0.2012
 2670TIP3    H229570   1.139   1.362   0.966  0.2239  1.1660 -0.5013
 2671TIP3   OH229571   5.414   4.222   2.840  0.3720  0.1641 -0.3839
 2671TIP3    H129572   5.357   4.201   2.914 -1.5068 -0.6890 -1.9780
 2671TIP3    H229573   5.472   4.147   2.832  2.3441  1.3342  1.6788
 2672TIP3   OH229574   1.274   2.846   2.191 -0.1507  0.4200  0.3860
 2672TIP3    H129575   1.212   2.827   2.120  0.1064  1.3914 -0.1136
 2672TIP3    H229576   1.360   2.836   2.151  0.0273  3.2852 -0.1597
 2673TIP3   OH229577   3.182   1.568   8.205  0.4143  0.1248  0.1969
 2673TIP3    H129578   3.087   1.564   8.213  0.5143 -0.9839  1.0095
 2673TIP3    H229579   3.207   1.483   8.168  1.1450  0.1607  0.5751
 2674TIP3   OH229580   5.708   5.969   2.145 -0.4587 -0.0319 -0.3991
 2674TIP3    H129581   5.691   5.875   2.144 -0.6568 -0.0191 -2.2968
 2674TIP3    H229582   5.803   5.977   2.140 -0.3621 -0.1080  0.9952
 2675TIP3   OH229583   0.636   1.691   1.106  0.1623  0.4005  0.2529
 2675TIP3    H129584   0.566   1.725   1.162  1.5663  1.0385  1.6878
 2675TIP3    H229585   0.625   1.596   1.108 -0.7078  0.4947  0.3629
 2676TIP3   OH229586   0.052   1.392   2.061  0.5696 -0.3393 -0.0849
 2676TIP3    H129587   0.038   1.298   2.053  1.4133 -0.5575  0.7632
 2676TIP3    H229588  -0.020   1.431   2.012  0.5937 -1.4226 -1.0287
 2677TIP3   OH229589   3.558   2.804   2.479  0.5647  0.2074 -0.8245
 2677TIP3    H129590   3.468   2.771   2.479  0.6570 -0.4939  2.7311
 2677TIP3    H229591   3.609   2.735   2.437 -0.3280 -0.3362 -1.0533
 2678TIP3   OH229592   1.940   1.886   2.316  0.2455  0.8100  0.0820
 2678TIP3    H129593   1.937   1.795   2.346 -0.0733  0.3604 -1.2484
 2678TIP3    H229594   1.989   1.932   2.385 -0.5350 -0.1385  1.3131
 2679TIP3   OH229595   6.961   6.135   7.968  0.1943 -0.4473  0.2460
 2679TIP3    H129596   6.924   6.189   7.898  1.3563 -0.7121 -0.6121
 2679TIP3    H229597   6.885   6.091   8.006 -0.4098 -0.9185 -1.3929
 2680TIP3   OH229598   4.510   4.086   1.575 -0.2738  0.0694  0.2776
 2680TIP3    H129599   4.580   4.028   1.548  0.1004 -0.1912  1.7061
 2680TIP3    H229600   4.474   4.122   1.494  0.8177 -0.6034 -0.5116
 2681TIP3   OH229601   6.831   5.811   8.172  0.2638 -0.5098 -0.5807
 2681TIP3    H129602   6.892   5.876   8.207 -0.0058 -0.1996 -0.6822
 2681TIP3    H229603   6.767   5.863   8.122  0.1185 -0.8634 -0.7622
 2682TIP3   OH229604   3.012   2.680   2.465  0.1244  0.0178 -0.6744
 2682TIP3    H129605   2.981   2.742   2.532 -0.3466 -0.0280 -0.8428
 2682TIP3    H229606   3.085   2.635   2.506 -0.3382 -0.2057 -0.0804
 2683TIP3   OH229607   1.727   4.023   1.294  0.0475 -0.3887  0.4677
 2683TIP3    H129608   1.676   4.097   1.261  2.2034  0.9364 -0.1039
 2683TIP3    H229609   1.662   3.960   1.325 -1.9430  0.5152 -1.6388
 2684TIP3   OH229610   2.151   4.363   1.001  0.1258 -0.2097  1.0878
 2684TIP3    H129611   2.213   4.298   1.036 -0.0766 -0.7855  0.4099
 2684TIP3    H229612   2.067   4.317   1.000 -0.2529  0.4547  1.6796
 2685TIP3   OH229613   5.049   2.551   1.821 -0.0841  0.0553 -0.2043
 2685TIP3    H129614   5.000   2.550   1.904  1.4475 -2.5367  0.7890
 2685TIP3    H229615   5.091   2.465   1.817  0.5631  0.4000 -3.3253
 2686TIP3   OH229616   6.609   4.922   7.534 -0.7445  0.1179  0.4490
 2686TIP3    H129617   6.560   4.844   7.510 -0.0000  0.4003 -2.2345
 2686TIP3    H229618   6.573   4.991   7.479  0.6802  0.9895  0.5687
 2687TIP3   OH229619   3.022   5.124   0.532  0.2055  0.3016 -0.3992
 2687TIP3    H129620   2.949   5.142   0.473  0.0020 -0.0502 -0.2538
 2687TIP3    H229621   3.098   5.160   0.486 -0.3575  2.8899  0.5257
 2688TIP3   OH229622   3.080   3.012   1.910 -0.3563 -0.6001 -0.3211
 2688TIP3    H129623   3.005   2.963   1.879 -0.1458 -0.8877 -0.3831
 2688TIP3    H229624   3.111   2.963   1.986 -1.6256  0.7697  1.1550
 2689TIP3   OH229625   5.494   5.464   8.257  0.1265 -0.1406 -0.1630
 2689TIP3    H129626   5.465   5.375   8.276  0.1063  0.0447  0.7103
 2689TIP3    H229627   5.419   5.505   8.215 -0.3757 -0.1096  0.7363
 2690TIP3   OH229628   6.032   2.462   0.995  0.2436 -0.2301  0.0901
 2690TIP3    H129629   5.967   2.491   0.931 -0.3260  0.3199  0.8938
 2690TIP3    H229630   5.981   2.441   1.073  0.7644 -2.3405 -0.0825
 2691TIP3   OH229631   2.192   3.082   0.475 -0.4671  0.6365 -0.3572
 2691TIP3    H129632   2.226   3.168   0.500  0.0911  0.4480 -0.4632
 2691TIP3    H229633   2.173   3.090   0.381  1.6634 -0.0155 -0.8768
 2692TIP3   OH229634   1.209   3.013   0.783 -0.5623  0.2482 -0.0539
 2692TIP3    H129635   1.304   3.002   0.788 -0.6068  0.1590  0.7697
 2692TIP3    H229636   1.182   2.957   0.710 -0.2389 -1.5709  1.1439
 2693TIP3   OH229637   4.967   2.340   0.764  0.1367  0.7562  0.0804
 2693TIP3    H129638   4.976   2.400   0.838  0.1531  0.2949  0.4590
 2693TIP3    H229639   4.982   2.253   0.802 -0.7495  0.4312 -0.2895
 2694TIP3   OH229640   5.709   1.036   0.519  0.2907 -0.4535 -0.1002
 2694TIP3    H129641   5.729   1.085   0.599  2.5708  0.0740 -0.9156
 2694TIP3    H229642   5.766   1.075   0.453  0.2243 -2.4753 -1.4184
 2695TIP3   OH229643   0.215   4.247   0.543  0.0670  0.7353  0.3954
 2695TIP3    H129644   0.235   4.234   0.450 -0.5873 -1.2384  0.4812
 2695TIP3    H229645   0.120   4.240   0.548  0.1114  0.6098  1.2387
 2696TIP3   OH229646   3.203   2.163   8.167  0.4014 -0.6938  0.1084
 2696TIP3    H129647   3.211   2.073   8.135 -0.2064 -0.3530 -1.0748
 2696TIP3    H229648   3.144   2.158   8.241 -3.0741 -0.8120 -2.4225
 2697TIP3   OH229649   4.970   4.075   8.127  0.4405  0.3487  0.5277
 2697TIP3    H129650   5.021   4.156   8.120  1.5380 -0.1803  1.9599
 2697TIP3    H229651   4.973   4.037   8.039  0.6717  1.4054  0.0647
 2698TIP3   OH229652   5.656   5.805   2.789  0.1334  0.0174  0.4925
 2698TIP3    H129653   5.656   5.900   2.778  0.0596 -0.0164  0.1944
 2698TIP3    H229654   5.748   5.780   2.782 -0.0184 -0.1462 -1.3429
 2699TIP3   OH229655   4.819   6.451   2.792 -0.6581  0.4530  0.6118
 2699TIP3    H129656   4.789   6.419   2.877 -0.8468  1.9886  1.1486
 2699TIP3    H229657   4.885   6.517   2.813  0.5127 -0.3161 -0.4775
 2700TIP3   OH229658   5.482   6.320   8.072  0.0916  0.2561  0.7242
 2700TIP3    H129659   5.457   6.295   7.983 -1.5275 -0.1654  1.2695
 2700TIP3    H229660   5.503   6.413   8.065 -2.3021  0.8414  0.2863
 2701TIP3   OH229661   0.766   3.589   0.456  0.0488 -0.3979  0.2615
 2701TIP3    H129662   0.857   3.617   0.460 -0.1903  0.3253  1.1575
 2701TIP3    H229663   0.769   3.499   0.423  1.1337 -0.5965  0.8755
 2702TIP3   OH229664   3.977   2.098   3.024  0.2683  0.3842  0.1923
 2702TIP3    H129665   4.040   2.070   3.091  0.0912 -1.1666 -0.2558
 2702TIP3    H229666   4.004   2.053   2.945 -1.1045  0.0805 -0.1338
 2703TIP3   OH229667   2.269   4.452   2.260 -0.2476  0.1497 -0.5043
 2703TIP3    H129668   2.280   4.547   2.267 -1.8020  0.3472 -0.3236
 2703TIP3    H229669   2.221   4.428   2.340  0.1453 -0.7942 -0.5458
 2704TIP3   OH229670   3.496   2.176   8.055 -0.0284 -0.4440 -0.6321
 2704TIP3    H129671   3.518   2.135   8.138 -0.1242 -1.4449 -1.0842
 2704TIP3    H229672   3.400   2.169   8.049 -0.2981  1.6608  0.1881
 2705TIP3   OH229673   3.713   6.149   1.644  0.2569 -0.1598  0.0782
 2705TIP3    H129674   3.723   6.062   1.684  0.1405 -0.2739 -0.1388
 2705TIP3    H229675   3.626   6.147   1.604  0.7661 -0.4041 -1.0428
 2706TIP3   OH229676   5.496   4.822   0.573  0.0112  0.1918  0.0348
 2706TIP3    H129677   5.415   4.770   0.565 -0.2537  0.8175 -1.7798
 2706TIP3    H229678   5.545   4.802   0.493  1.5386  0.0410  0.9872
 2707TIP3   OH229679   5.110   4.055   7.080 -0.0752  0.2050 -0.3706
 2707TIP3    H129680   5.069   4.133   7.117  1.0042 -0.0367  1.4744
 2707TIP3    H229681   5.043   4.017   7.023 -2.0712  0.3501  1.7413
 2708TIP3   OH229682   3.398   0.684   0.278 -0.0726  0.0937 -0.2975
 2708TIP3    H129683   3.332   0.724   0.221  0.9420  0.1204 -1.5126
 2708TIP3    H229684   3.379   0.590   0.274  0.2239  0.0568 -1.0178
 2709TIP3   OH229685   6.094   6.716   1.597 -0.2884  0.2976  0.6347
 2709TIP3    H129686   6.153   6.654   1.639 -1.9178 -1.2104  0.8478
 2709TIP3    H229687   6.035   6.744   1.667 -0.5774  0.8321  0.1827
 2710TIP3   OH229688   0.206   1.151   2.231  0.1023  0.5760 -0.1437
 2710TIP3    H129689   0.199   1.057   2.247  0.9389  0.4699 -0.3797
 2710TIP3    H229690   0.133   1.189   2.280  0.7733 -0.0208  1.3696
 2711TIP3   OH229691   3.727   5.792   0.096 -0.6633 -0.4656 -0.1324
 2711TIP3    H129692   3.699   5.704   0.120 -0.2316 -1.4294 -2.8168
 2711TIP3    H229693   3.647   5.837   0.069 -1.0185  0.3297  2.0685
 2712TIP3   OH229694   5.541   3.236   0.592 -0.8532 -0.3676  0.0967
 2712TIP3    H129695   5.571   3.233   0.683 -2.2076  0.5959  0.6210
 2712TIP3    H229696   5.587   3.312   0.555 -0.3032 -0.7583 -0.0366
 2713TIP3   OH229697   3.018   5.003   2.515  0.3583  0.2192  0.2079
 2713TIP3    H129698   2.996   5.052   2.594  1.9008  1.2696  0.0191
 2713TIP3    H229699   3.064   4.926   2.547 -0.2192 -0.0630  0.3853
 2714TIP3   OH229700   4.027   3.052   0.146 -0.4056  0.1847 -0.2786
 2714TIP3    H129701   3.964   3.017   0.209  0.9231 -1.3035  0.2844
 2714TIP3    H229702   4.065   3.128   0.190 -1.0543  0.4672 -0.1981
 2715TIP3   OH229703   3.238   6.359   2.829 -0.1284 -0.3436  0.0280
 2715TIP3    H129704   3.233   6.422   2.901 -0.6099 -0.4512  0.0924
 2715TIP3    H229705   3.200   6.279   2.864  2.0233 -1.2269  0.5142
 2716TIP3   OH229706   1.133   1.074   1.683 -0.4164 -0.1924  0.3749
 2716TIP3    H129707   1.151   1.168   1.684  1.3898 -0.4660 -0.9640
 2716TIP3    H229708   1.040   1.068   1.659 -0.2883  1.2515 -0.6589
 2717TIP3   OH229709   1.344   4.783   2.627 -0.6957  0.2778  0.1219
 2717TIP3    H129710   1.295   4.824   2.555  0.3681  2.8754  0.7576
 2717TIP3    H229711   1.406   4.725   2.583  1.0863  3.0713 -1.2948
 2718TIP3   OH229712   2.089   6.678   2.459  0.3444  0.3743  0.1552
 2718TIP3    H129713   2.164   6.621   2.443 -0.5106 -1.1259  1.2624
 2718TIP3    H229714   2.025   6.653   2.392 -0.5591 -1.0084  1.4645
 2719TIP3   OH229715   4.831   3.689   0.656  0.2578  0.0272 -0.2111
 2719TIP3    H129716   4.820   3.763   0.716  2.1999  0.6862 -0.5932
 2719TIP3    H229717   4.742   3.659   0.639 -0.5304  1.6704  0.7070
 2720TIP3   OH229718   3.254   1.608   7.923  0.2957 -0.0589  0.2516
 2720TIP3    H129719   3.320   1.539   7.929  1.9433  1.3977 -0.3267
 2720TIP3    H229720   3.272   1.651   7.840 -1.8276  0.0112 -0.2329
 2721TIP3   OH229721   3.809   2.735   7.803  0.3423 -0.0049 -0.5047
 2721TIP3    H129722   3.735   2.689   7.763 -1.5379  2.6929 -0.3712
 2721TIP3    H229723   3.865   2.760   7.730 -0.0066 -0.1559 -0.8268
 2722TIP3   OH229724   6.360   1.039   1.477 -0.2073  0.0248 -0.3846
 2722TIP3    H129725   6.357   0.958   1.425 -0.1974 -1.6366  2.0361
 2722TIP3    H229726   6.269   1.058   1.496 -0.1186 -1.4610  1.8877
 2723TIP3   OH229727   1.506   1.810   0.275 -0.1939 -0.5162 -0.0627
 2723TIP3    H129728   1.496   1.819   0.180  1.8653 -1.6150 -0.4400
 2723TIP3    H229729   1.514   1.900   0.307  1.5560 -0.1995 -1.2797
 2724TIP3   OH229730   0.289   5.782   1.730 -0.2271  0.2067  0.9307
 2724TIP3    H129731   0.204   5.744   1.706 -0.7977  0.5692  2.2534
 2724TIP3    H229732   0.266   5.861   1.780  0.9088  1.6988 -0.7824
 2725TIP3   OH229733   1.281   0.472   0.603 -0.1311  0.7967 -0.0201
 2725TIP3    H129734   1.285   0.391   0.552  2.2412  0.2692  0.8597
 2725TIP3    H229735   1.319   0.449   0.688  3.6057  3.3827 -0.7104
 2726TIP3   OH229736   6.898   0.945   0.685 -0.1257  0.1762  0.2962
 2726TIP3    H129737   6.817   0.905   0.717  0.2848  0.0838  1.2532
 2726TIP3    H229738   6.934   0.881   0.623 -0.2019 -0.3048  0.7417
 2727TIP3   OH229739   6.954   5.088   3.474 -0.2056  0.1990  0.0705
 2727TIP3    H129740   6.889   5.158   3.470 -0.9743 -0.5468 -2.3450
 2727TIP3    H229741   7.034   5.131   3.503 -1.2372  1.5529  1.0446
 2728TIP3   OH229742   6.384   0.579   1.684  0.4153  0.2823  0.0478
 2728TIP3    H129743   6.366   0.656   1.630 -0.0808  1.1808  1.4277
 2728TIP3    H229744   6.302   0.563   1.730  1.0989  0.1472  1.2454
 2729TIP3   OH229745   4.259   5.730   8.038 -0.6843  0.6256  0.7935
 2729TIP3    H129746   4.180   5.777   8.064 -0.4827 -0.2221  3.1833
 2729TIP3    H229747   4.305   5.790   7.979 -1.3915  2.5965  2.1576
 2730TIP3   OH229748   1.109   6.514   1.583 -0.1472 -0.4548  0.0238
 2730TIP3    H129749   1.070   6.598   1.607 -0.3182 -0.9929  1.8230
 2730TIP3    H229750   1.035   6.460   1.555 -0.2024 -0.3771  0.0202
 2731TIP3   OH229751   5.602   2.759   2.675 -0.5521 -0.1202  0.5654
 2731TIP3    H129752   5.565   2.757   2.763  1.8499  1.6208  1.7244
 2731TIP3    H229753   5.544   2.703   2.623 -1.7593 -1.6400  3.3343
 2732TIP3   OH229754   3.084   4.077   7.932  0.2740 -0.0959  0.2013
 2732TIP3    H129755   3.033   4.158   7.924 -0.0734 -0.1431  1.6282
 2732TIP3    H229756   3.171   4.106   7.960  0.4128 -0.1505 -0.1789
 2733TIP3   OH229757   4.377   4.470   2.066 -0.3191 -0.4284 -0.4012
 2733TIP3    H129758   4.336   4.403   2.121 -0.2613 -1.7744 -1.9331
 2733TIP3    H229759   4.309   4.492   2.002 -0.8193  2.0019  0.8493
 2734TIP3   OH229760   6.041   2.710   0.462  0.6799  0.4573  0.0572
 2734TIP3    H129761   6.073   2.747   0.379 -0.0146 -0.7088 -0.7531
 2734TIP3    H229762   5.986   2.637   0.436  1.7280 -0.9442  1.6095
 2735TIP3   OH229763   5.524   3.965   3.851  0.3185  0.1982  0.0190
 2735TIP3    H129764   5.495   4.045   3.895  0.0411  1.2297 -1.9235
 2735TIP3    H229765   5.445   3.912   3.842  0.1888  0.3979 -0.0312
 2736TIP3   OH229766   0.566   1.013   1.621 -0.2110 -0.3986 -0.0709
 2736TIP3    H129767   0.591   0.937   1.569  0.2280 -0.9991  0.9819
 2736TIP3    H229768   0.488   0.986   1.668  0.0825 -0.2883  0.4881
 2737TIP3   OH229769   0.737   4.446   0.339 -0.1724  0.5888  0.4627
 2737TIP3    H129770   0.676   4.438   0.266 -1.8710  0.1370  1.8672
 2737TIP3    H229771   0.716   4.530   0.379  0.8405  0.9009  0.3643
 2738TIP3   OH229772   3.187   5.033   1.770 -0.2568 -0.6698  0.0057
 2738TIP3    H129773   3.094   5.010   1.773 -0.5690  0.3679 -0.7901
 2738TIP3    H229774   3.216   5.003   1.684  0.0622 -0.7136  0.1282
 2739TIP3   OH229775   0.805   6.917   1.173  0.0418 -0.4234  0.4406
 2739TIP3    H129776   0.803   6.959   1.259 -0.4494  1.2883 -0.3562
 2739TIP3    H229777   0.729   6.953   1.127  1.0157 -0.2860 -1.1439
 2740TIP3   OH229778   2.942   2.410   7.966 -0.2070 -0.1088  0.0714
 2740TIP3    H129779   2.907   2.389   7.879  0.2916  3.2198 -1.0485
 2740TIP3    H229780   2.886   2.481   7.998  0.2486 -0.5894  2.0788
 2741TIP3   OH229781   2.627   1.773   7.994 -0.1958  0.4192  0.0121
 2741TIP3    H129782   2.650   1.681   8.004  0.0334  0.3355 -1.1889
 2741TIP3    H229783   2.704   1.813   7.955 -1.1646  0.6161 -1.7892
 2742TIP3   OH229784   4.802   3.647   1.820  0.4148 -0.1134  0.0091
 2742TIP3    H129785   4.867   3.678   1.757  1.7829  0.3965  1.6019
 2742TIP3    H229786   4.850   3.586   1.876 -0.2583  0.8530  1.6960
 2743TIP3   OH229787   4.817   5.686   2.507  0.5164  0.1742  0.4899
 2743TIP3    H129788   4.725   5.692   2.480  0.7253  5.1586 -0.0621
 2743TIP3    H229789   4.813   5.694   2.603  0.3392  0.5517  0.4553
 2744TIP3   OH229790   0.359   5.992   0.943  0.5446  0.1002  0.3142
 2744TIP3    H129791   0.297   5.946   0.887 -0.2085 -0.6343  1.7059
 2744TIP3    H229792   0.427   5.928   0.962  0.9947  0.4624 -0.0229
 2745TIP3   OH229793   5.397   0.063   1.342 -0.1368 -0.0503  0.5255
 2745TIP3    H129794   5.472   0.120   1.328  0.7272 -1.2496  0.0419
 2745TIP3    H229795   5.354   0.058   1.257 -1.2558  1.2662  0.9897
 2746TIP3   OH229796   2.138   2.939   1.147  0.0988  0.1433  0.1639
 2746TIP3    H129797   2.087   2.863   1.117 -0.9446  0.6149  0.7100
 2746TIP3    H229798   2.112   2.951   1.238  0.2413  1.1648  0.0797
 2747TIP3   OH229799   3.025   1.815   1.703 -0.5363 -0.4914 -0.0121
 2747TIP3    H129800   3.092   1.858   1.756 -0.0436 -0.3520 -0.7325
 2747TIP3    H229801   2.991   1.745   1.759 -0.3197 -0.0870  0.6331
 2748TIP3   OH229802   2.236   3.563   2.350 -0.5073 -0.8132 -0.4886
 2748TIP3    H129803   2.256   3.654   2.372 -1.3556 -0.6062 -0.5233
 2748TIP3    H229804   2.162   3.569   2.290  0.2589 -1.4763 -1.5323
 2749TIP3   OH229805   2.482   2.426   1.691 -0.5684  0.1761 -0.2356
 2749TIP3    H129806   2.477   2.331   1.704 -2.5773  0.3305  0.5423
 2749TIP3    H229807   2.481   2.462   1.780 -1.3187  0.9488 -0.5401
 2750TIP3   OH229808   6.011   3.986   2.996 -0.1255  0.0609 -0.5629
 2750TIP3    H129809   5.971   4.044   3.061  1.8017 -0.5243  1.2348
 2750TIP3    H229810   5.966   3.902   3.007 -1.3688  0.5338 -1.6396
 2751TIP3   OH229811   6.571   4.731   1.781 -0.2032 -0.5606  0.3813
 2751TIP3    H129812   6.632   4.779   1.838 -0.9989 -1.2181  1.8557
 2751TIP3    H229813   6.605   4.642   1.779 -1.2166 -0.9975  1.4378
 2752TIP3   OH229814   6.320   5.146   1.154 -0.5050 -0.0654  0.6283
 2752TIP3    H129815   6.387   5.105   1.208 -0.1938 -2.0290 -1.1126
 2752TIP3    H229816   6.347   5.128   1.064 -1.3719  2.4444 -0.2368
 2753TIP3   OH229817   5.252   5.017   7.092  0.5519 -0.1900  0.3828
 2753TIP3    H129818   5.291   4.937   7.056 -1.2925 -1.3505  0.7919
 2753TIP3    H229819   5.325   5.078   7.101  1.4990 -0.6427 -3.0102
 2754TIP3   OH229820   1.051   0.910   0.698 -0.7962 -0.0624  0.4262
 2754TIP3    H129821   1.145   0.925   0.686 -0.8820  1.5098  1.3471
 2754TIP3    H229822   1.037   0.820   0.669  0.7942  0.0151 -0.7467
 2755TIP3   OH229823   1.257   1.151   2.580  0.0945  0.0244 -0.0620
 2755TIP3    H129824   1.232   1.229   2.531 -0.3839 -0.2162 -0.2129
 2755TIP3    H229825   1.300   1.184   2.659 -0.7365  0.4721  0.2209
 2756TIP3   OH229826   4.520   6.083   1.543  0.2572 -0.1611  0.1897
 2756TIP3    H129827   4.510   6.075   1.448 -1.9020 -0.4743  0.3842
 2756TIP3    H229828   4.543   6.174   1.558 -3.0658  0.9088 -0.4884
 2757TIP3   OH229829   1.981   6.046   2.578 -0.0091 -0.2211 -0.3335
 2757TIP3    H129830   1.989   6.010   2.489  0.7137  0.2896 -0.4813
 2757TIP3    H229831   2.042   6.119   2.580 -0.1513 -0.1162  0.5345
 2758TIP3   OH229832   6.432   6.570   0.548 -0.1927 -0.0294 -0.1918
 2758TIP3    H129833   6.490   6.494   0.550 -0.3944 -0.1749  1.1432
 2758TIP3    H229834   6.344   6.534   0.556 -0.3015  0.3148  0.2624
 2759TIP3   OH229835   0.780   2.668   7.677 -0.2286  0.5561 -0.2812
 2759TIP3    H129836   0.817   2.740   7.728 -0.4553 -0.3358  1.1795
 2759TIP3    H229837   0.844   2.654   7.606  0.9709  0.7138  0.7277
 2760TIP3   OH229838   0.294   3.841   0.588 -0.3884  0.1448 -0.6862
 2760TIP3    H129839   0.357   3.769   0.583  0.6124  0.9371  0.0845
 2760TIP3    H229840   0.348   3.920   0.590 -1.3267  0.7992  1.1775
 2761TIP3   OH229841   4.621   1.985   1.216 -0.4011 -0.1592 -0.5387
 2761TIP3    H129842   4.678   2.061   1.211 -0.6257  0.0538  0.0365
 2761TIP3    H229843   4.676   1.911   1.191 -0.2814  0.2302 -1.4805
 2762TIP3   OH229844   3.296   6.889   1.254 -0.0406 -0.2924 -0.0575
 2762TIP3    H129845   3.202   6.899   1.234 -0.8196 -3.9797  0.9844
 2762TIP3    H229846   3.302   6.899   1.349  0.5786 -0.2595 -0.0957
 2763TIP3   OH229847   0.917   6.788   0.932 -0.0902 -0.6579 -0.1733
 2763TIP3    H129848   0.883   6.877   0.942 -1.6156 -1.2970  0.5764
 2763TIP3    H229849   1.003   6.791   0.974 -0.2617  0.3646  0.1439
 2764TIP3   OH229850   1.917   3.609   7.719 -0.5193  0.0025 -0.2554
 2764TIP3    H129851   1.905   3.703   7.734  0.3038 -0.1281  1.4904
 2764TIP3    H229852   1.967   3.603   7.638  0.1077  1.1120  0.0288
 2765TIP3   OH229853   1.829   1.718   2.979  0.4136 -0.6505 -0.2054
 2765TIP3    H129854   1.744   1.758   2.997  0.1419 -1.2064 -0.2386
 2765TIP3    H229855   1.822   1.630   3.015  0.0237 -1.6488 -2.5560
 2766TIP3   OH229856   0.127   5.430   2.922  0.4352  0.2217  0.1992
 2766TIP3    H129857   0.115   5.490   2.849  0.4181  0.0571  0.0642
 2766TIP3    H229858   0.114   5.483   3.000  0.8119  0.4791  0.0880
 2767TIP3   OH229859   1.579   6.728   0.223 -0.0678  0.1951  0.3971
 2767TIP3    H129860   1.629   6.755   0.300 -0.4969 -1.3604  1.2856
 2767TIP3    H229861   1.632   6.660   0.182 -0.7110 -0.3617  0.4593
 2768TIP3   OH229862   2.626   1.529   2.288  0.0093 -0.4233 -0.8396
 2768TIP3    H129863   2.574   1.549   2.366 -0.0738 -0.3193 -0.9191
 2768TIP3    H229864   2.633   1.613   2.242 -1.4631 -0.8028 -1.8554
 2769TIP3   OH229865   5.816   5.687   1.438  0.2620  0.5079 -0.0918
 2769TIP3    H129866   5.874   5.763   1.426 -0.3286  1.0550  0.4812
 2769TIP3    H229867   5.876   5.613   1.443  1.4701  1.4362  5.1717
 2770TIP3   OH229868   4.012   1.292   2.893 -0.9195 -0.0036  0.0667
 2770TIP3    H129869   3.943   1.348   2.928  0.7582  3.9867 -2.3523
 2770TIP3    H229870   4.048   1.341   2.820  2.6237 -3.1773 -0.6300
 2771TIP3   OH229871   0.549   3.530   8.246 -0.2145 -0.0148  0.7137
 2771TIP3    H129872   0.578   3.584   8.173  0.9043 -0.3684  0.8719
 2771TIP3    H229873   0.455   3.548   8.254 -0.8587 -1.5570 -2.1615
 2772TIP3   OH229874   3.100   3.011   0.438 -0.4510 -0.3214  0.5804
 2772TIP3    H129875   3.051   3.092   0.438 -2.9070 -1.7146  0.3869
 2772TIP3    H229876   3.164   3.021   0.509 -0.5920  1.7789  0.4539
 2773TIP3   OH229877   3.649   0.483   0.293 -0.8466  0.0639 -0.5158
 2773TIP3    H129878   3.645   0.562   0.238  0.0392 -0.3839 -1.2552
 2773TIP3    H229879   3.599   0.506   0.371 -0.7676  1.2931 -0.8008
 2774TIP3   OH229880   0.167   3.339   0.662 -0.0352 -0.1504  0.1443
 2774TIP3    H129881   0.199   3.427   0.646  1.0654 -0.1238  2.1180
 2774TIP3    H229882   0.072   3.346   0.656  0.0948  0.8935 -0.9068
 2775TIP3   OH229883   0.565   3.119   2.779  0.3990  0.4243  0.0322
 2775TIP3    H129884   0.587   3.062   2.705 -0.5507  0.6746 -0.4674
 2775TIP3    H229885   0.647   3.130   2.827  0.4964 -1.7670  0.4425
 2776TIP3   OH229886   5.772   6.414   0.086 -0.6345  0.2528 -0.6300
 2776TIP3    H129887   5.848   6.399   0.143 -2.2378  0.6778  1.7756
 2776TIP3    H229888   5.793   6.494   0.039 -0.1255  1.1663  1.0652
 2777TIP3   OH229889   1.204   3.769   2.395  0.7047  0.4223 -0.0130
 2777TIP3    H129890   1.124   3.817   2.415  0.8576  1.5220 -1.8340
 2777TIP3    H229891   1.259   3.831   2.348  1.6290 -1.0270 -0.9534
 2778TIP3   OH229892   3.036   4.103   1.559 -0.0921 -0.2181 -0.3093
 2778TIP3    H129893   3.045   4.153   1.640 -1.0382 -1.2385  0.4576
 2778TIP3    H229894   3.098   4.143   1.498  0.0840  1.0480  0.6798
 2779TIP3   OH229895   1.132   2.838   0.278  0.4234 -0.3290 -0.1239
 2779TIP3    H129896   1.111   2.900   0.348  2.7339  0.6261 -0.2018
 2779TIP3    H229897   1.047   2.807   0.248 -0.8829  2.7372 -0.0227
 2780TIP3   OH229898   4.986   4.984   2.069 -0.5170  0.0841 -0.2044
 2780TIP3    H129899   5.025   4.945   2.147  0.5577  1.5221  0.0338
 2780TIP3    H229900   4.959   4.910   2.015 -0.8009 -0.9379  1.2867
 2781TIP3   OH229901   1.713   4.321   1.463  0.2355  0.0163 -0.5737
 2781TIP3    H129902   1.721   4.416   1.462  0.8591 -0.0195 -0.2434
 2781TIP3    H229903   1.621   4.304   1.480  0.0180  0.5551 -1.2055
 2782TIP3   OH229904   5.176   4.057   0.427 -0.2157  0.1873  0.1519
 2782TIP3    H129905   5.212   4.130   0.477 -0.5916 -0.1083  0.8534
 2782TIP3    H229906   5.148   3.993   0.492 -2.0857  0.4299 -0.3410
 2783TIP3   OH229907   6.923   5.704   3.201  0.2444  0.1633  0.1110
 2783TIP3    H129908   6.847   5.646   3.211 -0.4895  1.2643  1.1516
 2783TIP3    H229909   6.887   5.788   3.174  1.1576  0.5296 -0.0242
 2784TIP3   OH229910   3.588   1.047   3.453 -0.3526  0.3696 -0.2150
 2784TIP3    H129911   3.499   1.060   3.420  0.3403  2.5836 -1.4262
 2784TIP3    H229912   3.635   1.127   3.428  1.9007 -0.5779  0.6916
 2785TIP3   OH229913   2.707   5.070   7.942  0.5004  0.1921  0.0478
 2785TIP3    H129914   2.795   5.066   7.980  0.6879  0.0394 -0.4002
 2785TIP3    H229915   2.703   4.994   7.883 -0.8627 -1.4541  2.0778
 2786TIP3   OH229916   3.174   3.344   7.923 -0.3677 -0.6868  0.0825
 2786TIP3    H129917   3.199   3.431   7.891 -1.8559  0.7259  2.4521
 2786TIP3    H229918   3.079   3.340   7.913 -0.9847 -0.1126  3.9158
 2787TIP3   OH229919   0.154   3.841   7.307  0.4047  0.4842  0.1524
 2787TIP3    H129920   0.220   3.836   7.377  0.0258  0.0907  0.4876
 2787TIP3    H229921   0.164   3.758   7.260 -0.5627 -0.0444  0.8557
 2788TIP3   OH229922   2.416   6.624   8.162 -0.0938 -0.1579  0.6084
 2788TIP3    H129923   2.362   6.561   8.209 -2.0998  1.6560  0.8802
 2788TIP3    H229924   2.479   6.655   8.228 -0.6363 -0.1507  1.1305
 2789TIP3   OH229925   5.773   3.929   0.870  0.4967 -0.4779 -0.4749
 2789TIP3    H129926   5.816   3.851   0.904  0.4714 -0.2917 -0.0063
 2789TIP3    H229927   5.725   3.965   0.945  0.7562  0.1537 -0.5991
 2790TIP3   OH229928   1.254   1.139   7.166 -0.3003 -0.1397 -0.1448
 2790TIP3    H129929   1.343   1.174   7.156 -0.4001 -0.0201 -0.6374
 2790TIP3    H229930   1.197   1.211   7.139 -0.5549 -0.2011  0.2154
 2791TIP3   OH229931   4.733   1.458   1.640  0.4814  0.1272  0.1574
 2791TIP3    H129932   4.762   1.403   1.713 -0.7692  0.8742  1.2614
 2791TIP3    H229933   4.653   1.500   1.672  1.6230  2.9841 -0.4440
 2792TIP3   OH229934   6.960   3.115   8.079 -0.0039 -0.0617 -0.4541
 2792TIP3    H129935   7.050   3.141   8.061 -0.0860  0.4606 -0.1298
 2792TIP3    H229936   6.947   3.035   8.027  0.5815 -0.0333 -0.6489
 2793TIP3   OH229937   1.947   6.495   2.711 -0.1461 -0.3150 -0.1963
 2793TIP3    H129938   1.911   6.488   2.800 -0.6304  0.5565 -0.3105
 2793TIP3    H229939   2.032   6.453   2.716  0.5722  1.2088  1.1102
 2794TIP3   OH229940   2.127   4.900   8.072  0.5153 -0.3569 -0.2502
 2794TIP3    H129941   2.221   4.913   8.082  0.6042 -1.9701  1.5460
 2794TIP3    H229942   2.119   4.850   7.990  1.4553 -1.8998  0.5421
 2795TIP3   OH229943   4.161   4.177   3.044 -0.1895 -0.7029 -0.1954
 2795TIP3    H129944   4.172   4.082   3.033  0.3085 -1.0225  2.4972
 2795TIP3    H229945   4.205   4.197   3.126 -1.4156  1.6735 -0.0352
 2796TIP3   OH229946   5.852   4.731   2.767 -0.1743 -0.4948 -0.6241
 2796TIP3    H129947   5.805   4.675   2.828 -1.3816 -0.7624 -1.7530
 2796TIP3    H229948   5.784   4.770   2.713  0.6192  2.0929  0.0963
 2797TIP3   OH229949   3.410   2.760   1.333 -0.2153  0.0931  0.0541
 2797TIP3    H129950   3.361   2.842   1.325  1.5951  1.1473 -0.9123
 2797TIP3    H229951   3.401   2.718   1.248 -0.5552 -0.4044  0.3251
 2798TIP3   OH229952   2.290   4.125   1.048 -0.2737  0.4838  0.5530
 2798TIP3    H129953   2.379   4.117   1.013 -0.4443  1.6867 -0.2145
 2798TIP3    H229954   2.296   4.092   1.137  0.4028 -1.7452 -0.2381
 2799TIP3   OH229955   2.362   6.017   0.188 -0.6684  0.2656 -0.3156
 2799TIP3    H129956   2.375   5.985   0.278 -1.7814  2.7250  0.7924
 2799TIP3    H229957   2.269   6.004   0.172 -0.2549 -1.3353 -1.6599
 2800TIP3   OH229958   2.045   3.592   7.472  0.0897 -0.3952 -0.5008
 2800TIP3    H129959   2.111   3.661   7.480  0.6586 -0.8671 -1.0804
 2800TIP3    H229960   2.008   3.605   7.384  0.4436 -1.0408 -0.7470
 2801TIP3   OH229961   4.404   4.191   1.318 -0.4264 -0.0282  0.7612
 2801TIP3    H129962   4.380   4.272   1.363 -0.3216  0.5570 -0.2111
 2801TIP3    H229963   4.324   4.164   1.274  0.3542  1.4265 -1.7251
 2802TIP3   OH229964   0.264   2.058   1.306 -0.5117 -0.4965 -0.0867
 2802TIP3    H129965   0.177   2.034   1.275 -0.8016  1.5773 -1.0829
 2802TIP3    H229966   0.248   2.103   1.389 -0.2253 -1.3609  0.4528
 2803TIP3   OH229967   6.512   4.092   0.275 -0.2621 -0.1404 -0.2728
 2803TIP3    H129968   6.442   4.140   0.319 -0.2102  0.3403 -0.7073
 2803TIP3    H229969   6.555   4.157   0.219  1.0036 -0.2490  0.5383
 2804TIP3   OH229970   4.548   1.560   1.831  0.0945 -0.4651 -0.9887
 2804TIP3    H129971   4.579   1.578   1.920  1.0764  0.3890 -1.4947
 2804TIP3    H229972   4.502   1.476   1.839  0.6052 -0.6510  0.2208
 2805TIP3   OH229973   6.418   4.816   2.244  0.5229 -0.1090 -1.2561
 2805TIP3    H129974   6.383   4.905   2.240  1.2724  0.3596  0.9639
 2805TIP3    H229975   6.342   4.759   2.239 -0.4184  0.8121  1.2867
 2806TIP3   OH229976   6.815   1.766   1.976 -0.8329  0.2655 -0.1330
 2806TIP3    H129977   6.747   1.701   1.994  0.7300 -1.0664  1.2353
 2806TIP3    H229978   6.878   1.720   1.921  1.3671 -0.2043  2.5581
 2807TIP3   OH229979   5.563   1.228   7.648  0.5111  0.2043 -0.2462
 2807TIP3    H129980   5.655   1.235   7.622  0.5726  0.0189 -0.0716
 2807TIP3    H229981   5.525   1.313   7.622  0.8508  0.4853  0.1684
 2808TIP3   OH229982   7.032   4.392   7.617 -0.4646  0.2924 -0.1621
 2808TIP3    H129983   7.097   4.389   7.546 -1.4601  0.8964 -1.1433
 2808TIP3    H229984   6.971   4.321   7.596 -0.4618  0.1286  0.3933
 2809TIP3   OH229985   3.076   2.504   2.899 -0.2297  0.1050  0.1830
 2809TIP3    H129986   3.122   2.420   2.896  0.6221  0.5746 -0.2888
 2809TIP3    H229987   3.096   2.539   2.986  0.3808  0.3307 -0.0377
 2810TIP3   OH229988   6.876   5.346   1.162 -0.0912  0.6392  0.3938
 2810TIP3    H129989   6.971   5.336   1.162 -0.1790 -0.2833  0.0332
 2810TIP3    H229990   6.852   5.355   1.254  0.1560 -1.2057  0.6624
 2811TIP3   OH229991   3.884   5.799   0.781 -0.1436  0.0036  0.5674
 2811TIP3    H129992   3.894   5.893   0.795 -0.5638  0.2281 -0.5306
 2811TIP3    H229993   3.971   5.763   0.796  0.4442  0.8155 -0.7475
 2812TIP3   OH229994   6.135   3.319   0.454 -0.0095 -0.1808 -0.0740
 2812TIP3    H129995   6.219   3.290   0.418 -0.2532 -0.1102 -0.7089
 2812TIP3    H229996   6.151   3.328   0.548  0.8114  0.2428 -0.2475
 2813TIP3   OH229997   6.803   1.574   0.512  0.0488 -0.1012 -0.1227
 2813TIP3    H129998   6.711   1.578   0.486  0.0836  1.3383 -0.1202
 2813TIP3    H229999   6.800   1.577   0.607  0.0477 -2.0067 -0.0339
 2814TIP3   OH230000   1.122   1.121   2.905 -0.4613 -0.0395 -0.3178
 2814TIP3    H130001   1.118   1.158   2.993  1.2634 -0.5117  0.0069
 2814TIP3    H230002   1.188   1.174   2.860 -0.7057 -0.3408 -1.0423
 2815TIP3   OH230003   4.010   1.168   8.030  0.0422 -0.5733 -0.1010
 2815TIP3    H130004   4.100   1.144   8.010  0.1580  0.0501 -0.3399
 2815TIP3    H230005   3.959   1.089   8.010  0.5801 -1.0568  0.4255
 2816TIP3   OH230006   2.373   2.556   1.447  0.2982  0.7011  0.0618
 2816TIP3    H130007   2.413   2.515   1.523  2.0173 -0.3964 -1.3669
 2816TIP3    H230008   2.286   2.583   1.477  0.3315 -1.0949  1.9470
 2817TIP3   OH230009   2.794   1.790   1.110 -0.9749  0.1566  0.1117
 2817TIP3    H130010   2.827   1.730   1.177  1.1457  0.9143 -0.1633
 2817TIP3    H230011   2.747   1.734   1.048  0.1396 -1.0905  0.3564
 2818TIP3   OH230012   0.180   5.122   1.587 -0.0937 -0.2844  0.5766
 2818TIP3    H130013   0.197   5.216   1.595 -1.0817  0.4758 -3.5490
 2818TIP3    H230014   0.140   5.098   1.670  0.8520  2.7459  2.0823
 2819TIP3   OH230015   6.998   5.621   0.262 -0.1215 -0.5528 -0.4503
 2819TIP3    H130016   7.004   5.539   0.312  1.0158 -0.5755 -0.5933
 2819TIP3    H230017   6.976   5.687   0.328  0.5050 -0.7229 -0.0596
 2820TIP3   OH230018   1.843   2.913   1.997 -0.2274 -0.8561  0.5094
 2820TIP3    H130019   1.844   2.928   1.903 -1.9183 -2.2123  0.2258
 2820TIP3    H230020   1.907   2.975   2.032 -1.1575  1.2421 -1.2811
 2821TIP3   OH230021   6.952   6.508   0.765 -0.2479  0.5048 -0.3707
 2821TIP3    H130022   6.872   6.502   0.817 -0.0941  0.1227 -0.1710
 2821TIP3    H230023   7.021   6.478   0.824 -0.1854 -0.7806 -1.0595
 2822TIP3   OH230024   6.492   2.484   8.021 -0.0075  0.6584 -0.0813
 2822TIP3    H130025   6.543   2.528   7.953 -1.2528  0.7185 -1.0230
 2822TIP3    H230026   6.414   2.452   7.975  0.0500 -1.0374  0.9283
 2823TIP3   OH230027   1.513   1.716   1.624  0.0427 -0.0118 -0.1778
 2823TIP3    H130028   1.606   1.708   1.602 -0.3452 -1.5112 -1.4572
 2823TIP3    H230029   1.507   1.799   1.673  2.0797 -0.0517  0.2305
 2824TIP3   OH230030   0.764   5.105   3.324 -0.3340  0.2380  0.3300
 2824TIP3    H130031   0.730   5.177   3.271 -1.0839  0.1257  0.6495
 2824TIP3    H230032   0.690   5.079   3.379 -0.0262 -0.6850  0.3138
 2825TIP3   OH230033   5.964   0.341   2.839 -0.3597  0.0978 -0.4795
 2825TIP3    H130034   6.050   0.352   2.800  0.9648  1.1845  2.4875
 2825TIP3    H230035   5.927   0.430   2.841 -0.8442 -0.1035 -0.1918
 2826TIP3   OH230036   1.961   4.876   0.501 -0.1116 -0.5030  0.3895
 2826TIP3    H130037   1.944   4.921   0.418 -0.9882 -0.9058  0.3347
 2826TIP3    H230038   2.031   4.813   0.481  0.0094 -0.2712  0.0764
 2827TIP3   OH230039   5.228   2.415   0.637  0.4538  0.3101 -0.6542
 2827TIP3    H130040   5.133   2.410   0.646  0.4905 -0.3739 -0.5911
 2827TIP3    H230041   5.243   2.431   0.544  0.2959 -0.3744 -0.8030
 2828TIP3   OH230042   2.912   1.577   2.286  0.3194  0.2369  0.4761
 2828TIP3    H130043   2.821   1.548   2.294  0.6153 -0.2666  3.1793
 2828TIP3    H230044   2.932   1.571   2.193 -2.3954  0.3594 -0.1925
 2829TIP3   OH230045   0.775   0.756   7.818 -0.1701 -0.0711  0.0732
 2829TIP3    H130046   0.865   0.761   7.787 -0.2180 -1.0442 -0.2421
 2829TIP3    H230047   0.727   0.814   7.759  0.0458 -0.5152 -0.5536
 2830TIP3   OH230048   6.422   3.272   1.073  0.1947  0.2493 -0.3653
 2830TIP3    H130049   6.363   3.242   1.004 -1.6917 -0.9298  1.6565
 2830TIP3    H230050   6.364   3.307   1.141  1.7464 -1.4307  1.9550
 2831TIP3   OH230051   0.585   4.277   7.820  0.0870 -0.7251  0.2572
 2831TIP3    H130052   0.550   4.366   7.815  1.4939 -0.1549  0.2586
 2831TIP3    H230053   0.511   4.221   7.797 -1.4254  0.3155  2.3019
 2832TIP3   OH230054   2.720   6.599   1.045 -0.1767  0.4143  0.0793
 2832TIP3    H130055   2.810   6.614   1.072  0.1010  0.8787 -1.0668
 2832TIP3    H230056   2.672   6.589   1.127  0.7455  1.1693  0.7293
 2833TIP3   OH230057   6.475   0.801   8.243 -0.2448  0.1104 -0.6180
 2833TIP3    H130058   6.512   0.888   8.263  0.1772 -0.5783  1.9802
 2833TIP3    H230059   6.524   0.772   8.167  0.6879  1.5337 -0.6170
 2834TIP3   OH230060   2.363   1.396   7.428 -0.2288  0.1045  0.3931
 2834TIP3    H130061   2.449   1.437   7.417 -0.0318 -0.1172  1.0656
 2834TIP3    H230062   2.307   1.467   7.459 -0.6366  0.5820 -1.3347
 2835TIP3   OH230063   0.357   1.352   0.605 -0.3271  0.5783 -0.6315
 2835TIP3    H130064   0.286   1.416   0.596  0.4863  1.9354  1.6653
 2835TIP3    H230065   0.435   1.399   0.574  0.2936  0.7873  1.1505
 2836TIP3   OH230066   1.027   1.287   7.054 -0.0829  0.2243  0.2053
 2836TIP3    H130067   0.954   1.234   7.025  0.9486 -1.4148  0.4730
 2836TIP3    H230068   0.986   1.361   7.100 -1.5881  0.5466 -1.5406
 2837TIP3   OH230069   6.687   4.284   0.115  0.6388 -0.7878 -0.1889
 2837TIP3    H130070   6.723   4.355   0.064  0.0831 -0.7545 -0.5429
 2837TIP3    H230071   6.747   4.274   0.188  1.0789 -0.3987 -0.4942
 2838TIP3   OH230072   2.821   5.676   2.296  0.4103  0.1261  0.3988
 2838TIP3    H130073   2.860   5.755   2.261 -1.7871  1.4355  0.7372
 2838TIP3    H230074   2.887   5.608   2.280  1.1609  1.4010 -2.5783
 2839TIP3   OH230075   2.325   5.248   7.781 -0.2085 -0.3452 -0.6114
 2839TIP3    H130076   2.303   5.157   7.758 -0.7947 -0.5356  0.6297
 2839TIP3    H230077   2.332   5.292   7.697 -1.3399 -1.2252 -1.2094
 2840TIP3   OH230078   4.603   2.415   2.022 -0.3531 -0.2440 -0.3505
 2840TIP3    H130079   4.526   2.457   1.983  0.6042  0.8741 -1.0821
 2840TIP3    H230080   4.570   2.373   2.102 -1.9793 -0.9223 -1.3292
 2841TIP3   OH230081   6.693   1.367   1.749 -0.2137 -0.3581  0.0255
 2841TIP3    H130082   6.722   1.309   1.678 -0.4161  0.1086 -0.4458
 2841TIP3    H230083   6.698   1.312   1.828 -0.8913 -1.1809 -0.4807
 2842TIP3   OH230084   3.904   0.449   1.604  0.1936 -0.1934 -0.3055
 2842TIP3    H130085   3.844   0.452   1.679  0.2489 -0.6997 -0.2395
 2842TIP3    H230086   3.859   0.499   1.536 -0.2771 -0.5250 -0.2390
 2843TIP3   OH230087   4.944   5.927   7.924 -0.4450  0.0275 -0.3073
 2843TIP3    H130088   4.933   5.835   7.901 -1.4117 -0.3002  1.2836
 2843TIP3    H230089   4.868   5.947   7.979  1.3939  0.8249  2.1466
 2844TIP3   OH230090   3.783   3.816   2.196  0.6387  0.3902 -0.0183
 2844TIP3    H130091   3.785   3.753   2.268 -0.1549 -0.3689 -0.6398
 2844TIP3    H230092   3.875   3.842   2.185  1.5603 -3.0001 -1.7193
 2845TIP3   OH230093   1.861   3.756   1.289 -0.1858  0.0853 -0.0383
 2845TIP3    H130094   1.893   3.838   1.328  0.6942 -1.6003  3.0846
 2845TIP3    H230095   1.931   3.729   1.229  0.6098  0.4374  0.7157
 2846TIP3   OH230096   6.752   2.600   2.523  0.4389 -0.0256  0.1492
 2846TIP3    H130097   6.716   2.512   2.510 -1.3894  0.6935  0.0265
 2846TIP3    H230098   6.813   2.590   2.596  2.2550 -1.8812 -1.4765
 2847TIP3   OH230099   0.026   0.666   2.156  0.4222  0.3440 -0.0531
 2847TIP3    H130100  -0.031   0.690   2.083  1.4114  1.7715 -0.4001
 2847TIP3    H230101   0.111   0.652   2.116  0.4273 -1.3783  0.5118
 2848TIP3   OH230102   1.284   4.293   1.914 -0.1187  0.1809  0.1505
 2848TIP3    H130103   1.321   4.377   1.942  0.6068 -0.6691  1.8981
 2848TIP3    H230104   1.356   4.249   1.869 -0.2192  0.1285  0.0413
 2849TIP3   OH230105   3.850   3.023   7.771  0.6805 -0.3780  0.3615
 2849TIP3    H130106   3.872   2.975   7.691  1.8116  0.6805  0.0021
 2849TIP3    H230107   3.919   2.998   7.833  1.4014  0.8897  0.1038
 2850TIP3   OH230108   3.032   2.696   0.283 -0.0648 -0.0352 -0.1275
 2850TIP3    H130109   2.979   2.654   0.350  1.2878  0.6470  1.4447
 2850TIP3    H230110   3.054   2.626   0.222  1.2739 -1.4717  1.8649
 2851TIP3   OH230111   3.036   6.829   7.820  0.1041 -0.6960  0.2034
 2851TIP3    H130112   3.110   6.796   7.769  0.0934 -0.2330 -0.1063
 2851TIP3    H230113   3.059   6.808   7.911  0.3227 -1.1194  0.0540
 2852TIP3   OH230114   1.184   4.645   0.177 -0.5558  0.1287  0.1564
 2852TIP3    H130115   1.178   4.555   0.208 -1.3204  0.4054  0.8632
 2852TIP3    H230116   1.182   4.638   0.082  1.3862 -0.7164  0.1322
 2853TIP3   OH230117   2.604   4.934   1.139  0.0008 -0.0036  0.6471
 2853TIP3    H130118   2.697   4.955   1.148  0.1058 -0.9459  2.2327
 2853TIP3    H230119   2.559   5.016   1.160  0.4530  0.7659 -1.2387
 2854TIP3   OH230120   6.232   6.374   1.831  0.2227 -0.1301  0.0248
 2854TIP3    H130121   6.190   6.337   1.909 -0.9227  1.1577  0.0533
 2854TIP3    H230122   6.159   6.390   1.771  0.6130  2.2319  0.1024
 2855TIP3   OH230123   5.359   0.284   0.461 -0.5914  0.0735  0.3280
 2855TIP3    H130124   5.307   0.278   0.542 -2.2057 -0.8968 -0.7277
 2855TIP3    H230125   5.341   0.203   0.415  1.4379 -0.0246 -0.3956
 2856TIP3   OH230126   1.684   1.006   2.876 -0.2126  0.0711 -0.5286
 2856TIP3    H130127   1.684   0.921   2.921  1.5688 -0.2768 -1.1028
 2856TIP3    H230128   1.613   0.999   2.812 -1.3038 -0.2625  0.6574
 2857TIP3   OH230129   2.186   7.012   0.856  0.3589 -1.0558  0.5527
 2857TIP3    H130130   2.209   7.097   0.893  0.5515 -1.8582  2.3790
 2857TIP3    H230131   2.094   7.000   0.878 -0.4343 -0.2486 -1.9688
 2858TIP3   OH230132   6.803   1.709   7.581  0.9306 -0.2649 -0.1385
 2858TIP3    H130133   6.786   1.626   7.537 -2.5927  0.8459 -1.1918
 2858TIP3    H230134   6.811   1.773   7.511  0.1068  0.7952  0.6943
 2859TIP3   OH230135   7.034   2.345   0.362 -0.0162  0.4081  0.1005
 2859TIP3    H130136   7.037   2.436   0.392 -0.8860  0.0595  1.3183
 2859TIP3    H230137   7.118   2.308   0.391  0.1197  0.6830  0.0640
 2860TIP3   OH230138   0.232   5.746   1.366 -0.3456 -0.0945  0.0830
 2860TIP3    H130139   0.286   5.802   1.310 -2.3208  0.3931 -1.4594
 2860TIP3    H230140   0.277   5.746   1.450  0.2592  3.0816 -0.0944
 2861TIP3   OH230141   5.668   4.823   2.485  0.4903 -0.2704  0.2654
 2861TIP3    H130142   5.649   4.887   2.416  0.1917 -0.6911 -0.0522
 2861TIP3    H230143   5.601   4.755   2.473  1.3879 -1.1318 -0.0355
 2862TIP3   OH230144   1.040   2.833   1.358  0.4113  0.4154  0.4802
 2862TIP3    H130145   1.035   2.756   1.414 -0.1679 -1.0955 -1.5290
 2862TIP3    H230146   1.131   2.862   1.365  0.6190 -0.4016  1.3358
 2863TIP3   OH230147   5.474   5.540   2.247  0.2851 -0.3671 -0.0722
 2863TIP3    H130148   5.412   5.527   2.176 -0.8554 -1.1003  1.0218
 2863TIP3    H230149   5.437   5.491   2.321  1.7594 -0.1652  0.8441
 2864TIP3   OH230150   5.599   6.647   1.622 -0.1708  0.5388 -0.8073
 2864TIP3    H130151   5.519   6.689   1.591  0.6870  0.8411 -2.8139
 2864TIP3    H230152   5.623   6.696   1.700 -2.5136 -0.3021  0.5251
 2865TIP3   OH230153   3.580   3.432   1.346  0.3843  0.7947 -0.7485
 2865TIP3    H130154   3.513   3.500   1.333 -2.9412 -1.3819  2.8406
 2865TIP3    H230155   3.544   3.354   1.304  0.3594 -0.5236  1.5701
 2866TIP3   OH230156   3.828   0.572   2.127  0.2841 -0.0821 -0.1037
 2866TIP3    H130157   3.800   0.626   2.200  4.2025 -0.9907  2.3975
 2866TIP3    H230158   3.889   0.628   2.077 -1.9133  0.3441 -2.5217
 2867TIP3   OH230159   5.308   6.735   0.400 -0.1499 -0.1639 -0.3054
 2867TIP3    H130160   5.278   6.644   0.403 -1.0815  0.1370 -0.0711
 2867TIP3    H230161   5.262   6.777   0.474 -0.3299  0.6641 -0.8755
 2868TIP3   OH230162   3.779   4.841   7.343  0.2362  0.0628 -0.0584
 2868TIP3    H130163   3.838   4.899   7.390  1.7406 -0.5582 -1.0896
 2868TIP3    H230164   3.833   4.766   7.318 -1.2150 -0.9784 -0.2686
 2869TIP3   OH230165   0.419   2.933   6.756 -0.0787  0.1428  0.8816
 2869TIP3    H130166   0.409   2.886   6.839 -0.6035  0.5957  1.0863
 2869TIP3    H230167   0.331   2.935   6.719  0.3227 -0.8851 -0.1614
 2870TIP3   OH230168   3.154   5.933   2.212  0.0497  0.5184  0.0723
 2870TIP3    H130169   3.176   6.020   2.245 -3.1848  0.6283  2.3261
 2870TIP3    H230170   3.237   5.884   2.217  1.2626  2.5831  1.6949
 2871TIP3   OH230171   5.676   5.101   2.988  0.2834 -0.2414  0.2618
 2871TIP3    H130172   5.736   5.155   3.041 -2.1892  2.7505  0.3117
 2871TIP3    H230173   5.638   5.040   3.050  0.2624  0.6284  1.1312
 2872TIP3   OH230174   5.814   1.455   7.114 -0.3510 -0.1407 -0.0282
 2872TIP3    H130175   5.736   1.444   7.058 -0.5403 -0.2939  0.2618
 2872TIP3    H230176   5.886   1.424   7.060 -0.3706  0.7633 -0.6069
 2873TIP3   OH230177   2.416   6.546   0.361  0.8159  0.8091 -0.4217
 2873TIP3    H130178   2.380   6.556   0.273 -1.2504  0.3735  0.3171
 2873TIP3    H230179   2.494   6.491   0.348 -0.7286 -1.2421 -1.7578
 2874TIP3   OH230180   2.603   6.081   1.833 -0.1072 -0.1211  0.2312
 2874TIP3    H130181   2.679   6.050   1.784  0.2041  1.5044 -0.4012
 2874TIP3    H230182   2.528   6.048   1.784  0.1438 -2.3274  1.2456
 2875TIP3   OH230183   6.241   1.623   0.555 -1.1662 -0.2854  0.0524
 2875TIP3    H130184   6.332   1.615   0.525 -1.3717  1.1719 -1.1009
 2875TIP3    H230185   6.190   1.590   0.481 -1.5895 -1.4768  0.8550
 2876TIP3   OH230186   2.759   3.175   1.948 -0.0809 -0.4299 -0.7572
 2876TIP3    H130187   2.699   3.124   1.893 -0.5477  0.2280 -0.8657
 2876TIP3    H230188   2.769   3.258   1.902  2.0551 -1.0200 -1.4878
 2877TIP3   OH230189   4.668   0.286   2.752  0.0356 -0.0107  0.2368
 2877TIP3    H130190   4.622   0.369   2.745  0.1952 -0.0169 -1.3919
 2877TIP3    H230191   4.671   0.267   2.846  0.0260  1.8244  0.6356
 2878TIP3   OH230192   2.747   2.462   2.216  0.1980 -0.0499 -0.6069
 2878TIP3    H130193   2.717   2.548   2.187  1.1177  0.5146  0.0550
 2878TIP3    H230194   2.673   2.424   2.263 -0.1257  0.4914 -0.6788
 2879TIP3   OH230195   2.451   3.661   0.923  0.0801 -0.4444 -0.1202
 2879TIP3    H130196   2.530   3.627   0.966 -0.5683 -0.4924  1.0688
 2879TIP3    H230197   2.392   3.682   0.995 -0.5955  0.5992 -0.9605
 2880TIP3   OH230198   2.361   5.742   1.949  0.3859  0.3651 -0.1749
 2880TIP3    H130199   2.367   5.762   1.855 -0.9073  1.0239 -0.1389
 2880TIP3    H230200   2.452   5.728   1.976  0.7810  0.1809 -1.5229
 2881TIP3   OH230201   0.920   6.666   0.548 -0.5010 -0.0835 -0.3016
 2881TIP3    H130202   0.846   6.677   0.607  0.6966  1.6538  0.9826
 2881TIP3    H230203   0.976   6.743   0.565  0.6829 -0.3709 -2.5459
 2882TIP3   OH230204   1.151   0.702   0.922  0.0141  0.3432 -0.5693
 2882TIP3    H130205   1.194   0.745   0.848 -0.8559 -0.6090 -1.6599
 2882TIP3    H230206   1.098   0.771   0.962 -0.0226  0.7006 -1.2256
 2883TIP3   OH230207   6.711   1.870   8.198 -0.3420 -0.0596  0.0231
 2883TIP3    H130208   6.640   1.807   8.209 -0.2739 -0.8030 -2.9098
 2883TIP3    H230209   6.671   1.955   8.214 -1.5852 -0.5604 -0.3281
 2884TIP3   OH230210   3.295   4.005   3.389  0.5994 -0.4216  0.5196
 2884TIP3    H130211   3.380   4.048   3.389  0.6986 -0.5769  1.6726
 2884TIP3    H230212   3.244   4.051   3.322  1.9361 -1.0836 -1.0176
 2885TIP3   OH230213   6.168   5.327   3.292 -0.1972 -0.4230 -0.1441
 2885TIP3    H130214   6.096   5.377   3.332 -0.4903 -0.1385 -1.0075
 2885TIP3    H230215   6.165   5.351   3.199  1.6283  0.3767 -0.0480
 2886TIP3   OH230216   2.647   2.170   3.439  0.0874 -0.4717 -0.3365
 2886TIP3    H130217   2.580   2.119   3.394  1.0880 -1.6348 -0.5581
 2886TIP3    H230218   2.611   2.259   3.442 -2.2917 -1.4033  1.2529
 2887TIP3   OH230219   2.727   5.321   0.483 -0.4438 -0.7513 -0.4164
 2887TIP3    H130220   2.781   5.346   0.558  0.9617 -1.7648 -1.0482
 2887TIP3    H230221   2.655   5.270   0.521  0.0842 -0.9966  0.2850
 2888TIP3   OH230222   2.192   2.984   8.091  0.0254  0.3829  0.4159
 2888TIP3    H130223   2.108   2.990   8.046  1.5315  0.2381 -2.6633
 2888TIP3    H230224   2.230   3.071   8.081  2.3400 -0.8069 -3.0036
 2889TIP3   OH230225   5.388   5.937   2.977 -0.2960  0.2738  0.0524
 2889TIP3    H130226   5.479   5.947   2.947 -0.7154 -2.2369 -2.3660
 2889TIP3    H230227   5.340   6.006   2.932 -0.1413 -0.6127 -1.5168
 2890TIP3   OH230228   2.094   4.441   1.992  0.3968 -0.1166 -0.0877
 2890TIP3    H130229   2.170   4.429   1.936  0.4551 -2.3383  0.3950
 2890TIP3    H230230   2.129   4.434   2.081 -0.1564  0.3988  0.1777
 2891TIP3   OH230231   1.768   2.305   1.068 -0.1210 -0.3763 -0.4574
 2891TIP3    H130232   1.817   2.260   1.000  0.1908 -2.0935  0.8192
 2891TIP3    H230233   1.679   2.269   1.060 -0.4195  0.4214 -0.8004
 2892TIP3   OH230234   2.853   0.024   7.445 -0.0571  0.4284  0.0734
 2892TIP3    H130235   2.930   0.004   7.498 -0.2253  0.0954  0.1955
 2892TIP3    H230236   2.847   0.119   7.447  1.0651  0.5424 -0.9462
 2893TIP3   OH230237   1.602   6.049   2.481  0.3380 -0.3051 -0.3938
 2893TIP3    H130238   1.663   6.087   2.544 -0.9098  0.3678  0.4606
 2893TIP3    H230239   1.523   6.032   2.533 -0.6794  0.1624 -1.7452
 2894TIP3   OH230240   0.227   1.607   3.132 -0.5712 -0.6426  0.7412
 2894TIP3    H130241   0.315   1.569   3.128 -0.9999 -1.6813  0.6147
 2894TIP3    H230242   0.208   1.633   3.042 -0.1581  0.1514  0.8825
 2895TIP3   OH230243   6.314   4.680   2.856  0.0496 -0.3005 -0.1563
 2895TIP3    H130244   6.222   4.683   2.831 -0.1774 -0.2667  0.6387
 2895TIP3    H230245   6.352   4.612   2.801  0.4156  2.1310 -3.1525
 2896TIP3   OH230246   6.788   3.980   3.758  0.4023  0.0874 -0.1882
 2896TIP3    H130247   6.865   4.034   3.743  1.3823 -1.3465 -0.4880
 2896TIP3    H230248   6.814   3.892   3.732 -2.0890 -0.0688 -2.6580
 2897TIP3   OH230249   3.590   2.030   3.533 -0.2990 -0.2176 -0.8750
 2897TIP3    H130250   3.669   2.072   3.566 -0.5684 -0.5894  0.2749
 2897TIP3    H230251   3.559   2.088   3.464  0.0929  0.7649 -0.2427
 2898TIP3   OH230252   2.887   1.542   0.930 -0.1929 -0.8195  0.0329
 2898TIP3    H130253   2.844   1.502   1.006 -1.0985 -1.8351 -0.9778
 2898TIP3    H230254   2.833   1.516   0.856 -0.6002  1.9790 -0.7612
 2899TIP3   OH230255   3.647   5.479   1.795  0.5750 -0.3922 -0.1089
 2899TIP3    H130256   3.660   5.541   1.867  0.7858 -0.3864 -0.1523
 2899TIP3    H230257   3.655   5.531   1.716 -2.0804  0.1072 -0.1511
 2900TIP3   OH230258   2.451   4.389   3.559  0.3698  0.1242  0.8144
 2900TIP3    H130259   2.512   4.316   3.561  0.2079 -0.0629 -0.4194
 2900TIP3    H230260   2.499   4.459   3.515 -0.5179 -0.2443 -0.7910
 2901TIP3   OH230261   1.003   0.018   2.377 -0.0585  0.0188 -0.5122
 2901TIP3    H130262   1.051   0.101   2.384 -1.1427  0.6337 -0.2235
 2901TIP3    H230263   1.024  -0.028   2.458  1.1598 -0.3458 -1.0081
 2902TIP3   OH230264   0.938   6.630   0.159  0.1813 -0.5652  0.2676
 2902TIP3    H130265   0.883   6.632   0.238  0.6313  3.4534  0.6906
 2902TIP3    H230266   1.021   6.593   0.189 -0.1452 -0.4794  1.3305
 2903TIP3   OH230267   4.351   3.270   1.575 -0.2973  0.3928 -0.2165
 2903TIP3    H130268   4.351   3.175   1.564  0.9294  0.3611 -0.0480
 2903TIP3    H230269   4.427   3.300   1.525  1.1489  0.9646  2.1837
 2904TIP3   OH230270   4.750   0.593   2.918 -0.4781  0.0729  0.1956
 2904TIP3    H130271   4.843   0.612   2.927 -0.7036  1.7161 -0.5178
 2904TIP3    H230272   4.735   0.592   2.824 -1.3988  1.1391  0.3082
 2905TIP3   OH230273   6.660   4.472   7.055  0.1626  0.7537  0.2137
 2905TIP3    H130274   6.749   4.466   7.020 -0.6259  2.3577 -2.3044
 2905TIP3    H230275   6.661   4.550   7.110  0.1033  1.3467 -0.6079
 2906TIP3   OH230276   4.879   6.728   2.075  0.4371 -0.0294  0.2808
 2906TIP3    H130277   4.870   6.761   2.165  1.6804  1.4421 -0.0834
 2906TIP3    H230278   4.808   6.664   2.065  0.0657  0.0382  2.1850
 2907TIP3   OH230279   0.059   0.352   1.233 -0.2055 -0.7541 -0.1086
 2907TIP3    H130280   0.153   0.370   1.232 -0.4724  0.7411 -1.2079
 2907TIP3    H230281   0.041   0.321   1.322  0.6768  2.6934  1.4367
 2908TIP3   OH230282   5.880   2.617   1.605  0.6045  0.1353 -0.3624
 2908TIP3    H130283   5.854   2.668   1.529  0.8241 -1.2598 -1.4001
 2908TIP3    H230284   5.884   2.527   1.574  2.6106 -0.2311  0.7911
 2909TIP3   OH230285   1.846   5.226   0.630 -0.0461 -0.0584  0.1580
 2909TIP3    H130286   1.770   5.173   0.606 -0.1149 -0.0095  0.2687
 2909TIP3    H230287   1.840   5.304   0.574 -0.4640  0.2762  0.6632
 2910TIP3   OH230288   1.983   3.383   0.118 -0.2468  0.3259  0.1966
 2910TIP3    H130289   1.927   3.413   0.047 -0.0927  0.4145  0.1139
 2910TIP3    H230290   1.972   3.288   0.119 -0.0556  0.3007 -0.1040
 2911TIP3   OH230291   5.341   0.762   0.129  0.3865  0.2867  0.0772
 2911TIP3    H130292   5.406   0.828   0.153  0.7088 -0.1963  0.5406
 2911TIP3    H230293   5.391   0.680   0.122 -0.0366  0.0607 -0.3336
 2912TIP3   OH230294   6.783   2.489   1.673 -0.3616  0.4000 -0.3217
 2912TIP3    H130295   6.820   2.547   1.606 -1.0857  0.8819 -0.3155
 2912TIP3    H230296   6.832   2.407   1.663 -0.1719  0.6067 -1.1553
 2913TIP3   OH230297   0.556   2.326   1.497 -0.3800  1.0819  0.5022
 2913TIP3    H130298   0.562   2.240   1.539  0.2373  1.7416  1.8097
 2913TIP3    H230299   0.606   2.316   1.416 -1.4497 -0.1651 -0.0397
 2914TIP3   OH230300   1.313   1.442   1.967  0.0995 -0.0843 -0.0473
 2914TIP3    H130301   1.311   1.421   1.873 -1.0027  0.7561 -0.2342
 2914TIP3    H230302   1.331   1.536   1.969 -0.1878 -0.0444  0.5802
 2915TIP3   OH230303   6.104   5.851   1.553  0.7221  0.6711  0.0304
 2915TIP3    H130304   6.052   5.905   1.613  1.0475  0.7267  0.2640
 2915TIP3    H230305   6.097   5.762   1.588  1.1225  0.7451  0.2966
 2916TIP3   OH230306   1.345   4.716   2.208 -0.2480  0.4130 -0.6639
 2916TIP3    H130307   1.377   4.649   2.269  0.4034  0.1514 -1.2714
 2916TIP3    H230308   1.386   4.797   2.238 -0.2244  0.3551 -0.5358
 2917TIP3   OH230309   4.752   5.990   0.149  0.1462  0.0509 -0.8242
 2917TIP3    H130310   4.678   5.931   0.165  0.6041 -0.3195  0.0262
 2917TIP3    H230311   4.729   6.071   0.195  0.4480 -0.2166 -0.1834
 2918TIP3   OH230312   0.455   4.707   0.048 -0.4375 -0.6851 -0.2799
 2918TIP3    H130313   0.529   4.654   0.078  0.8411  1.8983  1.5149
 2918TIP3    H230314   0.378   4.658   0.077  0.4596 -3.1995 -1.7641
 2919TIP3   OH230315   1.942   2.582   6.941 -0.0291 -0.0803  0.1530
 2919TIP3    H130316   2.015   2.519   6.943  0.6551  0.7063  0.4944
 2919TIP3    H230317   1.865   2.528   6.923  0.4486 -1.1185  1.0556
 2920TIP3   OH230318   1.323   5.498   2.030 -0.1406 -0.0321 -0.4454
 2920TIP3    H130319   1.338   5.507   2.124  0.1022 -0.7994 -0.4068
 2920TIP3    H230320   1.247   5.441   2.023  0.4116 -0.7570 -0.7169
 2921TIP3   OH230321   6.839   0.434   0.794 -0.2603  0.5777  0.5038
 2921TIP3    H130322   6.877   0.491   0.862  1.2734 -0.2854  0.4115
 2921TIP3    H230323   6.883   0.462   0.713 -1.0229  0.6353  0.1049
 2922TIP3   OH230324   3.613   7.018   8.253 -0.4147 -0.3280 -0.1552
 2922TIP3    H130325   3.576   7.103   8.278 -0.5996 -0.5755  0.4409
 2922TIP3    H230326   3.601   7.013   8.158 -1.5875 -0.2350 -0.0290
 2923TIP3   OH230327   3.493   0.222   1.991  0.4510  0.1839 -0.3467
 2923TIP3    H130328   3.448   0.238   1.909  0.6583  1.4054 -0.2313
 2923TIP3    H230329   3.578   0.264   1.981 -0.2357  2.0913  1.1801
 2924TIP3   OH230330   6.495   3.756   3.500 -0.0810 -0.1994 -0.4990
 2924TIP3    H130331   6.554   3.695   3.546  0.5516 -0.2199 -1.3063
 2924TIP3    H230332   6.546   3.836   3.491 -0.9510  0.5192  0.6536
 2925TIP3   OH230333   1.363   5.467   0.587  0.2679 -0.2714 -0.1167
 2925TIP3    H130334   1.371   5.438   0.678 -0.5031  1.4124  0.5177
 2925TIP3    H230335   1.276   5.505   0.581  1.2973  2.2029 -0.7611
 2926TIP3   OH230336   6.565   3.021   1.495 -0.0695 -0.1462 -0.5524
 2926TIP3    H130337   6.652   3.054   1.516 -0.6718  0.8765  0.4057
 2926TIP3    H230338   6.505   3.090   1.523 -1.4057 -2.0217  1.6159
 2927TIP3   OH230339   0.403   1.778   1.242 -0.3634  0.1612 -0.2865
 2927TIP3    H130340   0.313   1.751   1.229 -0.1865 -0.1289 -0.9506
 2927TIP3    H230341   0.446   1.701   1.280 -0.3919  0.2962  0.0218
 2928TIP3   OH230342   3.527   4.959   1.916 -0.6291  0.3689 -0.0919
 2928TIP3    H130343   3.617   4.930   1.926 -0.6091  0.6073  0.4581
 2928TIP3    H230344   3.486   4.892   1.862  0.0667  0.6396 -0.9948
 2929TIP3   OH230345   0.402   0.781   0.857  0.0754 -0.4099 -0.0112
 2929TIP3    H130346   0.347   0.853   0.824  0.0150  0.0423  1.0232
 2929TIP3    H230347   0.425   0.808   0.946  2.1365 -0.5009 -0.4739
 2930TIP3   OH230348   2.936   4.794   0.964 -0.3025 -0.1432 -0.0822
 2930TIP3    H130349   3.001   4.824   1.028 -1.3476  1.2452  0.3855
 2930TIP3    H230350   2.987   4.776   0.885  1.0999 -2.4732  1.2374
 2931TIP3   OH230351   5.401   1.118   1.894 -0.0845 -0.1286 -0.0740
 2931TIP3    H130352   5.380   1.206   1.862 -2.5144 -1.3487 -2.2305
 2931TIP3    H230353   5.496   1.109   1.878  0.4657  2.4179  1.2665
 2932TIP3   OH230354   4.220   3.887   1.123 -0.3624 -0.1356 -0.3846
 2932TIP3    H130355   4.150   3.869   1.060 -0.9012 -0.6350  0.3339
 2932TIP3    H230356   4.185   3.956   1.179  0.1103  0.2997 -0.6143
 2933TIP3   OH230357   1.022   3.891   3.222 -0.4832 -0.4069  0.1666
 2933TIP3    H130358   1.077   3.962   3.254 -0.3106  0.3675 -1.6974
 2933TIP3    H230359   0.934   3.913   3.251 -1.1164  2.6388 -3.2876
 2934TIP3   OH230360   1.857   4.307   1.218  0.5277  0.2846  0.0161
 2934TIP3    H130361   1.804   4.328   1.142  0.4079  2.3385  0.5977
 2934TIP3    H230362   1.793   4.292   1.288  0.6300 -1.7251 -0.2547
 2935TIP3   OH230363   4.723   3.598   2.160  1.1127 -0.5124  0.4384
 2935TIP3    H130364   4.646   3.551   2.129  1.3381 -1.0851  0.7449
 2935TIP3    H230365   4.692   3.688   2.174  0.3354 -0.8926  1.2299
 2936TIP3   OH230366   3.204   0.113   1.441  0.2673 -0.3968  0.1190
 2936TIP3    H130367   3.220   0.025   1.474  0.0581 -0.5643 -0.2231
 2936TIP3    H230368   3.216   0.170   1.518  1.7788 -0.5794  0.0440
 2937TIP3   OH230369   5.234   5.661   3.257  0.0810 -0.2387  0.8497
 2937TIP3    H130370   5.141   5.635   3.256 -0.0702  0.2576 -0.6128
 2937TIP3    H230371   5.274   5.609   3.188  0.6287  0.4518  0.6360
 2938TIP3   OH230372   7.034   3.696   0.493 -0.1118  0.5553 -0.0505
 2938TIP3    H130373   7.057   3.606   0.514  1.6190  0.7741 -0.8747
 2938TIP3    H230374   6.949   3.690   0.449  0.9212 -0.9168 -1.9882
 2939TIP3   OH230375   1.241   3.104   7.650 -0.1006 -0.2742  0.1928
 2939TIP3    H130376   1.240   3.189   7.606 -1.0518 -1.3964 -2.1366
 2939TIP3    H230377   1.334   3.087   7.666  0.2437  0.4828 -0.8598
 2940TIP3   OH230378   5.318   2.212   7.285 -0.2217 -0.2804  0.2457
 2940TIP3    H130379   5.276   2.291   7.317 -1.9496 -1.1785  0.2713
 2940TIP3    H230380   5.407   2.241   7.261 -0.9557  1.7528 -0.2313
 2941TIP3   OH230381   5.615   6.540   2.250 -0.7022 -0.9493  0.2869
 2941TIP3    H130382   5.611   6.633   2.272  0.3100 -1.1433  1.4302
 2941TIP3    H230383   5.625   6.496   2.335  0.0622 -2.0070 -0.3260
 2942TIP3   OH230384   4.644   3.738   8.195  0.3815 -0.6152 -0.2524
 2942TIP3    H130385   4.691   3.809   8.238 -0.1217  0.4430 -1.3832
 2942TIP3    H230386   4.701   3.662   8.204  1.4372  0.1928  0.0406
 2943TIP3   OH230387   3.922   2.657   3.233  0.1003 -0.4096 -0.1127
 2943TIP3    H130388   3.921   2.753   3.222  1.2826 -0.4012 -0.3397
 2943TIP3    H230389   3.983   2.642   3.306  0.7425 -1.0295 -0.7582
 2944TIP3   OH230390   3.566   6.136   8.095 -0.2183 -0.0979 -0.2452
 2944TIP3    H130391   3.472   6.123   8.105  0.1121 -1.0262  2.8952
 2944TIP3    H230392   3.600   6.049   8.076  0.0696  0.1076 -0.6812
 2945TIP3   OH230393   1.811   5.504   2.536 -0.4709  0.0935 -0.5557
 2945TIP3    H130394   1.737   5.554   2.502 -1.8265 -0.5120  1.2988
 2945TIP3    H230395   1.791   5.492   2.629  2.3555  0.5257  0.1988
 2946TIP3   OH230396   3.345   2.547   1.152  0.1390 -0.1206  0.8778
 2946TIP3    H130397   3.319   2.579   1.065 -0.0628 -0.1775  0.9165
 2946TIP3    H230398   3.386   2.462   1.134  1.1094  0.3657  0.7269
 2947TIP3   OH230399   5.573   6.499   7.813  0.0322  0.2163 -0.0016
 2947TIP3    H130400   5.506   6.565   7.828  0.2858  0.6408 -0.6374
 2947TIP3    H230401   5.554   6.465   7.725  0.5669  0.2539 -0.1375
 2948TIP3   OH230402   6.665   7.004   1.288 -0.2312  0.4236  0.7154
 2948TIP3    H130403   6.695   6.977   1.374  1.6548  0.8855  0.2418
 2948TIP3    H230404   6.678   6.927   1.232 -1.7337  0.0259  0.8775
 2949TIP3   OH230405   6.428   3.324   1.540  0.5384  0.0567 -0.2907
 2949TIP3    H130406   6.399   3.300   1.628  0.8234  0.1277 -0.1761
 2949TIP3    H230407   6.517   3.358   1.553  0.9870 -0.9234 -0.7468
 2950TIP3   OH230408   6.035   4.441   1.505 -0.5889  0.0125  0.0722
 2950TIP3    H130409   6.039   4.461   1.411  2.1465 -3.5635 -0.7965
 2950TIP3    H230410   5.962   4.380   1.512  0.0443 -0.7707 -0.0275
 2951TIP3   OH230411   2.954   6.949   3.098 -0.1612 -0.0603  0.0826
 2951TIP3    H130412   2.949   6.854   3.084 -0.5461  0.2003 -1.7357
 2951TIP3    H230413   2.863   6.978   3.099 -0.2687 -0.0210  3.6500
 2952TIP3   OH230414   0.596   0.552   2.415  1.2791 -0.9018 -0.3618
 2952TIP3    H130415   0.515   0.505   2.393  0.5948  0.5635 -1.1631
 2952TIP3    H230416   0.592   0.631   2.361  1.9938  0.4540  1.4832
 2953TIP3   OH230417   4.558   3.474   7.893 -0.0699 -0.3105 -0.1395
 2953TIP3    H130418   4.637   3.510   7.852 -0.8571 -0.3959 -1.7997
 2953TIP3    H230419   4.527   3.408   7.831 -1.1089 -0.7224  0.7938
 2954TIP3   OH230420   4.637   2.935   3.614 -0.0517 -0.4959  0.0128
 2954TIP3    H130421   4.649   2.842   3.595 -0.5227 -0.6765  0.5639
 2954TIP3    H230422   4.714   2.960   3.664  0.2902 -0.4737 -0.5117
 2955TIP3   OH230423   2.828   6.765   1.816  0.1115 -0.2768  0.2074
 2955TIP3    H130424   2.870   6.810   1.889  1.7343  0.3181 -1.0268
 2955TIP3    H230425   2.746   6.731   1.852  0.4387  0.7701  2.0450
 2956TIP3   OH230426   0.333   3.504   7.632 -0.5533 -0.3783  0.7401
 2956TIP3    H130427   0.265   3.473   7.573 -0.4288  1.1051 -0.2273
 2956TIP3    H230428   0.409   3.449   7.612 -0.2055  0.7302 -1.2395
 2957TIP3   OH230429   0.792   2.050   2.195 -0.0108 -0.3147 -0.0722
 2957TIP3    H130430   0.800   2.142   2.169 -0.0587 -0.4221 -0.4738
 2957TIP3    H230431   0.700   2.039   2.215  0.1111 -0.1028  0.6543
 2958TIP3   OH230432   3.879   3.165   2.141 -0.1121 -0.2121  0.7993
 2958TIP3    H130433   3.812   3.133   2.080 -0.1092 -0.7972  1.0949
 2958TIP3    H230434   3.953   3.190   2.085 -0.0772 -0.8274  0.5653
 2959TIP3   OH230435   6.714   3.038   3.336 -0.0853  0.5977 -0.2488
 2959TIP3    H130436   6.774   2.986   3.389 -0.3090  1.6878  1.1527
 2959TIP3    H230437   6.627   3.002   3.354 -0.3925  2.1265  1.6963
 2960TIP3   OH230438   2.581   6.032   7.820  0.1700  0.8898 -0.1396
 2960TIP3    H130439   2.555   6.101   7.759  2.9377  1.4301 -0.8521
 2960TIP3    H230440   2.676   6.025   7.809  0.4424 -0.6570  2.4182
 2961TIP3   OH230441   3.877   3.673   1.650 -0.1044 -0.1051  0.1962
 2961TIP3    H130442   3.865   3.654   1.556 -0.0287 -1.1018  0.3742
 2961TIP3    H230443   3.795   3.645   1.690  0.8145 -2.2026  0.7559
 2962TIP3   OH230444   6.876   6.454   1.370 -0.0636  0.6329 -0.4569
 2962TIP3    H130445   6.827   6.428   1.447  1.5811 -0.0867  0.3807
 2962TIP3    H230446   6.819   6.433   1.296 -0.8237 -0.5940  0.4634
 2963TIP3   OH230447   3.063   0.190   2.185  0.1625  0.1088 -0.2251
 2963TIP3    H130448   3.036   0.159   2.272  1.5051 -0.7707 -0.0815
 2963TIP3    H230449   3.143   0.141   2.167  0.6386  1.2676 -1.3889
 2964TIP3   OH230450   2.204   4.109   2.285  0.1135  0.0972  0.0975
 2964TIP3    H130451   2.186   4.048   2.213  0.9435 -0.7908  0.6147
 2964TIP3    H230452   2.127   4.165   2.288 -0.3568 -0.4581 -0.8723
 2965TIP3   OH230453   2.514   2.966   1.385 -0.1427  0.1054 -0.1050
 2965TIP3    H130454   2.509   2.887   1.331  0.5012  0.8139 -1.2322
 2965TIP3    H230455   2.424   2.982   1.413 -0.3594 -0.7268 -0.2956
 2966TIP3   OH230456   6.346   6.180   7.231  0.0985  0.0007  0.3801
 2966TIP3    H130457   6.307   6.142   7.310  0.4024 -0.8891  0.1093
 2966TIP3    H230458   6.435   6.145   7.229  0.1857  0.2478 -0.2095
 2967TIP3   OH230459   2.159   5.226   8.110  0.7648 -0.6188 -0.0152
 2967TIP3    H130460   2.216   5.203   8.183 -1.7852 -0.9027  2.0648
 2967TIP3    H230461   2.119   5.142   8.084 -0.3448 -0.1569  0.1360
 2968TIP3   OH230462   5.670   5.772   0.773 -0.0146 -0.0304  0.3672
 2968TIP3    H130463   5.632   5.849   0.730  0.2231  0.3792  0.8792
 2968TIP3    H230464   5.620   5.698   0.738  0.5183  0.2342 -1.0161
 2969TIP3   OH230465   4.037   1.368   7.811  0.5904 -0.2749 -0.0092
 2969TIP3    H130466   4.040   1.330   7.898 -0.2976  0.1193  0.2038
 2969TIP3    H230467   3.962   1.326   7.769  1.0981 -0.5748 -0.6490
 2970TIP3   OH230468   1.651   5.475   1.245 -0.4855  0.4234 -0.2061
 2970TIP3    H130469   1.739   5.510   1.261  0.7367 -3.5050  3.3113
 2970TIP3    H230470   1.666   5.386   1.214 -3.2123 -0.5264  0.9661
 2971TIP3   OH230471   5.611   6.578   1.971  0.0402  0.3848  0.1792
 2971TIP3    H130472   5.647   6.666   1.965  2.7852 -0.7184 -1.3352
 2971TIP3    H230473   5.629   6.550   2.061  0.9555  0.6747  0.0912
 2972TIP3   OH230474   5.625   2.164   2.360 -0.5466 -0.0843  0.1827
 2972TIP3    H130475   5.599   2.210   2.439 -0.2466  0.3596  0.0291
 2972TIP3    H230476   5.550   2.173   2.301  0.9610  4.0025 -1.4950
 2973TIP3   OH230477   1.450   4.505   1.301  0.2234  0.2873  0.2543
 2973TIP3    H130478   1.506   4.583   1.301 -0.3700  0.8079  2.8252
 2973TIP3    H230479   1.368   4.534   1.261 -0.8423  1.7818  3.2427
 2974TIP3   OH230480   3.618   2.228   2.129 -0.0511  0.1881  0.5112
 2974TIP3    H130481   3.614   2.159   2.195 -0.5721  0.1790  0.4711
 2974TIP3    H230482   3.695   2.280   2.153 -0.3647  0.3203  1.2604
 2975TIP3   OH230483   5.308   4.464   1.044 -0.4858  0.5758 -0.4001
 2975TIP3    H130484   5.321   4.377   1.083  0.5609  1.6271  1.7903
 2975TIP3    H230485   5.393   4.487   1.007 -0.1141  1.5093  0.9613
 2976TIP3   OH230486   0.478   6.945   2.540  0.2597 -0.3506  0.0216
 2976TIP3    H130487   0.511   7.002   2.610 -0.0505 -0.3071  0.1315
 2976TIP3    H230488   0.557   6.901   2.507  0.1063 -2.8923  2.6037
 2977TIP3   OH230489   2.318   3.773   1.449 -0.1713  0.6409  0.3065
 2977TIP3    H130490   2.331   3.691   1.496 -1.7467 -0.0577 -0.3834
 2977TIP3    H230491   2.333   3.842   1.514  0.1583 -0.2217  1.1565
 2978TIP3   OH230492   4.852   3.018   8.228  0.9230 -0.2762 -0.0152
 2978TIP3    H130493   4.794   3.027   8.153 -0.2158  1.0559  0.9602
 2978TIP3    H230494   4.809   2.954   8.284  0.0082  1.1243  0.9746
 2979TIP3   OH230495   4.169   2.325   1.408 -0.4958 -0.5748 -0.0250
 2979TIP3    H130496   4.164   2.349   1.315 -1.8477  1.6911  0.5632
 2979TIP3    H230497   4.078   2.326   1.438  0.0725  1.0341  1.8366
 2980TIP3   OH230498   0.703   2.939   0.536  0.3133 -0.2583 -0.3344
 2980TIP3    H130499   0.754   2.860   0.555  1.5696  0.2259 -1.5563
 2980TIP3    H230500   0.768   3.004   0.509 -0.6632  1.2990  0.8621
 2981TIP3   OH230501   3.442   0.727   1.951  0.1360  0.5189 -0.1986
 2981TIP3    H130502   3.537   0.736   1.948  0.1800  0.9097  1.4939
 2981TIP3    H230503   3.427   0.638   1.982 -0.0115  0.8719  0.7805
 2982TIP3   OH230504   6.975   4.855   3.344  0.5605 -0.1257  0.4671
 2982TIP3    H130505   6.963   4.939   3.388 -2.4672  1.3924 -2.8096
 2982TIP3    H230506   7.067   4.856   3.317  0.3597  2.6651 -0.3864
 2983TIP3   OH230507   5.951   2.446   0.410 -0.4639 -0.1667  0.4038
 2983TIP3    H130508   6.017   2.396   0.361  1.0164  0.1203  1.9941
 2983TIP3    H230509   5.949   2.404   0.496 -1.4408  0.6331  0.7861
 2984TIP3   OH230510   0.185   2.457   7.553  0.2477  0.4026 -0.0432
 2984TIP3    H130511   0.090   2.454   7.566  0.4436 -0.4101  1.4419
 2984TIP3    H230512   0.198   2.523   7.485 -1.5320 -1.1233 -2.0066
 2985TIP3   OH230513   2.668   0.948   0.184  0.0255  0.4526 -0.4496
 2985TIP3    H130514   2.734   0.987   0.126  1.1116 -0.0505  0.4042
 2985TIP3    H230515   2.669   1.004   0.262  0.2242 -0.1652  0.0020
 2986TIP3   OH230516   0.338   2.652   0.137 -0.2322 -0.4705  0.1824
 2986TIP3    H130517   0.314   2.619   0.224 -1.1821 -0.6215 -0.1245
 2986TIP3    H230518   0.415   2.601   0.112 -0.2046 -0.7166  0.7589
 2987TIP3   OH230519   0.670   6.165   3.221 -0.5416 -0.3941 -0.0466
 2987TIP3    H130520   0.689   6.249   3.179 -0.0996 -1.2002 -1.5121
 2987TIP3    H230521   0.713   6.100   3.166 -0.4589 -1.5637  1.3391
 2988TIP3   OH230522   2.403   1.806   1.234 -0.1420 -0.4728 -0.3864
 2988TIP3    H130523   2.364   1.726   1.201 -0.4862 -0.2156 -0.6083
 2988TIP3    H230524   2.463   1.777   1.303 -0.4743 -0.8944 -0.2713
 2989TIP3   OH230525   2.441   4.035   1.282 -0.3573 -0.2935 -0.0766
 2989TIP3    H130526   2.452   4.027   1.377  0.4988 -1.5122 -0.2552
 2989TIP3    H230527   2.486   4.118   1.261 -1.2304  0.3942  0.6592
 2990TIP3   OH230528   2.438   1.394   0.972 -0.2154  0.1724  0.1559
 2990TIP3    H130529   2.364   1.385   1.033  2.2319  0.0931  3.3720
 2990TIP3    H230530   2.452   1.305   0.938  0.1134 -0.4309  1.7803
 2991TIP3   OH230531   5.640   6.824   8.059  0.0277  0.1176 -0.2654
 2991TIP3    H130532   5.697   6.765   8.010 -1.0114 -0.4067 -0.8728
 2991TIP3    H230533   5.700   6.880   8.108  1.0487 -1.0963 -0.0707
 2992TIP3   OH230534   4.181   5.257   2.270 -0.3517 -0.0395 -0.0401
 2992TIP3    H130535   4.149   5.232   2.183 -0.9720 -2.2713  0.7577
 2992TIP3    H230536   4.275   5.271   2.258 -0.6238  0.9038 -1.2761
 2993TIP3   OH230537   2.711   4.084   1.513  0.3368  0.1759  0.3648
 2993TIP3    H130538   2.756   4.141   1.451 -0.9412 -0.8575 -1.6332
 2993TIP3    H230539   2.775   4.014   1.531  0.0117 -0.7293 -1.6439
 2994TIP3   OH230540   4.582   4.169   2.327  0.0858  0.0229  0.1562
 2994TIP3    H130541   4.567   4.152   2.234  0.7059 -0.1677  0.0905
 2994TIP3    H230542   4.511   4.229   2.351 -0.7068 -0.7469 -0.1828
 2995TIP3   OH230543   2.814   3.970   2.036 -0.8033  0.5722  0.0693
 2995TIP3    H130544   2.865   4.025   1.977 -0.5478 -0.9467 -1.1852
 2995TIP3    H230545   2.875   3.904   2.068 -1.2847  0.5171  0.9136
 2996TIP3   OH230546   3.406   6.368   8.082  0.1715 -0.3625 -0.8716
 2996TIP3    H130547   3.395   6.439   8.020 -2.3733 -0.8917 -1.1237
 2996TIP3    H230548   3.479   6.317   8.048 -0.8002 -0.3258 -3.1483
 2997TIP3   OH230549   2.442   5.763   1.370  0.0918 -0.1253 -0.4276
 2997TIP3    H130550   2.415   5.831   1.308 -0.2688 -1.1727 -1.4667
 2997TIP3    H230551   2.388   5.778   1.448  0.5458  1.2134 -0.3531
 2998TIP3   OH230552   0.275   0.940   1.344  0.3908 -0.1506 -0.5623
 2998TIP3    H130553   0.191   0.930   1.390  0.8781  0.5207  0.5329
 2998TIP3    H230554   0.264   1.020   1.293  1.1664  1.4272  1.5744
 2999TIP3   OH230555   0.418   3.322   2.247  0.0830 -0.5199 -0.1011
 2999TIP3    H130556   0.505   3.282   2.239  1.0784  1.1940  1.3825
 2999TIP3    H230557   0.390   3.300   2.336 -0.3582  0.1607 -0.0667
 3000TIP3   OH230558   3.019   3.865   8.129  0.1303  0.0834 -0.1462
 3000TIP3    H130559   3.020   3.918   8.049  0.3432 -0.7966 -0.7474
 3000TIP3    H230560   3.097   3.893   8.177 -0.8779  1.8021  0.5818
 3001TIP3   OH230561   7.034   4.819   1.034  0.2705 -0.5740 -0.1735
 3001TIP3    H130562   7.078   4.877   0.972  0.2801 -0.4926 -0.0905
 3001TIP3    H230563   7.105   4.778   1.083  0.2310  0.6499  0.9598
 3002TIP3   OH230564   3.430   5.839   2.107  0.5792 -0.3215 -0.3321
 3002TIP3    H130565   3.481   5.909   2.065  1.1717 -0.8312 -0.4764
 3002TIP3    H230566   3.480   5.817   2.185 -0.3838  0.4408  0.5306
 3003TIP3   OH230567   1.166   6.066   1.995  0.3214  0.2608 -0.0104
 3003TIP3    H130568   1.163   6.146   1.942 -0.2370 -2.1575 -3.9917
 3003TIP3    H230569   1.257   6.037   1.989 -0.2278 -1.2981 -1.9368
 3004TIP3   OH230570   5.319   0.103   1.952  0.4102  0.1266 -0.0372
 3004TIP3    H130571   5.285   0.117   1.863 -0.7354 -0.9788  0.1897
 3004TIP3    H230572   5.362   0.018   1.948 -0.3302 -0.2952  0.6279
 3005TIP3   OH230573   5.958   0.947   7.770  0.3888  0.1074 -0.6654
 3005TIP3    H130574   5.990   0.868   7.726 -1.8812 -2.3391  1.6466
 3005TIP3    H230575   5.867   0.955   7.741  0.6909  2.1482 -1.1452
 3006TIP3   OH230576   5.590   6.084   2.829 -0.0379  0.4052 -0.0472
 3006TIP3    H130577   5.544   6.122   2.754  1.3612 -0.5784 -1.4851
 3006TIP3    H230578   5.641   6.156   2.865 -1.3525  1.0861  0.5036
 3007TIP3   OH230579   0.079   2.499   2.609 -0.0171 -0.4614 -0.3218
 3007TIP3    H130580   0.061   2.412   2.574 -0.1546 -0.4424 -0.2992
 3007TIP3    H230581   0.114   2.482   2.697  0.2871 -0.5066 -0.4533
 3008TIP3   OH230582   5.097   3.529   2.893 -0.2608 -0.1558 -0.2296
 3008TIP3    H130583   5.072   3.462   2.830 -1.7800 -0.9591  1.1396
 3008TIP3    H230584   5.183   3.502   2.924 -0.4457 -0.9702 -0.3955
 3009TIP3   OH230585   3.225   4.036   0.401  0.1392  0.5186  0.0255
 3009TIP3    H130586   3.140   4.055   0.362 -0.1175 -0.0789  0.2720
 3009TIP3    H230587   3.205   4.013   0.492  0.3448 -1.3178 -0.3434
 3010TIP3   OH230588   2.986   5.023   2.160  0.2718 -0.0412  0.1302
 3010TIP3    H130589   3.063   4.982   2.197 -0.3713  0.0133  1.5879
 3010TIP3    H230590   3.012   5.113   2.142  0.4086  0.1217  1.1100
 3011TIP3   OH230591   5.217   5.133   1.668  0.6075 -0.7606 -0.1655
 3011TIP3    H130592   5.262   5.081   1.734  1.1100  1.0456  0.9909
 3011TIP3    H230593   5.148   5.179   1.717  0.3960 -0.0896 -1.0642
 3012TIP3   OH230594   5.557   2.635   0.065 -0.7138 -0.8114  0.3276
 3012TIP3    H130595   5.541   2.714   0.117  0.7585 -0.7075  0.6749
 3012TIP3    H230596   5.607   2.578   0.124  3.1768  0.2792 -1.5894
 3013TIP3   OH230597   6.594   1.184   1.392 -0.0410 -0.9088 -0.0375
 3013TIP3    H130598   6.591   1.166   1.298 -0.0703 -0.0807 -0.2044
 3013TIP3    H230599   6.507   1.159   1.424 -0.3255 -0.4044 -0.3938
 3014TIP3   OH230600   0.162   3.642   1.314 -0.6368 -0.1351 -0.4847
 3014TIP3    H130601   0.111   3.712   1.274  0.5648 -0.0113 -1.8755
 3014TIP3    H230602   0.152   3.568   1.254  0.1847 -0.3366 -0.3931
 3015TIP3   OH230603   0.327   2.671   1.099 -0.1552 -0.6103  0.3091
 3015TIP3    H130604   0.413   2.687   1.137  0.3510  1.1492 -1.4112
 3015TIP3    H230605   0.284   2.757   1.101 -0.6074 -0.7313 -1.7014
 3016TIP3   OH230606   0.279   5.828   3.390 -0.7367 -0.0219 -0.1044
 3016TIP3    H130607   0.362   5.876   3.391 -0.0780 -1.1195 -0.7440
 3016TIP3    H230608   0.220   5.883   3.337 -0.2665  0.4941 -0.1048
 3017TIP3   OH230609   2.581   0.014   7.474 -0.0639 -0.2629  0.1957
 3017TIP3    H130610   2.556   0.105   7.491  0.3890 -0.1341  0.1885
 3017TIP3    H230611   2.676   0.013   7.485  0.0381 -0.5490 -0.6242
 3018TIP3   OH230612   1.785   3.236   1.798 -0.3372 -0.1070 -0.7560
 3018TIP3    H130613   1.723   3.219   1.869  0.6591 -0.3511  0.0862
 3018TIP3    H230614   1.818   3.324   1.815  0.7283 -0.5857 -0.2551
 3019TIP3   OH230615   2.210   5.750   7.823 -0.3039 -0.4370  0.1608
 3019TIP3    H130616   2.225   5.702   7.742 -0.4949  1.3904 -1.0097
 3019TIP3    H230617   2.297   5.773   7.854 -0.2718 -0.0280 -0.2283
 3020TIP3   OH230618   4.252   3.563   3.429  0.0535 -0.1740 -0.3490
 3020TIP3    H130619   4.337   3.606   3.428  0.2084 -0.4423 -2.0359
 3020TIP3    H230620   4.197   3.616   3.371 -1.0915  0.2534  1.0611
 3021TIP3   OH230621   4.518   2.211   0.318  0.6598 -0.3385  0.3857
 3021TIP3    H130622   4.485   2.210   0.408  0.6996 -1.2624  0.4053
 3021TIP3    H230623   4.497   2.124   0.284  1.3703 -0.2849 -0.2302
 3022TIP3   OH230624   0.735   2.591   2.371 -0.1949 -0.0801 -0.6788
 3022TIP3    H130625   0.692   2.507   2.388 -0.4467  0.0596 -0.6291
 3022TIP3    H230626   0.809   2.569   2.314  2.2450 -0.9919  2.5139
 3023TIP3   OH230627   2.395   5.149   3.209 -0.1160 -0.0959  0.5306
 3023TIP3    H130628   2.397   5.163   3.115 -0.3913  0.3672  0.5895
 3023TIP3    H230629   2.313   5.190   3.238  0.5388  0.8108  1.1313
 3024TIP3   OH230630   5.265   1.697   0.633  0.0422  0.2056  0.0295
 3024TIP3    H130631   5.292   1.784   0.663  1.3144  0.0626 -0.6313
 3024TIP3    H230632   5.315   1.683   0.552  0.7152 -1.5918  0.7154
 3025TIP3   OH230633   5.385   3.272   3.269 -0.0064  0.2128  0.6878
 3025TIP3    H130634   5.291   3.260   3.281 -0.5708  2.2764 -1.0578
 3025TIP3    H230635   5.424   3.193   3.305 -2.4114 -0.8158  1.2342
 3026TIP3   OH230636   1.616   5.453   7.318 -0.2074  0.3168 -0.5933
 3026TIP3    H130637   1.627   5.503   7.237  1.8335 -1.9160 -1.8422
 3026TIP3    H230638   1.639   5.363   7.294 -0.6419 -0.6473  2.2222
 3027TIP3   OH230639   3.920   4.770   2.331 -0.2587  0.0040 -0.3314
 3027TIP3    H130640   3.912   4.740   2.241 -0.4100  1.1901 -0.7324
 3027TIP3    H230641   4.007   4.743   2.359  0.5164  1.2526 -1.4715
 3028TIP3   OH230642   3.038   3.784   2.492 -0.4754  0.3461  0.2329
 3028TIP3    H130643   3.066   3.747   2.409 -0.2828 -0.1184  0.4978
 3028TIP3    H230644   2.960   3.733   2.515  0.5009 -0.7692  1.2067
 3029TIP3   OH230645   6.722   4.246   2.847  0.2236 -0.1950 -0.0613
 3029TIP3    H130646   6.690   4.299   2.920  0.0137 -1.5179  0.8420
 3029TIP3    H230647   6.665   4.270   2.773 -0.2210  0.4078  0.4662
 3030TIP3   OH230648   2.794   2.501   8.203 -0.2168  0.2929 -0.6380
 3030TIP3    H130649   2.767   2.409   8.198  0.5376 -0.0495  0.9126
 3030TIP3    H230650   2.877   2.499   8.252 -0.1872  1.8002 -0.5751
 3031TIP3   OH230651   1.821   1.572   2.169 -0.0793 -0.9352  0.1663
 3031TIP3    H130652   1.758   1.590   2.100 -1.0986 -2.2411  0.7283
 3031TIP3    H230653   1.816   1.478   2.183  0.6903 -0.8067  1.4828
 3032TIP3   OH230654   2.261   1.680   7.807  0.4082  0.0238 -0.5329
 3032TIP3    H130655   2.193   1.666   7.873  0.0303  0.7355 -0.7647
 3032TIP3    H230656   2.321   1.607   7.819  1.2193  0.9848  1.6579
 3033TIP3   OH230657   0.048   4.068   7.435  1.2466 -0.3043  0.0374
 3033TIP3    H130658   0.053   4.018   7.354 -1.3666  0.4019 -0.6681
 3033TIP3    H230659   0.044   4.159   7.407  0.1933 -0.0547  0.9055
 3034TIP3   OH230660   6.862   4.639   0.929 -0.3461  0.3253  0.1082
 3034TIP3    H130661   6.786   4.695   0.910 -0.8394  0.1277  1.4130
 3034TIP3    H230662   6.929   4.700   0.959 -0.2538  0.4074 -0.2546
 3035TIP3   OH230663   6.903   5.634   2.768 -0.5460 -0.0474  0.8168
 3035TIP3    H130664   6.809   5.647   2.782 -0.3592  1.1500  1.0259
 3035TIP3    H230665   6.945   5.709   2.809  0.4434  0.0099 -0.2323
 3036TIP3   OH230666   2.910   0.000   1.538  0.0973 -0.0314 -0.0133
 3036TIP3    H130667   2.893   0.094   1.549 -0.6132 -0.2418  0.8220
 3036TIP3    H230668   3.002  -0.005   1.515  0.5135  0.7911  1.3546
 3037TIP3   OH230669   3.792   6.221   0.202  0.3524  0.3725  0.0843
 3037TIP3    H130670   3.780   6.276   0.124  0.8230  0.8795  0.3616
 3037TIP3    H230671   3.719   6.245   0.260 -0.3169 -0.4028 -0.4145
 3038TIP3   OH230672   3.033   1.135   2.862 -0.1252 -0.1647 -0.2346
 3038TIP3    H130673   3.108   1.183   2.897 -0.8081  0.3428  0.5527
 3038TIP3    H230674   2.997   1.193   2.794 -0.9711  0.4872  0.7404
 3039TIP3   OH230675   4.463   2.939   8.221 -0.1423  0.2023  0.2962
 3039TIP3    H130676   4.554   2.968   8.207 -0.0848 -0.8589 -1.8795
 3039TIP3    H230677   4.471   2.848   8.250 -0.5075 -0.2508 -0.9723
 3040TIP3   OH230678   3.969   3.875   0.008 -0.1893 -0.0734 -0.3460
 3040TIP3    H130679   4.005   3.932   0.076  0.2752  0.5884 -1.1300
 3040TIP3    H230680   3.984   3.922  -0.073  0.3384 -1.3693 -1.0453
 3041TIP3   OH230681   2.759   0.635   0.650  0.2468  0.3810 -0.0257
 3041TIP3    H130682   2.664   0.628   0.652  0.1815  1.0809  2.3245
 3041TIP3    H230683   2.776   0.725   0.621  0.0968  0.7990  1.1056
 3042TIP3   OH230684   6.535   5.058   1.692 -0.0624 -0.8190 -0.0513
 3042TIP3    H130685   6.547   5.033   1.784 -1.2311  0.1128  0.3702
 3042TIP3    H230686   6.446   5.030   1.671 -0.0193 -0.4618 -0.7209
 3043TIP3   OH230687   3.529   4.062   6.755 -0.3629 -0.1565  0.1382
 3043TIP3    H130688   3.565   4.099   6.836  1.4170  0.8585 -1.0523
 3043TIP3    H230689   3.594   3.998   6.727  0.2026  1.1298 -1.6567
 3044TIP3   OH230690   6.306   6.934   1.173 -0.3859 -0.2488  0.2129
 3044TIP3    H130691   6.267   6.932   1.260 -0.5326  0.6868  0.1785
 3044TIP3    H230692   6.388   6.982   1.184 -0.7905  0.5927 -0.3043
 3045TIP3   OH230693   0.827   4.250   3.359  0.6432 -0.0616  0.8586
 3045TIP3    H130694   0.734   4.272   3.357  0.4011 -0.1661  4.6535
 3045TIP3    H230695   0.869   4.321   3.310 -1.2301  1.2337  1.0079
 3046TIP3   OH230696   1.025   2.560   1.015 -0.1926  0.2631  0.4861
 3046TIP3    H130697   1.083   2.515   1.077 -1.0263  1.2183  2.0290
 3046TIP3    H230698   1.083   2.620   0.968  0.3947 -0.1737  0.6424
 3047TIP3   OH230699   5.970   1.722   1.214 -0.0666  0.1680 -0.0002
 3047TIP3    H130700   6.057   1.682   1.208 -0.3125 -0.3236 -0.3742
 3047TIP3    H230701   5.964   1.778   1.137 -0.9353 -1.5490 -1.2536
 3048TIP3   OH230702   6.114   6.627   7.956  0.0352  0.0525  0.7235
 3048TIP3    H130703   6.071   6.712   7.947 -0.6469 -0.1797  1.6532
 3048TIP3    H230704   6.086   6.577   7.879  0.8948  0.8405 -0.1293
 3049TIP3   OH230705   4.406   4.724   0.289 -0.6720  0.3190 -0.0032
 3049TIP3    H130706   4.347   4.654   0.317 -3.4601  2.0177 -1.2173
 3049TIP3    H230707   4.466   4.681   0.228 -1.0065 -1.3676  0.7872
 3050TIP3   OH230708   5.793   4.102   8.184 -0.0953  0.1016 -0.0951
 3050TIP3    H130709   5.796   4.088   8.090  2.0348 -2.5440  0.2367
 3050TIP3    H230710   5.883   4.089   8.213 -1.0423 -1.5837  2.5303
 3051TIP3   OH230711   1.935   1.145   7.055  0.0991 -0.0191 -0.1573
 3051TIP3    H130712   1.943   1.201   7.132  0.5270  0.6004 -0.6497
 3051TIP3    H230713   1.919   1.205   6.982 -0.7095 -0.6234 -0.5046
 3052TIP3   OH230714   5.843   2.246   0.195 -0.3770  0.1347 -0.6125
 3052TIP3    H130715   5.938   2.239   0.187 -0.2294  1.7226 -0.6369
 3052TIP3    H230716   5.822   2.198   0.275  0.8840  2.3587  1.2096
 3053TIP3   OH230717   6.062   1.510   7.686  0.3615 -0.4265  0.3541
 3053TIP3    H130718   6.064   1.544   7.597  1.1753 -1.5906 -0.0860
 3053TIP3    H230719   6.110   1.575   7.737  1.5887 -0.7090 -0.4135
 3054TIP3   OH230720   2.307   1.846   0.527  1.1168  0.0699  0.6735
 3054TIP3    H130721   2.215   1.824   0.535  1.1523 -0.1804  0.3849
 3054TIP3    H230722   2.352   1.762   0.521  1.3219  0.1971  0.3847
 3055TIP3   OH230723   0.641   2.609   1.529 -0.5458  0.1035 -0.2310
 3055TIP3    H130724   0.583   2.538   1.557 -1.1533  1.1796  1.3827
 3055TIP3    H230725   0.594   2.651   1.457 -0.6399 -0.5107 -0.5353
 3056TIP3   OH230726   0.700   6.271   7.957 -0.2245  0.7273 -0.5724
 3056TIP3    H130727   0.660   6.326   7.889 -0.2075  0.6545 -0.6412
 3056TIP3    H230728   0.769   6.326   7.994 -0.0335  0.6580 -0.8213
 3057TIP3   OH230729   6.388   3.532   2.383 -0.1830 -0.4547  0.0279
 3057TIP3    H130730   6.348   3.505   2.300  4.0182 -2.6645 -1.5880
 3057TIP3    H230731   6.410   3.449   2.426 -0.0055  0.6604  2.1822
 3058TIP3   OH230732   2.557   4.275   1.202  0.2786 -0.4776 -0.2257
 3058TIP3    H130733   2.536   4.336   1.131 -0.8445 -0.6423 -0.0479
 3058TIP3    H230734   2.652   4.284   1.214  0.5030 -0.4652 -1.7617
 3059TIP3   OH230735   4.025   4.085   1.808 -0.0014 -0.2292 -0.1463
 3059TIP3    H130736   4.006   4.038   1.727 -0.8401  0.5924 -0.4444
 3059TIP3    H230737   4.082   4.157   1.781 -0.2245  0.0040 -0.0041
 3060TIP3   OH230738   0.323   6.912   0.695 -0.1420  0.5874 -0.4052
 3060TIP3    H130739   0.272   6.833   0.711 -0.8424  1.0085 -0.5153
 3060TIP3    H230740   0.400   6.903   0.751 -1.2790  0.8394  1.2727
 3061TIP3   OH230741   0.360   5.707   7.807  0.1647 -0.0368 -0.0562
 3061TIP3    H130742   0.395   5.618   7.806 -2.6509 -1.2783  0.5266
 3061TIP3    H230743   0.355   5.731   7.714 -1.7012 -1.7440 -0.4932
 3062TIP3   OH230744   5.576   6.002   0.291  0.2222  0.7173 -0.4953
 3062TIP3    H130745   5.570   5.918   0.338  1.7343  0.2834 -1.0336
 3062TIP3    H230746   5.491   6.010   0.248 -1.5714  1.5253  2.8492
 3063TIP3   OH230747   2.635   4.438   0.571  0.1800 -0.5907  0.1448
 3063TIP3    H130748   2.654   4.530   0.589  2.1727 -0.8775 -0.3190
 3063TIP3    H230749   2.664   4.423   0.481 -0.6691 -1.5431  0.0038
 3064TIP3   OH230750   0.442   4.185   1.276  0.8035 -0.2887 -0.1432
 3064TIP3    H130751   0.444   4.231   1.192 -0.7691 -0.7686 -0.4925
 3064TIP3    H230752   0.480   4.100   1.257  2.3073  0.2911  0.1393
 3065TIP3   OH230753   0.180   0.909   0.415 -0.3893  0.6701 -0.1844
 3065TIP3    H130754   0.206   0.868   0.332 -0.1297  1.6129 -0.5779
 3065TIP3    H230755   0.228   0.992   0.417  0.2031  0.3226  1.2716
 3066TIP3   OH230756   3.124   0.446   2.110  0.6852  0.0228  0.5903
 3066TIP3    H130757   3.037   0.466   2.076  1.8520  1.5755 -1.7135
 3066TIP3    H230758   3.119   0.354   2.136 -1.1792 -0.4030 -1.0650
 3067TIP3   OH230759   5.741   1.977   0.618 -0.1293 -0.8350 -0.0725
 3067TIP3    H130760   5.734   1.986   0.713  0.0329  1.3120 -0.2089
 3067TIP3    H230761   5.751   1.883   0.604  1.5432 -1.1014  2.1652
 3068TIP3   OH230762   2.801   5.617   7.147  0.3807  0.2949 -0.3381
 3068TIP3    H130763   2.814   5.522   7.141 -1.3784 -0.0458  0.5394
 3068TIP3    H230764   2.807   5.636   7.241  0.4795  1.0192 -0.4828
 3069TIP3   OH230765   5.186   0.520   2.573  0.0965  0.3004 -0.2433
 3069TIP3    H130766   5.216   0.609   2.554 -1.8340  0.9208 -0.5707
 3069TIP3    H230767   5.205   0.507   2.666 -0.0127  1.2339 -0.0862
 3070TIP3   OH230768   6.444   5.803   1.473 -0.1363  0.1012 -0.0435
 3070TIP3    H130769   6.410   5.847   1.552 -0.2389  0.5086 -0.3113
 3070TIP3    H230770   6.510   5.863   1.439  0.1343 -0.2227 -0.0924
 3071TIP3   OH230771   6.946   1.911   8.050  0.1321  0.2915 -0.7380
 3071TIP3    H130772   6.981   1.822   8.040 -1.3782 -0.5628  1.0325
 3071TIP3    H230773   6.875   1.902   8.113  1.7670  3.2180  1.8186
 3072TIP3   OH230774   1.956   0.533   2.424  0.1472  0.0560 -0.2677
 3072TIP3    H130775   2.048   0.521   2.448 -0.4783 -1.6902  1.5804
 3072TIP3    H230776   1.920   0.589   2.493 -0.2773  0.3339 -0.7080
 3073TIP3   OH230777   6.107   0.234   8.261 -0.0109 -0.1543  0.6336
 3073TIP3    H130778   6.199   0.259   8.268 -0.7172  2.9304  0.4868
 3073TIP3    H230779   6.075   0.238   8.351  0.1578 -2.2726  0.8384
 3074TIP3   OH230780   0.936   2.851   2.797 -0.0125 -0.6640 -0.1959
 3074TIP3    H130781   0.961   2.937   2.830  0.6129 -1.5623  1.8148
 3074TIP3    H230782   0.985   2.843   2.715  0.8853  0.4168  0.1983
 3075TIP3   OH230783   6.664   6.101   7.695 -0.3766 -0.5069 -0.4816
 3075TIP3    H130784   6.726   6.172   7.709  1.5649 -2.1495 -0.2174
 3075TIP3    H230785   6.701   6.051   7.621 -0.6758 -2.2079  0.4621
 3076TIP3   OH230786   4.845   4.720   1.783 -0.0726  0.4010 -0.2225
 3076TIP3    H130787   4.859   4.626   1.785 -0.9495  0.2186 -1.4849
 3076TIP3    H230788   4.928   4.757   1.812  0.4494 -0.7514 -0.1873
 3077TIP3   OH230789   1.746   6.570   0.100  0.1068 -0.6161 -0.2076
 3077TIP3    H130790   1.758   6.475   0.110 -1.1581 -0.7626  0.0168
 3077TIP3    H230791   1.835   6.605   0.106  0.6009 -1.7831 -0.2900
 3078TIP3   OH230792   6.172   3.083   2.142  0.2371  0.4965  0.0457
 3078TIP3    H130793   6.163   3.111   2.051 -0.7906  0.2181  0.0490
 3078TIP3    H230794   6.264   3.101   2.164  0.2433  1.4661 -0.7331
 3079TIP3   OH230795   5.454   4.995   7.922  0.1605  0.0212  0.0211
 3079TIP3    H130796   5.511   5.034   7.988  1.5223 -2.1769  0.2471
 3079TIP3    H230797   5.400   4.933   7.971 -0.8810  0.4858 -0.5256
 3080TIP3   OH230798   2.903   2.275   3.497 -0.1803 -0.1407  0.2165
 3080TIP3    H130799   2.904   2.357   3.447  1.0526 -0.3575 -0.1492
 3080TIP3    H230800   2.826   2.229   3.464 -0.2269  0.3696 -0.4204
 3081TIP3   OH230801   1.804   0.001   2.458  0.5443  0.1982  0.1426
 3081TIP3    H130802   1.888  -0.034   2.429 -0.4703  0.2299 -3.2645
 3081TIP3    H230803   1.805   0.092   2.430  0.0515  0.7439  1.7835
 3082TIP3   OH230804   3.623   4.537   0.734  0.0322  0.7794  0.4240
 3082TIP3    H130805   3.626   4.624   0.695 -3.2294 -0.2482 -2.6071
 3082TIP3    H230806   3.545   4.496   0.696  0.0962 -2.6846  3.4918
 3083TIP3   OH230807   4.263   1.892   2.547 -0.2749 -0.4239 -0.3737
 3083TIP3    H130808   4.348   1.919   2.514 -0.0901  0.0380  0.4647
 3083TIP3    H230809   4.214   1.973   2.560 -1.2432 -0.7259 -1.8528
 3084TIP3   OH230810   6.185   4.425   1.795  0.4104  0.9777  0.4478
 3084TIP3    H130811   6.140   4.463   1.720  0.1855  2.5529  1.3483
 3084TIP3    H230812   6.179   4.491   1.863  2.9048  0.7009  1.0444
 3085TIP3   OH230813   5.722   0.946   1.397  0.1163  0.0175 -0.4680
 3085TIP3    H130814   5.674   0.998   1.461  0.4240  0.8813 -0.9252
 3085TIP3    H230815   5.790   1.005   1.364  0.8085 -0.8366 -0.6199
 3086TIP3   OH230816   4.281   4.596   7.843  0.5581  0.1285 -0.0674
 3086TIP3    H130817   4.361   4.595   7.789 -0.0204 -0.2804 -0.9481
 3086TIP3    H230818   4.267   4.688   7.863  1.5842  0.1570  0.6246
 3087TIP3   OH230819   0.062   7.008   7.167  0.0036 -0.2709  0.0442
 3087TIP3    H130820   0.115   6.978   7.093 -1.3193  0.0849 -1.1063
 3087TIP3    H230821   0.114   7.077   7.207  0.9619 -0.7970 -0.2502
 3088TIP3   OH230822   3.362   4.850   7.842  0.2746 -0.1659 -0.3678
 3088TIP3    H130823   3.290   4.820   7.786  0.7183 -0.8021 -0.6202
 3088TIP3    H230824   3.333   4.934   7.877 -0.1365  0.1106 -1.3392
 3089TIP3   OH230825   0.814   6.975   7.966 -0.7953  0.2178  0.3556
 3089TIP3    H130826   0.846   6.896   7.922  0.3856 -0.3940  2.2150
 3089TIP3    H230827   0.722   6.982   7.938 -0.1041 -0.0265 -2.2727
 3090TIP3   OH230828   3.476   3.614   8.020  0.1661  0.0070 -0.0385
 3090TIP3    H130829   3.381   3.623   8.026  0.1482  0.1705 -0.5158
 3090TIP3    H230830   3.490   3.520   8.007 -0.0591  0.2055 -1.9833
 3091TIP3   OH230831   3.205   6.888   1.521  0.2707 -0.2358  0.2831
 3091TIP3    H130832   3.284   6.897   1.573  1.2470 -1.0690 -0.9926
 3091TIP3    H230833   3.150   6.827   1.571  1.6044 -1.8133 -0.0895
 3092TIP3   OH230834   0.394   2.944   0.043 -0.1648  0.2294  0.3088
 3092TIP3    H130835   0.367   2.854   0.061  2.0558 -0.5844 -0.0740
 3092TIP3    H230836   0.413   2.981   0.130 -0.2899  0.0477  0.4135
 3093TIP3   OH230837   6.399   3.273   8.135 -0.2055 -0.6487  0.0652
 3093TIP3    H130838   6.306   3.272   8.110 -0.2890  0.5422  0.2396
 3093TIP3    H230839   6.398   3.282   8.230  0.0350  1.5992 -0.0897
 3094TIP3   OH230840   0.892   4.417   2.403  0.0221  0.5579 -0.3244
 3094TIP3    H130841   0.912   4.507   2.377 -0.5602  0.6179 -0.5843
 3094TIP3    H230842   0.975   4.371   2.394  0.4610  1.1991  0.3898
 3095TIP3   OH230843   1.731   1.675   0.645 -0.0515 -0.5738 -0.0957
 3095TIP3    H130844   1.726   1.654   0.551 -0.1721 -0.8699 -0.0228
 3095TIP3    H230845   1.675   1.753   0.655 -0.8838 -1.1657 -0.0861
 3096TIP3   OH230846   2.390   0.139   0.655 -0.2192  0.1896  0.1748
 3096TIP3    H130847   2.446   0.188   0.715 -2.4854  1.9518  1.0442
 3096TIP3    H230848   2.432   0.054   0.646  2.2538  1.2047  1.1464
 3097TIP3   OH230849   3.522   6.792   3.072 -0.0373 -0.4649 -0.1975
 3097TIP3    H130850   3.485   6.720   3.123 -3.7402  0.4885 -1.2799
 3097TIP3    H230851   3.500   6.772   2.981 -0.0864  1.4231 -0.6527
 3098TIP3   OH230852   0.129   3.681   1.927  0.2141 -0.2815 -0.0754
 3098TIP3    H130853   0.145   3.598   1.883  1.2506  2.1096 -4.8497
 3098TIP3    H230854   0.048   3.714   1.888 -0.2860  0.9585  1.8463
 3099TIP3   OH230855   2.032   6.599   0.085  0.4478 -0.6929 -0.1095
 3099TIP3    H130856   2.059   6.676   0.134  0.3769 -1.1310  0.6211
 3099TIP3    H230857   2.081   6.604   0.003  0.5285  0.0635 -0.0154
 3100TIP3   OH230858   2.856   2.784   2.247  0.1910 -0.4635 -0.4272
 3100TIP3    H130859   2.836   2.876   2.268  1.5648  0.0679 -1.3508
 3100TIP3    H230860   2.922   2.759   2.312 -0.6634 -1.0505  0.2556
 3101TIP3   OH230861   5.567   4.257   3.726 -0.1380  0.0482  0.0596
 3101TIP3    H130862   5.630   4.186   3.719  1.2191  1.0130  1.7392
 3101TIP3    H230863   5.524   4.244   3.811 -0.9424  0.4025 -0.2793
 3102TIP3   OH230864   2.360   6.562   7.903  0.1292 -0.1395  0.2304
 3102TIP3    H130865   2.266   6.561   7.921 -0.3850  3.0121 -1.4538
 3102TIP3    H230866   2.400   6.594   7.984 -0.6412  1.3859  0.0372
 3103TIP3   OH230867   3.632   3.278   2.672  0.2358 -0.1417 -0.0482
 3103TIP3    H130868   3.694   3.255   2.742  0.2403  1.3034  0.4623
 3103TIP3    H230869   3.546   3.268   2.713  0.2469  1.0277  0.2987
 3104TIP3   OH230870   5.304   1.180   2.190  0.6814 -0.2500 -0.0194
 3104TIP3    H130871   5.321   1.160   2.282 -1.0174  0.3877  0.4821
 3104TIP3    H230872   5.316   1.097   2.144 -0.1458 -0.9872  1.0537
 3105TIP3   OH230873   6.829   4.209   7.570  0.2273 -0.1322 -0.0407
 3105TIP3    H130874   6.809   4.298   7.541  0.6614  0.0468  0.1941
 3105TIP3    H230875   6.798   4.153   7.499  1.0354  0.2835 -0.7301
 3106TIP3   OH230876   5.057   6.764   1.887  0.9425 -0.3274 -0.1589
 3106TIP3    H130877   5.041   6.855   1.860 -1.7294 -0.5734  0.2969
 3106TIP3    H230878   5.006   6.754   1.968  3.8090 -1.3585  1.6743
 3107TIP3   OH230879   3.690   3.886   0.013 -0.2730  0.7195 -0.2483
 3107TIP3    H130880   3.660   3.820   0.075  2.1451 -0.0381  0.2126
 3107TIP3    H230881   3.782   3.900   0.034  0.6198  0.6374 -3.4519
 3108TIP3   OH230882   5.243   2.776   1.105  0.0909 -0.2838 -0.6034
 3108TIP3    H130883   5.188   2.710   1.148  0.1405  1.6910  2.8622
 3108TIP3    H230884   5.185   2.818   1.042 -1.7716  0.1934  1.3217
 3109TIP3   OH230885   0.753   4.429   2.653  0.0795 -0.4277  0.1713
 3109TIP3    H130886   0.805   4.430   2.573  0.0322 -0.9466  0.1285
 3109TIP3    H230887   0.817   4.435   2.724  0.1549 -0.4812  0.1072
 3110TIP3   OH230888   4.586   4.065   0.074 -0.5106  0.3126  0.3618
 3110TIP3    H130889   4.662   4.012   0.055 -0.2123  1.0047 -0.4637
 3110TIP3    H230890   4.616   4.128   0.140  0.2074  1.8080 -1.3278
 3111TIP3   OH230891   2.853   3.098   1.339 -0.4654 -0.4133 -0.1348
 3111TIP3    H130892   2.831   3.029   1.276  0.1427 -0.6585 -0.0950
 3111TIP3    H230893   2.905   3.160   1.288 -0.3687 -0.3754  0.0092
 3112TIP3   OH230894   0.800   2.988   1.278 -0.1654  0.1943  0.5324
 3112TIP3    H130895   0.842   3.050   1.219 -1.9458 -0.6419 -1.7621
 3112TIP3    H230896   0.872   2.937   1.315  1.0513  1.1372 -0.4837
 3113TIP3   OH230897   4.053   2.945   7.955 -0.0862 -0.2415  0.2068
 3113TIP3    H130898   4.125   2.995   7.996  0.3713 -1.0107  0.3633
 3113TIP3    H230899   3.998   2.919   8.029  0.0383 -0.5333  0.1968
 3114TIP3   OH230900   6.620   3.113   2.790  0.0220  0.2642 -0.9120
 3114TIP3    H130901   6.560   3.184   2.765 -3.4141 -1.7223  0.9140
 3114TIP3    H230902   6.649   3.136   2.878  1.4971  0.8950 -1.5410
 3115TIP3   OH230903   5.686   5.234   1.711  0.1454 -0.0802 -0.1537
 3115TIP3    H130904   5.651   5.255   1.798  1.7811  0.5264  0.3906
 3115TIP3    H230905   5.652   5.147   1.692 -1.8641  0.5747  0.1948
 3116TIP3   OH230906   5.745   1.520   7.611 -0.5508 -0.4570 -0.0414
 3116TIP3    H130907   5.819   1.461   7.600 -0.7470 -0.7844  0.3671
 3116TIP3    H230908   5.731   1.558   7.524 -0.1187 -0.6466 -0.1932
 3117TIP3   OH230909   3.265   1.285   2.859 -0.1148  0.0521  0.2049
 3117TIP3    H130910   3.294   1.372   2.888 -1.9973  0.4227  1.1268
 3117TIP3    H230911   3.311   1.271   2.776 -0.0731  2.1061 -0.1719
 3118TIP3   OH230912   4.140   6.363   0.608 -0.3365 -0.1300  0.5940
 3118TIP3    H130913   4.102   6.368   0.521 -1.7417 -1.3014  1.1033
 3118TIP3    H230914   4.091   6.428   0.659 -0.6219 -0.5568  0.8758
 3119TIP3   OH230915   4.675   2.916   8.021 -0.0904  0.5404 -0.1337
 3119TIP3    H130916   4.701   2.830   7.989 -1.2636  0.2678 -0.3848
 3119TIP3    H230917   4.592   2.935   7.976 -0.7634  1.0110  1.2576
 3120TIP3   OH230918   0.964   2.012   8.039 -0.4915  0.4256 -0.6130
 3120TIP3    H130919   0.872   2.004   8.015 -1.0748  0.3682  1.4271
 3120TIP3    H230920   1.011   1.959   7.975 -2.0045 -0.5712 -0.9405
 3121TIP3   OH230921   2.865   0.727   0.257  0.3539 -0.4149  0.1284
 3121TIP3    H130922   2.778   0.765   0.272  0.7047  0.0404  1.1596
 3121TIP3    H230923   2.925   0.802   0.262  0.9502 -0.9330  1.0836
 3122TIP3   OH230924   1.741   1.984   0.123  0.2914 -0.2668 -0.3198
 3122TIP3    H130925   1.688   2.045   0.174  0.4139 -0.2537 -0.2092
 3122TIP3    H230926   1.715   1.897   0.155  0.6846 -0.2413  0.0701
 3123TIP3   OH230927   2.730   0.419   0.101  0.2998  0.3499  0.7336
 3123TIP3    H130928   2.760   0.440   0.189 -2.0167  0.3975  1.5972
 3123TIP3    H230929   2.679   0.495   0.074 -1.6259 -0.8714  0.6854
 3124TIP3   OH230930   4.927   5.624   2.976  0.1560  0.2358 -0.1058
 3124TIP3    H130931   4.927   5.555   3.042 -0.2266  1.3157  1.0467
 3124TIP3    H230932   4.990   5.688   3.008  0.8846  0.2094 -1.4196
 3125TIP3   OH230933   5.936   2.570   2.082  0.3411 -0.4824  0.1173
 3125TIP3    H130934   5.935   2.656   2.123  1.0640 -1.0293  1.3353
 3125TIP3    H230935   5.871   2.576   2.012 -2.5649 -0.1411  2.6563
 3126TIP3   OH230936   1.891   3.927   7.037 -0.1076  0.3297  0.4366
 3126TIP3    H130937   1.917   4.018   7.047 -0.2061  0.3062  0.9146
 3126TIP3    H230938   1.964   3.887   6.990 -0.3420  0.7864 -0.3435
 3127TIP3   OH230939   0.323   5.750   0.022  0.1428  0.5960  0.3337
 3127TIP3    H130940   0.347   5.660  -0.001 -0.5672  0.1671  1.2225
 3127TIP3    H230941   0.323   5.796  -0.061 -1.3898 -0.6733 -0.4171
 3128TIP3   OH230942   3.335   4.092   1.918 -0.1254 -0.0174  0.3755
 3128TIP3    H130943   3.308   4.003   1.895 -0.5950  0.3748 -0.6471
 3128TIP3    H230944   3.298   4.107   2.005 -3.7441  0.6518 -1.0876
 3129TIP3   OH230945   3.046   6.817   8.104  0.2078  0.5467 -0.8675
 3129TIP3    H130946   2.966   6.865   8.125  0.4562  0.4523  0.3822
 3129TIP3    H230947   3.117   6.875   8.132  0.5105 -0.8500  1.5814
 3130TIP3   OH230948   5.271   0.689   1.430 -0.3803  0.2685  0.1211
 3130TIP3    H130949   5.292   0.704   1.522 -1.3209 -0.3782  0.4626
 3130TIP3    H230950   5.344   0.726   1.382  1.3542 -1.5234  1.2184
 3131TIP3   OH230951   1.558   3.344   8.064  0.2690  0.5520  0.3194
 3131TIP3    H130952   1.486   3.366   8.006 -0.4244 -1.7892  0.2172
 3131TIP3    H230953   1.612   3.283   8.014  0.2962 -0.6001  1.6929
 3132TIP3   OH230954   2.468   1.227   8.138 -0.5640 -0.0180  0.4476
 3132TIP3    H130955   2.521   1.215   8.059 -1.0050 -0.4199  0.2052
 3132TIP3    H230956   2.418   1.308   8.121  0.9324  1.1312  1.2420
 3133TIP3   OH230957   4.881   1.867   2.437 -0.7920  0.3033 -0.5271
 3133TIP3    H130958   4.961   1.914   2.412 -0.1397  0.5759  1.8252
 3133TIP3    H230959   4.912   1.779   2.460 -1.5940 -0.4320 -2.1281
 3134TIP3   OH230960   3.658   3.951   0.794  0.4698  0.0218 -0.1216
 3134TIP3    H130961   3.625   3.914   0.876 -0.9209 -0.1335 -0.7338
 3134TIP3    H230962   3.593   3.927   0.728  1.9991 -0.6536 -1.4685
 3135TIP3   OH230963   0.538   4.131   0.868 -0.0372 -0.3604  0.2926
 3135TIP3    H130964   0.495   4.189   0.931 -1.0708  0.1958 -0.8836
 3135TIP3    H230965   0.471   4.068   0.843  1.2248 -2.5868  2.0196
 3136TIP3   OH230966   1.419   4.617   2.849 -0.1154 -0.3920 -0.1663
 3136TIP3    H130967   1.504   4.660   2.844  0.7706 -1.7834  1.8309
 3136TIP3    H230968   1.366   4.661   2.783  1.3420  2.3082  0.3348
 3137TIP3   OH230969   6.258   6.729   0.174  0.4220  0.0511 -0.6098
 3137TIP3    H130970   6.228   6.688   0.255 -2.6273  3.3979  0.1761
 3137TIP3    H230971   6.353   6.741   0.188  0.4574 -1.8229  1.2818
 3138TIP3   OH230972   1.076   0.472   2.391  0.0063 -0.0562 -0.0724
 3138TIP3    H130973   1.054   0.404   2.327  0.9285  0.4323 -0.9422
 3138TIP3    H230974   1.116   0.424   2.463 -0.0948 -0.5254 -0.3224
 3139TIP3   OH230975   0.080   3.915   1.669 -0.1591  0.3986 -0.7316
 3139TIP3    H130976   0.165   3.952   1.693  0.6852 -0.6277 -1.9637
 3139TIP3    H230977   0.024   3.990   1.650  0.8833  1.0719 -1.1901
 3140TIP3   OH230978   3.930   0.676   3.130  0.3161 -0.2095  0.0052
 3140TIP3    H130979   3.950   0.759   3.174  1.2180 -0.5547  0.2596
 3140TIP3    H230980   3.840   0.686   3.100  0.5737  1.0572 -0.4020
 3141TIP3   OH230981   5.587   0.222   3.252  0.2441  0.0140 -0.2344
 3141TIP3    H130982   5.671   0.240   3.293  0.3311 -0.3812 -0.2349
 3141TIP3    H230983   5.536   0.302   3.265  0.2790 -0.0954  0.6222
 3142TIP3   OH230984   6.200   6.118   7.705 -0.2491 -0.8435  0.0029
 3142TIP3    H130985   6.283   6.109   7.752 -0.8991 -0.7218  1.1925
 3142TIP3    H230986   6.220   6.087   7.616  0.3465 -3.6569  1.0242
 3143TIP3   OH230987   6.293   4.383   1.148 -0.2034 -0.1866  0.6936
 3143TIP3    H130988   6.325   4.294   1.132 -0.9014 -0.2384 -0.5234
 3143TIP3    H230989   6.370   4.431   1.180  0.3124 -1.0791  0.8119
 3144TIP3   OH230990   2.847   5.590   0.637 -0.1001 -0.1408  0.4364
 3144TIP3    H130991   2.801   5.567   0.718  0.7899  1.3900  1.4378
 3144TIP3    H230992   2.850   5.686   0.639 -0.1684 -0.0641 -1.5020
 3145TIP3   OH230993   5.183   4.906   8.012 -0.5376  0.1602 -0.0626
 3145TIP3    H130994   5.193   4.845   7.938  0.8991  0.1809  0.0774
 3145TIP3    H230995   5.146   4.985   7.973  0.1612  0.1551 -0.7712
 3146TIP3   OH230996   3.540   1.768   0.982  0.0824  0.2435  0.3668
 3146TIP3    H130997   3.583   1.781   0.897 -0.8032 -2.4490 -0.6218
 3146TIP3    H230998   3.460   1.820   0.976 -1.0651 -1.5609 -1.4575
 3147TIP3   OH230999   1.660   3.843   7.139  0.6103 -0.0903  0.2273
 3147TIP3    H131000   1.652   3.753   7.109  1.4436 -0.4396  1.0258
 3147TIP3    H231001   1.742   3.875   7.101  0.2866  0.3575 -0.1077
 3148TIP3   OH231002   2.091   5.895   0.126  0.0432  0.1613  0.3090
 3148TIP3    H131003   2.017   5.851   0.085 -0.0011  0.4406  0.0815
 3148TIP3    H231004   2.058   5.921   0.212 -0.4959  1.2650 -0.2068
 3149TIP3   OH231005   3.214   1.562   0.688  0.0311  0.0817  0.0514
 3149TIP3    H131006   3.237   1.477   0.649  1.1637  0.8210 -0.9462
 3149TIP3    H231007   3.128   1.582   0.652 -0.8310 -1.1920  1.2676
 3150TIP3   OH231008   5.678   2.352   1.657 -0.1235  0.3126 -0.0534
 3150TIP3    H131009   5.694   2.329   1.566 -0.7969 -1.4768  0.2435
 3150TIP3    H231010   5.765   2.352   1.697  0.0343 -0.3751 -0.3805
 3151TIP3   OH231011   5.087   6.759   0.009 -0.2454  0.7224 -0.1879
 3151TIP3    H131012   5.116   6.684  -0.043 -0.9043  0.9193 -0.8583
 3151TIP3    H231013   5.013   6.726   0.060  1.3356  0.1013  1.8499
 3152TIP3   OH231014   6.630   4.997   2.365  0.1031 -0.6180 -0.4816
 3152TIP3    H131015   6.631   4.973   2.457  2.8139 -2.9344 -0.9338
 3152TIP3    H231016   6.557   4.948   2.328  0.3798 -1.5218  0.1156
 3153TIP3   OH231017   6.903   5.338   1.487 -0.4728  0.0125  0.1430
 3153TIP3    H131018   6.935   5.306   1.571  0.6544  0.6471 -0.0155
 3153TIP3    H231019   6.810   5.318   1.487 -0.4124 -0.3419  1.3824
 3154TIP3   OH231020   0.469   3.663   7.301  0.4977  0.1470 -0.2639
 3154TIP3    H131021   0.541   3.713   7.263  0.7269 -0.2512 -0.3659
 3154TIP3    H231022   0.502   3.573   7.306 -0.2882 -0.2063 -1.1002
 3155TIP3   OH231023   0.651   0.523   7.984  0.2780  0.1559  0.3911
 3155TIP3    H131024   0.669   0.559   7.897 -0.9407  2.1366  0.9032
 3155TIP3    H231025   0.557   0.533   7.995  0.3753 -0.3051  1.8527
 3156TIP3   OH231026   4.620   6.276   1.733  0.2051 -0.4317  0.1381
 3156TIP3    H131027   4.692   6.214   1.740  3.2763  2.8390  0.0690
 3156TIP3    H231028   4.614   6.316   1.820  0.0612  0.9661 -0.4927
 3157TIP3   OH231029   6.101   6.231   1.513 -0.0367  0.1144  0.5455
 3157TIP3    H131030   6.124   6.227   1.420 -0.9087 -2.0404  0.3684
 3157TIP3    H231031   6.186   6.234   1.558  0.3947  0.9498 -0.2876
 3158TIP3   OH231032   6.412   2.645   2.604 -0.2004 -0.1108  0.5417
 3158TIP3    H131033   6.327   2.613   2.573  0.2469  0.0705 -0.9993
 3158TIP3    H231034   6.467   2.643   2.525  0.7071  1.4911  1.0995
 3159TIP3   OH231035   5.694   5.657   6.945  0.2235 -0.3623  0.4780
 3159TIP3    H131036   5.610   5.679   6.904 -0.6133 -0.2703  2.1757
 3159TIP3    H231037   5.725   5.581   6.896 -0.9256 -0.4871 -0.0852
 3160TIP3   OH231038   6.192   2.351   0.777 -0.0989  0.1255 -0.1451
 3160TIP3    H131039   6.221   2.426   0.828  0.5789 -0.9071  1.0501
 3160TIP3    H231040   6.266   2.291   0.777 -0.5708 -0.4980 -1.1955
 3161TIP3   OH231041   6.394   3.851   1.648  0.0624  0.6190 -0.0076
 3161TIP3    H131042   6.429   3.845   1.559 -0.2782 -0.4584 -0.0871
 3161TIP3    H231043   6.354   3.765   1.663 -0.7700  1.1381  0.8133
 3162TIP3   OH231044   6.369   0.142   1.809 -0.7809  0.6280  0.3522
 3162TIP3    H131045   6.294   0.198   1.790 -0.4592  0.4578 -1.6343
 3162TIP3    H231046   6.379   0.088   1.730  1.1392  0.3143  0.7679
 3163TIP3   OH231047   3.884   1.012   2.002 -0.4735 -0.0128  0.5538
 3163TIP3    H131048   3.941   0.941   2.032 -0.6686 -0.6973 -0.6357
 3163TIP3    H231049   3.818   1.021   2.070 -0.4337 -0.9678  0.7268
 3164TIP3   OH231050   2.945   5.936   0.689  0.7865 -0.1369 -0.3454
 3164TIP3    H131051   2.884   5.939   0.764  1.7004  0.2591  0.4005
 3164TIP3    H231052   2.927   6.017   0.641 -0.5228 -0.8703 -1.1671
 3165TIP3   OH231053   2.592   6.199   7.600  0.2233  0.5195  1.1596
 3165TIP3    H131054   2.614   6.273   7.545 -1.3271  0.9479  1.0555
 3165TIP3    H231055   2.610   6.122   7.546  0.9016  0.8457  0.9124
 3166TIP3   OH231056   5.558   4.230   0.617  0.8648 -0.0003 -0.3495
 3166TIP3    H131057   5.594   4.145   0.594 -0.7701 -1.4271  1.8679
 3166TIP3    H231058   5.633   4.282   0.647  1.5392 -1.6948  1.0222
 3167TIP3   OH231059   4.418   3.664   8.056 -0.2016  0.1571  0.1415
 3167TIP3    H131060   4.384   3.710   7.980 -1.9627 -1.1662  0.0658
 3167TIP3    H231061   4.501   3.708   8.076  1.5446 -0.8073 -3.9062
 3168TIP3   OH231062   6.024   5.569   2.471  0.7021 -0.3047 -0.0967
 3168TIP3    H131063   6.117   5.547   2.477  0.7182  0.0585  1.5767
 3168TIP3    H231064   6.000   5.547   2.381  2.6939  0.7514 -0.9561
 3169TIP3   OH231065   5.146   1.391   7.275  0.1363 -0.1531  0.3370
 3169TIP3    H131066   5.158   1.466   7.334  1.0146 -1.1738  1.5345
 3169TIP3    H231067   5.077   1.418   7.214 -0.4570  1.1482  1.5298
 3170TIP3   OH231068   2.255   6.555   7.320  0.1773 -0.0958 -0.2253
 3170TIP3    H131069   2.173   6.581   7.279  0.2559 -1.4024 -1.2902
 3170TIP3    H231070   2.323   6.587   7.261  0.3313 -0.9767 -0.5505
 3171TIP3   OH231071   4.331   4.129   7.213 -0.2925 -0.4825  0.7520
 3171TIP3    H131072   4.340   4.101   7.122  0.2037 -0.1723  0.7018
 3171TIP3    H231073   4.382   4.064   7.263 -1.1870 -1.0888  0.8897
 3172TIP3   OH231074   1.751   1.713   1.921  0.5724 -0.3042  0.1491
 3172TIP3    H131075   1.766   1.792   1.974  0.0851 -0.8626  1.1467
 3172TIP3    H231076   1.751   1.745   1.830  0.4151  0.8415  0.5356
 3173TIP3   OH231077   1.629   0.261   2.162 -0.2483 -0.7559 -0.5095
 3173TIP3    H131078   1.569   0.197   2.200  0.0005 -0.9436 -0.4297
 3173TIP3    H231079   1.655   0.318   2.234 -1.8557  0.5568 -0.9144
 3174TIP3   OH231080   0.600   3.360   1.510 -0.2995  0.3731  0.0701
 3174TIP3    H131081   0.644   3.428   1.458  1.0888  0.2705  1.0473
 3174TIP3    H231082   0.662   3.287   1.511 -0.1242  0.4909  2.1292
 3175TIP3   OH231083   5.253   2.977   7.218 -0.2585  0.2436  0.8528
 3175TIP3    H131084   5.184   3.043   7.220 -0.7565 -0.1983 -0.6588
 3175TIP3    H231085   5.211   2.899   7.181  0.6517 -0.5356  1.3930
 3176TIP3   OH231086   2.856   2.888   7.896 -0.4044  0.1005  0.3576
 3176TIP3    H131087   2.921   2.888   7.967  0.7750 -0.7408 -0.6881
 3176TIP3    H231088   2.807   2.806   7.908 -0.4920  0.1640  0.4401
 3177TIP3   OH231089   0.975   5.897   2.135 -0.1049  0.3818  0.2010
 3177TIP3    H131090   1.011   5.834   2.072  0.0073  1.2196 -0.5903
 3177TIP3    H231091   0.986   5.982   2.093 -0.9569  0.8660  0.9238
 3178TIP3   OH231092   7.010   3.143   2.464  0.3939  0.4222 -0.1715
 3178TIP3    H131093   7.014   3.053   2.432 -1.0174  0.1920  0.2341
 3178TIP3    H231094   6.917   3.166   2.458  0.2491  0.8336  2.4811
 3179TIP3   OH231095   4.546   2.939   0.833 -0.1142  0.8126  0.3006
 3179TIP3    H131096   4.485   2.982   0.774  0.6130 -0.4589 -1.4544
 3179TIP3    H231097   4.594   3.010   0.876  0.0281  1.7788 -1.3936
 3180TIP3   OH231098   5.582   5.006   1.634  0.0708 -0.0376 -0.4510
 3180TIP3    H131099   5.508   4.976   1.687 -0.5859 -0.6381 -1.6675
 3180TIP3    H231100   5.642   4.931   1.632 -0.3835 -0.3895 -1.3802
 3181TIP3   OH231101   3.685   4.389   8.003  0.3901 -0.4596 -0.1939
 3181TIP3    H131102   3.762   4.435   7.969 -0.8184  2.2327  0.4322
 3181TIP3    H231103   3.612   4.425   7.954 -0.7582 -0.8502  1.1544
 3182TIP3   OH231104   6.627   2.376   2.163  0.3062 -1.0032  1.2675
 3182TIP3    H131105   6.680   2.450   2.193 -1.5675  1.0992 -0.3101
 3182TIP3    H231106   6.580   2.348   2.242 -0.8327  1.1860  1.4508
 3183TIP3   OH231107   2.680   6.594   7.965 -0.2109 -0.3449  0.6103
 3183TIP3    H131108   2.653   6.515   7.918  1.2823 -0.5039 -0.0126
 3183TIP3    H231109   2.753   6.566   8.019  0.6754  0.7092 -0.0088
 3184TIP3   OH231110   4.417   5.082   1.021  0.0947 -0.2614  0.4554
 3184TIP3    H131111   4.380   5.052   1.104  1.1145 -0.6870  0.7732
 3184TIP3    H231112   4.388   5.017   0.957 -0.0400 -0.3712  0.6265
 3185TIP3   OH231113   6.042   4.872   1.384 -0.5042  0.3926  0.0909
 3185TIP3    H131114   6.032   4.870   1.289  0.7200  1.4652 -0.0913
 3185TIP3    H231115   5.977   4.936   1.414  0.0261  1.0733 -0.1832
 3186TIP3   OH231116   2.598   1.529   7.436  0.3277 -0.5981  0.3080
 3186TIP3    H131117   2.668   1.541   7.500 -0.9621  1.2970  1.4677
 3186TIP3    H231118   2.627   1.580   7.360 -0.0214  0.7434  1.0322
 3187TIP3   OH231119   2.913   1.890   2.918  0.1852 -0.1466 -0.2618
 3187TIP3    H131120   2.849   1.954   2.887 -0.1473 -0.5094 -0.3402
 3187TIP3    H231121   2.915   1.902   3.013 -0.2800 -0.3824 -0.2176
 3188TIP3   OH231122   0.164   0.553   0.185 -0.0629 -0.2204  0.3137
 3188TIP3    H131123   0.180   0.540   0.279  0.2372  1.2796  0.4999
 3188TIP3    H231124   0.080   0.599   0.181  0.4552  0.7196 -0.0707
 3189TIP3   OH231125   1.716   2.559   2.051 -0.2523 -0.4073 -0.3766
 3189TIP3    H131126   1.733   2.652   2.065 -0.5061 -0.1179 -1.8189
 3189TIP3    H231127   1.767   2.515   2.119 -0.3560  0.7909  0.5011
 3190TIP3   OH231128   2.336   0.062   1.982 -0.0596  0.0405 -0.2032
 3190TIP3    H131129   2.373  -0.007   1.926 -0.6206 -0.6859  0.3070
 3190TIP3    H231130   2.397   0.135   1.973  0.3103 -0.3575 -1.1052
 3191TIP3   OH231131   6.576   6.864   0.824 -0.2608  0.0038 -0.2704
 3191TIP3    H131132   6.516   6.914   0.768  0.8170  0.3470 -1.1475
 3191TIP3    H231133   6.632   6.816   0.762 -0.1042 -0.8916  0.5421
 3192TIP3   OH231134   4.278   2.675   2.967 -0.0245 -0.1431 -0.4322
 3192TIP3    H131135   4.370   2.680   2.993 -0.3918 -0.9390  1.1524
 3192TIP3    H231136   4.252   2.585   2.986 -1.3599  0.3038 -0.0227
 3193TIP3   OH231137   3.453   1.140   3.013  0.1242  0.1955  0.0156
 3193TIP3    H131138   3.413   1.226   3.000 -1.2494 -0.4459 -0.1224
 3193TIP3    H231139   3.397   1.079   2.964  1.0126 -0.7999  0.1938
 3194TIP3   OH231140   3.611   3.658   0.175 -0.3412  0.3977  0.3585
 3194TIP3    H131141   3.517   3.647   0.190 -0.0486 -0.9002  1.3965
 3194TIP3    H231142   3.636   3.583   0.121 -0.0222  1.1016 -0.4797
 3195TIP3   OH231143   6.383   1.430   1.971  0.2141  0.2974 -0.3186
 3195TIP3    H131144   6.363   1.459   1.882 -1.2770 -0.6390 -0.3209
 3195TIP3    H231145   6.308   1.375   1.995  1.2807 -0.6292  0.9760
 3196TIP3   OH231146   2.136   3.184   2.672 -0.0669 -0.0443 -0.0134
 3196TIP3    H131147   2.085   3.241   2.614 -0.7440 -1.5286 -0.9303
 3196TIP3    H231148   2.094   3.195   2.758 -0.6624  0.2596 -0.3355
 3197TIP3   OH231149   1.000   2.493   7.756 -0.5562 -0.4100  0.1791
 3197TIP3    H131150   0.984   2.538   7.839 -1.4065 -2.4794  1.2095
 3197TIP3    H231151   0.925   2.516   7.701 -0.5093  0.1692  0.3583
 3198TIP3   OH231152   3.343   3.250   3.641 -0.1822 -0.0516  0.0007
 3198TIP3    H131153   3.422   3.303   3.637  0.9030 -1.6350 -3.3618
 3198TIP3    H231154   3.287   3.285   3.572 -0.4849 -1.6959 -0.6273
 3199TIP3   OH231155   3.071   2.423   0.016  0.6140  0.0626 -0.1835
 3199TIP3    H131156   3.116   2.505   0.035  0.7527  0.0070 -0.2668
 3199TIP3    H231157   3.057   2.382   0.102 -1.4324  1.1926  0.0766
 3200TIP3   OH231158   6.084   5.557   1.263  0.0058 -0.0866  0.0940
 3200TIP3    H131159   6.115   5.525   1.349  1.2658  4.2925  1.5499
 3200TIP3    H231160   6.145   5.518   1.200  0.6805 -1.4121  1.4995
 3201TIP3   OH231161   2.638   4.263   1.898 -0.5016 -0.4764  0.0560
 3201TIP3    H131162   2.578   4.304   1.961 -0.4862 -1.4865  0.7390
 3201TIP3    H231163   2.720   4.253   1.946 -0.6531 -1.7582  0.0744
 3202TIP3   OH231164   1.501   5.773   1.142  0.4728  0.0462  1.0203
 3202TIP3    H131165   1.563   5.703   1.119  0.8787  0.6529  0.2192
 3202TIP3    H231166   1.415   5.733   1.129  0.6907 -0.6865  1.7684
 3203TIP3   OH231167   4.100   5.655   0.562 -0.0723 -0.6227  0.1852
 3203TIP3    H131168   4.116   5.568   0.526 -1.6191 -0.4787 -0.9699
 3203TIP3    H231169   4.069   5.707   0.488 -0.2757  0.5953  1.0845
 3204TIP3   OH231170   4.581   5.430   2.624 -0.0279 -0.4399  0.4047
 3204TIP3    H131171   4.510   5.402   2.566  0.1291 -1.0102  0.4827
 3204TIP3    H231172   4.545   5.504   2.672  0.2141  0.7897 -1.2328
 3205TIP3   OH231173   3.809   0.628   0.632 -0.3706 -0.5346  0.5897
 3205TIP3    H131174   3.837   0.672   0.552 -0.7316  0.0773  0.7946
 3205TIP3    H231175   3.717   0.652   0.642 -0.2699 -0.4160  1.3066
 3206TIP3   OH231176   1.056   5.405   0.276  0.1735  0.0764  0.2208
 3206TIP3    H131177   1.108   5.407   0.356  0.6134  1.4761 -0.0612
 3206TIP3    H231178   0.965   5.408   0.306  0.3241  0.1543  0.6837
 3207TIP3   OH231179   2.273   3.509   8.200  0.0639  0.2565 -0.3246
 3207TIP3    H131180   2.240   3.467   8.120  1.3881  1.3879 -1.5263
 3207TIP3    H231181   2.366   3.525   8.182 -0.0650  2.4426  0.5746
 3208TIP3   OH231182   2.688   4.676   2.616 -0.3095 -0.0375  0.1412
 3208TIP3    H131183   2.766   4.660   2.669 -0.2518 -0.0952  0.0394
 3208TIP3    H231184   2.720   4.727   2.541 -0.3399 -0.2003  0.0155
 3209TIP3   OH231185   0.219   1.954   0.193  0.4166 -0.0354  0.6488
 3209TIP3    H131186   0.275   2.021   0.232  0.3936 -0.0592  0.7227
 3209TIP3    H231187   0.244   1.953   0.101 -0.3466  0.8501  0.4130
 3210TIP3   OH231188   2.609   1.748   1.414  0.0027 -0.7288 -0.4232
 3210TIP3    H131189   2.675   1.679   1.403  2.0880  0.8026  1.5872
 3210TIP3    H231190   2.659   1.826   1.438 -2.5538  0.3533  2.0046
 3211TIP3   OH231191   4.296   3.002   6.987 -0.4275  0.6448  0.7444
 3211TIP3    H131192   4.389   3.003   7.010  0.2074  0.5862 -1.6268
 3211TIP3    H231193   4.278   2.912   6.961 -0.5242  1.1331 -1.0192
 3212TIP3   OH231194   5.496   2.115   0.433  0.7200  0.0103 -0.3900
 3212TIP3    H131195   5.548   2.054   0.485  0.2540 -0.2086 -0.1739
 3212TIP3    H231196   5.534   2.201   0.451  0.2300  0.0043  0.7295
 3213TIP3   OH231197   3.532   1.317   1.221  0.3475 -0.4681  0.3337
 3213TIP3    H131198   3.542   1.366   1.303 -2.8940  0.0283  0.5625
 3213TIP3    H231199   3.622   1.298   1.194  1.6110  1.3966  2.7516
 3214TIP3   OH231200   4.769   5.303   6.927  0.0844  0.2367  0.0766
 3214TIP3    H131201   4.696   5.364   6.921 -0.3099  0.1245  2.7333
 3214TIP3    H231202   4.847   5.357   6.910 -0.2664  1.5227  2.2333
 3215TIP3   OH231203   3.185   3.064   7.416 -0.0748  0.1700  0.0192
 3215TIP3    H131204   3.257   3.005   7.392  0.5464 -0.4093  2.9263
 3215TIP3    H231205   3.195   3.139   7.356  0.7583 -1.4443 -1.9709
 3216TIP3   OH231206   1.326   6.796   7.356 -0.7369  0.1484 -0.1025
 3216TIP3    H131207   1.305   6.838   7.440  2.4229  0.7611  0.5228
 3216TIP3    H231208   1.366   6.712   7.381 -0.6910 -0.1197 -1.0416
 3217TIP3   OH231209   1.502   1.209   7.165  0.2564  0.5601 -0.7876
 3217TIP3    H131210   1.542   1.295   7.174 -0.2816  0.6737  0.9978
 3217TIP3    H231211   1.566   1.149   7.202  1.7569 -0.2429 -4.2812
 3218TIP3   OH231212   2.521   2.018   1.075  0.0078 -0.0254 -0.3824
 3218TIP3    H131213   2.582   1.970   1.019  1.2813  0.3606  0.6294
 3218TIP3    H231214   2.485   1.952   1.134  0.9646  0.0714  0.3212
 3219TIP3   OH231215   5.014   4.927   1.627 -0.2114  0.5827  0.3644
 3219TIP3    H131216   5.079   4.995   1.647  1.0260 -0.6070  0.5358
 3219TIP3    H231217   5.010   4.874   1.707 -1.6083  0.7898  0.4468
 3220TIP3   OH231218   5.620   1.025   2.222  0.5258 -0.2500 -0.1158
 3220TIP3    H131219   5.569   0.957   2.267 -1.0538 -0.6396 -2.3213
 3220TIP3    H231220   5.620   0.997   2.130  0.4406  2.3533 -0.9822
 3221TIP3   OH231221   1.401   1.096   1.545 -0.2919  0.5667  0.3819
 3221TIP3    H131222   1.469   1.115   1.609 -0.8511  1.2703  0.7891
 3221TIP3    H231223   1.319   1.107   1.594 -0.7018 -0.7836  0.0538
 3222TIP3   OH231224   4.958   0.625   2.394  0.9679  0.1556  0.5261
 3222TIP3    H131225   4.960   0.586   2.482  1.9738  0.8613  0.8357
 3222TIP3    H231226   5.017   0.701   2.400  1.5902 -0.1746 -0.9438
 3223TIP3   OH231227   0.801   1.451   2.766  0.3735 -0.0491  0.4937
 3223TIP3    H131228   0.799   1.546   2.777 -1.4503 -0.1074  0.8952
 3223TIP3    H231229   0.718   1.420   2.802 -0.8023 -1.4203 -2.9168
 3224TIP3   OH231230   1.546   2.384   2.743 -0.4995 -0.3944  0.2641
 3224TIP3    H131231   1.565   2.476   2.723  1.0861 -1.0407 -1.6118
 3224TIP3    H231232   1.627   2.349   2.779 -1.1917 -0.9955  1.2959
 3225TIP3   OH231233   3.595   6.403   3.104  0.1469  0.2258  0.6108
 3225TIP3    H131234   3.644   6.321   3.097  0.6950  0.6398 -0.7276
 3225TIP3    H231235   3.574   6.411   3.197 -1.7138 -2.4453  0.5268
 3226TIP3   OH231236   6.867   3.318   3.207  0.1911  0.2139  0.4374
 3226TIP3    H131237   6.943   3.292   3.155  0.9032 -0.3711  1.7222
 3226TIP3    H231238   6.892   3.298   3.298 -1.2969  0.4931  0.9339
 3227TIP3   OH231239   6.539   3.337   0.744 -0.8169 -0.7262  0.1765
 3227TIP3    H131240   6.487   3.306   0.818 -0.8877  1.1698  0.9749
 3227TIP3    H231241   6.601   3.400   0.782  0.3805 -1.0475 -1.1275
 3228TIP3   OH231242   1.487   2.355   2.031  0.4344 -0.3170 -0.0831
 3228TIP3    H131243   1.541   2.428   2.063  1.2767 -0.9221 -0.0940
 3228TIP3    H231244   1.473   2.376   1.938  0.1059  0.1658  0.0713
 3229TIP3   OH231245   3.486   6.241   2.795 -0.1884  0.2077 -0.6463
 3229TIP3    H131246   3.454   6.253   2.884  0.1903 -1.2796 -0.2831
 3229TIP3    H231247   3.581   6.257   2.801  0.1671 -1.7400 -0.3450
 3230TIP3   OH231248   6.974   5.703   2.512  0.5984 -0.2422  0.1027
 3230TIP3    H131249   7.007   5.632   2.457 -1.0455 -0.8347 -0.1928
 3230TIP3    H231250   6.956   5.661   2.597  0.0136 -0.0938  0.0577
 3231TIP3   OH231251   5.515   3.384   2.347  0.1553  0.2171 -0.1092
 3231TIP3    H131252   5.428   3.413   2.374  0.7062  2.0524 -0.1428
 3231TIP3    H231253   5.501   3.297   2.311 -1.4574 -0.0725  1.0704
 3232TIP3   OH231254   5.337   4.288   7.196 -0.7189 -0.1275  0.4671
 3232TIP3    H131255   5.247   4.319   7.204 -0.4399  0.4217  1.6418
 3232TIP3    H231256   5.332   4.219   7.130 -1.7179  0.9503 -0.6301
 3233TIP3   OH231257   5.961   6.042   2.148 -0.6103  0.1158 -0.1160
 3233TIP3    H131258   5.954   6.070   2.239 -0.0030 -1.1281  0.3375
 3233TIP3    H231259   6.054   6.022   2.136 -0.7713 -0.2244 -0.8517
 3234TIP3   OH231260   2.903   3.551   7.947  0.9991 -0.2829 -0.0366
 3234TIP3    H131261   2.814   3.575   7.919  0.0358  0.0060  2.9847
 3234TIP3    H231262   2.927   3.479   7.889 -2.9001 -3.1933  1.5558
 3235TIP3   OH231263   6.693   3.295   1.618 -0.5300 -0.0388 -0.0870
 3235TIP3    H131264   6.785   3.323   1.616 -1.3788  2.9910 -0.4628
 3235TIP3    H231265   6.667   3.303   1.709 -0.3393 -1.3711  0.1061
 3236TIP3   OH231266   4.547   0.109   0.029  0.5557  0.3448 -0.0217
 3236TIP3    H131267   4.545   0.093  -0.066 -0.9060  0.8978 -0.1038
 3236TIP3    H231268   4.467   0.159   0.047 -0.2996 -1.5246  1.8057
 3237TIP3   OH231269   5.544   5.697   1.300 -0.1780 -0.1798 -0.4409
 3237TIP3    H131270   5.619   5.730   1.349 -0.1484  1.2731 -1.4226
 3237TIP3    H231271   5.580   5.675   1.214 -0.1899 -2.8688  0.1527
 3238TIP3   OH231272   5.514   0.853   7.059  0.2912  0.4012 -0.1277
 3238TIP3    H131273   5.508   0.948   7.069  0.9891  0.8862 -3.1760
 3238TIP3    H231274   5.465   0.834   6.980 -0.9882 -2.0434  1.1422
 3239TIP3   OH231275   5.464   5.946   1.089 -0.5911  0.6052 -0.6091
 3239TIP3    H131276   5.399   5.877   1.075 -0.7886  0.7734 -0.5312
 3239TIP3    H231277   5.548   5.903   1.079 -0.6706  0.0096  1.0142
 3240TIP3   OH231278   5.244   3.081   1.231 -0.1076 -0.2507  0.4432
 3240TIP3    H131279   5.262   2.987   1.226  0.8159 -0.0036 -1.4465
 3240TIP3    H231280   5.330   3.121   1.238 -0.1896  0.6153 -2.4231
 3241TIP3   OH231281   0.925   3.243   6.973 -0.7324  0.5245 -0.3172
 3241TIP3    H131282   0.982   3.166   6.981 -1.3227  0.1343  0.2129
 3241TIP3    H231283   0.984   3.313   6.947 -0.0037  0.1127  0.1735
 3242TIP3   OH231284   0.981   2.092   0.051  0.2037 -0.0878  0.2458
 3242TIP3    H131285   0.969   2.078  -0.043 -2.7138  0.9841  0.3533
 3242TIP3    H231286   1.061   2.145   0.057 -0.3943  1.1426 -1.7811
 3243TIP3   OH231287   1.180   5.655   0.195  0.3229 -0.3024  0.4893
 3243TIP3    H131288   1.123   5.586   0.228 -1.0951  0.9698  0.8316
 3243TIP3    H231289   1.266   5.636   0.233 -0.5548 -0.6299  2.4168
 3244TIP3   OH231290   4.941   6.531   3.092  0.4892 -0.3322  0.3631
 3244TIP3    H131291   4.861   6.489   3.125  0.4983 -0.3842  0.3199
 3244TIP3    H231292   4.979   6.466   3.032 -1.1231  0.9061 -2.1747
 3245TIP3   OH231293   3.235   4.921   0.905  0.5202  0.4031  0.3242
 3245TIP3    H131294   3.211   4.916   0.998  1.6828  0.1506  0.6407
 3245TIP3    H231295   3.181   4.855   0.862 -0.9130  1.3700  0.6103
 3246TIP3   OH231296   4.457   2.729   1.551  0.2832  0.3161  0.0096
 3246TIP3    H131297   4.386   2.665   1.562  0.7980 -0.1628  0.6017
 3246TIP3    H231298   4.416   2.813   1.572  0.2213 -0.1084  1.7888
 3247TIP3   OH231299   4.284   5.253   0.162  1.0604  0.2023  0.4199
 3247TIP3    H131300   4.277   5.179   0.101 -0.3393 -1.2514  2.2473
 3247TIP3    H231301   4.349   5.225   0.227  1.4582  1.1305  0.4448
 3248TIP3   OH231302   6.591   3.351   7.361  0.2185 -0.2008 -0.2170
 3248TIP3    H131303   6.583   3.269   7.409  1.0511 -1.2892 -1.8280
 3248TIP3    H231304   6.683   3.356   7.337  0.2627  1.4520  0.2444
 3249TIP3   OH231305   0.883   2.600   8.010  0.8538  0.1215  0.1297
 3249TIP3    H131306   0.797   2.565   8.033 -0.1220  1.3702 -1.3713
 3249TIP3    H231307   0.897   2.672   8.072  0.4436  0.4239 -0.1257
 3250TIP3   OH231308   4.748   3.076   2.511  0.1415 -0.0817  0.8295
 3250TIP3    H131309   4.669   3.113   2.551  0.0785  0.1815  0.4628
 3250TIP3    H231310   4.727   2.984   2.495 -0.1467  0.0272  0.5874
 3251TIP3   OH231311   6.010   3.563   7.279 -0.1700  0.2850  0.4382
 3251TIP3    H131312   6.074   3.494   7.291  0.3805  0.9533  1.4562
 3251TIP3    H231313   5.926   3.522   7.302  0.1349 -0.0826  0.9119
 3252TIP3   OH231314   2.275   1.432   8.080 -0.4382  0.8736 -0.1679
 3252TIP3    H131315   2.254   1.525   8.080  1.6414  1.3910 -0.2088
 3252TIP3    H231316   2.279   1.408   7.988  0.8570  1.2239 -0.2180
 3253TIP3   OH231317   1.087   3.146   2.131  0.5116 -0.5358  0.0753
 3253TIP3    H131318   1.001   3.161   2.093 -0.1257 -0.2502  1.5292
 3253TIP3    H231319   1.134   3.229   2.118  0.0931 -0.2383  0.4165
 3254TIP3   OH231320   3.620   6.954   1.974 -1.0435 -0.3289 -0.5770
 3254TIP3    H131321   3.629   7.043   1.939 -1.4930  0.5019  1.2917
 3254TIP3    H231322   3.672   6.900   1.915 -1.2615  1.0653 -2.1260
 3255TIP3   OH231323   6.251   0.524   3.118 -0.4799  0.5121  0.5872
 3255TIP3    H131324   6.272   0.605   3.072 -0.4420  0.1858  0.0231
 3255TIP3    H231325   6.268   0.455   3.054  1.3435 -0.0825  1.6356
 3256TIP3   OH231326   5.359   0.657   7.377  0.1561 -0.0041  0.3876
 3256TIP3    H131327   5.342   0.747   7.402  1.1571  0.2338  0.2844
 3256TIP3    H231328   5.315   0.604   7.444 -0.9986  0.5356  0.0766
 3257TIP3   OH231329   3.154   2.341   0.290  0.6267 -0.0181 -0.2637
 3257TIP3    H131330   3.196   2.427   0.287  1.3185 -0.3346  0.1734
 3257TIP3    H231331   3.120   2.333   0.379  0.2119 -0.0452 -0.4178
 3258TIP3   OH231332   0.739   4.671   0.112  0.5131  0.4310  0.1800
 3258TIP3    H131333   0.759   4.689   0.020  1.4427 -1.6595 -0.0767
 3258TIP3    H231334   0.811   4.711   0.160  0.3947  0.9313 -0.0563
 3259TIP3   OH231335   0.448   1.404   1.706  0.5206 -0.2057  0.4208
 3259TIP3    H131336   0.542   1.418   1.715  0.4475 -0.2572  1.4118
 3259TIP3    H231337   0.434   1.314   1.736  0.2531 -0.4734 -0.4816
 3260TIP3   OH231338   1.650   2.506   1.414  0.1533  0.2954  0.3146
 3260TIP3    H131339   1.635   2.578   1.476  1.9238  1.0275 -0.0384
 3260TIP3    H231340   1.677   2.432   1.469 -1.7738 -0.1774  0.6903
 3261TIP3   OH231341   3.901   4.116   2.818  0.4272  0.2906 -0.1008
 3261TIP3    H131342   3.875   4.025   2.837  1.0401 -0.1764 -1.3561
 3261TIP3    H231343   3.828   4.169   2.850 -0.1400 -0.6768  0.2625
 3262TIP3   OH231344   3.262   2.940   0.085 -0.3200 -0.6565 -0.0372
 3262TIP3    H131345   3.324   3.004   0.118 -0.9440 -0.2830  0.4306
 3262TIP3    H231346   3.290   2.923  -0.005  0.2500 -0.2372  0.0594
 3263TIP3   OH231347   5.511   3.680   1.979  0.0670 -0.3181 -0.3710
 3263TIP3    H131348   5.559   3.732   2.044  0.7932  1.0485 -1.9175
 3263TIP3    H231349   5.542   3.591   1.991 -0.5699 -0.3036  1.7973
 3264TIP3   OH231350   2.152   1.541   1.440 -0.3557 -0.0249 -0.9599
 3264TIP3    H131351   2.110   1.622   1.468 -0.4561 -0.0775 -0.9561
 3264TIP3    H231352   2.176   1.555   1.349  1.0309  0.5767 -0.5260
 3265TIP3   OH231353   5.084   4.953   7.298  0.5150  0.5486 -0.2109
 3265TIP3    H131354   4.995   4.986   7.286  0.5570  1.1584  0.9529
 3265TIP3    H231355   5.136   4.997   7.231 -0.1052 -0.0398 -1.0883
 3266TIP3   OH231356   4.261   4.265   2.202  0.1766  0.4891 -0.5145
 3266TIP3    H131357   4.169   4.270   2.229  0.4402 -2.1007  1.1860
 3266TIP3    H231358   4.268   4.182   2.155  1.8533  0.1261  0.3094
 3267TIP3   OH231359   2.529   4.008   1.821  0.4257 -0.0159  0.2326
 3267TIP3    H131360   2.578   4.086   1.848  0.1357  0.1398  0.3139
 3267TIP3    H231361   2.494   3.973   1.903  0.9297 -0.4898  0.2510
 3268TIP3   OH231362   2.654   3.366   1.487 -0.3285 -0.1370  0.6117
 3268TIP3    H131363   2.703   3.436   1.445  3.0885 -1.5651  1.8467
 3268TIP3    H231364   2.619   3.314   1.415  0.4911  0.6088 -0.3524
 3269TIP3   OH231365   3.248   4.979   2.224  0.1985  0.3413  0.8147
 3269TIP3    H131366   3.305   4.933   2.161 -0.6734  1.5109 -0.8934
 3269TIP3    H231367   3.300   4.984   2.304  1.3549 -1.1908  0.2124
 3270TIP3   OH231368   1.446   1.660   1.016  0.2650  0.2285 -0.0183
 3270TIP3    H131369   1.460   1.754   1.005 -1.2749  0.3117 -1.4978
 3270TIP3    H231370   1.353   1.647   1.003  0.3457 -1.4520  0.7826
 3271TIP3   OH231371   6.076   0.341   0.555  0.6892 -0.3302  0.0904
 3271TIP3    H131372   6.074   0.267   0.616  0.4542 -1.1241 -0.8741
 3271TIP3    H231373   5.995   0.389   0.573  0.8272 -0.3109  0.6934
 3272TIP3   OH231374   5.558   2.258   2.616 -0.8165  0.1477 -0.1579
 3272TIP3    H131375   5.469   2.292   2.621 -0.4697  1.1002 -0.2690
 3272TIP3    H231376   5.606   2.307   2.683 -0.3083 -0.1517 -0.2965
 3273TIP3   OH231377   4.890   6.208   7.218 -0.3536 -0.0368 -0.2905
 3273TIP3    H131378   4.970   6.175   7.178 -0.5035  1.2966 -1.7660
 3273TIP3    H231379   4.865   6.140   7.281  1.6171 -0.7329 -0.1808
 3274TIP3   OH231380   1.965   0.912   7.198  0.7653 -0.6635  0.0422
 3274TIP3    H131381   1.955   0.944   7.288 -0.7936  0.6171 -0.5451
 3274TIP3    H231382   1.951   0.989   7.143 -0.0541 -1.7485 -1.3403
 3275TIP3   OH231383   3.147   5.809   0.561  0.2223  0.0505  0.1030
 3275TIP3    H131384   3.087   5.848   0.624 -0.7319  0.4591 -1.0344
 3275TIP3    H231385   3.224   5.866   0.562  0.0314  0.3057  0.5567
 3276TIP3   OH231386   3.334   6.957   1.914 -0.1038 -0.2067 -0.1976
 3276TIP3    H131387   3.328   7.007   1.996  1.4208 -2.4914  1.4264
 3276TIP3    H231388   3.427   6.957   1.893 -0.5809  1.3732 -2.7186
 3277TIP3   OH231389   3.427   3.140   2.151  0.1677 -0.2942 -0.0884
 3277TIP3    H131390   3.487   3.074   2.186 -1.5866 -1.6179  0.5263
 3277TIP3    H231391   3.353   3.090   2.118 -0.3779  1.2697 -1.3481
 3278TIP3   OH231392   3.812   3.602   1.402 -0.1755  0.3865  0.5289
 3278TIP3    H131393   3.893   3.568   1.364  0.4288  3.2709 -1.0941
 3278TIP3    H231394   3.745   3.538   1.378  1.5445 -2.0290  1.8506
 3279TIP3   OH231395   5.336   3.364   1.343 -0.0033 -0.3419 -0.2298
 3279TIP3    H131396   5.294   3.415   1.412 -0.5589 -1.6364  0.4229
 3279TIP3    H231397   5.429   3.368   1.364  0.0622  1.0904 -0.6880
 3280TIP3   OH231398   5.834   4.695   1.475 -0.4420  0.0271 -0.2712
 3280TIP3    H131399   5.918   4.649   1.474 -0.1157  0.6082 -1.6298
 3280TIP3    H231400   5.775   4.636   1.522  1.2938  0.7446  3.1579
 3281TIP3   OH231401   0.868   4.247   7.612 -0.4155 -0.3552 -0.6845
 3281TIP3    H131402   0.838   4.181   7.675 -0.4824 -1.0744 -1.4477
 3281TIP3    H231403   0.827   4.221   7.529  0.1678  0.2133 -1.1578
 3282TIP3   OH231404   6.143   6.569   2.524 -0.0334 -0.0563  0.1845
 3282TIP3    H131405   6.238   6.571   2.511 -0.1528  0.7814 -0.6570
 3282TIP3    H231406   6.132   6.536   2.613  1.0915  0.6748  0.6228
 3283TIP3   OH231407   3.135   4.146   0.793 -0.2084 -0.5290  0.4783
 3283TIP3    H131408   3.230   4.142   0.803 -0.0529  0.2428 -0.4776
 3283TIP3    H231409   3.117   4.103   0.710 -0.5863  0.1469  0.1956
 3284TIP3   OH231410   4.559   0.094   2.568  0.0195  0.3799 -0.5445
 3284TIP3    H131411   4.612   0.132   2.638 -2.0014  1.8084  0.3138
 3284TIP3    H231412   4.597   0.007   2.553  1.3498  0.5797  1.3588
 3285TIP3   OH231413   5.127   4.253   0.765  0.3364 -0.7625 -0.1469
 3285TIP3    H131414   5.219   4.238   0.741  0.4451 -1.8124  0.8210
 3285TIP3    H231415   5.126   4.340   0.805  0.8574 -0.6434 -0.3847
 3286TIP3   OH231416   1.860   5.128   7.591 -0.1528  0.5496  0.5629
 3286TIP3    H131417   1.889   5.038   7.583 -0.6282  0.4618 -0.2102
 3286TIP3    H231418   1.932   5.173   7.635  0.6179  0.0655 -0.1965
 3287TIP3   OH231419   3.877   2.704   2.755 -0.0741 -0.3326 -0.0523
 3287TIP3    H131420   3.843   2.777   2.703  0.9965  0.4872  0.3499
 3287TIP3    H231421   3.953   2.741   2.800 -1.2075 -0.8974  2.4438
 3288TIP3   OH231422   5.050   3.122   7.156 -0.1838 -0.1462  0.2360
 3288TIP3    H131423   5.031   3.213   7.134  2.4000  0.7187  1.1297
 3288TIP3    H231424   4.970   3.089   7.195 -1.6835  1.2420 -1.4837
 3289TIP3   OH231425   5.326   5.874   2.674  0.0155  0.5461  0.1701
 3289TIP3    H131426   5.292   5.895   2.587 -0.0675  0.0508  0.0817
 3289TIP3    H231427   5.411   5.918   2.677 -0.4625  1.4772  0.2540
 3290TIP3   OH231428   4.552   0.242   7.444  1.2200  0.3691  0.4631
 3290TIP3    H131429   4.504   0.213   7.522  0.0283 -0.9617 -0.7217
 3290TIP3    H231430   4.490   0.301   7.399  2.1594  1.6927  0.8302
 3291TIP3   OH231431   0.725   6.498   0.011  0.0323 -0.1141 -0.4434
 3291TIP3    H131432   0.787   6.535   0.075 -0.6489 -0.1413  0.2469
 3291TIP3    H231433   0.781   6.464  -0.059  0.7320  1.3290 -0.6367
 3292TIP3   OH231434   5.257   2.483   0.365 -0.7284  0.2231 -0.2563
 3292TIP3    H131435   5.181   2.523   0.325  0.1907 -0.7278 -3.2123
 3292TIP3    H231436   5.328   2.546   0.351 -0.5510  0.2805  0.7848
 3293TIP3   OH231437   3.983   4.057   8.034 -0.1638  0.1158  0.0575
 3293TIP3    H131438   3.983   4.140   7.986  1.0925  1.1668  1.7563
 3293TIP3    H231439   3.893   4.025   8.026 -0.2830  0.8144 -1.9637
 3294TIP3   OH231440   3.186   2.668   0.005  0.3709  0.2292  0.2472
 3294TIP3    H131441   3.256   2.734   0.003  0.2625  0.4180  1.8879
 3294TIP3    H231442   3.114   2.709  -0.043 -0.0705  1.8001  2.1044
 3295TIP3   OH231443   1.899   1.264   7.989 -0.1528  0.1080  0.2494
 3295TIP3    H131444   1.984   1.238   8.022  0.4816  0.7876 -0.7962
 3295TIP3    H231445   1.906   1.258   7.893 -1.6015 -0.8041  0.1646
 3296TIP3   OH231446   5.175   0.844   7.184 -0.4210 -0.0506 -0.1698
 3296TIP3    H131447   5.224   0.762   7.175  0.5008  0.5989 -1.3396
 3296TIP3    H231448   5.089   0.817   7.217  0.4211 -1.3111  1.1043
 3297TIP3   OH231449   6.820   6.825   7.464  0.3204 -0.2576 -0.0139
 3297TIP3    H131450   6.815   6.913   7.427  2.5011  0.0929  0.4358
 3297TIP3    H231451   6.898   6.786   7.424  0.3070 -1.3952  1.0132
 3298TIP3   OH231452   4.027   3.600   1.227 -0.1788 -0.1762  0.0246
 3298TIP3    H131453   4.055   3.665   1.163  0.1044  0.0359  0.3580
 3298TIP3    H231454   4.107   3.573   1.271 -0.2239 -1.1737 -0.4925
 3299TIP3   OH231455   1.339   6.199   7.659  0.3689  0.1247  0.4898
 3299TIP3    H131456   1.355   6.231   7.748  0.1659  0.7710  0.2968
 3299TIP3    H231457   1.315   6.277   7.609  0.1240 -0.2911 -0.0513
 3300TIP3   OH231458   0.556   5.097   6.891 -0.3315 -0.0276 -0.1179
 3300TIP3    H131459   0.499   5.149   6.948  0.3681 -0.8114  1.3532
 3300TIP3    H231460   0.603   5.039   6.951  1.8066  0.3878 -1.3083
 3301TIP3   OH231461   6.479   5.275   3.118  0.7664  0.1716 -0.1388
 3301TIP3    H131462   6.463   5.354   3.169  0.3101 -0.2973  0.4529
 3301TIP3    H231463   6.423   5.208   3.157  0.0504 -0.0980 -1.5443
 3302TIP3   OH231464   0.546   4.843   0.654  0.0752  0.3365 -0.4697
 3302TIP3    H131465   0.492   4.913   0.691  1.5157  1.0383  0.3953
 3302TIP3    H231466   0.499   4.763   0.675  0.6146  0.7128  2.6522
 3303TIP3   OH231467   1.308   0.049   7.255  0.3517 -0.0454 -0.4659
 3303TIP3    H131468   1.248   0.069   7.183 -0.0663 -1.4341 -0.5353
 3303TIP3    H231469   1.301  -0.045   7.267  1.4813 -0.0429  0.4689
 3304TIP3   OH231470   1.191   5.778   8.200 -0.4024 -0.7566 -0.8000
 3304TIP3    H131471   1.179   5.734   8.284  1.0206  2.1499  1.0840
 3304TIP3    H231472   1.267   5.734   8.161 -0.6280 -1.6485 -0.2781
 3305TIP3   OH231473   5.401   2.241   3.006 -0.1696 -0.3900 -0.3969
 3305TIP3    H131474   5.429   2.264   3.094 -2.0754  0.1199  0.1131
 3305TIP3    H231475   5.380   2.147   3.011  0.4201 -0.5364 -0.5253
 3306TIP3   OH231476   1.755   6.089   2.732 -0.2152  0.0235 -0.1257
 3306TIP3    H131477   1.721   6.003   2.758 -1.4893  0.8689  1.0909
 3306TIP3    H231478   1.833   6.068   2.681 -0.3410 -1.8570  0.3579
 3307TIP3   OH231479   5.127   2.076   1.258 -0.0535  0.4904  0.5105
 3307TIP3    H131480   5.042   2.095   1.298  0.3362  1.0198  1.1046
 3307TIP3    H231481   5.122   1.983   1.234 -0.6383  0.4006  0.9505
 3308TIP3   OH231482   6.294   4.402   7.884  0.4264 -0.2037 -0.2723
 3308TIP3    H131483   6.334   4.444   7.960  0.8906 -1.0774 -0.0213
 3308TIP3    H231484   6.345   4.434   7.809 -0.1194  0.7660 -0.2489
 3309TIP3   OH231485   6.693   3.186   7.872  0.3151 -0.0595 -0.0612
 3309TIP3    H131486   6.655   3.152   7.953 -2.2227 -1.3562 -1.6869
 3309TIP3    H231487   6.693   3.112   7.812  2.7485  0.7028 -1.1214
 3310TIP3   OH231488   5.139   0.491   2.013 -0.1193  0.1675  0.0616
 3310TIP3    H131489   5.220   0.455   1.976 -0.5808 -1.3120  0.4349
 3310TIP3    H231490   5.131   0.578   1.972  1.5159  0.2486 -0.1643
 3311TIP3   OH231491   4.460   4.175   7.822  1.2222 -0.1265  0.6469
 3311TIP3    H131492   4.436   4.226   7.899  0.9157  0.5252  0.1258
 3311TIP3    H231493   4.485   4.089   7.857  2.5906  0.6313  1.6277
 3312TIP3   OH231494   4.197   2.714   7.940  0.3475 -0.0233  0.0264
 3312TIP3    H131495   4.143   2.793   7.934 -0.1238 -0.2945  0.5344
 3312TIP3    H231496   4.178   2.679   8.027 -2.4630 -2.7958 -1.4651
 3313TIP3   OH231497   5.601   0.699   1.084 -0.1328  0.4758  0.5746
 3313TIP3    H131498   5.564   0.697   0.995 -0.9089  1.1000  0.8668
 3313TIP3    H231499   5.626   0.609   1.101  1.2773  0.5680 -0.7767
 3314TIP3   OH231500   2.776   0.919   0.599 -0.4699 -0.7190  0.5903
 3314TIP3    H131501   2.804   0.923   0.507  0.3537  1.4975  0.8652
 3314TIP3    H231502   2.857   0.906   0.648 -0.8265 -1.2647  1.0427
 3315TIP3   OH231503   2.429   4.908   7.980  0.2865 -0.1854 -0.0530
 3315TIP3    H131504   2.461   4.996   8.003  0.3678 -0.6022  1.5634
 3315TIP3    H231505   2.502   4.868   7.932  1.1414 -0.1225  1.1368
 3316TIP3   OH231506   6.372   3.801   2.413  0.3108  0.7059  0.0706
 3316TIP3    H131507   6.385   3.708   2.393  0.8796  0.9179 -0.5754
 3316TIP3    H231508   6.327   3.801   2.498 -1.4521 -0.1926 -0.8225
 3317TIP3   OH231509   4.611   3.329   1.152 -0.3160 -0.2851  0.5463
 3317TIP3    H131510   4.653   3.415   1.142  0.7608 -0.8224  0.3576
 3317TIP3    H231511   4.636   3.301   1.240 -1.2714 -0.0966  0.8873
 3318TIP3   OH231512   2.511   0.520   0.838 -0.4179  0.2962 -0.1843
 3318TIP3    H131513   2.507   0.566   0.755  2.5032 -1.0177 -1.1653
 3318TIP3    H231514   2.556   0.580   0.897 -2.7210  1.3366  0.6477
 3319TIP3   OH231515   5.491   0.583   0.650  0.0952  0.1490 -0.2263
 3319TIP3    H131516   5.417   0.536   0.687 -0.3809 -1.8526 -3.3453
 3319TIP3    H231517   5.569   0.543   0.689 -0.3828 -1.6689 -1.0544
 3320TIP3   OH231518   5.752   0.649   1.886  1.1673  0.0892 -0.2018
 3320TIP3    H131519   5.825   0.618   1.834  1.4630 -0.6849  0.6359
 3320TIP3    H231520   5.773   0.740   1.906  0.8495  0.5234 -1.7345
 3321TIP3   OH231521   2.788   3.065   0.789  0.2662 -0.4000 -0.2965
 3321TIP3    H131522   2.865   3.010   0.806  1.3116  1.3609  1.1421
 3321TIP3    H231523   2.786   3.074   0.694  1.9792 -0.3724 -0.3753
 3322TIP3   OH231524   4.374   3.026   3.394  0.0066 -0.2272 -0.1359
 3322TIP3    H131525   4.303   2.962   3.387  0.4566 -0.8950  1.0804
 3322TIP3    H231526   4.332   3.110   3.376 -0.4982 -0.8613 -2.3473
 3323TIP3   OH231527   3.066   7.012   7.593  0.4449  0.7964 -0.0615
 3323TIP3    H131528   3.157   6.984   7.597 -0.0687 -1.0342 -0.1435
 3323TIP3    H231529   3.028   6.986   7.677 -0.3996 -0.0710 -0.6855
 3324TIP3   OH231530   2.651   5.477   0.264  0.1141 -1.0362  0.0754
 3324TIP3    H131531   2.676   5.442   0.349  0.3599 -2.3195 -0.5098
 3324TIP3    H231532   2.586   5.416   0.230 -1.6577  0.6601  0.2792
 3325TIP3   OH231533   3.198   0.035   0.086 -0.3407  0.1878  0.2311
 3325TIP3    H131534   3.254  -0.010   0.023  0.2904 -0.3642  1.1659
 3325TIP3    H231535   3.254   0.103   0.124 -1.2579  1.7805 -1.1164
 3326TIP3   OH231536   2.273   0.189   7.785 -0.4751  0.3193  0.4780
 3326TIP3    H131537   2.207   0.237   7.736 -2.0758 -0.1176  2.0910
 3326TIP3    H231538   2.232   0.105   7.804  0.5322  0.0539  1.6024
 3327TIP3   OH231539   6.770   5.438   0.903 -0.3712  0.4838 -0.2735
 3327TIP3    H131540   6.839   5.466   0.844 -3.1769  4.2298 -2.2247
 3327TIP3    H231541   6.815   5.413   0.984  3.4756 -2.6791 -3.0525
 3328TIP3   OH231542   3.509   3.838   6.958  0.0573  0.4315 -0.2069
 3328TIP3    H131543   3.502   3.912   7.019  0.0107  0.7882 -0.6411
 3328TIP3    H231544   3.589   3.856   6.908  0.8917 -0.5762  0.6888
 3329TIP3   OH231545   2.545   0.126   2.743  0.2298  0.0332  0.6063
 3329TIP3    H131546   2.518   0.068   2.672 -1.2688  0.7328  0.5448
 3329TIP3    H231547   2.553   0.212   2.701 -1.9609  0.7310  1.4324
 3330TIP3   OH231548   5.219   4.226   8.107 -0.1600 -0.0179  0.1827
 3330TIP3    H131549   5.279   4.193   8.174  0.1041  0.3504  0.1322
 3330TIP3    H231550   5.229   4.321   8.110 -0.7074  0.0428  0.1380
 3331TIP3   OH231551   2.158   1.160   8.054  0.2541 -0.7903  0.2586
 3331TIP3    H131552   2.224   1.210   8.103 -0.4114 -0.0813  0.4615
 3331TIP3    H231553   2.166   1.071   8.086  2.8177 -1.2933 -1.5226
 3332TIP3   OH231554   1.366   2.361   2.339  1.1628 -0.3523  0.1834
 3332TIP3    H131555   1.369   2.268   2.364 -0.5605 -0.4105  0.3382
 3332TIP3    H231556   1.314   2.362   2.259  1.3961  0.4546  0.0408
 3333TIP3   OH231557   5.558   4.577   7.633  0.5113  1.2171  0.4323
 3333TIP3    H131558   5.588   4.552   7.721  2.7697  0.4765 -0.4863
 3333TIP3    H231559   5.634   4.618   7.592 -0.8009  2.4773 -0.8688
 3334TIP3   OH231560   6.651   4.222   2.005 -0.2892  0.1436 -0.0057
 3334TIP3    H131561   6.647   4.129   2.027 -0.0259 -0.0748 -0.8339
 3334TIP3    H231562   6.562   4.253   2.019 -0.6614 -0.5047 -0.8182
 3335TIP3   OH231563   0.667   3.466   7.299  0.2665  0.2168 -0.3937
 3335TIP3    H131564   0.732   3.399   7.321 -0.9109 -2.0694 -3.1042
 3335TIP3    H231565   0.709   3.518   7.230 -0.4257 -0.8500 -1.6797
 3336TIP3   OH231566   4.317   4.920   7.793 -0.2024  0.1906  0.2275
 3336TIP3    H131567   4.321   4.889   7.703  1.3114 -1.9714  0.9696
 3336TIP3    H231568   4.342   5.012   7.787  0.8460 -0.1561 -1.4574
 3337TIP3   OH231569   3.223   3.731   0.238  0.6458 -0.4512 -0.1327
 3337TIP3    H131570   3.302   3.784   0.230 -1.4000  2.8131 -0.7099
 3337TIP3    H231571   3.237   3.657   0.180  3.3007 -0.0571 -0.1002
 3338TIP3   OH231572   3.373   0.594   0.920  0.2022 -0.0299  0.0422
 3338TIP3    H131573   3.334   0.607   0.834  1.5522 -0.4895 -0.6499
 3338TIP3    H231574   3.304   0.621   0.981 -0.2230  1.8512 -1.1789
 3339TIP3   OH231575   3.575   0.083   0.398  0.5686 -0.7325 -0.3162
 3339TIP3    H131576   3.585   0.004   0.451  0.0093 -1.1407 -0.7948
 3339TIP3    H231577   3.578   0.155   0.460 -0.6511 -1.2315  0.3577
 3340TIP3   OH231578   4.525   3.680   0.918  0.9360 -0.3648  0.1919
 3340TIP3    H131579   4.479   3.704   0.998  3.9080  0.0268  1.9324
 3340TIP3    H231580   4.529   3.761   0.867 -0.0431 -0.3467  0.1416
 3341TIP3   OH231581   1.073   0.879   1.435  0.4167  0.0348  0.3056
 3341TIP3    H131582   1.109   0.806   1.385  2.0569  0.5674  0.6508
 3341TIP3    H231583   1.122   0.879   1.517 -0.4337  0.7625  0.8348
 3342TIP3   OH231584   6.491   4.284   7.156 -0.0904 -0.3048  0.4329
 3342TIP3    H131585   6.505   4.330   7.239  1.1363 -1.1306  0.7089
 3342TIP3    H231586   6.541   4.334   7.092 -0.1131 -0.3129  0.4088
 3343TIP3   OH231587   2.113   4.256   1.381  0.1494 -0.6692 -0.1926
 3343TIP3    H131588   2.047   4.261   1.313  0.4243 -0.5651 -0.4545
 3343TIP3    H231589   2.075   4.302   1.456 -0.3377 -1.1846 -0.1193
 3344TIP3   OH231590   5.728   6.176   8.195  0.2582 -0.2736 -0.1686
 3344TIP3    H131591   5.773   6.260   8.208 -0.4495 -0.0702  1.1266
 3344TIP3    H231592   5.649   6.183   8.248  0.4952 -2.0032  0.4797
 3345TIP3   OH231593   6.331   2.054   1.866 -0.6154  0.0994  0.3167
 3345TIP3    H131594   6.333   2.098   1.951 -0.6331  1.6055 -0.4236
 3345TIP3    H231595   6.242   2.067   1.834 -0.0501  1.4693 -0.8490
 3346TIP3   OH231596   3.196   0.790   1.589  0.5060 -0.0642  0.7305
 3346TIP3    H131597   3.265   0.727   1.567  0.3992 -0.4492  1.4735
 3346TIP3    H231598   3.238   0.850   1.650  0.0604 -0.5816  1.5632
 3347TIP3   OH231599   1.407   0.546   2.643 -0.0683  0.3422 -0.1767
 3347TIP3    H131600   1.404   0.612   2.574  0.1958  0.9741  0.4130
 3347TIP3    H231601   1.341   0.481   2.617 -0.9275  1.2561 -0.3338
 3348TIP3   OH231602   5.743   6.501   2.514 -0.3610 -0.3910  0.0183
 3348TIP3    H131603   5.753   6.543   2.600  0.0701 -1.5215  0.5439
 3348TIP3    H231604   5.814   6.537   2.462  0.5259 -1.0626  0.7256
 3349TIP3   OH231605   0.517   6.324   0.128  0.1074 -0.0388 -0.8491
 3349TIP3    H131606   0.590   6.380   0.101 -1.6633  2.1785 -1.3085
 3349TIP3    H231607   0.535   6.304   0.220  0.6834  1.5030 -0.5932
 3350TIP3   OH231608   3.545   0.014   1.002  0.0532  0.2425 -0.0823
 3350TIP3    H131609   3.540   0.109   0.995 -1.5755  0.1162 -1.3786
 3350TIP3    H231610   3.624  -0.010   0.953  1.5307  0.9944  1.8040
 3351TIP3   OH231611   3.419   6.857   0.233  0.5454  0.1391  0.1283
 3351TIP3    H131612   3.488   6.923   0.234  0.7558 -0.0904  0.9827
 3351TIP3    H231613   3.464   6.776   0.211  0.7625 -0.2310  1.8265
 3352TIP3   OH231614   6.075   3.146   7.006  0.0547  0.4601  0.2095
 3352TIP3    H131615   6.058   3.055   7.031  0.7899 -0.5298 -2.4992
 3352TIP3    H231616   6.147   3.174   7.062 -1.6641  0.2576  2.6999
 3353TIP3   OH231617   3.833   5.089   1.590 -0.1058  0.1497  0.1805
 3353TIP3    H131618   3.806   5.080   1.681 -0.7540 -1.0420 -0.1051
 3353TIP3    H231619   3.777   5.029   1.542  1.1554 -0.2775 -0.8320
 3354TIP3   OH231620   4.772   5.229   2.644 -0.1956 -0.5250  0.3293
 3354TIP3    H131621   4.742   5.180   2.719  0.2945 -0.2955  0.6810
 3354TIP3    H231622   4.724   5.312   2.649 -0.4743 -0.6746  0.1503
 3355TIP3   OH231623   4.713   2.369   2.573  0.1497 -0.4369  0.1686
 3355TIP3    H131624   4.805   2.350   2.590  0.9030  2.6252  0.1119
 3355TIP3    H231625   4.685   2.421   2.649 -1.9294 -2.2739  0.7633
 3356TIP3   OH231626   3.785   5.350   1.536 -0.7713 -0.1745  0.3044
 3356TIP3    H131627   3.782   5.256   1.552 -0.5449 -0.5836 -1.7358
 3356TIP3    H231628   3.805   5.357   1.443 -0.4685  1.9088  0.4871
 3357TIP3   OH231629   3.154   6.338   8.171 -0.0677  0.0846 -0.0937
 3357TIP3    H131630   3.170   6.420   8.218  0.7594 -0.5289  0.7214
 3357TIP3    H231631   3.239   6.313   8.136 -0.8607  1.1688 -3.0772
 3358TIP3   OH231632   5.954   0.556   2.516 -0.8801  0.3987  0.0585
 3358TIP3    H131633   5.969   0.649   2.531 -0.2404  0.7320 -2.2260
 3358TIP3    H231634   6.013   0.512   2.577  0.0071  1.5260  0.0493
 3359TIP3   OH231635   4.807   1.295   1.402 -0.2890  0.3503 -0.2093
 3359TIP3    H131636   4.777   1.321   1.489 -0.9200  0.2564 -0.3870
 3359TIP3    H231637   4.892   1.336   1.391  0.1181 -0.2271  0.7398
 3360TIP3   OH231638   1.572   4.466   7.634 -0.0517  0.2872  0.1835
 3360TIP3    H131639   1.580   4.402   7.705  0.6161  0.2728  0.1100
 3360TIP3    H231640   1.498   4.435   7.582 -0.4335  0.1962  0.7687
 3361TIP3   OH231641   1.757   5.650   0.972 -0.2509 -0.1468  0.1858
 3361TIP3    H131642   1.710   5.667   0.890  0.3968 -1.2185 -0.4414
 3361TIP3    H231643   1.839   5.609   0.944  1.2436  1.9370  1.2050
 3362TIP3   OH231644   2.050   6.948   2.390 -0.4404  0.4154  0.0943
 3362TIP3    H131645   2.068   6.866   2.437 -2.3094  0.2905  0.6806
 3362TIP3    H231646   2.067   6.927   2.299 -0.1743 -0.4146  0.3216
 3363TIP3   OH231647   6.024   6.522   7.414 -0.1170 -0.8220  0.0080
 3363TIP3    H131648   6.087   6.494   7.348  0.6375 -1.7738  1.0942
 3363TIP3    H231649   6.006   6.614   7.393 -0.5425 -1.3216 -1.9973
 3364TIP3   OH231650   6.306   2.986   0.034  0.3410  0.5817  0.3570
 3364TIP3    H131651   6.276   2.895   0.033 -1.1068  1.0062  1.3125
 3364TIP3    H231652   6.401   2.980   0.039  0.2782 -0.8772  0.2336
 3365TIP3   OH231653   3.476   1.284   0.804 -0.1747  0.4601  0.5516
 3365TIP3    H131654   3.509   1.362   0.761  0.7546  0.7202  1.6884
 3365TIP3    H231655   3.477   1.216   0.737  0.0880  1.1478 -0.1425
 3366TIP3   OH231656   3.394   2.714   0.931 -0.2410 -0.6368  0.2933
 3366TIP3    H131657   3.472   2.764   0.952 -0.3354 -0.8572  1.2082
 3366TIP3    H231658   3.364   2.751   0.847 -1.1941  1.9616  1.6492
 3367TIP3   OH231659   4.950   2.135   3.583  0.2433  0.2830  0.5080
 3367TIP3    H131660   5.007   2.068   3.546 -1.8247 -0.6776 -1.1857
 3367TIP3    H231661   4.962   2.211   3.526 -0.8266 -0.2416 -0.4478
 3368TIP3   OH231662   1.255   4.418   2.308 -0.3533  0.2376 -0.3936
 3368TIP3    H131663   1.337   4.445   2.348  0.3776  0.8858 -2.2034
 3368TIP3    H231664   1.187   4.468   2.353  0.4563  1.1514 -0.1734
 3369TIP3   OH231665   3.389   5.103   1.221 -0.2024  0.1909  0.4739
 3369TIP3    H131666   3.326   5.034   1.241  1.2933 -1.7820 -1.2334
 3369TIP3    H231667   3.352   5.148   1.145 -0.3437  0.1169  0.4998
 3370TIP3   OH231668   5.826   5.096   0.607  0.2786 -0.2344  0.0786
 3370TIP3    H131669   5.901   5.080   0.664  0.4627  0.5966  0.0825
 3370TIP3    H231670   5.864   5.107   0.520  0.5091  2.9578  0.4819
 3371TIP3   OH231671   0.024   3.602   2.405  0.2546 -0.6668 -0.0969
 3371TIP3    H131672   0.091   3.580   2.340 -1.1812 -1.3227 -1.4410
 3371TIP3    H231673  -0.057   3.609   2.353 -0.2228  3.3959  0.8862
 3372TIP3   OH231674   2.726   1.168   3.003  0.0146  0.1004 -0.0359
 3372TIP3    H131675   2.702   1.157   3.095 -2.2597 -1.0038 -0.6745
 3372TIP3    H231676   2.821   1.170   3.003  0.0865 -0.2004  2.2997
 3373TIP3   OH231677   6.461   6.349   0.919 -0.5415 -0.0940 -0.0184
 3373TIP3    H131678   6.465   6.281   0.851 -0.8887 -0.8307  0.6866
 3373TIP3    H231679   6.551   6.383   0.924 -0.2714 -0.7802 -0.1041
 3374TIP3   OH231680   0.390   2.712   2.390 -0.1566 -0.6644 -0.2900
 3374TIP3    H131681   0.425   2.799   2.406  0.0280 -0.6213 -0.9079
 3374TIP3    H231682   0.400   2.666   2.473  0.3654 -0.3056 -0.1538
 3375TIP3   OH231683   3.759   3.707   2.987  0.0855  0.4025 -0.5189
 3375TIP3    H131684   3.677   3.660   3.005  0.5954 -0.8153 -1.2313
 3375TIP3    H231685   3.789   3.736   3.073 -1.0046  0.7277 -0.2283
 3376TIP3   OH231686   1.893   2.191   1.335  0.2995  0.1880 -0.8724
 3376TIP3    H131687   1.891   2.257   1.405 -3.9195 -0.7970  0.2446
 3376TIP3    H231688   1.875   2.241   1.255  0.6680  0.8184 -0.5696
 3377TIP3   OH231689   4.578   5.152   1.762 -0.1420  0.2211  0.0750
 3377TIP3    H131690   4.520   5.081   1.733  0.2062  0.0336 -0.1702
 3377TIP3    H231691   4.636   5.167   1.687 -0.0066  0.5449  0.2456
 3378TIP3   OH231692   4.955   1.705   0.059 -0.9561 -0.1356 -0.0707
 3378TIP3    H131693   5.039   1.703   0.014 -0.2782 -0.5887  1.1702
 3378TIP3    H231694   4.904   1.635   0.018  0.0342 -1.2546  0.5566
 3379TIP3   OH231695   0.937   0.101   7.221  0.3062 -0.0525 -0.1012
 3379TIP3    H131696   0.851   0.068   7.194  0.5851  0.8259 -2.3158
 3379TIP3    H231697   0.986   0.023   7.244 -0.4888 -0.7606 -0.7218
 3380TIP3   OH231698   0.616   1.505   0.858  0.5352 -0.0925  0.1678
 3380TIP3    H131699   0.607   1.469   0.947 -1.1668  0.2518  0.1665
 3380TIP3    H231700   0.593   1.597   0.868  1.9864  0.3487 -0.3607
 3381TIP3   OH231701   1.054   3.483   7.201 -0.1874 -0.5229 -0.7281
 3381TIP3    H131702   0.979   3.541   7.183  0.2761  1.1490  2.1562
 3381TIP3    H231703   1.129   3.529   7.164 -0.1280 -0.4006 -0.4598
 3382TIP3   OH231704   2.071   2.023   1.006  0.1282 -0.1310 -0.6251
 3382TIP3    H131705   2.041   1.936   1.031  0.2297  0.5591  2.2067
 3382TIP3    H231706   1.991   2.071   0.985  0.0238 -0.6942 -1.5752
 3383TIP3   OH231707   3.616   2.051   1.912  0.5858  0.2554  0.4283
 3383TIP3    H131708   3.624   2.131   1.964  1.5644  0.8599 -0.6066
 3383TIP3    H231709   3.548   2.000   1.957 -0.1201  1.6931  1.0690
 3384TIP3   OH231710   2.062   2.365   1.130 -0.0689 -1.1357 -0.3130
 3384TIP3    H131711   2.141   2.414   1.108  0.4498 -1.0799  1.4733
 3384TIP3    H231712   1.998   2.392   1.065  0.0364  2.3413  0.7906
 3385TIP3   OH231713   6.723   0.380   1.115 -0.4104  0.0185 -0.0991
 3385TIP3    H131714   6.797   0.397   1.056  0.1717  1.3020  0.9600
 3385TIP3    H231715   6.655   0.440   1.085  0.1202  1.1665  0.9070
 3386TIP3   OH231716   6.769   1.947   7.432 -0.4957 -0.1455 -0.1147
 3386TIP3    H131717   6.729   2.034   7.432  0.7836  0.4860  0.3156
 3386TIP3    H231718   6.784   1.926   7.340  0.2691  0.6403 -0.1815
 3387TIP3   OH231719   0.351   6.627   2.859 -0.1329 -0.2470  1.0059
 3387TIP3    H131720   0.355   6.620   2.955  0.1753 -0.1167  1.0025
 3387TIP3    H231721   0.258   6.618   2.839 -0.0060 -2.4648  1.1432
 3388TIP3   OH231722   1.595   3.733   0.223 -0.8017  0.2101  0.0978
 3388TIP3    H131723   1.539   3.676   0.276 -1.0565 -0.0874 -0.4845
 3388TIP3    H231724   1.534   3.783   0.168 -0.4763 -0.7238 -1.1485
 3389TIP3   OH231725   1.432   1.683   1.987 -0.3836  0.1239  0.2374
 3389TIP3    H131726   1.508   1.698   1.930 -0.5843 -0.8730 -0.3098
 3389TIP3    H231727   1.460   1.715   2.073  0.7037 -0.3078  0.0647
 3390TIP3   OH231728   5.470   5.239   0.395  0.0503  0.0257  0.5612
 3390TIP3    H131729   5.376   5.254   0.391  0.3984  2.2724 -0.3813
 3390TIP3    H231730   5.484   5.160   0.342 -1.2518 -0.1910  0.5075
 3391TIP3   OH231731   3.286   3.045   7.922  0.5033  0.3808  0.3578
 3391TIP3    H131732   3.326   2.977   7.867  2.1114  0.3508  1.4858
 3391TIP3    H231733   3.250   3.108   7.860  1.9283  0.1513 -0.7513
 3392TIP3   OH231734   2.813   3.619   0.385  0.5522 -0.0016 -0.2615
 3392TIP3    H131735   2.790   3.662   0.303 -0.5681  0.0188  0.0502
 3392TIP3    H231736   2.797   3.526   0.368  0.2290  0.0130 -0.0386
 3393TIP3   OH231737   0.365   5.541   8.077 -0.2893  0.3914  0.1749
 3393TIP3    H131738   0.368   5.445   8.074  1.2431  0.4342 -0.3405
 3393TIP3    H231739   0.309   5.566   8.004 -4.2820 -0.1902  2.7686
 3394TIP3   OH231740   0.325   5.616   2.732 -0.3460  0.8863  0.0843
 3394TIP3    H131741   0.414   5.649   2.748 -0.5252  2.0412 -1.1165
 3394TIP3    H231742   0.337   5.548   2.665 -0.4136  1.4333 -0.4912
 3395TIP3   OH231743   3.374   0.565   2.927 -0.2823  0.6268 -0.4603
 3395TIP3    H131744   3.308   0.582   2.993  0.8304  2.7243  0.2080
 3395TIP3    H231745   3.428   0.496   2.965 -0.2445  1.1130  0.4125
 3396TIP3   OH231746   3.204   3.839   1.910 -0.1787 -0.0767 -0.2043
 3396TIP3    H131747   3.263   3.767   1.931  0.4512  0.4692 -0.0641
 3396TIP3    H231748   3.134   3.833   1.975 -0.7089 -1.2042 -0.8592
 3397TIP3   OH231749   2.741   5.430   1.459 -0.0059  0.2320  0.2085
 3397TIP3    H131750   2.731   5.347   1.506  0.9131  0.7124  1.2993
 3397TIP3    H231751   2.801   5.481   1.513 -0.2161  1.4496 -0.6677
 3398TIP3   OH231752   0.753   4.217   0.470 -0.0692  0.2438 -0.0096
 3398TIP3    H131753   0.799   4.170   0.400 -0.0523 -0.2235  0.3151
 3398TIP3    H231754   0.745   4.307   0.436  0.3481  0.1349 -0.4179
 3399TIP3   OH231755   4.153   2.489   8.164 -0.1339 -0.0685 -0.4131
 3399TIP3    H131756   4.158   2.562   8.226 -0.5132 -0.1348 -0.3022
 3399TIP3    H231757   4.079   2.511   8.108 -0.0193 -0.1881 -0.6106
 3400TIP3   OH231758   0.511   1.140   0.708 -0.4897  0.2885 -0.1004
 3400TIP3    H131759   0.456   1.219   0.712  0.5195  1.0309 -0.4650
 3400TIP3    H231760   0.562   1.142   0.789  0.0059  0.3626 -0.4111
 3401TIP3   OH231761   5.223   5.335   0.445  0.4901  0.0078  0.1016
 3401TIP3    H131762   5.159   5.301   0.383  0.6656 -0.3292  0.1056
 3401TIP3    H231763   5.195   5.426   0.461 -0.6280 -0.4574  0.9500
 3402TIP3   OH231764   0.723   3.038   1.913  0.4348 -0.1998 -0.1743
 3402TIP3    H131765   0.703   3.024   1.821  1.6105  0.5499 -0.5591
 3402TIP3    H231766   0.816   3.058   1.916  0.1327  1.3175  0.9808
 3403TIP3   OH231767   0.774   4.553   1.675  0.3268 -0.2920 -0.2645
 3403TIP3    H131768   0.770   4.561   1.580 -0.2384  0.6082 -0.1844
 3403TIP3    H231769   0.761   4.643   1.707 -0.6213 -0.7432  0.6830
 3404TIP3   OH231770   5.446   1.174   2.406  0.1159  0.3358  0.0816
 3404TIP3    H131771   5.438   1.269   2.417  2.2544  0.5467  0.1145
 3404TIP3    H231772   5.487   1.163   2.320 -4.1448 -0.8133 -2.1263
 3405TIP3   OH231773   6.722   0.107   0.239  0.2632  0.5524  0.5508
 3405TIP3    H131774   6.626   0.109   0.235  0.2951  0.9382 -0.0803
 3405TIP3    H231775   6.747   0.030   0.188  0.2477 -0.2441  1.7102
 3406TIP3   OH231776   3.521   6.285   2.020 -0.2539 -0.1975  0.0229
 3406TIP3    H131777   3.501   6.244   1.936  1.1700 -0.7329 -0.0884
 3406TIP3    H231778   3.509   6.378   2.005 -0.2301 -0.3057 -0.7265
 3407TIP3   OH231779   6.325   1.727   1.140  0.7774  0.0922  0.2079
 3407TIP3    H131780   6.290   1.647   1.099  1.1752  0.2211 -0.3923
 3407TIP3    H231781   6.305   1.716   1.233  1.8504 -1.2642  0.3218
 3408TIP3   OH231782   0.879   5.517   0.059 -0.0497 -0.6054  0.6552
 3408TIP3    H131783   0.945   5.465   0.104 -1.6355 -2.7103  0.6807
 3408TIP3    H231784   0.882   5.603   0.102  1.1911 -1.3165  2.0537
 3409TIP3   OH231785   0.054   3.562   2.670 -0.5080 -0.4318 -0.5401
 3409TIP3    H131786   0.048   3.592   2.579 -0.2834 -0.0939 -0.4447
 3409TIP3    H231787  -0.024   3.508   2.683 -1.5328  1.0378 -0.3686
 3410TIP3   OH231788   1.566   2.618   0.516  0.0359 -0.3845 -0.0635
 3410TIP3    H131789   1.480   2.658   0.500  0.1754 -0.3052 -0.6217
 3410TIP3    H231790   1.621   2.649   0.445  1.3842  1.9433  1.8657
 3411TIP3   OH231791   1.006   5.854   7.737  0.4173  0.1149 -0.5424
 3411TIP3    H131792   0.963   5.938   7.750 -2.5332 -1.3977  0.4259
 3411TIP3    H231793   1.066   5.869   7.664 -0.8201  2.7584 -1.1386
 3412TIP3   OH231794   3.015   6.152   0.135  0.0432  0.4067 -0.5479
 3412TIP3    H131795   3.022   6.098   0.056  0.0143  1.2485 -1.1419
 3412TIP3    H231796   2.972   6.096   0.199  1.4732 -0.8351 -0.6192
 3413TIP3   OH231797   1.340   2.014   2.339 -0.1892 -0.4263  0.2690
 3413TIP3    H131798   1.327   1.920   2.335  0.2106 -0.5620  1.5236
 3413TIP3    H231799   1.372   2.038   2.252  0.1035 -1.5137  0.0605
 3414TIP3   OH231800   3.773   4.839   1.907  0.3484  0.8420  0.3663
 3414TIP3    H131801   3.851   4.894   1.916 -0.9456  2.8422 -0.0282
 3414TIP3    H231802   3.770   4.818   1.813 -1.4409  3.8708 -0.4223
 3415TIP3   OH231803   0.275   5.351   0.726  0.0264 -0.3073 -0.4643
 3415TIP3    H131804   0.340   5.421   0.733 -1.2280  0.9758 -1.0330
 3415TIP3    H231805   0.324   5.271   0.743  1.3463  0.7635  1.1491
 3416TIP3   OH231806   1.323   0.876   2.127  0.0306 -0.2348 -0.4214
 3416TIP3    H131807   1.277   0.863   2.044  0.3853  1.5284 -0.9424
 3416TIP3    H231808   1.338   0.970   2.131  1.5265 -0.4921  0.8489
 3417TIP3   OH231809   3.259   0.863   2.072  0.7407  0.6838 -0.1449
 3417TIP3    H131810   3.178   0.872   2.021  0.9568 -1.3052 -0.9345
 3417TIP3    H231811   3.312   0.802   2.022  1.4211 -0.5157  1.9208
 3418TIP3   OH231812   1.648   5.991   2.207  0.3403  0.0243 -0.4186
 3418TIP3    H131813   1.701   5.913   2.188 -1.1219 -1.1953  0.3130
 3418TIP3    H231814   1.650   5.999   2.302  2.7054  2.5692 -0.5652
 3419TIP3   OH231815   6.556   5.108   1.307 -0.6795  0.4050  0.9171
 3419TIP3    H131816   6.553   5.158   1.388  0.9651  0.9681  0.6597
 3419TIP3    H231817   6.647   5.080   1.299 -0.9047 -0.0059 -0.5156
 3420TIP3   OH231818   5.962   3.825   7.534  0.4992 -0.4926 -0.0520
 3420TIP3    H131819   5.974   3.809   7.440  0.6697 -3.1279  0.3388
 3420TIP3    H231820   5.868   3.836   7.545  0.3225 -1.4792 -0.4189
 3421TIP3   OH231821   2.145   6.264   2.572 -0.6808 -0.3457 -0.0451
 3421TIP3    H131822   2.208   6.192   2.574 -0.7020 -0.4460 -1.5941
 3421TIP3    H231823   2.164   6.316   2.650  1.5110 -0.2134 -0.6186
 3422TIP3   OH231824   3.752   1.506   0.232 -0.5410 -0.4064 -0.3970
 3422TIP3    H131825   3.669   1.466   0.260 -0.7139 -0.4004 -0.8818
 3422TIP3    H231826   3.739   1.599   0.247  0.5552 -0.6403  2.5164
 3423TIP3   OH231827   6.127   6.444   0.161  0.0482  0.1279 -0.4068
 3423TIP3    H131828   6.170   6.444   0.075  1.6893 -0.9591  0.3778
 3423TIP3    H231829   6.079   6.361   0.163 -0.1930  0.2669 -0.3514
 3424TIP3   OH231830   2.482   1.487   7.836 -0.3625 -0.1270  0.2490
 3424TIP3    H131831   2.461   1.449   7.751 -0.7679 -0.0408  0.3057
 3424TIP3    H231832   2.577   1.495   7.836 -0.1970 -1.8558  0.5552
 3425TIP3   OH231833   6.923   0.431   0.543 -0.4309 -0.1314  0.7276
 3425TIP3    H131834   6.866   0.496   0.503  1.3931  1.2281  0.1751
 3425TIP3    H231835   7.008   0.443   0.500  0.4847 -1.5412  2.0100
 3426TIP3   OH231836   1.004   2.412   1.486  0.1062  0.2525  0.1978
 3426TIP3    H131837   1.027   2.428   1.395  1.8275  0.5476  0.6291
 3426TIP3    H231838   1.001   2.499   1.526  0.3477  0.0785  0.6118
 3427TIP3   OH231839   6.715   4.013   6.961  0.2471 -0.2011 -0.3626
 3427TIP3    H131840   6.735   3.929   7.001  3.8221  0.5283 -0.3064
 3427TIP3    H231841   6.685   3.991   6.872 -0.0403 -1.5359  0.0478
 3428TIP3   OH231842   4.261   1.846   7.211  0.1843  0.2329  0.4599
 3428TIP3    H131843   4.314   1.910   7.257 -1.6646  0.3503  2.6629
 3428TIP3    H231844   4.184   1.895   7.182 -1.0224 -0.7973  1.7519
 3429TIP3   OH231845   4.344   4.342   7.996 -0.3246 -0.0033  0.2227
 3429TIP3    H131846   4.427   4.329   8.042 -0.5773  0.3745  0.7953
 3429TIP3    H231847   4.344   4.435   7.971  0.3867 -0.4666 -1.7086
 3430TIP3   OH231848   5.669   2.428   1.314  0.2884  0.0942 -0.3236
 3430TIP3    H131849   5.685   2.468   1.228 -1.8185 -1.6853 -1.6430
 3430TIP3    H231850   5.743   2.368   1.326  0.2348 -0.1643 -1.2376
 3431TIP3   OH231851   3.980   4.304   2.245  0.4020  0.1425 -0.6428
 3431TIP3    H131852   3.962   4.211   2.261 -1.2267  0.4336 -0.6638
 3431TIP3    H231853   3.977   4.313   2.150 -0.3099  0.3747 -0.6011
 3432TIP3   OH231854   0.430   3.212   7.641 -0.2545 -0.9089  0.1585
 3432TIP3    H131855   0.472   3.147   7.697  1.9488 -0.7126 -1.1258
 3432TIP3    H231856   0.443   3.180   7.552 -2.6165 -0.6157 -0.3582
 3433TIP3   OH231857   2.612   3.189   8.022 -0.2130  0.1990  0.2841
 3433TIP3    H131858   2.616   3.148   8.109  0.0883 -0.3848 -0.0003
 3433TIP3    H231859   2.553   3.264   8.034 -1.4033 -0.7506  0.6370
 3434TIP3   OH231860   1.710   6.149   1.205 -0.1730  0.0462  0.2175
 3434TIP3    H131861   1.678   6.188   1.123 -0.3109 -0.9307 -0.2021
 3434TIP3    H231862   1.779   6.209   1.234  2.1379 -1.2009 -2.2895
 3435TIP3   OH231863   1.488   4.884   7.887  0.0261  0.8961  0.2189
 3435TIP3    H131864   1.496   4.902   7.981 -1.4313 -0.5981  0.6828
 3435TIP3    H231865   1.406   4.926   7.862  1.3147  2.9230 -0.8833
 3436TIP3   OH231866   2.448   3.905   0.623  0.0846 -0.0525  0.2631
 3436TIP3    H131867   2.411   3.988   0.591 -1.1542 -0.9670 -0.7890
 3436TIP3    H231868   2.440   3.845   0.548  0.5243 -1.2526  1.1529
 3437TIP3   OH231869   3.511   5.932   2.918  0.1386  0.1636 -0.3009
 3437TIP3    H131870   3.576   5.924   2.988 -0.4549 -0.8584  0.1643
 3437TIP3    H231871   3.449   5.998   2.950  0.2176  0.1613 -0.1435
 3438TIP3   OH231872   6.819   1.282   1.114  0.6462 -0.6751  0.3548
 3438TIP3    H131873   6.894   1.338   1.093 -0.0427  0.7080  1.4224
 3438TIP3    H231874   6.852   1.222   1.180  0.9429 -0.3583  0.4982
 3439TIP3   OH231875   0.277   1.987   0.924 -0.1001 -0.6605  0.2329
 3439TIP3    H131876   0.264   2.054   0.857  2.0469  0.1172  0.5028
 3439TIP3    H231877   0.284   2.036   1.006 -1.5367 -1.5034  0.8988
 3440TIP3   OH231878   6.645   0.671   2.231 -0.1759 -0.8436 -0.4137
 3440TIP3    H131879   6.688   0.586   2.225 -0.2981 -0.7964 -2.8401
 3440TIP3    H231880   6.590   0.664   2.309  0.0210 -2.8855 -0.3909
 3441TIP3   OH231881   2.347   5.950   1.170 -0.0424  0.6932 -0.0120
 3441TIP3    H131882   2.280   5.953   1.101  0.9620 -0.4910 -1.1064
 3441TIP3    H231883   2.426   5.985   1.128  0.8670 -1.0379  0.1363
 3442TIP3   OH231884   1.330   2.910   1.453 -0.0591  0.0096 -0.1150
 3442TIP3    H131885   1.425   2.900   1.462  0.0736  2.4448  2.7454
 3442TIP3    H231886   1.319   2.988   1.400 -0.3141  1.3450  1.8035
 3443TIP3   OH231887   3.052   3.052   8.067  0.1565 -0.1450 -0.4818
 3443TIP3    H131888   3.142   3.056   8.037  0.1878 -0.6741 -0.4568
 3443TIP3    H231889   3.006   3.119   8.016  0.4755 -0.1567 -0.7800
 3444TIP3   OH231890   0.936   6.036   1.199 -0.3079  0.0772  0.0955
 3444TIP3    H131891   0.955   6.113   1.144  0.5924  1.9228  2.7890
 3444TIP3    H231892   0.976   6.056   1.283  0.5258 -3.7068  0.7808
 3445TIP3   OH231893   1.634   4.448   1.098  0.6666 -0.5064  0.3921
 3445TIP3    H131894   1.553   4.449   1.150  0.8791 -1.5228  0.7728
 3445TIP3    H231895   1.606   4.471   1.009 -0.0143 -0.6658  0.5580
 3446TIP3   OH231896   6.119   2.420   2.302 -0.4588  0.8917  0.1350
 3446TIP3    H131897   6.124   2.475   2.224 -2.5853  2.2465  0.8574
 3446TIP3    H231898   6.035   2.375   2.295  0.2084 -0.4810  0.7093
 3447TIP3   OH231899   3.265   6.767   7.692 -0.1376  0.1278  0.3389
 3447TIP3    H131900   3.312   6.849   7.678 -0.0289  0.2935  1.5412
 3447TIP3    H231901   3.293   6.738   7.779 -0.3347 -1.0809  0.0149
 3448TIP3   OH231902   3.497   1.975   1.500  0.0840 -0.8016  0.2186
 3448TIP3    H131903   3.538   2.045   1.450  1.7506  0.0062  2.5632
 3448TIP3    H231904   3.407   2.004   1.512  0.4144  0.3223  0.0886
 3449TIP3   OH231905   3.352   0.590   1.470 -0.2341  0.7442 -0.4700
 3449TIP3    H131906   3.351   0.632   1.384 -2.0633 -0.7632 -1.2464
 3449TIP3    H231907   3.382   0.501   1.454 -1.5897  0.1273  0.2659
 3450TIP3   OH231908   3.804   2.363   3.447  0.9667 -1.1062  0.1381
 3450TIP3    H131909   3.834   2.275   3.427  0.5133 -1.2237 -0.0309
 3450TIP3    H231910   3.720   2.351   3.491  0.9614 -0.7657  0.2271
 3451TIP3   OH231911   1.759   4.612   0.390 -0.2278  0.0203  0.6018
 3451TIP3    H131912   1.834   4.657   0.429 -0.7690  1.0038  0.5251
 3451TIP3    H231913   1.781   4.519   0.397  1.4341  0.3082 -0.2986
 3452TIP3   OH231914   5.267   4.494   8.163  0.3469  0.2694  0.1584
 3452TIP3    H131915   5.190   4.549   8.147  1.2138  1.4829  0.0553
 3452TIP3    H231916   5.338   4.556   8.177  1.1279 -0.8275  1.2194
 3453TIP3   OH231917   5.603   0.240   1.323  0.0299  0.3679  0.0640
 3453TIP3    H131918   5.656   0.181   1.271  1.4964  0.2170  1.6141
 3453TIP3    H231919   5.667   0.289   1.375 -1.1923  2.6062 -0.4264
 3454TIP3   OH231920   2.133   2.684   2.721  0.2729 -0.4460 -0.5529
 3454TIP3    H131921   2.206   2.726   2.676 -0.4191  0.4616 -0.8657
 3454TIP3    H231922   2.114   2.742   2.795 -0.5726 -0.2834 -0.8822
 3455TIP3   OH231923   0.391   0.664   0.582 -0.6566 -0.0765 -0.0687
 3455TIP3    H131924   0.411   0.741   0.528  0.7205 -0.7385 -0.5603
 3455TIP3    H231925   0.366   0.701   0.667  2.2219  0.9681  0.4649
 3456TIP3   OH231926   3.636   5.464   2.928 -0.0932  0.1652 -0.7180
 3456TIP3    H131927   3.679   5.550   2.929  0.0531  0.0860 -0.1711
 3456TIP3    H231928   3.622   5.443   3.020  0.4936 -0.7106 -0.8168
 3457TIP3   OH231929   2.357   1.083   7.873 -0.4588 -0.6079 -0.1781
 3457TIP3    H131930   2.355   1.100   7.779 -1.4821 -0.2464 -0.0991
 3457TIP3    H231931   2.277   1.123   7.907  1.3723  2.0801  1.3308
 3458TIP3   OH231932   4.810   1.065   0.135 -0.2633  0.4293 -0.4785
 3458TIP3    H131933   4.900   1.074   0.105 -0.1855  0.0586 -0.3654
 3458TIP3    H231934   4.817   1.043   0.228 -0.3721 -1.7787 -0.9310
 3459TIP3   OH231935   6.981   2.099   2.150 -0.5288  0.0581 -0.6460
 3459TIP3    H131936   6.941   2.104   2.064  0.2659  0.5050 -1.0029
 3459TIP3    H231937   7.044   2.028   2.144 -0.3850  0.1674 -0.4682
 3460TIP3   OH231938   4.935   3.114   3.034  0.3730 -0.5346 -0.5392
 3460TIP3    H131939   4.916   3.111   2.940 -1.2022 -0.6353 -0.2333
 3460TIP3    H231940   4.900   3.032   3.069  0.0029 -0.0413  0.2956
 3461TIP3   OH231941   6.621   0.103   1.055  0.5143  0.2962  0.2172
 3461TIP3    H131942   6.629   0.057   1.138 -0.1434  1.0023  0.6795
 3461TIP3    H231943   6.658   0.189   1.071  1.8952 -0.0792 -0.6948
 3462TIP3   OH231944   5.600   6.277   1.531  0.6926 -0.1320 -0.1995
 3462TIP3    H131945   5.559   6.198   1.495 -1.2099  0.6538  0.0911
 3462TIP3    H231946   5.643   6.247   1.611 -1.0990 -0.7133  0.6117
 3463TIP3   OH231947   2.381   4.132   0.412 -0.3510 -0.5857  0.9130
 3463TIP3    H131948   2.330   4.060   0.375  1.5891 -0.7173 -1.8032
 3463TIP3    H231949   2.470   4.117   0.380  0.0163  3.3854 -0.4344
 3464TIP3   OH231950   3.067   1.422   1.396 -0.2943  0.6730  0.0358
 3464TIP3    H131951   3.008   1.356   1.360  0.1586 -0.8347  1.8664
 3464TIP3    H231952   3.144   1.421   1.338 -1.2690  1.3565 -1.3152
 3465TIP3   OH231953   1.198   2.419   0.290  0.2655  0.2749 -0.1432
 3465TIP3    H131954   1.118   2.386   0.332 -0.1306 -0.6076 -1.5135
 3465TIP3    H231955   1.221   2.497   0.340 -1.4779  0.5726  0.2679
 3466TIP3   OH231956   2.340   4.789   0.095  0.2497 -0.1265 -0.0027
 3466TIP3    H131957   2.399   4.721   0.126  0.9695 -0.2249 -1.4806
 3466TIP3    H231958   2.255   4.766   0.133  0.4324 -1.9580 -0.5957
 3467TIP3   OH231959   5.466   4.322   1.315  0.2615 -0.5965  0.0775
 3467TIP3    H131960   5.557   4.294   1.302  0.5670  0.8877 -1.3283
 3467TIP3    H231961   5.473   4.394   1.379  0.0239 -0.7236  0.2458
 3468TIP3   OH231962   2.838   0.952   1.354 -0.6192  0.6791  0.1295
 3468TIP3    H131963   2.746   0.936   1.334 -0.2309 -0.4449 -0.9428
 3468TIP3    H231964   2.845   0.936   1.448 -1.3596 -0.1287  0.0687
 3469TIP3   OH231965   4.561   1.834   1.776 -0.0560  0.2317 -0.1385
 3469TIP3    H131966   4.546   1.740   1.781 -1.5532  0.4556 -0.0124
 3469TIP3    H231967   4.537   1.867   1.863 -1.3909  0.9466 -0.7474
 3470TIP3   OH231968   2.845   5.316   2.473 -0.2793 -0.4420  0.4637
 3470TIP3    H131969   2.760   5.351   2.446  0.3549  1.0502  0.2757
 3470TIP3    H231970   2.868   5.367   2.550  1.8557  1.5229 -1.3036
 3471TIP3   OH231971   6.304   5.705   0.188  0.1632  0.4305 -0.1160
 3471TIP3    H131972   6.337   5.757   0.261 -1.2499 -0.1159  0.9670
 3471TIP3    H231973   6.335   5.616   0.205 -0.8495  0.1419  0.2840
 3472TIP3   OH231974   5.252   6.700   0.723 -0.5551  0.2253  0.3730
 3472TIP3    H131975   5.316   6.649   0.673 -1.9483 -0.2812 -0.9789
 3472TIP3    H231976   5.274   6.682   0.814  1.1152 -0.0551 -0.0357
 3473TIP3   OH231977   2.060   3.348   2.195 -0.3212 -0.0462  0.1066
 3473TIP3    H131978   2.145   3.329   2.156 -0.7734 -1.0620 -0.4237
 3473TIP3    H231979   2.002   3.278   2.162 -0.7198 -1.0231  2.6362
 3474TIP3   OH231980   3.613   6.187   7.812  0.5557 -0.0411 -0.0563
 3474TIP3    H131981   3.615   6.282   7.810  0.3147 -0.0116  0.6066
 3474TIP3    H231982   3.581   6.166   7.900  1.5358 -0.7420  0.1439
 3475TIP3   OH231983   1.674   3.648   1.084  0.0481 -0.2893 -0.3845
 3475TIP3    H131984   1.770   3.647   1.089  0.1223 -1.9758 -1.4290
 3475TIP3    H231985   1.646   3.660   1.175  1.2289  0.4846 -0.0948
 3476TIP3   OH231986   4.442   6.925   1.035 -0.2161  0.4297 -0.2987
 3476TIP3    H131987   4.356   6.898   1.064 -0.0904  0.7760  0.4173
 3476TIP3    H231988   4.450   7.016   1.063 -0.0379  0.7468 -1.3141
 3477TIP3   OH231989   4.263   3.097   2.605  0.2846  0.1117 -0.1942
 3477TIP3    H131990   4.266   3.026   2.669 -0.2974 -0.0890 -0.3918
 3477TIP3    H231991   4.180   3.141   2.621 -1.4632 -1.8911 -2.9045
 3478TIP3   OH231992   5.207   2.339   1.766 -0.3840  0.1189  0.3232
 3478TIP3    H131993   5.183   2.305   1.679 -0.3978 -0.9919  0.7484
 3478TIP3    H231994   5.246   2.264   1.811 -0.0849  0.7725  1.1733
 3479TIP3   OH231995   6.116   0.806   1.748  0.0797  0.6283  0.2380
 3479TIP3    H131996   6.110   0.730   1.805  0.4944  1.4656  1.4434
 3479TIP3    H231997   6.067   0.782   1.670  1.4417 -1.4360 -0.0514
 3480TIP3   OH231998   5.067   2.068   6.885 -0.0465 -0.1753 -0.0866
 3480TIP3    H131999   5.082   2.134   6.816 -2.3611  0.1944 -0.3118
 3480TIP3    H232000   5.142   2.009   6.878  0.7660  0.9556 -1.6203
 3481TIP3   OH232001   1.705   2.692   0.274  0.1032 -0.7538  0.7266
 3481TIP3    H132002   1.669   2.707   0.187  0.4714  0.3625  0.7476
 3481TIP3    H232003   1.799   2.702   0.263 -0.0209  3.8745  1.9753
 3482TIP3   OH232004   4.424   1.714   1.319  0.1421 -0.2392  0.8356
 3482TIP3    H132005   4.484   1.643   1.341 -0.4414 -1.4060 -1.1060
 3482TIP3    H232006   4.337   1.681   1.345 -0.0856 -0.1146  0.2592
 3483TIP3   OH232007   1.811   1.341   7.671  0.4211 -0.0723 -0.3989
 3483TIP3    H132008   1.743   1.372   7.612 -0.7756  0.1708  1.0534
 3483TIP3    H232009   1.846   1.420   7.712  1.5176 -0.2039 -1.0262
 3484TIP3   OH232010   4.637   3.196   1.870 -0.5559  0.1914 -0.0949
 3484TIP3    H132011   4.727   3.164   1.859 -0.0888  0.9198  1.2801
 3484TIP3    H232012   4.583   3.116   1.870 -0.0183 -0.1975 -1.6950
 3485TIP3   OH232013   6.286   4.639   2.442 -0.7036  0.2552 -0.3351
 3485TIP3    H132014   6.369   4.642   2.491 -0.7172  2.5506 -0.3114
 3485TIP3    H232015   6.221   4.612   2.506 -0.2450  0.2805  0.1457
 3486TIP3   OH232016   1.806   6.645   0.719 -0.4092 -0.1291 -0.3095
 3486TIP3    H132017   1.739   6.627   0.652  0.5449 -1.0311 -1.0514
 3486TIP3    H232018   1.868   6.573   0.711  1.2764  1.2708 -0.4304
 3487TIP3   OH232019   2.035   6.558   1.593  0.8915  0.3500 -0.3598
 3487TIP3    H132020   2.102   6.510   1.544 -0.1664  0.2306 -1.7255
 3487TIP3    H232021   1.991   6.612   1.528 -1.6888 -1.0808  0.0755
 3488TIP3   OH232022   2.176   4.459   8.219  0.2277 -0.6356  0.1907
 3488TIP3    H132023   2.200   4.367   8.207  3.0767  0.1574 -0.7849
 3488TIP3    H232024   2.093   4.468   8.171  0.5691 -2.3885 -0.8103
 3489TIP3   OH232025   5.912   3.154   2.697  0.0768  0.4244  0.1944
 3489TIP3    H132026   5.974   3.107   2.753 -0.6896 -0.5424  0.2595
 3489TIP3    H232027   5.952   3.151   2.610  1.4568  2.2702  0.7019
 3490TIP3   OH232028   1.081   4.599   2.173 -0.0946  0.4391  0.2247
 3490TIP3    H132029   1.100   4.505   2.168 -1.6964  0.1154 -0.6304
 3490TIP3    H232030   1.165   4.640   2.193  0.6330 -1.1771  0.6529
 3491TIP3   OH232031   0.982   0.482   1.751 -0.1382 -0.2554 -0.1116
 3491TIP3    H132032   0.899   0.436   1.738 -0.1252  0.0084 -1.2622
 3491TIP3    H232033   0.960   0.574   1.737  0.2047 -0.1049  0.3169
 3492TIP3   OH232034   5.772   5.802   0.507  0.3684  0.0384  0.5821
 3492TIP3    H132035   5.785   5.801   0.602 -0.7379 -0.9375  0.7460
 3492TIP3    H232036   5.837   5.865   0.475 -0.9369  2.3640  2.2102
 3493TIP3   OH232037   3.917   0.944   0.046  0.1531  0.2050  0.1707
 3493TIP3    H132038   3.903   0.927  -0.047 -0.4821 -1.4386  0.5214
 3493TIP3    H232039   3.906   1.039   0.055 -1.7365  0.1818 -1.1373
 3494TIP3   OH232040   0.903   6.506   0.957  0.0279  0.4325  0.0179
 3494TIP3    H132041   0.921   6.594   0.926 -0.1098  0.7077  0.6941
 3494TIP3    H232042   0.808   6.504   0.973  0.0004  0.1071 -0.1676
 3495TIP3   OH232043   6.740   5.272   7.639  0.2152  0.6174  0.1944
 3495TIP3    H132044   6.754   5.366   7.626  2.2189  0.3512  0.0732
 3495TIP3    H232045   6.655   5.266   7.682  0.1818  2.5080  0.4792
 3496TIP3   OH232046   0.656   0.774   2.034 -0.4534  0.2005  0.0432
 3496TIP3    H132047   0.686   0.685   2.053  2.8435  0.6503 -2.1143
 3496TIP3    H232048   0.716   0.830   2.084 -1.3258  1.2395 -0.0387
 3497TIP3   OH232049   0.474   5.579   0.674 -0.1743 -0.5269  0.0809
 3497TIP3    H132050   0.424   5.646   0.720  0.5693  0.5147 -0.5833
 3497TIP3    H232051   0.420   5.557   0.598 -0.3110 -0.5181  0.1749
 3498TIP3   OH232052   3.259   6.699   0.585  0.4598  0.1955 -0.0467
 3498TIP3    H132053   3.338   6.644   0.581 -0.2920 -1.1322  1.7853
 3498TIP3    H232054   3.292   6.785   0.609  1.4270 -0.1438 -0.0953
 3499TIP3   OH232055   3.036   3.470   2.393  0.1919 -0.1363 -0.6629
 3499TIP3    H132056   2.952   3.479   2.349 -0.4971 -1.6962  0.2449
 3499TIP3    H232057   3.017   3.483   2.486  0.9795 -0.3110 -0.4694
 3500TIP3   OH232058   5.018   0.379   3.369  0.1279  0.1451  0.2195
 3500TIP3    H132059   5.033   0.288   3.345 -0.3440 -0.0069  0.4791
 3500TIP3    H232060   4.942   0.406   3.318 -0.3000  0.1048  0.8183
 3501TIP3   OH232061   0.474   0.344   1.825 -0.5620 -0.3213  0.1421
 3501TIP3    H132062   0.458   0.357   1.918 -1.2754  2.2334 -0.2659
 3501TIP3    H232063   0.393   0.370   1.782  0.8324  1.9905 -1.3333
 3502TIP3   OH232064   0.311   5.065   0.317 -0.4023 -0.4695 -0.4122
 3502TIP3    H132065   0.357   5.124   0.377 -1.1140 -0.3346  0.0054
 3502TIP3    H232066   0.330   4.977   0.350  0.1432 -0.4520 -0.6667
 3503TIP3   OH232067   4.813   3.496   8.220  0.5556  0.2056  0.0763
 3503TIP3    H132068   4.826   3.416   8.169  2.5812  0.2378  0.4617
 3503TIP3    H232069   4.902   3.527   8.240 -0.1755  2.1728  0.5373
 3504TIP3   OH232070   1.967   0.305   1.560 -0.5535 -0.2962  0.2782
 3504TIP3    H132071   2.043   0.322   1.503 -0.7173  0.9437  0.3888
 3504TIP3    H232072   2.004   0.303   1.648 -0.6252  0.2337  0.3256
 3505TIP3   OH232073   6.820   0.083   2.833 -0.5733  0.0234  0.7432
 3505TIP3    H132074   6.795   0.119   2.918  0.7184 -0.2557  1.2738
 3505TIP3    H232075   6.896   0.135   2.807 -0.7457 -0.1258 -0.0815
 3506TIP3   OH232076   5.035   1.412   2.248  0.3173 -0.3280 -0.3983
 3506TIP3    H132077   5.093   1.442   2.318  0.3721 -3.2628  0.9665
 3506TIP3    H232078   5.093   1.396   2.173  0.7548 -0.1322 -0.0992
 3507TIP3   OH232079   6.218   4.288   2.911  0.1077 -0.4727 -1.2712
 3507TIP3    H132080   6.187   4.258   2.996 -0.2127  0.2990 -1.1099
 3507TIP3    H232081   6.151   4.350   2.881  0.0767 -0.9379 -2.2096
 3508TIP3   OH232082   6.775   3.302   1.340 -0.1405  0.4259 -0.4210
 3508TIP3    H132083   6.736   3.302   1.428 -0.9885  0.0567 -0.7824
 3508TIP3    H232084   6.821   3.219   1.335 -2.2239 -0.7511 -1.2063
 3509TIP3   OH232085   1.638   4.643   0.123 -0.8561 -0.3512  0.2697
 3509TIP3    H132086   1.700   4.623   0.193 -0.8865 -1.3613  0.0284
 3509TIP3    H232087   1.693   4.654   0.045 -0.8839  0.0405  0.3015
 3510TIP3   OH232088   6.793   2.564   0.894 -0.2413 -0.1358  0.4971
 3510TIP3    H132089   6.866   2.610   0.934  0.1197  0.1834 -0.4996
 3510TIP3    H232090   6.715   2.608   0.927  0.1096  2.0731 -1.3893
 3511TIP3   OH232091   0.132   2.747   7.793 -0.0601  0.2576 -0.6308
 3511TIP3    H132092   0.069   2.675   7.796 -0.7276  0.8395  2.0633
 3511TIP3    H232093   0.217   2.704   7.792 -0.4557 -0.5813  0.3310
 3512TIP3   OH232094   2.583   0.734   1.026  0.6107 -0.4605  0.6831
 3512TIP3    H132095   2.669   0.727   1.066  0.6774  2.6273  1.3571
 3512TIP3    H232096   2.586   0.815   0.976 -0.7133 -2.2371 -2.6108
 3513TIP3   OH232097   3.275   6.057   2.523 -0.1326  0.1976 -0.0140
 3513TIP3    H132098   3.282   5.981   2.580 -0.2456  1.0350  1.1441
 3513TIP3    H232099   3.202   6.108   2.559 -1.4905 -0.1938 -2.0488
 3514TIP3   OH232100   1.214   5.145   0.870 -0.1998 -0.1047  0.1400
 3514TIP3    H132101   1.230   5.173   0.960 -1.2496  0.6365  0.1090
 3514TIP3    H232102   1.137   5.194   0.843 -0.7365 -1.3686 -0.7038
 3515TIP3   OH232103   2.016   1.900   1.871  0.3619  0.5456  0.0431
 3515TIP3    H132104   2.009   1.913   1.777 -0.3827 -1.3702 -0.2138
 3515TIP3    H232105   2.089   1.838   1.881 -0.3516 -0.2242  0.6103
 3516TIP3   OH232106   5.266   0.552   1.068  0.3494 -0.2129 -0.0113
 3516TIP3    H132107   5.187   0.508   1.100  1.0478 -1.2251  0.3770
 3516TIP3    H232108   5.337   0.513   1.118  1.2959 -0.5889 -1.5610
 3517TIP3   OH232109   4.359   1.900   7.863 -0.1576 -0.4248 -0.4309
 3517TIP3    H132110   4.305   1.825   7.838 -0.0595 -0.2594 -1.1812
 3517TIP3    H232111   4.399   1.928   7.780  0.9948 -0.4849  0.0894
 3518TIP3   OH232112   2.792   5.915   8.062 -0.3561 -0.3810 -0.2105
 3518TIP3    H132113   2.811   5.959   7.979  1.2282  0.5491  0.5862
 3518TIP3    H232114   2.760   5.985   8.119  1.4992 -0.3353  0.8606
 3519TIP3   OH232115   3.945   4.609   7.621 -0.0425  0.6693 -0.6665
 3519TIP3    H132116   3.985   4.526   7.595 -1.3403 -0.3128  0.3215
 3519TIP3    H232117   4.017   4.662   7.655  0.5692 -0.7089  0.2554
 3520TIP3   OH232118   1.630   4.877   0.303  0.1823 -0.7592 -0.0981
 3520TIP3    H132119   1.549   4.843   0.264  0.2694 -2.7241  1.3188
 3520TIP3    H232120   1.671   4.802   0.344  2.8660  0.1396 -0.8815
 3521TIP3   OH232121   4.440   4.115   2.870  0.3368 -0.0751 -0.6840
 3521TIP3    H132122   4.377   4.044   2.882 -0.2399  0.4653 -0.4530
 3521TIP3    H232123   4.498   4.084   2.801  2.0822 -2.1663  1.5066
 3522TIP3   OH232124   6.444   6.110   2.007  0.7122  0.1532  0.1732
 3522TIP3    H132125   6.520   6.052   1.997 -0.2736 -0.7704 -4.4597
 3522TIP3    H232126   6.482   6.193   2.036  3.5198 -0.4155 -1.4582
 3523TIP3   OH232127   4.563   2.645   7.614 -0.1108  1.0529  0.2361
 3523TIP3    H132128   4.655   2.669   7.610 -0.0552  0.9356  0.7035
 3523TIP3    H232129   4.517   2.729   7.610 -0.0875  0.9988 -2.2074
 3524TIP3   OH232130   3.532   6.018   0.097  0.3162  0.2100 -0.6655
 3524TIP3    H132131   3.554   6.044   0.007  2.0081  0.1593 -0.2965
 3524TIP3    H232132   3.529   6.100   0.146 -0.4703  0.2236 -0.7101
 3525TIP3   OH232133   4.487   1.198   1.854  0.1257 -0.1330  0.3409
 3525TIP3    H132134   4.472   1.215   1.947 -0.2717 -0.5393  0.3568
 3525TIP3    H232135   4.480   1.103   1.846  2.5888 -0.3701  0.3134
 3526TIP3   OH232136   5.924   4.603   0.179  0.5183 -0.4015  0.5870
 3526TIP3    H132137   5.887   4.573   0.262  0.2452 -2.5985 -0.2681
 3526TIP3    H232138   6.012   4.565   0.177  0.5353 -0.3368 -0.1101
 3527TIP3   OH232139   5.305   1.010   6.840 -0.0662 -0.2755 -0.6220
 3527TIP3    H132140   5.264   1.064   6.907  0.2507 -1.3514  0.4803
 3527TIP3    H232141   5.263   0.925   6.849  1.7820 -1.1876 -0.0005
 3528TIP3   OH232142   0.012   6.194   2.452 -0.9585  0.2552 -0.1040
 3528TIP3    H132143  -0.030   6.117   2.414 -2.2763  0.7122  0.3586
 3528TIP3    H232144  -0.041   6.214   2.529  0.8264  0.1631  1.2171
 3529TIP3   OH232145   0.887   0.959   0.935 -0.3414 -0.0436  0.1250
 3529TIP3    H132146   0.934   1.016   0.996 -1.0209 -0.1495  0.7493
 3529TIP3    H232147   0.950   0.943   0.864 -0.0312  1.2134  0.1022
 3530TIP3   OH232148   3.967   0.274   0.114  0.2794  0.0024 -0.0586
 3530TIP3    H132149   3.912   0.308   0.044 -0.1898 -1.7077 -0.5898
 3530TIP3    H232150   3.995   0.188   0.082  3.3076  0.8058  0.1884
 3531TIP3   OH232151   2.317   2.616   7.229  0.1147  0.3844  0.5878
 3531TIP3    H132152   2.342   2.526   7.247 -0.9959 -0.1993 -0.5908
 3531TIP3    H232153   2.352   2.666   7.303  2.1692 -0.7421  0.4535
 3532TIP3   OH232154   6.128   4.140   1.693  0.2390  0.0793 -0.0720
 3532TIP3    H132155   6.080   4.107   1.769  1.6543 -0.9784  0.4251
 3532TIP3    H232156   6.168   4.222   1.723  0.6398 -0.2394  0.2785
 3533TIP3   OH232157   0.770   1.218   0.227  0.4602  0.3952 -0.0743
 3533TIP3    H132158   0.729   1.192   0.309  0.8186  1.2290  0.3737
 3533TIP3    H232159   0.736   1.305   0.208  0.0895  0.0626 -1.0166
 3534TIP3   OH232160   3.907   5.977   2.568  0.2147 -0.1266 -0.2188
 3534TIP3    H132161   3.881   5.920   2.496 -2.0628 -0.5205  0.8272
 3534TIP3    H232162   3.859   6.059   2.553  2.5706  1.2231 -1.0743
 3535TIP3   OH232163   3.226   1.606   0.223  0.3381  0.5621  0.4784
 3535TIP3    H132164   3.256   1.695   0.203  1.6803  0.1461  0.4932
 3535TIP3    H232165   3.186   1.576   0.141 -2.1068  1.8963  1.0971
 3536TIP3   OH232166   1.535   0.738   7.896  0.0445  0.3159 -0.4617
 3536TIP3    H132167   1.487   0.808   7.940  0.7967  0.8042 -0.3982
 3536TIP3    H232168   1.470   0.669   7.882 -0.8394  1.2261 -0.9794
 3537TIP3   OH232169   2.490   0.801   7.619  0.2481  0.0182  0.0204
 3537TIP3    H132170   2.398   0.826   7.627  0.0253 -1.1075  1.1868
 3537TIP3    H232171   2.488   0.706   7.609  1.3196 -0.1224  0.9599
 3538TIP3   OH232172   1.989   5.478   1.796 -0.1114  0.3959 -0.2632
 3538TIP3    H132173   1.974   5.484   1.891  0.5316 -1.2153 -0.0331
 3538TIP3    H232174   1.902   5.475   1.758 -0.3776  0.7968  0.3015
 3539TIP3   OH232175   1.049   3.926   7.938  0.1454  0.1915  0.3179
 3539TIP3    H132176   1.066   3.832   7.933 -0.4974  0.0265  1.0041
 3539TIP3    H232177   1.059   3.957   7.848  3.0021 -0.0344  0.4784
 3540TIP3   OH232178   1.212   1.770   2.277  0.3036 -0.2250  0.4807
 3540TIP3    H132179   1.202   1.700   2.212  0.1729 -0.4301  0.7195
 3540TIP3    H232180   1.159   1.741   2.351 -1.0588  0.8878 -0.0239
 3541TIP3   OH232181   6.100   1.094   1.510  0.5420 -0.2922  0.1350
 3541TIP3    H132182   6.106   1.186   1.485  1.7337 -0.6168 -0.8675
 3541TIP3    H232183   6.018   1.088   1.559  0.2817  1.2314 -0.0610
 3542TIP3   OH232184   1.760   0.085   1.798 -0.2866 -1.0186  0.6303
 3542TIP3    H132185   1.788   0.033   1.723 -1.8384 -1.1977  0.1490
 3542TIP3    H232186   1.748   0.022   1.868 -1.5472 -1.2700  0.2226
 3543TIP3   OH232187   3.604   5.363   2.153 -0.6268 -0.7246  0.2516
 3543TIP3    H132188   3.606   5.306   2.076 -2.3373  1.6829 -1.7347
 3543TIP3    H232189   3.514   5.357   2.185 -0.4013 -0.3364  0.9914
 3544TIP3   OH232190   1.434   5.020   1.771  0.3214  0.1478 -0.0699
 3544TIP3    H132191   1.447   4.933   1.732  0.9406 -0.1604  0.7963
 3544TIP3    H232192   1.358   5.056   1.724 -0.4417 -1.1774  0.0868
 3545TIP3   OH232193   6.528   2.925   2.088 -0.2708  0.1390 -0.2344
 3545TIP3    H132194   6.474   2.849   2.064  1.4332 -0.6985 -1.6153
 3545TIP3    H232195   6.612   2.888   2.113 -0.2294  1.4347  1.8056
 3546TIP3   OH232196   5.656   5.187   0.969  0.5291  0.1425  0.1421
 3546TIP3    H132197   5.611   5.212   0.889 -2.1421 -1.3390  1.0616
 3546TIP3    H232198   5.631   5.096   0.983  2.8031 -0.3677  1.4888
 3547TIP3   OH232199   6.246   3.009   7.987  0.3500  0.1364 -0.1696
 3547TIP3    H132200   6.252   2.999   8.082 -0.1710 -1.6286 -0.2843
 3547TIP3    H232201   6.184   3.081   7.974  1.1889  1.0663  0.8083
 3548TIP3   OH232202   4.317   6.691   0.808  0.0012 -0.2602  0.0861
 3548TIP3    H132203   4.385   6.751   0.838  1.9360 -2.0316 -0.5507
 3548TIP3    H232204   4.296   6.639   0.885  0.6473 -0.8683 -0.1445
 3549TIP3   OH232205   3.867   0.913   8.038 -0.5011  0.5292 -0.5528
 3549TIP3    H132206   3.922   0.857   7.983  0.1640  0.3527  0.2838
 3549TIP3    H232207   3.778   0.880   8.024 -0.2901  0.2144 -1.1857
 3550TIP3   OH232208   4.331   5.419   0.545  0.2133 -0.1116 -0.2167
 3550TIP3    H132209   4.417   5.392   0.577  1.4425  2.9682 -0.5232
 3550TIP3    H232210   4.338   5.412   0.450 -0.0253 -0.2211 -0.2271
 3551TIP3   OH232211   3.042   5.543   3.299 -0.5551 -0.1156 -0.3090
 3551TIP3    H132212   2.990   5.482   3.352  0.1704  0.6712  1.3887
 3551TIP3    H232213   3.083   5.489   3.232 -1.1747 -1.2213  0.1852
 3552TIP3   OH232214   0.720   6.185   2.478 -0.3919 -0.4898 -0.4287
 3552TIP3    H132215   0.752   6.198   2.388 -1.0860 -1.0364 -0.7681
 3552TIP3    H232216   0.625   6.172   2.468 -0.1790 -2.9896  0.1100
 3553TIP3   OH232217   7.041   4.101   2.487 -0.4039  0.2297 -0.5367
 3553TIP3    H132218   7.110   4.042   2.518  0.6923  1.8416  0.2242
 3553TIP3    H232219   6.986   4.117   2.564 -0.6637  0.2359 -0.7218
 3554TIP3   OH232220   5.830   3.267   4.119  0.1376  0.0898  0.3574
 3554TIP3    H132221   5.807   3.176   4.097 -0.0496  0.3487 -0.5644
 3554TIP3    H232222   5.786   3.319   4.052  1.9735  0.7218 -0.4320
 3555TIP3   OH232223   3.859   5.219   0.163 -0.2407 -0.0173  0.3967
 3555TIP3    H132224   3.923   5.275   0.118 -2.2888  2.2912  0.1894
 3555TIP3    H232225   3.887   5.130   0.142  1.6692  0.9183 -1.4180
 3556TIP3   OH232226   1.968   6.310   1.740 -0.1621 -0.0783  0.3152
 3556TIP3    H132227   1.968   6.236   1.679  0.4071 -0.2110  0.4637
 3556TIP3    H232228   2.008   6.382   1.691 -1.3530  0.3452 -0.0639
 3557TIP3   OH232229   1.256   6.409   7.485 -0.1088 -0.0940  0.4238
 3557TIP3    H132230   1.332   6.465   7.468  0.1793 -0.2453  1.1497
 3557TIP3    H232231   1.187   6.469   7.512 -0.5028  0.1226 -1.0149
 3558TIP3   OH232232   4.817   2.521   0.066  0.4093 -1.0751 -0.2388
 3558TIP3    H132233   4.797   2.591   0.129  0.7412 -0.5684 -0.6916
 3558TIP3    H232234   4.787   2.441   0.110 -0.7887 -0.5578 -0.0719
 3559TIP3   OH232235   6.031   2.062   0.856  0.1509 -0.4319 -0.4165
 3559TIP3    H132236   5.942   2.094   0.867  0.4094 -0.0467  0.6569
 3559TIP3    H232237   6.081   2.105   0.926  0.7330 -2.3339  0.3916
 3560TIP3   OH232238   6.614   5.634   2.217  0.2321 -0.2551  0.0164
 3560TIP3    H132239   6.706   5.611   2.211  0.0809 -0.7968 -0.2737
 3560TIP3    H232240   6.610   5.701   2.285  1.5416  3.6134 -3.3236
 3561TIP3   OH232241   5.302   4.002   1.416 -0.3919  0.4617 -0.0398
 3561TIP3    H132242   5.389   4.023   1.448 -0.0462 -0.5605 -0.2646
 3561TIP3    H232243   5.318   3.954   1.334 -1.2146  1.9226 -1.1089
 3562TIP3   OH232244   4.005   5.614   2.455 -0.1599  0.1591 -0.0679
 3562TIP3    H132245   4.026   5.699   2.416  0.9495 -1.5505 -3.6686
 3562TIP3    H232246   4.088   5.580   2.486 -0.2888 -0.2627 -0.1698
 3563TIP3   OH232247   3.843   3.219   1.163  0.5284 -0.4119  0.8225
 3563TIP3    H132248   3.845   3.126   1.141  0.9477  0.1397 -1.7753
 3563TIP3    H232249   3.750   3.243   1.156  0.3931 -0.6683  1.6952
 3564TIP3   OH232250   5.639   3.706   3.949 -0.0214 -0.5439  0.3709
 3564TIP3    H132251   5.730   3.733   3.946 -0.0728 -0.4192 -0.0568
 3564TIP3    H232252   5.589   3.787   3.940 -0.1770 -0.7643 -0.9946
 3565TIP3   OH232253   5.065   3.807   1.977 -0.0403  0.7336 -0.6838
 3565TIP3    H132254   5.079   3.752   1.900 -1.1599 -0.4416 -0.0822
 3565TIP3    H232255   5.153   3.839   2.000  0.6282 -0.7536 -1.0923
 3566TIP3   OH232256   1.640   0.092   8.179 -0.7550  0.3170  0.6766
 3566TIP3    H132257   1.605   0.049   8.257  0.7897 -1.1377  0.6236
 3566TIP3    H232258   1.614   0.034   8.107  0.0427  0.2755  0.4198
 3567TIP3   OH232259   5.313   5.669   1.027 -0.1608 -0.3377  0.3782
 3567TIP3    H132260   5.292   5.622   1.108  2.5839 -0.1319  1.3056
 3567TIP3    H232261   5.333   5.600   0.964 -0.4409 -0.4549  0.4134
 3568TIP3   OH232262   5.644   3.608   7.633 -0.2759 -0.4999 -0.0478
 3568TIP3    H132263   5.550   3.611   7.649 -0.4108  1.2217 -0.8906
 3568TIP3    H232264   5.655   3.638   7.543  1.1696  1.4470  0.6742
 3569TIP3   OH232265   3.896   5.367   0.414 -0.6420 -0.3162 -0.3606
 3569TIP3    H132266   3.935   5.304   0.474  0.4784 -0.3738 -1.1089
 3569TIP3    H232267   3.876   5.316   0.335  0.3436  0.2649 -1.0015
 3570TIP3   OH232268   4.210   0.579   1.107 -0.2657  0.0389  0.6223
 3570TIP3    H132269   4.191   0.663   1.147 -1.5791  0.1277 -0.1463
 3570TIP3    H232270   4.127   0.531   1.110 -0.0122 -0.5175 -0.6232
 3571TIP3   OH232271   4.423   2.593   7.397 -0.4911  0.3247  0.1894
 3571TIP3    H132272   4.468   2.592   7.481 -1.4223  0.8069  0.7189
 3571TIP3    H232273   4.433   2.505   7.363  1.4091  0.5921 -0.0363
 3572TIP3   OH232274   3.509   3.882   1.026 -0.3168  0.4023 -0.1780
 3572TIP3    H132275   3.554   3.886   1.110  1.6108  0.5457 -1.1785
 3572TIP3    H232276   3.476   3.792   1.021  0.0654  0.2199  0.4654
 3573TIP3   OH232277   3.730   3.322   7.794 -0.3610 -0.0556 -0.5169
 3573TIP3    H132278   3.776   3.339   7.712  3.0629 -0.0159  1.2553
 3573TIP3    H232279   3.691   3.236   7.782  0.1182 -0.0785 -2.1358
 3574TIP3   OH232280   6.516   4.524   1.300 -0.4771  1.0071 -0.1883
 3574TIP3    H132281   6.478   4.507   1.386 -2.0050  0.3460 -0.9593
 3574TIP3    H232282   6.581   4.592   1.316 -0.5480  0.7226  1.5249
 3575TIP3   OH232283   0.224   0.130   7.264 -0.4425  0.3346  0.2222
 3575TIP3    H132284   0.281   0.053   7.274  0.4098  0.7875 -0.9358
 3575TIP3    H232285   0.240   0.182   7.343 -1.0437 -0.6570  1.0290
 3576TIP3   OH232286   2.271   1.719   1.763 -0.2876 -0.4279  0.0403
 3576TIP3    H132287   2.225   1.761   1.691 -0.8336 -0.5189  0.3282
 3576TIP3    H232288   2.334   1.661   1.721 -1.7623 -1.7643 -0.3841
 3577TIP3   OH232289   5.493   3.350   8.249  0.2516 -0.0792 -0.4078
 3577TIP3    H132290   5.470   3.429   8.199  1.3524  0.7624  0.3776
 3577TIP3    H232291   5.574   3.373   8.294 -0.9118 -0.6328  2.1296
 3578TIP3   OH232292   6.908   4.180   0.246  0.3878  0.5077 -0.2327
 3578TIP3    H132293   6.976   4.207   0.309  1.5136  1.0918 -1.6374
 3578TIP3    H232294   6.860   4.110   0.290 -0.2318  2.2653  2.1152
 3579TIP3   OH232295   1.355   0.380   2.073  0.1372  0.2211 -0.2436
 3579TIP3    H132296   1.287   0.314   2.061  2.3384 -1.9637 -1.3860
 3579TIP3    H232297   1.386   0.368   2.163  0.4116 -0.1808 -0.3919
 3580TIP3   OH232298   1.417   3.578   0.603 -0.3457  0.5189  0.1448
 3580TIP3    H132299   1.420   3.589   0.507 -0.7677  1.0879  0.1877
 3580TIP3    H232300   1.496   3.621   0.634 -1.0655  1.8984  0.1647
 3581TIP3   OH232301   6.070   2.444   0.023 -0.2710  0.8075  0.7893
 3581TIP3    H132302   6.070   2.385  -0.052  0.3204 -0.0423  1.4404
 3581TIP3    H232303   6.091   2.388   0.098 -1.3116  1.5452  1.6702
 3582TIP3   OH232304   4.197   6.747   1.521 -0.8590  0.0415 -0.3675
 3582TIP3    H132305   4.246   6.761   1.602  0.5758  0.6556 -1.3040
 3582TIP3    H232306   4.211   6.827   1.470  1.6207 -1.7715 -2.8706
 3583TIP3   OH232307   0.919   6.383   7.321 -0.0476 -0.1707  0.6969
 3583TIP3    H132308   1.012   6.394   7.304 -0.0428  0.5611  1.1160
 3583TIP3    H232309   0.875   6.426   7.248 -0.0287  3.1131  2.4070
 3584TIP3   OH232310   4.268   0.106   7.946  0.1094  0.4025 -0.9685
 3584TIP3    H132311   4.263   0.181   7.886  0.0540 -0.8098 -2.5172
 3584TIP3    H232312   4.236   0.032   7.896 -0.1736 -0.6348  0.6546
 3585TIP3   OH232313   0.471   4.818   6.798 -0.0241 -0.2119  0.5329
 3585TIP3    H132314   0.516   4.776   6.871  0.0948 -0.1268  0.5093
 3585TIP3    H232315   0.510   4.905   6.793 -1.1774  0.3868  1.4305
 3586TIP3   OH232316   4.105   2.811   2.178  0.7040  0.3918 -0.4598
 3586TIP3    H132317   4.014   2.832   2.159  0.8777  0.7134 -0.9411
 3586TIP3    H232318   4.145   2.796   2.093  1.0788  0.1441 -0.2461
 3587TIP3   OH232319   3.902   2.734   0.073 -0.6203 -0.1008 -0.4089
 3587TIP3    H132320   3.843   2.766   0.141  1.4540  2.5384  0.3236
 3587TIP3    H232321   3.903   2.804   0.007  1.8965  0.1776 -0.1862
 3588TIP3   OH232322   1.683   3.160   7.529  0.0227 -0.5965 -0.1951
 3588TIP3    H132323   1.764   3.208   7.544  0.2787 -0.6963 -1.1642
 3588TIP3    H232324   1.678   3.152   7.433  1.0520 -4.2788 -0.0771
 3589TIP3   OH232325   0.254   0.517   2.654 -0.1975 -0.0088  0.4671
 3589TIP3    H132326   0.222   0.605   2.676 -2.3846 -0.8479  0.8965
 3589TIP3    H232327   0.344   0.516   2.685  0.6096  2.7344 -1.3809
 3590TIP3   OH232328   5.999   6.428   1.672  0.3042 -0.1384  0.4046
 3590TIP3    H132329   5.906   6.440   1.692  0.3331  1.6071 -0.3465
 3590TIP3    H232330   6.001   6.354   1.612 -0.9476  1.5485 -1.8638
 3591TIP3   OH232331   5.457   1.280   0.967  0.5605 -0.3711 -0.5211
 3591TIP3    H132332   5.362   1.284   0.960  0.5741  0.5235 -0.2180
 3591TIP3    H232333   5.477   1.186   0.962 -0.2059 -0.4721 -2.1522
 3592TIP3   OH232334   0.942   6.760   7.822 -0.5760 -0.1312  0.2239
 3592TIP3    H132335   0.979   6.672   7.829 -0.1762 -0.0842 -1.0590
 3592TIP3    H232336   0.921   6.769   7.729 -0.2206  1.2961  0.2717
 3593TIP3   OH232337   4.963   5.320   2.118  0.5619 -0.3505  0.2213
 3593TIP3    H132338   4.972   5.411   2.091  1.8561 -0.5883 -0.2244
 3593TIP3    H232339   4.981   5.321   2.212  0.1983 -0.1012  0.2901
 3594TIP3   OH232340   4.993   3.223   0.160  0.3585  0.6486  0.6636
 3594TIP3    H132341   4.900   3.235   0.177 -0.5316 -1.5830 -1.9416
 3594TIP3    H232342   5.013   3.285   0.090  0.4259  0.0194  0.1244
 3595TIP3   OH232343   5.726   3.259   6.614  0.2456  0.2758  0.0934
 3595TIP3    H132344   5.730   3.262   6.710 -0.4569  1.9487  0.1021
 3595TIP3    H232345   5.787   3.327   6.586  1.9989 -1.5679 -0.7331
 3596TIP3   OH232346   3.468   5.071   8.109 -0.4477 -0.8163 -0.9480
 3596TIP3    H132347   3.384   5.052   8.066 -1.5877 -0.5759  1.0619
 3596TIP3    H232348   3.444   5.111   8.193  1.7110  0.1263 -0.6999
 3597TIP3   OH232349   3.014   3.548   7.564 -0.2597 -0.0779 -0.2825
 3597TIP3    H132350   3.049   3.510   7.484  2.1627 -1.0704  1.1281
 3597TIP3    H232351   2.994   3.472   7.619 -2.2242  0.5714 -0.0169
 3598TIP3   OH232352   5.245   3.626   0.817 -0.1399 -0.3043 -0.2451
 3598TIP3    H132353   5.333   3.662   0.823  0.0765 -0.7923 -0.4804
 3598TIP3    H232354   5.207   3.643   0.904  0.7260 -1.4981  0.3945
 3599TIP3   OH232355   1.487   6.282   7.167 -0.0092  0.2072 -0.1634
 3599TIP3    H132356   1.570   6.271   7.121  0.7448  0.5574  1.0773
 3599TIP3    H232357   1.495   6.227   7.244 -0.4345  1.1766  0.5958
 3600TIP3   OH232358   0.106   6.949   2.490  0.0572  0.5964  0.7473
 3600TIP3    H132359   0.062   6.867   2.468 -1.0876  1.2547  0.4885
 3600TIP3    H232360   0.153   6.973   2.410 -2.1524  1.7566 -0.2880
 3601TIP3   OH232361   4.208   3.152   7.779 -0.1188  0.1628  0.5865
 3601TIP3    H132362   4.127   3.140   7.830  0.7869 -0.0349  2.0421
 3601TIP3    H232363   4.188   3.115   7.693 -1.6897  0.4399  0.8010
 3602TIP3   OH232364   5.426   1.460   7.511 -0.3640 -0.1141  0.6775
 3602TIP3    H132365   5.414   1.539   7.564  0.7018 -0.3604  1.3261
 3602TIP3    H232366   5.503   1.479   7.457  0.4920 -1.0494  1.5353
 3603TIP3   OH232367   0.927   5.206   7.693  0.0813 -0.1668 -0.0105
 3603TIP3    H132368   0.908   5.113   7.680  0.3731 -0.2799  0.3447
 3603TIP3    H232369   1.015   5.218   7.657 -0.2948  0.1616 -0.8435
 3604TIP3   OH232370   2.472   3.188   2.444 -0.0368 -0.2225 -0.3543
 3604TIP3    H132371   2.453   3.229   2.359 -1.9241  1.6754  0.9015
 3604TIP3    H232372   2.419   3.109   2.444  0.5174 -0.6127 -1.2033
 3605TIP3   OH232373   4.612   2.528   1.409  0.1009  0.0683  0.1157
 3605TIP3    H132374   4.695   2.561   1.442 -0.2532  0.2573  0.8279
 3605TIP3    H232375   4.547   2.594   1.435 -0.2125  0.1638 -0.8447
 3606TIP3   OH232376   3.904   2.335   1.435 -0.1213  0.2339 -0.2147
 3606TIP3    H132377   3.872   2.339   1.526 -0.3971  3.0805 -0.3643
 3606TIP3    H232378   3.841   2.386   1.385  0.1904 -1.0588 -2.0211
 3607TIP3   OH232379   6.935   4.121   1.592 -0.3531 -0.4314  0.3921
 3607TIP3    H132380   6.948   4.215   1.579 -2.9649  0.1687  1.4595
 3607TIP3    H232381   6.894   4.114   1.679 -0.9522 -2.4770 -0.0025
 3608TIP3   OH232382   0.798   5.576   2.299  0.3291  0.0341 -1.1919
 3608TIP3    H132383   0.854   5.649   2.274  2.2243 -0.9820 -0.1004
 3608TIP3    H232384   0.833   5.546   2.383 -1.6731 -0.8488 -0.6126
 3609TIP3   OH232385   6.215   5.510   7.241  0.5851  0.0571  0.1897
 3609TIP3    H132386   6.254   5.587   7.282 -2.0165  1.2744  0.6215
 3609TIP3    H232387   6.154   5.477   7.307 -0.1158 -0.8957 -0.9045
 3610TIP3   OH232388   1.706   5.201   1.135 -0.0685  0.3057  0.6200
 3610TIP3    H132389   1.685   5.123   1.083 -0.7999  1.0111 -0.1918
 3610TIP3    H232390   1.768   5.249   1.081 -1.7237  1.6272 -0.2076
 3611TIP3   OH232391   1.569   2.140   0.238  0.6969 -0.6613 -0.2026
 3611TIP3    H132392   1.523   2.184   0.166  0.7002 -0.5897 -0.1617
 3611TIP3    H232393   1.625   2.209   0.275 -0.3230 -0.3080  0.7507
 3612TIP3   OH232394   6.598   2.516   0.009  0.3138 -0.4122 -1.0314
 3612TIP3    H132395   6.652   2.438   0.018  2.6311  1.0046 -1.9269
 3612TIP3    H232396   6.554   2.506  -0.076 -1.8520 -2.0664  0.1568
 3613TIP3   OH232397   0.729   2.795   2.053 -0.5940  0.3112  0.5720
 3613TIP3    H132398   0.717   2.882   2.016  0.3107  0.7719  1.3007
 3613TIP3    H232399   0.643   2.770   2.088 -1.2971  0.1412 -1.1979
 3614TIP3   OH232400   0.846   5.848   0.980  0.0015  0.2385 -0.4752
 3614TIP3    H132401   0.882   5.901   1.052 -0.8875 -0.4284  0.4957
 3614TIP3    H232402   0.922   5.808   0.939  0.4179 -1.0932  1.4817
 3615TIP3   OH232403   5.355   6.822   0.137 -0.3726  0.2030 -0.0176
 3615TIP3    H132404   5.334   6.781   0.220  0.0680 -0.5020 -0.2427
 3615TIP3    H232405   5.275   6.813   0.084  0.2029 -1.8528 -0.6338
 3616TIP3   OH232406   5.085   2.430   2.076 -0.0420  0.2405 -0.5882
 3616TIP3    H132407   5.129   2.351   2.105  0.6871  0.3322 -1.4333
 3616TIP3    H232408   5.155   2.495   2.066 -0.2130  0.1668 -2.7265
 3617TIP3   OH232409   3.480   3.928   0.590  0.1247 -0.3224  0.1157
 3617TIP3    H132410   3.471   4.023   0.587 -1.1087 -0.4347 -1.1026
 3617TIP3    H232411   3.390   3.896   0.586  0.5339 -1.5379  0.3954
 3618TIP3   OH232412   4.138   4.596   0.246  0.0652  0.4473 -0.6733
 3618TIP3    H132413   4.152   4.503   0.224  0.3960  0.5383 -0.8618
 3618TIP3    H232414   4.103   4.635   0.166  0.9101  0.6977 -0.9387
 3619TIP3   OH232415   1.121   5.562   0.531  0.2271 -0.3937 -0.0101
 3619TIP3    H132416   1.096   5.604   0.612  3.5457  0.0431  0.9530
 3619TIP3    H232417   1.112   5.630   0.464 -1.4614 -0.4270  0.1597
 3620TIP3   OH232418   1.790   2.181   8.173 -0.4755  0.6062 -0.4477
 3620TIP3    H132419   1.705   2.173   8.129 -0.8411 -0.6035  0.4070
 3620TIP3    H232420   1.793   2.105   8.232  0.7896  1.1636  0.2391
 3621TIP3   OH232421   0.632   6.222   2.202 -0.4112  0.0656 -0.2907
 3621TIP3    H132422   0.600   6.295   2.149 -0.0311  0.1675 -0.3887
 3621TIP3    H232423   0.725   6.215   2.178 -0.2084  0.1754  0.4398
 3622TIP3   OH232424   4.306   5.694   1.820  0.7754  0.2277  0.3136
 3622TIP3    H132425   4.277   5.647   1.741  1.6823 -0.9282  0.6315
 3622TIP3    H232426   4.321   5.783   1.791  0.3493 -0.0009 -0.6513
 3623TIP3   OH232427   5.808   4.903   7.505  0.0806 -0.0578 -0.4548
 3623TIP3    H132428   5.788   4.941   7.420 -2.0511 -1.2459 -0.5475
 3623TIP3    H232429   5.752   4.951   7.566 -0.8484 -1.3817 -0.2311
 3624TIP3   OH232430   1.732   2.319   3.062 -0.0668  0.6689  0.5547
 3624TIP3    H132431   1.681   2.267   3.124 -0.4582  0.4760  0.0801
 3624TIP3    H232432   1.814   2.270   3.051 -0.6978 -0.2126 -0.3904
 3625TIP3   OH232433   3.924   5.837   2.091 -0.5409 -0.0942 -0.0968
 3625TIP3    H132434   3.969   5.769   2.140 -1.2082 -0.7805 -0.4094
 3625TIP3    H232435   3.984   5.911   2.091  0.9181 -1.2332 -1.1484
 3626TIP3   OH232436   4.210   2.752   7.498 -0.5894  0.1359  0.2861
 3626TIP3    H132437   4.291   2.707   7.474  0.4619  1.5194  1.1099
 3626TIP3    H232438   4.148   2.681   7.514  0.3823 -0.9581 -0.5652
 3627TIP3   OH232439   3.399   4.272   1.286 -0.9231 -0.0274  0.1588
 3627TIP3    H132440   3.465   4.202   1.282 -0.1688  0.6550  0.2544
 3627TIP3    H232441   3.377   4.278   1.379  1.0159  1.6178  0.5982
 3628TIP3   OH232442   3.251   5.066   7.956  0.2288  0.0137 -0.0402
 3628TIP3    H132443   3.183   5.039   8.017 -0.1744  0.3466 -0.3356
 3628TIP3    H232444   3.209   5.133   7.901  0.8231  0.2932 -0.1589
 3629TIP3   OH232445   2.833   3.342   8.154 -0.2575  0.4929 -0.4038
 3629TIP3    H132446   2.742   3.315   8.141  0.2534 -1.1937 -0.6890
 3629TIP3    H232447   2.863   3.366   8.066 -0.0024 -0.4167 -0.5781
 3630TIP3   OH232448   2.325   1.098   3.239  0.2982 -0.0101 -0.1517
 3630TIP3    H132449   2.341   1.169   3.177  0.9077  0.7221  0.8254
 3630TIP3    H232450   2.400   1.040   3.228  0.3940  0.1066 -0.1165
 3631TIP3   OH232451   4.597   0.145   0.805 -0.3635  0.0560  0.1468
 3631TIP3    H132452   4.571   0.058   0.835 -0.0987 -0.2202 -0.4194
 3631TIP3    H232453   4.548   0.205   0.862 -1.2498 -0.4556 -0.0429
 3632TIP3   OH232454   4.925   0.273   1.923 -0.2569 -1.1556 -0.1661
 3632TIP3    H132455   4.844   0.319   1.946 -0.7631 -1.8903 -0.4514
 3632TIP3    H232456   4.994   0.332   1.951 -0.8644 -1.2423  1.6736
 3633TIP3   OH232457   5.221   6.349   7.400  0.0505  0.0751 -0.5227
 3633TIP3    H132458   5.299   6.294   7.384  0.6366  0.3596  1.1776
 3633TIP3    H232459   5.228   6.419   7.335  0.0394 -1.0445 -1.8035
 3634TIP3   OH232460   5.594   0.356   2.024 -0.4769  0.0903 -0.0697
 3634TIP3    H132461   5.568   0.279   2.075  1.4195  0.1579  1.0766
 3634TIP3    H232462   5.539   0.426   2.058  0.2129 -0.0335  1.4001
 3635TIP3   OH232463   2.602   0.898   1.971 -0.0610 -0.3323  0.1289
 3635TIP3    H132464   2.596   0.908   2.066  0.6161 -1.4743  0.3043
 3635TIP3    H232465   2.583   0.986   1.937  0.0012  0.1672  1.3246
 3636TIP3   OH232466   0.161   1.178   8.066  0.3951 -0.5623  0.6198
 3636TIP3    H132467   0.115   1.134   8.137  1.1615 -1.5818  0.5038
 3636TIP3    H232468   0.211   1.247   8.109 -0.2373 -0.2635  0.8919
 3637TIP3   OH232469   2.489   3.549   1.888  0.4291 -0.1022 -0.5159
 3637TIP3    H132470   2.478   3.605   1.810  1.0159 -1.6959 -1.8000
 3637TIP3    H232471   2.405   3.555   1.934 -0.4227 -0.1736 -2.0013
 3638TIP3   OH232472   4.149   4.719   1.029  0.2214  0.4806  0.1468
 3638TIP3    H132473   4.060   4.738   1.059 -0.4570 -2.7729  0.5741
 3638TIP3    H232474   4.204   4.736   1.105 -0.3618  0.2619  0.6231
 3639TIP3   OH232475   4.568   1.432   0.890  0.0010 -0.0670  0.4283
 3639TIP3    H132476   4.574   1.526   0.872  0.6646 -0.1236  0.3278
 3639TIP3    H232477   4.655   1.399   0.870 -0.4740 -0.8551 -0.3885
 3640TIP3   OH232478   6.482   5.366   2.152 -0.0258  0.1837  0.2679
 3640TIP3    H132479   6.463   5.357   2.058 -0.9085  0.8272  0.3692
 3640TIP3    H232480   6.523   5.452   2.160 -0.7870  0.5273  0.5807
 3641TIP3   OH232481   0.806   5.138   2.812  0.3745  0.0785 -0.4690
 3641TIP3    H132482   0.892   5.169   2.783  0.4509 -0.3326 -0.6779
 3641TIP3    H232483   0.790   5.186   2.894 -0.0514  1.5927 -1.3895
 3642TIP3   OH232484   1.434   6.037   7.876  0.1662  0.2560  0.1908
 3642TIP3    H132485   1.400   6.116   7.919  1.9403  0.7969  0.6718
 3642TIP3    H232486   1.454   6.064   7.787  1.5936  0.6350  0.5944
 3643TIP3   OH232487   0.649   2.855   0.927 -0.8116 -0.0528  0.3974
 3643TIP3    H132488   0.573   2.818   0.972 -1.3856 -0.8984 -1.1566
 3643TIP3    H232489   0.665   2.794   0.855  3.0103 -1.3846  2.1335
 3644TIP3   OH232490   5.950   0.393   1.651  0.3188  0.1244  0.2167
 3644TIP3    H132491   5.888   0.355   1.714 -0.2633 -0.7947 -0.8674
 3644TIP3    H232492   6.014   0.439   1.705 -0.3244 -0.3963  1.4646
 3645TIP3   OH232493   5.380   3.566   2.979  0.4340  0.1368  0.5475
 3645TIP3    H132494   5.397   3.652   2.940  1.4647 -0.4115 -0.2432
 3645TIP3    H232495   5.330   3.586   3.059  0.1750  1.4232  0.0938
 3646TIP3   OH232496   1.590   5.356   0.494  0.5563 -0.0190  0.3278
 3646TIP3    H132497   1.578   5.261   0.497  1.2585 -0.0915  2.7549
 3646TIP3    H232498   1.505   5.392   0.518  1.0704 -0.1700  2.5896
 3647TIP3   OH232499   5.223   1.387   2.047  0.1956 -0.4822 -0.1045
 3647TIP3    H132500   5.238   1.357   1.958  0.0098 -0.8791 -0.0050
 3647TIP3    H232501   5.259   1.318   2.102  1.7077  0.4713  0.1411
 3648TIP3   OH232502   4.079   0.301   2.047 -0.0079 -0.2932 -0.3652
 3648TIP3    H132503   4.078   0.206   2.056 -0.8413 -0.2369  0.2297
 3648TIP3    H232504   4.003   0.322   1.992 -1.4746  0.2032  1.7355
 3649TIP3   OH232505   0.335   6.313   0.786 -0.0161 -0.4654 -0.1728
 3649TIP3    H132506   0.404   6.279   0.842 -0.7192 -0.0425  0.9839
 3649TIP3    H232507   0.347   6.268   0.702  1.4581 -0.6147  0.1005
 3650TIP3   OH232508   0.028   1.528   2.469  0.3289  0.3052  0.7753
 3650TIP3    H132509  -0.014   1.447   2.439 -1.1089  0.5822  1.9116
 3650TIP3    H232510   0.096   1.546   2.404 -1.1433 -0.3047 -1.0173
 3651TIP3   OH232511   3.895   6.992   1.821  0.0777 -0.5006  0.1519
 3651TIP3    H132512   3.945   7.062   1.779  0.9339  0.1885  2.2042
 3651TIP3    H232513   3.893   6.922   1.756  2.5727 -0.0321 -0.5345
 3652TIP3   OH232514   3.931   3.885   1.305 -0.2831 -0.0932  0.1753
 3652TIP3    H132515   3.934   3.892   1.209 -2.3075  1.0794  0.1262
 3652TIP3    H232516   3.870   3.813   1.322 -0.9010  0.4995  0.5425
 3653TIP3   OH232517   3.903   1.955   1.023  0.3659 -0.2134  0.0208
 3653TIP3    H132518   3.861   2.030   0.980 -1.2699 -0.9999  0.1774
 3653TIP3    H232519   3.949   1.993   1.098 -0.6289  0.6137  0.2327
 3654TIP3   OH232520   6.475   4.468   1.968 -0.1204 -0.4754 -0.0681
 3654TIP3    H132521   6.421   4.409   1.914 -0.6475 -0.3445  0.3061
 3654TIP3    H232522   6.424   4.481   2.048  0.4426 -0.2919  0.2684
 3655TIP3   OH232523   2.776   5.334   8.117 -0.1236  0.6754 -0.3705
 3655TIP3    H132524   2.773   5.286   8.199  1.1575 -1.2650 -1.3793
 3655TIP3    H232525   2.719   5.410   8.131 -1.6619 -0.7391  1.5678
 3656TIP3   OH232526   7.025   1.020   2.090 -0.1847  0.3726  0.2616
 3656TIP3    H132527   6.962   0.949   2.105  1.8383 -1.8284 -0.9976
 3656TIP3    H232528   7.018   1.075   2.169 -0.9932 -1.8847  1.8787
 3657TIP3   OH232529   0.304   0.804   0.194  0.1500  0.1628  0.2173
 3657TIP3    H132530   0.293   0.709   0.192 -0.5158  0.1658  1.8260
 3657TIP3    H232531   0.396   0.817   0.219 -0.4966 -0.1816  3.2355
 3658TIP3   OH232532   5.303   6.872   1.721  0.6012  0.9565 -0.0496
 3658TIP3    H132533   5.226   6.924   1.700 -0.4596 -0.4120  0.3254
 3658TIP3    H232534   5.287   6.838   1.810  0.8622 -0.6624 -0.5798
 3659TIP3   OH232535   2.287   0.988   1.795 -0.0036 -0.0962 -0.3843
 3659TIP3    H132536   2.258   1.012   1.883  0.7867  1.1173 -0.4376
 3659TIP3    H232537   2.218   1.021   1.738  0.7610  1.5584 -0.4055
 3660TIP3   OH232538   1.147   4.473   7.307 -0.8330  0.3432 -0.0676
 3660TIP3    H132539   1.185   4.553   7.342 -0.3287  0.3308 -0.5686
 3660TIP3    H232540   1.055   4.477   7.332 -0.7338  0.9046  0.2167
 3661TIP3   OH232541   5.795   1.412   1.211 -0.3240  0.3784 -0.2056
 3661TIP3    H132542   5.840   1.415   1.127 -0.1728  0.4947 -0.1217
 3661TIP3    H232543   5.782   1.504   1.234  1.8231  0.4516  1.0506
 3662TIP3   OH232544   4.119   2.032   1.949 -0.3396 -0.0277 -0.3601
 3662TIP3    H132545   4.199   2.077   1.973 -0.6024 -0.6445  1.8123
 3662TIP3    H232546   4.054   2.102   1.939 -0.6999  0.1956  2.7825
 3663TIP3   OH232547   3.252   1.835   0.060  0.4273  0.3262 -0.9665
 3663TIP3    H132548   3.164   1.857   0.091  1.3488  0.4243  1.8508
 3663TIP3    H232549   3.238   1.766  -0.005 -1.6749 -0.7827  0.5474
 3664TIP3   OH232550   4.389   5.266   1.526 -0.7107 -0.5437  0.4608
 3664TIP3    H132551   4.474   5.278   1.482 -1.1992 -0.9796 -0.6264
 3664TIP3    H232552   4.393   5.325   1.601 -0.0016  0.5165 -0.3808
 3665TIP3   OH232553   1.136   4.720   7.870  0.5105  0.1297  0.3864
 3665TIP3    H132554   1.065   4.693   7.812  0.7432  0.0858  0.1192
 3665TIP3    H232555   1.202   4.757   7.811  1.7859 -2.0781  0.3392
 3666TIP3   OH232556   3.334   6.436   3.318 -0.5968  0.3969  0.3521
 3666TIP3    H132557   3.313   6.480   3.235  1.0709 -1.0107 -0.8987
 3666TIP3    H232558   3.255   6.387   3.340 -0.7483  0.0001 -0.9809
 3667TIP3   OH232559   3.377   2.301   1.722 -0.0613  0.1199  0.5366
 3667TIP3    H132560   3.316   2.254   1.666  0.9516  0.1965 -0.6828
 3667TIP3    H232561   3.347   2.391   1.721 -0.1400  0.0898  0.2445
 3668TIP3   OH232562   5.652   5.003   7.737  0.0471  0.1578 -0.1935
 3668TIP3    H132563   5.571   5.023   7.784  0.4927 -0.3044  0.8155
 3668TIP3    H232564   5.682   4.920   7.775  0.5841 -0.0863 -1.1069
 3669TIP3   OH232565   4.225   5.346   7.782  0.1855 -0.3137 -0.1442
 3669TIP3    H132566   4.133   5.342   7.755  0.0855 -1.8265  0.3298
 3669TIP3    H232567   4.250   5.437   7.766 -0.9535 -0.2191 -1.6972
 3670TIP3   OH232568   6.015   1.583   0.403 -0.8047  0.1871 -0.1519
 3670TIP3    H132569   6.000   1.531   0.482 -1.6442  0.0635 -0.3855
 3670TIP3    H232570   5.961   1.541   0.336 -0.8036  0.8357 -0.5666
 3671TIP3   OH232571   1.110   3.414   7.771  0.5961  0.4654  0.2576
 3671TIP3    H132572   1.052   3.450   7.703  0.4808  1.6453  0.9519
 3671TIP3    H232573   1.050   3.386   7.840  0.6721 -1.3242 -0.3654
 3672TIP3   OH232574   4.546   6.852   7.581 -0.0928 -0.3935 -0.3208
 3672TIP3    H132575   4.491   6.777   7.560  0.2622 -0.9372  0.6316
 3672TIP3    H232576   4.544   6.906   7.502 -0.8353 -1.1051 -0.8036
 3673TIP3   OH232577   1.441   4.123   7.719  0.4948 -0.0330 -0.1207
 3673TIP3    H132578   1.481   4.179   7.786  1.8067 -0.3451 -0.6124
 3673TIP3    H232579   1.388   4.061   7.768 -0.1014  0.9483  0.5008
 3674TIP3   OH232580   5.324   1.025   8.250 -0.3314 -0.1237 -0.1131
 3674TIP3    H132581   5.260   1.022   8.179  1.8756 -2.5238 -2.1797
 3674TIP3    H232582   5.379   1.101   8.230 -0.6858  0.1560 -0.0365
 3675TIP3   OH232583   1.625   1.144   2.054 -0.0414  0.4821 -0.5619
 3675TIP3    H132584   1.643   1.235   2.078 -0.7915  0.9860 -1.7823
 3675TIP3    H232585   1.574   1.110   2.127 -0.5737  1.3545 -0.5106
 3676TIP3   OH232586   4.406   5.216   2.705 -0.0445 -0.0784  0.3404
 3676TIP3    H132587   4.471   5.164   2.751  1.3479 -0.4095 -1.8171
 3676TIP3    H232588   4.335   5.155   2.684 -0.5132 -0.0048  1.6344
 3677TIP3   OH232589   4.881   5.833   0.335  0.7829  0.4521 -0.2551
 3677TIP3    H132590   4.826   5.911   0.326  0.7943  0.4328 -0.5148
 3677TIP3    H232591   4.882   5.795   0.247 -0.8524 -0.9502  0.2881
 3678TIP3   OH232592   2.558   0.578   3.268 -0.5099 -0.0143 -0.1337
 3678TIP3    H132593   2.542   0.529   3.349 -2.0058  1.0821  0.2650
 3678TIP3    H232594   2.511   0.529   3.201 -1.1274  0.3010  0.0704
 3679TIP3   OH232595   5.636   3.801   0.133  0.5607  0.3268 -0.0068
 3679TIP3    H132596   5.628   3.885   0.177 -2.1330  0.5421 -0.7073
 3679TIP3    H232597   5.647   3.737   0.203  4.0989  1.2947  0.4729
 3680TIP3   OH232598   4.625   2.202   0.896  0.0443  0.1808  0.2066
 3680TIP3    H132599   4.694   2.181   0.959 -0.3653  0.1162  0.6373
 3680TIP3    H232600   4.549   2.152   0.926 -0.0615 -0.1292 -0.5409
 3681TIP3   OH232601   5.525   5.406   7.896  0.4518 -0.6787 -0.0773
 3681TIP3    H132602   5.569   5.354   7.829 -0.6617  0.5136 -1.8252
 3681TIP3    H232603   5.584   5.480   7.911  0.4049 -0.6189 -0.1939
 3682TIP3   OH232604   5.699   5.056   2.263 -0.4603  0.1829  0.0737
 3682TIP3    H132605   5.627   5.115   2.238 -0.7448 -0.1168  0.1861
 3682TIP3    H232606   5.778   5.106   2.244 -0.6808  0.1746 -0.9028
 3683TIP3   OH232607   5.165   3.259   8.163 -0.1644 -0.1354  0.1643
 3683TIP3    H132608   5.176   3.345   8.204  0.3530 -0.1821  0.1285
 3683TIP3    H232609   5.228   3.203   8.208  2.0877  0.3256 -2.1933
 3684TIP3   OH232610   4.488   0.351   1.999 -0.2937 -0.6437 -0.4789
 3684TIP3    H132611   4.573   0.393   2.010  0.1789 -1.8922  1.0542
 3684TIP3    H232612   4.483   0.288   2.071 -2.5191 -0.6152 -0.5294
 3685TIP3   OH232613   7.029   6.473   1.923 -0.6473  0.5143 -0.1613
 3685TIP3    H132614   6.968   6.484   1.996  0.0306 -0.2665  0.5428
 3685TIP3    H232615   6.995   6.530   1.854 -2.3941 -0.2132  0.0640
 3686TIP3   OH232616   6.597   0.645   8.041  0.3789  0.5382 -0.1458
 3686TIP3    H132617   6.642   0.665   7.959 -0.5900  0.2240 -0.7732
 3686TIP3    H232618   6.625   0.557   8.064  2.2457  1.3577  0.9827
 3687TIP3   OH232619   0.721   4.459   2.089 -0.2984 -0.0992  0.2456
 3687TIP3    H132620   0.717   4.384   2.030  0.2353  0.1447 -0.1038
 3687TIP3    H232621   0.815   4.476   2.100 -0.4080  0.2853  0.6202
 3688TIP3   OH232622   2.065   6.033   1.823  0.2815  0.3738 -0.1514
 3688TIP3    H132623   2.031   6.118   1.848  1.4240  0.9426 -0.4483
 3688TIP3    H232624   2.013   6.008   1.747 -1.6129 -0.2878  1.2995
 3689TIP3   OH232625   2.674   0.365   2.596  0.0134 -0.0197  0.3524
 3689TIP3    H132626   2.763   0.372   2.563 -0.3937  2.1526 -0.4950
 3689TIP3    H232627   2.627   0.436   2.552 -1.9546 -0.6289  1.3495
 3690TIP3   OH232628   4.384   6.669   2.474 -0.3158  0.1741  0.7247
 3690TIP3    H132629   4.421   6.600   2.419 -1.9196 -1.6441  1.8172
 3690TIP3    H232630   4.319   6.712   2.417  0.3986  0.5474  0.1722
 3691TIP3   OH232631   1.582   5.592   7.099 -0.2454  0.4251 -0.1694
 3691TIP3    H132632   1.675   5.599   7.075 -0.4839  2.7021 -0.6162
 3691TIP3    H232633   1.560   5.677   7.135 -2.2216 -0.0282 -0.2205
 3692TIP3   OH232634   4.934   6.727   2.503 -0.0549  0.0924 -0.4441
 3692TIP3    H132635   4.868   6.658   2.509 -0.8672  0.8933  0.0159
 3692TIP3    H232636   4.910   6.777   2.425 -1.2499  1.6301  0.8523
 3693TIP3   OH232637   6.502   1.370   1.144 -0.3563 -0.1590 -0.0996
 3693TIP3    H132638   6.589   1.334   1.162  0.4113  1.9573  0.7945
 3693TIP3    H232639   6.499   1.380   1.049 -0.1649 -1.4397 -0.2645
 3694TIP3   OH232640   0.425   3.832   0.877  0.0846 -0.3104 -0.4800
 3694TIP3    H132641   0.339   3.869   0.856  0.3481 -0.9486 -2.9212
 3694TIP3    H232642   0.409   3.739   0.890  0.2919 -0.2887 -0.0360
 3695TIP3   OH232643   0.645   2.915   7.376  0.1923  0.1384  0.2438
 3695TIP3    H132644   0.590   2.842   7.405 -0.2185  0.3425 -0.0082
 3695TIP3    H232645   0.679   2.953   7.457  1.2602 -0.9746  0.3404
 3696TIP3   OH232646   1.445   5.006   2.162 -0.0702  0.0674 -0.2925
 3696TIP3    H132647   1.528   5.023   2.207 -0.2081  0.1905 -0.0791
 3696TIP3    H232648   1.380   5.051   2.216 -0.0177  1.8844 -1.6436
 3697TIP3   OH232649   5.483   1.868   7.859  0.3387 -0.0429  0.0544
 3697TIP3    H132650   5.552   1.850   7.795 -0.0789  1.3514 -0.8422
 3697TIP3    H232651   5.527   1.921   7.926  0.5148 -0.5541  0.3473
 3698TIP3   OH232652   5.708   3.443   2.570  0.4733  0.1062 -0.0950
 3698TIP3    H132653   5.655   3.415   2.496 -0.2538  0.9251  0.1019
 3698TIP3    H232654   5.743   3.362   2.607  0.9469 -0.3083 -1.3977
 3699TIP3   OH232655   2.477   2.941   2.102  0.1102 -0.9245  0.0726
 3699TIP3    H132656   2.475   2.958   2.008 -2.5897  2.6860  0.5661
 3699TIP3    H232657   2.551   2.992   2.134 -1.0518  0.7457  0.2141
 3700TIP3   OH232658   7.039   2.231   8.036 -0.5732 -0.4424 -0.2218
 3700TIP3    H132659   6.966   2.278   7.995  0.6117  0.1978 -1.7091
 3700TIP3    H232660   7.008   2.141   8.046 -1.2375 -0.4116 -1.7525
 3701TIP3   OH232661   3.261   2.295   7.879  0.1237 -0.0236 -0.2722
 3701TIP3    H132662   3.350   2.279   7.845  0.2848  0.3294 -0.0241
 3701TIP3    H232663   3.207   2.301   7.801  0.3441 -0.0952 -0.4337
 3702TIP3   OH232664   3.578   0.840   3.052  0.2883 -0.0599  0.1152
 3702TIP3    H132665   3.613   0.924   3.083 -1.3824  0.5843  0.3933
 3702TIP3    H232666   3.565   0.788   3.131  1.9278 -0.8711 -0.1089
 3703TIP3   OH232667   4.305   5.604   7.782 -0.0940  0.1326  0.4510
 3703TIP3    H132668   4.278   5.650   7.862  0.6683 -0.2913  0.9658
 3703TIP3    H232669   4.248   5.640   7.714 -0.7974  0.4689  1.1881
 3704TIP3   OH232670   5.737   5.340   2.081  0.0389  0.1896 -0.5067
 3704TIP3    H132671   5.690   5.382   2.153  0.1947 -0.4250 -0.0337
 3704TIP3    H232672   5.671   5.287   2.037  0.0347  0.2260 -0.5441
 3705TIP3   OH232673   1.371   5.625   8.036 -0.3946 -0.0384 -0.5083
 3705TIP3    H132674   1.336   5.627   7.946 -1.4193 -1.1648 -0.1542
 3705TIP3    H232675   1.343   5.541   8.071  1.1927 -0.2081  0.4216
 3706TIP3   OH232676   3.938   2.414   1.711 -0.0670 -0.0786  0.5919
 3706TIP3    H132677   3.933   2.323   1.741  1.8295 -0.4021  0.0591
 3706TIP3    H232678   3.965   2.463   1.788  0.0440 -0.1541  0.6021
 3707TIP3   OH232679   2.987   3.663   7.259  0.2293 -0.0036  0.5654
 3707TIP3    H132680   2.896   3.685   7.241 -0.0425 -0.5394  1.2185
 3707TIP3    H232681   3.035   3.745   7.250 -0.3343  0.3042  0.3514
 3708TIP3   OH232682   6.570   5.908   0.312 -0.1173 -0.1482  0.4738
 3708TIP3    H132683   6.642   5.896   0.250 -1.6605  0.1511 -1.4840
 3708TIP3    H232684   6.588   5.992   0.354 -0.0850  0.6725 -1.1204
 3709TIP3   OH232685   1.763   3.741   2.449  0.0397  0.1736 -0.0151
 3709TIP3    H132686   1.716   3.817   2.416  0.8148  0.1996 -1.1082
 3709TIP3    H232687   1.855   3.759   2.430  0.4185 -0.2605  1.2997
 3710TIP3   OH232688   3.848   3.427   0.365 -0.1601 -0.0021 -0.2124
 3710TIP3    H132689   3.871   3.396   0.277 -0.3226 -1.5208  0.2488
 3710TIP3    H232690   3.755   3.408   0.374 -0.2461  0.5542  0.1413
 3711TIP3   OH232691   3.751   4.449   1.584  0.2362  0.1349  0.1499
 3711TIP3    H132692   3.675   4.489   1.626 -0.3116  0.1216 -0.7909
 3711TIP3    H232693   3.739   4.355   1.598 -1.7819 -0.2084 -2.8151
 3712TIP3   OH232694   6.550   2.084   1.682  0.3768 -0.3666  0.3403
 3712TIP3    H132695   6.467   2.084   1.729  0.8656 -0.2045  1.2294
 3712TIP3    H232696   6.617   2.088   1.751  1.1899 -2.2523 -0.2474
 3713TIP3   OH232697   0.716   5.156   0.676  0.0912 -0.8283  0.2840
 3713TIP3    H132698   0.627   5.137   0.706  0.1827 -0.6557  0.6678
 3713TIP3    H232699   0.752   5.213   0.743  0.0196  0.2497 -0.5684
 3714TIP3   OH232700   3.969   4.312   1.970  0.4635 -0.1828 -0.1336
 3714TIP3    H132701   3.922   4.229   1.965  1.1387 -0.6035  0.4106
 3714TIP3    H232702   4.031   4.309   1.897 -0.0778  0.2085 -0.6197
 3715TIP3   OH232703   5.191   4.697   7.820  0.0321  0.1671 -0.0634
 3715TIP3    H132704   5.121   4.651   7.775  0.3663  0.0207 -0.4441
 3715TIP3    H232705   5.248   4.627   7.853 -0.3895  0.2625  0.8815
 3716TIP3   OH232706   5.228   6.178   1.622  0.7699  0.5674 -0.1559
 3716TIP3    H132707   5.197   6.114   1.557  0.9850 -0.3497  0.6321
 3716TIP3    H232708   5.296   6.227   1.576  3.7792 -2.6197  0.4412
 3717TIP3   OH232709   3.445   2.733   3.760 -0.4978 -0.5103 -0.5622
 3717TIP3    H132710   3.429   2.659   3.819 -0.7692 -0.5562 -0.6917
 3717TIP3    H232711   3.382   2.721   3.689 -0.0553 -0.5469 -0.9497
 3718TIP3   OH232712   3.857   2.177   0.847  0.2401 -0.3052  0.4577
 3718TIP3    H132713   3.921   2.126   0.797  0.4156 -0.3021  0.6766
 3718TIP3    H232714   3.898   2.263   0.858 -1.1449  0.8130 -2.2156
 3719TIP3   OH232715   5.059   3.268   7.534  0.6636  0.0270 -0.1684
 3719TIP3    H132716   4.984   3.281   7.476 -0.0120 -0.1817  0.6438
 3719TIP3    H232717   5.088   3.178   7.516 -0.3145 -0.4788  0.6706
 3720TIP3   OH232718   6.088   0.244   7.522 -0.5606 -0.0513 -0.1268
 3720TIP3    H132719   6.141   0.237   7.443  0.8392  0.9106  0.6849
 3720TIP3    H232720   6.070   0.338   7.531 -0.6326 -0.1374  0.7411
 3721TIP3   OH232721   5.568   3.452   3.937 -0.7346  0.0631  0.0669
 3721TIP3    H132722   5.489   3.453   3.990 -0.2525  0.7329  0.7951
 3721TIP3    H232723   5.603   3.540   3.944  0.8025 -0.5635  0.8756
 3722TIP3   OH232724   1.705   4.292   0.683  0.2750  0.0032  0.0861
 3722TIP3    H132725   1.642   4.224   0.707 -0.1904  0.7450  1.0257
 3722TIP3    H232726   1.785   4.269   0.730  1.0072 -1.3990 -1.7512
 3723TIP3   OH232727   1.198   2.836   1.771 -0.0393  0.1400  0.5117
 3723TIP3    H132728   1.284   2.874   1.787  0.9938 -1.9853  0.2967
 3723TIP3    H232729   1.153   2.901   1.718  1.1553  1.6077  1.2206
 3724TIP3   OH232730   1.574   0.028   0.388 -0.0678 -0.1105 -0.2750
 3724TIP3    H132731   1.540   0.095   0.449  1.6222  0.8321 -0.3063
 3724TIP3    H232732   1.647  -0.011   0.435 -0.6813 -1.5839 -0.4997
 3725TIP3   OH232733   5.227   2.414   7.718 -0.4839 -0.1797 -0.0126
 3725TIP3    H132734   5.260   2.437   7.805 -1.9285 -0.0736  0.5386
 3725TIP3    H232735   5.180   2.491   7.688 -0.8712 -0.5722 -0.4469
 3726TIP3   OH232736   3.854   1.143   3.142  0.3624  0.0950 -0.5414
 3726TIP3    H132737   3.879   1.133   3.051  0.2919 -1.9176 -0.3753
 3726TIP3    H232738   3.899   1.072   3.188 -1.3855 -0.3391  0.6139
 3727TIP3   OH232739   6.102   2.891   1.331 -0.1007 -0.2167 -0.1314
 3727TIP3    H132740   6.162   2.910   1.260 -0.7051  0.7567 -0.3999
 3727TIP3    H232741   6.134   2.809   1.369  1.1985  0.1220 -0.4598
 3728TIP3   OH232742   2.845   2.654   3.523  0.1749  0.4700  0.0556
 3728TIP3    H132743   2.921   2.706   3.550  0.0667 -0.4255  2.3094
 3728TIP3    H232744   2.772   2.716   3.524  0.6982  1.1728 -1.4240
 3729TIP3   OH232745   6.268   4.217   0.333  0.4930 -0.3972  0.3619
 3729TIP3    H132746   6.287   4.306   0.362  0.6198 -0.0003 -0.8933
 3729TIP3    H232747   6.177   4.219   0.306  0.6682 -0.4777 -0.2551
 3730TIP3   OH232748   3.034   3.165   0.113 -0.1373  0.0627  0.0607
 3730TIP3    H132749   3.038   3.192   0.021  1.7540  0.1126  0.1222
 3730TIP3    H232750   3.072   3.238   0.161 -2.4086  0.6538  1.0755
 3731TIP3   OH232751   4.144   1.241   3.218  0.3589  0.4835  0.0205
 3731TIP3    H132752   4.053   1.217   3.235 -0.0730  2.4143  0.6132
 3731TIP3    H232753   4.178   1.268   3.303  2.1602 -2.0957  0.2571
 3732TIP3   OH232754   5.639   0.033   7.558  0.0042  0.2709  0.6098
 3732TIP3    H132755   5.570   0.091   7.589 -0.3481  0.2034 -0.0242
 3732TIP3    H232756   5.681  -0.000   7.638 -1.4309 -0.5642  1.0543
 3733TIP3   OH232757   6.726   6.421   1.599  0.3550 -0.0360 -0.8009
 3733TIP3    H132758   6.796   6.437   1.663  0.1535 -1.0125 -0.3205
 3733TIP3    H232759   6.645   6.431   1.649  0.2070 -2.6815 -0.3851
 3734TIP3   OH232760   5.288   3.026   0.762  0.1935 -0.0302  0.1766
 3734TIP3    H132761   5.287   3.120   0.781 -0.4062  0.3525 -1.5487
 3734TIP3    H232762   5.314   3.021   0.670  0.5238 -1.5805  0.3378
 3735TIP3   OH232763   3.804   0.315   2.029 -0.3815 -0.2060  0.5019
 3735TIP3    H132764   3.790   0.248   2.096 -2.7707  0.6725  0.9860
 3735TIP3    H232765   3.809   0.398   2.077 -2.6902  0.5061 -0.3462
 3736TIP3   OH232766   0.804   5.404   0.405 -0.5721  0.0830 -0.2583
 3736TIP3    H132767   0.758   5.473   0.356 -1.4400 -0.5634 -0.3823
 3736TIP3    H232768   0.823   5.444   0.490 -0.5618  0.6615 -0.5259
 3737TIP3   OH232769   1.046   3.924   2.221 -0.7857  0.0583 -0.1464
 3737TIP3    H132770   1.135   3.925   2.188 -0.4745  0.1108  0.6688
 3737TIP3    H232771   1.004   3.852   2.174 -1.5475  2.4735 -3.5801
 3738TIP3   OH232772   2.681   0.001   3.033 -0.0400 -0.2183 -0.0191
 3738TIP3    H132773   2.646   0.022   2.947  0.1086 -1.8287 -0.4971
 3738TIP3    H232774   2.619   0.042   3.094 -0.8044 -0.0678 -0.8789
 3739TIP3   OH232775   0.493   6.674   1.085  0.8167  0.3272  0.5139
 3739TIP3    H132776   0.402   6.644   1.091  1.7242 -3.0750 -0.3820
 3739TIP3    H232777   0.522   6.680   1.175 -0.0502  0.6121  0.7892
 3740TIP3   OH232778   2.979   1.005   0.297 -0.4460 -0.2267 -0.3943
 3740TIP3    H132779   3.040   1.043   0.234 -1.2702  1.3211 -0.2984
 3740TIP3    H232780   2.950   1.079   0.350 -0.6345 -1.3206  1.0785
 3741TIP3   OH232781   4.178   0.329   0.581 -0.2870 -0.1510  0.4132
 3741TIP3    H132782   4.223   0.410   0.558 -0.1692 -0.3218  0.0205
 3741TIP3    H232783   4.088   0.354   0.597 -0.3252  0.0086 -0.0463
 3742TIP3   OH232784   5.154   6.629   7.683 -0.4564 -0.1238  0.1885
 3742TIP3    H132785   5.172   6.637   7.590  0.0913 -1.1622  0.1845
 3742TIP3    H232786   5.084   6.564   7.689 -2.8738  2.2963  0.3415
 3743TIP3   OH232787   1.544   2.121   1.213 -0.1484  0.2370 -0.8661
 3743TIP3    H132788   1.499   2.091   1.292  1.4949  2.3611  1.0480
 3743TIP3    H232789   1.617   2.059   1.203  0.0971  0.4094 -0.2131
 3744TIP3   OH232790   4.932   5.968   0.996 -0.0398 -0.4655  0.1694
 3744TIP3    H132791   5.011   5.926   0.962  0.1915 -2.6714  3.0949
 3744TIP3    H232792   4.877   5.896   1.026 -2.3279  1.1240  0.0102
 3745TIP3   OH232793   2.456   2.541   7.898  0.3543 -0.0876 -0.1007
 3745TIP3    H132794   2.367   2.517   7.872  0.4653 -0.1723 -0.4129
 3745TIP3    H232795   2.508   2.527   7.819  0.4102  1.2789 -0.3388
 3746TIP3   OH232796   2.542   2.999   0.859  0.1474  0.5660  0.3067
 3746TIP3    H132797   2.505   2.917   0.824 -1.5789  1.6029 -0.4319
 3746TIP3    H232798   2.625   3.010   0.813 -0.2221 -0.1090 -0.5451
 3747TIP3   OH232799   4.511   2.846   7.311  0.3630  0.4111  0.0872
 3747TIP3    H132800   4.520   2.875   7.220  1.3294 -1.6222 -0.5287
 3747TIP3    H232801   4.466   2.762   7.305 -2.1502  1.5227  1.7709
 3748TIP3   OH232802   5.822   3.460   0.521 -0.0831 -0.6104 -0.6674
 3748TIP3    H132803   5.904   3.510   0.514 -1.3048  1.2848 -3.2306
 3748TIP3    H232804   5.784   3.488   0.604  0.7969  0.2666 -0.5425
 3749TIP3   OH232805   6.960   6.882   0.638 -0.4979 -0.5028  0.4013
 3749TIP3    H132806   6.865   6.879   0.621 -0.2576 -1.4805 -0.9646
 3749TIP3    H232807   6.986   6.969   0.609 -1.0056 -0.1448  0.9879
 3750TIP3   OH232808   3.991   0.074   0.589 -0.1666  0.2791 -0.1789
 3750TIP3    H132809   4.022   0.164   0.593 -0.6764  0.5776 -1.7870
 3750TIP3    H232810   3.959   0.064   0.499  0.8175 -1.8228 -0.3755
 3751TIP3   OH232811   2.255   1.582   2.433 -0.0031  0.1982 -0.1075
 3751TIP3    H132812   2.289   1.498   2.463  0.3308  0.0933 -0.7534
 3751TIP3    H232813   2.204   1.561   2.355  0.3705  0.6246 -0.4788
 3752TIP3   OH232814   2.046   0.234   8.168 -0.7463  0.0224 -0.6423
 3752TIP3    H132815   1.972   0.288   8.198 -0.2416  0.0454  0.6529
 3752TIP3    H232816   2.006   0.153   8.136 -1.3671  0.2487 -0.4453
 3753TIP3   OH232817   5.538   1.060   7.348 -0.0432  0.2552 -0.2028
 3753TIP3    H132818   5.473   1.104   7.402  0.1465 -0.0338  0.2688
 3753TIP3    H232819   5.523   1.093   7.259  0.6003  1.8562  0.2574
 3754TIP3   OH232820   4.335   2.369   3.547  0.0049  0.1383  0.4392
 3754TIP3    H132821   4.264   2.415   3.592  0.8140  1.6017  0.2720
 3754TIP3    H232822   4.321   2.390   3.455  0.3294 -0.0489  0.3492
 3755TIP3   OH232823   5.462   2.519   1.619  0.4838 -0.1672 -0.9549
 3755TIP3    H132824   5.518   2.559   1.552 -1.8349 -0.5755 -3.3199
 3755TIP3    H232825   5.521   2.461   1.668  3.1363  3.0728  0.0833
 3756TIP3   OH232826   5.398   1.323   0.304  0.5132 -0.5064 -0.1831
 3756TIP3    H132827   5.313   1.331   0.261 -0.2160 -0.0890  1.2553
 3756TIP3    H232828   5.457   1.374   0.249 -0.6501  1.0791 -0.0524
 3757TIP3   OH232829   4.837   5.505   2.296 -0.1552 -0.6420  0.2240
 3757TIP3    H132830   4.896   5.543   2.231 -1.2339 -1.0110 -0.9923
 3757TIP3    H232831   4.847   5.562   2.372  2.4375 -1.2001  0.4233
 3758TIP3   OH232832   0.076   2.052   3.049  0.1967 -0.0072  0.0430
 3758TIP3    H132833   0.116   2.122   3.100  0.7704  0.2301 -0.7160
 3758TIP3    H232834   0.112   1.972   3.085  2.2005  0.2244 -1.2649
 3759TIP3   OH232835   6.427   2.539   3.320  0.0992 -0.1845  0.2444
 3759TIP3    H132836   6.521   2.548   3.307 -0.0804  0.2965 -0.8112
 3759TIP3    H232837   6.408   2.594   3.396  0.4252  1.1041 -0.5764
 3760TIP3   OH232838   5.127   5.719   2.725  0.0637 -0.0178  0.1005
 3760TIP3    H132839   5.110   5.730   2.819  1.7223  2.7828  0.1780
 3760TIP3    H232840   5.205   5.771   2.708 -1.0566  0.8764 -3.1137
 3761TIP3   OH232841   0.352   4.892   2.838  0.1597  0.0258 -0.5722
 3761TIP3    H132842   0.339   4.797   2.844 -2.7243  0.1764 -2.2920
 3761TIP3    H232843   0.330   4.925   2.925  0.5695 -0.8328 -0.1294
 3762TIP3   OH232844   1.442   6.725   0.544  0.8237 -0.5708 -0.8142
 3762TIP3    H132845   1.390   6.800   0.518  2.0428 -0.3129 -2.6605
 3762TIP3    H232846   1.533   6.754   0.537  1.2971 -1.4132  1.0414
 3763TIP3   OH232847   6.870   4.412   1.693  0.0351 -0.0667 -0.7281
 3763TIP3    H132848   6.919   4.353   1.751  0.9546 -0.0018 -1.4128
 3763TIP3    H232849   6.784   4.371   1.685 -0.2741  0.1773  1.0457
 3764TIP3   OH232850   5.308   2.342   2.649 -0.1781 -0.1470 -0.1099
 3764TIP3    H132851   5.302   2.436   2.630  0.3995 -0.2410 -0.8237
 3764TIP3    H232852   5.255   2.330   2.728  0.1579  0.8594  0.2893
 3765TIP3   OH232853   0.912   2.070   2.470  0.1380  0.2920  0.6311
 3765TIP3    H132854   0.818   2.054   2.463  0.2422  0.0993 -0.6830
 3765TIP3    H232855   0.931   2.065   2.563 -1.0299 -0.3875  0.8489
 3766TIP3   OH232856   4.475   5.078   2.301 -0.0059  1.0005 -0.3157
 3766TIP3    H132857   4.484   5.071   2.206  1.0919  1.4754 -0.2640
 3766TIP3    H232858   4.418   5.005   2.325  1.9960 -0.9316 -1.0163
 3767TIP3   OH232859   3.575   4.921   1.502 -0.0355 -0.2385 -0.0262
 3767TIP3    H132860   3.480   4.917   1.509  0.0665 -1.6027  1.1337
 3767TIP3    H232861   3.592   4.976   1.426 -1.7784 -1.4101 -1.3382
 3768TIP3   OH232862   5.509   3.766   0.774  0.2640  0.0731  0.3860
 3768TIP3    H132863   5.532   3.804   0.689  2.5834 -0.3427  0.7611
 3768TIP3    H232864   5.481   3.841   0.827 -2.9413  0.1374 -1.1665
 3769TIP3   OH232865   3.747   5.613   7.571  0.3818 -0.3080 -0.1046
 3769TIP3    H132866   3.802   5.654   7.638  0.7937 -3.0734  1.4000
 3769TIP3    H232867   3.663   5.657   7.580  0.8820  0.4590  1.1891
 3770TIP3   OH232868   1.095   1.755   1.496 -0.5819 -0.0310 -0.6165
 3770TIP3    H132869   1.092   1.773   1.402  1.6499  2.1721 -0.3701
 3770TIP3    H232870   1.014   1.795   1.531 -1.3772 -0.7817 -1.5485
 3771TIP3   OH232871   2.500   6.555   7.660  0.0855  0.7018 -0.0747
 3771TIP3    H132872   2.460   6.541   7.746 -0.7153 -0.7846 -0.6449
 3771TIP3    H232873   2.453   6.630   7.624 -0.7699  0.2838  0.1263
 3772TIP3   OH232874   5.553   6.436   0.419  0.0660 -0.3966 -0.0368
 3772TIP3    H132875   5.481   6.374   0.425  0.2558 -0.5079  2.2880
 3772TIP3    H232876   5.632   6.382   0.420  0.2264 -0.1884  1.7668
 3773TIP3   OH232877   1.707   1.574   0.319 -0.0559  0.0716  0.5360
 3773TIP3    H132878   1.793   1.608   0.293 -0.7292  1.1056 -0.4165
 3773TIP3    H232879   1.644   1.627   0.270 -1.2228 -1.4876  0.2782
 3774TIP3   OH232880   6.500   4.158   2.678  0.6109 -0.4189 -0.4756
 3774TIP3    H132881   6.467   4.102   2.748  1.1669 -0.4647 -0.2413
 3774TIP3    H232882   6.478   4.247   2.706  2.1125 -0.3215  0.4867
 3775TIP3   OH232883   5.327   6.017   0.180 -0.5380  0.2199 -0.2658
 3775TIP3    H132884   5.250   6.016   0.237 -1.3756 -1.9673 -1.3100
 3775TIP3    H232885   5.318   6.098   0.129 -0.8339  1.1914  1.2541
 3776TIP3   OH232886   4.818   1.550   2.663 -0.5085  0.6578  0.1778
 3776TIP3    H132887   4.770   1.579   2.741 -0.2320  0.7541  0.3150
 3776TIP3    H232888   4.770   1.587   2.590  0.3735  2.2865  0.3836
 3777TIP3   OH232889   5.505   4.723   0.252  0.3577  0.2519  0.4147
 3777TIP3    H132890   5.418   4.748   0.284  0.8577  0.9845  1.2366
 3777TIP3    H232891   5.510   4.629   0.269  0.2428  0.4486  1.6427
 3778TIP3   OH232892   1.972   0.665   7.576 -0.1869  0.3894 -0.3431
 3778TIP3    H132893   1.968   0.642   7.483 -0.6137  1.8225 -0.6978
 3778TIP3    H232894   1.888   0.638   7.612  0.0945 -0.4512 -0.2815
 3779TIP3   OH232895   0.104   3.865   2.985  0.1460 -0.3080  0.0190
 3779TIP3    H132896   0.035   3.809   2.950 -1.0603  0.4561  1.0997
 3779TIP3    H232897   0.057   3.939   3.024  1.6497  1.0413 -0.6334
 3780TIP3   OH232898   0.902   1.604   3.151  0.3935  0.1923 -0.2880
 3780TIP3    H132899   0.845   1.551   3.208 -0.6068 -0.0689 -1.4875
 3780TIP3    H232900   0.974   1.631   3.208  1.2148 -2.8099  0.3016
 3781TIP3   OH232901   0.923   4.044   2.556 -0.0504 -0.2444 -0.0715
 3781TIP3    H132902   0.953   4.095   2.481  0.1033  0.0608  0.1926
 3781TIP3    H232903   0.875   4.106   2.610  1.1487 -0.0636  0.8533
 3782TIP3   OH232904   5.452   0.806   7.840  0.0293 -0.7700 -0.3393
 3782TIP3    H132905   5.398   0.877   7.805  1.9493  1.4888  0.9639
 3782TIP3    H232906   5.410   0.781   7.922  0.5495  0.5086  0.3402
 3783TIP3   OH232907   6.452   0.095   0.248 -0.5039 -0.0844  0.0342
 3783TIP3    H132908   6.380   0.137   0.295 -0.6912 -1.7861  1.3172
 3783TIP3    H232909   6.410   0.029   0.194 -0.2764  1.7098 -2.5271
 3784TIP3   OH232910   0.434   2.417   0.515 -0.6298  0.0248 -0.5327
 3784TIP3    H132911   0.383   2.498   0.514  0.0125  0.4503 -0.1698
 3784TIP3    H232912   0.380   2.353   0.470 -0.8512  0.8442 -1.4580
 3785TIP3   OH232913   2.603   1.420   0.236  0.3078 -0.3444 -0.3457
 3785TIP3    H132914   2.550   1.482   0.185 -0.5294 -0.1170  0.7665
 3785TIP3    H232915   2.620   1.348   0.175 -1.5922 -0.5879 -0.6612
 3786TIP3   OH232916   3.146   1.185   0.192  0.8857 -0.3566  0.2465
 3786TIP3    H132917   3.087   1.215   0.123 -0.6865 -2.9767  0.3197
 3786TIP3    H232918   3.214   1.137   0.145  0.8109 -0.6225  0.4116
 3787TIP3   OH232919   0.143   1.756   1.419  0.0738  0.2118  0.3516
 3787TIP3    H132920   0.119   1.830   1.365 -1.7888 -2.1504 -2.3574
 3787TIP3    H232921   0.060   1.718   1.447  0.8772 -1.8281  0.1827
 3788TIP3   OH232922   1.746   1.546   0.885  0.7007  0.6291  0.3789
 3788TIP3    H132923   1.741   1.596   0.804 -0.1905 -0.3008 -0.1611
 3788TIP3    H232924   1.655   1.536   0.913  0.7426 -1.5728 -0.1093
 3789TIP3   OH232925   4.120   4.795   3.080  0.0174 -0.0569  0.3737
 3789TIP3    H132926   4.189   4.729   3.074 -0.8723 -1.0717  0.9213
 3789TIP3    H232927   4.089   4.804   2.990  0.6565  0.1799  0.1740
 3790TIP3   OH232928   6.166   6.549   0.406 -0.2504 -0.5006 -0.2889
 3790TIP3    H132929   6.141   6.506   0.325 -0.3780 -3.1207  1.0375
 3790TIP3    H232930   6.181   6.478   0.468  1.4629  1.3127  1.5680
 3791TIP3   OH232931   0.880   1.121   0.618  0.3435 -0.1237  0.4500
 3791TIP3    H132932   0.941   1.074   0.676 -2.5308 -2.0982  2.1205
 3791TIP3    H232933   0.843   1.190   0.674 -1.4091 -1.1288  0.5741
 3792TIP3   OH232934   2.186   0.582   2.033 -0.3330  0.6485  0.6424
 3792TIP3    H132935   2.276   0.579   1.999 -0.1842  2.1508  0.8415
 3792TIP3    H232936   2.146   0.501   2.000  0.3989  1.0627 -1.4292
 3793TIP3   OH232937   3.285   0.233   8.112 -0.2156  0.6127 -0.1503
 3793TIP3    H132938   3.216   0.246   8.047 -1.3093  1.1514  1.0728
 3793TIP3    H232939   3.298   0.319   8.151  3.0209  1.1615 -2.0646
 3794TIP3   OH232940   5.777   6.290   2.047 -0.2863  0.0017 -0.6667
 3794TIP3    H132941   5.735   6.264   2.130 -0.6925  0.9735 -0.5548
 3794TIP3    H232942   5.863   6.249   2.050  1.2286  2.9572  1.9698
 3795TIP3   OH232943   3.471   4.216   0.665 -0.4948  0.1957  0.0296
 3795TIP3    H132944   3.393   4.263   0.635 -0.6414  0.7242  1.2012
 3795TIP3    H232945   3.450   4.188   0.754 -0.4761 -2.2783 -0.6800
 3796TIP3   OH232946   6.734   0.621   3.015  0.1813  0.1057  0.5707
 3796TIP3    H132947   6.801   0.564   2.977 -0.4703  0.3031 -0.9536
 3796TIP3    H232948   6.661   0.563   3.034  0.2325  0.1244  0.8207
 3797TIP3   OH232949   3.941   4.721   0.783 -0.8418 -0.6569  0.4338
 3797TIP3    H132950   3.881   4.753   0.851 -1.1941 -0.7464  0.1695
 3797TIP3    H232951   4.015   4.685   0.831  0.0349  1.4208  0.7461
 3798TIP3   OH232952   4.476   4.593   0.779  0.1836 -0.8237  0.2942
 3798TIP3    H132953   4.450   4.569   0.867 -1.2493 -0.1079  0.0929
 3798TIP3    H232954   4.503   4.685   0.785  0.7364 -0.9643  0.1029
 3799TIP3   OH232955   0.185   6.108   8.049  0.1333 -0.3951  0.0803
 3799TIP3    H132956   0.096   6.120   8.015  0.3388  1.0706  0.0149
 3799TIP3    H232957   0.190   6.166   8.125  0.8767 -0.8610  0.3999
 3800TIP3   OH232958   1.058   6.883   0.656 -0.3276  1.2245 -0.9066
 3800TIP3    H132959   0.997   6.947   0.692 -1.6069 -0.8819  0.9461
 3800TIP3    H232960   1.116   6.862   0.728 -0.9312 -0.8125 -0.9622
 3801TIP3   OH232961   4.481   3.980   7.593  0.2546 -0.0362 -0.3034
 3801TIP3    H132962   4.512   4.064   7.558 -0.0081  0.5247  0.7741
 3801TIP3    H232963   4.461   3.927   7.516  2.9337 -0.0739 -1.0674
 3802TIP3   OH232964   6.759   4.390   3.306 -0.5082  0.2963  0.4942
 3802TIP3    H132965   6.668   4.392   3.335 -0.8469  0.1118 -0.5048
 3802TIP3    H232966   6.777   4.479   3.277 -1.1536 -0.1980 -1.5522
 3803TIP3   OH232967   5.023   2.354   1.405 -0.0555 -0.3917 -0.7089
 3803TIP3    H132968   5.089   2.297   1.446  0.4869  0.2689 -0.6523
 3803TIP3    H232969   4.972   2.389   1.477  0.1136 -0.1902 -0.6872
 3804TIP3   OH232970   6.010   4.036   1.014 -0.8791  0.3460  0.0578
 3804TIP3    H132971   6.045   3.977   0.947 -1.6781 -0.0064 -0.0671
 3804TIP3    H232972   5.981   4.113   0.965  1.1467  1.3457  0.3395
 3805TIP3   OH232973   4.211   1.119   0.431  0.4110  0.4772 -0.2787
 3805TIP3    H132974   4.187   1.059   0.502  0.3531  1.1284  0.2553
 3805TIP3    H232975   4.304   1.100   0.415  0.4878  0.5039  0.1363
 3806TIP3   OH232976   3.331   2.543   0.281 -0.2813 -0.0004 -0.4576
 3806TIP3    H132977   3.416   2.522   0.244  0.5811  1.7269  0.4181
 3806TIP3    H232978   3.324   2.639   0.274 -3.5088 -0.2576 -3.3055
 3807TIP3   OH232979   3.512   5.896   2.375  0.2687  0.5997  0.3487
 3807TIP3    H132980   3.477   5.832   2.438  0.2212  0.7030  0.4278
 3807TIP3    H232981   3.607   5.890   2.386  0.2781  0.3167  0.1317
 3808TIP3   OH232982   6.192   1.538   8.015 -0.1382 -0.7895 -0.0210
 3808TIP3    H132983   6.200   1.446   8.040 -0.0590 -0.8929 -0.4237
 3808TIP3    H232984   6.150   1.579   8.091 -3.5921 -1.8331 -1.1721
 3809TIP3   OH232985   2.637   1.932   0.082  0.2329  0.0444  0.4200
 3809TIP3    H132986   2.609   2.014   0.122  0.8629  1.4262 -1.8016
 3809TIP3    H232987   2.716   1.955   0.032 -0.6358 -1.4455 -1.8020
 3810TIP3   OH232988   4.553   3.953   2.686 -0.1763 -0.0823 -0.4992
 3810TIP3    H132989   4.472   3.933   2.639 -0.3926 -3.3531  1.0240
 3810TIP3    H232990   4.622   3.914   2.633 -0.0508 -0.7293  0.1248
 3811TIP3   OH232991   6.311   2.978   2.512  0.1841 -0.8866 -0.0774
 3811TIP3    H132992   6.291   2.914   2.443 -1.8728 -0.0485 -0.3050
 3811TIP3    H232993   6.394   2.947   2.549  0.9341 -1.8392 -2.3536
 3812TIP3   OH232994   0.474   1.748   0.799  0.3923 -0.8464 -0.5622
 3812TIP3    H132995   0.491   1.827   0.851 -0.5939 -0.5069 -0.7440
 3812TIP3    H232996   0.379   1.746   0.788  0.4320 -1.9074 -0.8146
 3813TIP3   OH232997   6.806   4.308   2.549  0.4155  0.2720 -0.3095
 3813TIP3    H132998   6.770   4.219   2.548 -1.3687  0.8806  1.6265
 3813TIP3    H232999   6.750   4.357   2.488  1.7491 -0.0099 -1.8061
 3814TIP3   OH233000   6.716   5.886   1.372 -0.6242  0.4099 -0.0016
 3814TIP3    H133001   6.812   5.883   1.378 -0.6641 -0.4256  0.4705
 3814TIP3    H233002   6.696   5.976   1.346  0.3294  0.3473 -1.0071
 3815TIP3   OH233003   5.279   6.397   2.819  0.9681  0.5113  1.3189
 3815TIP3    H133004   5.290   6.302   2.826  1.1926  0.5991  2.2953
 3815TIP3    H233005   5.188   6.408   2.792  1.7901 -0.0630 -2.2127
 3816TIP3   OH233006   5.496   3.778   3.280  0.3982 -0.3774  0.1639
 3816TIP3    H133007   5.538   3.769   3.366 -0.5206 -0.9218  0.5683
 3816TIP3    H233008   5.432   3.849   3.292 -0.0894 -0.7999  0.0785
 3817TIP3   OH233009   6.803   3.486   0.857 -0.4724 -0.0478  0.3822
 3817TIP3    H133010   6.790   3.471   0.950 -0.4086  0.1752  0.4271
 3817TIP3    H233011   6.857   3.566   0.852  0.5994 -0.7556  0.1984
 3818TIP3   OH233012   4.386   5.440   2.409 -0.4654  0.2587  0.6189
 3818TIP3    H133013   4.353   5.527   2.387 -3.0475 -0.8584 -0.2853
 3818TIP3    H233014   4.434   5.412   2.331 -0.9846  0.2499  0.3027
 3819TIP3   OH233015   1.578   6.960   1.285 -0.0677  0.6099  0.4023
 3819TIP3    H133016   1.567   7.024   1.356 -0.7113 -0.5701  1.4095
 3819TIP3    H233017   1.618   7.010   1.214 -1.0678  2.2737  0.9387
 3820TIP3   OH233018   4.606   6.481   0.948 -0.2408 -0.1075  0.0515
 3820TIP3    H133019   4.606   6.568   0.909  2.5466 -0.0851 -0.1045
 3820TIP3    H233020   4.564   6.425   0.882 -1.0990  0.9225 -0.2996
 3821TIP3   OH233021   6.476   6.788   0.400  0.0876 -0.0230 -0.1298
 3821TIP3    H133022   6.549   6.745   0.355 -0.0525 -0.5554  0.1500
 3821TIP3    H233023   6.464   6.738   0.481  1.2525  1.7520  1.2092
 3822TIP3   OH233024   6.107   2.651   0.711  0.6089  0.4406 -0.5348
 3822TIP3    H133025   6.083   2.660   0.619  0.3277 -1.0917 -0.6388
 3822TIP3    H233026   6.028   2.618   0.753  0.6844  1.2830  0.3033
 3823TIP3   OH233027   1.376   2.937   2.522  0.2532  0.5473  0.6396
 3823TIP3    H133028   1.470   2.931   2.540  0.3659  0.3029 -0.0059
 3823TIP3    H233029   1.348   2.846   2.513 -0.2363  0.5718  1.7274
 3824TIP3   OH233030   0.746   4.356   1.085 -0.0995 -0.0254  0.0158
 3824TIP3    H133031   0.756   4.370   0.991  1.5606 -0.8881  0.0249
 3824TIP3    H233032   0.834   4.335   1.116 -0.6420  0.0363  1.7404
 3825TIP3   OH233033   3.881   5.190   7.034  0.1616 -0.6557 -0.0839
 3825TIP3    H133034   3.970   5.180   7.068 -0.5406 -0.0612  2.0880
 3825TIP3    H233035   3.824   5.162   7.106 -1.4264 -1.5370 -1.6193
 3826TIP3   OH233036   6.768   4.437   7.460  0.4775 -0.5664  0.2314
 3826TIP3    H133037   6.677   4.419   7.437 -0.2370  0.5700  1.9295
 3826TIP3    H233038   6.803   4.484   7.384  0.8955 -4.2574 -2.1013
 3827TIP3   OH233039   0.199   1.870   3.219 -0.5419 -0.3958 -0.4556
 3827TIP3    H133040   0.293   1.885   3.212 -0.5903 -0.6161 -1.6704
 3827TIP3    H233041   0.189   1.775   3.226 -0.7007 -0.4232 -0.9804
 3828TIP3   OH233042   1.039   0.261   2.222 -0.2373  0.0007 -0.6294
 3828TIP3    H133043   1.001   0.296   2.141 -0.7710 -2.8182 -1.7045
 3828TIP3    H233044   1.098   0.192   2.193 -2.0252 -2.5697  1.3978
 3829TIP3   OH233045   2.829   5.867   0.237  0.1691  0.5135  0.8451
 3829TIP3    H133046   2.894   5.798   0.229  0.3850  0.4136  3.0289
 3829TIP3    H233047   2.875   5.940   0.278 -0.8580  0.7898  1.5490
 3830TIP3   OH233048   4.670   6.569   7.676  0.1961  0.3917  0.6794
 3830TIP3    H133049   4.730   6.566   7.601  1.2351 -0.1874  1.5108
 3830TIP3    H233050   4.586   6.592   7.637  0.3062 -1.6209 -0.9303
 3831TIP3   OH233051   1.326   5.980   1.365 -0.3038 -0.4051  0.0462
 3831TIP3    H133052   1.360   6.005   1.279  0.5752 -0.3628  0.3893
 3831TIP3    H233053   1.245   6.030   1.375 -0.5948 -0.6669 -0.8925
 3832TIP3   OH233054   5.984   4.138   7.777  0.1170 -0.6954  0.0392
 3832TIP3    H133055   5.936   4.060   7.805 -1.8460 -1.1506 -3.8806
 3832TIP3    H233056   5.918   4.194   7.736  1.8365  2.1444  0.8120
 3833TIP3   OH233057   2.225   1.065   2.725 -0.3021 -0.2402 -0.1003
 3833TIP3    H133058   2.209   1.075   2.819 -0.0308 -0.2187 -0.0537
 3833TIP3    H233059   2.225   0.970   2.711 -0.1287 -0.2502 -0.0383
 3834TIP3   OH233060   1.683   0.326   2.954  0.2363  0.3076  0.4094
 3834TIP3    H133061   1.740   0.356   2.883 -0.9469  0.6730 -0.4191
 3834TIP3    H233062   1.645   0.407   2.990 -0.8549  0.0059 -0.0173
 3835TIP3   OH233063   1.582   5.186   1.565  0.3198  0.3934  0.1134
 3835TIP3    H133064   1.524   5.260   1.582 -1.2525 -1.2541  2.5359
 3835TIP3    H233065   1.622   5.168   1.650  1.5555 -0.8257 -0.6985
 3836TIP3   OH233066   5.174   1.145   7.053  0.9510  0.0994 -0.0583
 3836TIP3    H133067   5.107   1.136   7.122 -0.5852 -1.7248 -1.6588
 3836TIP3    H233068   5.254   1.168   7.100 -0.3879  0.5862  2.1464
 3837TIP3   OH233069   3.904   4.817   1.079  0.0478 -0.2775 -0.6884
 3837TIP3    H133070   3.880   4.893   1.133 -0.9183 -2.0512  1.5655
 3837TIP3    H233071   3.820   4.786   1.044  0.7185  1.2562 -3.9968
 3838TIP3   OH233072   4.322   5.561   0.198 -0.0781  0.5200 -0.4204
 3838TIP3    H133073   4.305   5.467   0.197  0.9329  0.3249 -1.1236
 3838TIP3    H233074   4.350   5.582   0.109 -1.5194  1.7414 -0.6290
 3839TIP3   OH233075   6.124   1.200   7.911  0.7567  0.2216 -0.1634
 3839TIP3    H133076   6.030   1.215   7.903  0.7254 -0.7134 -2.4880
 3839TIP3    H233077   6.132   1.124   7.969 -0.0588 -0.6255 -1.1175
 3840TIP3   OH233078   4.857   5.808   7.619 -0.0862 -0.0419  0.0448
 3840TIP3    H133079   4.807   5.772   7.692 -0.3170  0.1382 -0.0262
 3840TIP3    H233080   4.900   5.732   7.580 -0.6866 -0.2621 -0.1935
 3841TIP3   OH233081   2.561   3.322   3.431 -0.6948  0.2718  0.4665
 3841TIP3    H133082   2.612   3.325   3.512 -0.6325  0.7792  0.4137
 3841TIP3    H233083   2.627   3.320   3.362 -0.7460  0.2452  0.4189
 3842TIP3   OH233084   0.596   4.942   0.121  0.3287  0.2491  0.0367
 3842TIP3    H133085   0.526   5.008   0.112  0.7684  0.5336 -1.8234
 3842TIP3    H233086   0.559   4.864   0.080  0.1920 -0.3735  1.3204
 3843TIP3   OH233087   1.396   6.063   1.119 -0.0066  0.1393  0.1357
 3843TIP3    H133088   1.319   6.069   1.062  0.1701 -0.4654 -0.1654
 3843TIP3    H233089   1.440   5.982   1.093  0.2386  0.0082  0.9243
 3844TIP3   OH233090   1.073   1.420   2.830 -0.1812  0.6077 -0.0804
 3844TIP3    H133091   0.978   1.432   2.822 -0.6562 -2.9954 -1.9779
 3844TIP3    H233092   1.084   1.367   2.909 -0.0043 -0.5814 -0.8791
 3845TIP3   OH233093   1.502   5.834   7.210 -0.6140 -0.2680  0.3455
 3845TIP3    H133094   1.448   5.813   7.286  0.1767  2.9351  1.9564
 3845TIP3    H233095   1.531   5.924   7.225  3.3557 -1.0163 -1.5171
 3846TIP3   OH233096   0.641   4.687   0.384 -0.1655  0.3739 -0.0925
 3846TIP3    H133097   0.698   4.761   0.408  1.3645 -1.2877  1.7537
 3846TIP3    H233098   0.642   4.685   0.289 -0.4228  2.8178 -0.2090
 3847TIP3   OH233099   6.772   5.325   3.440 -0.6105 -0.6882  0.2299
 3847TIP3    H133100   6.788   5.419   3.448  2.3260 -1.1591  1.0299
 3847TIP3    H233101   6.684   5.313   3.474 -1.6726  1.9233 -1.2973
 3848TIP3   OH233102   3.026   3.166   2.377 -0.2886 -0.0572  0.0939
 3848TIP3    H133103   3.012   3.186   2.285 -0.2755  0.7072  0.2538
 3848TIP3    H233104   2.960   3.218   2.424  0.4041  0.4046  0.5805
 3849TIP3   OH233105   2.513   2.404   2.420 -0.0331 -0.0295 -0.2313
 3849TIP3    H133106   2.465   2.355   2.353 -0.4948  0.1005 -0.0042
 3849TIP3    H233107   2.539   2.337   2.484 -1.1057  0.0675  0.3405
 3850TIP3   OH233108   2.194   1.647   0.235 -0.0493  0.0738 -0.0925
 3850TIP3    H133109   2.197   1.563   0.189  1.3519  1.0468 -1.9230
 3850TIP3    H233110   2.286   1.676   0.239 -0.4698  1.4314  0.6689
 3851TIP3   OH233111   6.194   5.289   0.301 -0.1605  0.2910  0.2096
 3851TIP3    H133112   6.244   5.342   0.238 -0.1581  0.0091 -0.0223
 3851TIP3    H233113   6.110   5.274   0.259  0.3051 -1.0091 -0.2916
 3852TIP3   OH233114   5.181   0.905   7.468 -0.0708 -0.4624  0.1276
 3852TIP3    H133115   5.112   0.941   7.524  0.6792  0.0924  0.7193
 3852TIP3    H233116   5.157   0.934   7.380  0.3315  1.2576  0.5418
 3853TIP3   OH233117   1.212   6.063   8.167  0.0945  0.2799  0.3297
 3853TIP3    H133118   1.201   5.973   8.197  1.0319  0.5544  1.6199
 3853TIP3    H233119   1.148   6.074   8.097  0.5638 -1.6467 -0.4527
 3854TIP3   OH233120   0.762   2.050   0.616 -0.5768 -0.1511 -0.3506
 3854TIP3    H133121   0.845   2.097   0.619  0.3124 -1.4919 -1.8770
 3854TIP3    H233122   0.787   1.958   0.608 -2.2078 -0.6179 -0.4557
 3855TIP3   OH233123   0.695   2.310   2.398  0.1549  0.4382  0.0308
 3855TIP3    H133124   0.673   2.220   2.422 -0.3705  0.8477  1.1771
 3855TIP3    H233125   0.782   2.303   2.359 -0.2729 -0.6780 -0.7651
 3856TIP3   OH233126   3.101   2.894   1.135 -0.6338  0.2648 -0.3695
 3856TIP3    H133127   3.019   2.914   1.180  0.1483 -0.5232  1.4699
 3856TIP3    H233128   3.098   2.800   1.118 -0.7190  0.4679 -1.6563
 3857TIP3   OH233129   6.218   2.790   7.784  0.0058  0.3796  0.1078
 3857TIP3    H133130   6.253   2.861   7.839 -1.4622  2.2983 -1.3002
 3857TIP3    H233131   6.141   2.759   7.832 -1.5729  2.3948 -0.9502
 3858TIP3   OH233132   4.118   3.679   2.824 -0.0950  0.1447  0.0563
 3858TIP3    H133133   4.034   3.704   2.786  0.1415 -0.0689 -0.6196
 3858TIP3    H233134   4.157   3.620   2.760  1.5414  1.9128 -0.6711
 3859TIP3   OH233135   6.830   4.553   2.240  0.8688 -0.2465 -0.9063
 3859TIP3    H133136   6.816   4.463   2.209  0.7482 -0.4635 -0.2359
 3859TIP3    H233137   6.924   4.567   2.229  0.6492  0.1199 -2.5143
 3860TIP3   OH233138   0.189   4.282   7.042 -0.4581 -0.2759  0.4023
 3860TIP3    H133139   0.169   4.357   6.987  0.7760 -0.0070  0.2873
 3860TIP3    H233140   0.124   4.286   7.113 -0.3912  0.9191  0.4207
 3861TIP3   OH233141   6.684   2.509   7.818 -0.0402  0.1515 -0.3244
 3861TIP3    H133142   6.710   2.591   7.775  0.0260  0.4119  0.2103
 3861TIP3    H233143   6.653   2.454   7.746  0.0613  0.5871 -0.7100
 3862TIP3   OH233144   2.989   0.200   3.167 -0.0385 -0.5288 -0.0746
 3862TIP3    H133145   2.895   0.204   3.184 -0.1791 -2.0398 -0.3325
 3862TIP3    H233146   3.013   0.109   3.188  1.4531 -0.0420  0.4266
 3863TIP3   OH233147   5.436   1.208   1.272 -0.5198 -0.0504 -0.2385
 3863TIP3    H133148   5.520   1.240   1.307 -0.2936 -1.4838  0.5981
 3863TIP3    H233149   5.441   1.226   1.178  1.1903 -1.0813 -0.3795
 3864TIP3   OH233150   5.471   6.031   1.412 -0.3937  0.0741 -0.0472
 3864TIP3    H133151   5.562   6.008   1.391 -0.2046  1.3408 -0.7303
 3864TIP3    H233152   5.419   5.961   1.372  0.2815 -0.8407  0.6305
 3865TIP3   OH233153   3.287   0.664   2.291  0.3075  0.1315  0.4197
 3865TIP3    H133154   3.266   0.739   2.236 -1.5796 -0.9846 -0.4845
 3865TIP3    H233155   3.327   0.600   2.232  0.5686 -0.1330  0.8757
 3866TIP3   OH233156   2.541   5.471   7.385  0.5116  0.5003 -0.4725
 3866TIP3    H133157   2.609   5.432   7.331  1.1415  0.9890 -0.0547
 3866TIP3    H233158   2.581   5.551   7.421 -0.3686  0.9421 -0.4295
 3867TIP3   OH233159   2.054   3.338   0.560 -0.2651  0.0012 -0.3499
 3867TIP3    H133160   1.994   3.374   0.494  0.7142  2.1230 -0.1494
 3867TIP3    H233161   2.009   3.350   0.643 -0.7162 -1.0070 -0.4252
 3868TIP3   OH233162   5.699   1.668   1.264  0.5035 -0.5465  0.2687
 3868TIP3    H133163   5.756   1.738   1.231 -1.9605  2.0349  1.0265
 3868TIP3    H233164   5.707   1.672   1.359  1.7479 -2.6822  0.3107
 3869TIP3   OH233165   4.771   6.363   3.224  0.0410 -0.0930 -0.0679
 3869TIP3    H133166   4.707   6.312   3.274 -1.3319  2.0588  0.5490
 3869TIP3    H233167   4.795   6.307   3.151 -0.1463 -2.2061  1.3933
 3870TIP3   OH233168   1.130   2.514   2.363  0.1595 -0.5692 -0.4662
 3870TIP3    H133169   1.087   2.443   2.317 -0.6653 -0.7494  0.5434
 3870TIP3    H233170   1.201   2.472   2.411  0.9694 -0.3927 -1.4863
 3871TIP3   OH233171   0.801   0.870   2.279  0.1396  0.0633 -0.8790
 3871TIP3    H133172   0.871   0.805   2.284  1.2150  0.9392 -2.8762
 3871TIP3    H233173   0.798   0.910   2.366 -0.2536 -2.2829  0.2541
 3872TIP3   OH233174   4.469   0.739   2.973 -0.2205  0.0220 -0.4730
 3872TIP3    H133175   4.380   0.722   2.942 -0.2948 -0.2317 -0.1352
 3872TIP3    H233176   4.484   0.670   3.038  0.1368  0.2037 -0.3645
 3873TIP3   OH233177   3.985   6.417   2.758 -0.0140  0.0460  0.1878
 3873TIP3    H133178   4.053   6.351   2.756  2.2792  2.2782 -0.4783
 3873TIP3    H233179   4.028   6.497   2.729 -2.8189  1.7018  0.2213
 3874TIP3   OH233180   4.514   0.419   0.239  0.4833  0.3192 -0.0258
 3874TIP3    H133181   4.601   0.392   0.270  0.4619  0.6694  0.3417
 3874TIP3    H233182   4.465   0.337   0.231  0.8488  0.1198 -0.2330
 3875TIP3   OH233183   6.967   1.550   1.874  0.3420  0.2807  0.6337
 3875TIP3    H133184   7.040   1.553   1.812  0.3306 -0.5246  0.5720
 3875TIP3    H233185   6.927   1.464   1.859 -0.3543  0.5425  0.9696
 3876TIP3   OH233186   3.056   2.735   0.559  0.4256 -0.3709 -0.4354
 3876TIP3    H133187   3.055   2.765   0.469  1.0861  0.2455 -0.2476
 3876TIP3    H233188   2.967   2.748   0.590  0.3255 -0.0840 -0.8416
 3877TIP3   OH233189   5.462   3.712   0.491 -0.1749 -0.5204  0.1526
 3877TIP3    H133190   5.456   3.634   0.546  1.7138 -0.8934 -0.0758
 3877TIP3    H233191   5.541   3.698   0.439 -1.2312  0.3806 -1.7837
 3878TIP3   OH233192   5.792   6.006   2.614 -0.0359 -0.5133  0.3683
 3878TIP3    H133193   5.843   6.054   2.679 -0.8372 -0.2137  0.7883
 3878TIP3    H233194   5.740   6.073   2.570 -2.0003 -1.0450  1.6993
 3879TIP3   OH233195   5.297   2.685   6.721  0.0613  0.3199 -0.0042
 3879TIP3    H133196   5.277   2.596   6.692  1.0736 -0.8892  2.6245
 3879TIP3    H233197   5.385   2.702   6.686  1.6469 -1.4632  2.6683
 3880TIP3   OH233198   0.636   0.808   8.062  0.4920 -0.1859  0.2577
 3880TIP3    H133199   0.627   0.719   8.097  1.8861 -0.1337  0.8374
 3880TIP3    H233200   0.676   0.795   7.976  0.2098 -0.1492  0.1226
 3881TIP3   OH233201   2.810   2.417   0.618 -0.4973 -0.0487  0.2031
 3881TIP3    H133202   2.790   2.343   0.674 -0.2481  1.6284  2.6575
 3881TIP3    H233203   2.796   2.494   0.673  1.7236  1.6554 -1.4208
 3882TIP3   OH233204   0.360   3.807   1.460  0.1927  0.3033 -0.5385
 3882TIP3    H133205   0.280   3.760   1.434  0.3358 -0.3157  0.1103
 3882TIP3    H233206   0.416   3.739   1.498  0.0563  1.1333  1.2344
 3883TIP3   OH233207   5.051   4.471   0.929 -0.3049  0.2707  0.3395
 3883TIP3    H133208   5.135   4.489   0.970  0.8534 -1.7506 -0.9697
 3883TIP3    H233209   4.986   4.508   0.989  1.4922  2.2635  1.1840
 3884TIP3   OH233210   6.430   6.296   1.399 -0.2630  0.3612  0.4672
 3884TIP3    H133211   6.405   6.255   1.482  0.8529  1.9005  1.6196
 3884TIP3    H233212   6.411   6.229   1.333 -0.8685 -1.0407  1.9827
 3885TIP3   OH233213   6.010   4.312   0.543 -0.1090  0.0835 -0.4180
 3885TIP3    H133214   6.074   4.375   0.510  1.4112 -2.4441 -2.7382
 3885TIP3    H233215   5.963   4.282   0.465 -1.4473 -0.9459  0.7244
 3886TIP3   OH233216   3.854   3.687   0.747 -0.6306 -0.7283  0.3645
 3886TIP3    H133217   3.769   3.715   0.711 -1.1119 -0.4695  1.6431
 3886TIP3    H233218   3.906   3.664   0.670 -1.7821 -0.6727 -0.4612
 3887TIP3   OH233219   4.092   1.221   1.060  0.1237 -0.0064  0.3007
 3887TIP3    H133220   4.112   1.306   1.098 -2.8142  1.2075 -0.5472
 3887TIP3    H233221   4.101   1.234   0.965 -3.9797  0.7069 -0.1858
 3888TIP3   OH233222   1.058   4.902   2.745 -0.0103 -0.8646  0.4510
 3888TIP3    H133223   1.135   4.848   2.759 -0.0386 -0.9912  0.1265
 3888TIP3    H233224   1.028   4.925   2.833  0.2357 -1.0418  0.5815
 3889TIP3   OH233225   1.925   2.845   7.743 -0.2599  0.1434 -0.2312
 3889TIP3    H133226   1.910   2.750   7.745 -0.2999  0.1032 -1.6776
 3889TIP3    H233227   1.846   2.880   7.702 -0.7165  0.9273  1.2459
 3890TIP3   OH233228   0.566   6.683   1.390  0.2202 -0.0345  0.1228
 3890TIP3    H133229   0.499   6.656   1.454  0.6573  0.4347  0.7980
 3890TIP3    H233230   0.606   6.760   1.430  1.2935 -0.4205 -0.1901
 3891TIP3   OH233231   5.052   4.789   2.268 -0.0135  0.2135 -0.2965
 3891TIP3    H133232   5.077   4.739   2.345 -1.2615  1.8665  1.2569
 3891TIP3    H233233   4.980   4.739   2.229  0.2936 -0.3688 -0.1296
 3892TIP3   OH233234   2.186   1.571   7.541  0.0126  0.0395 -0.0631
 3892TIP3    H133235   2.091   1.577   7.550 -0.2738 -1.7440 -1.3434
 3892TIP3    H233236   2.221   1.624   7.613 -1.9380 -0.2900  1.1841
 3893TIP3   OH233237   4.798   0.662   1.019  0.3464 -0.1715 -0.1286
 3893TIP3    H133238   4.752   0.738   0.985  2.2603  0.7437 -0.7665
 3893TIP3    H233239   4.860   0.697   1.082  1.8985 -1.0825 -1.0924
 3894TIP3   OH233240   3.373   4.049   8.028 -0.4468 -0.7421 -0.1199
 3894TIP3    H133241   3.373   4.104   7.949 -1.0718  0.2288  0.5292
 3894TIP3    H233242   3.464   4.046   8.055 -0.2553 -0.9229 -0.7731
 3895TIP3   OH233243   0.006   2.222   1.211 -0.2631  0.8914 -0.3743
 3895TIP3    H133244  -0.087   2.201   1.217 -0.2549  0.0848 -2.3479
 3895TIP3    H233245   0.026   2.217   1.118  1.7425  1.1804 -0.0115
 3896TIP3   OH233246   1.621   0.153   2.727  0.3333 -0.2533 -0.1054
 3896TIP3    H133247   1.641   0.221   2.792  0.5558  0.8998 -1.3441
 3896TIP3    H233248   1.640   0.194   2.643 -1.3885 -1.1961 -1.0046
 3897TIP3   OH233249   0.836   1.080   1.613  0.1381 -0.1399 -0.2523
 3897TIP3    H133250   0.848   1.101   1.520 -0.7446  2.1411  0.0675
 3897TIP3    H233251   0.741   1.081   1.625  0.2276 -0.9729  0.5699
 3898TIP3   OH233252   1.360   5.769   7.436  0.0119 -0.1250 -0.3035
 3898TIP3    H133253   1.369   5.691   7.490 -3.1821  0.3601  1.1792
 3898TIP3    H233254   1.303   5.742   7.364  0.3460  0.3985 -0.7731
 3899TIP3   OH233255   2.532   1.062   1.408  0.0870  0.5736  0.4249
 3899TIP3    H133256   2.531   1.020   1.494 -0.6941  0.9833  0.6240
 3899TIP3    H233257   2.530   0.989   1.346 -1.7857  0.2736  0.7692
 3900TIP3   OH233258   3.427   5.520   8.251 -0.0250 -0.1074 -0.0395
 3900TIP3    H133259   3.345   5.544   8.294 -0.1883 -2.7406  1.3426
 3900TIP3    H233260   3.404   5.513   8.158 -0.9528  0.6740  0.1082
 3901TIP3   OH233261   2.865   1.883   2.074 -0.4505 -0.2417  0.2314
 3901TIP3    H133262   2.915   1.811   2.036 -1.7468 -0.1813 -1.7799
 3901TIP3    H233263   2.809   1.841   2.139  1.2869 -0.4734  1.6558
 3902TIP3   OH233264   2.440   3.101   7.680 -0.0918  0.1016  0.4055
 3902TIP3    H133265   2.444   3.189   7.643  0.1119 -0.7130 -1.5956
 3902TIP3    H233266   2.373   3.056   7.629 -0.1268 -0.9640  1.3416
 3903TIP3   OH233267   4.009   0.443   1.226  0.3757  0.2451 -0.2061
 3903TIP3    H133268   4.075   0.425   1.293  0.8112 -0.3097 -0.7653
 3903TIP3    H233269   3.951   0.507   1.266  1.7454  1.4224 -0.0060
 3904TIP3   OH233270   0.014   1.263   1.474  0.5655 -0.6763 -0.1421
 3904TIP3    H133271  -0.061   1.282   1.530  0.1327 -3.5455  0.3942
 3904TIP3    H233272  -0.024   1.223   1.396  1.4324 -0.2240 -0.8175
 3905TIP3   OH233273   3.457   6.515   0.569 -0.1022 -0.2556 -0.7749
 3905TIP3    H133274   3.518   6.564   0.513 -0.3973 -0.8583 -1.6442
 3905TIP3    H233275   3.514   6.458   0.621  0.0801 -1.3818 -2.1336
 3906TIP3   OH233276   1.653   3.068   3.136 -0.0900 -0.0080  0.2821
 3906TIP3    H133277   1.571   3.041   3.177 -0.3152  0.5194  0.1837
 3906TIP3    H233278   1.707   2.988   3.135 -1.2600 -0.8328 -1.2516
 3907TIP3   OH233279   0.662   0.183   0.838 -0.3019  0.6455 -0.0671
 3907TIP3    H133280   0.655   0.190   0.743 -0.0264  1.7427 -0.0122
 3907TIP3    H233281   0.633   0.267   0.872 -0.0900  0.3822  0.8107
 3908TIP3   OH233282   5.705   6.114   1.786  0.6136  0.2026  0.1150
 3908TIP3    H133283   5.725   6.172   1.860 -1.1078 -0.8691  1.5118
 3908TIP3    H233284   5.616   6.082   1.804  0.5927 -1.0331 -1.8309
 3909TIP3   OH233285   4.037   0.713   1.707 -0.8361 -0.2856 -0.1643
 3909TIP3    H133286   4.019   0.684   1.796 -0.0555 -0.3011  0.0014
 3909TIP3    H233287   4.031   0.634   1.654  2.5816 -1.1472  0.4732
 3910TIP3   OH233288   4.019   1.861   2.212  0.2226 -0.0037  0.0980
 3910TIP3    H133289   4.011   1.823   2.124  1.0573 -0.3889  0.1806
 3910TIP3    H233290   4.034   1.954   2.196  0.8351 -0.1467 -0.1864
 3911TIP3   OH233291   6.075   6.606   1.892  0.1519 -0.0661  0.0991
 3911TIP3    H133292   6.038   6.591   1.978  0.9264  0.4788  0.5479
 3911TIP3    H233293   6.057   6.526   1.843 -2.3482  0.4855 -0.0066
 3912TIP3   OH233294   1.107   2.676   2.948 -0.0053  0.1098  0.3146
 3912TIP3    H133295   1.141   2.611   2.886 -0.3430  1.7330 -1.7009
 3912TIP3    H233296   1.041   2.724   2.898  1.2267  2.9459  1.1968
 3913TIP3   OH233297   6.994   6.214   1.426  0.4866 -0.7872  0.6357
 3913TIP3    H133298   6.943   6.202   1.345 -2.9584  0.0304  2.4875
 3913TIP3    H233299   7.010   6.126   1.458  1.9063 -1.1253 -0.8518
 3914TIP3   OH233300   5.197   5.297   3.164  0.4943  0.0132  0.4946
 3914TIP3    H133301   5.277   5.248   3.181  0.5222  0.3306  1.3575
 3914TIP3    H233302   5.224   5.368   3.106  0.5736 -0.6378 -0.2662
 3915TIP3   OH233303   2.158   6.427   1.136  0.1004  0.5919 -0.3369
 3915TIP3    H133304   2.209   6.505   1.158 -0.1357  0.1996  1.8784
 3915TIP3    H233305   2.219   6.370   1.090  0.6197  1.5854 -0.8967
 3916TIP3   OH233306   5.994   2.796   1.888 -0.5446  0.4039 -0.2101
 3916TIP3    H133307   6.001   2.833   1.976 -0.1216  0.0169 -0.0812
 3916TIP3    H233308   5.959   2.708   1.901  1.2221 -0.3432 -0.2656
 3917TIP3   OH233309   3.723   6.503   0.861 -1.0186  0.5193  0.5992
 3917TIP3    H133310   3.700   6.419   0.820 -0.3866  1.2333 -1.3274
 3917TIP3    H233311   3.735   6.482   0.953 -1.0206 -1.4843  0.1885
 3918TIP3   OH233312   2.517   2.299   0.649 -0.2286 -0.0596 -0.0224
 3918TIP3    H133313   2.560   2.291   0.563 -0.2782 -2.9397  0.1253
 3918TIP3    H233314   2.549   2.223   0.698 -2.9434 -0.4891  1.2514
 3919TIP3   OH233315   4.979   4.250   1.933 -0.1801 -0.0634 -0.0608
 3919TIP3    H133316   4.910   4.190   1.902  0.8764 -0.7153 -1.2022
 3919TIP3    H233317   5.020   4.202   2.005 -0.4245  0.0085  0.1291
 3920TIP3   OH233318   5.947   5.216   0.226 -0.0752 -0.3398 -0.2090
 3920TIP3    H133319   5.967   5.149   0.292  0.6069  0.0966  0.0303
 3920TIP3    H233320   5.861   5.190   0.192 -0.5842 -0.3921  1.0700
 3921TIP3   OH233321   2.180   3.096   0.206  0.1811 -0.2281  0.2885
 3921TIP3    H133322   2.230   3.020   0.175  0.2445  0.3168 -0.9895
 3921TIP3    H233323   2.229   3.172   0.174 -1.4849  0.3283 -1.1358
 3922TIP3   OH233324   5.101   4.092   2.145  0.0231  0.5558 -0.0318
 3922TIP3    H133325   5.029   4.029   2.153 -1.4120  1.9890 -1.1015
 3922TIP3    H233326   5.176   4.039   2.118 -0.7268 -0.9030  0.6035
 3923TIP3   OH233327   0.614   2.548   1.240 -0.1053 -0.1837 -0.0123
 3923TIP3    H133328   0.694   2.596   1.261  0.4979 -1.4072  0.6222
 3923TIP3    H233329   0.633   2.458   1.264 -1.6931 -0.5102  0.1775
 3924TIP3   OH233330   3.003   1.503   2.879  0.4408  0.5873  0.2450
 3924TIP3    H133331   2.998   1.546   2.964 -1.7248  2.0520 -0.5379
 3924TIP3    H233332   3.032   1.571   2.819  1.1747 -0.2281 -0.3538
 3925TIP3   OH233333   5.962   5.282   1.707 -0.3010  0.4539  0.4631
 3925TIP3    H133334   5.867   5.272   1.709 -0.3506  0.5812 -0.7093
 3925TIP3    H233335   5.995   5.192   1.713 -0.4866  0.4130  0.9336
 3926TIP3   OH233336   4.168   5.334   1.893  0.2801  0.2190 -0.0356
 3926TIP3    H133337   4.121   5.347   1.810  1.8350 -0.5387 -1.0719
 3926TIP3    H233338   4.146   5.412   1.944 -0.7763  0.6738 -1.1214
 3927TIP3   OH233339   0.855   0.456   0.477 -1.3377 -0.2577 -0.4116
 3927TIP3    H133340   0.816   0.400   0.544 -1.3693 -0.0318 -0.2421
 3927TIP3    H233341   0.908   0.396   0.424  1.4894  0.0511  1.8648
 3928TIP3   OH233342   6.136   2.239   0.225  0.0997 -0.6732 -0.1477
 3928TIP3    H133343   6.141   2.237   0.321  1.5295 -1.3930 -0.2142
 3928TIP3    H233344   6.160   2.150   0.198 -0.0093 -0.3962 -1.1871
 3929TIP3   OH233345   5.061   4.368   1.303 -0.1853  0.1701  0.5315
 3929TIP3    H133346   5.052   4.365   1.398  0.2497 -1.9535  0.5534
 3929TIP3    H233347   5.091   4.458   1.284 -0.2504  0.6112  2.3811
 3930TIP3   OH233348   6.148   1.619   0.819  0.0840  0.0552 -0.9085
 3930TIP3    H133349   6.192   1.652   0.741  1.6646  0.1535 -0.0081
 3930TIP3    H233350   6.159   1.524   0.814  0.5077  0.0870 -0.6323
 3931TIP3   OH233351   0.212   1.591   0.661 -0.5255  0.4952  0.1423
 3931TIP3    H133352   0.178   1.636   0.739 -0.1489  0.0927  0.5427
 3931TIP3    H233353   0.226   1.661   0.597  2.5870  1.4092  1.6240
 3932TIP3   OH233354   3.398   5.338   2.645 -0.1597  0.2077  0.4311
 3932TIP3    H133355   3.360   5.330   2.558  0.7595 -0.7008  0.0981
 3932TIP3    H233356   3.325   5.317   2.704 -0.7772  0.8042 -0.1081
 3933TIP3   OH233357   2.400   3.033   1.818  0.0082 -0.0726 -0.2070
 3933TIP3    H133358   2.445   3.118   1.811  0.2059 -0.2679 -1.6219
 3933TIP3    H233359   2.467   2.969   1.793 -0.1728 -0.6519  0.7581
 3934TIP3   OH233360   1.041   4.168   2.325 -0.7489 -0.4499  0.3814
 3934TIP3    H133361   1.028   4.079   2.293  1.9315 -0.6589 -0.3337
 3934TIP3    H233362   1.051   4.222   2.247 -2.7075  0.6401  0.7893
 3935TIP3   OH233363   6.930   4.495   2.780 -0.7845  0.3426 -0.1896
 3935TIP3    H133364   7.014   4.504   2.734 -1.4579  1.1999 -1.2999
 3935TIP3    H233365   6.901   4.406   2.760  0.3851 -0.4038  1.1888
 3936TIP3   OH233366   4.452   6.879   0.237  0.8554 -0.2276  0.0212
 3936TIP3    H133367   4.522   6.854   0.176 -0.0576  0.2184 -1.2532
 3936TIP3    H233368   4.385   6.918   0.181  0.8790  2.2109  1.5571
 3937TIP3   OH233369   4.815   0.016   0.304 -0.2564 -0.1135  0.2280
 3937TIP3    H133370   4.730   0.019   0.260  0.2503  2.3844 -0.7955
 3937TIP3    H233371   4.844  -0.074   0.295 -1.8912 -0.5435 -1.2213
 3938TIP3   OH233372   1.077   1.301   3.430  0.0401 -0.0465 -0.2926
 3938TIP3    H133373   1.041   1.293   3.518  0.4628 -0.4425 -0.1470
 3938TIP3    H233374   1.010   1.347   3.380 -0.5200 -0.4694  0.0541
 3939TIP3   OH233375   4.544   0.261   0.540  0.4377  0.2345 -0.3800
 3939TIP3    H133376   4.468   0.316   0.562 -1.1600 -1.3652 -1.6274
 3939TIP3    H233377   4.579   0.235   0.625 -1.9839 -1.0024  0.3390
 3940TIP3   OH233378   2.198   4.361   7.179  0.5281  0.1724 -0.4346
 3940TIP3    H133379   2.260   4.433   7.180  0.9446 -0.1721 -0.7269
 3940TIP3    H233380   2.251   4.284   7.156  0.3146 -0.4358  0.9973
 3941TIP3   OH233381   1.177   4.725   2.942  0.2335 -0.1437  0.2009
 3941TIP3    H133382   1.266   4.691   2.931  0.0844 -0.9685  1.3845
 3941TIP3    H233383   1.125   4.648   2.966 -0.5233  0.5626  0.8907
 3942TIP3   OH233384   0.271   5.734   0.781 -0.1940 -0.4260  0.0573
 3942TIP3    H133385   0.208   5.761   0.715 -0.8135 -0.4906  0.6112
 3942TIP3    H233386   0.218   5.707   0.856  0.4655 -1.2345  0.2563
 3943TIP3   OH233387   4.470   3.766   2.201 -0.4920  0.5486  0.5925
 3943TIP3    H133388   4.482   3.706   2.275  0.8773  0.2376  0.1474
 3943TIP3    H233389   4.414   3.719   2.140 -3.2401  1.5368  2.2032
 3944TIP3   OH233390   6.200   0.996   8.096 -0.3801  0.2782  0.2133
 3944TIP3    H133391   6.243   0.946   8.027  0.7164  1.3985  0.0441
 3944TIP3    H233392   6.201   0.938   8.173  0.2676 -0.1875 -0.1433
 3945TIP3   OH233393   2.171   0.178   1.760 -1.0327 -0.8198  0.3688
 3945TIP3    H133394   2.216   0.105   1.804 -0.0464 -1.9954 -2.3866
 3945TIP3    H233395   2.222   0.193   1.680 -3.1888  0.6304 -0.8256
 3946TIP3   OH233396   5.769   3.118   8.115  0.3729 -0.3760  0.0486
 3946TIP3    H133397   5.746   3.085   8.202 -3.2775  0.9425 -0.2439
 3946TIP3    H233398   5.798   3.208   8.131  1.1563 -0.6256  0.0314
 3947TIP3   OH233399   6.774   2.179   0.629 -0.5990  0.1763  0.2806
 3947TIP3    H133400   6.749   2.215   0.544  1.2564 -0.0916 -0.4293
 3947TIP3    H233401   6.822   2.249   0.672 -1.1024  0.1419  0.9037
 3948TIP3   OH233402   0.036   5.410   0.888 -0.0810 -0.5870 -0.3819
 3948TIP3    H133403   0.106   5.395   0.824 -1.6416  0.3404 -2.4501
 3948TIP3    H233404   0.028   5.327   0.936  0.9134 -1.4586 -1.6562
 3949TIP3   OH233405   6.967   1.828   7.773 -0.1434 -0.0707 -0.0267
 3949TIP3    H133406   6.905   1.786   7.713 -0.0837 -0.2406  0.0295
 3949TIP3    H233407   6.913   1.868   7.841 -0.3588  1.9763 -1.3270
 3950TIP3   OH233408   2.144   6.715   7.524  0.0540 -0.0987 -0.0592
 3950TIP3    H133409   2.155   6.798   7.479  2.0544  1.2229  2.5819
 3950TIP3    H233410   2.185   6.650   7.467  1.0462  1.2038 -0.8629
 3951TIP3   OH233411   1.036   1.468   1.963  0.2207  0.2689  0.4034
 3951TIP3    H133412   0.973   1.397   1.974  0.7545 -0.2939 -0.0285
 3951TIP3    H233413   1.118   1.432   1.997  0.1464  1.2776  1.7244
 3952TIP3   OH233414   4.349   5.934   7.526  0.1221  0.0358  0.4485
 3952TIP3    H133415   4.287   5.995   7.567 -2.3368 -0.8878 -1.6144
 3952TIP3    H233416   4.397   5.988   7.462  0.1915  0.4183  0.8227
 3953TIP3   OH233417   4.536   5.818   0.185 -0.2475 -0.4593 -0.2708
 3953TIP3    H133418   4.551   5.736   0.138  0.8790  0.2975 -1.3158
 3953TIP3    H233419   4.489   5.793   0.264 -0.0785 -2.0793 -0.6549
 3954TIP3   OH233420   5.204   0.285   0.862 -0.0505  0.1161 -0.0441
 3954TIP3    H133421   5.218   0.375   0.833  3.1662 -0.0822  0.4263
 3954TIP3    H233422   5.124   0.288   0.914 -0.7350  2.3985 -1.1120
 3955TIP3   OH233423   5.391   2.110   2.202  0.4669  0.6308 -0.2594
 3955TIP3    H133424   5.299   2.113   2.227  0.5983  1.3770  0.1576
 3955TIP3    H233425   5.390   2.117   2.107  0.0547 -0.2166 -0.3188
 3956TIP3   OH233426   5.095   4.411   7.484 -0.0269  0.2924  0.1583
 3956TIP3    H133427   5.183   4.448   7.478  0.5053 -0.5682  2.0177
 3956TIP3    H233428   5.049   4.467   7.546 -0.0557 -0.5650  0.9295
 3957TIP3   OH233429   2.493   4.894   7.346  0.2034  0.3009 -0.4943
 3957TIP3    H133430   2.454   4.981   7.338  0.2214  0.2928 -0.6851
 3957TIP3    H233431   2.440   4.850   7.412 -0.8051 -0.0838 -1.5343
 3958TIP3   OH233432   2.943   6.730   2.097  0.0402 -0.2090  0.1485
 3958TIP3    H133433   3.026   6.685   2.083 -0.2035 -0.7590  0.4579
 3958TIP3    H233434   2.889   6.667   2.144 -0.7191 -0.0258 -0.4674
 3959TIP3   OH233435   1.752   1.645   1.313  0.5255 -0.1693 -0.3814
 3959TIP3    H133436   1.810   1.600   1.251 -0.7358 -1.0042 -1.0196
 3959TIP3    H233437   1.670   1.596   1.307 -0.6755  1.7589 -0.5226
 3960TIP3   OH233438   2.504   4.053   3.129 -0.0420  0.5016  0.4715
 3960TIP3    H133439   2.475   3.970   3.168 -0.7812  0.5798  0.0990
 3960TIP3    H233440   2.462   4.120   3.182  0.3314  0.6399  0.5962
 3961TIP3   OH233441   4.495   0.925   3.185 -0.3753 -0.0502  0.0065
 3961TIP3    H133442   4.550   0.853   3.217  0.3015  0.2816 -0.3726
 3961TIP3    H233443   4.406   0.892   3.192 -0.1348 -0.5975  0.6649
 3962TIP3   OH233444   1.534   4.584   7.076 -0.1976  0.0743  0.3228
 3962TIP3    H133445   1.615   4.540   7.100 -0.6180 -0.1426  1.4160
 3962TIP3    H233446   1.523   4.652   7.142 -1.8483 -1.1114  1.3453
 3963TIP3   OH233447   0.849   2.787   0.255  0.2593 -0.4927  0.0478
 3963TIP3    H133448   0.837   2.699   0.289 -2.3845  0.0961  0.9060
 3963TIP3    H233449   0.763   2.828   0.266  1.7692  2.6824  1.0980
 3964TIP3   OH233450   2.182   3.693   0.732 -0.7813 -0.2681  0.2174
 3964TIP3    H133451   2.106   3.686   0.674 -0.5754 -1.1789  0.0435
 3964TIP3    H233452   2.186   3.786   0.755 -1.8490 -0.1809  0.1008
 3965TIP3   OH233453   1.140   1.986   0.893  0.3057  0.2894 -0.1104
 3965TIP3    H133454   1.141   1.894   0.920  0.6625  0.4358  0.3983
 3965TIP3    H233455   1.050   2.014   0.908  0.5683  0.4626  1.3202
 3966TIP3   OH233456   5.093   6.944   0.963  0.5943  0.2141  0.4370
 3966TIP3    H133457   5.080   6.856   0.927  1.1415  0.5027 -0.4893
 3966TIP3    H233458   5.026   6.998   0.920 -0.4961  0.0457  1.8511
 3967TIP3   OH233459   1.741   1.127   7.292 -0.2265  0.6839  0.0895
 3967TIP3    H133460   1.815   1.095   7.344  1.0849 -1.9894 -3.0743
 3967TIP3    H233461   1.756   1.222   7.287  1.9452  0.4713  1.0679
 3968TIP3   OH233462   6.207   3.331   0.720 -0.2964  0.4229 -0.0780
 3968TIP3    H133463   6.222   3.240   0.748 -1.5407  0.5721  1.2360
 3968TIP3    H233464   6.262   3.383   0.778  0.4227  0.5203 -0.8375
 3969TIP3   OH233465   0.587   5.600   2.597 -0.9302  0.2203 -0.1540
 3969TIP3    H133466   0.634   5.537   2.652  0.3890  0.8170 -0.5526
 3969TIP3    H233467   0.624   5.587   2.509 -1.9049  0.3445 -0.5890
 3970TIP3   OH233468   6.965   1.804   2.377  0.1159  0.6971  0.3541
 3970TIP3    H133469   6.878   1.764   2.371 -0.0030  1.1650 -1.9200
 3970TIP3    H233470   7.024   1.730   2.394 -0.2590 -0.3583 -2.5036
 3971TIP3   OH233471   6.743   6.963   7.681  0.8023 -0.2851  0.1246
 3971TIP3    H133472   6.772   6.915   7.604  0.7284 -0.9666  0.5186
 3971TIP3    H233473   6.694   6.899   7.733  1.7905 -0.1274  1.2759
 3972TIP3   OH233474   6.423   5.207   0.883 -0.8726 -0.3998 -0.0384
 3972TIP3    H133475   6.473   5.288   0.896 -0.8093 -0.3429 -0.6162
 3972TIP3    H233476   6.483   5.148   0.838 -0.8405 -0.8594  0.5888
 3973TIP3   OH233477   6.517   5.987   1.665  0.2418  0.2234  0.1524
 3973TIP3    H133478   6.549   5.974   1.754  0.4891 -1.0632 -0.1046
 3973TIP3    H233479   6.572   6.058   1.630  1.4415 -0.5522  0.3972
 3974TIP3   OH233480   2.499   5.201   8.080  0.2097 -0.3005 -0.4986
 3974TIP3    H133481   2.582   5.167   8.049  0.2743 -0.7876  0.1769
 3974TIP3    H233482   2.479   5.148   8.157 -0.8957 -0.4240 -0.8528
 3975TIP3   OH233483   5.832   4.360   2.692 -0.3395 -0.5306  1.1154
 3975TIP3    H133484   5.750   4.386   2.649 -0.4901 -0.4678  1.4349
 3975TIP3    H233485   5.814   4.273   2.726  1.2080 -2.6116 -2.7893
 3976TIP3   OH233486   2.196   5.670   8.178  0.5873 -0.2723 -1.0573
 3976TIP3    H133487   2.114   5.719   8.169  0.0890 -1.1789 -1.6204
 3976TIP3    H233488   2.233   5.701   8.261 -0.9412 -0.7287 -0.1491
 3977TIP3   OH233489   5.338   0.459   8.254 -0.5727  0.0175  0.1444
 3977TIP3    H133490   5.257   0.462   8.203  0.1022 -0.6429 -1.0177
 3977TIP3    H233491   5.399   0.514   8.205  0.1214 -0.7121  0.1752
 3978TIP3   OH233492   5.317   4.546   2.699 -0.0209 -0.0923 -0.5432
 3978TIP3    H133493   5.262   4.622   2.680  0.6546  0.1264 -1.7283
 3978TIP3    H233494   5.270   4.499   2.768 -0.8343  0.9865 -0.3401
 3979TIP3   OH233495   1.610   0.106   1.029  0.1934  0.8833 -0.1544
 3979TIP3    H133496   1.656   0.127   1.110  1.3779  1.2613 -0.8933
 3979TIP3    H233497   1.524   0.147   1.039  0.7571  1.9751  0.4079
 3980TIP3   OH233498   6.215   6.955   0.357  0.4872  0.2978 -0.8628
 3980TIP3    H133499   6.217   6.965   0.262  1.3013  0.2962 -0.8538
 3980TIP3    H233500   6.296   6.908   0.378  0.1430 -0.0135 -0.2036
 3981TIP3   OH233501   4.879   6.323   0.692 -0.1920 -0.5696 -0.4227
 3981TIP3    H133502   4.815   6.253   0.703 -0.4740 -0.0505  1.6157
 3981TIP3    H233503   4.958   6.278   0.661 -0.7329 -1.6142 -0.3394
 3982TIP3   OH233504   4.805   3.774   3.925  0.4947 -0.0696 -0.2692
 3982TIP3    H133505   4.710   3.785   3.922  0.4980 -0.3175 -1.8313
 3982TIP3    H233506   4.824   3.708   3.858  1.7355 -0.3098  0.2861
 3983TIP3   OH233507   2.571   0.405   0.503  0.6418  0.6971 -0.5350
 3983TIP3    H133508   2.637   0.470   0.482  0.6336  0.8891  0.0153
 3983TIP3    H233509   2.620   0.322   0.508  0.9691  0.9415  0.5427
 3984TIP3   OH233510   1.689   4.181   8.118 -0.5097 -0.1074 -0.2836
 3984TIP3    H133511   1.729   4.094   8.112 -0.8812 -0.2611 -0.5433
 3984TIP3    H233512   1.672   4.194   8.211  0.4222  0.0831 -0.1297
 3985TIP3   OH233513   0.941   1.592   2.369  0.3991  0.7683  0.3316
 3985TIP3    H133514   0.851   1.598   2.401  0.5957 -0.1937  1.1404
 3985TIP3    H233515   0.953   1.670   2.315 -0.9459  0.8669  0.1311
 3986TIP3   OH233516   0.664   3.667   8.047 -0.2743 -0.3356  0.2495
 3986TIP3    H133517   0.632   3.746   8.004  0.3199 -0.4932 -0.4979
 3986TIP3    H233518   0.723   3.627   7.983  3.3004  1.1493  2.3102
 3987TIP3   OH233519   1.799   6.377   7.930 -0.0997 -0.0424 -0.6967
 3987TIP3    H133520   1.825   6.300   7.980  0.5510  0.7666  0.2607
 3987TIP3    H233521   1.783   6.344   7.842 -0.6076 -1.3902 -0.1217
 3988TIP3   OH233522   1.605   4.786   0.571 -0.0861 -0.0213 -0.8672
 3988TIP3    H133523   1.653   4.719   0.523 -0.6257 -0.4636 -0.8066
 3988TIP3    H233524   1.519   4.746   0.588  0.3743 -0.2302  1.2189
 3989TIP3   OH233525   1.982   6.566   2.176  0.0521 -0.1681 -0.2913
 3989TIP3    H133526   1.971   6.503   2.247  2.1480 -0.1422  0.1295
 3989TIP3    H233527   1.966   6.516   2.096  0.0748 -0.8122  0.1022
 3990TIP3   OH233528   4.994   5.591   2.071  0.3075  0.9084 -0.1756
 3990TIP3    H133529   4.997   5.620   1.980 -1.5146  2.2026  0.1097
 3990TIP3    H233530   5.070   5.632   2.112  1.1770  0.2682 -1.1056
 3991TIP3   OH233531   5.366   3.638   7.686 -0.6040  0.5077 -0.1859
 3991TIP3    H133532   5.322   3.553   7.693 -0.2141  0.3712  0.7699
 3991TIP3    H233533   5.295   3.702   7.697 -1.0802  0.3515 -1.9886
 3992TIP3   OH233534   6.259   6.190   0.061  0.3262  0.2915 -0.1798
 3992TIP3    H133535   6.191   6.211   0.126 -0.9527 -0.3423 -1.2700
 3992TIP3    H233536   6.236   6.102   0.030  0.3262  0.9622 -2.1873
 3993TIP3   OH233537   0.253   2.235   0.408  0.1686  0.1202 -0.0421
 3993TIP3    H133538   0.223   2.157   0.457  1.9267 -0.4689  0.1454
 3993TIP3    H233539   0.300   2.199   0.333  0.2034  1.0209 -0.4567
 3994TIP3   OH233540   1.876   4.592   1.075  0.1599 -0.1961  0.5538
 3994TIP3    H133541   1.789   4.557   1.095  0.4851  0.0455  2.6613
 3994TIP3    H233542   1.937   4.530   1.116  0.9055  0.4627  0.4735
 3995TIP3   OH233543   5.497   3.846   2.910  0.1538  0.2365 -0.2426
 3995TIP3    H133544   5.512   3.847   2.815  1.1162 -1.2553 -0.1467
 3995TIP3    H233545   5.585   3.840   2.948 -0.2758 -0.5665  0.6740
 3996TIP3   OH233546   6.863   3.629   2.957  0.2355  0.4449  0.1344
 3996TIP3    H133547   6.770   3.608   2.969  0.3662 -0.9315 -0.9596
 3996TIP3    H233548   6.872   3.639   2.862  1.3483 -0.1645  0.1712
 3997TIP3   OH233549   2.286   2.538   0.292  0.0303  0.4610 -0.3651
 3997TIP3    H133550   2.353   2.525   0.225  0.3942 -1.4798  0.3175
 3997TIP3    H233551   2.334   2.567   0.370  0.1276 -0.9348  0.1256
 3998TIP3   OH233552   3.382   1.237   1.571 -0.0885 -0.3705 -0.0964
 3998TIP3    H133553   3.464   1.250   1.619  1.3069 -0.1005 -2.3750
 3998TIP3    H233554   3.324   1.305   1.604  0.1175 -1.3220  2.4334
 3999TIP3   OH233555   0.180   6.526   3.403  0.4005  0.2535  0.2443
 3999TIP3    H133556   0.158   6.554   3.314  1.7456  0.8795  0.0806
 3999TIP3    H233557   0.233   6.447   3.390 -0.1220 -0.1481  0.5343
 4000TIP3   OH233558   5.088   2.013   0.455  0.4735 -0.0984 -0.0031
 4000TIP3    H133559   5.113   2.096   0.416  0.1834  1.0380  2.0901
 4000TIP3    H233560   5.158   1.993   0.517  0.3012 -1.1853 -0.1289
 4001TIP3   OH233561   0.549   3.522   1.726 -0.3520  0.1926 -0.5039
 4001TIP3    H133562   0.550   3.461   1.653  1.9407  0.1999 -0.5379
 4001TIP3    H233563   0.546   3.609   1.685 -0.5304  0.1730 -0.5343
 4002TIP3   OH233564   5.080   2.113   7.182 -0.0214 -0.5866  0.2333
 4002TIP3    H133565   5.167   2.123   7.221  0.0094  0.0681  0.0133
 4002TIP3    H233566   5.094   2.124   7.088 -0.3848 -0.1931  0.2241
 4003TIP3   OH233567   0.277   4.858   7.896  0.4332  0.2641  0.0790
 4003TIP3    H133568   0.238   4.915   7.964 -0.8640  0.4825 -0.8037
 4003TIP3    H233569   0.333   4.798   7.945 -0.5606  0.3302  1.3792
 4004TIP3   OH233570   3.135   5.238   2.429  0.5699  0.0837 -0.2617
 4004TIP3    H133571   3.111   5.151   2.462  0.0575  0.3823  0.1662
 4004TIP3    H233572   3.052   5.284   2.419  0.8479  0.5746 -0.3574
 4005TIP3   OH233573   6.991   5.978   0.044  0.3045  0.0191 -0.3912
 4005TIP3    H133574   7.025   6.065   0.023 -1.1247  0.6859 -0.0864
 4005TIP3    H233575   7.055   5.941   0.105  0.6790  1.0605 -0.1247
 4006TIP3   OH233576   4.575   6.170   7.950 -0.2991 -0.4479 -0.1123
 4006TIP3    H133577   4.567   6.096   7.890  3.9420 -1.0240 -0.2575
 4006TIP3    H233578   4.647   6.222   7.914  1.4008  0.0290  3.5107
 4007TIP3   OH233579   6.736   6.036   0.128  0.1447 -0.0007  0.0419
 4007TIP3    H133580   6.759   6.117   0.175 -0.5884  0.9982 -1.2349
 4007TIP3    H233581   6.807   6.026   0.064  0.3981 -0.5614  0.4037
 4008TIP3   OH233582   4.006   6.548   3.285  0.1079 -0.0928 -0.1535
 4008TIP3    H133583   4.042   6.500   3.211  0.2198 -1.9334  1.0366
 4008TIP3    H233584   4.048   6.634   3.281 -0.7093  0.2728 -2.8125
 4009TIP3   OH233585   3.633   1.112   2.203 -0.4125  0.3023 -0.3945
 4009TIP3    H133586   3.641   1.046   2.272 -0.9937  0.9727  0.3286
 4009TIP3    H233587   3.654   1.195   2.246 -3.4468  1.1393 -0.2608
 4010TIP3   OH233588   2.989   5.996   1.342 -0.0009  0.0417  0.4269
 4010TIP3    H133589   3.076   6.004   1.382  0.3339  0.4217 -0.3458
 4010TIP3    H233590   3.007   5.985   1.248 -0.8027  0.7616  0.1726
 4011TIP3   OH233591   5.261   2.218   0.336  0.8526  0.2762  0.1920
 4011TIP3    H133592   5.351   2.199   0.364  0.4269  0.4209  1.7300
 4011TIP3    H233593   5.263   2.311   0.312  1.0863  0.2937  0.2770
 4012TIP3   OH233594   0.329   4.491   0.536 -0.3044 -0.1336  0.6016
 4012TIP3    H133595   0.314   4.408   0.582 -0.1029 -0.3384  0.2993
 4012TIP3    H233596   0.260   4.495   0.470  0.6124 -0.8182 -0.4300
 4013TIP3   OH233597   0.482   4.722   8.015 -0.1731 -0.1247  0.0424
 4013TIP3    H133598   0.567   4.766   8.021 -0.4746  0.6580 -0.9599
 4013TIP3    H233599   0.447   4.723   8.104  0.5282  0.2589  0.3185
 4014TIP3   OH233600   4.819   3.041   1.661  0.4807  0.1378 -0.8276
 4014TIP3    H133601   4.880   2.968   1.651  0.0332 -0.2887 -0.4776
 4014TIP3    H233602   4.732   3.001   1.652  0.2221  0.5744 -0.3337
 4015TIP3   OH233603   2.088   0.630   2.804 -0.3272  0.4939  0.1167
 4015TIP3    H133604   2.139   0.572   2.861 -0.8364  1.6989  1.8785
 4015TIP3    H233605   2.147   0.651   2.732  1.7809  1.9772  2.1438
 4016TIP3   OH233606   6.424   0.094   7.828 -0.1388  0.0324 -0.7555
 4016TIP3    H133607   6.401   0.153   7.900 -0.4280 -0.9684 -0.0050
 4016TIP3    H233608   6.497   0.138   7.784  2.0313 -0.6241  1.9146
 4017TIP3   OH233609   6.861   6.881   0.339 -0.2069 -0.0012  0.0042
 4017TIP3    H133610   6.855   6.786   0.353  0.3865 -0.0959 -0.3529
 4017TIP3    H233611   6.827   6.894   0.251  2.3898 -0.2593 -1.1154
 4018TIP3   OH233612   0.200   0.029   1.332 -0.1905 -0.0223 -0.1712
 4018TIP3    H133613   0.252   0.107   1.311 -1.3196  1.0078  0.7146
 4018TIP3    H233614   0.163   0.002   1.248  0.9930 -0.2121 -0.6517
 4019TIP3   OH233615   1.534   2.468   8.086 -0.0560  0.4013  0.4798
 4019TIP3    H133616   1.443   2.440   8.091  0.3000 -0.5909  2.0519
 4019TIP3    H233617   1.530   2.564   8.094 -1.0447  0.5275 -1.1836
 4020TIP3   OH233618   5.815   7.018   0.252 -0.8917 -0.0353 -0.0098
 4020TIP3    H133619   5.880   7.022   0.322  0.3544 -0.7721 -1.0701
 4020TIP3    H233620   5.809   6.925   0.231 -3.6859 -0.2274  1.2661
 4021TIP3   OH233621   2.792   6.504   2.190  0.3490  0.7102 -0.4094
 4021TIP3    H133622   2.829   6.416   2.205  0.6294  1.0081  0.7792
 4021TIP3    H233623   2.699   6.489   2.179  0.5071  0.1775 -1.0861
 4022TIP3   OH233624   2.828   0.635   2.557  0.3796 -0.4321 -0.1464
 4022TIP3    H133625   2.872   0.558   2.521  1.7140  1.1442 -2.0687
 4022TIP3    H233626   2.873   0.709   2.517 -0.3265  1.4034  2.2399
 4023TIP3   OH233627   0.547   5.926   2.519 -0.2414 -0.2667  0.5411
 4023TIP3    H133628   0.505   5.840   2.514  1.1310 -0.9749  0.6587
 4023TIP3    H233629   0.495   5.982   2.461  0.0402 -1.6892 -1.1705
 4024TIP3   OH233630   5.374   4.170   7.623  0.7489  0.3094  0.6747
 4024TIP3    H133631   5.411   4.083   7.632 -1.0605 -0.7832 -1.4782
 4024TIP3    H233632   5.318   4.180   7.701  0.3461 -0.7907  0.5381
 4025TIP3   OH233633   2.217   1.321   1.125 -0.1281 -0.1384 -0.4850
 4025TIP3    H133634   2.125   1.302   1.145 -0.2883  1.3543  0.2986
 4025TIP3    H233635   2.265   1.244   1.157 -1.0038 -0.4755  0.0388
 4026TIP3   OH233636   1.382   2.034   2.602 -0.6857 -0.0036 -0.1007
 4026TIP3    H133637   1.365   2.039   2.508  1.6973  0.1463 -0.6001
 4026TIP3    H233638   1.413   1.944   2.616 -0.3188  0.1935  0.3846
 4027TIP3   OH233639   5.125   3.063   0.336 -0.0231  0.3823 -0.0632
 4027TIP3    H133640   5.066   3.086   0.264 -0.0254 -0.8970 -0.4914
 4027TIP3    H233641   5.133   3.143   0.387 -2.1894  0.5770  0.0529
 4028TIP3   OH233642   0.486   0.386   2.115 -0.5665  0.3250 -0.2756
 4028TIP3    H133643   0.566   0.438   2.127  0.6284 -1.6028  0.6561
 4028TIP3    H233644   0.442   0.390   2.199 -0.0476 -0.7614  0.0717
 4029TIP3   OH233645   5.105   6.041   1.365  0.3838  0.0514 -0.8052
 4029TIP3    H133646   5.175   5.982   1.335  1.2895  0.6826  0.0359
 4029TIP3    H233647   5.092   6.101   1.291  0.6077 -0.1656 -1.0257
 4030TIP3   OH233648   1.362   6.544   7.170  0.0253  0.3821 -0.1070
 4030TIP3    H133649   1.419   6.541   7.247  1.9510  0.1445 -1.4759
 4030TIP3    H233650   1.417   6.513   7.098 -2.0241 -0.4310 -1.4192
 4031TIP3   OH233651   1.839   6.091   0.734  0.2719 -0.0240 -0.4666
 4031TIP3    H133652   1.865   6.169   0.783  0.7509  0.1452 -0.9740
 4031TIP3    H233653   1.809   6.124   0.649 -1.1773 -0.2602 -0.0637
 4032TIP3   OH233654   4.468   3.034   7.846  0.1477 -0.1008 -0.1857
 4032TIP3    H133655   4.437   3.123   7.831  1.3729  0.1434 -1.4678
 4032TIP3    H233656   4.423   2.982   7.779  1.9194  0.1614 -1.6748
 4033TIP3   OH233657   6.776   1.422   2.175  0.3571 -0.0771 -0.2757
 4033TIP3    H133658   6.713   1.350   2.186  0.0194  0.3170  0.4131
 4033TIP3    H233659   6.856   1.390   2.218 -0.2257  0.5034  1.3008
 4034TIP3   OH233660   1.277   4.413   0.570 -0.4597  0.0481 -0.4749
 4034TIP3    H133661   1.206   4.388   0.512 -0.7557 -1.1163  0.3480
 4034TIP3    H233662   1.260   4.505   0.592 -2.1162 -0.4011  0.2559
 4035TIP3   OH233663   4.910   1.716   1.569  0.0837 -0.1872 -0.6064
 4035TIP3    H133664   4.923   1.692   1.477 -0.4025  0.1552 -0.7659
 4035TIP3    H233665   4.867   1.639   1.607 -1.9444  0.5687 -1.2357
 4036TIP3   OH233666   6.474   6.159   0.718  0.2970  0.0246  0.2572
 4036TIP3    H133667   6.394   6.118   0.684  0.8243 -0.4000 -0.4994
 4036TIP3    H233668   6.476   6.245   0.677 -0.8141  0.8498  1.8507
 4037TIP3   OH233669   2.083   4.206   1.792 -0.5588  0.1493 -0.0174
 4037TIP3    H133670   2.034   4.288   1.802 -0.2098  0.3462  0.1259
 4037TIP3    H233671   2.157   4.230   1.735  0.2234  0.2371  0.9979
 4038TIP3   OH233672   1.562   2.526   2.337  0.0045 -0.1328  0.3070
 4038TIP3    H133673   1.638   2.469   2.344 -0.8432 -1.1808  1.4867
 4038TIP3    H233674   1.487   2.468   2.350 -0.8998  1.2155  1.5105
 4039TIP3   OH233675   2.246   4.764   2.585  0.2066 -0.2337  0.3599
 4039TIP3    H133676   2.164   4.744   2.540  0.1757  0.1215  0.2589
 4039TIP3    H233677   2.265   4.685   2.636 -0.1695 -0.3364  0.3440
 4040TIP3   OH233678   3.458   0.784   7.778  0.0226 -0.3888  0.3993
 4040TIP3    H133679   3.413   0.818   7.855 -0.6172 -1.5884  0.5842
 4040TIP3    H233680   3.539   0.834   7.772 -1.0522  1.4166  0.4154
 4041TIP3   OH233681   2.960   5.572   0.031  0.0637  0.2502 -0.3148
 4041TIP3    H133682   2.930   5.576  -0.059 -0.1682  1.1379 -0.2112
 4041TIP3    H233683   2.982   5.663   0.053 -0.6807  0.1829  0.7882
 4042TIP3   OH233684   1.237   6.334   2.798 -0.1635 -0.1064  0.1267
 4042TIP3    H133685   1.219   6.427   2.784  0.7109  0.0967  0.3086
 4042TIP3    H233686   1.157   6.301   2.839  0.8160  1.4208  3.7434
 4043TIP3   OH233687   1.498   6.968   2.846 -0.5202  0.5852  0.1911
 4043TIP3    H133688   1.462   6.928   2.766 -0.6457 -0.1372  0.5963
 4043TIP3    H233689   1.540   7.048   2.815  0.8022 -0.4453 -0.8671
 4044TIP3   OH233690   5.364   7.028   1.070  0.1528  0.6964 -0.6032
 4044TIP3    H133691   5.293   6.990   1.019  1.4934  0.7208 -2.5895
 4044TIP3    H233692   5.441   6.974   1.049  1.1948  1.9642 -0.2188
 4045TIP3   OH233693   4.724   6.884   1.698  0.1363  0.0687 -0.1197
 4045TIP3    H133694   4.665   6.957   1.680  0.6817  0.1852 -1.6221
 4045TIP3    H233695   4.785   6.917   1.764  0.0169  0.7847 -0.3652
 4046TIP3   OH233696   4.025   5.952   7.469 -0.2467 -0.3901  0.1417
 4046TIP3    H133697   3.937   5.967   7.435  0.0530 -0.5688 -0.7489
 4046TIP3    H233698   4.037   6.017   7.538 -1.1811 -0.5628  0.4743
 4047TIP3   OH233699   2.001   3.485   1.167  0.4530 -0.8373  0.0853
 4047TIP3    H133700   1.965   3.509   1.252  0.2002  2.3581 -0.7817
 4047TIP3    H233701   1.978   3.393   1.156  0.6465 -1.4107  3.4919
 4048TIP3   OH233702   0.864   0.684   1.015  0.1396  0.2926 -0.2222
 4048TIP3    H133703   0.817   0.671   0.933  0.1878 -1.0201 -0.0625
 4048TIP3    H233704   0.887   0.777   1.015 -1.7291  0.7968 -0.6822
 4049TIP3   OH233705   3.066   3.856   3.378 -0.7215  0.5015 -0.4562
 4049TIP3    H133706   3.147   3.907   3.379 -0.0781 -0.4915  0.2800
 4049TIP3    H233707   2.997   3.919   3.398 -0.0723  1.2624 -0.5901
 4050TIP3   OH233708   2.478   6.730   2.382  0.4062 -0.4127 -0.5169
 4050TIP3    H133709   2.447   6.703   2.295  0.1238 -0.3399 -0.4419
 4050TIP3    H233710   2.521   6.652   2.417  1.0630 -0.2607 -0.9641
 4051TIP3   OH233711   4.506   1.948   2.043 -0.2016 -0.0654 -0.2241
 4051TIP3    H133712   4.468   2.034   2.062  1.1821  0.3127  0.9924
 4051TIP3    H233713   4.557   1.927   2.121  0.3040 -1.5460 -0.9289
 4052TIP3   OH233714   1.484   0.206   0.571 -0.1894 -0.1937 -0.1683
 4052TIP3    H133715   1.457   0.188   0.661 -0.1680 -1.7179 -0.4371
 4052TIP3    H233716   1.543   0.280   0.577 -1.3775  0.7003  0.8930
 4053TIP3   OH233717   2.104   2.686   7.954  0.4656 -0.4661 -0.1594
 4053TIP3    H133718   2.123   2.746   8.025  1.2544 -2.0411  1.0250
 4053TIP3    H233719   2.164   2.712   7.884 -0.1040  0.8988 -0.1598
 4054TIP3   OH233720   7.017   4.354   7.999 -0.0305 -0.1183  0.6307
 4054TIP3    H133721   7.108   4.354   8.031  0.5344 -1.5684 -0.8089
 4054TIP3    H233722   6.965   4.378   8.076  1.4260 -1.2048  2.0402
 4055TIP3   OH233723   5.034   4.029   1.496 -0.1908 -0.0508  0.0503
 4055TIP3    H133724   5.124   4.041   1.466 -0.5747 -0.0868 -1.1700
 4055TIP3    H233725   5.008   3.945   1.459 -0.1518 -0.9395  1.9110
 4056TIP3   OH233726   2.763   3.989   2.515 -0.3811  0.0039 -0.1785
 4056TIP3    H133727   2.852   3.974   2.482 -0.0415  1.0774  0.2050
 4056TIP3    H233728   2.769   3.969   2.608 -0.2616  1.1367  0.0632
 4057TIP3   OH233729   4.037   6.404   0.128  0.2682  0.1323 -0.0134
 4057TIP3    H133730   4.028   6.396   0.223  0.8161 -0.7698 -0.0264
 4057TIP3    H233731   4.050   6.498   0.114  0.3350  0.2621  0.8176
 4058TIP3   OH233732   4.981   2.330   2.640 -0.7199 -0.5249  0.9103
 4058TIP3    H133733   5.046   2.381   2.689 -0.8488  0.5617 -0.0011
 4058TIP3    H233734   5.013   2.240   2.644  1.6753  0.1452 -0.6890
 4059TIP3   OH233735   1.709   6.018   7.638  0.3792 -0.1231 -0.6206
 4059TIP3    H133736   1.802   6.016   7.619  0.6918  0.5931  0.6917
 4059TIP3    H233737   1.693   6.106   7.673 -0.4110 -0.8202  0.8950
 4060TIP3   OH233738   2.341   5.419   7.561  0.3250  0.0765  0.0291
 4060TIP3    H133739   2.416   5.436   7.504  1.5591  0.7586  1.7624
 4060TIP3    H233740   2.309   5.506   7.585  0.3249 -0.1768  0.9754
 4061TIP3   OH233741   3.281   6.998   8.120 -0.1758  0.0360  0.0770
 4061TIP3    H133742   3.280   7.094   8.127  0.6228  0.0243  0.4041
 4061TIP3    H233743   3.301   6.981   8.029 -0.8469  0.1708 -0.1067
 4062TIP3   OH233744   0.262   6.408   0.072 -0.1915 -0.0180 -0.1666
 4062TIP3    H133745   0.234   6.475   0.134  0.0843  1.3269 -1.4491
 4062TIP3    H233746   0.350   6.383   0.101 -0.9181 -1.0434  1.2665
 4063TIP3   OH233747   1.046   5.523   1.250 -0.3234  0.7284 -0.0143
 4063TIP3    H133748   1.072   5.542   1.160  0.7175 -2.9798 -0.6454
 4063TIP3    H233749   1.125   5.489   1.292 -1.3630  0.1610  1.5748
 4064TIP3   OH233750   2.483   0.484   2.427  0.3200 -0.1433 -0.5657
 4064TIP3    H133751   2.499   0.552   2.362 -0.8443 -0.2477 -0.9942
 4064TIP3    H233752   2.472   0.404   2.375 -1.1227 -0.1395 -0.3214
 4065TIP3   OH233753   4.179   5.588   2.033  0.1252 -0.1218  0.5575
 4065TIP3    H133754   4.224   5.623   1.957  0.8136 -0.0564  0.9909
 4065TIP3    H233755   4.204   5.646   2.105  0.4284 -0.8676  1.0666
 4066TIP3   OH233756   0.071   4.492   1.967  0.3734 -0.3323 -0.4655
 4066TIP3    H133757   0.097   4.433   1.896  0.3500 -0.6958 -0.1714
 4066TIP3    H233758   0.001   4.446   2.013 -0.8635  0.6647 -1.2852
 4067TIP3   OH233759   2.459   4.502   8.146  0.1286  0.1351  0.7390
 4067TIP3    H133760   2.366   4.523   8.142  0.1070 -0.0124  0.4825
 4067TIP3    H233761   2.480   4.504   8.240 -0.1047  0.2837  0.7891
 4068TIP3   OH233762   6.558   1.593   1.360  0.1914 -1.1186 -0.1203
 4068TIP3    H133763   6.486   1.576   1.421 -0.3771 -0.1040 -0.4715
 4068TIP3    H233764   6.558   1.518   1.301 -0.3668 -1.2946  0.0955
 4069TIP3   OH233765   4.867   4.567   0.737  0.5977  0.6168 -0.1354
 4069TIP3    H133766   4.961   4.552   0.733  0.3451 -0.9027 -1.1747
 4069TIP3    H233767   4.834   4.501   0.798  0.1974  1.0963  0.1729
 4070TIP3   OH233768   0.989   2.356   0.462 -0.3714 -0.2852  0.0934
 4070TIP3    H133769   1.004   2.387   0.552  0.0895  0.1961 -0.1432
 4070TIP3    H233770   1.002   2.262   0.467  2.7756  0.0299 -0.0353
 4071TIP3   OH233771   5.735   3.569   0.774 -0.3707 -0.4542 -0.2057
 4071TIP3    H133772   5.735   3.537   0.864  0.3750 -1.1596 -0.4493
 4071TIP3    H233773   5.666   3.636   0.773 -1.7528 -1.8084  0.3829
 4072TIP3   OH233774   5.354   2.441   0.023  0.4705  0.2292 -0.3258
 4072TIP3    H133775   5.433   2.488   0.048  0.0003 -0.8352  4.0481
 4072TIP3    H233776   5.282   2.500   0.046 -0.1475  0.7870 -3.3095
 4073TIP3   OH233777   2.009   3.641   7.201  0.1985  0.1613  0.0120
 4073TIP3    H133778   2.092   3.619   7.158  0.2316 -0.8730  0.5917
 4073TIP3    H233779   1.943   3.589   7.156 -0.2681  1.4871 -0.9011
 4074TIP3   OH233780   4.931   3.218   7.787 -0.0629  0.4223  0.0283
 4074TIP3    H133781   4.857   3.167   7.754  0.7215 -0.5855 -0.2542
 4074TIP3    H233782   5.000   3.204   7.721  1.0678 -0.4310  1.3241
 4075TIP3   OH233783   0.399   4.572   2.618  0.0958  0.6428  0.4638
 4075TIP3    H133784   0.465   4.552   2.553 -0.5184  0.3826 -0.0862
 4075TIP3    H233785   0.428   4.527   2.697 -0.7935 -1.7556 -0.4858
 4076TIP3   OH233786   3.591   3.375   0.420  0.7797 -0.1300 -0.3702
 4076TIP3    H133787   3.548   3.307   0.473  2.0371  0.3375  1.3212
 4076TIP3    H233788   3.519   3.418   0.374 -0.4803 -0.1476  1.4524
 4077TIP3   OH233789   0.593   4.314   1.596  0.2765  0.0308 -0.8747
 4077TIP3    H133790   0.646   4.389   1.623  0.3250 -0.9074  1.9118
 4077TIP3    H233791   0.630   4.288   1.511  0.6988  2.6793 -1.5844
 4078TIP3   OH233792   2.871   5.005   1.256  0.1391  0.7953  0.0217
 4078TIP3    H133793   2.869   5.046   1.343 -0.9363  0.4041  0.2025
 4078TIP3    H233794   2.960   4.973   1.246 -0.2734 -1.1935  1.9685
 4079TIP3   OH233795   4.585   7.018   1.366 -0.4244  0.0292  0.2139
 4079TIP3    H133796   4.673   7.053   1.382 -0.4171  0.1216 -0.0227
 4079TIP3    H233797   4.554   7.067   1.291  0.9383 -2.8110 -2.4465
 4080TIP3   OH233798   0.956   5.690   0.751  0.5600 -0.4690 -0.5477
 4080TIP3    H133799   0.940   5.780   0.723 -0.7197 -0.3798  0.3790
 4080TIP3    H233800   0.889   5.638   0.706 -0.5630 -0.5269  1.1023
 4081TIP3   OH233801   0.342   6.568   1.555 -0.4009 -0.1060  0.0740
 4081TIP3    H133802   0.253   6.566   1.521 -0.1276 -0.7488 -0.6491
 4081TIP3    H233803   0.356   6.481   1.592  0.4000 -0.5457 -1.1628
 4082TIP3   OH233804   3.987   2.836   0.758  0.2931  0.0675 -0.1989
 4082TIP3    H133805   3.941   2.815   0.676 -0.4422  0.4035  0.1172
 4082TIP3    H233806   4.056   2.770   0.764  0.6500  0.3079 -1.3157
 4083TIP3   OH233807   3.570   6.377   3.447 -0.2387  0.3731 -0.0499
 4083TIP3    H133808   3.599   6.290   3.418 -0.4215  0.9341 -2.1014
 4083TIP3    H233809   3.479   6.382   3.420 -0.8239  0.4947  1.8424
 4084TIP3   OH233810   6.606   0.629   7.241 -0.2785 -0.3173 -0.1390
 4084TIP3    H133811   6.593   0.546   7.286 -0.2575 -0.3206 -0.1392
 4084TIP3    H233812   6.601   0.695   7.311 -2.7530 -0.0978 -0.4241
 4085TIP3   OH233813   0.913   3.679   1.718  0.0561 -0.2414 -0.2379
 4085TIP3    H133814   0.864   3.761   1.725 -0.2894 -0.1757 -2.4897
 4085TIP3    H233815   1.003   3.706   1.696  0.3787 -0.4333  0.8228
 4086TIP3   OH233816   0.974   6.036   0.113 -0.0490  0.5287  0.3740
 4086TIP3    H133817   1.038   6.080   0.170  0.6241  1.1558 -0.8263
 4086TIP3    H233818   0.963   6.096   0.039 -2.8173  0.9174  1.0056
 4087TIP3   OH233819   5.534   7.023   0.795  0.0307 -0.5019 -0.6226
 4087TIP3    H133820   5.487   7.069   0.864 -0.5313 -0.9532 -0.6898
 4087TIP3    H233821   5.474   7.025   0.720 -0.0762 -1.4484 -0.5859
 4088TIP3   OH233822   3.221   3.413   2.183 -0.4882  0.8210 -0.5541
 4088TIP3    H133823   3.193   3.423   2.274 -0.0677 -0.4259 -0.2651
 4088TIP3    H233824   3.255   3.323   2.178 -1.4066  0.5166 -2.1854
 4089TIP3   OH233825   3.232   0.352   7.434  0.1628  0.4739 -0.1199
 4089TIP3    H133826   3.299   0.285   7.427  0.3647  0.6643 -0.0311
 4089TIP3    H233827   3.150   0.306   7.419  0.3498  0.3351 -0.7763
 4090TIP3   OH233828   3.120   5.252   0.009 -0.3255 -0.0225  0.0321
 4090TIP3    H133829   3.032   5.259   0.045 -0.1547  1.2764  0.2629
 4090TIP3    H233830   3.126   5.325  -0.053  1.0734  0.8389  1.1201
 4091TIP3   OH233831   0.833   4.047   1.209  0.2236 -0.2439 -0.4198
 4091TIP3    H133832   0.897   4.106   1.170  0.0420 -0.2877 -0.7860
 4091TIP3    H233833   0.774   4.024   1.137 -1.5997  1.6223  0.3318
 4092TIP3   OH233834   4.382   3.118   7.348  0.5814  0.4911  0.0646
 4092TIP3    H133835   4.313   3.114   7.414 -0.4465 -0.1746 -1.0128
 4092TIP3    H233836   4.413   3.028   7.340  0.0360  0.3921 -1.0281
 4093TIP3   OH233837   2.120   0.890   0.846 -0.0930 -0.6911  0.2645
 4093TIP3    H133838   2.188   0.896   0.779 -0.0120  0.6333  0.4340
 4093TIP3    H233839   2.055   0.955   0.820 -1.0168 -1.5201  0.4341
 4094TIP3   OH233840   1.695   0.280   1.583  0.3037  0.4252 -0.6653
 4094TIP3    H133841   1.784   0.307   1.560  0.3409  0.7808 -0.1015
 4094TIP3    H233842   1.678   0.320   1.668 -0.6365  0.9012 -1.0646
 4095TIP3   OH233843   0.123   0.868   7.979 -0.2360 -0.3908  0.2585
 4095TIP3    H133844   0.165   0.879   8.064 -0.8329 -1.5326  0.7261
 4095TIP3    H233845   0.068   0.946   7.970  1.6692  0.9549 -0.2218
 4096TIP3   OH233846   5.326   3.929   7.968 -0.4251 -0.0514  0.3565
 4096TIP3    H133847   5.351   4.015   7.933  0.0234 -0.3410 -0.0418
 4096TIP3    H233848   5.399   3.904   8.025 -0.1560 -0.5550 -0.2060
 4097TIP3   OH233849   0.628   6.225   1.250 -0.2980 -0.5611  0.1787
 4097TIP3    H133850   0.592   6.261   1.332  1.5284  1.1369  0.3068
 4097TIP3    H233851   0.683   6.152   1.278 -0.7704 -0.8693  0.3166
 4098TIP3   OH233852   1.902   6.103   1.531 -0.1422  0.1630 -0.0319
 4098TIP3    H133853   1.882   6.156   1.454 -0.6845 -0.0161 -0.0217
 4098TIP3    H233854   1.974   6.047   1.503 -1.5571 -1.2488 -1.0520
 4099TIP3   OH233855   6.693   4.844   8.059  0.0913  0.0775  0.2440
 4099TIP3    H133856   6.628   4.815   7.996  0.7510 -2.8194  0.7492
 4099TIP3    H233857   6.670   4.935   8.078 -2.1905 -0.0540 -1.5180
 4100TIP3   OH233858   3.358   5.187   1.901  0.4892 -0.5382 -0.1400
 4100TIP3    H133859   3.290   5.141   1.852  1.2234 -1.7495 -0.0783
 4100TIP3    H233860   3.424   5.120   1.918  0.4327 -0.0952  2.1915
 4101TIP3   OH233861   2.199   4.556   3.354 -0.5020 -0.7729  1.0175
 4101TIP3    H133862   2.282   4.604   3.360  0.2181 -1.4653 -1.6776
 4101TIP3    H233863   2.219   4.468   3.384 -0.7723 -0.4875  2.0842
 4102TIP3   OH233864   4.768   0.449   0.617  0.4603 -0.4832 -0.1015
 4102TIP3    H133865   4.710   0.474   0.689  2.6497  0.6097  1.4282
 4102TIP3    H233866   4.731   0.493   0.541 -0.9140 -0.1165  0.7360
 4103TIP3   OH233867   4.985   2.062   7.949  0.3853 -0.1136 -0.4547
 4103TIP3    H133868   4.950   2.094   7.866  0.3715 -1.1679 -0.8765
 4103TIP3    H233869   5.077   2.042   7.930  1.4700  3.1308  0.7759
 4104TIP3   OH233870   3.234   1.883   8.055 -0.0409  0.1567  0.2424
 4104TIP3    H133871   3.263   1.793   8.044  0.6700  0.5622 -1.5175
 4104TIP3    H233872   3.157   1.890   7.998  0.7742  1.0331 -0.7813
 4105TIP3   OH233873   2.972   6.937   2.483 -0.3094  0.0021  0.0839
 4105TIP3    H133874   2.956   6.855   2.436 -1.4174 -0.0147  0.4453
 4105TIP3    H233875   2.889   6.985   2.476  0.7974  1.8696 -1.5774
 4106TIP3   OH233876   0.120   4.868   0.534  0.0867  0.0580 -0.2571
 4106TIP3    H133877   0.120   4.964   0.541  1.3263  0.0501  0.1812
 4106TIP3    H233878   0.199   4.849   0.483 -0.4425 -0.7090 -0.8074
 4107TIP3   OH233879   4.270   2.953   3.093  0.0630  0.5210 -0.2151
 4107TIP3    H133880   4.197   2.977   3.150 -1.2795  0.3579 -1.7775
 4107TIP3    H233881   4.261   2.858   3.084 -0.0503  0.6120 -1.0814
 4108TIP3   OH233882   2.709   4.299   0.921 -0.0612  0.0162 -0.4355
 4108TIP3    H133883   2.650   4.371   0.901  0.4306  1.0893  1.6683
 4108TIP3    H233884   2.773   4.336   0.983 -0.1540 -2.3444  1.2256
 4109TIP3   OH233885   0.457   6.209   2.480  0.3277  0.0506  0.2864
 4109TIP3    H133886   0.410   6.283   2.519  0.4919  0.3909 -0.1446
 4109TIP3    H233887   0.412   6.193   2.397  0.6067 -0.0040  0.1446
 4110TIP3   OH233888   4.202   2.149   1.626  0.3503  0.0322  0.0709
 4110TIP3    H133889   4.277   2.179   1.678 -1.0390  1.2005  1.5025
 4110TIP3    H233890   4.172   2.227   1.580 -1.4386  0.2235  1.4334
 4111TIP3   OH233891   4.775   2.957   7.030 -0.3998  0.0279  0.0342
 4111TIP3    H133892   4.769   3.044   7.071 -0.4632 -0.0673  0.2248
 4111TIP3    H233893   4.812   2.901   7.098  0.3122  0.0598 -0.3131
 4112TIP3   OH233894   6.870   6.449   0.050 -0.5053  0.2745 -0.2844
 4112TIP3    H133895   6.790   6.446   0.102 -2.0317 -2.8345 -2.5338
 4112TIP3    H233896   6.842   6.479  -0.036  1.0965  0.6830 -0.6986
 4113TIP3   OH233897   3.027   1.895   0.205  0.0513  0.2646  0.3738
 4113TIP3    H133898   2.986   1.941   0.132  1.7812 -0.2001 -0.9496
 4113TIP3    H233899   2.963   1.829   0.230 -0.4588  0.2147 -0.9666
 4114TIP3   OH233900   1.601   5.109   0.173  0.0301 -0.1141 -0.2147
 4114TIP3    H133901   1.629   5.028   0.215 -0.7458  0.0852  0.7296
 4114TIP3    H233902   1.682   5.159   0.161  0.4429 -0.7857 -0.2838
 4115TIP3   OH233903   3.841   2.670   1.227  0.2037 -0.0680 -0.3067
 4115TIP3    H133904   3.833   2.660   1.322 -1.9962  0.5340 -0.3679
 4115TIP3    H233905   3.759   2.634   1.193  0.1248  1.4330 -1.8227
 4116TIP3   OH233906   0.507   2.646   2.112 -0.2058 -0.2604 -0.6236
 4116TIP3    H133907   0.459   2.671   2.191  0.4155 -0.1433 -0.2808
 4116TIP3    H233908   0.501   2.550   2.109 -0.3618 -0.2540 -0.5263
 4117TIP3   OH233909   0.487   6.617   0.721 -0.3494 -0.5558 -0.2969
 4117TIP3    H133910   0.496   6.537   0.670  0.2091  0.1548 -1.3542
 4117TIP3    H233911   0.573   6.659   0.716 -0.7677  0.3512 -0.1802
 4118TIP3   OH233912   3.678   0.133   7.692 -0.1633 -0.6861 -0.0102
 4118TIP3    H133913   3.632   0.213   7.665 -0.8109 -0.0375  2.6939
 4118TIP3    H233914   3.644   0.065   7.634 -0.3806  0.7833 -1.6956
 4119TIP3   OH233915   0.638   5.549   7.494  0.2595  0.0487 -0.2841
 4119TIP3    H133916   0.572   5.617   7.502  0.6073  0.2069  2.1727
 4119TIP3    H233917   0.652   5.519   7.584  2.6330 -0.8148 -0.8608
 4120TIP3   OH233918   2.013   1.171   7.715 -0.7160 -0.2594 -0.2089
 4120TIP3    H133919   1.983   1.090   7.756  0.2604  0.2777  1.6693
 4120TIP3    H233920   1.933   1.215   7.688 -1.3656 -0.9465  0.5436
 4121TIP3   OH233921   6.071   3.739   2.051 -0.0854 -0.2759  0.0912
 4121TIP3    H133922   6.042   3.830   2.042 -1.9120 -0.9378 -1.5382
 4121TIP3    H233923   6.075   3.724   2.146 -2.3604  0.7811  0.4286
 4122TIP3   OH233924   2.574   4.788   8.182 -0.1567 -0.2193  0.8197
 4122TIP3    H133925   2.540   4.770   8.270 -0.2175  0.9999  1.0582
 4122TIP3    H233926   2.496   4.813   8.132  0.1414  0.9309  0.9226
 4123TIP3   OH233927   6.663   0.177   7.696 -0.3353 -0.0712  0.5015
 4123TIP3    H133928   6.597   0.170   7.627  1.4835 -1.2627 -1.2491
 4123TIP3    H233929   6.700   0.089   7.702  2.1682  0.8803  0.1960
 4124TIP3   OH233930   4.972   3.397   7.261 -0.3191  0.0874  0.1463
 4124TIP3    H133931   5.063   3.395   7.293 -0.4486 -0.4432  0.4954
 4124TIP3    H233932   4.980   3.387   7.167 -0.0590 -1.3427  0.2897
 4125TIP3   OH233933   6.270   5.733   0.707 -0.2728  0.0002 -0.5789
 4125TIP3    H133934   6.227   5.648   0.718  0.2792 -0.3809 -1.2632
 4125TIP3    H233935   6.310   5.729   0.620  2.4806 -0.2929  0.5704
 4126TIP3   OH233936   4.694   3.064   0.622 -0.1158  0.2318 -0.1529
 4126TIP3    H133937   4.732   3.130   0.565 -0.3234 -0.0572 -0.6311
 4126TIP3    H233938   4.720   3.090   0.710  0.6222  0.4033 -0.4203
 4127TIP3   OH233939   5.399   4.463   7.429 -0.3959 -0.6468  0.1459
 4127TIP3    H133940   5.404   4.520   7.352  0.7463 -0.5654  0.2660
 4127TIP3    H233941   5.463   4.500   7.490 -0.2409 -1.5615  0.5518
 4128TIP3   OH233942   0.579   6.821   3.199 -0.2221 -0.4190  0.4448
 4128TIP3    H133943   0.562   6.904   3.243 -0.6905 -0.2103 -0.1213
 4128TIP3    H233944   0.516   6.760   3.237 -0.9538 -0.1219 -0.2553
 4129TIP3   OH233945   1.319   6.809   8.083 -0.1932  0.2116  0.0235
 4129TIP3    H133946   1.250   6.834   8.021 -0.5419 -1.2608 -0.2089
 4129TIP3    H233947   1.311   6.873   8.154 -1.2892  0.5379 -0.3687
 4130TIP3   OH233948   4.543   6.670   1.784  0.0871  0.0305  0.3692
 4130TIP3    H133949   4.533   6.601   1.719 -0.4321 -0.2657  0.7514
 4130TIP3    H233950   4.630   6.706   1.769 -0.1339  0.1509 -0.6670
 4131TIP3   OH233951   6.424   1.445   1.581  0.2552 -0.2607  0.5700
 4131TIP3    H133952   6.480   1.388   1.635 -0.6181  0.2603  2.0682
 4131TIP3    H233953   6.434   1.532   1.620 -0.0739  0.2052 -0.3758
 4132TIP3   OH233954   4.651   3.119   2.873  0.3155 -0.5867  0.2251
 4132TIP3    H133955   4.609   3.190   2.825 -0.3469 -0.2862  1.2281
 4132TIP3    H233956   4.607   3.040   2.842 -2.9645 -0.1100  3.0853
 4133TIP3   OH233957   5.918   1.277   1.898  0.2245  0.4917 -0.3294
 4133TIP3    H133958   5.882   1.362   1.873 -0.6315  0.4783  0.8208
 4133TIP3    H233959   5.880   1.258   1.983  0.4182 -1.0454 -0.5542
 4134TIP3   OH233960   3.987   1.070   2.293  0.4168 -0.2930  0.0179
 4134TIP3    H133961   4.060   1.024   2.334  0.9849  1.1852  0.7079
 4134TIP3    H233962   4.027   1.122   2.223 -0.0569  0.0624  0.0058
 4135TIP3   OH233963   2.066   5.500   7.381 -0.1070  0.2651 -0.2061
 4135TIP3    H133964   2.141   5.483   7.325 -0.1606  2.8372 -1.1777
 4135TIP3    H233965   1.998   5.440   7.348  1.0499 -1.0587 -0.2523
 4136TIP3   OH233966   2.050   1.567   7.296  0.2984  0.1889  0.5669
 4136TIP3    H133967   1.984   1.636   7.293 -1.6240 -1.5754 -0.0035
 4136TIP3    H233968   2.089   1.575   7.383 -2.1886 -0.0203  1.7969
 4137TIP3   OH233969   4.746   3.871   0.894 -0.4570 -0.0728  0.2840
 4137TIP3    H133970   4.802   3.948   0.886  0.4655 -0.7992 -0.5771
 4137TIP3    H233971   4.661   3.899   0.859  0.1582  0.2825 -0.9872
 4138TIP3   OH233972   4.759   6.938   6.947  0.2195 -0.1240 -0.1533
 4138TIP3    H133973   4.796   7.026   6.941  0.6673 -0.3828 -1.5828
 4138TIP3    H233974   4.828   6.880   6.912 -1.0035 -0.7527 -1.6674
 4139TIP3   OH233975   2.465   5.793   7.932 -0.2117 -0.4884 -0.2733
 4139TIP3    H133976   2.442   5.826   8.019 -0.4074 -2.3733  0.4215
 4139TIP3    H233977   2.505   5.868   7.888 -0.5397  0.6327  1.2690
 4140TIP3   OH233978   5.174   3.453   0.192  0.5778 -0.3828 -0.5871
 4140TIP3    H133979   5.268   3.471   0.204  0.1718  0.6967  1.4102
 4140TIP3    H233980   5.150   3.399   0.267 -0.8633  1.3934  0.3179
 4141TIP3   OH233981   1.680   4.390   2.244  0.0714 -0.1675 -0.2956
 4141TIP3    H133982   1.588   4.366   2.235 -0.1078 -0.8742  2.4226
 4141TIP3    H233983   1.681   4.454   2.315  1.5848  0.6631 -1.0287
 4142TIP3   OH233984   4.343   1.610   2.285 -0.0824 -0.4680 -0.0718
 4142TIP3    H133985   4.344   1.518   2.259 -1.7322 -0.4618 -0.2474
 4142TIP3    H233986   4.263   1.620   2.336  1.0321  0.4686  1.5755
 4143TIP3   OH233987   4.797   6.888   2.294 -0.3218 -0.0499  0.0097
 4143TIP3    H133988   4.775   6.930   2.211  1.0546  0.2414 -0.2346
 4143TIP3    H233989   4.717   6.894   2.347 -0.9284  0.5685 -0.9618
 4144TIP3   OH233990   4.631   0.991   2.212  0.8794 -0.5362 -0.6938
 4144TIP3    H133991   4.659   0.960   2.126  2.4519  0.9666 -0.7702
 4144TIP3    H233992   4.660   0.923   2.273 -1.0356 -2.0591 -1.3637
 4145TIP3   OH233993   0.158   4.178   0.026 -0.4955  0.7486  0.6706
 4145TIP3    H133994   0.210   4.101   0.005  0.4038  0.5575  3.2425
 4145TIP3    H233995   0.195   4.248  -0.028 -1.8544 -0.6404 -2.3307
 4146TIP3   OH233996   4.980   6.858   1.544 -0.3130  0.7074  0.3216
 4146TIP3    H133997   4.886   6.861   1.563 -0.4588  3.0176 -0.4666
 4146TIP3    H233998   4.989   6.791   1.476 -0.8338 -2.0434  2.7821
 4147TIP3   OH233999   0.809   4.618   1.390 -0.1405 -0.0082 -0.0086
 4147TIP3    H134000   0.753   4.542   1.374  1.3727 -0.8964 -1.4807
 4147TIP3    H234001   0.800   4.672   1.311  1.6831 -0.6368 -0.7193
 4148TIP3   OH234002   1.321   3.407   1.800  0.6179 -0.4166  0.6751
 4148TIP3    H134003   1.338   3.316   1.825  0.8752 -0.8770 -1.0149
 4148TIP3    H234004   1.348   3.411   1.708 -0.6610  1.0156  0.3332
 4149TIP3   OH234005   1.978   2.027   2.792  0.3489  0.2785 -0.0608
 4149TIP3    H134006   1.909   2.093   2.792  1.1401  1.1175  0.6935
 4149TIP3    H234007   2.051   2.067   2.838  2.4523  0.5538 -3.2779
 4150TIP3   OH234008   1.982   2.225   3.153 -0.0054 -0.3085  0.3087
 4150TIP3    H134009   2.075   2.209   3.167 -0.4009 -1.8570  1.4082
 4150TIP3    H234010   1.941   2.139   3.163 -1.3568 -0.0600 -2.1657
 4151TIP3   OH234011   0.582   4.386   0.072 -0.1641 -0.2050  0.3320
 4151TIP3    H134012   0.503   4.345   0.037 -0.7168  0.5361  0.6865
 4151TIP3    H234013   0.621   4.429  -0.004 -1.1754  1.1046  0.5165
 4152TIP3   OH234014   4.436   5.815   7.259 -0.5535  0.4013 -0.3395
 4152TIP3    H134015   4.361   5.874   7.247  0.3321  1.3855 -1.2521
 4152TIP3    H234016   4.505   5.871   7.295 -0.4122 -0.6267  1.0843
 4153TIP3   OH234017   6.743   0.083   0.810  0.3313  0.1807 -0.0378
 4153TIP3    H134018   6.702   0.034   0.740  0.5306 -0.8347  0.5448
 4153TIP3    H234019   6.713   0.041   0.891  0.2800  1.1880  0.4841
 4154TIP3   OH234020   1.209   2.017   1.611 -0.1102 -0.1189  0.2320
 4154TIP3    H134021   1.207   2.051   1.700 -0.5117  0.3910  0.0324
 4154TIP3    H234022   1.209   1.922   1.622 -1.0001 -0.0672  0.7659
 4155TIP3   OH234023   7.018   2.059   1.526  0.2858 -0.2929  0.0955
 4155TIP3    H134024   6.967   1.989   1.486  0.3610 -0.6118  0.5520
 4155TIP3    H234025   6.972   2.140   1.501 -0.6588 -0.5966  0.8148
 4156TIP3   OH234026   4.264   3.281   3.370 -0.6714  0.2981  0.3140
 4156TIP3    H134027   4.283   3.375   3.377 -1.6589  0.7263 -1.7699
 4156TIP3    H234028   4.170   3.277   3.352 -1.1627 -1.2850  2.7879
 4157TIP3   OH234029   0.155   4.548   2.280  0.6302 -0.1890 -0.4826
 4157TIP3    H134030   0.217   4.481   2.252  1.2531 -0.0200  0.4364
 4157TIP3    H234031   0.108   4.508   2.353 -0.5623 -0.4197 -1.3589
 4158TIP3   OH234032   3.748   5.710   3.034  0.2928 -0.5634 -0.1197
 4158TIP3    H134033   3.698   5.786   3.063 -0.9056 -0.8682 -1.2780
 4158TIP3    H234034   3.823   5.748   2.987  0.3578 -0.1020  0.3447
 4159TIP3   OH234035   1.094   5.469   7.592  0.1382  0.5054 -0.0164
 4159TIP3    H134036   1.122   5.391   7.543  0.5844  1.4631 -1.3423
 4159TIP3    H234037   1.025   5.507   7.538 -0.3326  0.8410  0.8065
 4160TIP3   OH234038   2.654   2.768   0.311 -0.4042  0.2194 -0.0287
 4160TIP3    H134039   2.687   2.680   0.330  3.6229  1.9286  2.2849
 4160TIP3    H234040   2.667   2.778   0.217  0.9082 -1.0965 -0.0307
 4161TIP3   OH234041   5.673   0.847   7.473  0.6056  0.0604 -0.0592
 4161TIP3    H134042   5.635   0.921   7.426  1.9240  1.4336  0.9388
 4161TIP3    H234043   5.666   0.773   7.413 -0.5602  1.0398 -1.1631
 4162TIP3   OH234044   3.905   1.768   2.468  0.0796 -0.0487  0.7726
 4162TIP3    H134045   3.928   1.806   2.384  1.0513 -1.5385  0.3150
 4162TIP3    H234046   3.875   1.842   2.521 -1.3406  0.7921 -1.1188
 4163TIP3   OH234047   3.581   4.322   0.236 -0.3777 -0.1092 -0.2694
 4163TIP3    H134048   3.656   4.269   0.209 -0.4118 -0.9250  1.1252
 4163TIP3    H234049   3.619   4.396   0.284 -0.4525 -0.7957  0.8883
 4164TIP3   OH234050   3.697   5.953   7.707 -0.3023 -0.0986 -0.2526
 4164TIP3    H134051   3.680   6.037   7.749 -0.6267  0.0449 -0.6637
 4164TIP3    H234052   3.652   5.958   7.622  1.6821  0.2506 -1.3415
 4165TIP3   OH234053   0.513   0.477   2.754 -0.2836  0.0260 -0.3130
 4165TIP3    H134054   0.539   0.418   2.825 -1.3751 -0.1033 -0.0088
 4165TIP3    H234055   0.524   0.565   2.791  1.6087  0.0531 -0.8588
 4166TIP3   OH234056   4.971   3.679   2.191 -0.3335  0.5562 -0.6568
 4166TIP3    H134057   4.993   3.714   2.105  2.2813 -2.2830 -1.3524
 4166TIP3    H234058   4.904   3.612   2.174 -2.2660  2.2068  0.0747
 4167TIP3   OH234059   0.652   1.403   1.120  0.0379  0.3229  0.3409
 4167TIP3    H134060   0.708   1.419   1.196 -2.0138 -0.1379  2.0388
 4167TIP3    H234061   0.595   1.331   1.147  0.3036 -0.9767 -2.2729
 4168TIP3   OH234062   4.544   5.625   1.912 -0.0701  0.0108  0.4565
 4168TIP3    H134063   4.578   5.712   1.894 -0.5721  0.6139  2.1932
 4168TIP3    H234064   4.457   5.625   1.872  0.0358  0.2121  0.2242
 4169TIP3   OH234065   4.329   0.294   8.158  0.2998  0.2528 -0.6449
 4169TIP3    H134066   4.302   0.366   8.101 -2.6115 -0.7119 -0.6386
 4169TIP3    H234067   4.300   0.215   8.113  0.8707 -0.7351  0.6576
 4170TIP3   OH234068   3.063   6.926   1.086  0.6681 -1.0656  0.3338
 4170TIP3    H134069   3.015   6.938   1.005  0.4770  0.9863  0.7028
 4170TIP3    H234070   3.030   6.843   1.122 -1.8749 -0.2420  0.0778
 4171TIP3   OH234071   1.852   3.479   7.053  0.1368 -0.4414 -0.3072
 4171TIP3    H134072   1.833   3.402   7.000  0.2304 -0.7366  0.0869
 4171TIP3    H234073   1.775   3.534   7.044 -1.1859 -1.8302  1.6483
 4172TIP3   OH234074   2.368   4.063   0.040  0.0101 -0.7188  0.0123
 4172TIP3    H134075   2.343   3.986  -0.010  0.2463  0.2526 -1.6549
 4172TIP3    H234076   2.463   4.070   0.029 -0.1982  0.6766 -1.1842
 4173TIP3   OH234077   3.809   0.783   1.152  0.4021 -0.4330  0.0032
 4173TIP3    H134078   3.815   0.782   1.056 -0.2164  0.2319 -0.0529
 4173TIP3    H234079   3.720   0.754   1.171  0.3824 -0.1449  0.3537
 4174TIP3   OH234080   3.529   5.661   1.171  0.2629  0.6191  0.0543
 4174TIP3    H134081   3.546   5.573   1.206  0.5811  0.9357  0.7077
 4174TIP3    H234082   3.531   5.649   1.076 -3.0068 -0.7580  0.0226
 4175TIP3   OH234083   0.246   1.954   8.165  0.4834 -0.6486 -0.2276
 4175TIP3    H134084   0.318   1.955   8.103  0.1658  0.2637 -0.6032
 4175TIP3    H234085   0.191   1.881   8.137 -0.1080  0.2709 -1.5657
 4176TIP3   OH234086   1.907   0.086   1.404  0.4193  0.2981 -0.0696
 4176TIP3    H134087   1.919   0.140   1.482  0.1801  0.5300 -0.1932
 4176TIP3    H234088   1.868   0.005   1.438  1.6554 -0.1783  0.2382
 4177TIP3   OH234089   0.122   3.443   1.139 -0.0983 -0.1626  0.3956
 4177TIP3    H134090   0.052   3.421   1.078  0.4699  0.6256 -0.5822
 4177TIP3    H234091   0.194   3.386   1.113 -0.1564 -0.4887  0.9485
 4178TIP3   OH234092   0.721   3.947   7.086  0.0334 -0.2472 -0.7223
 4178TIP3    H134093   0.806   3.904   7.083  0.9608  1.5078 -0.6318
 4178TIP3    H234094   0.719   4.003   7.008 -0.5007  0.6886 -0.0652
 4179TIP3   OH234095   1.897   4.590   7.908 -0.2591  0.2135 -0.0584
 4179TIP3    H134096   1.986   4.612   7.882 -0.7484  1.1000 -1.0216
 4179TIP3    H234097   1.906   4.504   7.950  0.9371 -0.0831 -0.8501
 4180TIP3   OH234098   5.843   4.815   7.170 -0.1180 -0.4999  0.1793
 4180TIP3    H134099   5.750   4.818   7.191 -0.6964 -0.3934 -2.1168
 4180TIP3    H234100   5.869   4.724   7.183 -1.0428 -0.9470 -0.9336
 4181TIP3   OH234101   4.086   0.067   2.481 -0.3886 -0.5423 -0.4753
 4181TIP3    H134102   4.032   0.132   2.437  2.6719  2.6320  0.0286
 4181TIP3    H234103   4.114   0.110   2.562 -0.0048 -3.4270  1.0736
 4182TIP3   OH234104   2.034   6.002   0.366  0.4050  0.5190  0.1638
 4182TIP3    H134105   2.094   6.048   0.425 -0.5396  1.2353  0.5767
 4182TIP3    H234106   1.962   5.973   0.421  0.2769 -0.2051 -0.3585
 4183TIP3   OH234107   4.529   5.486   7.496 -0.0665 -0.4151  0.3689
 4183TIP3    H134108   4.577   5.442   7.567 -2.0392 -1.4974  1.1077
 4183TIP3    H234109   4.544   5.579   7.511  1.1684 -0.6954  1.0160
 4184TIP3   OH234110   5.660   4.476   3.592  0.1304 -0.0616  0.4203
 4184TIP3    H134111   5.633   4.399   3.643  0.2328  0.3544  1.1142
 4184TIP3    H234112   5.586   4.536   3.599 -0.3684 -0.4836 -0.9602
 4185TIP3   OH234113   5.445   5.209   2.264  0.0829 -0.5421 -0.3378
 4185TIP3    H134114   5.386   5.211   2.189 -0.4373 -0.7689  0.0576
 4185TIP3    H234115   5.421   5.286   2.315  0.7052 -0.1691 -0.6029
 4186TIP3   OH234116   2.323   0.193   1.457  0.2236  0.0778 -0.2836
 4186TIP3    H134117   2.418   0.201   1.466  0.1728 -1.5478  2.5960
 4186TIP3    H234118   2.309   0.186   1.362  3.0642 -0.6904 -0.7383
 4187TIP3   OH234119   0.799   1.837   1.968  0.6072  0.5007  0.1002
 4187TIP3    H134120   0.830   1.840   2.059 -2.5019  1.5458  1.2780
 4187TIP3    H234121   0.821   1.923   1.932  0.4877  0.6657  0.4137
 4188TIP3   OH234122   1.107   1.786   3.306  0.1908  0.0343 -0.3220
 4188TIP3    H134123   1.190   1.815   3.269  0.6986 -1.1762 -0.1850
 4188TIP3    H234124   1.054   1.865   3.312  1.2252  0.7716 -0.6924
 4189TIP3   OH234125   5.174   6.992   2.449 -0.0477  0.0590 -0.1078
 4189TIP3    H134126   5.107   7.003   2.381  0.3070  0.4980 -0.3933
 4189TIP3    H234127   5.221   7.076   2.449  0.9380 -0.4897 -0.3696
 4190TIP3   OH234128   5.615   6.204   2.267 -0.2002 -0.3018  0.1616
 4190TIP3    H134129   5.548   6.243   2.211 -0.8969 -1.0117  0.4801
 4190TIP3    H234130   5.633   6.118   2.228 -0.2944 -0.5773  0.7132
 4191TIP3   OH234131   1.809   2.464   8.029 -0.1405  0.0518 -0.2602
 4191TIP3    H134132   1.795   2.402   8.101  1.3539  0.9137  0.8297
 4191TIP3    H234133   1.722   2.478   7.992 -0.3751 -4.0672 -1.8039
 4192TIP3   OH234134   6.526   4.866   3.311  0.5588  0.1817  0.3471
 4192TIP3    H134135   6.531   4.907   3.397  0.1295  0.5553  0.1991
 4192TIP3    H234136   6.607   4.815   3.303  1.2171  1.1808  0.4440
 4193TIP3   OH234137   0.925   3.745   2.048 -0.5705 -0.3545  0.1767
 4193TIP3    H134138   0.831   3.728   2.034 -0.7976  0.8453  0.1083
 4193TIP3    H234139   0.961   3.752   1.959 -0.0862 -2.3633  0.1794
 4194TIP3   OH234140   6.420   2.213   0.773 -0.7867 -0.2722 -0.1867
 4194TIP3    H134141   6.467   2.146   0.821 -0.8046 -0.2756 -0.1741
 4194TIP3    H234142   6.488   2.267   0.733 -0.7002  0.9626  1.4998
 4195TIP3   OH234143   5.627   4.011   0.332  0.5334  0.2398  0.0309
 4195TIP3    H134144   5.554   4.004   0.392  0.9229  1.3585  0.6626
 4195TIP3    H234145   5.703   4.027   0.388  1.5641 -2.3295 -0.4756
 4196TIP3   OH234146   5.066   5.776   1.839 -0.3416  0.0823  0.3641
 4196TIP3    H134147   5.075   5.845   1.905  1.9973  0.7473 -0.5386
 4196TIP3    H234148   5.058   5.823   1.756 -2.1478 -0.7532  0.0173
 4197TIP3   OH234149   5.142   2.992   3.422  0.7381  0.2760 -0.3843
 4197TIP3    H134150   5.232   3.013   3.396  0.9023  0.0080 -0.0438
 4197TIP3    H234151   5.113   3.069   3.471  0.6244  0.5483 -0.8783
 4198TIP3   OH234152   5.907   4.870   3.941  0.2794  0.0724 -0.0219
 4198TIP3    H134153   5.839   4.913   3.889 -0.2274 -0.6996 -0.0096
 4198TIP3    H234154   5.871   4.869   4.030  0.6710  0.4093  0.1417
 4199TIP3   OH234155   3.578   0.359   7.476 -0.3970 -0.5732 -0.1504
 4199TIP3    H134156   3.519   0.300   7.429 -1.4522  0.5840 -0.3344
 4199TIP3    H234157   3.612   0.418   7.408 -1.4842  0.7485  0.4064
 4200TIP3   OH234158   2.193   0.004   0.481 -0.3513 -0.1657 -0.0731
 4200TIP3    H134159   2.234   0.071   0.535 -0.8281  1.3673 -1.4912
 4200TIP3    H234160   2.243   0.004   0.399 -2.2655  0.8166 -1.3330
 4201TIP3   OH234161   6.079   0.639   0.588  0.8113  0.3836  0.1934
 4201TIP3    H134162   6.138   0.581   0.540  0.7483 -1.6242  2.3526
 4201TIP3    H234163   5.992   0.619   0.554  0.8950 -0.1334  0.2752
 4202TIP3   OH234164   5.564   5.107   0.702 -0.2362 -0.5783 -0.5837
 4202TIP3    H134165   5.653   5.089   0.673  0.3815 -0.5743  1.1567
 4202TIP3    H234166   5.527   5.161   0.633  1.0288 -0.7776 -1.4580
 4203TIP3   OH234167   6.674   4.826   0.859  0.4785  0.1954 -0.0918
 4203TIP3    H134168   6.626   4.905   0.837  0.1067  0.1717  0.5929
 4203TIP3    H234169   6.606   4.765   0.891  0.6304 -0.7161 -1.4235
 4204TIP3   OH234170   5.857   4.949   6.902 -0.3823 -0.0786 -0.3207
 4204TIP3    H134171   5.831   4.867   6.859  0.3103 -1.0834  1.1106
 4204TIP3    H234172   5.811   4.948   6.986 -0.5473  1.1373 -0.3697
 4205TIP3   OH234173   2.331   0.493   0.388  0.3294  0.4828  0.1006
 4205TIP3    H134174   2.360   0.582   0.370  2.6613 -0.1032  0.6338
 4205TIP3    H234175   2.411   0.446   0.412 -0.9145 -1.6260  0.3700
 4206TIP3   OH234176   6.118   1.200   0.074 -0.5578  0.7735 -0.1015
 4206TIP3    H134177   6.121   1.112   0.038  0.6545  0.5377  0.5285
 4206TIP3    H234178   6.061   1.249   0.014 -1.3477 -0.4514 -0.3896
 4207TIP3   OH234179   1.768   3.005   1.217 -0.3335  0.6290  0.0401
 4207TIP3    H134180   1.697   2.973   1.162  0.5159  2.4544 -2.2579
 4207TIP3    H234181   1.726   3.025   1.301 -2.1046 -0.1338 -0.6104
 4208TIP3   OH234182   4.282   2.768   2.674 -0.1852  0.4955  0.1861
 4208TIP3    H134183   4.216   2.709   2.638  0.6171  0.0578 -0.6166
 4208TIP3    H234184   4.275   2.756   2.769  0.3293 -1.3357  0.0315
 4209TIP3   OH234185   4.480   5.130   7.624  0.4716 -0.4958  0.2427
 4209TIP3    H134186   4.436   5.122   7.540  0.7006 -1.1067  0.1749
 4209TIP3    H234187   4.573   5.139   7.602  0.3628  1.3007  0.3642
 4210TIP3   OH234188   4.425   3.124   2.361 -0.5000 -0.2967 -0.2169
 4210TIP3    H134189   4.331   3.142   2.358 -1.0509 -2.7104  0.5272
 4210TIP3    H234190   4.445   3.118   2.454  0.3071 -0.2129 -0.3800
 4211TIP3   OH234191   1.568   4.982   2.441 -0.6953  0.4973  0.4508
 4211TIP3    H134192   1.476   4.962   2.461 -1.4973  1.7555 -1.6406
 4211TIP3    H234193   1.577   5.075   2.461 -0.0273  0.4929  0.1799
 4212TIP3   OH234194   6.848   3.262   7.265 -0.2227 -0.1141  0.1039
 4212TIP3    H134195   6.942   3.262   7.245 -0.2750  1.2163 -0.2121
 4212TIP3    H234196   6.806   3.296   7.186 -0.9336 -0.2109  0.4307
 4213TIP3   OH234197   4.240   2.551   3.330  0.4545  0.2055  0.0820
 4213TIP3    H134198   4.209   2.629   3.377  0.4283 -0.3982  1.1036
 4213TIP3    H234199   4.177   2.483   3.354 -0.0934  0.0964 -1.5952
 4214TIP3   OH234200   1.344   2.170   0.852  0.1608 -0.5098  0.1625
 4214TIP3    H134201   1.273   2.106   0.854 -0.4691  0.1371 -0.5225
 4214TIP3    H234202   1.310   2.244   0.904  0.6584 -0.5191  0.5007
 4215TIP3   OH234203   4.062   1.707   8.177 -0.2302  0.0175  0.1400
 4215TIP3    H134204   4.076   1.623   8.220 -0.4011 -0.9810 -1.6853
 4215TIP3    H234205   4.148   1.730   8.141 -0.8849 -1.1436 -2.3599
 4216TIP3   OH234206   2.284   1.420   3.357 -0.9522  0.2292  0.3236
 4216TIP3    H134207   2.235   1.356   3.409 -0.5138 -0.0424  0.4057
 4216TIP3    H234208   2.244   1.504   3.379 -1.5734 -0.0166  0.1725
 4217TIP3   OH234209   6.321   5.519   8.083 -0.1888  0.2871  0.5718
 4217TIP3    H134210   6.227   5.518   8.103 -0.1836  3.3218  1.2254
 4217TIP3    H234211   6.328   5.567   8.000  0.8605  2.6510  1.9112
 4218TIP3   OH234212   5.770   0.590   8.132  0.0770  0.6626 -0.4027
 4218TIP3    H134213   5.745   0.677   8.100 -0.7015  0.7527  0.4044
 4218TIP3    H234214   5.866   0.588   8.125  0.1233  1.6921 -0.1681
 4219TIP3   OH234215   4.129   2.962   1.901 -0.4631 -0.3460 -0.2162
 4219TIP3    H134216   4.056   3.017   1.874 -0.0430  0.3668  0.0636
 4219TIP3    H234217   4.196   3.024   1.931  0.7167 -0.9183 -1.5624
 4220TIP3   OH234218   3.220   0.454   0.281 -0.3744  0.5396 -0.3417
 4220TIP3    H134219   3.219   0.359   0.290  1.0082  0.5915  0.6606
 4220TIP3    H234220   3.171   0.471   0.201 -1.5723 -0.9355  0.0329
 4221TIP3   OH234221   0.922   2.747   0.809  0.1192  0.4769 -0.0633
 4221TIP3    H134222   0.944   2.726   0.899 -1.5631  1.8104  0.7110
 4221TIP3    H234223   0.833   2.712   0.798  0.3141  0.3062 -1.2167
 4222TIP3   OH234224   1.573   5.317   3.260  0.6280 -0.6744  0.5654
 4222TIP3    H134225   1.614   5.359   3.336  1.8519  0.0834 -0.4772
 4222TIP3    H234226   1.533   5.237   3.295 -1.8017  1.2873  2.6301
 4223TIP3   OH234227   2.474   5.858   2.274  0.0879 -0.2643  0.0979
 4223TIP3    H134228   2.414   5.923   2.238  1.9417  0.3962 -2.0594
 4223TIP3    H234229   2.431   5.774   2.259 -0.3736  0.1991 -1.3234
 4224TIP3   OH234230   1.768   1.850   1.673  0.3552 -0.1541  0.1841
 4224TIP3    H134231   1.783   1.943   1.693  0.3394 -0.1973  0.3964
 4224TIP3    H234232   1.752   1.848   1.579 -0.5792  0.1746  0.3284
 4225TIP3   OH234233   4.375   4.262   7.577 -0.5714 -0.7706  0.0075
 4225TIP3    H134234   4.315   4.198   7.540 -1.5659  0.6839 -1.0090
 4225TIP3    H234235   4.395   4.228   7.664  0.9462 -3.7198 -1.3424
 4226TIP3   OH234236   4.628   0.212   1.644  0.0251  0.8426 -0.2220
 4226TIP3    H134237   4.570   0.285   1.622 -1.3738  0.1951  1.0992
 4226TIP3    H234238   4.577   0.133   1.623  0.9654  0.2337 -0.3101
 4227TIP3   OH234239   4.867   0.999   8.021  0.4205 -0.1074 -0.0555
 4227TIP3    H134240   4.785   0.985   8.068  0.5073  0.0913  0.1547
 4227TIP3    H234241   4.853   0.958   7.936 -0.9187  2.3233 -1.1084
 4228TIP3   OH234242   1.936   6.308   1.315  0.1733  0.4322 -0.1614
 4228TIP3    H134243   1.975   6.269   1.236  0.3616  1.6550 -0.6956
 4228TIP3    H234244   1.940   6.402   1.299 -0.6945  0.6606  0.8955
 4229TIP3   OH234245   5.299   1.209   7.414  0.0778 -0.5634 -0.1334
 4229TIP3    H134246   5.231   1.237   7.353  0.8666  1.6144 -0.1024
 4229TIP3    H234247   5.336   1.291   7.447  0.9011 -1.6970  1.8973
 4230TIP3   OH234248   0.311   5.224   2.943 -0.0839  0.1947  0.3059
 4230TIP3    H134249   0.266   5.173   3.011 -0.3583 -0.3077 -0.2426
 4230TIP3    H234250   0.255   5.300   2.927 -0.0819  0.2464  0.5478
 4231TIP3   OH234251   3.156   5.579   2.803  0.2832 -0.0260  0.2138
 4231TIP3    H134252   3.193   5.498   2.839 -3.1215 -1.5406  0.6330
 4231TIP3    H234253   3.159   5.566   2.708  0.1145 -0.4495  0.2658
 4232TIP3   OH234254   3.226   5.331   2.893  0.0081 -0.1158  0.0938
 4232TIP3    H134255   3.282   5.254   2.894 -2.0951 -1.7436 -0.1215
 4232TIP3    H234256   3.219   5.357   2.985  1.8770  0.7582  0.0247
 4233TIP3   OH234257   1.739   4.586   1.483 -0.6049 -0.3876  0.0290
 4233TIP3    H134258   1.818   4.634   1.459 -0.3806 -0.9658 -0.4460
 4233TIP3    H234259   1.670   4.623   1.427 -0.9042  0.7748  1.1173
 4234TIP3   OH234260   2.691   6.138   8.188 -0.4377  0.1705  0.5150
 4234TIP3    H134261   2.635   6.214   8.170  0.2585  0.9330  1.4428
 4234TIP3    H234262   2.691   6.131   8.283  0.3310 -0.3688  0.4784
 4235TIP3   OH234263   0.853   0.940   3.733  0.4410  0.9483  0.8357
 4235TIP3    H134264   0.803   0.998   3.790  0.4559  1.5537  0.2486
 4235TIP3    H234265   0.823   0.852   3.755  0.0671  1.2144  1.4000
 4236TIP3   OH234266   0.256   7.019   8.187  0.1588 -0.1200  0.3234
 4236TIP3    H134267   0.206   7.021   8.268  0.5736 -1.2728  0.6314
 4236TIP3    H234268   0.336   6.972   8.210 -0.0892 -1.2212 -0.9493
 4237TIP3   OH234269   2.582   3.129   0.278  0.4580 -0.1034 -0.4206
 4237TIP3    H134270   2.572   3.157   0.369 -2.0007  0.8435 -0.9170
 4237TIP3    H234271   2.519   3.057   0.268 -0.1638  0.5872 -1.6744
 4238TIP3   OH234272   4.132   6.035   2.383  0.5977 -0.0509 -0.2374
 4238TIP3    H134273   4.175   5.956   2.352 -1.2178 -0.1452 -2.9001
 4238TIP3    H234274   4.082   6.007   2.460 -0.6449 -1.7344 -1.5913
 4239TIP3   OH234275   1.729   2.567   1.120  0.0316 -0.9234  0.3835
 4239TIP3    H134276   1.666   2.549   1.190 -1.0167 -3.5037 -1.0558
 4239TIP3    H234277   1.758   2.480   1.092  0.7307  0.0231 -2.0894
 4240TIP3   OH234278   3.456   4.762   1.152  0.4418  0.5086  0.6169
 4240TIP3    H134279   3.457   4.668   1.136  0.2183  0.4160  1.1311
 4240TIP3    H234280   3.366   4.788   1.136  0.4153  0.5674  0.8629
 4241TIP3   OH234281   4.309   6.214   1.029  0.0593 -0.2340  0.1341
 4241TIP3    H134282   4.310   6.262   0.947  1.3615 -0.7053 -0.1408
 4241TIP3    H234283   4.283   6.279   1.095  1.3598  0.7543 -0.2945
 4242TIP3   OH234284   3.681   4.100   2.285 -0.0043 -0.1942  0.2409
 4242TIP3    H134285   3.714   4.097   2.195  0.1958 -0.8961  0.3343
 4242TIP3    H234286   3.741   4.043   2.334  0.1451  0.5179  0.9021
 4243TIP3   OH234287   5.573   6.028   7.831  0.3220 -0.3719  0.4144
 4243TIP3    H134288   5.579   6.123   7.842 -0.2856 -0.4322  1.4443
 4243TIP3    H234289   5.535   6.017   7.744  1.5814  0.2790 -0.2481
 4244TIP3   OH234290   0.229   5.071   2.670 -0.3696  0.3693  0.3067
 4244TIP3    H134291   0.270   5.027   2.744 -0.1523  0.3621  0.1827
 4244TIP3    H234292   0.243   5.165   2.686  0.0518  0.3518  0.0608
 4245TIP3   OH234293   0.910   6.990   0.263 -0.0989 -0.5239  0.2968
 4245TIP3    H134294   0.888   6.903   0.229  0.4033 -1.4923  2.3297
 4245TIP3    H234295   0.994   7.011   0.222 -0.8020 -0.4200 -1.1539
 4246TIP3   OH234296   3.695   4.157   8.256  0.0960 -0.4584 -0.3057
 4246TIP3    H134297   3.642   4.083   8.282 -2.2497  0.6142 -1.7360
 4246TIP3    H234298   3.740   4.128   8.177 -0.0534 -0.6618 -0.3161
 4247TIP3   OH234299   2.914   1.559   7.411  0.0593  0.7731  0.3861
 4247TIP3    H134300   2.859   1.539   7.486 -0.7494  0.3939 -0.2902
 4247TIP3    H234301   2.863   1.623   7.360 -0.5269 -0.7648 -1.0747
 4248TIP3   OH234302   0.962   4.477   2.819 -0.4100 -0.1406 -0.3537
 4248TIP3    H134303   1.004   4.537   2.757  0.9977 -0.4704  0.2644
 4248TIP3    H234304   1.020   4.474   2.894 -1.0809 -1.3343  0.1508
 4249TIP3   OH234305   3.382   4.603   3.317 -0.0731  0.0082  0.1075
 4249TIP3    H134306   3.463   4.652   3.331 -0.7213  0.6843  1.7073
 4249TIP3    H234307   3.384   4.532   3.381  0.0430 -1.0254 -1.0182
 4250TIP3   OH234308   2.392   2.767   7.440 -0.2377  0.6911  0.0474
 4250TIP3    H134309   2.403   2.683   7.484  0.8380  0.1897 -1.0851
 4250TIP3    H234310   2.469   2.773   7.382  0.0591  2.7689  0.5929
 4251TIP3   OH234311   0.803   3.317   0.476 -0.3494 -0.2915 -0.3873
 4251TIP3    H134312   0.772   3.333   0.565  0.7649  1.6665 -0.3001
 4251TIP3    H234313   0.898   3.316   0.484 -0.2145  0.6192 -1.6537
 4252TIP3   OH234314   5.980   2.184   2.048  0.4438  0.5441  0.4685
 4252TIP3    H134315   5.960   2.260   2.103  1.2080  1.8232 -0.9244
 4252TIP3    H234316   5.929   2.112   2.086 -0.6523  1.8504  1.5891
 4253TIP3   OH234317   0.296   5.436   1.597 -0.1979  0.1641 -0.1662
 4253TIP3    H134318   0.364   5.434   1.529 -1.7737 -0.9622 -1.7987
 4253TIP3    H234319   0.214   5.444   1.549 -1.2548  2.0227  1.7704
 4254TIP3   OH234320   4.865   0.567   2.668 -0.3372  0.3138 -0.8049
 4254TIP3    H134321   4.923   0.501   2.705 -0.1954  1.6696  1.6532
 4254TIP3    H234322   4.809   0.520   2.607 -1.7440 -2.5941  2.4037
 4255TIP3   OH234323   6.565   6.281   3.151 -0.1085  0.6749 -0.0335
 4255TIP3    H134324   6.563   6.346   3.081 -0.6180  0.4470 -0.2376
 4255TIP3    H234325   6.637   6.308   3.208  1.2001  0.1271 -1.3607
 4256TIP3   OH234326   1.200   2.365   2.062 -0.1167 -0.6989 -0.1602
 4256TIP3    H134327   1.146   2.343   1.986  0.5251 -1.0330 -0.5298
 4256TIP3    H234328   1.290   2.362   2.029  0.1691 -0.8373  0.6074
 4257TIP3   OH234329   4.855   1.836   1.856  0.0942 -0.0398  0.8598
 4257TIP3    H134330   4.778   1.881   1.821  1.6998  1.4748 -0.9565
 4257TIP3    H234331   4.867   1.761   1.798 -0.8723 -1.1663  2.0857
 4258TIP3   OH234332   0.358   2.880   1.648 -0.2107 -0.3948  0.3105
 4258TIP3    H134333   0.366   2.804   1.704  0.4110  0.2957  1.1811
 4258TIP3    H234334   0.275   2.920   1.673  0.7295  0.7160  1.7982
 4259TIP3   OH234335   1.832   2.313   7.754  0.7450 -0.2774 -0.4139
 4259TIP3    H134336   1.795   2.241   7.805  1.3329 -0.6803 -0.5482
 4259TIP3    H234337   1.797   2.300   7.666 -0.2721  0.4195 -0.1284
 4260TIP3   OH234338   0.664   0.193   8.159 -0.0160 -0.5547  0.2437
 4260TIP3    H134339   0.662   0.169   8.066 -0.7847  0.6436 -0.0634
 4260TIP3    H234340   0.602   0.265   8.167 -0.2921 -0.9339  1.7843
 4261TIP3   OH234341   3.100   4.483   7.825  0.1630 -0.1992  0.8442
 4261TIP3    H134342   3.078   4.576   7.818  0.6388 -0.1827 -1.0169
 4261TIP3    H234343   3.019   4.441   7.853 -0.9521  0.4389 -1.2319
 4262TIP3   OH234344   5.369   4.185   0.821  0.2206 -1.0581 -0.0290
 4262TIP3    H134345   5.426   4.197   0.745 -0.6873 -0.2954 -0.6119
 4262TIP3    H234346   5.424   4.207   0.896  0.3126  1.1624 -0.6758
 4263TIP3   OH234347   5.883   0.208   7.251 -0.9066  0.1268  0.2134
 4263TIP3    H134348   5.796   0.169   7.260 -1.0177  0.3667  0.2075
 4263TIP3    H234349   5.868   0.302   7.261 -0.9585  0.3857 -1.8255
 4264TIP3   OH234350   3.984   3.536   0.566  0.1830 -0.5911  0.3493
 4264TIP3    H134351   4.043   3.468   0.596  0.9246 -0.8814 -1.5990
 4264TIP3    H234352   3.935   3.496   0.494  1.4196  1.1467 -1.5990
 4265TIP3   OH234353   3.772   3.940   2.510 -0.4155 -0.4331  0.1688
 4265TIP3    H134354   3.738   3.868   2.457  0.0272 -1.7440  1.5800
 4265TIP3    H234355   3.786   3.901   2.596 -2.8717  2.0300  1.8390
 4266TIP3   OH234356   3.973   4.990   7.894  0.3931 -0.7243 -0.4185
 4266TIP3    H134357   4.001   4.909   7.852 -0.0136 -0.9687 -0.2294
 4266TIP3    H234358   3.902   5.023   7.838  0.9739 -0.1653 -0.8379
 4267TIP3   OH234359   4.367   0.688   3.412 -0.1784 -0.1590 -0.3919
 4267TIP3    H134360   4.282   0.655   3.441 -0.1825 -0.7228 -1.0434
 4267TIP3    H234361   4.430   0.625   3.447  0.0369  0.5762  0.5998
 4268TIP3   OH234362   1.937   3.163   7.701  0.7492  0.1502  0.3654
 4268TIP3    H134363   1.988   3.097   7.749 -0.3295 -0.6453  0.4734
 4268TIP3    H234364   2.002   3.221   7.662  1.8230 -1.8725 -1.0444
 4269TIP3   OH234365   1.882   2.721   1.259  0.1587  0.1045  0.0986
 4269TIP3    H134366   1.829   2.677   1.193 -0.6688  1.0918  0.0736
 4269TIP3    H234367   1.854   2.813   1.255  1.5606  0.5787  0.3945
 4270TIP3   OH234368   3.417   2.624   2.779 -0.4175 -0.1961  0.2094
 4270TIP3    H134369   3.359   2.578   2.719 -0.0100 -0.5547  0.0764
 4270TIP3    H234370   3.504   2.588   2.759 -0.1331  0.4419  0.2967
 4271TIP3   OH234371   2.896   6.810   2.755  0.1628 -0.2553 -0.6485
 4271TIP3    H134372   2.883   6.876   2.687 -2.0142 -0.9406 -0.9639
 4271TIP3    H234373   2.808   6.778   2.775  0.9140 -1.2804  1.3042
 4272TIP3   OH234374   4.242   0.952   2.431  0.3250 -0.4503  0.8721
 4272TIP3    H134375   4.327   0.987   2.406  0.9790 -0.6678  2.6512
 4272TIP3    H234376   4.246   0.859   2.406  0.5071 -0.3943  0.6965
 4273TIP3   OH234377   3.745   6.321   8.205 -0.3489  0.0360  0.0447
 4273TIP3    H134378   3.739   6.393   8.143  0.5953  0.4180  0.3726
 4273TIP3    H234379   3.693   6.251   8.166 -0.3327  0.4983 -0.8367
 4274TIP3   OH234380   2.617   3.636   0.578  0.0124 -0.2845  0.5539
 4274TIP3    H134381   2.566   3.582   0.518 -0.2294  1.6759 -1.0948
 4274TIP3    H234382   2.694   3.663   0.528 -0.5224  1.9535  0.8058
 4275TIP3   OH234383   6.429   4.585   3.584  0.3933 -0.5252 -0.1188
 4275TIP3    H134384   6.350   4.605   3.635  0.2967  0.3627 -0.5978
 4275TIP3    H234385   6.446   4.492   3.602 -0.9933 -0.8374 -0.3276
 4276TIP3   OH234386   5.835   0.879   2.326 -0.1189 -0.3099  0.3694
 4276TIP3    H134387   5.818   0.797   2.280  0.0194  0.3399 -0.8840
 4276TIP3    H234388   5.748   0.917   2.341 -0.1666 -0.5446  0.6889
 4277TIP3   OH234389   4.425   2.302   1.727  0.3431  0.1061 -0.1620
 4277TIP3    H134390   4.463   2.369   1.784  0.3877  1.3020 -1.5392
 4277TIP3    H234391   4.501   2.253   1.695  0.3272 -0.4866  0.6797
 4278TIP3   OH234392   1.444   0.389   0.221 -0.2983 -0.6904  0.7989
 4278TIP3    H134393   1.492   0.444   0.283 -0.2616  0.0453  0.1333
 4278TIP3    H234394   1.476   0.416   0.135 -0.0441 -1.9965  0.4647
 4279TIP3   OH234395   6.698   6.036   2.236  0.3600 -0.0646  0.4088
 4279TIP3    H134396   6.777   5.989   2.265  1.5739  0.7254 -1.4319
 4279TIP3    H234397   6.686   6.009   2.146 -0.5800  1.0080  0.1963
 4280TIP3   OH234398   6.448   1.056   7.512 -0.3672  0.1320 -0.2110
 4280TIP3    H134399   6.412   1.109   7.583 -2.8603 -1.9191  0.2091
 4280TIP3    H234400   6.444   1.114   7.435  1.4444  2.0445  1.0137
 4281TIP3   OH234401   2.740   2.639   7.958  0.5874  0.3800 -0.2055
 4281TIP3    H134402   2.653   2.617   7.926  0.2110 -0.2357  1.1627
 4281TIP3    H234403   2.746   2.597   8.044  2.5536 -0.2994 -0.6166
 4282TIP3   OH234404   0.852   4.164   0.159 -0.3136 -0.6315  0.4099
 4282TIP3    H134405   0.764   4.127   0.157  0.0682 -1.7373  2.0477
 4282TIP3    H234406   0.899   4.120   0.088  0.1308 -3.4384  2.2852
 4283TIP3   OH234407   4.536   1.686   2.532  0.1001  0.0635 -0.4402
 4283TIP3    H134408   4.474   1.688   2.460  0.4806  2.0971 -0.7664
 4283TIP3    H234409   4.513   1.607   2.582 -0.2871 -1.2844 -2.6310
 4284TIP3   OH234410   3.424   6.334   2.517 -0.3384 -0.2138 -0.2580
 4284TIP3    H134411   3.429   6.291   2.602 -0.3336 -0.7824 -0.5392
 4284TIP3    H234412   3.334   6.368   2.513 -0.5182 -0.6854 -0.2634
 4285TIP3   OH234413   0.095   0.753   1.870 -0.1058 -0.5025 -0.5925
 4285TIP3    H134414   0.063   0.843   1.859  1.2146 -0.0807 -1.2837
 4285TIP3    H234415   0.046   0.702   1.805  0.2210  0.0321 -1.2828
 4286TIP3   OH234416   5.213   5.373   1.527 -0.1653  0.2223  0.4304
 4286TIP3    H134417   5.238   5.288   1.563  0.7649  0.2282 -0.1819
 4286TIP3    H234418   5.296   5.417   1.508 -0.6359  0.9960  0.1091
 4287TIP3   OH234419   4.688   6.925   7.232 -0.3359 -0.5037 -0.1452
 4287TIP3    H134420   4.668   6.832   7.247 -0.5282 -0.1970  1.6754
 4287TIP3    H234421   4.663   6.940   7.140 -2.4022 -1.7209  0.1410
 4288TIP3   OH234422   0.597   0.857   0.190  0.3220  0.1427 -0.1481
 4288TIP3    H134423   0.679   0.899   0.214  0.9770 -1.0496 -0.2445
 4288TIP3    H234424   0.619   0.802   0.115 -0.3570 -0.9084  0.4005
 4289TIP3   OH234425   6.221   0.202   1.151  0.1853  0.6131 -0.5464
 4289TIP3    H134426   6.294   0.189   1.211 -0.4715 -0.4980  0.0336
 4289TIP3    H234427   6.259   0.190   1.064  0.9315  1.2462 -0.3191
 4290TIP3   OH234428   3.164   4.918   8.198 -0.1107  0.1563  0.6559
 4290TIP3    H134429   3.190   4.832   8.163 -0.4679  0.3088 -0.0025
 4290TIP3    H234430   3.226   4.935   8.268  1.1592  0.2044 -0.4387
 4291TIP3   OH234431   1.490   0.142   0.159 -0.1292  0.3237 -0.2794
 4291TIP3    H134432   1.467   0.229   0.193  1.9767  0.0608  2.0211
 4291TIP3    H234433   1.529   0.097   0.233 -0.5613 -2.4071 -1.6148
 4292TIP3   OH234434   2.720   6.471   1.741 -0.4689 -0.1823  0.0313
 4292TIP3    H134435   2.626   6.463   1.723 -0.5106  1.8170 -0.9763
 4292TIP3    H234436   2.728   6.555   1.786  0.8162 -0.4122  0.2525
 4293TIP3   OH234437   6.929   2.325   7.518 -0.3696 -0.1757 -0.1782
 4293TIP3    H134438   6.842   2.287   7.502 -1.5030  0.6708  3.0629
 4293TIP3    H234439   6.912   2.419   7.525  0.8727  0.0362  0.0965
 4294TIP3   OH234440   1.935   6.517   7.652 -0.1146 -0.5160 -0.0401
 4294TIP3    H134441   1.858   6.504   7.597  0.3372 -1.3525 -0.5162
 4294TIP3    H234442   1.995   6.567   7.597  1.2987 -3.3842 -1.3380
 4295TIP3   OH234443   2.621   6.142   2.100 -0.4539 -0.7502  0.2095
 4295TIP3    H134444   2.602   6.057   2.139 -1.5651 -0.9280 -0.6612
 4295TIP3    H234445   2.612   6.128   2.005 -1.0049  0.4058  0.0696
 4296TIP3   OH234446   4.545   4.482   3.439 -0.0467 -0.4808  0.1104
 4296TIP3    H134447   4.582   4.492   3.352 -0.9996 -1.5518 -0.4299
 4296TIP3    H234448   4.618   4.451   3.493  0.1495 -1.4359 -0.6815
 4297TIP3   OH234449   4.753   1.269   2.273 -0.6918  0.0276 -0.0247
 4297TIP3    H134450   4.802   1.235   2.348 -2.3882  2.1628  2.2396
 4297TIP3    H234451   4.687   1.202   2.256 -1.5168  0.3130  1.7669
 4298TIP3   OH234452   2.105   5.340   2.255  0.0539  0.1296 -0.1775
 4298TIP3    H134453   2.155   5.310   2.332  0.5124 -0.5271 -0.7131
 4298TIP3    H234454   2.023   5.291   2.260  0.9515 -1.6073 -1.2547
 4299TIP3   OH234455   5.900   1.953   1.464 -0.0248  0.0215  0.1081
 4299TIP3    H134456   5.989   1.953   1.430 -0.7342 -0.9396 -1.8763
 4299TIP3    H234457   5.845   1.968   1.387 -1.7895 -3.3089  0.5638
 4300TIP3   OH234458   6.825   2.919   0.940  0.1133 -0.2472 -0.1543
 4300TIP3    H134459   6.747   2.864   0.945 -0.3491  0.3795 -0.3186
 4300TIP3    H234460   6.799   3.001   0.982  0.5420  0.1230 -0.5935
 4301TIP3   OH234461   2.793   4.263   2.140  0.0169  0.2903  0.0943
 4301TIP3    H134462   2.795   4.168   2.133  1.6905  0.3880 -1.4614
 4301TIP3    H234463   2.748   4.280   2.223 -0.4854 -1.8301  0.3110
 4302TIP3   OH234464   4.442   1.953   0.268  0.0198 -0.1150 -0.0615
 4302TIP3    H134465   4.359   1.910   0.288  0.5791 -0.3565  1.9634
 4302TIP3    H234466   4.506   1.882   0.269  0.5527  0.3548  0.6495
 4303TIP3   OH234467   3.664   1.392   1.450  0.2933 -0.4042  0.0237
 4303TIP3    H134468   3.680   1.300   1.470 -0.1354 -0.6933 -0.8955
 4303TIP3    H234469   3.750   1.427   1.427  0.3232 -0.8168 -0.5245
 4304TIP3   OH234470   2.230   3.297   7.973  0.0940  0.0396 -0.7869
 4304TIP3    H134471   2.181   3.230   7.925 -0.1717 -0.1631 -0.2437
 4304TIP3    H234472   2.248   3.365   7.908 -3.9924  1.8571 -0.3101
 4305TIP3   OH234473   6.457   4.485   0.723  0.1669  0.7108  0.1326
 4305TIP3    H134474   6.511   4.422   0.675 -0.2644 -0.2871  0.9118
 4305TIP3    H234475   6.483   4.570   0.689  0.5454  0.0913 -1.1838
 4306TIP3   OH234476   3.207   1.819   2.867  0.2084 -0.2490 -0.5387
 4306TIP3    H134477   3.145   1.818   2.793 -0.0385 -0.9941 -0.3304
 4306TIP3    H234478   3.153   1.801   2.944  0.1144  2.5390  0.1334
 4307TIP3   OH234479   0.949   4.622   1.018  0.0110 -0.6646 -0.1872
 4307TIP3    H134480   0.904   4.688   1.071  0.3578 -0.7468  0.2166
 4307TIP3    H234481   0.993   4.672   0.949  0.6881 -0.4150  0.4096
 4308TIP3   OH234482   2.454   2.627   0.518 -0.0497 -0.4296 -0.1605
 4308TIP3    H134483   2.460   2.654   0.609 -2.6802 -1.0540  0.2853
 4308TIP3    H234484   2.517   2.555   0.510 -0.0925 -0.6486  1.2744
 4309TIP3   OH234485   1.726   3.442   0.659  0.1013 -0.1040  0.4103
 4309TIP3    H134486   1.795   3.392   0.703 -0.9569 -0.8935  1.2468
 4309TIP3    H234487   1.678   3.483   0.730  0.9999  2.2604 -0.2678
 4310TIP3   OH234488   4.818   3.525   7.892 -0.1976 -0.2955  0.4633
 4310TIP3    H134489   4.839   3.432   7.890 -0.5112 -0.4045  1.7178
 4310TIP3    H234490   4.830   3.551   7.983 -0.1704  0.8857  0.1398
 4311TIP3   OH234491   5.692   3.913   7.318  0.1175 -0.6029 -0.3101
 4311TIP3    H134492   5.763   3.878   7.264 -0.4498  3.0097 -3.8994
 4311TIP3    H234493   5.619   3.853   7.303  0.0285  0.1492 -3.7850
 4312TIP3   OH234494   4.026   1.954   1.707 -0.7312 -0.0620 -0.0170
 4312TIP3    H134495   4.042   1.967   1.801 -3.6262  2.4486  0.2758
 4312TIP3    H234496   4.066   2.030   1.665 -0.1012 -0.7938 -0.7791
 4313TIP3   OH234497   0.519   4.773   3.941 -0.4943 -0.1027  0.7654
 4313TIP3    H134498   0.470   4.747   4.019  0.4546 -1.2399  1.0072
 4313TIP3    H234499   0.478   4.724   3.870 -1.3065  0.8724  0.5303
 4314TIP3   OH234500   2.881   4.740   3.020 -0.7186 -0.1207 -0.2099
 4314TIP3    H134501   2.937   4.768   3.093  1.6920 -1.7876 -1.2782
 4314TIP3    H234502   2.792   4.759   3.049  0.3518  3.5754  1.2483
 4315TIP3   OH234503   5.437   3.914   2.306  0.0663 -0.0968  0.0958
 4315TIP3    H134504   5.423   3.898   2.399  0.0786  0.4719  0.1965
 4315TIP3    H234505   5.382   3.990   2.286  1.7622  1.1983  0.1502
 4316TIP3   OH234506   5.277   4.626   0.425  0.2617 -0.4226 -0.0921
 4316TIP3    H134507   5.258   4.533   0.439 -0.1541 -0.6029 -1.6707
 4316TIP3    H234508   5.202   4.672   0.463  1.6084 -0.5050  3.0295
 4317TIP3   OH234509   4.874   4.664   1.107  0.2159 -0.5862  0.6170
 4317TIP3    H134510   4.810   4.735   1.099  0.2714 -0.3810  1.7350
 4317TIP3    H234511   4.831   4.587   1.070 -0.8181 -0.5265  1.6318
 4318TIP3   OH234512   5.163   1.339   0.116  0.1843  0.4158 -0.2823
 4318TIP3    H134513   5.244   1.348   0.065 -1.1162  0.3607 -2.4860
 4318TIP3    H234514   5.093   1.353   0.053 -1.5892 -1.5838  1.0798
 4319TIP3   OH234515   6.560   0.609   1.038 -0.1292 -0.1489 -0.3423
 4319TIP3    H134516   6.608   0.690   1.054  0.2051 -0.4857  0.3785
 4319TIP3    H234517   6.476   0.638   1.004  0.4146  0.4638 -1.2238
 4320TIP3   OH234518   5.245   3.455   7.322 -0.2535  0.1203  0.3667
 4320TIP3    H134519   5.337   3.456   7.294  0.7479 -0.2697  3.2190
 4320TIP3    H234520   5.197   3.499   7.252  1.6671 -1.9891 -2.5076
 4321TIP3   OH234521   3.934   0.941   1.517 -0.5291  0.2433 -0.3220
 4321TIP3    H134522   3.971   0.977   1.437 -0.5507  0.4599 -0.2352
 4321TIP3    H234523   4.009   0.911   1.567 -0.4011  1.3069  0.1615
 4322TIP3   OH234524   4.308   0.433   1.559 -0.0264  0.0880 -0.3829
 4322TIP3    H134525   4.391   0.447   1.512  0.9083 -3.5715 -0.1605
 4322TIP3    H234526   4.327   0.459   1.649  0.5897  0.1519 -0.5213
 4323TIP3   OH234527   4.961   0.610   0.760 -0.4561  0.1880 -0.4361
 4323TIP3    H134528   4.927   0.525   0.788 -0.1436 -0.1041 -0.9253
 4323TIP3    H234529   4.931   0.671   0.827  1.4398 -0.7045  1.3269
 4324TIP3   OH234530   4.958   6.494   0.483 -0.1091 -0.5268  0.0077
 4324TIP3    H134531   4.946   6.450   0.567 -0.0620  1.7986  1.3243
 4324TIP3    H234532   4.910   6.576   0.491  1.2512  0.5092 -1.6066
 4325TIP3   OH234533   5.578   5.004   0.249 -0.0899 -0.2299  0.6455
 4325TIP3    H134534   5.648   5.022   0.185 -0.7100  0.1045  0.0377
 4325TIP3    H234535   5.574   4.909   0.255  0.0388 -0.2624  0.2476
 4326TIP3   OH234536   6.341   1.741   2.571  0.2015 -0.0644  0.5542
 4326TIP3    H134537   6.357   1.713   2.481  0.0469 -0.3244  0.6089
 4326TIP3    H234538   6.254   1.708   2.592  0.6644 -0.9464  1.1623
 4327TIP3   OH234539   6.223   4.527   0.169  0.2482 -0.5149  0.6904
 4327TIP3    H134540   6.229   4.610   0.122 -0.7866 -1.0766 -0.4867
 4327TIP3    H234541   6.310   4.488   0.161  0.6780  0.3389  1.0664
 4328TIP3   OH234542   6.581   3.585   1.424  0.2271 -0.1098  0.3155
 4328TIP3    H134543   6.648   3.651   1.411  0.8106 -0.6787  0.4049
 4328TIP3    H234544   6.572   3.543   1.338 -1.4717  1.2983 -0.2538
 4329TIP3   OH234545   3.665   5.028   1.043  0.2441 -0.2560 -0.3183
 4329TIP3    H134546   3.633   5.108   1.002 -0.0402  0.5245  1.3328
 4329TIP3    H234547   3.588   4.991   1.087  1.2431  1.0921  2.8218
 4330TIP3   OH234548   0.757   2.237   8.165  1.0767 -0.1984 -0.9832
 4330TIP3    H134549   0.688   2.172   8.157  0.4757  0.5161 -1.7470
 4330TIP3    H234550   0.779   2.237   8.258  0.0976 -0.4927 -0.7426
 4331TIP3   OH234551   4.804   0.216   8.264 -0.2584 -0.2096  0.8573
 4331TIP3    H134552   4.824   0.132   8.223  0.4297  0.4519 -0.2132
 4331TIP3    H234553   4.718   0.204   8.304 -1.0270 -0.8541 -0.8972
 4332TIP3   OH234554   0.162   6.486   2.194  0.2205  0.5474  0.4683
 4332TIP3    H134555   0.077   6.517   2.161  0.1640  0.3642  0.4397
 4332TIP3    H234556   0.222   6.558   2.178  0.6803 -0.2942 -2.0154
 4333TIP3   OH234557   1.993   3.992   1.370 -0.1941 -0.3080 -0.9803
 4333TIP3    H134558   2.050   4.066   1.349 -0.7625 -0.2763 -2.5200
 4333TIP3    H234559   1.907   4.017   1.335 -0.4914 -1.5086 -1.1596
 4334TIP3   OH234560   4.190   3.826   7.285  0.7160 -0.3905  0.4767
 4334TIP3    H134561   4.283   3.848   7.279  0.6471  0.4555  1.8935
 4334TIP3    H234562   4.146   3.911   7.285 -0.0266 -0.7678  0.3043
 4335TIP3   OH234563   6.076   0.570   1.884  0.2429  0.3983 -0.1301
 4335TIP3    H134564   6.053   0.479   1.899 -2.0357  1.0610  0.7838
 4335TIP3    H234565   6.114   0.599   1.967 -1.5941  0.9573  0.5711
 4336TIP3   OH234566   1.926   3.350   3.221 -0.5395  0.5799 -0.4507
 4336TIP3    H134567   1.965   3.412   3.282  1.3339  0.0603 -1.0544
 4336TIP3    H234568   1.941   3.264   3.260 -1.9114  0.3906 -0.2745
 4337TIP3   OH234569   3.716   7.015   3.197 -0.3235  0.6493  0.0261
 4337TIP3    H134570   3.809   6.998   3.215  0.2503  1.5231 -1.9121
 4337TIP3    H234571   3.713   7.106   3.169 -1.3984  0.0257 -2.0855
 4338TIP3   OH234572   2.401   6.744   0.544  0.2190  0.4052  0.6766
 4338TIP3    H134573   2.311   6.738   0.515  1.0251 -0.6104 -1.8899
 4338TIP3    H234574   2.452   6.700   0.476  2.5264 -0.4364  2.7587
 4339TIP3   OH234575   7.000   3.161   1.805 -0.4692  0.5550  0.4527
 4339TIP3    H134576   6.982   3.231   1.743  1.9740  0.9831  0.1514
 4339TIP3    H234577   7.089   3.177   1.835 -0.1107 -2.0028  0.9725
 4340TIP3   OH234578   6.372   3.896   1.319 -0.1372 -0.1659  0.4277
 4340TIP3    H134579   6.326   3.954   1.379 -1.9958 -0.4520 -0.6363
 4340TIP3    H234580   6.303   3.846   1.276  1.3163 -2.0548  0.1574
 4341TIP3   OH234581   5.097   6.187   7.919 -0.1236  0.1760 -0.2249
 4341TIP3    H134582   5.062   6.118   7.863  0.7624 -0.9856  0.5732
 4341TIP3    H234583   5.040   6.187   7.996 -0.4582  0.7390 -0.4681
 4342TIP3   OH234584   3.067   5.228   7.798 -0.5559 -0.0846 -0.0707
 4342TIP3    H134585   3.082   5.296   7.732 -0.4938 -0.1548 -0.1301
 4342TIP3    H234586   3.033   5.274   7.874 -2.6568 -0.2500 -0.8596
 4343TIP3   OH234587   3.125   0.542   2.471  0.3556  0.2333 -0.2368
 4343TIP3    H134588   3.193   0.549   2.538 -1.2477  1.0825  1.3776
 4343TIP3    H234589   3.157   0.596   2.399  0.4689  2.4160  1.3531
 4344TIP3   OH234590   6.887   4.108   3.403 -0.9096  0.2780 -0.5319
 4344TIP3    H134591   6.859   4.080   3.317  1.0169 -0.3245 -1.0206
 4344TIP3    H234592   6.981   4.126   3.393 -0.5774 -0.0826  1.4905
 4345TIP3   OH234593   2.536   6.455   2.522  0.5208 -0.2078 -0.2853
 4345TIP3    H134594   2.506   6.382   2.467 -1.0644 -0.2720  0.6004
 4345TIP3    H234595   2.519   6.426   2.611  0.8193  0.8595  0.1374
 4346TIP3   OH234596   2.850   1.601   3.325 -0.0452  0.0957 -0.1498
 4346TIP3    H134597   2.885   1.513   3.337 -0.1436  0.2545  1.6664
 4346TIP3    H234598   2.916   1.658   3.364 -0.8145  0.6575  0.3541
 4347TIP3   OH234599   0.763   1.818   7.471 -0.2045  0.1043  0.1908
 4347TIP3    H134600   0.701   1.882   7.438 -0.5041 -1.1156 -1.7548
 4347TIP3    H234601   0.840   1.826   7.414 -0.3308 -1.3595 -0.2322
 4348TIP3   OH234602   3.930   2.304   7.857 -0.6653  0.3210  0.3364
 4348TIP3    H134603   3.966   2.275   7.773 -0.7212  2.6831 -0.5807
 4348TIP3    H234604   3.855   2.248   7.872 -0.8253  0.0297 -1.3615
 4349TIP3   OH234605   1.704   5.184   7.192  0.4846  0.4871  0.0882
 4349TIP3    H134606   1.621   5.151   7.157  0.5364 -0.3523  0.7243
 4349TIP3    H234607   1.767   5.114   7.174  0.8906  0.8051  0.2641
 4350TIP3   OH234608   6.714   6.148   1.219  1.0350  0.2547 -0.0543
 4350TIP3    H134609   6.698   6.242   1.233  2.2545  0.6052 -0.8890
 4350TIP3    H234610   6.715   6.137   1.124 -0.9492 -0.9719  0.0160
 4351TIP3   OH234611   5.730   5.961   8.024  0.4183  0.2988  0.4198
 4351TIP3    H134612   5.665   5.970   7.955 -1.0405  0.8049  1.8061
 4351TIP3    H234613   5.729   6.046   8.069  1.5029  0.0640  0.9198
 4352TIP3   OH234614   6.211   5.124   2.440  0.4899  0.1678  0.5008
 4352TIP3    H134615   6.266   5.178   2.497  0.7259 -0.1685  0.5991
 4352TIP3    H234616   6.247   5.137   2.353  0.7464 -0.0717  0.5685
 4353TIP3   OH234617   5.512   4.467   2.892 -0.0286  0.1489 -0.5160
 4353TIP3    H134618   5.467   4.383   2.887 -2.0893  1.1169  0.4535
 4353TIP3    H234619   5.469   4.520   2.824  1.6783  0.2558 -1.5524
 4354TIP3   OH234620   7.038   6.679   8.067 -0.0905 -0.5027 -0.0418
 4354TIP3    H134621   7.119   6.630   8.076  0.4302 -0.0979 -1.9700
 4354TIP3    H234622   6.973   6.614   8.040 -0.0971 -0.6168  0.2518
 4355TIP3   OH234623   3.476   1.084   0.623  0.2323  0.7241  1.0019
 4355TIP3    H134624   3.555   1.098   0.571  0.7932 -1.0134  1.3003
 4355TIP3    H234625   3.416   1.037   0.565  0.4081 -0.1810  1.5261
 4356TIP3   OH234626   4.530   1.446   1.397 -0.1025  0.4719 -0.5060
 4356TIP3    H134627   4.615   1.428   1.439  0.1310  0.4529 -0.9875
 4356TIP3    H234628   4.466   1.420   1.463  0.2581 -0.1273 -0.3823
 4357TIP3   OH234629   1.125   3.753   7.368 -0.2052  0.7784  0.1796
 4357TIP3    H134630   1.132   3.716   7.280 -0.9052 -0.1157  0.4851
 4357TIP3    H234631   1.205   3.725   7.412 -1.0467 -1.0563  0.6318
 4358TIP3   OH234632   4.332   6.324   0.794  0.3592  0.3712 -0.1773
 4358TIP3    H134633   4.264   6.319   0.727  1.2520 -0.9745 -1.0198
 4358TIP3    H234634   4.394   6.388   0.759  0.2746  0.4920 -0.1073
 4359TIP3   OH234635   3.610   6.615   1.709  0.0998  0.5083 -0.2476
 4359TIP3    H134636   3.602   6.539   1.652  1.0160  0.3045 -0.1211
 4359TIP3    H234637   3.520   6.644   1.723 -0.1275  1.4066 -2.8934
 4360TIP3   OH234638   2.898   2.785   1.947  0.0311 -0.7068 -0.6411
 4360TIP3    H134639   2.876   2.698   1.915  0.3779 -0.5177 -1.4146
 4360TIP3    H234640   2.876   2.782   2.040 -2.2257 -0.8674 -1.1136
 4361TIP3   OH234641   6.312   5.484   1.136 -0.2015 -0.3401 -0.1385
 4361TIP3    H134642   6.283   5.459   1.048  1.2285 -1.8636 -0.2418
 4361TIP3    H234643   6.352   5.404   1.171  0.1227  0.5119  1.5291
 4362TIP3   OH234644   4.264   1.108   0.109 -0.7548 -0.0944 -0.0006
 4362TIP3    H134645   4.200   1.038   0.121  0.7309 -1.3151  1.2072
 4362TIP3    H234646   4.284   1.137   0.198  0.4329  0.1844 -0.3502
 4363TIP3   OH234647   6.156   1.371   1.430 -0.0431  0.7257  0.4529
 4363TIP3    H134648   6.231   1.425   1.455  0.2154  1.1829 -1.1821
 4363TIP3    H234649   6.080   1.422   1.458  0.2212  0.5192  1.6127
 4364TIP3   OH234650   2.413   6.493   0.735 -0.3190 -0.6776 -0.2938
 4364TIP3    H134651   2.444   6.561   0.675 -1.6753 -0.0413 -0.3010
 4364TIP3    H234652   2.493   6.458   0.774  0.4488  0.4440 -0.8080
 4365TIP3   OH234653   4.712   5.433   1.362 -0.0770  0.5691 -0.7469
 4365TIP3    H134654   4.803   5.411   1.342 -0.6448  0.4537 -3.6637
 4365TIP3    H234655   4.716   5.523   1.394  1.2113 -0.1487  1.3392
 4366TIP3   OH234656   2.007   1.294   1.745 -0.1046 -0.9266 -0.1657
 4366TIP3    H134657   2.075   1.295   1.678 -0.3291 -1.1612 -0.3980
 4366TIP3    H234658   1.933   1.251   1.703 -1.1536  1.2464 -0.6360
 4367TIP3   OH234659   2.876   4.641   0.246 -0.4551 -0.6355  0.3974
 4367TIP3    H134660   2.966   4.610   0.235 -0.0758  0.2663  0.8461
 4367TIP3    H234661   2.855   4.682   0.161  0.1015  0.4553  0.7625
 4368TIP3   OH234662   1.573   3.834   2.235  0.1600 -0.1734 -0.1035
 4368TIP3    H134663   1.645   3.786   2.196  1.7294  2.1218 -0.2168
 4368TIP3    H234664   1.507   3.840   2.165  0.5944 -0.7688 -0.5719
 4369TIP3   OH234665   6.286   6.630   1.228  0.7463 -0.0797 -0.3346
 4369TIP3    H134666   6.314   6.719   1.251  1.7347 -0.7657  1.3050
 4369TIP3    H234667   6.193   6.638   1.210  1.2423  1.7070 -2.6798
 4370TIP3   OH234668   6.957   6.287   2.223 -0.3258 -0.0075 -0.7855
 4370TIP3    H134669   7.039   6.311   2.181  0.3279 -0.3628  0.2483
 4370TIP3    H234670   6.980   6.273   2.315 -2.0344  2.7069  0.1887
 4371TIP3   OH234671   3.752   3.838   0.406 -0.3357 -0.0672  0.3142
 4371TIP3    H134672   3.695   3.790   0.467  0.7004 -0.3480  1.0884
 4371TIP3    H234673   3.773   3.774   0.338 -0.6527 -0.0725  0.2204
 4372TIP3   OH234674   4.692   1.604   0.611  0.5633  0.1881 -0.6690
 4372TIP3    H134675   4.635   1.642   0.677  0.9177 -1.4275  0.6245
 4372TIP3    H234676   4.777   1.647   0.625  0.5021  0.2295 -0.4351
 4373TIP3   OH234677   6.929   1.077   0.391 -0.3388 -0.2925  0.2986
 4373TIP3    H134678   6.962   1.068   0.301  2.0003  0.2471  1.0164
 4373TIP3    H234679   6.959   0.997   0.435  0.4123  0.4011  1.0791
 4374TIP3   OH234680   4.789   6.052   1.645 -0.2664  0.1428 -0.3972
 4374TIP3    H134681   4.709   6.029   1.600 -0.7529  1.3687 -0.2000
 4374TIP3    H234682   4.822   6.130   1.599 -0.3996  0.9960  0.8764
 4375TIP3   OH234683   3.699   4.711   0.145 -0.3411  0.7175  0.1362
 4375TIP3    H134684   3.758   4.685   0.074 -1.1026  2.1854 -1.1193
 4375TIP3    H234685   3.706   4.807   0.147 -0.0558  0.6885  2.3429
 4376TIP3   OH234686   6.191   5.099   1.880 -0.0297  0.1300  0.6382
 4376TIP3    H134687   6.118   5.043   1.907  0.2708 -0.3045  0.5615
 4376TIP3    H234688   6.233   5.050   1.810  1.6957 -0.7034  2.1746
 4377TIP3   OH234689   4.832   2.162   1.061 -0.0298  0.3655 -0.9554
 4377TIP3    H134690   4.868   2.114   0.986  0.5521  3.6507 -2.9962
 4377TIP3    H234691   4.896   2.148   1.131  0.3865 -1.2982 -1.6304
 4378TIP3   OH234692   3.226   2.832   2.066  0.4950  0.2426 -0.3064
 4378TIP3    H134693   3.198   2.740   2.064 -0.7563  0.5521  1.0698
 4378TIP3    H234694   3.251   2.851   1.976  0.4678 -1.3539 -0.6872
 4379TIP3   OH234695   2.678   5.664   2.776 -0.4332  0.5771 -0.5969
 4379TIP3    H134696   2.685   5.665   2.872 -0.4918  1.2031 -0.5933
 4379TIP3    H234697   2.608   5.601   2.758 -0.3616  0.3892 -0.2317
 4380TIP3   OH234698   6.285   5.580   3.045 -0.5450 -0.0652 -0.3004
 4380TIP3    H134699   6.334   5.537   3.115 -0.3830 -0.1813 -0.4879
 4380TIP3    H234700   6.206   5.527   3.034 -0.8851  0.3117  0.2373
 4381TIP3   OH234701   6.335   3.765   8.220 -0.0365 -0.0062 -0.3713
 4381TIP3    H134702   6.242   3.765   8.201  0.3333 -0.8058 -2.4735
 4381TIP3    H234703   6.377   3.775   8.135  1.8165  0.5016  0.5377
 4382TIP3   OH234704   5.623   6.754   3.209  0.2462  0.3067 -0.4838
 4382TIP3    H134705   5.692   6.723   3.267  0.8257  0.8814 -0.8541
 4382TIP3    H234706   5.628   6.695   3.133  0.0938  0.1303 -0.3583
 4383TIP3   OH234707   6.551   2.627   2.852  0.4536  0.2497 -0.7575
 4383TIP3    H134708   6.513   2.552   2.897 -1.6262  1.2148 -0.7447
 4383TIP3    H234709   6.503   2.631   2.769  1.2541  0.9760 -1.2005
 4384TIP3   OH234710   3.059   3.924   7.264  0.6276 -0.1664 -0.0963
 4384TIP3    H134711   3.017   3.999   7.308 -2.6418 -1.8290 -0.0646
 4384TIP3    H234712   3.075   3.955   7.175 -1.5971  0.3421 -0.3786
 4385TIP3   OH234713   7.018   2.122   7.693  0.2231 -0.0762  0.2837
 4385TIP3    H134714   7.097   2.089   7.736  0.3105  0.5108  0.5852
 4385TIP3    H234715   7.044   2.209   7.661 -0.0973 -0.1635 -0.2102
 4386TIP3   OH234716   2.315   1.029   2.216  0.1331  0.3610 -0.2190
 4386TIP3    H134717   2.354   1.116   2.231 -0.8950  0.7988 -0.0077
 4386TIP3    H234718   2.248   1.044   2.149  0.3827 -0.4015 -0.6520
 4387TIP3   OH234719   4.780   2.867   3.037  0.0643  0.0653 -0.5414
 4387TIP3    H134720   4.811   2.801   2.976  1.4537  0.5724 -0.4139
 4387TIP3    H234721   4.745   2.937   2.982 -1.1748 -0.6302 -0.6799
 4388TIP3   OH234722   1.505   0.078   2.316 -0.3761 -0.1745  0.1073
 4388TIP3    H134723   1.560   0.047   2.388  0.8275  0.0545 -0.6770
 4388TIP3    H234724   1.456   0.001   2.288 -0.0001 -0.5408  0.4331
 4389TIP3   OH234725   2.374   5.084   1.496  0.2987  0.2268  0.0982
 4389TIP3    H134726   2.319   5.031   1.553 -0.6724  3.3766  2.3693
 4389TIP3    H234727   2.461   5.079   1.535 -0.1112  1.3976  1.2412
 4390TIP3   OH234728   3.472   1.789   2.666  0.4257 -0.4265 -0.4281
 4390TIP3    H134729   3.406   1.832   2.720  1.1446  0.7845 -0.4826
 4390TIP3    H234730   3.476   1.841   2.586  2.9451  0.8454  0.4316
 4391TIP3   OH234731   0.815   1.311   0.827  0.1690 -0.0281  0.5536
 4391TIP3    H134732   0.775   1.253   0.891  1.8290 -1.0684  0.7048
 4391TIP3    H234733   0.750   1.380   0.813 -0.2473  0.2632  3.3757
 4392TIP3   OH234734   2.815   6.845   0.924  0.2417 -0.2263  0.4176
 4392TIP3    H134735   2.749   6.898   0.968  1.9106  0.8426  1.7607
 4392TIP3    H234736   2.791   6.755   0.945  0.0280  0.2006  2.1349
 4393TIP3   OH234737   3.037   2.449   2.190 -0.0699 -0.1962 -0.4943
 4393TIP3    H134738   3.049   2.488   2.103  0.7197 -2.3180 -1.4047
 4393TIP3    H234739   2.942   2.439   2.199 -0.0808 -2.0034 -2.1190
 4394TIP3   OH234740   5.784   3.990   7.882 -0.1067  0.1387  0.5647
 4394TIP3    H134741   5.798   3.895   7.877  0.2990  0.2509 -1.1232
 4394TIP3    H234742   5.730   4.010   7.805  0.2968  1.3588  0.5858
 4395TIP3   OH234743   3.645   1.208   0.006 -0.0031  0.3853  0.2484
 4395TIP3    H134744   3.740   1.214   0.012 -0.1801  2.0669  2.8878
 4395TIP3    H234745   3.616   1.299  -0.007 -1.2768 -0.0375 -0.0496
 4396TIP3   OH234746   2.572   4.440   2.565  0.3575  0.1991  0.0092
 4396TIP3    H134747   2.478   4.447   2.583  0.4525 -0.3375  0.7315
 4396TIP3    H234748   2.599   4.531   2.549 -0.1777  0.4248  0.3379
 4397TIP3   OH234749   3.776   3.576   3.359  0.4941 -0.0651  0.0184
 4397TIP3    H134750   3.761   3.501   3.302 -0.4011 -0.8482  1.2524
 4397TIP3    H234751   3.688   3.607   3.383  0.8500  0.9944  0.0225
 4398TIP3   OH234752   6.311   3.472   0.907  0.0461  0.4206 -0.4437
 4398TIP3    H134753   6.300   3.501   0.998  0.7408 -0.3572 -0.0926
 4398TIP3    H234754   6.371   3.536   0.868 -0.1088  0.6548 -0.2959
 4399TIP3   OH234755   5.163   6.502   2.462 -0.0137  0.0026  0.5612
 4399TIP3    H134756   5.249   6.472   2.434 -0.4201 -1.0856  0.4173
 4399TIP3    H234757   5.164   6.597   2.449  0.2153 -0.3087 -2.0836
 4400TIP3   OH234758   0.647   4.042   2.446  0.1704 -0.0061 -0.0326
 4400TIP3    H134759   0.614   4.012   2.531  2.6804 -1.4100  0.5251
 4400TIP3    H234760   0.742   4.044   2.456  0.5200  0.2561 -2.6872
 4401TIP3   OH234761   4.186   3.229   1.207 -0.8902 -0.0239  0.0333
 4401TIP3    H134762   4.203   3.323   1.206  2.8277 -0.5182 -2.0547
 4401TIP3    H234763   4.134   3.213   1.128 -2.0594  0.3229  0.7234
 4402TIP3   OH234764   1.990   0.985   0.109  0.1847 -0.0392 -0.5924
 4402TIP3    H134765   1.901   0.979   0.072  1.1936  0.4011 -3.3211
 4402TIP3    H234766   2.048   0.965   0.036  2.3789 -0.2872  1.1094
 4403TIP3   OH234767   2.943   2.469   7.437  0.2132 -0.1181 -0.0336
 4403TIP3    H134768   2.896   2.386   7.437  0.2330 -0.1423  1.1315
 4403TIP3    H234769   3.027   2.450   7.394 -0.5237 -0.2320 -1.4977
 4404TIP3   OH234770   6.656   1.314   7.351  0.2758 -0.3158 -0.3087
 4404TIP3    H134771   6.705   1.240   7.315 -0.1825 -1.8499  2.0231
 4404TIP3    H234772   6.564   1.291   7.334  0.0395 -1.1239  1.7446
 4405TIP3   OH234773   3.827   6.412   1.770  0.1689 -0.0014  0.0192
 4405TIP3    H134774   3.755   6.474   1.771 -0.4744 -0.7348 -0.1319
 4405TIP3    H234775   3.788   6.330   1.739  0.8854 -0.6163  0.7035
 4406TIP3   OH234776   0.121   3.851   2.596  0.5472  0.2889 -0.2801
 4406TIP3    H134777   0.113   3.759   2.621  0.0360  0.3096 -0.3579
 4406TIP3    H234778   0.207   3.857   2.555  0.2280 -0.3377 -1.0606
 4407TIP3   OH234779   2.485   1.682   0.219 -0.1985  0.1379 -0.3822
 4407TIP3    H134780   2.555   1.672   0.284 -1.8967  0.1650  1.5582
 4407TIP3    H234781   2.486   1.776   0.198 -1.5547  0.7977  2.0411
 4408TIP3   OH234782   2.883   1.217   8.034 -0.2249 -0.6607 -0.0678
 4408TIP3    H134783   2.802   1.201   7.985 -0.3143  0.3273 -0.2747
 4408TIP3    H234784   2.945   1.246   7.968 -0.2567  0.3901  0.3456
 4409TIP3   OH234785   1.559   1.265   0.738  0.0928  0.3727 -0.6504
 4409TIP3    H134786   1.464   1.276   0.733  0.1939  1.7116  0.0377
 4409TIP3    H234787   1.594   1.333   0.682  0.6618  0.4842 -0.1694
 4410TIP3   OH234788   4.222   5.204   0.833  0.3508  0.3102  0.1845
 4410TIP3    H134789   4.161   5.166   0.897  2.7961  1.0836  3.2404
 4410TIP3    H234790   4.237   5.293   0.865  0.4588  1.3628 -2.5232
 4411TIP3   OH234791   2.236   3.517   1.025  0.3367 -0.3880 -0.0643
 4411TIP3    H134792   2.299   3.480   1.088  1.2592 -1.5490 -1.5687
 4411TIP3    H234793   2.157   3.534   1.076  1.4903  0.0431  1.6695
 4412TIP3   OH234794   4.206   0.695   0.272 -0.1282 -0.2279 -0.3058
 4412TIP3    H134795   4.278   0.682   0.334  1.6259  0.9031 -1.9910
 4412TIP3    H234796   4.198   0.611   0.226  1.0161  0.0104 -0.9720
 4413TIP3   OH234797   0.882   6.363   7.601 -0.0030  0.1993  0.0299
 4413TIP3    H134798   0.897   6.375   7.507 -1.2981  0.9996 -0.1100
 4413TIP3    H234799   0.787   6.373   7.611  0.1676  0.6370  1.4956
 4414TIP3   OH234800   0.479   5.358   2.304 -0.2686  0.1604 -0.0201
 4414TIP3    H134801   0.485   5.421   2.232  0.6448  0.2797  0.1472
 4414TIP3    H234802   0.455   5.275   2.263  1.5871 -0.1054 -0.6775
 4415TIP3   OH234803   5.558   0.761   8.219  0.1831  0.2212 -0.0902
 4415TIP3    H134804   5.605   0.809   8.151  0.8585  0.7956  0.7634
 4415TIP3    H234805   5.549   0.823   8.291 -0.3507 -0.4361  0.4238
 4416TIP3   OH234806   4.677   4.457   2.371 -0.2306  0.2515  0.1964
 4416TIP3    H134807   4.760   4.412   2.353 -0.4849 -0.5473  0.9167
 4416TIP3    H234808   4.627   4.394   2.423 -0.9749  1.0303  0.4465
 4417TIP3   OH234809   4.714   6.356   1.227 -0.1257 -0.2741 -0.0968
 4417TIP3    H134810   4.637   6.392   1.184  0.3021  1.4016  0.4735
 4417TIP3    H234811   4.769   6.323   1.155 -0.9695 -0.7027 -0.5585
 4418TIP3   OH234812   5.993   0.258   2.501 -0.0407  0.2300  0.0711
 4418TIP3    H134813   5.918   0.204   2.474  0.4269 -0.3818 -0.0315
 4418TIP3    H234814   5.960   0.309   2.575 -0.5296 -0.1109  0.0970
 4419TIP3   OH234815   5.061   5.151   2.944 -0.9173  0.1191  0.2807
 4419TIP3    H134816   4.970   5.180   2.945 -0.5079  1.6986 -1.6736
 4419TIP3    H234817   5.111   5.227   2.973 -0.1351 -0.2886  0.0305
 4420TIP3   OH234818   1.346   3.260   7.403  0.4452  0.2102  0.2736
 4420TIP3    H134819   1.413   3.196   7.379  0.4582  0.5886 -0.7495
 4420TIP3    H234820   1.287   3.263   7.327 -0.8462 -0.2450  1.2106
 4421TIP3   OH234821   4.721   1.281   8.259  0.1515 -0.2533  1.0019
 4421TIP3    H134822   4.759   1.214   8.316  1.4707 -1.1831 -0.8749
 4421TIP3    H234823   4.638   1.243   8.231  0.1164 -0.3705  1.2580
 4422TIP3   OH234824   5.242   4.942   2.945 -0.4090  0.0112 -0.1505
 4422TIP3    H134825   5.310   4.987   2.896 -1.2663  0.3358 -1.0701
 4422TIP3    H234826   5.183   5.011   2.974 -2.0771 -0.4874 -2.1006
 4423TIP3   OH234827   6.816   5.566   7.256 -0.0218 -0.4980 -0.2849
 4423TIP3    H134828   6.887   5.577   7.192 -0.4337  2.8628 -0.3244
 4423TIP3    H234829   6.821   5.644   7.311 -2.3844 -1.2117  1.0669
 4424TIP3   OH234830   2.033   1.230   2.364 -0.4026 -0.6949  0.0881
 4424TIP3    H134831   2.028   1.135   2.373  0.2930 -0.6710  0.7585
 4424TIP3    H234832   2.051   1.262   2.453 -0.3019  0.0430 -0.1916
 4425TIP3   OH234833   2.825   0.467   0.362 -0.2628 -0.2366 -0.7311
 4425TIP3    H134834   2.895   0.447   0.423 -0.0373 -1.1653 -1.2893
 4425TIP3    H234835   2.839   0.559   0.340 -0.1484  0.0223  0.3390
 4426TIP3   OH234836   5.629   0.957   1.962  0.0883  0.1366 -0.1659
 4426TIP3    H134837   5.610   0.955   1.868 -0.8673 -2.5308 -0.0088
 4426TIP3    H234838   5.718   0.924   1.969 -0.2311 -0.7345 -0.0967
 4427TIP3   OH234839   4.872   5.690   0.741 -0.5740  0.1508 -0.0129
 4427TIP3    H134840   4.882   5.605   0.784 -1.0592  0.3161  0.4397
 4427TIP3    H234841   4.799   5.677   0.681  1.8805 -0.9259 -2.9833
 4428TIP3   OH234842   5.590   2.365   0.788  0.5451 -0.7047 -0.4504
 4428TIP3    H134843   5.527   2.297   0.809  1.2468 -0.9920  0.8535
 4428TIP3    H234844   5.544   2.447   0.808  0.4830 -0.9020  0.2649
 4429TIP3   OH234845   1.113   6.824   0.004  0.7016 -0.1102 -0.1817
 4429TIP3    H134846   1.049   6.763   0.041 -0.8661  1.0025 -0.9317
 4429TIP3    H234847   1.197   6.793   0.037 -0.3260 -0.7807  2.0539
 4430TIP3   OH234848   6.653   1.977   1.446  0.5797 -0.2670 -0.3255
 4430TIP3    H134849   6.573   1.949   1.401  0.4814  0.8485 -0.8781
 4430TIP3    H234850   6.622   2.005   1.533  0.4218 -0.1957 -0.4038
 4431TIP3   OH234851   2.090   0.413   1.329 -0.0401  0.4066  0.0164
 4431TIP3    H134852   2.099   0.486   1.268 -1.2158  0.9806  0.5009
 4431TIP3    H234853   1.997   0.409   1.348  0.1863 -0.3751  1.0347
 4432TIP3   OH234854   0.205   1.447   7.646  0.2288 -0.1463  0.1252
 4432TIP3    H134855   0.209   1.394   7.566 -1.1096  0.0207 -0.0644
 4432TIP3    H234856   0.173   1.387   7.713 -1.4062  0.4118 -0.1143
 4433TIP3   OH234857   6.448   5.712   2.004 -0.5367 -0.1208  0.6410
 4433TIP3    H134858   6.491   5.769   1.940 -1.4420  1.6293  1.5394
 4433TIP3    H234859   6.512   5.700   2.073  0.2033 -1.4756 -0.2395
 4434TIP3   OH234860   0.659   5.048   2.440  0.1787 -0.3292  0.7137
 4434TIP3    H134861   0.717   4.975   2.415 -0.8468 -0.4183 -1.6849
 4434TIP3    H234862   0.598   5.010   2.503  0.9665 -0.9683  1.1153
 4435TIP3   OH234863   1.246   2.411   7.662 -0.5646  0.3565 -0.1144
 4435TIP3    H134864   1.166   2.448   7.699 -0.2667  0.0060  0.9074
 4435TIP3    H234865   1.216   2.367   7.582 -1.8263 -1.6774  1.3587
 4436TIP3   OH234866   1.556   4.558   0.867 -0.4414  0.0317 -0.0941
 4436TIP3    H134867   1.476   4.609   0.863  0.1098  1.0741  1.3825
 4436TIP3    H234868   1.569   4.526   0.777 -2.2141  0.2434 -0.4550
 4437TIP3   OH234869   0.828   6.836   3.055 -0.2171  0.6322 -0.4490
 4437TIP3    H134870   0.849   6.929   3.054  1.2928  0.3902  1.5862
 4437TIP3    H234871   0.745   6.830   3.103 -0.6887  0.9669 -1.2114
 4438TIP3   OH234872   5.384   3.750   7.355 -0.5740  0.6121  0.3748
 4438TIP3    H134873   5.465   3.700   7.362 -0.0276  1.5140  0.6362
 4438TIP3    H234874   5.315   3.684   7.356  0.1780 -0.2178 -0.5455
 4439TIP3   OH234875   4.035   6.791   1.062 -0.1847 -0.1834  0.2539
 4439TIP3    H134876   4.038   6.860   0.997  0.2951 -1.3128 -0.9665
 4439TIP3    H234877   3.942   6.781   1.082 -0.4973 -0.8263 -1.3975
 4440TIP3   OH234878   6.315   6.522   2.231 -0.1389 -0.2182  0.3238
 4440TIP3    H134879   6.225   6.528   2.199 -0.5111  0.5766  1.4428
 4440TIP3    H234880   6.349   6.611   2.220  1.2696 -0.9571 -2.0916
 4441TIP3   OH234881   1.006   4.281   1.112  0.3267 -0.5492  0.4870
 4441TIP3    H134882   1.036   4.273   1.202 -0.3263 -1.2382  0.6489
 4441TIP3    H234883   1.086   4.296   1.061  0.9773 -2.3966  0.8900
 4442TIP3   OH234884   2.039   3.750   8.147  0.0234 -0.9243 -0.0644
 4442TIP3    H134885   2.102   3.678   8.149  0.2688 -0.6988  0.4258
 4442TIP3    H234886   1.963   3.716   8.195 -1.1941 -2.0604 -2.6048
 4443TIP3   OH234887   3.751   6.235   2.843 -0.7581  0.0925  0.5900
 4443TIP3    H134888   3.834   6.284   2.845  0.3342 -1.2874 -2.8971
 4443TIP3    H234889   3.739   6.205   2.934  3.3475 -0.7882  1.0637
 4444TIP3   OH234890   4.564   3.736   0.308  0.0825  0.7073 -0.0066
 4444TIP3    H134891   4.478   3.723   0.268  0.0743 -0.4198  0.3672
 4444TIP3    H234892   4.569   3.670   0.377  1.3535  0.5856 -0.1986
 4445TIP3   OH234893   4.803   4.271   2.951 -1.3655 -0.2696  0.1357
 4445TIP3    H134894   4.887   4.315   2.942 -1.8619  0.4676 -1.0793
 4445TIP3    H234895   4.822   4.179   2.932 -0.7158 -0.2380  0.5952
 4446TIP3   OH234896   4.245   0.733   0.783 -0.0905 -0.0606  0.0046
 4446TIP3    H134897   4.210   0.710   0.869  1.3118 -1.3722  0.2696
 4446TIP3    H234898   4.258   0.650   0.739 -0.0253  0.5565 -1.1823
 4447TIP3   OH234899   0.519   2.371   2.103  0.3589 -0.0585  0.5300
 4447TIP3    H134900   0.497   2.346   2.013  0.7348  0.5408  0.2616
 4447TIP3    H234901   0.497   2.295   2.156  0.0808 -0.3974 -0.0653
 4448TIP3   OH234902   1.705   5.426   2.791  0.3382  0.4564 -0.4112
 4448TIP3    H134903   1.615   5.433   2.821  0.1354 -1.5043 -0.4443
 4448TIP3    H234904   1.757   5.425   2.872  0.1964  0.1483 -0.3206
 4449TIP3   OH234905   1.932   5.293   0.983  0.6095  0.0236  0.5630
 4449TIP3    H134906   1.911   5.256   0.897  1.4870  0.4691  0.1387
 4449TIP3    H234907   2.024   5.270   0.996  0.5873  0.2959  1.2178
 4450TIP3   OH234908   4.480   3.002   2.060  0.1104 -0.2685  0.5479
 4450TIP3    H134909   4.403   3.047   2.026  0.9892 -0.2900 -1.5671
 4450TIP3    H234910   4.481   3.025   2.153 -0.5226  2.5616 -0.0565
 4451TIP3   OH234911   4.510   4.282   3.087 -0.1354  0.4377  0.0227
 4451TIP3    H134912   4.488   4.224   3.013  0.3906  0.5163 -0.1994
 4451TIP3    H234913   4.448   4.258   3.155  0.4867 -0.8554  0.1644
 4452TIP3   OH234914   4.592   6.768   0.904 -0.0982 -0.4995  0.0887
 4452TIP3    H134915   4.603   6.818   0.823 -2.0496 -0.8849 -0.4570
 4452TIP3    H234916   4.563   6.832   0.968  0.5250 -0.3694  0.2486
 4453TIP3   OH234917   4.837   0.669   2.133  0.3616 -0.3087 -0.4028
 4453TIP3    H134918   4.903   0.725   2.094  0.1201  0.0760 -0.2655
 4453TIP3    H234919   4.852   0.676   2.227 -0.2377  0.2414 -0.3416
 4454TIP3   OH234920   5.154   5.868   0.899 -0.5173 -0.5934 -0.0426
 4454TIP3    H134921   5.172   5.828   0.814 -0.3255  0.3672 -0.4612
 4454TIP3    H234922   5.197   5.810   0.962 -2.7381 -2.6956 -0.3513
 4455TIP3   OH234923   3.612   2.399   7.991 -0.2299 -0.6219 -0.2873
 4455TIP3    H134924   3.640   2.416   7.901  2.9331 -1.5139  0.4030
 4455TIP3    H234925   3.580   2.308   7.989  0.5521 -0.9030 -0.3948
 4456TIP3   OH234926   3.069   1.729   3.079  0.1863  0.2853  0.0641
 4456TIP3    H134927   3.131   1.713   3.150 -0.5340 -1.9737  0.2591
 4456TIP3    H234928   2.984   1.732   3.122 -0.1629 -0.0403 -0.5880
 4457TIP3   OH234929   3.606   4.849   7.711 -0.0760  0.5712  0.6372
 4457TIP3    H134930   3.526   4.866   7.761 -0.3071  0.8684  0.1656
 4457TIP3    H234931   3.640   4.935   7.688  0.5013  0.4537  1.0137
 4458TIP3   OH234932   0.365   1.786   1.574 -0.0626  0.4707  0.1855
 4458TIP3    H134933   0.418   1.726   1.521 -0.5257 -2.1330  2.4311
 4458TIP3    H234934   0.289   1.805   1.520  1.1126  0.8447 -1.4199
 4459TIP3   OH234935   0.796   6.846   8.224 -0.0368  0.1639  0.0534
 4459TIP3    H134936   0.795   6.865   8.130 -1.8394 -0.2017 -0.0278
 4459TIP3    H234937   0.822   6.754   8.230 -0.9156 -0.0973 -0.1492
 4460TIP3   OH234938   0.957   3.038   0.864 -0.0129 -0.2580 -0.2050
 4460TIP3    H134939   0.932   2.951   0.834  0.9991 -1.0828  1.2234
 4460TIP3    H234940   1.051   3.044   0.846  0.0596  0.2773  0.2960
 4461TIP3   OH234941   5.829   3.697   2.533  0.0650 -0.1291  0.4245
 4461TIP3    H134942   5.801   3.606   2.534 -1.5141  0.3218  0.2640
 4461TIP3    H234943   5.887   3.706   2.608  1.4938 -1.6196 -0.4452
 4462TIP3   OH234944   4.568   5.039   2.842  0.1982  0.0562  0.7209
 4462TIP3    H134945   4.500   5.034   2.909 -0.4794  1.7038  0.2024
 4462TIP3    H234946   4.645   5.074   2.887  0.3434 -0.6845  1.0514
 4463TIP3   OH234947   5.994   5.366   7.759  0.5473  0.1515  0.0992
 4463TIP3    H134948   6.066   5.425   7.737  0.1259  0.7576  0.3090
 4463TIP3    H234949   6.029   5.309   7.828  0.2328  1.7519  1.6568
 4464TIP3   OH234950   0.724   6.641   0.354 -0.5886  0.1357  0.2406
 4464TIP3    H134951   0.774   6.647   0.436 -0.9641 -2.5158  0.7474
 4464TIP3    H234952   0.640   6.681   0.375 -0.6088 -0.3384  1.1200
 4465TIP3   OH234953   0.909   3.917   0.503  0.4709  0.3703  0.3543
 4465TIP3    H134954   0.873   3.924   0.591  0.6204 -0.6031  0.5035
 4465TIP3    H234955   0.832   3.915   0.446  0.3784  1.1461  0.4446
 4466TIP3   OH234956   4.709   0.401   2.514  0.2464  0.6347  0.3547
 4466TIP3    H134957   4.614   0.417   2.516  0.2920  1.0169 -0.1902
 4466TIP3    H234958   4.724   0.338   2.584 -0.2206  1.6031  1.3780
 4467TIP3   OH234959   5.352   3.130   0.048  0.4649 -0.3723  0.0922
 4467TIP3    H134960   5.290   3.157   0.116 -2.0425 -0.7162 -1.9023
 4467TIP3    H234961   5.405   3.208   0.031  1.5649 -0.4291  2.7235
 4468TIP3   OH234962   4.516   3.492   2.771  0.0761 -0.1776  0.1740
 4468TIP3    H134963   4.474   3.526   2.692  0.6847 -0.0987 -0.1278
 4468TIP3    H234964   4.490   3.554   2.839 -1.2985 -0.8271  0.2658
 4469TIP3   OH234965   4.608   5.652   2.990  0.0877 -0.3242  0.0898
 4469TIP3    H134966   4.529   5.620   3.033  0.5768 -0.8990  0.5656
 4469TIP3    H234967   4.680   5.608   3.034  0.7076  0.4769 -0.0892
 4470TIP3   OH234968   1.023   2.868   7.582  0.0367 -0.2091  0.1655
 4470TIP3    H134969   0.978   2.874   7.498  0.1895 -1.6342 -0.0370
 4470TIP3    H234970   1.094   2.932   7.575  1.1140 -1.4825 -1.4985
 4471TIP3   OH234971   2.338   1.291   1.870  0.2257  0.5149  0.0256
 4471TIP3    H134972   2.271   1.230   1.899  0.5408  0.0077 -0.3037
 4471TIP3    H234973   2.312   1.316   1.782  0.9878 -0.4640 -0.4989
 4472TIP3   OH234974   5.932   5.710   2.772  0.7130  0.4853  0.1633
 4472TIP3    H134975   5.955   5.618   2.788  0.4989 -0.2719 -3.1889
 4472TIP3    H234976   5.974   5.731   2.689 -2.4787  2.1579 -1.1773
 4473TIP3   OH234977   7.002   6.765   7.230  0.2873  0.4762  0.2881
 4473TIP3    H134978   6.941   6.784   7.159 -0.0646 -0.4430  0.3399
 4473TIP3    H234979   7.072   6.830   7.219  0.9336 -0.4899 -1.7329
 4474TIP3   OH234980   7.009   3.310   3.832  0.2589  0.8413 -0.0251
 4474TIP3    H134981   6.933   3.337   3.780  0.0228  1.1413  0.4776
 4474TIP3    H234982   7.033   3.387   3.884  0.0084  0.3098  0.8973
 4475TIP3   OH234983   4.338   5.587   2.983 -0.5248 -0.4735  0.2325
 4475TIP3    H134984   4.306   5.504   3.019  0.5389 -0.7530  0.5750
 4475TIP3    H234985   4.271   5.613   2.920 -1.6554 -0.7832  1.2751
 4476TIP3   OH234986   0.970   2.353   0.757 -0.2386  0.3948  0.1795
 4476TIP3    H134987   1.010   2.437   0.779  0.5122 -0.2096  1.2106
 4476TIP3    H234988   0.877   2.366   0.775  0.0966  0.4915  2.0851
 4477TIP3   OH234989   5.856   3.369   7.539  0.2470 -0.2011 -0.3640
 4477TIP3    H134990   5.806   3.389   7.460  0.5374 -0.4544 -0.6147
 4477TIP3    H234991   5.943   3.345   7.507  0.1807 -0.9456 -0.0125
 4478TIP3   OH234992   6.176   3.100   2.800 -0.9137  0.1800 -0.1079
 4478TIP3    H134993   6.152   3.119   2.890 -0.4025  3.0568 -0.4891
 4478TIP3    H234994   6.269   3.122   2.795 -0.6030 -1.2048 -1.0539
 4479TIP3   OH234995   1.176   0.903   2.641 -0.6764 -0.2955  0.3795
 4479TIP3    H134996   1.204   0.994   2.628  0.0355 -0.4176  0.9542
 4479TIP3    H234997   1.083   0.909   2.661 -0.5954  0.3310  0.5983
 4480TIP3   OH234998   0.363   2.001   2.544  0.1130 -0.4363  0.1680
 4480TIP3    H134999   0.357   1.950   2.625 -0.2424  1.0889  1.1450
 4480TIP3    H235000   0.272   2.012   2.516  0.0041  1.2304  1.0335
 4481TIP3   OH235001   2.647   2.276   1.100  0.9243 -0.3572 -0.3700
 4481TIP3    H135002   2.571   2.219   1.113 -0.0415  0.1703 -2.9022
 4481TIP3    H235003   2.694   2.274   1.183 -0.0984 -3.2716  0.2425
 4482TIP3   OH235004   6.273   4.765   0.065 -0.3946 -0.5627 -0.1083
 4482TIP3    H135005   6.342   4.831   0.070 -1.3851  0.6445 -1.3676
 4482TIP3    H235006   6.200   4.802   0.114 -0.7275 -1.0574 -0.2170
 4483TIP3   OH235007   2.315   2.384   3.261 -0.0088 -0.2522 -0.4224
 4483TIP3    H135008   2.278   2.296   3.273  0.9497 -0.5304  0.6516
 4483TIP3    H235009   2.367   2.399   3.340 -0.1528  1.2858 -0.5901
 4484TIP3   OH235010   4.109   6.015   1.799  0.2133  0.3783  0.1235
 4484TIP3    H135011   4.082   6.002   1.890  0.7951  0.2404  0.2796
 4484TIP3    H235012   4.041   5.971   1.747  0.9304 -1.3404  0.5722
 4485TIP3   OH235013   5.466   0.192   2.212 -0.1016  0.0621 -0.2887
 4485TIP3    H135014   5.393   0.176   2.153 -0.3204  0.3522 -0.0946
 4485TIP3    H235015   5.429   0.241   2.285 -0.0949 -1.3185  0.6821
 4486TIP3   OH235016   4.138   2.708   1.171 -0.1435 -0.1824  0.0463
 4486TIP3    H135017   4.159   2.783   1.114 -3.7249 -0.4056 -1.8015
 4486TIP3    H235018   4.061   2.668   1.132 -0.5424 -2.7282  3.0242
 4487TIP3   OH235019   1.538   3.914   2.932  0.5328  0.2715  0.3751
 4487TIP3    H135020   1.495   3.845   2.880  2.3148  0.8430 -2.0230
 4487TIP3    H235021   1.526   3.886   3.023 -2.1315 -1.1705 -0.2906
 4488TIP3   OH235022   3.114   2.570   1.959 -0.1286 -0.0242 -0.4316
 4488TIP3    H135023   3.162   2.523   1.890  0.0536  0.4004 -0.5980
 4488TIP3    H235024   3.023   2.571   1.928 -0.3637 -1.3304  0.1565
 4489TIP3   OH235025   5.385   2.529   7.249  0.1995 -0.0690  0.3331
 4489TIP3    H135026   5.454   2.463   7.238 -0.3294 -0.5148 -0.4123
 4489TIP3    H235027   5.386   2.578   7.167 -0.2068  0.0806  0.4180
 4490TIP3   OH235028   5.461   3.064   7.793  0.5599  0.5247 -0.2497
 4490TIP3    H135029   5.487   3.037   7.881  0.7541  2.7795  0.4312
 4490TIP3    H235030   5.365   3.061   7.795  0.3499  3.9594  1.3081
 4491TIP3   OH235031   4.057   4.011   0.220 -0.4535 -0.1761  0.0101
 4491TIP3    H135032   4.151   4.028   0.220 -0.1368 -1.7491  1.2491
 4491TIP3    H235033   4.022   4.072   0.286 -0.2864  0.2440 -0.2838
 4492TIP3   OH235034   5.780   6.614   7.952  0.3892 -0.0978  0.7234
 4492TIP3    H135035   5.842   6.634   7.881  1.8574 -1.0688  1.6635
 4492TIP3    H235036   5.714   6.559   7.911  0.3346  0.6566 -0.2343
 4493TIP3   OH235037   4.092   3.113   0.803 -0.1051 -0.0499 -0.2928
 4493TIP3    H135038   4.023   3.176   0.824 -0.6310 -0.4794 -0.7008
 4493TIP3    H235039   4.045   3.030   0.790  0.5176 -0.3999 -0.3198
 4494TIP3   OH235040   4.376   5.981   1.749 -0.4668  0.5841  0.1456
 4494TIP3    H135041   4.384   6.037   1.672  0.2765  0.8213  0.3932
 4494TIP3    H235042   4.292   6.007   1.788 -0.2821  1.3050  0.0828
 4495TIP3   OH235043   1.735   3.618   1.491 -0.3905 -0.3412  0.2132
 4495TIP3    H135044   1.661   3.672   1.462 -0.3063  0.3704  1.2637
 4495TIP3    H235045   1.805   3.638   1.429 -1.4342 -2.0709 -1.6582
 4496TIP3   OH235046   2.242   3.707   0.154 -0.0172  0.0876  0.4946
 4496TIP3    H135047   2.219   3.633   0.211 -0.1217  0.3732  0.8234
 4496TIP3    H235048   2.250   3.668   0.067  1.5160 -0.6130  0.9124
 4497TIP3   OH235049   5.095   2.889   0.891 -0.8784  0.5087  0.1294
 4497TIP3    H135050   5.048   2.828   0.834 -0.5556  0.1082  0.2869
 4497TIP3    H235051   5.158   2.933   0.833 -1.3142  0.9148 -0.0445
 4498TIP3   OH235052   3.923   6.216   7.985 -0.3059  0.1415 -0.0758
 4498TIP3    H135053   3.901   6.278   7.916  0.1378 -0.0977 -0.4400
 4498TIP3    H235054   3.927   6.131   7.941  0.5602  0.0673  0.1265
 4499TIP3   OH235055   0.781   4.148   7.372  0.2032  0.3927 -0.9390
 4499TIP3    H135056   0.851   4.082   7.376 -1.6565 -1.8218 -2.1045
 4499TIP3    H235057   0.805   4.204   7.299  2.1246  1.5216  0.4320
 4500TIP3   OH235058   6.780   1.551   1.564  0.2029 -0.1289 -0.7686
 4500TIP3    H135059   6.760   1.498   1.641  1.9389  0.4033  0.1028
 4500TIP3    H235060   6.695   1.576   1.529 -0.6265 -0.1234  1.1630
 4501TIP3   OH235061   5.909   3.010   1.738  0.4658 -0.0256 -0.5982
 4501TIP3    H135062   5.862   3.007   1.655  0.0716 -0.9994 -0.3496
 4501TIP3    H235063   5.902   2.921   1.773 -0.7634  0.7341  1.2327
 4502TIP3   OH235064   0.883   5.068   0.295 -0.7005  0.1442  0.5272
 4502TIP3    H135065   0.836   5.070   0.212 -0.3336  0.7542  0.3285
 4502TIP3    H235066   0.913   5.158   0.308  0.8804 -0.3286  0.3765
 4503TIP3   OH235067   5.821   5.550   1.130  0.5039  0.4955 -0.0420
 4503TIP3    H135068   5.911   5.552   1.161  0.2615  1.6262  0.6610
 4503TIP3    H235069   5.773   5.503   1.198  0.2681  1.4820  0.4968
 4504TIP3   OH235070   2.251   7.001   1.621 -0.5218  0.3716 -0.2906
 4504TIP3    H135071   2.299   7.070   1.575  1.8336  0.2758  1.7995
 4504TIP3    H235072   2.301   6.921   1.603 -1.3174 -0.2038 -0.0062
 4505TIP3   OH235073   0.426   1.968   1.924 -0.0297  0.1910  0.0403
 4505TIP3    H135074   0.358   2.017   1.877 -0.4618 -1.1497 -0.7904
 4505TIP3    H235075   0.377   1.910   1.983  0.4483  0.2155  0.4689
 4506TIP3   OH235076   1.393   1.345   0.353 -0.3595 -0.5479  0.6020
 4506TIP3    H135077   1.457   1.283   0.389  0.3773 -0.5843 -0.6981
 4506TIP3    H235078   1.441   1.391   0.284 -1.8829 -0.9424 -0.7666
 4507TIP3   OH235079   2.253   0.697   1.764  0.1580  0.6123 -0.4973
 4507TIP3    H135080   2.312   0.675   1.692  1.5260 -0.8751  0.9975
 4507TIP3    H235081   2.283   0.782   1.795  1.3572  0.0164  0.0401
 4508TIP3   OH235082   3.263   5.950   1.884  0.2660  0.3359  0.0062
 4508TIP3    H135083   3.273   5.911   1.971 -0.5520  1.5612  0.6772
 4508TIP3    H235084   3.293   5.882   1.824  0.2182 -0.7835  1.2019
 4509TIP3   OH235085   0.707   5.876   1.347  0.1455  0.0859 -0.4184
 4509TIP3    H135086   0.764   5.883   1.423 -0.2111  3.3118 -0.3167
 4509TIP3    H235087   0.763   5.898   1.272 -0.2681  0.3788 -0.6495
 4510TIP3   OH235088   6.661   4.374   0.880  0.4962 -0.6615  0.3739
 4510TIP3    H135089   6.593   4.440   0.867 -0.5550 -1.6203  0.8002
 4510TIP3    H235090   6.617   4.290   0.862  1.5804 -1.3031  0.6098
 4511TIP3   OH235091   1.618   2.193   2.216  0.3491 -0.6885 -0.5458
 4511TIP3    H135092   1.692   2.150   2.173  0.6800 -0.1140 -0.5498
 4511TIP3    H235093   1.567   2.230   2.144  0.0691 -1.0573 -0.5411
 4512TIP3   OH235094   4.084   1.706   1.033  0.0486 -0.3990 -0.3902
 4512TIP3    H135095   4.038   1.787   1.014 -2.1217 -1.2143  0.9475
 4512TIP3    H235096   4.164   1.710   0.980  0.3229  2.8312  0.0653
 4513TIP3   OH235097   4.523   2.836   7.007  0.3484 -0.0632  0.4187
 4513TIP3    H135098   4.609   2.865   6.977  0.1395  0.2421  0.1143
 4513TIP3    H235099   4.541   2.759   7.061  0.8620  0.3155  0.7952
 4514TIP3   OH235100   1.468   6.046   3.005 -0.0960 -0.5043 -0.0892
 4514TIP3    H135101   1.562   6.032   3.001  0.0930  0.3830  0.7834
 4514TIP3    H235102   1.458   6.141   3.000 -0.8551 -0.5087  1.1041
 4515TIP3   OH235103   6.028   3.707   2.331  0.2760  0.2347  0.3290
 4515TIP3    H135104   5.946   3.671   2.363 -0.1132 -0.4167 -1.2926
 4515TIP3    H235105   6.077   3.730   2.410 -1.7657  1.3891  1.3165
 4516TIP3   OH235106   0.527   5.457   7.803  0.3312 -0.6067 -0.2236
 4516TIP3    H135107   0.616   5.458   7.770  0.3617  1.5081 -0.2113
 4516TIP3    H235108   0.536   5.442   7.897  0.7914  0.7171 -0.0342
 4517TIP3   OH235109   5.709   6.843   2.576  0.1900 -0.2980  0.0610
 4517TIP3    H135110   5.646   6.789   2.528 -1.4064  1.0472  0.5239
 4517TIP3    H235111   5.758   6.781   2.630 -3.0038 -1.2458  2.2100
 4518TIP3   OH235112   5.668   4.068   7.646  0.5095  0.8277  0.3602
 4518TIP3    H135113   5.719   4.118   7.583  0.4257 -1.0873 -1.3395
 4518TIP3    H235114   5.602   4.023   7.593 -0.6522  0.4661  2.0501
 4519TIP3   OH235115   5.872   6.600   7.677 -0.5475 -0.4659 -0.5005
 4519TIP3    H135116   5.854   6.517   7.633 -0.3517 -0.6862 -0.1676
 4519TIP3    H235117   5.906   6.657   7.608  2.1759 -1.5793 -0.1974
 4520TIP3   OH235118   6.541   1.800   2.358  0.2405 -0.5257 -0.0632
 4520TIP3    H135119   6.612   1.736   2.365  0.5633 -0.0818  0.8686
 4520TIP3    H235120   6.545   1.850   2.440 -1.1076 -0.4428 -0.0281
 4521TIP3   OH235121   1.424   6.141   0.060 -0.3003 -0.6181 -0.8048
 4521TIP3    H135122   1.351   6.110   0.007 -0.6710  0.3728 -0.8804
 4521TIP3    H235123   1.486   6.178  -0.003 -0.8310  0.7422 -0.5448
 4522TIP3   OH235124   1.247   3.778   0.877 -0.2531 -0.3535 -0.4358
 4522TIP3    H135125   1.236   3.768   0.972  0.9290  0.4760 -0.1914
 4522TIP3    H235126   1.335   3.744   0.860  0.6131  1.9000 -0.8032
 4523TIP3   OH235127   2.003   5.520   1.456 -0.0520 -0.3165  0.0005
 4523TIP3    H135128   2.041   5.432   1.460 -1.0618 -0.9524 -2.3820
 4523TIP3    H235129   1.911   5.506   1.478  0.0205  0.3423  0.7291
 4524TIP3   OH235130   0.195   0.468   7.739 -0.0017 -0.2499  0.0836
 4524TIP3    H135131   0.177   0.544   7.796  2.2571  0.1307  0.3817
 4524TIP3    H235132   0.202   0.505   7.651 -1.2361 -0.5042 -0.1429
 4525TIP3   OH235133   0.313   1.782   0.445  0.7341  0.0375  0.2594
 4525TIP3    H135134   0.377   1.843   0.483  1.6669  1.6877 -3.5505
 4525TIP3    H235135   0.234   1.834   0.432  0.0933 -0.7680  0.7972
 4526TIP3   OH235136   3.018   4.284   7.105 -0.0198 -0.0103  0.4605
 4526TIP3    H135137   3.045   4.368   7.142 -0.6396 -0.2614  1.5412
 4526TIP3    H235138   2.935   4.264   7.149 -0.6334 -0.4858 -0.8643
 4527TIP3   OH235139   2.256   6.422   1.978  0.4772 -0.2100 -0.4529
 4527TIP3    H135140   2.297   6.364   1.915  2.2213  0.2343  0.2224
 4527TIP3    H235141   2.162   6.409   1.965  0.8102 -1.4279 -1.8965
 4528TIP3   OH235142   5.659   6.467   1.345  0.0064  0.3354  0.2112
 4528TIP3    H135143   5.728   6.532   1.358  2.1850 -1.9018  0.5810
 4528TIP3    H235144   5.652   6.423   1.430  0.1352 -1.2965 -0.6020
 4529TIP3   OH235145   5.169   2.293   2.898 -0.3316 -0.1906  0.2321
 4529TIP3    H135146   5.131   2.288   2.985 -0.0968  1.3040  0.4450
 4529TIP3    H235147   5.264   2.293   2.912 -0.2903  1.7641  0.1262
 4530TIP3   OH235148   6.614   3.714   0.073 -0.0095  0.2737 -0.0284
 4530TIP3    H135149   6.562   3.735  -0.005  1.4380  2.2236 -0.5689
 4530TIP3    H235150   6.558   3.737   0.147 -0.7264  0.1983 -0.5435
 4531TIP3   OH235151   6.557   2.355   1.567 -0.3667 -0.0053 -0.4529
 4531TIP3    H135152   6.564   2.270   1.609  0.1361 -0.0761 -0.6685
 4531TIP3    H235153   6.618   2.411   1.614  1.0476 -0.3748 -1.7681
 4532TIP3   OH235154   1.923   2.414   0.439 -0.1671 -0.0329  0.1999
 4532TIP3    H135155   1.917   2.435   0.533  3.1907  0.0322  0.5193
 4532TIP3    H235156   1.926   2.499   0.396  0.2480 -0.0297  0.2317
 4533TIP3   OH235157   4.267   5.444   0.943  0.9976 -0.2451 -0.9606
 4533TIP3    H135158   4.315   5.525   0.925 -0.2191  0.6948 -0.1244
 4533TIP3    H235159   4.305   5.411   1.024 -0.9451  1.5229  0.7676
 4534TIP3   OH235160   0.124   6.430   0.912 -0.0045 -0.2288  0.5403
 4534TIP3    H135161   0.193   6.378   0.873  0.1828 -0.7923  1.5853
 4534TIP3    H235162   0.064   6.366   0.951  0.1124  0.3098  1.6504
 4535TIP3   OH235163   7.035   4.285   7.253  0.4058 -0.5187  0.5424
 4535TIP3    H135164   6.966   4.239   7.205 -1.3594  1.6815  0.8056
 4535TIP3    H235165   7.003   4.375   7.261  2.6387  0.2319  2.0344
 4536TIP3   OH235166   5.301   5.835   1.326 -0.1070  0.5410  0.5230
 4536TIP3    H135167   5.232   5.769   1.320 -1.1783  1.5591  1.1259
 4536TIP3    H235168   5.382   5.788   1.306 -0.7173 -1.1308  1.7530
 4537TIP3   OH235169   0.443   3.103   7.367  0.3450  0.0616  0.3135
 4537TIP3    H135170   0.383   3.073   7.299  0.2055  2.3353 -0.6675
 4537TIP3    H235171   0.512   3.037   7.369 -0.5389 -0.9338 -0.8180
 4538TIP3   OH235172   2.121   5.560   1.207  0.3878 -0.7792 -0.4074
 4538TIP3    H135173   2.071   5.633   1.169  1.1349 -0.4419 -0.7685
 4538TIP3    H235174   2.080   5.545   1.292  0.0875 -0.0716 -0.4183
 4539TIP3   OH235175   6.965   6.003   1.683 -0.0919 -0.1478 -0.1179
 4539TIP3    H135176   6.915   5.995   1.764 -0.3322  1.2485 -0.1037
 4539TIP3    H235177   7.038   6.061   1.704  0.2053 -0.2811 -0.7428
 4540TIP3   OH235178   6.056   6.212   1.085  0.7980 -0.0665 -0.5570
 4540TIP3    H135179   6.010   6.280   1.134  0.2472  0.8005 -2.1902
 4540TIP3    H235180   6.034   6.130   1.130 -0.3990  0.6008  0.1109
 4541TIP3   OH235181   2.978   0.611   1.653  0.8938 -0.1230  0.0229
 4541TIP3    H135182   2.998   0.556   1.578  0.6935 -1.0022  0.5916
 4541TIP3    H235183   3.051   0.672   1.658  0.1720  0.9562 -1.7737
 4542TIP3   OH235184   4.191   0.902   3.177 -0.7650  0.2275  0.3303
 4542TIP3    H135185   4.131   0.907   3.252 -2.4669 -0.4589 -0.9164
 4542TIP3    H235186   4.144   0.948   3.107  0.2498 -0.2098 -0.6542
 4543TIP3   OH235187   2.980   2.738   2.800  0.6402  0.3751  0.2737
 4543TIP3    H135188   2.894   2.702   2.779  1.0301  0.4663 -1.6914
 4543TIP3    H235189   3.027   2.666   2.840 -0.7143  0.6726  2.5717
 4544TIP3   OH235190   2.603   1.180   2.435 -0.4430 -0.4933  0.0608
 4544TIP3    H135191   2.689   1.220   2.445 -0.3516 -0.7320  0.2548
 4544TIP3    H235192   2.562   1.190   2.521 -2.3344  3.4918 -1.0719
 4545TIP3   OH235193   1.234   2.494   3.400  0.0481  0.2346 -0.0305
 4545TIP3    H135194   1.159   2.538   3.442 -1.2104 -2.1168  0.3533
 4545TIP3    H235195   1.232   2.405   3.434  2.6874 -0.0966 -0.5249
 4546TIP3   OH235196   2.954   5.367   0.211  0.2785 -0.6018  0.5037
 4546TIP3    H135197   2.906   5.422   0.272  3.5081  0.7916  1.9924
 4546TIP3    H235198   2.976   5.425   0.138  3.1198  0.0731  1.7674
 4547TIP3   OH235199   1.379   6.302   7.920 -0.2207  0.0862 -0.3073
 4547TIP3    H135200   1.285   6.296   7.940 -0.3239  1.8344 -0.1328
 4547TIP3    H235201   1.409   6.378   7.969  1.0874  0.1617 -1.1805
 4548TIP3   OH235202   6.427   1.357   2.964 -0.3329 -0.6991 -0.4247
 4548TIP3    H135203   6.513   1.328   2.935  0.0282 -0.3797  0.3146
 4548TIP3    H235204   6.417   1.319   3.051  0.9669  2.8016  1.4610
 4549TIP3   OH235205   0.898   4.985   0.871  0.2339  0.2231  0.4093
 4549TIP3    H135206   0.906   5.044   0.796  0.4972  0.6110  0.7377
 4549TIP3    H235207   0.874   5.043   0.944  1.0979  0.0138  0.8685
 4550TIP3   OH235208   5.559   3.836   8.117 -0.0590 -0.0472  0.4722
 4550TIP3    H135209   5.646   3.851   8.080  0.1850 -2.0285  0.1025
 4550TIP3    H235210   5.566   3.865   8.207  0.4081  1.5580 -0.0538
 4551TIP3   OH235211   1.653   6.768   2.448 -0.3079  0.0055  0.0042
 4551TIP3    H135212   1.707   6.691   2.466 -0.2886 -0.6845 -2.5575
 4551TIP3    H235213   1.714   6.830   2.407 -1.1178 -0.2338 -1.6318
 4552TIP3   OH235214   5.820   1.667   8.190  0.5097 -0.5000  0.0422
 4552TIP3    H135215   5.800   1.753   8.225 -1.0375 -1.1601  0.9175
 4552TIP3    H235216   5.858   1.684   8.104 -0.4623  1.0413 -0.1238
 4553TIP3   OH235217   1.316   3.503   2.413  0.2318  0.2372 -0.0804
 4553TIP3    H135218   1.254   3.573   2.393 -2.1460 -1.9071 -0.7871
 4553TIP3    H235219   1.323   3.505   2.509 -2.5100 -0.6003  0.2316
 4554TIP3   OH235220   4.981   5.009   7.584 -0.3519  0.1749 -0.0371
 4554TIP3    H135221   4.948   4.919   7.591 -1.0091  0.0734 -2.9120
 4554TIP3    H235222   4.964   5.033   7.493 -1.2995  3.6681  0.8942
 4555TIP3   OH235223   5.975   6.947   0.903  0.0050 -0.5460 -0.5475
 4555TIP3    H135224   6.012   6.859   0.911  0.3578 -0.3405  0.0859
 4555TIP3    H235225   5.968   6.979   0.993 -0.0682  0.0964 -0.7776
 4556TIP3   OH235226   0.723   5.810   7.642 -0.0688  0.5021 -0.1475
 4556TIP3    H135227   0.813   5.817   7.676  0.4281 -1.8640 -0.8342
 4556TIP3    H235228   0.733   5.820   7.547 -0.9651  3.1482 -0.0417
 4557TIP3   OH235229   4.646   3.856   7.805 -0.4071 -0.1804 -0.2771
 4557TIP3    H135230   4.577   3.843   7.740  0.7176 -0.8886 -1.3949
 4557TIP3    H235231   4.608   3.914   7.870 -1.8346 -0.0476 -1.1888
 4558TIP3   OH235232   1.246   2.633   0.830  0.7943  0.1678 -0.5736
 4558TIP3    H135233   1.275   2.557   0.779 -0.1640 -0.0847 -0.7640
 4558TIP3    H235234   1.220   2.697   0.765 -0.0500 -0.0016 -0.4096
 4559TIP3   OH235235   5.577   0.893   0.189  0.3097  0.1303 -0.7295
 4559TIP3    H135236   5.537   0.955   0.250  1.1798 -2.0571  2.3373
 4559TIP3    H235237   5.666   0.881   0.223  0.4057 -2.1970 -1.6336
 4560TIP3   OH235238   5.508   2.087   1.754  0.2360  0.3192 -0.7928
 4560TIP3    H135239   5.504   2.027   1.680 -0.1267  1.2880 -1.5748
 4560TIP3    H235240   5.535   2.171   1.716  0.1429  0.8043  0.1818
 4561TIP3   OH235241   2.893   2.695   1.402 -0.6608 -0.7583 -0.0729
 4561TIP3    H135242   2.806   2.657   1.408 -0.2017 -2.1466 -1.3977
 4561TIP3    H235243   2.941   2.635   1.345  0.4926  1.2074 -1.2849
 4562TIP3   OH235244   6.137   0.431   0.950 -0.1553 -0.3580  0.6383
 4562TIP3    H135245   6.150   0.384   0.868  0.9757  1.2320 -0.1571
 4562TIP3    H235246   6.097   0.367   1.009  0.6724 -2.0838 -0.5886
 4563TIP3   OH235247   3.760   3.348   1.691 -0.1177  0.1201  0.3964
 4563TIP3    H135248   3.787   3.296   1.616  0.7536 -0.5283  1.1385
 4563TIP3    H235249   3.815   3.426   1.687 -0.8451  0.6056 -0.2525
 4564TIP3   OH235250   1.015   6.600   1.293  0.5569 -0.4659 -0.0362
 4564TIP3    H135251   1.012   6.660   1.367 -1.3428 -0.4675 -0.0636
 4564TIP3    H235252   0.924   6.574   1.279  1.1011 -1.9150 -1.1993
 4565TIP3   OH235253   5.881   0.702   0.116 -0.2825 -0.3296  1.0026
 4565TIP3    H135254   5.929   0.620   0.117  1.1926  0.4955  1.5026
 4565TIP3    H235255   5.791   0.677   0.098  0.3643 -1.9188 -0.2974
 4566TIP3   OH235256   2.613   3.516   0.097  0.3574  0.4530 -0.3927
 4566TIP3    H135257   2.612   3.526   0.002 -0.0625 -0.1288 -0.4524
 4566TIP3    H235258   2.705   3.523   0.121  0.5177  0.1119 -0.8990
 4567TIP3   OH235259   5.573   4.762   2.749 -0.0371  0.3514 -0.2050
 4567TIP3    H135260   5.481   4.736   2.744 -0.1187  0.5625  0.1460
 4567TIP3    H235261   5.596   4.788   2.660 -0.8903  2.2189  0.0849
 4568TIP3   OH235262   1.462   5.871   8.109 -0.3232 -0.2075 -0.2451
 4568TIP3    H135263   1.444   5.942   8.048  0.9859  0.6193  0.2675
 4568TIP3    H235264   1.454   5.791   8.057 -1.4742  0.3278 -0.9203
 4569TIP3   OH235265   2.427   1.472   2.783  0.3391 -0.1953 -0.1721
 4569TIP3    H135266   2.335   1.481   2.808 -0.1719 -3.7838 -0.2050
 4569TIP3    H235267   2.475   1.509   2.857 -1.0622  2.3976 -0.4650
 4570TIP3   OH235268   4.142   6.296   2.306 -0.0663  0.2125  0.3928
 4570TIP3    H135269   4.112   6.210   2.337  3.8984 -2.1637 -1.5013
 4570TIP3    H235270   4.191   6.332   2.380  1.4905 -1.0900  0.0704
 4571TIP3   OH235271   2.317   5.194   2.096  0.2513 -0.1521  0.1321
 4571TIP3    H135272   2.256   5.249   2.146  0.2333  0.8053 -0.8869
 4571TIP3    H235273   2.304   5.106   2.131  1.3672  0.6646  2.8820
 4572TIP3   OH235274   4.194   5.133   8.184  0.0821  0.4688 -0.2782
 4572TIP3    H135275   4.158   5.064   8.239  1.1929 -0.0316 -0.1500
 4572TIP3    H235276   4.129   5.203   8.188 -0.9722 -0.4890 -0.2641
 4573TIP3   OH235277   3.038   4.491   7.292 -0.3171 -0.4701 -0.0622
 4573TIP3    H135278   2.984   4.468   7.367  0.5230 -1.3216  0.2894
 4573TIP3    H235279   3.109   4.544   7.328 -1.3959  1.5203 -0.6559
 4574TIP3   OH235280   6.241   6.434   7.237 -0.8031 -0.4369  0.1692
 4574TIP3    H135281   6.307   6.365   7.227 -0.7278 -0.3297 -0.0852
 4574TIP3    H235282   6.239   6.477   7.152 -2.7330 -1.7838 -0.5309
 4575TIP3   OH235283   2.352   0.084   8.032 -0.0345  0.1831 -0.1768
 4575TIP3    H135284   2.348   0.060   7.940  1.1414  0.4110 -0.3037
 4575TIP3    H235285   2.324   0.006   8.079  0.5693 -0.3565 -0.6966
 4576TIP3   OH235286   4.211   1.452   1.127  0.2028  0.4904  0.4655
 4576TIP3    H135287   4.158   1.531   1.126 -0.3118  0.1454  0.1189
 4576TIP3    H235288   4.271   1.462   1.053 -0.1978  0.3369  0.1148
 4577TIP3   OH235289   2.663   2.183   7.955 -0.1917 -0.5510  0.1296
 4577TIP3    H135290   2.615   2.162   8.035 -0.0415 -1.6082 -0.0459
 4577TIP3    H235291   2.718   2.107   7.939  0.0322 -0.2123 -0.7971
 4578TIP3   OH235292   3.017   5.411   0.960 -0.3663 -0.3645 -0.1042
 4578TIP3    H135293   2.968   5.383   0.883 -0.5605  0.3203 -0.2415
 4578TIP3    H235294   2.962   5.385   1.034 -0.2993 -0.7922 -0.1999
 4579TIP3   OH235295   0.166   1.483   1.247 -0.2776  0.5966  0.2870
 4579TIP3    H135296   0.094   1.492   1.184  0.6603 -0.0168 -0.9010
 4579TIP3    H235297   0.144   1.545   1.317 -1.2660  1.4145 -0.7101
 4580TIP3   OH235298   3.250   3.302   8.215 -0.4327  0.1709  0.3437
 4580TIP3    H135299   3.240   3.302   8.120 -1.2643  0.6401  0.4153
 4580TIP3    H235300   3.336   3.264   8.230 -1.3623 -2.4834 -0.4734
 4581TIP3   OH235301   2.794   6.011   1.649 -0.9737  0.1865  0.0731
 4581TIP3    H135302   2.886   5.984   1.651 -0.5580  1.5318  0.2796
 4581TIP3    H235303   2.747   5.935   1.616  0.4423  0.0781 -1.8776
 4582TIP3   OH235304   1.677   0.593   2.850 -0.3008  0.3587  0.4557
 4582TIP3    H135305   1.750   0.560   2.798 -0.2433  0.4523  0.4754
 4582TIP3    H235306   1.599   0.576   2.797 -0.4038 -0.8534  0.9634
 4583TIP3   OH235307   6.621   5.286   1.554  0.4597  0.1781  0.2547
 4583TIP3    H135308   6.586   5.368   1.589  2.5860  0.3132  2.3181
 4583TIP3    H235309   6.578   5.218   1.607 -0.1197  0.0282 -0.3909
 4584TIP3   OH235310   5.998   5.014   0.410 -0.4370 -0.0229  0.7940
 4584TIP3    H135311   6.080   4.975   0.381 -0.3105  0.5171  0.4281
 4584TIP3    H235312   5.948   4.940   0.446 -0.1133 -0.4875  0.2973
 4585TIP3   OH235313   4.425   4.465   1.021 -0.5543  0.3843  0.2361
 4585TIP3    H135314   4.397   4.513   1.099 -1.0571  2.6831 -1.2643
 4585TIP3    H235315   4.519   4.449   1.035 -0.2293  2.3467  0.5928
 4586TIP3   OH235316   2.201   3.964   0.247 -0.6037 -0.4661  0.0076
 4586TIP3    H135317   2.275   3.981   0.189  0.3435 -0.4797  1.1724
 4586TIP3    H235318   2.164   3.881   0.216  1.0243 -1.4326  0.5164
 4587TIP3   OH235319   4.682   5.921   6.927  0.4141  0.2631  0.1366
 4587TIP3    H135320   4.619   5.849   6.936  1.5264 -0.6234  1.2048
 4587TIP3    H235321   4.628   5.999   6.918 -0.8326 -0.6383 -0.6192
 4588TIP3   OH235322   3.336   7.002   7.860  0.4107  0.2630  0.0854
 4588TIP3    H135323   3.418   6.959   7.837 -0.5355 -0.9638 -1.1725
 4588TIP3    H235324   3.333   7.080   7.804  2.1792  2.1509  2.4472
 4589TIP3   OH235325   3.152   4.677   2.340  0.4323  0.4337 -0.3770
 4589TIP3    H135326   3.235   4.713   2.307  1.6894 -0.2777  1.8196
 4589TIP3    H235327   3.152   4.698   2.433 -1.2430 -0.7278 -0.0785
 4590TIP3   OH235328   2.143   3.393   7.654 -0.3680 -0.3201  0.0661
 4590TIP3    H135329   2.230   3.424   7.626 -0.1743  0.7758  1.7589
 4590TIP3    H235330   2.082   3.444   7.600  0.0131  0.8210  0.6668
 4591TIP3   OH235331   5.928   1.226   6.988  0.5758 -0.0339  0.0550
 4591TIP3    H135332   5.839   1.225   7.023  0.1350  0.5999 -1.0217
 4591TIP3    H235333   5.929   1.298   6.924  2.4343  1.3501  1.5110
 4592TIP3   OH235334   1.495   1.449   2.361  0.1091 -0.3927  0.1357
 4592TIP3    H135335   1.510   1.543   2.362 -0.1737 -0.3308 -0.6903
 4592TIP3    H235336   1.568   1.414   2.311  1.6028 -0.9041  2.4948
 4593TIP3   OH235337   4.834   0.131   1.396 -0.4293  0.1071 -0.1820
 4593TIP3    H135338   4.861   0.193   1.465 -0.1694 -0.9671  0.7170
 4593TIP3    H235339   4.916   0.102   1.357 -0.4495 -0.6677  0.3190
 4594TIP3   OH235340   1.005   5.365   8.122  0.6100  0.0764  0.1177
 4594TIP3    H135341   0.955   5.433   8.166  0.2242  1.2214 -1.9790
 4594TIP3    H235342   0.994   5.383   8.028  1.6049 -2.0735 -0.4840
 4595TIP3   OH235343   5.673   3.639   0.352 -0.0016 -0.2320  0.8413
 4595TIP3    H135344   5.671   3.575   0.281 -1.6260  0.4988  0.1699
 4595TIP3    H235345   5.742   3.608   0.411  0.7980 -1.3274 -0.6066
 4596TIP3   OH235346   3.353   2.360   0.855  0.2477  0.3937  0.3584
 4596TIP3    H135347   3.377   2.325   0.770  1.1789  0.2336  0.6842
 4596TIP3    H235348   3.292   2.432   0.835 -0.3957 -0.3403 -0.3753
 4597TIP3   OH235349   6.982   2.625   1.925  0.0048  0.6322  0.8497
 4597TIP3    H135350   6.888   2.632   1.905  0.3636 -0.7050 -1.7683
 4597TIP3    H235351   6.990   2.659   2.014 -3.0982 -0.1301  1.5400
 4598TIP3   OH235352   1.329   2.032   0.578 -0.3359  0.3640  0.1836
 4598TIP3    H135353   1.344   2.112   0.528 -0.5249 -0.0569 -0.5556
 4598TIP3    H235354   1.250   2.049   0.628  0.3630  1.1305  1.0656
 4599TIP3   OH235355   0.565   2.766   0.332 -0.2784  0.2843  0.1229
 4599TIP3    H135356   0.476   2.732   0.323  0.2859 -1.6891  1.2926
 4599TIP3    H235357   0.573   2.788   0.425  1.3215 -2.5163  0.7797
 4600TIP3   OH235358   5.166   2.179   1.009  0.0031 -0.7427  0.0292
 4600TIP3    H135359   5.169   2.141   1.097  1.9371 -1.8020 -0.4410
 4600TIP3    H235360   5.109   2.120   0.960 -1.8473  0.3681  0.7491
 4601TIP3   OH235361   6.313   3.596   1.629 -0.3917  0.4204  0.0467
 4601TIP3    H135362   6.235   3.578   1.577 -0.6753  0.1241  0.5717
 4601TIP3    H235363   6.379   3.535   1.595 -0.7456 -0.1782  0.4128
 4602TIP3   OH235364   2.515   0.063   7.784 -0.1213  0.0748  0.4685
 4602TIP3    H135365   2.604   0.093   7.803  0.8543 -0.7316 -2.3531
 4602TIP3    H235366   2.461   0.143   7.787  0.7108  0.6203  1.8914
 4603TIP3   OH235367   6.648   3.181   3.081  0.1704  0.2573  0.0326
 4603TIP3    H135368   6.617   3.140   3.162  0.8871 -0.6262 -0.1213
 4603TIP3    H235369   6.699   3.256   3.109  0.0849  0.1818  0.3878
 4604TIP3   OH235370   2.563   0.796   1.334 -0.2283  0.2062 -0.0629
 4604TIP3    H135371   2.625   0.729   1.364 -0.8542 -0.4255 -0.1589
 4604TIP3    H235372   2.482   0.776   1.382 -0.7067  0.2924 -0.8265
 4605TIP3   OH235373   5.791   2.140   7.809 -0.4051 -0.9850 -0.1306
 4605TIP3    H135374   5.873   2.147   7.857 -0.6457  0.7240  0.0935
 4605TIP3    H235375   5.817   2.115   7.720  0.4317  0.2301 -0.2420
 4606TIP3   OH235376   5.139   2.773   7.951  0.4664 -0.1217 -0.3902
 4606TIP3    H135377   5.122   2.804   8.040 -0.7656 -0.7534 -0.3819
 4606TIP3    H235378   5.075   2.820   7.896  0.3687 -0.6559 -0.7477
 4607TIP3   OH235379   4.910   5.659   0.118  0.1306  0.5700  0.3414
 4607TIP3    H135380   4.926   5.571   0.083  0.1478  0.7668 -0.1569
 4607TIP3    H235381   4.950   5.717   0.054  0.4155  0.9292  0.8425
 4608TIP3   OH235382   2.546   0.240   1.089  0.5511 -0.4424  0.7379
 4608TIP3    H135383   2.480   0.177   1.119  1.5107 -1.4043  0.8902
 4608TIP3    H235384   2.547   0.231   0.994  1.2688 -1.3027  0.8055
 4609TIP3   OH235385   4.412   4.875   3.011 -0.1300  0.6134  0.6219
 4609TIP3    H135386   4.384   4.949   3.064 -0.3704  0.2058  1.0679
 4609TIP3    H235387   4.347   4.870   2.941 -1.0948 -0.2224  1.5548
 4610TIP3   OH235388   6.978   1.998   0.152 -0.7542  0.4440  0.0644
 4610TIP3    H135389   6.955   2.078   0.104  0.6221 -0.1115 -1.6616
 4610TIP3    H235390   7.073   1.991   0.142 -0.6349 -0.5369  1.6114
 4611TIP3   OH235391   4.474   1.499   7.563 -0.8020 -0.1762  0.6532
 4611TIP3    H135392   4.386   1.495   7.602 -1.4829 -1.0356 -0.9152
 4611TIP3    H235393   4.482   1.418   7.513 -0.1580  1.0677 -1.3719
 4612TIP3   OH235394   3.596   6.472   1.470 -0.6930  0.1628 -0.1445
 4612TIP3    H135395   3.569   6.440   1.384 -0.8794 -1.1977  0.3941
 4612TIP3    H235396   3.605   6.567   1.459 -1.3358  0.0871 -1.4895
 4613TIP3   OH235397   6.504   4.598   2.624  0.0163  0.1522  0.0569
 4613TIP3    H135398   6.524   4.528   2.686  3.2206  1.3063  0.5117
 4613TIP3    H235399   6.559   4.578   2.547  0.5777  1.8019 -0.0166
 4614TIP3   OH235400   2.667   3.829   1.228  0.2140 -0.0710 -0.4473
 4614TIP3    H135401   2.598   3.779   1.184  1.2549 -2.9797  0.9743
 4614TIP3    H235402   2.620   3.892   1.283 -1.3039 -1.4829 -0.0616
 4615TIP3   OH235403   0.699   3.814   0.291 -0.2796 -0.3876  0.1050
 4615TIP3    H135404   0.744   3.737   0.328 -2.3640 -2.5026 -1.4876
 4615TIP3    H235405   0.609   3.806   0.322 -0.4585  1.7466  0.2732
 4616TIP3   OH235406   0.305   5.279   7.992 -0.2844 -0.3852  0.3618
 4616TIP3    H135407   0.300   5.234   7.908  1.7733 -1.7239  0.9061
 4616TIP3    H235408   0.296   5.209   8.058  0.5293  0.3165  1.2428
 4617TIP3   OH235409   6.239   5.018   2.176  0.2657  0.1313  0.1537
 4617TIP3    H135410   6.177   4.945   2.176  1.6193 -1.0769 -0.1942
 4617TIP3    H235411   6.198   5.085   2.122 -0.6691 -0.6938 -0.1879
 4618TIP3   OH235412   5.756   2.616   1.858  0.1692  0.4182  0.4379
 4618TIP3    H135413   5.663   2.619   1.837 -0.3003 -0.3999  2.1843
 4618TIP3    H235414   5.800   2.603   1.774 -1.1701  2.0303 -0.5839
 4619TIP3   OH235415   6.091   5.346   7.011 -0.4193 -0.3068  0.2894
 4619TIP3    H135416   6.160   5.400   7.050 -1.5844  1.0807  0.5100
 4619TIP3    H235417   6.014   5.362   7.065 -2.6059  3.0909 -3.3373
 4620TIP3   OH235418   5.093   5.074   7.816 -0.4417 -0.6814 -0.7548
 4620TIP3    H135419   5.046   5.143   7.862 -1.2284 -1.6520 -0.0318
 4620TIP3    H235420   5.035   5.050   7.743  0.6434  0.6149 -2.1067
 4621TIP3   OH235421   6.343   2.694   0.046 -0.2571  0.1954 -0.0406
 4621TIP3    H135422   6.391   2.617   0.075 -0.9229  0.0292  0.6343
 4621TIP3    H235423   6.262   2.661   0.010 -1.0188  0.6156  1.2093
 4622TIP3   OH235424   1.338   0.756   0.155 -0.1866  0.0166 -0.1593
 4622TIP3    H135425   1.282   0.695   0.204  0.8189 -0.8117 -0.0098
 4622TIP3    H235426   1.309   0.747   0.065  0.2319 -1.0241 -0.2033
 4623TIP3   OH235427   5.730   3.982   2.525  0.8963 -0.3005  0.0004
 4623TIP3    H135428   5.769   3.920   2.464  1.8554  0.0228  0.2807
 4623TIP3    H235429   5.780   3.971   2.606 -0.3781 -0.7532  0.7698
 4624TIP3   OH235430   0.262   6.297   2.918  0.6639 -0.4278  0.3583
 4624TIP3    H135431   0.278   6.385   2.951  1.0570 -0.3803  0.0460
 4624TIP3    H235432   0.314   6.240   2.973  1.9523 -0.2738 -0.6557
 4625TIP3   OH235433   4.158   5.711   3.171  0.3049  0.1706  0.2918
 4625TIP3    H135434   4.216   5.644   3.207  0.6952  1.0477  1.3729
 4625TIP3    H235435   4.146   5.687   3.079  2.9497  0.3417 -0.1576
 4626TIP3   OH235436   0.370   0.564   1.098 -0.6649  0.3109 -0.0465
 4626TIP3    H135437   0.370   0.529   1.187  0.8603  0.2451 -0.0478
 4626TIP3    H235438   0.370   0.659   1.110  0.1433  0.3042  0.0439
 4627TIP3   OH235439   0.121   0.884   0.006 -0.2465  0.2241  0.4613
 4627TIP3    H135440   0.212   0.861   0.025  0.2881  0.7831 -1.2161
 4627TIP3    H235441   0.117   0.978   0.021 -0.7016  0.1085  1.0674
 4628TIP3   OH235442   5.400   3.105   0.343  0.4136 -0.4011 -0.2717
 4628TIP3    H135443   5.307   3.083   0.354  0.4348  0.0773  1.1782
 4628TIP3    H235444   5.441   3.073   0.423  1.4431 -0.2891 -0.7422
 4629TIP3   OH235445   1.815   5.399   0.363 -0.1065 -0.0312  0.3301
 4629TIP3    H135446   1.734   5.369   0.405 -0.6956 -0.7962 -1.2471
 4629TIP3    H235447   1.818   5.350   0.281  0.5045  2.0298 -0.9459
 4630TIP3   OH235448   1.341   6.614   1.795  0.0236  0.1632  0.2044
 4630TIP3    H135449   1.386   6.542   1.751 -0.9005 -0.6856  0.5946
 4630TIP3    H235450   1.298   6.662   1.725  0.6357  0.3369 -0.0585
 4631TIP3   OH235451   0.774   0.111   2.173 -0.4219 -0.0941 -0.1208
 4631TIP3    H135452   0.796   0.024   2.207  1.6475  0.0968 -0.8410
 4631TIP3    H235453   0.821   0.172   2.229 -2.0834  0.6399  0.5526
 4632TIP3   OH235454   6.651   2.762   0.627  0.5432 -0.6201  0.4951
 4632TIP3    H135455   6.642   2.834   0.689  1.6922  0.2325 -0.2992
 4632TIP3    H235456   6.577   2.704   0.647 -1.3552  1.5415  0.1369
 4633TIP3   OH235457   0.806   4.816   2.370  0.6568 -0.1275  0.4328
 4633TIP3    H135458   0.752   4.754   2.320 -0.9411  1.0187  0.6632
 4633TIP3    H235459   0.789   4.793   2.461  0.5729  0.2424  0.5086
 4634TIP3   OH235460   6.995   6.663   2.175  0.2085  1.0248 -0.1403
 4634TIP3    H135461   7.035   6.670   2.261 -0.7773  0.0424  0.4330
 4634TIP3    H235462   6.901   6.653   2.193  0.0040  0.6471 -1.3127
 4635TIP3   OH235463   0.500   0.805   2.566  0.2519 -0.3259  0.2340
 4635TIP3    H135464   0.490   0.780   2.474 -1.2608 -0.5908  0.4415
 4635TIP3    H235465   0.545   0.732   2.607  0.8122 -0.2657 -0.2694
 4636TIP3   OH235466   2.616   0.925   2.242 -0.0039 -0.4726 -0.1530
 4636TIP3    H135467   2.680   0.920   2.313 -0.3591 -1.4964  0.1133
 4636TIP3    H235468   2.559   0.998   2.267 -0.2381 -0.9399  0.7318
 4637TIP3   OH235469   0.253   2.171   2.264 -0.0431 -0.2860  0.0851
 4637TIP3    H135470   0.171   2.145   2.306 -0.5406 -0.2297 -0.8500
 4637TIP3    H235471   0.236   2.258   2.230  0.4029 -0.2809 -0.1286
 4638TIP3   OH235472   2.175   1.387   7.788  0.5076  0.3181  0.3487
 4638TIP3    H135473   2.109   1.426   7.846  1.0079 -1.3069  2.1033
 4638TIP3    H235474   2.133   1.309   7.752  0.8452  0.2982 -0.0095
 4639TIP3   OH235475   0.377   2.837   2.871  0.3039 -0.0524 -0.2745
 4639TIP3    H135476   0.304   2.799   2.920  0.5516 -1.3847 -0.8970
 4639TIP3    H235477   0.335   2.894   2.806 -0.1110  0.1616  0.1701
 4640TIP3   OH235478   3.061   2.089   2.202 -0.4285 -0.0013  0.2445
 4640TIP3    H135479   3.094   2.007   2.165  2.6362  1.7434 -1.2989
 4640TIP3    H235480   3.017   2.132   2.130  1.1302  1.2110 -0.0315
 4641TIP3   OH235481   6.863   2.855   3.477 -0.4478 -0.0182 -0.2639
 4641TIP3    H135482   6.882   2.929   3.534  1.7453 -0.8622  0.2067
 4641TIP3    H235483   6.949   2.825   3.447 -1.3863 -1.2402 -1.9126
 4642TIP3   OH235484   5.739   4.009   1.899  0.4474  0.0311 -0.1544
 4642TIP3    H135485   5.693   3.945   1.953 -0.6629  1.7425  1.0558
 4642TIP3    H235486   5.825   4.017   1.939  0.0380  0.4094  0.6893
 4643TIP3   OH235487   5.992   5.646   1.741  0.2354  0.5629 -0.3774
 4643TIP3    H135488   6.014   5.567   1.791 -1.4131  0.9614  1.0531
 4643TIP3    H235489   5.966   5.710   1.807 -0.4838  1.6475 -1.6610
 4644TIP3   OH235490   0.285   6.722   2.077  0.1677  0.3458 -0.1306
 4644TIP3    H135491   0.258   6.775   2.003 -1.5866 -1.6616 -1.0453
 4644TIP3    H235492   0.361   6.767   2.113  1.9533  0.7830 -3.9230
 4645TIP3   OH235493   3.530   3.061   2.381  0.0919  0.5185 -0.0334
 4645TIP3    H135494   3.449   3.097   2.417 -0.5165 -0.1732 -0.6899
 4645TIP3    H235495   3.532   2.970   2.412  1.2757  0.8760  1.0472
 4646TIP3   OH235496   1.018   6.832   7.266 -0.0190  0.2532 -0.3120
 4646TIP3    H135497   0.987   6.802   7.351 -0.3945  0.2600 -0.4457
 4646TIP3    H235498   1.106   6.794   7.257  1.2037  2.4630  1.2821
 4647TIP3   OH235499   2.382   5.466   2.044 -0.5632  0.1350  0.0068
 4647TIP3    H135500   2.351   5.532   1.982 -0.5270 -0.1651 -0.3276
 4647TIP3    H235501   2.400   5.389   1.991  0.0914  0.0839  0.2974
 4648TIP3   OH235502   3.831   5.711   7.146 -0.6452  0.2900 -0.3595
 4648TIP3    H135503   3.802   5.649   7.079 -0.2817 -1.3001  0.8974
 4648TIP3    H235504   3.861   5.656   7.218  1.2931  1.9247  0.1589
 4649TIP3   OH235505   4.766   7.030   8.119 -0.4724  0.2517 -0.9825
 4649TIP3    H135506   4.689   7.056   8.069  0.0409  0.5878 -1.6213
 4649TIP3    H235507   4.773   6.936   8.106 -0.9852  0.1541 -0.6036
 4650TIP3   OH235508   6.691   5.588   2.971  0.0405  0.0842 -0.5684
 4650TIP3    H135509   6.681   5.570   3.065  1.0486 -1.5538 -0.7353
 4650TIP3    H235510   6.612   5.553   2.932 -0.0804  0.1640 -0.3974
 4651TIP3   OH235511   4.233   0.199   2.679  0.2593  0.2989  0.1756
 4651TIP3    H135512   4.289   0.254   2.625  0.4548 -0.8272 -0.8123
 4651TIP3    H235513   4.224   0.247   2.762 -0.1092  2.1009 -0.8541
 4652TIP3   OH235514   2.110   7.032   7.880 -0.0139 -0.7052  0.4863
 4652TIP3    H135515   2.121   6.938   7.864  1.5130 -0.7403  1.5243
 4652TIP3    H235516   2.077   7.038   7.970 -2.6927 -0.2981 -0.4300
 4653TIP3   OH235517   4.612   0.531   0.818 -0.3869  0.0016 -0.4334
 4653TIP3    H135518   4.561   0.465   0.863 -2.8849  1.8254 -0.3994
 4653TIP3    H235519   4.673   0.564   0.885 -1.3608 -0.0102  0.4746
 4654TIP3   OH235520   0.754   5.322   2.451 -0.0584 -0.0572 -0.2357
 4654TIP3    H135521   0.744   5.228   2.440 -1.5718  0.0566 -0.0564
 4654TIP3    H235522   0.688   5.361   2.393 -0.7074  0.8157  1.0256
 4655TIP3   OH235523   2.073   5.868   1.265 -0.2553 -0.1189 -0.1829
 4655TIP3    H135524   2.128   5.863   1.187  1.6290  1.8534  0.8884
 4655TIP3    H235525   2.020   5.788   1.264  2.1668 -1.8084 -1.6597
 4656TIP3   OH235526   2.852   1.025   8.222 -0.3346  0.0415 -0.2294
 4656TIP3    H135527   2.794   0.972   8.167 -1.2580  0.5209  0.2604
 4656TIP3    H235528   2.891   1.088   8.161 -1.7826  0.9415 -0.3020
 4657TIP3   OH235529   6.141   1.126   0.539  0.1712  0.3001 -0.1574
 4657TIP3    H135530   6.143   1.052   0.479  1.8203  1.9942 -2.3589
 4657TIP3    H235531   6.062   1.174   0.516  0.3138  0.4521 -0.3303
 4658TIP3   OH235532   4.230   3.815   7.935 -0.3056 -0.2995 -0.5211
 4658TIP3    H135533   4.151   3.768   7.962  0.1591 -1.2305 -0.7268
 4658TIP3    H235534   4.205   3.861   7.855 -1.4677  1.8465  0.9858
 4659TIP3   OH235535   1.863   2.761   2.709 -0.1736 -0.1416 -0.3394
 4659TIP3    H135536   1.936   2.793   2.656  0.9140 -1.6337  0.2123
 4659TIP3    H235537   1.838   2.836   2.763  1.5480  0.1490  0.1028
 4660TIP3   OH235538   2.914   5.010   8.146  0.3260 -0.6156  0.2131
 4660TIP3    H135539   3.003   4.997   8.181  1.2681  0.0984 -1.7754
 4660TIP3    H235540   2.879   5.082   8.197  1.4549  0.0507  0.0939
 4661TIP3   OH235541   5.062   4.325   7.207  0.1212 -0.0831  0.7032
 4661TIP3    H135542   5.036   4.404   7.159  1.3055 -0.5655 -0.7974
 4661TIP3    H235543   5.035   4.343   7.297 -0.3451  1.7050  0.2586
 4662TIP3   OH235544   1.466   2.895   0.845 -0.0441 -0.3043 -0.1875
 4662TIP3    H135545   1.508   2.959   0.788  1.1384  0.9055  1.8998
 4662TIP3    H235546   1.518   2.816   0.834  0.0296 -0.1608 -0.9285
 4663TIP3   OH235547   1.549   6.373   0.245  0.2254  0.0281  0.1780
 4663TIP3    H135548   1.506   6.353   0.162 -0.4507  0.7175  0.3528
 4663TIP3    H235549   1.488   6.432   0.290  0.8093  0.0534  0.9513
 4664TIP3   OH235550   1.475   3.488   0.305  0.3615  0.1046  0.0485
 4664TIP3    H135551   1.543   3.422   0.316 -0.0449 -0.0227  2.5499
 4664TIP3    H235552   1.399   3.439   0.274  1.1549  0.1318 -2.0609
 4665TIP3   OH235553   3.714   1.146   0.876 -0.6813 -0.6757  0.0335
 4665TIP3    H135554   3.628   1.186   0.858 -0.3087 -0.5800 -1.6918
 4665TIP3    H235555   3.739   1.182   0.961 -1.7288  0.3916 -0.0708
 4666TIP3   OH235556   6.938   1.043   7.956 -1.1248  0.2060  0.0047
 4666TIP3    H135557   6.912   1.116   8.012 -0.5814  0.2660  0.1805
 4666TIP3    H235558   6.883   0.970   7.983 -2.5843  0.8747 -1.0306
 4667TIP3   OH235559   0.200   2.377   1.928 -0.6787 -0.2803  1.3094
 4667TIP3    H135560   0.192   2.365   2.023 -3.1349 -0.3497  1.1759
 4667TIP3    H235561   0.155   2.460   1.911 -0.7609 -0.5467  0.1492
 4668TIP3   OH235562   3.174   0.632   7.372 -0.0970  1.3049  0.1479
 4668TIP3    H135563   3.211   0.544   7.372  1.9496  2.0089 -3.1468
 4668TIP3    H235564   3.215   0.675   7.447 -0.2886 -0.1756  1.1494
 4669TIP3   OH235565   4.537   1.977   1.538 -0.3326 -0.9375  0.6608
 4669TIP3    H135566   4.603   2.044   1.554 -0.6022 -0.6842  0.7275
 4669TIP3    H235567   4.542   1.919   1.614  1.1282 -2.0324 -0.2165
 4670TIP3   OH235568   4.461   2.599   2.462 -0.4920  0.1075  0.5211
 4670TIP3    H135569   4.412   2.672   2.424  0.4411  0.9721  0.9121
 4670TIP3    H235570   4.551   2.632   2.470 -0.0022 -1.1612  0.5279
 4671TIP3   OH235571   3.910   6.768   1.370  0.0439 -0.4343  0.0442
 4671TIP3    H135572   3.986   6.727   1.412  1.7862  2.6393  0.1455
 4671TIP3    H235573   3.894   6.712   1.294  1.5453 -1.9300  0.7287
 4672TIP3   OH235574   1.040   1.272   0.403  0.0230 -0.2190 -0.1243
 4672TIP3    H135575   0.963   1.232   0.443 -0.1507 -0.8997 -1.1121
 4672TIP3    H235576   1.060   1.347   0.460 -2.6746  1.2914 -1.0221
 4673TIP3   OH235577   0.235   2.578   7.306 -0.5275  0.0751  0.0105
 4673TIP3    H135578   0.267   2.666   7.326  0.1831 -0.4062  1.1510
 4673TIP3    H235579   0.140   2.588   7.297 -0.4384  0.9794  0.0138
 4674TIP3   OH235580   1.085   0.135   0.569  0.1698 -0.5388 -0.3024
 4674TIP3    H135581   1.170   0.161   0.533  1.1461  0.5483  2.5363
 4674TIP3    H235582   1.021   0.169   0.505  1.7519  1.7906 -0.7726
 4675TIP3   OH235583   0.500   2.419   7.304 -0.5101  0.1188 -0.3763
 4675TIP3    H135584   0.477   2.327   7.321  0.6479 -0.0815  0.1737
 4675TIP3    H235585   0.417   2.466   7.312 -0.9729 -0.7652  0.1666
 4676TIP3   OH235586   2.399   6.572   1.651  0.2007  0.1793  0.0799
 4676TIP3    H135587   2.400   6.481   1.622 -1.5428  0.4048 -0.8851
 4676TIP3    H235588   2.314   6.582   1.695  0.7077  1.1411  0.8760
 4677TIP3   OH235589   6.677   0.889   1.649 -0.1584  0.3734  0.1962
 4677TIP3    H135590   6.659   0.880   1.742  1.2853  0.9090  0.5515
 4677TIP3    H235591   6.685   0.799   1.617 -1.5837  0.1695  0.3768
 4678TIP3   OH235592   4.827   0.451   1.404 -0.1346 -0.0501  0.4636
 4678TIP3    H135593   4.889   0.420   1.470 -0.4395  0.7019  1.1332
 4678TIP3    H235594   4.810   0.542   1.429 -0.8276  0.0187 -0.2260
 4679TIP3   OH235595   0.889   6.409   8.072  0.4139 -0.5896 -0.3629
 4679TIP3    H135596   0.961   6.447   8.021  1.3490 -1.9821 -0.1365
 4679TIP3    H235597   0.932   6.365   8.145 -0.7523 -0.6148  0.3264
 4680TIP3   OH235598   5.134   5.832   2.968 -0.0857 -0.6047 -0.0703
 4680TIP3    H135599   5.086   5.912   2.947 -0.9829 -0.0339  3.5139
 4680TIP3    H235600   5.223   5.861   2.989  0.9049 -1.2037 -3.0200
 4681TIP3   OH235601   3.536   0.245   7.980 -0.1396  0.0605 -0.0685
 4681TIP3    H135602   3.548   0.271   7.889  1.3365 -0.9801 -0.1869
 4681TIP3    H235603   3.441   0.235   7.989 -0.2725 -0.3535 -1.6398
 4682TIP3   OH235604   4.880   1.378   0.871  0.2305 -0.1644  0.1748
 4682TIP3    H135605   4.867   1.284   0.885  2.0347 -0.4319  0.3237
 4682TIP3    H235606   4.925   1.383   0.787 -0.9521  0.6754 -0.4276
 4683TIP3   OH235607   0.998   2.268   2.314 -0.1391  0.3527  0.1181
 4683TIP3    H135608   0.987   2.197   2.376  0.4690 -0.0126 -0.1770
 4683TIP3    H235609   1.067   2.237   2.254  0.1684  1.2014  0.0155
 4684TIP3   OH235610   1.144   5.640   1.687 -0.5163  0.3987  0.3520
 4684TIP3    H135611   1.148   5.657   1.781  1.5572 -0.3596  0.4579
 4684TIP3    H235612   1.168   5.723   1.646 -0.6123  0.5113  0.5220
 4685TIP3   OH235613   1.329   4.386   7.530 -0.2501 -0.6434  0.5427
 4685TIP3    H135614   1.307   4.434   7.450 -0.5290  0.2204  1.1229
 4685TIP3    H235615   1.268   4.313   7.532 -2.3940  1.0740  1.5417
 4686TIP3   OH235616   5.854   1.762   7.430 -0.3237  0.2755 -0.0888
 4686TIP3    H135617   5.835   1.834   7.370 -0.3052  1.4838  1.3054
 4686TIP3    H235618   5.789   1.695   7.409  0.9150 -0.2218 -2.8130
 4687TIP3   OH235619   3.693   3.463   0.848  0.0796  0.2447  0.6376
 4687TIP3    H135620   3.775   3.447   0.894  0.1458  0.6243  0.6571
 4687TIP3    H235621   3.716   3.528   0.781  0.2701 -1.2133 -0.7570
 4688TIP3   OH235622   2.645   3.814   0.808 -0.2368 -0.1550  0.0182
 4688TIP3    H135623   2.564   3.772   0.838  1.2107 -3.2552  0.0253
 4688TIP3    H235624   2.648   3.795   0.714  0.0162  0.8155 -0.1761
 4689TIP3   OH235625   0.559   0.135   7.894 -0.5600  0.4534  0.0404
 4689TIP3    H135626   0.534   0.043   7.899  0.5585  0.1849  1.6477
 4689TIP3    H235627   0.478   0.183   7.911 -0.7964 -0.3067  1.1863
 4690TIP3   OH235628   0.592   4.971   1.772  0.1908 -0.5155  0.2854
 4690TIP3    H135629   0.503   4.944   1.795  0.2830 -1.3683 -0.3251
 4690TIP3    H235630   0.580   5.032   1.700  0.1011 -0.6061  0.2227
 4691TIP3   OH235631   4.092   6.088   8.251 -0.6505 -0.1927 -0.2248
 4691TIP3    H135632   4.082   6.024   8.181  1.6449  0.1314 -0.9086
 4691TIP3    H235633   4.062   6.041   8.330  1.4621 -2.3780 -0.6041
 4692TIP3   OH235634   6.219   5.393   0.896 -0.2321  0.0932  0.5381
 4692TIP3    H135635   6.308   5.373   0.868 -0.2436  0.0408  0.5386
 4692TIP3    H235636   6.180   5.307   0.914 -0.6616  0.0377 -0.6096
 4693TIP3   OH235637   4.429   4.063   0.402 -0.4185  0.0598 -0.4812
 4693TIP3    H135638   4.403   4.139   0.454 -0.5712 -0.3812  0.1045
 4693TIP3    H235639   4.382   4.073   0.319 -1.0536  0.2026 -0.1110
 4694TIP3   OH235640   0.903   5.529   2.560  0.4601  0.1145  0.0877
 4694TIP3    H135641   0.991   5.517   2.596 -0.1469 -1.3677  1.2305
 4694TIP3    H235642   0.874   5.440   2.540 -1.7036  0.2499  2.1568
 4695TIP3   OH235643   6.685   3.681   1.076 -0.1370  0.2013  0.0705
 4695TIP3    H135644   6.682   3.741   1.151 -2.5822  0.1470  0.1000
 4695TIP3    H235645   6.641   3.602   1.108  0.6180 -0.6012 -0.8199
 4696TIP3   OH235646   0.325   2.215   7.558  0.6391  0.1014 -0.0547
 4696TIP3    H135647   0.274   2.295   7.543  2.2462  1.0239 -0.9388
 4696TIP3    H235648   0.368   2.198   7.474 -0.5957 -2.4381 -0.2629
 4697TIP3   OH235649   0.824   1.804   0.705  0.1039  0.0446 -0.4356
 4697TIP3    H135650   0.869   1.720   0.714  1.4337  0.6931 -0.7442
 4697TIP3    H235651   0.800   1.829   0.794 -0.6544 -0.8273 -0.3794
 4698TIP3   OH235652   1.757   4.273   3.172 -0.2989 -0.1772  0.1574
 4698TIP3    H135653   1.840   4.244   3.210 -0.7689 -1.3865  0.3140
 4698TIP3    H235654   1.748   4.363   3.202  0.2908 -0.4704  1.3026
 4699TIP3   OH235655   1.391   2.045   2.064 -0.5431 -0.1489  0.4110
 4699TIP3    H135656   1.438   2.101   2.002 -1.0708  1.8515  1.6944
 4699TIP3    H235657   1.302   2.041   2.030 -0.1608 -1.5029 -0.4766
 4700TIP3   OH235658   3.430   4.491   7.828  0.2477 -0.0515 -0.8026
 4700TIP3    H135659   3.405   4.477   7.736 -0.9964 -0.9324 -0.3608
 4700TIP3    H235660   3.434   4.586   7.837 -2.0046  0.1569 -1.2159
 4701TIP3   OH235661   1.811   3.685   0.015  0.0406  0.2992  0.2555
 4701TIP3    H135662   1.784   3.729   0.096  1.3303 -0.6878  1.2722
 4701TIP3    H235663   1.763   3.602   0.015 -0.7596  0.7524 -0.5505
 4702TIP3   OH235664   0.339   3.837   1.829  0.7027 -0.4874  0.5039
 4702TIP3    H135665   0.244   3.829   1.841  0.7984 -0.0857  1.6526
 4702TIP3    H235666   0.365   3.752   1.794 -0.2210 -0.2235 -0.9428
 4703TIP3   OH235667   0.028   3.367   1.413 -0.2141 -0.0271 -0.0625
 4703TIP3    H135668   0.084   3.423   1.360  2.2166 -1.8016  0.4756
 4703TIP3    H235669  -0.020   3.314   1.349  2.2175 -1.7020 -0.6159
 4704TIP3   OH235670   6.006   4.678   7.939 -0.5773  0.9177 -0.0695
 4704TIP3    H135671   6.041   4.731   7.868  0.2406 -0.9434 -1.1268
 4704TIP3    H235672   5.989   4.593   7.899 -0.3215 -0.1146  1.9011
 4705TIP3   OH235673   4.325   2.580   0.415 -0.0595 -0.0245 -0.3663
 4705TIP3    H135674   4.321   2.676   0.407 -1.4491 -0.0328  0.0440
 4705TIP3    H235675   4.408   2.557   0.373  0.9647  1.4784  0.6877
 4706TIP3   OH235676   0.185   6.049   0.369 -0.0827 -0.0683  0.1849
 4706TIP3    H135677   0.239   6.057   0.290  0.6835  0.3083  0.7326
 4706TIP3    H235678   0.134   5.969   0.356  1.7291 -1.3023  0.3127
 4707TIP3   OH235679   0.249   2.310   7.932  0.2612  0.0918 -0.4083
 4707TIP3    H135680   0.286   2.397   7.917 -0.5172  0.4886 -0.0931
 4707TIP3    H235681   0.155   2.323   7.926  0.1566 -0.8694 -1.0623
 4708TIP3   OH235682   5.802   6.873   1.541  0.0193 -0.6335 -0.0789
 4708TIP3    H135683   5.710   6.892   1.555  0.4776  0.0268  2.6059
 4708TIP3    H235684   5.843   6.887   1.626  2.5985 -0.9930 -1.1518
 4709TIP3   OH235685   5.914   4.208   2.379  0.2217  0.2607  0.1768
 4709TIP3    H135686   5.873   4.264   2.313  0.4148  0.3108  0.0963
 4709TIP3    H235687   5.841   4.166   2.424  0.0295  1.3231  0.8867
 4710TIP3   OH235688   2.723   6.712   0.354  0.3745 -0.0418 -0.3628
 4710TIP3    H135689   2.746   6.728   0.446  1.7224 -0.4139 -0.6193
 4710TIP3    H235690   2.805   6.685   0.313 -0.6615 -2.2075 -1.1772
 4711TIP3   OH235691   4.376   0.887   8.195  0.0070  0.0780 -0.3815
 4711TIP3    H135692   4.302   0.840   8.235 -0.7646  0.8612 -0.8448
 4711TIP3    H235693   4.369   0.867   8.102 -0.7985  1.6748 -0.7010
 4712TIP3   OH235694   1.105   2.343   1.772  0.0893  0.1169  0.7262
 4712TIP3    H135695   1.149   2.427   1.770  2.2773 -0.9660  0.1871
 4712TIP3    H235696   1.056   2.339   1.690  1.6482  0.0623 -0.2339
 4713TIP3   OH235697   5.423   1.422   0.626  0.5651  0.0476  0.0514
 4713TIP3    H135698   5.484   1.495   0.637 -1.3166  1.5802  1.1022
 4713TIP3    H235699   5.399   1.424   0.534 -0.0745  1.3255  0.2251
 4714TIP3   OH235700   5.336   4.644   2.253 -0.1531 -0.2330 -0.3876
 4714TIP3    H135701   5.312   4.737   2.255 -1.0986 -0.4476 -0.9363
 4714TIP3    H235702   5.408   4.636   2.315  0.6314  1.0590 -1.0886
 4715TIP3   OH235703   0.964   6.225   0.829  0.2250  0.4325  0.8490
 4715TIP3    H135704   0.897   6.290   0.805 -0.4894 -0.4301  0.4433
 4715TIP3    H235705   0.962   6.223   0.925 -0.2772  0.4693  0.8435
 4716TIP3   OH235706   0.953   2.460   3.262 -0.2137  0.0871  0.5473
 4716TIP3    H135707   0.896   2.532   3.288  1.9761  1.6524  1.3129
 4716TIP3    H235708   1.031   2.470   3.316  2.0371 -0.1633 -2.3899
 4717TIP3   OH235709   6.968   6.441   0.494  0.0455 -0.5794 -0.0266
 4717TIP3    H135710   7.061   6.423   0.483  0.3199  0.2715  0.7600
 4717TIP3    H235711   6.955   6.447   0.589 -1.0776 -1.9552 -0.0468
 4718TIP3   OH235712   2.017   2.744   3.325 -0.7937 -0.0306 -0.2444
 4718TIP3    H135713   2.011   2.650   3.344  0.9468  0.2223  2.0871
 4718TIP3    H235714   2.106   2.755   3.291  0.2601  1.0725  2.5126
 4719TIP3   OH235715   4.067   4.412   8.203 -0.4529  0.5552 -0.0915
 4719TIP3    H135716   4.046   4.349   8.133 -2.7387 -0.7020  1.5795
 4719TIP3    H235717   4.144   4.375   8.245 -0.0809  0.4165 -0.8653
 4720TIP3   OH235718   5.587   5.134   1.385  0.3122 -0.1738  0.2215
 4720TIP3    H135719   5.493   5.145   1.372  0.5683 -0.2734 -2.4250
 4720TIP3    H235720   5.595   5.092   1.470 -1.8272  2.2266  1.7285
 4721TIP3   OH235721   3.227   5.129   0.728  0.3029 -0.5256 -0.4211
 4721TIP3    H135722   3.144   5.153   0.686  0.5907  0.6799 -0.3398
 4721TIP3    H235723   3.205   5.056   0.785 -1.2207  1.2032  1.3467
 4722TIP3   OH235724   3.028   2.636   1.053  0.5500  0.1936 -0.2206
 4722TIP3    H135725   2.969   2.565   1.077 -2.4072  2.7679  0.8898
 4722TIP3    H235726   3.114   2.608   1.084 -0.2194 -3.2494 -0.7841
 4723TIP3   OH235727   0.230   6.648   0.736  0.2960 -0.3994 -0.2416
 4723TIP3    H135728   0.184   6.568   0.759  1.2876 -1.0313 -0.4018
 4723TIP3    H235729   0.323   6.628   0.750  0.4563  1.3915  1.7214
 4724TIP3   OH235730   4.882   0.072   0.852  0.4218 -0.0237  0.5708
 4724TIP3    H135731   4.881   0.030   0.766  2.8734  0.0547  0.4290
 4724TIP3    H235732   4.791   0.099   0.866  0.0158  0.4703 -2.2384
 4725TIP3   OH235733   4.320   1.742   2.032 -0.1398  0.2933 -0.0210
 4725TIP3    H135734   4.336   1.715   2.122  0.2764 -1.2828 -0.5314
 4725TIP3    H235735   4.367   1.825   2.022  1.6969 -0.6305  0.5838
 4726TIP3   OH235736   4.180   3.020   7.512 -0.1010  0.6815  0.2751
 4726TIP3    H135737   4.108   3.054   7.459  0.0809  1.0284  0.2423
 4726TIP3    H235738   4.177   2.925   7.499  0.8527  0.8516 -1.5535
 4727TIP3   OH235739   0.023   1.955   1.206  0.5859  0.1856 -0.0551
 4727TIP3    H135740  -0.038   1.910   1.148  0.8635  2.1631 -2.0225
 4727TIP3    H235741  -0.020   2.038   1.228  1.5525  0.5524  0.5319
 4728TIP3   OH235742   0.233   6.509   8.091 -0.3075  0.6878 -0.3019
 4728TIP3    H135743   0.250   6.467   8.175 -0.7015  0.0331 -0.5381
 4728TIP3    H235744   0.309   6.565   8.075  2.0952 -2.5937 -1.6487
 4729TIP3   OH235745   6.594   3.102   8.122 -0.8656  0.5552  0.5826
 4729TIP3    H135746   6.585   3.063   8.209 -0.1922  0.4141  0.5975
 4729TIP3    H235747   6.529   3.172   8.120 -0.3037  1.1338  1.5356
 4730TIP3   OH235748   0.431   0.638   7.687  0.1622 -0.5095 -0.1612
 4730TIP3    H135749   0.358   0.653   7.626  0.0160  0.9037  0.3163
 4730TIP3    H235750   0.393   0.650   7.774  1.0519  0.8863  0.0767
 4731TIP3   OH235751   2.791   0.358   8.078 -0.1736 -0.0236  0.2871
 4731TIP3    H135752   2.836   0.362   8.163 -0.7511  1.3986  0.5598
 4731TIP3    H235753   2.706   0.318   8.096 -0.3170  0.3271  0.3939
 4732TIP3   OH235754   1.733   4.657   1.981 -0.2199 -0.5791  0.4190
 4732TIP3    H135755   1.645   4.655   1.942 -0.4676  0.0368  0.9352
 4732TIP3    H235756   1.737   4.579   2.036 -0.2992 -0.8140  0.0974
 4733TIP3   OH235757   5.737   4.043   0.600 -0.4057 -0.0635 -0.0640
 4733TIP3    H135758   5.814   4.016   0.550  0.1668  0.2000  0.6512
 4733TIP3    H235759   5.752   4.008   0.688 -1.3818 -0.5008 -0.0635
 4734TIP3   OH235760   1.326   4.023   0.565 -0.2541  0.0200  0.4301
 4734TIP3    H135761   1.303   4.103   0.518  0.1464 -0.3306 -0.3775
 4734TIP3    H235762   1.266   3.957   0.531  2.1055 -1.0244 -2.0416
 4735TIP3   OH235763   6.243   5.032   1.509  0.2495 -0.3023 -0.2902
 4735TIP3    H135764   6.231   5.127   1.516  0.1436 -0.4085  1.5441
 4735TIP3    H235765   6.163   5.001   1.466  0.7367  0.5031 -1.8754
 4736TIP3   OH235766   1.829   6.637   2.957 -0.1828 -0.2335  0.2909
 4736TIP3    H135767   1.801   6.564   3.013 -0.8188  0.4427  0.8649
 4736TIP3    H235768   1.916   6.660   2.990  0.0149 -0.7024  0.1203
 4737TIP3   OH235769   2.532   3.197   0.013  0.6895  0.2583  0.3012
 4737TIP3    H135770   2.450   3.243   0.031 -1.8187 -3.3693 -0.6232
 4737TIP3    H235771   2.560   3.164   0.098  1.8206  2.2337  0.7652
 4738TIP3   OH235772   4.181   4.316   1.754  0.5141  0.0317  0.4321
 4738TIP3    H135773   4.268   4.344   1.728  0.8355 -2.4338 -1.5606
 4738TIP3    H235774   4.122   4.366   1.698  0.9294 -1.1626 -1.1519
 4739TIP3   OH235775   5.305   0.736   8.104 -0.7230 -0.8880 -0.1552
 4739TIP3    H135776   5.337   0.777   8.184  0.7014 -0.4308 -0.9191
 4739TIP3    H235777   5.218   0.772   8.092  0.1141  1.2468 -0.2836
 4740TIP3   OH235778   0.840   4.812   1.177 -0.3111 -0.7000 -0.2946
 4740TIP3    H135779   0.893   4.869   1.231 -0.3102 -2.1958  1.3887
 4740TIP3    H235780   0.779   4.870   1.131  0.9496  0.7738 -0.1423
 4741TIP3   OH235781   0.160   4.137   0.296 -0.3043  0.0312  0.1725
 4741TIP3    H135782   0.138   4.043   0.294 -0.2617  0.0308 -1.0951
 4741TIP3    H235783   0.121   4.172   0.216  0.6812  0.8625  0.0406
 4742TIP3   OH235784   2.093   4.192   0.399 -0.1123  0.2516 -0.0276
 4742TIP3    H135785   2.122   4.265   0.344  3.2801 -0.9267 -0.0548
 4742TIP3    H235786   2.141   4.116   0.365 -2.0309 -1.6395  1.2076
 4743TIP3   OH235787   4.050   0.484   2.970 -0.5660  0.4982 -0.4890
 4743TIP3    H135788   4.020   0.538   3.043 -1.5359 -1.5181  0.6844
 4743TIP3    H235789   3.970   0.458   2.924 -0.3802 -1.7301  0.3310
 4744TIP3   OH235790   0.100   3.590   3.760 -0.1564  0.0486  0.2194
 4744TIP3    H135791   0.069   3.604   3.850  0.3288  1.3649  0.2065
 4744TIP3    H235792   0.088   3.497   3.745  0.0164 -0.2575  1.7643
 4745TIP3   OH235793   2.092   2.918   0.731  0.4143  0.1526  0.2378
 4745TIP3    H135794   2.061   2.829   0.717  0.5273 -0.1945  1.9593
 4745TIP3    H235795   2.113   2.950   0.643  0.3057 -1.4807 -0.4243
 4746TIP3   OH235796   6.645   1.982   2.113  0.0143  0.1927 -0.6288
 4746TIP3    H135797   6.664   1.895   2.079  0.4115  0.7583 -1.9281
 4746TIP3    H235798   6.683   1.983   2.201  1.7673 -0.2928 -1.3536
 4747TIP3   OH235799   5.634   2.754   7.645  0.2912  0.1860 -0.2054
 4747TIP3    H135800   5.589   2.817   7.701  0.4180  0.5086 -0.4644
 4747TIP3    H235801   5.567   2.689   7.623  0.6485 -0.9188  1.7221
 4748TIP3   OH235802   0.337   1.412   0.897 -0.4851 -0.5161 -0.6459
 4748TIP3    H135803   0.396   1.428   0.823  0.3618  0.7373  0.2498
 4748TIP3    H235804   0.295   1.497   0.911 -2.3535 -1.3201 -1.0958
 4749TIP3   OH235805   7.012   0.225   1.461  0.3911 -0.1114  0.0776
 4749TIP3    H135806   6.996   0.166   1.535 -0.0379 -1.6091 -1.1759
 4749TIP3    H235807   6.940   0.209   1.401  0.8561  0.9261 -0.7877
 4750TIP3   OH235808   3.053   3.948   0.198 -0.1714 -0.1827 -0.0482
 4750TIP3    H135809   3.095   3.865   0.220 -1.5946 -1.4095 -1.6574
 4750TIP3    H235810   3.111   3.987   0.132  1.7899  1.3876  2.4311
 4751TIP3   OH235811   2.203   0.373   0.187 -0.1835  0.2470 -0.1718
 4751TIP3    H135812   2.241   0.417   0.263 -0.5516 -0.2906  0.3333
 4751TIP3    H235813   2.117   0.413   0.177 -0.2187  0.1727 -0.1709
 4752TIP3   OH235814   3.483   4.905   0.790 -0.8461 -0.0796  0.1729
 4752TIP3    H135815   3.496   4.993   0.824  0.2029 -0.0337 -0.2991
 4752TIP3    H235816   3.388   4.894   0.787 -1.0024  1.2310 -0.2487
 4753TIP3   OH235817   0.212   6.207   2.263 -0.5697  0.3788 -0.0169
 4753TIP3    H135818   0.215   6.301   2.245  1.5049  0.6618  1.3778
 4753TIP3    H235819   0.155   6.198   2.339 -0.2564  0.6173  0.2511
 4754TIP3   OH235820   4.778   4.097   1.789  0.3444  0.2532 -0.3638
 4754TIP3    H135821   4.752   4.030   1.853  1.7037  0.1947  0.1685
 4754TIP3    H235822   4.781   4.050   1.706  0.3749 -0.1290 -0.1525
 4755TIP3   OH235823   3.621   6.122   0.467 -0.1374  0.5255 -0.1077
 4755TIP3    H135824   3.717   6.124   0.458  0.1680 -0.8155  2.0353
 4755TIP3    H235825   3.594   6.044   0.420 -0.0619  0.4321  0.0020
 4756TIP3   OH235826   2.422   4.722   0.530  0.5176 -0.4998  0.2864
 4756TIP3    H135827   2.346   4.781   0.531  1.3354  0.8932 -3.4922
 4756TIP3    H235828   2.385   4.635   0.542 -1.3837  0.3258  0.8512
 4757TIP3   OH235829   1.224   2.251   0.074 -0.6017  0.1195  0.2743
 4757TIP3    H135830   1.319   2.242   0.068 -0.6119 -0.6592  1.0149
 4757TIP3    H235831   1.210   2.306   0.152 -0.7562  0.4020  0.0492
 4758TIP3   OH235832   6.296   0.083   3.198 -0.3971  0.3013  0.1620
 4758TIP3    H135833   6.332   0.023   3.264  1.5732  0.5116 -0.6464
 4758TIP3    H235834   6.315   0.042   3.114  0.0597  1.5502 -0.3734
 4759TIP3   OH235835   4.663   1.981   2.298  0.2312  0.2521 -0.1918
 4759TIP3    H135836   4.638   2.072   2.313  1.0373  0.8441 -2.0599
 4759TIP3    H235837   4.686   1.947   2.384  1.0692  2.1949  0.4066
 4760TIP3   OH235838   0.063   3.135   0.068 -0.3548 -0.0314 -0.0351
 4760TIP3    H135839  -0.004   3.085   0.021 -0.1671 -0.8676  0.5686
 4760TIP3    H235840   0.145   3.091   0.046  0.0120  0.9858 -0.7689
 4761TIP3   OH235841   0.872   1.049   1.344  0.1329 -0.2770  0.3637
 4761TIP3    H135842   0.925   0.972   1.363 -0.0749 -0.1140  1.7504
 4761TIP3    H235843   0.934   1.114   1.311  0.3797 -0.8746 -0.3691
 4762TIP3   OH235844   1.870   0.419   2.108 -0.6379  0.6077 -0.0137
 4762TIP3    H135845   1.785   0.381   2.086 -0.6934  0.9558 -0.4374
 4762TIP3    H235846   1.933   0.360   2.069 -0.5739 -0.8676  2.1733
 4763TIP3   OH235847   0.170   1.205   7.785 -0.0349 -0.2652 -0.1814
 4763TIP3    H135848   0.257   1.166   7.779  0.2867  0.1921  1.1540
 4763TIP3    H235849   0.141   1.185   7.874 -0.4112  1.3925  0.0990
 4764TIP3   OH235850   2.643   1.184   7.903 -0.2869 -0.4496 -0.7821
 4764TIP3    H135851   2.702   1.229   7.842  1.2568 -0.7748  0.4139
 4764TIP3    H235852   2.568   1.160   7.849  0.3465  0.5715 -2.2172
 4765TIP3   OH235853   4.919   6.794   0.319  0.6520 -0.2438  0.3570
 4765TIP3    H135854   4.991   6.789   0.381  1.7860  0.5152 -0.8518
 4765TIP3    H235855   4.846   6.750   0.363  0.8909  1.6988  2.9491
 4766TIP3   OH235856   0.045   2.030   3.398  0.1230  0.1934  0.0077
 4766TIP3    H135857  -0.035   2.013   3.349  0.0023  0.1918  0.2037
 4766TIP3    H235858   0.116   2.000   3.341  0.0039  0.5081 -0.3072
 4767TIP3   OH235859   2.736   1.549   1.808  0.1001 -0.2640  0.2519
 4767TIP3    H135860   2.776   1.504   1.733  1.6696  0.8911  0.3518
 4767TIP3    H235861   2.810   1.584   1.858 -0.9965  0.9181  1.1301
 4768TIP3   OH235862   4.135   6.796   0.640 -0.1406  0.1957  0.0748
 4768TIP3    H135863   4.169   6.870   0.690 -0.2649  1.0378 -1.0376
 4768TIP3    H235864   4.192   6.723   0.664 -0.3981  0.4834  1.6650
 4769TIP3   OH235865   0.738   0.533   2.124  0.3327 -0.1407 -0.5964
 4769TIP3    H135866   0.741   0.518   2.218 -0.3210  1.6449 -0.2530
 4769TIP3    H235867   0.800   0.470   2.087 -0.6180 -2.0249  0.8506
 4770TIP3   OH235868   2.170   4.437   3.115  0.5349 -0.1205  0.0780
 4770TIP3    H135869   2.075   4.440   3.100  0.0476 -2.0771  2.1978
 4770TIP3    H235870   2.182   4.482   3.199  1.3064 -0.9126  0.4047
 4771TIP3   OH235871   4.357   3.135   2.901 -0.0621  0.3056  0.4802
 4771TIP3    H135872   4.281   3.184   2.872 -0.6944 -2.2170 -2.7622
 4771TIP3    H235873   4.321   3.064   2.954  0.0492 -0.5319 -0.5391
 4772TIP3   OH235874   2.497   5.118   1.871  0.5698  0.2920  0.4573
 4772TIP3    H135875   2.467   5.197   1.917  0.0653  0.1158  0.4375
 4772TIP3    H235876   2.515   5.056   1.942  2.1807  0.8238  0.5488
 4773TIP3   OH235877   6.483   1.621   3.138  0.4841  0.6099 -0.1743
 4773TIP3    H135878   6.455   1.640   3.228 -0.6763  0.1899 -0.4289
 4773TIP3    H235879   6.564   1.571   3.149  0.0947  0.1334  0.6671
 4774TIP3   OH235880   1.711   0.621   7.652 -0.3792 -0.6858  0.1296
 4774TIP3    H135881   1.671   0.610   7.566  0.9432  1.3183 -0.8122
 4774TIP3    H235882   1.637   0.636   7.711 -1.1788  0.7186 -1.1634
 4775TIP3   OH235883   0.546   3.101   0.705  0.1200 -0.3138 -0.4456
 4775TIP3    H135884   0.607   3.055   0.649  0.0029 -1.3810  0.2805
 4775TIP3    H235885   0.588   3.102   0.791  0.4895  1.6547 -0.5966
 4776TIP3   OH235886   3.385   3.748   2.485 -0.5891  0.1497 -0.0743
 4776TIP3    H135887   3.351   3.837   2.478  1.0514  0.8055 -0.1997
 4776TIP3    H235888   3.478   3.759   2.506 -0.0953 -1.5122 -1.1355
 4777TIP3   OH235889   2.676   3.223   2.808 -0.0429 -0.5334  0.0338
 4777TIP3    H135890   2.678   3.132   2.778 -0.7232 -0.1035 -1.4245
 4777TIP3    H235891   2.678   3.217   2.903  1.7594 -2.0054 -0.0333
 4778TIP3   OH235892   3.948   2.561   7.984  0.0539  0.3092 -0.0102
 4778TIP3    H135893   3.952   2.488   7.922  0.1994 -0.3940  0.8068
 4778TIP3    H235894   3.914   2.634   7.933  0.6384 -0.1168 -1.0398
 4779TIP3   OH235895   5.624   6.772   7.021 -0.5992 -0.4872 -0.2064
 4779TIP3    H135896   5.677   6.828   7.078 -0.1848 -0.9756 -0.1036
 4779TIP3    H235897   5.561   6.831   6.980  0.2760  0.1761 -0.6271
 4780TIP3   OH235898   6.254   1.451   2.782  0.0838 -0.7016  0.7991
 4780TIP3    H135899   6.295   1.535   2.800 -2.1968  0.6263  0.3023
 4780TIP3    H235900   6.307   1.387   2.828  2.3434  0.8955  0.5654
 4781TIP3   OH235901   5.835   5.162   3.271 -0.7309  0.4515  0.6456
 4781TIP3    H135902   5.826   5.236   3.211 -2.4914 -0.3977 -0.2089
 4781TIP3    H235903   5.923   5.172   3.307  0.0901  1.4875 -1.4406
 4782TIP3   OH235904   2.677   1.179   7.608 -0.7064  0.3689  0.2797
 4782TIP3    H135905   2.586   1.206   7.624 -0.0644  2.4660  0.7878
 4782TIP3    H235906   2.721   1.260   7.580  1.1041 -0.5063  0.4684
 4783TIP3   OH235907   3.587   5.869   0.752 -0.3097 -0.6496  0.6928
 4783TIP3    H135908   3.675   5.840   0.726 -1.0452 -2.5451  0.1375
 4783TIP3    H235909   3.569   5.821   0.832 -1.7894 -2.2786 -0.5414
 4784TIP3   OH235910   0.533   1.688   1.803  0.0464 -0.3945 -0.0109
 4784TIP3    H135911   0.572   1.765   1.844 -0.0441 -0.3791  0.0463
 4784TIP3    H235912   0.465   1.723   1.746 -1.1916 -0.5272  1.3352
 4785TIP3   OH235913   3.887   2.856   7.558 -0.2214  0.0859  0.3777
 4785TIP3    H135914   3.869   2.792   7.490  1.5055 -1.6362  1.4553
 4785TIP3    H235915   3.903   2.938   7.511 -0.0705 -0.8148 -1.1963
 4786TIP3   OH235916   2.318   2.153   2.503 -0.2947 -0.2080  0.4634
 4786TIP3    H135917   2.352   2.088   2.565 -1.4466 -1.1248  0.1748
 4786TIP3    H235918   2.279   2.220   2.559 -0.8637 -0.7705  0.7579
 4787TIP3   OH235919   5.124   2.130   2.188  0.5970  0.6339  0.1392
 4787TIP3    H135920   5.116   2.207   2.244  2.2069 -0.5090  2.0987
 4787TIP3    H235921   5.035   2.110   2.161 -0.2631  1.3144  2.2589
 4788TIP3   OH235922   5.108   5.792   2.344 -0.0831  0.4923 -0.2470
 4788TIP3    H135923   5.156   5.781   2.262  0.2361  0.2751 -0.0323
 4788TIP3    H235924   5.052   5.868   2.329 -0.4436  0.1147 -0.8640
 4789TIP3   OH235925   6.161   2.643   1.480 -0.5937  0.5133  0.2693
 4789TIP3    H135926   6.092   2.647   1.547 -0.3120  1.6644  0.5153
 4789TIP3    H235927   6.243   2.653   1.529 -0.2848 -0.2135 -0.0924
 4790TIP3   OH235928   5.379   6.453   1.855  0.8699  0.1366 -0.1619
 4790TIP3    H135929   5.447   6.500   1.904  1.3063 -0.9485  0.3114
 4790TIP3    H235930   5.414   6.446   1.766  2.0124 -1.5258  0.3621
 4791TIP3   OH235931   4.622   4.241   7.442 -0.1484  0.4216  0.0639
 4791TIP3    H135932   4.678   4.285   7.506 -1.2872 -0.9460  2.1221
 4791TIP3    H235933   4.536   4.283   7.454 -0.1248  0.9884 -1.4961
 4792TIP3   OH235934   1.867   2.545   1.738 -0.4493  0.0191  0.4383
 4792TIP3    H135935   1.933   2.549   1.807  0.2279 -0.0612 -0.1874
 4792TIP3    H235936   1.800   2.485   1.771  1.8186 -3.3306 -0.6068
 4793TIP3   OH235937   4.432   6.853   2.136 -0.3216 -0.0307  0.3815
 4793TIP3    H135938   4.417   6.885   2.225 -4.8933  0.1393 -0.2137
 4793TIP3    H235939   4.373   6.905   2.081  0.1392 -2.1285 -2.3432
 4794TIP3   OH235940   0.493   5.461   3.030 -0.4055 -0.1445 -0.4766
 4794TIP3    H135941   0.397   5.461   3.035 -0.4010  1.1038 -0.2433
 4794TIP3    H235942   0.517   5.553   3.030  0.7426 -0.4109 -1.8260
 4795TIP3   OH235943   1.543   3.275   0.138 -0.4100  0.1654 -0.2181
 4795TIP3    H135944   1.600   3.201   0.118  1.0812  0.8112  1.3890
 4795TIP3    H235945   1.536   3.275   0.234 -0.6050  1.9190 -0.1970
 4796TIP3   OH235946   0.037   4.380   2.472  0.5761  0.0019  0.9900
 4796TIP3    H135947   0.080   4.419   2.547 -0.5607 -0.1731  1.7618
 4796TIP3    H235948  -0.053   4.363   2.502  0.1262 -0.1540 -0.3705
 4797TIP3   OH235949   7.030   1.465   2.879  0.3478  0.0233  0.3658
 4797TIP3    H135950   7.039   1.387   2.934 -2.1606  0.2010  1.1583
 4797TIP3    H235951   7.012   1.431   2.792 -0.4918 -0.3130  0.6587
 4798TIP3   OH235952   2.293   6.397   0.041  0.1932  0.4537  0.1057
 4798TIP3    H135953   2.217   6.340   0.035 -1.0090  1.8898  0.8653
 4798TIP3    H235954   2.367   6.337   0.051 -0.9562 -0.9761  0.4962
 4799TIP3   OH235955   3.142   4.782   2.634 -0.3800  0.1068 -0.4830
 4799TIP3    H135956   3.167   4.699   2.674  0.7048 -0.0514 -1.4679
 4799TIP3    H235957   3.149   4.846   2.705  1.4253 -0.1900 -0.3630
 4800TIP3   OH235958   5.711   3.997   1.607 -0.0429  0.2640 -0.3000
 4800TIP3    H135959   5.713   3.999   1.702 -1.7205 -3.0848 -0.0502
 4800TIP3    H235960   5.650   4.067   1.583  0.2138  0.9903  1.0857
 4801TIP3   OH235961   2.940   3.242   0.452  0.2393  0.0341  0.1577
 4801TIP3    H135962   2.964   3.300   0.525 -0.5322 -0.3238  0.7184
 4801TIP3    H235963   2.855   3.275   0.423  1.5358  1.5975 -2.1170
 4802TIP3   OH235964   3.392   5.504   1.579  0.1550  0.4370  0.1622
 4802TIP3    H135965   3.426   5.432   1.632  3.7073  0.7020 -1.4939
 4802TIP3    H235966   3.341   5.461   1.511  0.3571 -0.3456  0.4921
 4803TIP3   OH235967   0.921   5.215   3.125  0.2803  0.6530 -0.0615
 4803TIP3    H135968   0.884   5.301   3.104 -1.0845 -0.0203 -0.5819
 4803TIP3    H235969   0.882   5.192   3.209 -1.9778 -0.8011 -1.3936
 4804TIP3   OH235970   1.005   6.556   1.854  0.3841 -0.2694 -0.3383
 4804TIP3    H135971   1.030   6.556   1.761  1.2811 -0.6548 -0.1064
 4804TIP3    H235972   1.062   6.621   1.895  2.4108 -2.4347  0.5209
 4805TIP3   OH235973   3.878   0.034   0.322  0.1003 -0.2439  0.1338
 4805TIP3    H135974   3.812   0.101   0.338 -0.8028 -0.9897 -0.3371
 4805TIP3    H235975   3.910   0.052   0.234  1.3335  0.7609  0.7545
 4806TIP3   OH235976   4.513   3.227   2.656  0.3795  0.1970 -0.4856
 4806TIP3    H135977   4.422   3.198   2.645  0.6239 -0.4597 -0.8668
 4806TIP3    H235978   4.506   3.310   2.702 -0.4275  0.2866 -0.7485
 4807TIP3   OH235979   5.043   1.062   2.195 -0.2219 -0.0558 -0.5267
 4807TIP3    H135980   5.069   1.145   2.235  0.2831  0.7489 -2.4038
 4807TIP3    H235981   5.090   0.995   2.245  1.4793  1.0108 -0.6161
 4808TIP3   OH235982   4.045   0.354   2.384 -0.4891 -0.0908  0.1023
 4808TIP3    H135983   4.020   0.435   2.428 -0.9125 -0.5257  0.6671
 4808TIP3    H235984   4.067   0.382   2.294  2.1489  1.0904  1.0135
 4809TIP3   OH235985   5.297   6.605   0.986 -0.2143 -0.4549  0.6220
 4809TIP3    H135986   5.382   6.639   1.015  0.9269 -1.7376 -1.0017
 4809TIP3    H235987   5.318   6.521   0.945 -1.8731  0.3846 -2.2488
 4810TIP3   OH235988   2.406   4.282   3.268  0.0133 -0.3156  0.0858
 4810TIP3    H135989   2.385   4.313   3.356 -0.9920 -1.2292  0.2039
 4810TIP3    H235990   2.470   4.344   3.234 -1.2692  1.3674  0.6145
 4811TIP3   OH235991   1.195   0.937   1.082  0.0411 -0.6867  0.5347
 4811TIP3    H135992   1.275   0.982   1.055 -0.0544 -1.0941 -0.4573
 4811TIP3    H235993   1.226   0.863   1.135  0.1487  1.5252  3.8817
 4812TIP3   OH235994   3.396   5.241   0.049  0.6414 -0.1356  0.5221
 4812TIP3    H135995   3.409   5.333   0.026  0.7431 -0.9655 -3.2533
 4812TIP3    H235996   3.301   5.230   0.050  0.6003 -0.5652 -2.1323
 4813TIP3   OH235997   2.178   0.098   2.186  0.0353 -0.4682 -0.6307
 4813TIP3    H135998   2.160   0.005   2.191 -0.0859 -0.4181 -0.1159
 4813TIP3    H235999   2.254   0.105   2.127  2.5099 -1.2298  2.2037
 4814TIP3   OH236000   4.076   3.730   0.260  0.1263  0.0543 -0.1207
 4814TIP3    H136001   4.002   3.679   0.294 -0.2636  0.5916 -0.1492
 4814TIP3    H236002   4.042   3.819   0.254  0.2913  0.0354 -1.5945
 4815TIP3   OH236003   0.460   3.435   2.920 -0.0101 -0.1777  0.1995
 4815TIP3    H136004   0.394   3.433   2.989 -1.2542  2.1091 -0.8389
 4815TIP3    H236005   0.534   3.483   2.958 -0.2783  0.1690  0.2818
 4816TIP3   OH236006   4.830   1.050   1.295  0.0541  0.3859  0.0981
 4816TIP3    H136007   4.895   1.044   1.224  1.6827  0.6689  1.5152
 4816TIP3    H236008   4.839   1.139   1.329  0.6381 -0.3265  1.8855
 4817TIP3   OH236009   6.859   5.156   2.344 -0.3403 -0.5669 -0.2785
 4817TIP3    H136010   6.847   5.250   2.359 -1.4045  0.1428 -4.3210
 4817TIP3    H236011   6.776   5.117   2.372  0.3107 -0.5080  1.9581
 4818TIP3   OH236012   3.823   3.750   2.709  0.2045  0.9310  0.5568
 4818TIP3    H136013   3.799   3.665   2.672  1.3518  0.8610 -0.0630
 4818TIP3    H236014   3.788   3.748   2.798  0.4180 -0.2872  0.6342
 4819TIP3   OH236015   6.715   3.550   3.297  0.2355 -0.0949 -0.3704
 4819TIP3    H136016   6.681   3.543   3.208 -0.6513 -1.1739  0.0243
 4819TIP3    H236017   6.803   3.513   3.293 -0.4675 -1.8626 -0.4724
 4820TIP3   OH236018   2.932   1.987   1.241 -0.6987  0.1270 -0.0667
 4820TIP3    H136019   2.899   1.921   1.180  1.2962 -2.1642  1.1499
 4820TIP3    H236020   3.025   1.994   1.221 -0.5823  1.4699  0.8403
 4821TIP3   OH236021   3.754   1.748   1.154 -0.4994  0.1992  0.4687
 4821TIP3    H136022   3.675   1.745   1.100 -1.4987  1.2205  1.8223
 4821TIP3    H236023   3.814   1.804   1.104 -1.7844  1.9938  0.8256
 4822TIP3   OH236024   0.663   6.630   2.219  0.1954  0.3133  0.3708
 4822TIP3    H136025   0.749   6.588   2.217  0.2167  0.3879 -0.5848
 4822TIP3    H236026   0.605   6.569   2.173 -0.5052 -0.2177  1.8648
 4823TIP3   OH236027   3.189   2.608   7.954 -0.0642  0.1101  0.2294
 4823TIP3    H136028   3.248   2.611   7.878 -2.0597  2.7200 -1.3961
 4823TIP3    H236029   3.229   2.668   8.017  1.8745 -2.4542  1.6207
 4824TIP3   OH236030   5.205   4.188   7.821  0.4704  0.5764 -0.1936
 4824TIP3    H136031   5.114   4.195   7.792  1.0863  0.7656 -2.2348
 4824TIP3    H236032   5.200   4.193   7.917 -1.6621  0.4383 -0.2484
 4825TIP3   OH236033   0.444   1.801   2.772 -0.4252  0.3396 -0.4091
 4825TIP3    H136034   0.419   1.886   2.807 -0.5207  0.3294 -0.4515
 4825TIP3    H236035   0.453   1.745   2.849  0.0531  0.4929 -0.3472
 4826TIP3   OH236036   0.674   5.483   1.286  0.1612  0.8832 -0.1335
 4826TIP3    H136037   0.587   5.522   1.299 -0.7009 -0.2985 -1.9889
 4826TIP3    H236038   0.715   5.489   1.372 -2.9547 -1.3670  1.7333
 4827TIP3   OH236039   4.566   2.866   0.500 -0.0277  0.5700 -0.3737
 4827TIP3    H136040   4.603   2.940   0.548 -0.2827  0.6784 -0.3434
 4827TIP3    H236041   4.562   2.895   0.409 -1.0977  0.9836 -0.2064
 4828TIP3   OH236042   5.671   5.725   7.662  0.1180 -0.3725 -0.0451
 4828TIP3    H136043   5.683   5.666   7.737  0.2425  0.4088  0.5666
 4828TIP3    H236044   5.580   5.755   7.670 -0.2443 -1.1826 -0.8923
 4829TIP3   OH236045   2.085   5.018   1.854  0.5531  0.3212  0.3090
 4829TIP3    H136046   2.082   5.073   1.775 -1.5651  1.9421  1.3946
 4829TIP3    H236047   2.098   5.081   1.925  0.2941 -0.8539  1.4156
 4830TIP3   OH236048   0.308   0.495   1.334  0.1349 -0.7581  0.0438
 4830TIP3    H136049   0.230   0.538   1.370 -0.8902 -0.1543 -2.6386
 4830TIP3    H236050   0.378   0.518   1.395 -1.0737  1.8440  0.6114
 4831TIP3   OH236051   1.000   1.468   0.068  0.7193  0.2389 -0.5483
 4831TIP3    H136052   0.915   1.460   0.111  0.4412  1.0990 -0.9208
 4831TIP3    H236053   0.981   1.507  -0.017  1.3807 -0.4639 -1.0338
 4832TIP3   OH236054   3.547   4.678   3.006  0.1504 -0.0362 -0.0000
 4832TIP3    H136055   3.456   4.696   2.981 -0.4042 -1.3204  0.9210
 4832TIP3    H236056   3.592   4.660   2.923 -0.4718  0.4527 -0.4513
 4833TIP3   OH236057   2.659   2.002   0.392  0.6331  0.5782  0.0677
 4833TIP3    H136058   2.566   2.004   0.367  0.5569  0.0044  0.3016
 4833TIP3    H236059   2.700   2.069   0.336  0.0003  1.1632  0.2913
 4834TIP3   OH236060   5.449   3.902   7.566  0.1649  0.4135 -0.1769
 4834TIP3    H136061   5.412   3.845   7.500 -1.4608 -0.1503  1.1584
 4834TIP3    H236062   5.470   3.844   7.640  2.8217  0.8613 -0.4541
 4835TIP3   OH236063   2.658   1.815   2.211  0.0043  0.4655  0.0680
 4835TIP3    H136064   2.641   1.886   2.149  0.3225 -0.4893 -1.1444
 4835TIP3    H236065   2.590   1.825   2.278  0.3108  2.1646  0.1684
 4836TIP3   OH236066   4.768   5.678   7.826  0.2307  0.4857 -0.2915
 4836TIP3    H136067   4.703   5.694   7.895 -0.2500  0.5994 -0.7681
 4836TIP3    H236068   4.805   5.592   7.847  0.9822  1.0485  0.8210
 4837TIP3   OH236069   4.047   5.363   0.030 -0.5372 -0.7471 -0.5280
 4837TIP3    H136070   4.107   5.383  -0.042 -0.4226  1.4480  0.1082
 4837TIP3    H236071   4.104   5.324   0.097  0.1713  0.9757 -0.0751
 4838TIP3   OH236072   2.165   1.129   2.005  0.2418 -0.1794  0.5184
 4838TIP3    H136073   2.109   1.051   1.999 -0.2770 -0.0651  2.9753
 4838TIP3    H236074   2.103   1.202   2.004  0.7754  0.4195 -3.0406
 4839TIP3   OH236075   7.043   1.427   0.769  0.1227  0.3160 -0.5131
 4839TIP3    H136076   7.105   1.476   0.715  2.1702  0.5348  1.8332
 4839TIP3    H236077   7.075   1.337   0.767 -0.4761  0.0983 -0.5955
 4840TIP3   OH236078   1.645   3.671   1.837  0.1510  0.4628  0.4948
 4840TIP3    H136079   1.565   3.663   1.890  0.9650 -0.8108  1.6031
 4840TIP3    H236080   1.625   3.740   1.774 -1.4881  0.8258  1.3448
 4841TIP3   OH236081   0.698   2.324   0.456 -0.5219 -0.0350 -0.1672
 4841TIP3    H136082   0.618   2.371   0.481 -0.1691 -0.1577  1.2863
 4841TIP3    H236083   0.715   2.264   0.529  1.1428  0.3023 -0.2347
 4842TIP3   OH236084   0.480   1.201   1.176 -0.1188 -0.3463  0.1317
 4842TIP3    H136085   0.398   1.186   1.128 -0.2846 -0.8000  0.5450
 4842TIP3    H236086   0.451   1.233   1.262  0.1185 -0.8073  0.3890
 4843TIP3   OH236087   1.243   1.777   0.435 -0.0763  0.6019  0.1897
 4843TIP3    H136088   1.260   1.854   0.489  1.6015 -0.6795  1.6238
 4843TIP3    H236089   1.326   1.761   0.389 -0.5590 -0.0558 -0.4772
 4844TIP3   OH236090   5.735   5.676   2.080 -0.0486  0.2792  0.1100
 4844TIP3    H136091   5.698   5.663   1.993  0.0671 -0.5187  0.1706
 4844TIP3    H236092   5.673   5.635   2.139  0.4049 -0.1472  0.3025
 4845TIP3   OH236093   0.802   0.188   0.147  0.3741  0.1632  0.3073
 4845TIP3    H136094   0.772   0.189   0.056  1.9425  2.8355 -0.3141
 4845TIP3    H236095   0.860   0.112   0.152 -0.3548 -0.4850 -0.6926
 4846TIP3   OH236096   3.983   6.768   7.778  0.3299 -0.3476 -0.1733
 4846TIP3    H136097   3.983   6.740   7.686 -0.2605 -1.9026  0.2638
 4846TIP3    H236098   3.894   6.748   7.809 -0.1063  1.9714  0.2404
 4847TIP3   OH236099   3.721   5.523   2.607  0.2061  0.0107  0.3190
 4847TIP3    H136100   3.740   5.527   2.513 -1.1054 -1.4877 -0.0495
 4847TIP3    H236101   3.650   5.585   2.620  1.1569  1.0783  0.5644
 4848TIP3   OH236102   6.449   1.675   0.883  0.2630  0.3900  0.4340
 4848TIP3    H136103   6.451   1.761   0.840 -0.0726  0.9471  1.4791
 4848TIP3    H236104   6.436   1.696   0.976  0.1415 -0.7997  0.6963
 4849TIP3   OH236105   0.749   6.869   2.082  0.6608 -0.1903  0.1405
 4849TIP3    H136106   0.741   6.775   2.096  0.7306 -0.0029  1.5794
 4849TIP3    H236107   0.665   6.895   2.043  0.4791 -0.7752  0.1414
 4850TIP3   OH236108   2.719   3.232   1.023  0.4760  0.2033 -0.5852
 4850TIP3    H136109   2.808   3.226   1.058  1.1779  1.2361 -2.0456
 4850TIP3    H236110   2.709   3.154   0.969  0.6738  0.3096 -0.7777
 4851TIP3   OH236111   2.394   5.837   0.408 -0.0740 -0.4556  0.0545
 4851TIP3    H136112   2.457   5.765   0.412  2.3341  1.5200 -0.0527
 4851TIP3    H236113   2.341   5.827   0.487  1.6392 -1.1218  1.1766
 4852TIP3   OH236114   4.650   2.219   1.555 -0.4879  0.6525 -0.2283
 4852TIP3    H136115   4.685   2.298   1.514  1.7982  0.3338  0.9564
 4852TIP3    H236116   4.702   2.208   1.635  0.6645 -3.0674 -1.2870
 4853TIP3   OH236117   1.415   6.340   1.920  0.1067  0.1922 -0.1077
 4853TIP3    H136118   1.507   6.368   1.917  0.0395  0.4000 -0.2026
 4853TIP3    H236119   1.373   6.401   1.980 -0.0637  0.3603 -0.3980
 4854TIP3   OH236120   5.801   6.971   7.086 -0.1324  0.1643 -0.1516
 4854TIP3    H136121   5.756   7.017   7.158  0.1393 -2.7214  2.0412
 4854TIP3    H236122   5.862   6.912   7.130  0.0748 -1.7597 -2.7944
 4855TIP3   OH236123   6.659   1.178   0.905  0.4859 -0.3130 -0.6941
 4855TIP3    H136124   6.619   1.237   0.841 -0.1796 -1.1239 -1.0433
 4855TIP3    H236125   6.723   1.233   0.951  0.6945  0.3895 -1.7740
 4856TIP3   OH236126   6.625   3.861   1.301 -0.1283  0.1487  0.1483
 4856TIP3    H136127   6.641   3.952   1.278  0.1776 -0.3466 -1.7556
 4856TIP3    H236128   6.533   3.859   1.328 -0.2665  0.9394 -0.2437
 4857TIP3   OH236129   3.408   3.929   0.216 -0.3345 -0.7715  0.0922
 4857TIP3    H136130   3.390   3.963   0.303 -0.1292 -1.0380  0.2395
 4857TIP3    H236131   3.497   3.895   0.221 -0.1830 -0.4487 -0.3262
 4858TIP3   OH236132   3.819   3.042   0.903 -0.0933 -0.2167  0.7288
 4858TIP3    H136133   3.839   2.996   0.822 -0.8567  0.8417 -0.1012
 4858TIP3    H236134   3.870   2.998   0.970  2.2514  0.2193 -0.6841
 4859TIP3   OH236135   3.816   4.829   8.048 -0.1974  0.2485 -0.0126
 4859TIP3    H136136   3.727   4.813   8.078 -0.4321  2.3606  0.5263
 4859TIP3    H236137   3.818   4.922   8.025  1.4039 -0.1366 -1.6715
 4860TIP3   OH236138   1.341   4.821   0.292 -0.4154 -0.1948 -0.8176
 4860TIP3    H136139   1.276   4.762   0.253 -1.8722  0.7531  0.0752
 4860TIP3    H236140   1.309   4.908   0.271 -0.3701  0.3202  1.0887
 4861TIP3   OH236141   1.711   5.818   2.790 -0.2989  0.4939  0.0886
 4861TIP3    H136142   1.766   5.805   2.868  1.9511 -1.7821 -1.7034
 4861TIP3    H236143   1.659   5.738   2.785 -1.8440  1.4671  0.2689
 4862TIP3   OH236144   6.101   6.354   0.865  0.0970  0.4936  0.0737
 4862TIP3    H136145   6.090   6.292   0.937  1.7195  0.7229  0.5539
 4862TIP3    H236146   6.099   6.440   0.906  2.4843  0.6015  0.1493
 4863TIP3   OH236147   4.934   1.993   1.582  0.4184 -0.7490  0.1434
 4863TIP3    H136148   4.929   2.022   1.673 -0.5276 -1.0141  0.1905
 4863TIP3    H236149   4.873   1.920   1.577 -0.5260  0.0690 -0.9954
 4864TIP3   OH236150   3.423   5.615   2.424 -0.2310  0.0357 -0.0213
 4864TIP3    H136151   3.438   5.521   2.427 -0.6782 -0.0821 -0.9968
 4864TIP3    H236152   3.374   5.629   2.343  0.5606  1.2093 -0.3335
 4865TIP3   OH236153   1.414   1.101   1.258 -0.0934 -0.1860  0.5902
 4865TIP3    H136154   1.413   1.093   1.354  0.2728  0.6541  0.6665
 4865TIP3    H236155   1.357   1.176   1.239  0.4178  0.1048  0.1964
 4866TIP3   OH236156   0.718   5.140   8.018 -0.3174  0.3256  0.2317
 4866TIP3    H136157   0.714   5.232   7.993 -1.5726 -0.0242 -0.9459
 4866TIP3    H236158   0.670   5.094   7.949  1.2374 -1.3408  0.1834
 4867TIP3   OH236159   6.407   0.620   2.423 -0.1759  0.0569 -0.1852
 4867TIP3    H136160   6.395   0.567   2.502 -0.3980 -0.9279 -0.8578
 4867TIP3    H236161   6.447   0.701   2.454 -2.0211  0.4933  1.2001
 4868TIP3   OH236162   2.259   1.352   1.611  0.0923 -0.0933  0.0999
 4868TIP3    H136163   2.247   1.420   1.545  1.8424 -1.7774 -2.1155
 4868TIP3    H236164   2.333   1.300   1.579  0.4697 -1.5514  2.9793
 4869TIP3   OH236165   0.177   4.841   0.803 -0.3291  0.0935 -0.4609
 4869TIP3    H136166   0.123   4.862   0.727 -1.6189  0.5972  0.5657
 4869TIP3    H236167   0.232   4.768   0.774  1.8521  2.5148 -3.0563
 4870TIP3   OH236168   2.701   2.065   2.811  0.4779 -0.2932 -0.3468
 4870TIP3    H136169   2.621   2.083   2.861  1.7564  1.7217  1.1225
 4870TIP3    H236170   2.701   2.131   2.742  0.9155 -0.2010 -0.2630
 4871TIP3   OH236171   4.011   0.832   3.390  0.2576 -0.1714 -0.1095
 4871TIP3    H136172   4.051   0.748   3.410 -1.0764 -0.4690  1.6080
 4871TIP3    H236173   3.934   0.836   3.447 -1.4256  0.9262 -2.2963
 4872TIP3   OH236174   4.971   1.730   0.691 -0.1784 -0.4738  0.3121
 4872TIP3    H136175   5.057   1.756   0.658 -0.9915  0.6268 -1.0507
 4872TIP3    H236176   4.943   1.803   0.747 -0.0322 -1.0605  1.1806
 4873TIP3   OH236177   0.206   4.364   7.469 -0.1606 -0.3831  0.1619
 4873TIP3    H136178   0.186   4.447   7.426  0.2201 -0.7039 -0.6510
 4873TIP3    H236179   0.236   4.307   7.398 -0.5864 -1.2701  0.6849
 4874TIP3   OH236180   5.245   1.716   3.012 -0.1030  0.0526 -0.6424
 4874TIP3    H136181   5.196   1.634   3.018 -0.0250  0.0963  2.0109
 4874TIP3    H236182   5.336   1.691   3.030 -0.0349  0.6510 -0.0985
 4875TIP3   OH236183   0.623   5.592   0.240 -0.0591 -0.1515 -0.0318
 4875TIP3    H136184   0.606   5.585   0.146 -1.8058  1.3021  0.1308
 4875TIP3    H236185   0.694   5.656   0.247 -1.3715  1.3915 -0.3112
 4876TIP3   OH236186   2.618   4.040   0.343  0.4907 -0.3162 -0.1093
 4876TIP3    H136187   2.693   4.061   0.287 -0.0944  0.4876 -0.6259
 4876TIP3    H236188   2.656   3.996   0.419  1.5203  0.3687 -0.2014
 4877TIP3   OH236189   5.348   3.293   1.620 -0.4330 -0.1119 -0.0802
 4877TIP3    H136190   5.412   3.363   1.613 -0.1540 -0.4524 -1.3560
 4877TIP3    H236191   5.276   3.330   1.672  0.1147  0.7940  0.0456
 4878TIP3   OH236192   4.604   4.650   1.678  0.1435 -0.0060  0.4366
 4878TIP3    H136193   4.688   4.691   1.700  0.2509 -0.6901  1.3952
 4878TIP3    H236194   4.543   4.724   1.669  0.6962  0.4593  0.4229
 4879TIP3   OH236195   1.487   1.240   7.836 -0.4024 -0.2071 -0.0127
 4879TIP3    H136196   1.574   1.254   7.798 -0.3186 -2.0985 -0.6156
 4879TIP3    H236197   1.460   1.327   7.866  0.6169  0.9083 -2.0868
 4880TIP3   OH236198   5.952   1.390   0.590 -0.4684 -0.3072  0.2945
 4880TIP3    H136199   5.862   1.369   0.564 -0.8869  0.4970  1.0218
 4880TIP3    H236200   5.953   1.379   0.685  0.4719 -1.2194  0.1913
 4881TIP3   OH236201   5.582   6.764   2.871  0.3345  0.0112  0.6980
 4881TIP3    H136202   5.550   6.692   2.925  0.4053 -0.5175  0.0401
 4881TIP3    H236203   5.644   6.724   2.811  0.5860  0.6663  0.5077
 4882TIP3   OH236204   2.906   5.670   8.039 -0.0246 -0.6864 -0.9549
 4882TIP3    H136205   2.915   5.645   7.947  0.1599  0.2547 -1.1945
 4882TIP3    H236206   2.850   5.747   8.038  1.2407  0.2787 -0.4240
 4883TIP3   OH236207   3.567   0.712   0.636  0.5841 -0.1182 -0.6273
 4883TIP3    H136208   3.520   0.715   0.719  0.4592 -1.5673 -0.6223
 4883TIP3    H236209   3.499   0.726   0.570  0.7538  1.5129 -0.5062
 4884TIP3   OH236210   0.792   0.279   2.416 -0.1401 -0.0095  0.1300
 4884TIP3    H136211   0.703   0.256   2.444  0.2894 -2.1606 -0.0371
 4884TIP3    H236212   0.842   0.198   2.428  2.2458  1.5742  1.8671
 4885TIP3   OH236213   0.233   3.922   8.192  0.2228  0.0337 -0.0947
 4885TIP3    H136214   0.216   3.904   8.099  0.1598 -1.8786  0.2425
 4885TIP3    H236215   0.249   3.836   8.230  3.3124  1.0013  1.1078
 4886TIP3   OH236216   0.126   0.172   8.042 -0.0141  0.3551  0.0867
 4886TIP3    H136217   0.184   0.182   7.966 -2.0053  0.1759 -1.5431
 4886TIP3    H236218   0.172   0.111   8.099  1.9162  1.1147 -0.5675
 4887TIP3   OH236219   5.117   2.629   3.020  0.0463  0.0254  0.5218
 4887TIP3    H136220   5.150   2.554   3.069  3.9019  1.6196  0.7229
 4887TIP3    H236221   5.125   2.702   3.081 -2.6682  0.8736 -0.0002
 4888TIP3   OH236222   0.023   0.182   0.743  0.8089 -0.1551  0.1897
 4888TIP3    H136223   0.085   0.191   0.815  0.4076  1.4395  0.3749
 4888TIP3    H236224   0.075   0.148   0.670  1.0590 -2.6078  1.3955
 4889TIP3   OH236225   6.400   3.663   2.869  0.3424 -0.0014  0.3299
 4889TIP3    H136226   6.323   3.657   2.927  0.6313 -2.0287  0.5626
 4889TIP3    H236227   6.370   3.629   2.785  0.9459 -0.6769  0.3834
 4890TIP3   OH236228   2.291   4.253   1.587  0.2572 -0.0089  0.4683
 4890TIP3    H136229   2.368   4.306   1.566 -0.7899  2.5044  2.3532
 4890TIP3    H236230   2.241   4.251   1.505  1.9270 -1.0416 -0.5663
 4891TIP3   OH236231   5.295   3.076   3.751  0.2676 -0.2610 -0.1431
 4891TIP3    H136232   5.237   3.098   3.678 -0.6242 -0.4455  0.4929
 4891TIP3    H236233   5.236   3.059   3.824  1.1336 -0.4183  0.5360
 4892TIP3   OH236234   6.084   3.387   2.745  0.6388  0.0446 -0.5224
 4892TIP3    H136235   6.120   3.377   2.833  1.0721  0.8193 -0.6015
 4892TIP3    H236236   6.096   3.302   2.704 -0.1225 -0.5085  0.3617
 4893TIP3   OH236237   4.864   2.042   2.091  0.3440  0.3160  0.2439
 4893TIP3    H136238   4.804   2.039   2.165 -0.2159 -0.6829 -0.2277
 4893TIP3    H236239   4.832   1.974   2.031  2.0377 -0.3850  0.0575
 4894TIP3   OH236240   2.984   2.463   1.275 -0.6273 -0.3909  0.3940
 4894TIP3    H136241   3.073   2.441   1.302 -0.2364 -0.8293 -1.1542
 4894TIP3    H236242   2.937   2.380   1.276 -1.1636 -0.1025  1.5929
 4895TIP3   OH236243   1.546   2.974   0.563  0.3168  0.4840  0.5278
 4895TIP3    H136244   1.569   3.059   0.600  0.7684 -0.1090  1.6894
 4895TIP3    H236245   1.630   2.932   0.545  0.1448 -0.4480  1.7645
 4896TIP3   OH236246   4.993   3.670   0.105 -0.1338 -0.3825 -0.2255
 4896TIP3    H136247   4.927   3.722   0.150  0.7562 -0.4416  1.1862
 4896TIP3    H236248   4.992   3.586   0.149  1.5547 -0.0612  0.4945
 4897TIP3   OH236249   4.827   4.993   3.479  0.1793 -1.0089  0.5970
 4897TIP3    H136250   4.857   5.072   3.525  0.2825 -1.1545  0.7847
 4897TIP3    H236251   4.905   4.938   3.475  0.1887 -0.9672  0.1808
 4898TIP3   OH236252   0.412   3.315   0.169 -0.5894 -0.2872 -0.1822
 4898TIP3    H136253   0.411   3.223   0.195 -0.4832  0.3143  2.2405
 4898TIP3    H236254   0.494   3.326   0.122 -0.9618 -1.5779 -1.1847
 4899TIP3   OH236255   3.663   3.897   1.238  0.4033  0.1717  1.4152
 4899TIP3    H136256   3.664   3.965   1.305 -0.2891  4.1465 -2.1704
 4899TIP3    H236257   3.739   3.917   1.183 -0.6144 -1.0566 -0.5453
 4900TIP3   OH236258   0.676   3.438   2.706 -0.3331  0.1118 -0.0907
 4900TIP3    H136259   0.744   3.381   2.741 -0.0723 -0.0005 -0.7621
 4900TIP3    H236260   0.711   3.467   2.621 -1.1504 -0.0128 -0.4778
 4901TIP3   OH236261   3.182   3.009   3.222  0.0452 -0.5247  0.7291
 4901TIP3    H136262   3.243   3.079   3.203 -1.3318  1.0248  1.7123
 4901TIP3    H236263   3.095   3.049   3.213 -0.7783 -1.8622  2.0760
 4902TIP3   OH236264   7.008   1.551   1.424 -0.0727 -0.2174 -0.2641
 4902TIP3    H136265   7.046   1.464   1.438  1.7673  0.9572  3.3220
 4902TIP3    H236266   6.926   1.549   1.472 -0.7604 -0.3374 -1.3985
 4903TIP3   OH236267   5.822   3.408   3.788 -0.4833 -0.0917 -0.1013
 4903TIP3    H136268   5.741   3.385   3.833  0.3239 -1.0223  0.9435
 4903TIP3    H236269   5.806   3.495   3.752 -0.8653  1.2160  2.9121
 4904TIP3   OH236270   4.232   1.891   1.486  0.0622  0.4811  0.6698
 4904TIP3    H136271   4.196   1.813   1.527 -0.5447  0.9827  1.1151
 4904TIP3    H236272   4.225   1.959   1.553  1.3256  0.7307  0.5620
 4905TIP3   OH236273   5.420   6.624   8.121  0.0041 -0.0232 -0.5927
 4905TIP3    H136274   5.345   6.565   8.124 -1.8244  2.1609 -1.1235
 4905TIP3    H236275   5.411   6.671   8.038  1.4675  0.9361 -0.2476
 4906TIP3   OH236276   3.222   4.383   1.109 -0.1362 -0.3716 -0.0025
 4906TIP3    H136277   3.239   4.302   1.061  0.8704 -1.5481  2.2239
 4906TIP3    H236278   3.298   4.395   1.165 -0.4252  1.9497 -0.0038
 4907TIP3   OH236279   3.586   5.714   2.762 -0.3573 -0.1822  0.0683
 4907TIP3    H136280   3.680   5.699   2.761 -0.5726 -1.6659  0.4002
 4907TIP3    H236281   3.572   5.766   2.841  0.0205 -1.2786  0.8829
 4908TIP3   OH236282   5.705   5.403   1.333  0.1279 -0.5921 -0.3316
 4908TIP3    H136283   5.686   5.428   1.424 -0.6036  1.6318 -1.0222
 4908TIP3    H236284   5.653   5.324   1.319 -0.7339 -0.2625  0.8302
 4909TIP3   OH236285   4.416   3.318   7.708 -0.2426 -0.1633  0.7702
 4909TIP3    H136286   4.429   3.313   7.613  2.1004 -1.3095  1.0639
 4909TIP3    H236287   4.337   3.266   7.723  1.1767 -2.9076 -0.3385
 4910TIP3   OH236288   5.125   4.678   2.552 -0.0394 -0.0219  0.0032
 4910TIP3    H136289   5.031   4.695   2.565  0.0504  1.9336 -1.3730
 4910TIP3    H236290   5.168   4.755   2.588  1.4551 -2.4748  4.0708
 4911TIP3   OH236291   6.411   0.987   0.365 -0.8725 -0.2933  0.0742
 4911TIP3    H136292   6.322   0.953   0.353 -0.9027 -0.3243  0.3855
 4911TIP3    H236293   6.408   1.075   0.328 -1.5155  0.3981  1.6820
 4912TIP3   OH236294   4.436   3.840   1.742  0.1149 -0.1891  0.1407
 4912TIP3    H136295   4.456   3.784   1.667  0.0136  0.5466 -0.4399
 4912TIP3    H236296   4.436   3.929   1.707  0.2518  0.1794  1.0513
 4913TIP3   OH236297   4.782   5.756   1.078 -0.2025  0.1150 -0.0139
 4913TIP3    H136298   4.713   5.797   1.130 -0.5841 -0.1417 -0.3067
 4913TIP3    H236299   4.741   5.740   0.993  0.8897  2.0359 -0.9735
 4914TIP3   OH236300   5.611   3.345   1.324 -0.1050  0.0915  0.1548
 4914TIP3    H136301   5.671   3.284   1.366  1.9620  0.7342 -1.6599
 4914TIP3    H236302   5.656   3.430   1.329 -0.2180  0.3654 -2.3432
 4915TIP3   OH236303   6.071   3.834   7.819 -0.2526 -0.2033  0.0730
 4915TIP3    H136304   6.103   3.889   7.748 -3.4932  0.5690 -0.9381
 4915TIP3    H236305   6.007   3.775   7.778  0.1930 -2.0387  1.8189
 4916TIP3   OH236306   5.846   2.121   7.552 -0.1537  0.6006  0.4880
 4916TIP3    H136307   5.783   2.127   7.480  1.3048  0.9222 -0.8157
 4916TIP3    H236308   5.909   2.191   7.535  0.9466 -0.1321  1.3585
 4917TIP3   OH236309   2.794   2.493   2.751  0.4058 -0.1808 -0.9968
 4917TIP3    H136310   2.725   2.474   2.814 -0.1972  0.2650 -1.5029
 4917TIP3    H236311   2.875   2.466   2.794 -0.1347 -1.1956 -0.5903
 4918TIP3   OH236312   2.747   0.002   2.551  0.4283 -0.7997  0.4461
 4918TIP3    H136313   2.674  -0.016   2.492  1.2956  2.1418 -1.7653
 4918TIP3    H236314   2.714   0.073   2.607  0.2480 -2.3092  2.3395
 4919TIP3   OH236315   4.885   1.083   3.028  0.3528 -0.3152  0.6191
 4919TIP3    H136316   4.830   1.162   3.024  1.2464  0.2761 -0.9694
 4919TIP3    H236317   4.878   1.054   3.119 -2.0685  0.0749  0.6262
 4920TIP3   OH236318   5.263   0.192   3.166 -0.0204 -0.5083 -0.0113
 4920TIP3    H136319   5.294   0.117   3.217 -0.2351  0.6305  1.9111
 4920TIP3    H236320   5.168   0.183   3.165 -0.0616 -0.1473  0.4287
 4921TIP3   OH236321   6.217   1.651   2.173 -0.0699  0.2480 -0.3769
 4921TIP3    H136322   6.276   1.725   2.187  0.6384 -0.1978 -0.8901
 4921TIP3    H236323   6.261   1.577   2.215 -0.0695 -0.1679 -1.0842
 4922TIP3   OH236324   5.196   1.445   2.462  0.3095 -0.0454 -0.6183
 4922TIP3    H136325   5.291   1.457   2.460  0.3943 -0.5753  0.0330
 4922TIP3    H236326   5.176   1.429   2.554 -0.5839  1.3970 -0.5402
 4923TIP3   OH236327   4.199   5.678   7.292 -0.3538 -0.6344 -0.1313
 4923TIP3    H136328   4.279   5.714   7.253 -0.8074  1.0936  0.4098
 4923TIP3    H236329   4.130   5.696   7.228 -0.3265 -2.2353 -0.6556
 4924TIP3   OH236330   2.402   1.815   8.152 -0.2229  0.5199 -0.3457
 4924TIP3    H136331   2.478   1.803   8.096  0.6994  2.6638  0.3146
 4924TIP3    H236332   2.439   1.836   8.238 -1.5900 -0.6764  0.5734
 4925TIP3   OH236333   5.297   1.584   0.364 -0.4102  0.4886 -0.3661
 4925TIP3    H136334   5.389   1.604   0.381 -0.2049  0.0347 -0.8857
 4925TIP3    H236335   5.284   1.611   0.273 -0.4974 -0.4419 -0.6348
 4926TIP3   OH236336   6.452   2.705   2.291  0.8059 -0.7719 -0.3848
 4926TIP3    H136337   6.502   2.661   2.222 -0.1675 -2.4266 -0.0946
 4926TIP3    H236338   6.500   2.786   2.308  3.5629 -2.4120  0.1079
 4927TIP3   OH236339   6.900   3.769   1.753 -0.0339 -0.2179 -0.2540
 4927TIP3    H136340   6.954   3.795   1.678  0.5259 -1.0374 -0.1476
 4927TIP3    H236341   6.857   3.850   1.781  2.2173  0.7950  0.5305
 4928TIP3   OH236342   4.142   5.325   1.288 -0.2520  0.3253  0.2657
 4928TIP3    H136343   4.182   5.238   1.290  1.3916  1.0532  1.4945
 4928TIP3    H236344   4.216   5.384   1.270 -1.0199  1.6208  1.2366
 4929TIP3   OH236345   1.084   5.781   1.340  0.1094  0.4508 -0.2921
 4929TIP3    H136346   1.096   5.690   1.313  0.1486  0.2142  0.5049
 4929TIP3    H236347   1.096   5.831   1.260  3.3189  0.0098 -0.1917
 4930TIP3   OH236348   5.317   4.311   0.498 -0.2100 -0.0205  0.2897
 4930TIP3    H136349   5.390   4.283   0.554  0.6039 -0.6372 -1.0151
 4930TIP3    H236350   5.264   4.367   0.554  1.1804  0.3163  1.3428
 4931TIP3   OH236351   4.322   4.034   0.126 -0.4389 -0.2206 -0.1289
 4931TIP3    H136352   4.405   4.010   0.084  0.4616  2.0492  0.1915
 4931TIP3    H236353   4.273   4.079   0.058 -1.6629 -1.9441 -0.4476
 4932TIP3   OH236354   3.872   5.416   1.280  0.7597 -0.3064  0.1355
 4932TIP3    H136355   3.844   5.437   1.190  0.9244 -0.1845  0.1134
 4932TIP3    H236356   3.966   5.404   1.274  0.5979 -1.6899  0.0234
 4933TIP3   OH236357   2.004   3.202   1.104 -0.0254 -0.1465 -0.5681
 4933TIP3    H136358   1.925   3.152   1.122  0.6876 -1.1512 -0.1381
 4933TIP3    H236359   2.076   3.143   1.129  0.8603  2.1089  2.9607
 4934TIP3   OH236360   1.629   0.826   2.276 -0.0586 -0.6233  0.4407
 4934TIP3    H136361   1.601   0.737   2.252 -0.1777 -0.1699 -1.1672
 4934TIP3    H236362   1.549   0.867   2.310 -0.4234 -0.5973 -0.4197
 4935TIP3   OH236363   5.668   1.755   0.867  0.0077  0.1764 -0.1940
 4935TIP3    H136364   5.761   1.742   0.882 -0.0451  1.8440  1.9861
 4935TIP3    H236365   5.631   1.667   0.867  1.6191 -0.5765 -1.9159
 4936TIP3   OH236366   4.524   3.020   3.136 -0.0322 -0.4596 -0.1411
 4936TIP3    H136367   4.432   3.003   3.119  0.3073 -0.3070 -2.5376
 4936TIP3    H236368   4.560   3.046   3.051  1.7186  1.8642  1.1838
 4937TIP3   OH236369   5.477   2.646   0.375 -0.2767  0.4732  0.4651
 4937TIP3    H136370   5.537   2.649   0.449  0.8683  0.4724 -0.4340
 4937TIP3    H236371   5.484   2.733   0.335  0.6856 -0.1710 -0.8210
 4938TIP3   OH236372   4.607   3.449   1.758  0.2232  0.2750 -0.2269
 4938TIP3    H136373   4.630   3.378   1.818  0.7530  0.3058 -0.3885
 4938TIP3    H236374   4.684   3.506   1.759 -0.1989  0.8527 -0.0901
 4939TIP3   OH236375   6.064   0.267   1.918  0.2198  0.2894 -0.3386
 4939TIP3    H136376   5.968   0.272   1.913  0.1074 -1.9988 -2.3558
 4939TIP3    H236377   6.080   0.223   2.002 -0.7547 -2.2671 -1.3916
 4940TIP3   OH236378   0.154   2.441   1.296 -0.2093  0.4102 -0.9654
 4940TIP3    H136379   0.194   2.459   1.211  0.1645 -2.1514 -1.4018
 4940TIP3    H236380   0.102   2.361   1.282  1.2138 -1.0790  1.5732
 4941TIP3   OH236381   5.021   6.376   7.639 -0.7606  0.2380  0.2020
 4941TIP3    H136382   5.050   6.359   7.550  0.5346  0.3628  0.5831
 4941TIP3    H236383   4.988   6.291   7.671  0.3991 -0.2327  0.1858
 4942TIP3   OH236384   3.263   4.113   2.190  0.1994  0.0305 -0.0976
 4942TIP3    H136385   3.287   4.076   2.275 -1.2342 -1.2281 -0.1944
 4942TIP3    H236386   3.243   4.205   2.207  1.6348  0.2387  0.5793
 4943TIP3   OH236387   5.529   2.220   7.552  0.4373  0.0150 -0.0082
 4943TIP3    H136388   5.496   2.210   7.463 -0.1334  0.0879  0.1910
 4943TIP3    H236389   5.559   2.132   7.577  1.2934  0.1473 -0.5348
 4944TIP3   OH236390   4.585   1.982   0.665 -0.1545 -0.1760  0.0940
 4944TIP3    H136391   4.593   2.077   0.670 -1.9837  0.0737 -0.8303
 4944TIP3    H236392   4.674   1.951   0.647  0.4474  1.3531  0.3174
 4945TIP3   OH236393   4.469   1.058   0.464  0.3483  0.1457  0.2980
 4945TIP3    H136394   4.454   1.048   0.558  0.5300  0.5244  0.3683
 4945TIP3    H236395   4.505   0.974   0.436 -0.8922 -0.4219  0.3276
 4946TIP3   OH236396   5.191   3.066   7.757  0.0588 -0.3338  0.0672
 4946TIP3    H136397   5.132   3.061   7.831 -0.1525 -1.2346 -0.1494
 4946TIP3    H236398   5.157   3.002   7.694  0.7629 -0.2476 -0.4192
 4947TIP3   OH236399   5.516   5.607   0.214  0.3154 -0.0403 -0.6222
 4947TIP3    H136400   5.598   5.592   0.262 -0.1808  0.1875  0.3083
 4947TIP3    H236401   5.521   5.546   0.140  0.8712 -0.7608 -0.0150
 4948TIP3   OH236402   3.212   0.985   2.698 -0.0626 -0.8292  0.5013
 4948TIP3    H136403   3.162   1.041   2.757 -0.3428 -0.1245 -0.3846
 4948TIP3    H236404   3.256   0.922   2.755  0.1481  0.2087  1.4933
 4949TIP3   OH236405   5.796   3.200   1.521 -0.0968 -0.5783  0.0696
 4949TIP3    H136406   5.754   3.130   1.472 -1.3500  0.0908  0.1487
 4949TIP3    H236407   5.886   3.169   1.535 -0.5485 -2.0411 -0.1147
 4950TIP3   OH236408   3.809   3.036   0.319  0.0399 -0.0936  0.6934
 4950TIP3    H136409   3.714   3.028   0.322 -0.1362  1.6150  0.6632
 4950TIP3    H236410   3.837   3.025   0.410 -0.1205 -1.0454  0.6400
 4951TIP3   OH236411   6.567   2.935   1.219 -0.7511 -0.1171 -0.2905
 4951TIP3    H136412   6.575   2.983   1.302 -1.6151 -1.2554  0.4711
 4951TIP3    H236413   6.493   2.877   1.231 -1.0556 -0.1438 -1.9719
 4952TIP3   OH236414   1.651   4.460   2.949  0.3930 -1.0124  0.2677
 4952TIP3    H136415   1.720   4.527   2.941 -0.7311  0.1848  0.1908
 4952TIP3    H236416   1.675   4.409   3.026  0.1430  0.8993  1.6876
 4953TIP3   OH236417   1.397   6.591   1.059 -0.4770 -0.1846 -0.5086
 4953TIP3    H136418   1.441   6.506   1.056  0.9694  0.5407 -1.1623
 4953TIP3    H236419   1.445   6.645   0.996 -1.7078  0.9600 -0.5098
 4954TIP3   OH236420   0.698   1.511   1.672 -0.1272 -0.3515  0.5948
 4954TIP3    H136421   0.772   1.544   1.723  0.0241 -2.0690  1.5577
 4954TIP3    H236422   0.625   1.568   1.697  0.4269  0.1491  1.1120
 4955TIP3   OH236423   0.633   2.504   8.074 -0.2164 -0.2837 -0.2522
 4955TIP3    H136424   0.620   2.515   8.168 -2.2553  2.4252 -0.7338
 4955TIP3    H236425   0.609   2.413   8.057 -1.6143 -0.3308  1.5958
 4956TIP3   OH236426   0.273   0.366   2.933 -0.3074 -0.2763  0.0724
 4956TIP3    H136427   0.272   0.409   2.847 -0.1196 -2.2597 -1.0020
 4956TIP3    H236428   0.255   0.274   2.913 -0.9591 -0.6741  2.2609
 4957TIP3   OH236429   3.654   1.477   8.214 -0.2145 -0.3348  0.2044
 4957TIP3    H136430   3.733   1.479   8.159 -0.7278  1.0318 -0.5447
 4957TIP3    H236431   3.683   1.510   8.299  0.0153  0.2845 -0.1073
 4958TIP3   OH236432   1.238   2.623   0.024  0.2298 -0.1108  0.1752
 4958TIP3    H136433   1.183   2.548   0.047  0.1985 -1.0688 -2.5882
 4958TIP3    H236434   1.276   2.599  -0.061  1.9715  2.1102  0.2437
 4959TIP3   OH236435   5.167   2.634   0.080 -0.2114 -0.2178 -0.6844
 4959TIP3    H136436   5.088   2.584   0.102 -0.6157 -0.9267 -3.4263
 4959TIP3    H236437   5.134   2.718   0.047 -0.0717 -1.1946 -3.6280
 4960TIP3   OH236438   3.234   6.918   3.152  0.5507 -0.5391  0.0206
 4960TIP3    H136439   3.150   6.940   3.113  1.0308 -0.0148 -0.7479
 4960TIP3    H236440   3.213   6.892   3.241 -0.6743 -2.4876 -0.7705
 4961TIP3   OH236441   1.470   2.354   1.758 -0.7163 -0.3785  0.2503
 4961TIP3    H136442   1.485   2.449   1.757  0.3944 -0.5327  0.7564
 4961TIP3    H236443   1.501   2.325   1.672 -0.3149 -0.3757  0.3894
 4962TIP3   OH236444   1.474   6.631   7.753  0.3348  0.2588 -0.4155
 4962TIP3    H136445   1.532   6.654   7.680  0.1258 -0.3559 -0.7871
 4962TIP3    H236446   1.387   6.627   7.714  0.2461 -0.2490 -0.1695
 4963TIP3   OH236447   2.189   1.179   7.363 -0.3448 -0.0473  0.6381
 4963TIP3    H136448   2.244   1.255   7.343  0.3975 -0.2803  1.7263
 4963TIP3    H236449   2.251   1.108   7.380 -0.9128 -0.0667  2.8982
 4964TIP3   OH236450   5.056   2.629   1.270 -0.5774  0.3780 -0.7043
 4964TIP3    H136451   5.100   2.580   1.339 -0.1892  0.9245 -0.5520
 4964TIP3    H236452   4.983   2.574   1.244 -0.7122  0.1427  0.1278
 4965TIP3   OH236453   6.305   2.069   8.249 -0.2487 -0.1960 -0.2389
 4965TIP3    H136454   6.336   2.041   8.334  0.5972  1.0264 -0.1210
 4965TIP3    H236455   6.383   2.075   8.195  0.0202  3.6505  0.2664
 4966TIP3   OH236456   2.775   3.994   3.010  0.0414  0.0884 -0.2012
 4966TIP3    H136457   2.694   4.028   3.050 -0.6359  0.4899 -1.8107
 4966TIP3    H236458   2.838   4.065   3.022 -0.1401  0.1911  0.1766
 4967TIP3   OH236459   1.243   1.160   7.937  0.1760 -0.1563  0.2612
 4967TIP3    H136460   1.321   1.188   7.890 -0.8135  0.1812 -1.2899
 4967TIP3    H236461   1.177   1.225   7.914 -1.1024 -1.5260 -0.1331
 4968TIP3   OH236462   1.597   2.668   7.035 -0.3761  0.0986 -0.0503
 4968TIP3    H136463   1.635   2.584   7.010 -2.0980 -0.0474 -2.4834
 4968TIP3    H236464   1.606   2.723   6.958 -1.0627  1.5134  0.8254
 4969TIP3   OH236465   6.875   4.664   1.604  0.3344  0.5825  0.2923
 4969TIP3    H136466   6.885   4.572   1.628 -1.1125  0.2783 -0.1949
 4969TIP3    H236467   6.930   4.711   1.667  2.2608 -0.6823 -0.3356
 4970TIP3   OH236468   3.872   1.529   2.719  0.3353 -0.4561  0.0771
 4970TIP3    H136469   3.819   1.457   2.754  0.7519 -0.9358 -0.2717
 4970TIP3    H236470   3.961   1.495   2.715  0.2620 -0.5118 -1.6860
 4971TIP3   OH236471   1.814   5.706   0.594  0.5628  0.1006 -0.0479
 4971TIP3    H136472   1.802   5.749   0.510  0.2911 -1.4467 -0.8444
 4971TIP3    H236473   1.730   5.714   0.638  0.3538 -0.0760 -0.4118
 4972TIP3   OH236474   3.569   4.497   1.127 -0.0555  0.6570 -0.3743
 4972TIP3    H136475   3.533   4.410   1.108  2.9583 -1.2253  1.6146
 4972TIP3    H236476   3.616   4.521   1.047  0.2866 -0.2600 -0.4631
 4973TIP3   OH236477   1.126   5.202   0.041 -0.0011 -0.6292  0.6703
 4973TIP3    H136478   1.167   5.259   0.106 -0.2419  1.5260 -0.9817
 4973TIP3    H236479   1.106   5.259  -0.033  0.3732 -3.0085 -1.4045
 4974TIP3   OH236480   3.867   5.122   2.323  0.3420 -0.0245  0.3533
 4974TIP3    H136481   3.873   5.176   2.244  0.9933  0.5673  0.7935
 4974TIP3    H236482   3.931   5.161   2.383  0.6016 -1.1086  0.7938
 4975TIP3   OH236483   3.344   3.383   2.596 -0.3181 -0.4173  0.4952
 4975TIP3    H136484   3.416   3.388   2.533 -0.1540  0.4336  0.7300
 4975TIP3    H236485   3.292   3.308   2.568 -0.1393 -0.1728 -0.5460
 4976TIP3   OH236486   4.343   0.226   3.165 -0.6201  0.8200 -0.0370
 4976TIP3    H136487   4.408   0.231   3.235 -1.1727  3.4336  0.3984
 4976TIP3    H236488   4.266   0.188   3.206  0.7015 -3.0354 -0.7434
 4977TIP3   OH236489   3.134   5.509   1.832  0.3397 -0.2301 -0.4529
 4977TIP3    H136490   3.206   5.461   1.873 -2.0944 -2.4331  1.5412
 4977TIP3    H236491   3.121   5.585   1.889 -1.7383 -2.2443  1.9780
 4978TIP3   OH236492   2.887   5.963   2.284 -0.2183 -0.5354  0.0298
 4978TIP3    H136493   2.851   6.047   2.255 -1.7853 -2.3011 -3.9192
 4978TIP3    H236494   2.981   5.970   2.268 -0.2666  0.5749  0.1581
 4979TIP3   OH236495   2.841   4.351   1.628  0.3495 -0.2674 -0.1380
 4979TIP3    H136496   2.916   4.335   1.684  1.3484 -1.0968 -1.6619
 4979TIP3    H236497   2.767   4.311   1.675  0.6589  1.1898  1.7221
 4980TIP3   OH236498   5.185   5.172   0.649 -0.0579 -0.2579  0.4590
 4980TIP3    H136499   5.105   5.206   0.610 -0.4774 -2.7912 -1.1133
 4980TIP3    H236500   5.256   5.209   0.596 -0.5794 -2.8598 -2.3077
 4981TIP3   OH236501   3.628   4.775   0.603 -0.4459 -0.3231 -0.7519
 4981TIP3    H136502   3.591   4.828   0.674  0.9882 -0.8844  0.4478
 4981TIP3    H236503   3.553   4.727   0.568 -0.9375 -1.3714  1.5525
 4982TIP3   OH236504   3.815   4.768   3.165 -0.0370 -0.8402  0.0605
 4982TIP3    H136505   3.865   4.845   3.195 -0.4060 -0.9305  0.9515
 4982TIP3    H236506   3.828   4.766   3.070 -0.0670  0.3558  0.0163
 4983TIP3   OH236507   1.250   5.215   1.137  0.1767 -0.2237  0.0965
 4983TIP3    H136508   1.314   5.283   1.157  1.9560 -1.5812 -0.8002
 4983TIP3    H236509   1.251   5.157   1.213  0.3967 -0.5428 -0.1507
 4984TIP3   OH236510   4.045   4.334   7.925  0.1886  0.6241  0.2514
 4984TIP3    H136511   4.134   4.358   7.897  0.2707  1.2489  1.0247
 4984TIP3    H236512   3.988   4.383   7.866  0.3186 -1.0135 -1.3225
 4985TIP3   OH236513   4.662   5.186   1.478  0.1865 -0.1424 -0.3277
 4985TIP3    H136514   4.687   5.273   1.447 -0.6691  0.0809 -0.4056
 4985TIP3    H236515   4.720   5.127   1.430  1.9170  0.4448  0.9159
 4986TIP3   OH236516   0.892   6.205   2.155 -0.0985 -0.5323 -0.4813
 4986TIP3    H136517   0.975   6.195   2.202 -1.0987 -0.3927  1.4060
 4986TIP3    H236518   0.918   6.232   2.066  1.9292 -2.4089 -0.5522
 4987TIP3   OH236519   5.520   1.690   0.528  0.8224  0.1815  0.2034
 4987TIP3    H136520   5.602   1.731   0.502  0.5386  0.3437 -0.4679
 4987TIP3    H236521   5.508   1.715   0.620  0.7172  1.5120 -0.1532
 4988TIP3   OH236522   6.329   1.666   7.799  0.1685  0.1933  0.2276
 4988TIP3    H136523   6.322   1.741   7.858 -0.9784  1.0298 -0.9118
 4988TIP3    H236524   6.304   1.591   7.852  0.7973  0.6744  1.2454
 4989TIP3   OH236525   1.435   4.362   1.527  0.1491  0.0016  0.3889
 4989TIP3    H136526   1.396   4.435   1.575  2.8782  1.3737  0.6678
 4989TIP3    H236527   1.433   4.388   1.435  1.9975  0.9305  0.5778
 4990TIP3   OH236528   5.403   5.477   0.844  0.4982  0.0080 -0.4358
 4990TIP3    H136529   5.484   5.445   0.884 -0.0411 -2.6885 -1.3113
 4990TIP3    H236530   5.428   5.498   0.754  0.3296 -0.3538 -0.5674
 4991TIP3   OH236531   5.690   7.028   8.221  0.4070 -0.0154 -0.2416
 4991TIP3    H136532   5.663   7.090   8.289  3.0079 -0.4821  1.3590
 4991TIP3    H236533   5.747   7.079   8.163  0.2910 -0.2596 -0.5744
 4992TIP3   OH236534   5.040   3.723   1.668 -0.6433 -0.1311  0.2185
 4992TIP3    H136535   5.127   3.763   1.668 -0.1429 -1.1362  1.7641
 4992TIP3    H236536   5.008   3.735   1.579  1.2524 -0.1181 -0.5008
 4993TIP3   OH236537   3.084   3.885   2.727  0.5324 -0.4311 -0.5417
 4993TIP3    H136538   3.067   3.850   2.640  1.0755 -2.2861  0.0669
 4993TIP3    H236539   3.154   3.950   2.713 -0.1885  0.1405 -1.6235
 4994TIP3   OH236540   1.463   0.970   8.029  0.6735 -0.5058 -0.2978
 4994TIP3    H136541   1.486   1.057   7.996  0.8853 -0.1891  0.6824
 4994TIP3    H236542   1.422   0.987   8.114  2.8327 -1.5125  0.9970
 4995TIP3   OH236543   1.175   6.457   0.213  0.8117 -0.1201  0.3263
 4995TIP3    H136544   1.228   6.497   0.144  0.3588  3.0405  1.6322
 4995TIP3    H236545   1.216   6.487   0.295 -0.6567 -0.9275  1.4033
 4996TIP3   OH236546   0.394   3.920   3.023 -0.4309 -0.0457  0.0618
 4996TIP3    H136547   0.389   4.014   3.042  0.3833  0.3389 -1.4669
 4996TIP3    H236548   0.304   3.889   3.036 -0.6437  0.8571  0.9214
 4997TIP3   OH236549   2.312   4.278   2.504  0.2690 -0.5038 -0.2263
 4997TIP3    H136550   2.245   4.217   2.474  0.6776 -1.9708  1.6386
 4997TIP3    H236551   2.392   4.226   2.510  0.8764  0.4597  0.4393
 4998TIP3   OH236552   6.603   2.363   2.461 -0.0603  0.1997  0.5308
 4998TIP3    H136553   6.620   2.286   2.516  2.7245 -0.6081 -1.2178
 4998TIP3    H236554   6.521   2.344   2.417 -0.7297 -0.5580  2.0503
 4999TIP3   OH236555   1.941   4.711   3.314 -0.0035  0.0068  0.8987
 4999TIP3    H136556   2.036   4.698   3.317  0.0049 -0.4580 -0.5926
 4999TIP3    H236557   1.906   4.624   3.294 -0.4396  0.8232 -2.3611
 5000TIP3   OH236558   5.691   0.972   7.746 -0.0131  0.4538  0.0857
 5000TIP3    H136559   5.659   1.061   7.730 -2.2644 -0.0499  1.3400
 5000TIP3    H236560   5.671   0.924   7.666  1.0568  1.0006 -0.5321
 5001TIP3   OH236561   2.494   0.647   2.686 -0.5594 -0.1500  0.3097
 5001TIP3    H136562   2.488   0.601   2.602  0.4903 -1.3684  0.8719
 5001TIP3    H236563   2.549   0.723   2.669 -0.5810 -0.2431 -0.1716
 5002TIP3   OH236564   1.672   2.733   0.882 -0.0461  0.3617  0.3684
 5002TIP3    H136565   1.693   2.657   0.937 -0.8627  0.0151  0.2028
 5002TIP3    H236566   1.749   2.789   0.890 -0.0425  0.1984  1.6637
 5003TIP3   OH236567   0.820   3.099   0.321 -0.6660 -0.1330 -0.2883
 5003TIP3    H136568   0.865   3.115   0.238  1.6768 -1.7548  0.5496
 5003TIP3    H236569   0.814   3.185   0.363 -1.0516  0.5591 -1.7071
 5004TIP3   OH236570   1.636   6.434   1.658  0.4000 -0.0771  0.0951
 5004TIP3    H136571   1.605   6.351   1.622  1.1893 -1.2025  1.8352
 5004TIP3    H236572   1.665   6.484   1.583 -2.1310 -0.4429 -1.2409
 5005TIP3   OH236573   4.013   3.613   8.231  0.1937  0.6539  0.2497
 5005TIP3    H136574   3.958   3.632   8.156  1.1449  0.9250 -0.3930
 5005TIP3    H236575   4.013   3.693   8.283 -0.8106  0.3295  0.7930
 5006TIP3   OH236576   3.344   0.235   7.745  0.2482  0.0486 -0.1561
 5006TIP3    H136577   3.384   0.252   7.660  1.3984  0.4779  0.4544
 5006TIP3    H236578   3.309   0.320   7.772  2.1052  0.5096  0.9102
 5007TIP3   OH236579   4.944   5.164   0.995 -0.2317  0.2314 -0.1847
 5007TIP3    H136580   5.031   5.203   0.998  0.1051 -0.4666 -0.6136
 5007TIP3    H236581   4.959   5.072   0.972 -1.0335 -0.0653  0.4241
 5008TIP3   OH236582   5.826   3.205   7.133 -0.8317 -0.3432 -0.0638
 5008TIP3    H136583   5.879   3.180   7.057 -1.6555 -0.6831 -0.5387
 5008TIP3    H236584   5.832   3.301   7.135 -2.1418 -0.1927 -1.5784
 5009TIP3   OH236585   3.062   4.353   2.510 -0.6327 -0.3625 -0.1896
 5009TIP3    H136586   3.019   4.308   2.583 -0.0411 -0.5193  0.0734
 5009TIP3    H236587   3.154   4.329   2.519 -0.3796  0.5264 -0.3285
 5010TIP3   OH236588   0.786   1.886   0.113 -0.8448  0.2692  0.4141
 5010TIP3    H136589   0.833   1.970   0.114  1.7720 -1.0601 -1.1138
 5010TIP3    H236590   0.804   1.848   0.199  0.7880 -0.1324 -0.0801
 5011TIP3   OH236591   4.129   6.745   8.130  0.5412  0.0245 -0.8392
 5011TIP3    H136592   4.205   6.802   8.138  0.8855 -0.4635 -0.5864
 5011TIP3    H236593   4.055   6.800   8.156  0.6680  0.8046 -2.0882
 5012TIP3   OH236594   1.682   0.760   1.250 -0.2835  0.1009  0.2632
 5012TIP3    H136595   1.639   0.797   1.173 -0.3635 -1.3629 -0.4177
 5012TIP3    H236596   1.623   0.779   1.322 -0.8837  0.2557 -0.2626
 5013TIP3   OH236597   2.293   2.238   0.061  0.5455  0.1114  0.2628
 5013TIP3    H136598   2.239   2.268  -0.012  0.7646 -0.8663 -0.3253
 5013TIP3    H236599   2.259   2.285   0.137 -0.3976  0.3518 -0.2881
 5014TIP3   OH236600   3.474   1.060   1.985 -0.1205  0.0062  0.7995
 5014TIP3    H136601   3.434   0.979   2.019 -1.4508  0.8342  1.2771
 5014TIP3    H236602   3.533   1.088   2.054 -0.3933 -0.0425  1.0576
 5015TIP3   OH236603   6.674   4.003   8.040  0.0573  0.4646  0.8446
 5015TIP3    H136604   6.734   4.019   8.112  0.3980  0.5255  0.5473
 5015TIP3    H236605   6.704   4.060   7.969 -0.4971  0.6808  0.7734
 5016TIP3   OH236606   5.007   3.278   0.856 -1.2193 -0.2187  0.0378
 5016TIP3    H136607   5.029   3.341   0.786 -1.0918 -0.9796 -0.6223
 5016TIP3    H236608   5.070   3.296   0.925 -2.0305  1.2909  0.4465
 5017TIP3   OH236609   5.685   4.965   1.990 -0.0572  0.3175 -0.0406
 5017TIP3    H136610   5.659   4.989   2.079 -0.8814  2.0805 -0.7181
 5017TIP3    H236611   5.608   4.923   1.953 -0.4345  1.4409 -0.5689
 5018TIP3   OH236612   6.347   5.426   0.092 -0.6140  0.2755  0.1628
 5018TIP3    H136613   6.350   5.455   0.000 -2.3900  1.4366  0.4214
 5018TIP3    H236614   6.434   5.444   0.126 -0.5064  1.6826 -0.7890
 5019TIP3   OH236615   5.763   5.522   8.204 -0.3989 -0.4035 -0.7918
 5019TIP3    H136616   5.790   5.573   8.282  0.8491 -1.7254 -0.3154
 5019TIP3    H236617   5.671   5.501   8.220 -0.2999 -0.2239  0.0876
 5020TIP3   OH236618   2.024   2.659   0.030 -0.2527  0.0419  0.2265
 5020TIP3    H136619   1.956   2.701  -0.022  1.1537 -0.1249 -1.9159
 5020TIP3    H236620   2.012   2.565   0.013  0.4268  0.0094 -0.1253
 5021TIP3   OH236621   5.224   5.307   1.158 -0.1644  0.6476 -0.4486
 5021TIP3    H136622   5.317   5.329   1.151  0.3865  0.0717  3.3026
 5021TIP3    H236623   5.218   5.215   1.131  0.4083  0.5601 -0.2751
 5022TIP3   OH236624   6.909   0.781   0.446 -0.0375 -0.0444  0.0626
 5022TIP3    H136625   6.968   0.741   0.381  0.7138  1.2741 -0.1046
 5022TIP3    H236626   6.821   0.764   0.412  0.3333  0.3766 -1.1925
 5023TIP3   OH236627   4.140   3.261   7.065 -0.0469  0.7482 -0.1721
 5023TIP3    H136628   4.142   3.260   7.160 -1.2500 -1.4100 -0.1166
 5023TIP3    H236629   4.155   3.170   7.039  1.2483  1.4440 -2.1048
 5024TIP3   OH236630   4.886   3.426   1.098  0.1276  0.2053 -0.2549
 5024TIP3    H136631   4.914   3.334   1.095 -0.4749  0.0261 -1.0350
 5024TIP3    H236632   4.859   3.445   1.008  1.8218  1.6718 -0.5114
 5025TIP3   OH236633   5.422   3.946   0.970  0.1071  0.6295 -0.2126
 5025TIP3    H136634   5.328   3.947   0.989  0.1959 -0.3370  0.3424
 5025TIP3    H236635   5.449   4.038   0.978 -0.3635  0.6343  1.8757
 5026TIP3   OH236636   1.572   0.623   7.392 -0.4190 -0.6724  0.6146
 5026TIP3    H136637   1.574   0.700   7.335 -0.3661 -0.4911  0.8648
 5026TIP3    H236638   1.554   0.550   7.332 -0.5002 -0.4630  0.3825
 5027TIP3   OH236639   3.238   1.160   3.411 -0.1303 -0.5949  0.3513
 5027TIP3    H136640   3.145   1.136   3.409 -0.1101 -0.7416 -2.1351
 5027TIP3    H236641   3.280   1.097   3.353  1.0558  1.1977 -0.8344
 5028TIP3   OH236642   6.695   6.160   1.552  0.1802 -0.3008 -0.1433
 5028TIP3    H136643   6.710   6.249   1.586  1.1636 -0.5918  0.2266
 5028TIP3    H236644   6.783   6.126   1.536 -0.2153 -0.9208 -1.0686
 5029TIP3   OH236645   2.094   1.283   2.648 -0.0270  0.5887 -0.1558
 5029TIP3    H136646   2.134   1.345   2.709 -0.6361 -0.6881  1.6281
 5029TIP3    H236647   2.134   1.199   2.671 -0.7754 -0.0368 -1.0802
 5030TIP3   OH236648   0.510   5.269   0.123 -0.0830  0.3036 -0.0871
 5030TIP3    H136649   0.603   5.254   0.109 -0.1319  0.1697 -0.2807
 5030TIP3    H236650   0.485   5.205   0.189 -0.6606 -1.7169 -2.1561
 5031TIP3   OH236651   0.664   4.000   8.130  0.0162  0.6091  0.1852
 5031TIP3    H136652   0.754   4.031   8.124  0.7588 -1.6447 -2.1123
 5031TIP3    H236653   0.665   3.934   8.200  0.8020 -1.0762 -1.3285
 5032TIP3   OH236654   0.037   4.255   1.045  0.4683 -0.7246  0.0943
 5032TIP3    H136655  -0.019   4.329   1.022 -0.2702 -1.2882  0.0407
 5032TIP3    H236656   0.011   4.231   1.133  0.3909 -1.2083 -0.0580
 5033TIP3   OH236657   7.006   4.151   2.801 -0.1180 -0.3807  0.9519
 5033TIP3    H136658   6.911   4.158   2.797 -0.2339 -2.1105 -0.8978
 5033TIP3    H236659   7.026   4.149   2.895 -1.6194  2.4135  1.4352
 5034TIP3   OH236660   1.931   4.291   2.206  0.0116 -0.4156  0.0932
 5034TIP3    H136661   1.843   4.323   2.222  0.4730  1.7638 -1.2144
 5034TIP3    H236662   1.935   4.279   2.111  0.1191 -3.9237  0.4147
 5035TIP3   OH236663   0.434   3.660   2.147  0.8635 -0.3916  0.1797
 5035TIP3    H136664   0.362   3.600   2.168  1.2482 -1.0409 -0.3265
 5035TIP3    H236665   0.445   3.714   2.225 -0.6123  0.1727  0.0298
 5036TIP3   OH236666   4.185   3.378   2.967  0.5419 -0.1734  0.0858
 5036TIP3    H136667   4.135   3.376   3.049  1.7755 -1.1611  0.8587
 5036TIP3    H236668   4.203   3.471   2.951  2.6702 -0.0816  2.4844
 5037TIP3   OH236669   1.662   6.177   0.906  0.6909 -0.6685 -0.4098
 5037TIP3    H136670   1.578   6.198   0.866  0.7441 -1.1269 -0.7785
 5037TIP3    H236671   1.697   6.106   0.852  0.7407 -1.3513  0.4923
 5038TIP3   OH236672   5.789   6.004   0.119  0.0230  0.8153  0.3885
 5038TIP3    H136673   5.712   6.035   0.167 -0.1021 -0.3850  1.0186
 5038TIP3    H236674   5.786   6.050   0.035 -2.2039 -0.2604 -0.1919
 5039TIP3   OH236675   5.714   7.023   2.145  0.0111 -0.3319 -0.1880
 5039TIP3    H136676   5.752   7.061   2.224 -1.0939 -0.6099  0.4964
 5039TIP3    H236677   5.763   6.942   2.131 -0.0291 -0.4634  0.4227
 5040TIP3   OH236678   2.734   5.466   2.074  0.2457 -0.0949 -0.0063
 5040TIP3    H136679   2.676   5.416   2.131  0.4700  1.6174  1.8354
 5040TIP3    H236680   2.685   5.545   2.052  0.9760  0.2555 -0.4164
 5041TIP3   OH236681   5.171   2.272   6.741  0.0038  0.4612 -0.7882
 5041TIP3    H136682   5.149   2.353   6.694  0.3914 -0.2512 -2.2833
 5041TIP3    H236683   5.217   2.219   6.675  1.6732 -0.1128  0.7685
 5042TIP3   OH236684   1.939   2.503   2.924  0.4880  0.1384  0.6972
 5042TIP3    H136685   1.860   2.451   2.909  0.8347 -0.0436 -0.6786
 5042TIP3    H236686   1.920   2.588   2.885  1.1961 -0.1247 -0.2548
 5043TIP3   OH236687   2.454   4.458   1.017 -0.5850 -0.5221  0.6629
 5043TIP3    H136688   2.479   4.543   0.980  0.2775 -1.2729 -0.5896
 5043TIP3    H236689   2.363   4.446   0.990 -0.0195 -0.9931 -1.2202
 5044TIP3   OH236690   1.221   6.548   8.107 -0.4322  0.1524  0.0899
 5044TIP3    H136691   1.251   6.639   8.097 -0.6298  0.2961  0.7365
 5044TIP3    H236692   1.252   6.522   8.194 -1.2738 -0.0487  0.3415
 5045TIP3   OH236693   4.542   3.369   7.439  0.0454 -0.0160 -0.3377
 5045TIP3    H136694   4.501   3.456   7.438 -3.2539 -1.4090 -0.3191
 5045TIP3    H236695   4.520   3.332   7.353  0.1293 -1.3369  0.2005
 5046TIP3   OH236696   0.235   1.576   1.702 -0.2515  0.3633 -0.1452
 5046TIP3    H136697   0.317   1.528   1.702  0.0989  0.9031  1.2663
 5046TIP3    H236698   0.250   1.649   1.642 -0.1073 -0.1907 -0.7853
 5047TIP3   OH236699   1.951   6.346   2.369 -0.0714  0.0180 -0.0851
 5047TIP3    H136700   1.954   6.277   2.303 -1.2794 -0.7907  0.6472
 5047TIP3    H236701   2.020   6.323   2.431 -0.6302 -0.7321  0.2954
 5048TIP3   OH236702   4.772   4.323   7.646 -0.1249 -0.2085 -0.1847
 5048TIP3    H136703   4.817   4.262   7.705 -0.6518  0.1405  0.5831
 5048TIP3    H236704   4.792   4.409   7.681  0.7472  0.1083 -1.3559
 5049TIP3   OH236705   6.996   1.501   7.798 -0.2824 -0.4546 -0.0226
 5049TIP3    H136706   7.069   1.523   7.740 -0.5184  1.4791  0.3407
 5049TIP3    H236707   6.919   1.502   7.741 -0.4702  1.1256  0.2041
 5050TIP3   OH236708   0.645   5.856   2.207  0.0101 -0.1240 -0.3526
 5050TIP3    H136709   0.606   5.842   2.121 -2.1504  1.0214  0.3524
 5050TIP3    H236710   0.604   5.937   2.238  1.3016 -0.1079  1.4511
 5051TIP3   OH236711   2.841   2.175   2.039  0.1863 -0.2356  0.1220
 5051TIP3    H136712   2.828   2.081   2.026 -1.6886  0.2429 -2.2706
 5051TIP3    H236713   2.766   2.202   2.093  0.8441 -0.1297  0.9974
 5052TIP3   OH236714   3.460   7.002   1.586 -0.1339 -0.4975 -0.2457
 5052TIP3    H136715   3.525   6.972   1.523 -0.9288 -0.2754 -1.1877
 5052TIP3    H236716   3.511   7.051   1.651  0.4949  0.9208 -1.7437
 5053TIP3   OH236717   2.435   1.631   1.581 -0.6910 -0.2425 -0.0440
 5053TIP3    H136718   2.454   1.538   1.568  0.9167  0.0298  0.0351
 5053TIP3    H236719   2.498   1.676   1.523 -0.0901  0.8097  1.3495
 5054TIP3   OH236720   2.166   1.673   8.063 -0.4987  0.1397 -0.3476
 5054TIP3    H136721   2.245   1.727   8.063  0.6400 -1.4689 -0.5739
 5054TIP3    H236722   2.103   1.724   8.114  1.4571  0.3868  2.0051
 5055TIP3   OH236723   5.007   1.192   2.806  0.3591  0.2038  0.3356
 5055TIP3    H136724   4.960   1.162   2.884  1.2480 -0.1825  0.7322
 5055TIP3    H236725   5.065   1.120   2.783 -1.2993 -0.5318 -1.8978
 5056TIP3   OH236726   3.303   5.659   3.274 -0.4310 -0.3600  0.3417
 5056TIP3    H136727   3.351   5.576   3.280 -0.0323 -0.2443 -1.0853
 5056TIP3    H236728   3.212   5.635   3.294 -0.2182 -1.0334  0.5338
 5057TIP3   OH236729   0.813   1.172   2.346 -0.0699  0.0012 -0.7019
 5057TIP3    H136730   0.830   1.234   2.418 -1.7751  3.3789 -2.8985
 5057TIP3    H236731   0.800   1.088   2.389  1.4317  1.3010  2.6635
 5058TIP3   OH236732   0.429   3.335   0.753 -0.3568 -0.8125 -0.8664
 5058TIP3    H136733   0.471   3.252   0.733  0.2223 -1.0688  1.1685
 5058TIP3    H236734   0.352   3.338   0.696 -0.5648 -2.8857 -0.7547
 5059TIP3   OH236735   2.188   2.115   2.950  0.1525 -0.1948 -0.7713
 5059TIP3    H136736   2.168   2.207   2.969  1.3864 -0.3592  1.6620
 5059TIP3    H236737   2.278   2.116   2.919 -0.0368 -0.5585 -1.3669
 5060TIP3   OH236738   5.132   3.164   1.494  0.5408  0.1829  0.1539
 5060TIP3    H136739   5.208   3.186   1.547  0.4972 -0.0626  0.3184
 5060TIP3    H236740   5.167   3.146   1.407  0.3726  3.1140 -0.6180
 5061TIP3   OH236741   5.395   1.709   1.699  0.1093 -0.1095 -0.0748
 5061TIP3    H136742   5.463   1.701   1.766 -0.6005 -1.8013  0.4917
 5061TIP3    H236743   5.318   1.670   1.738 -0.7565  0.2564 -1.3386
 5062TIP3   OH236744   3.464   2.766   1.626 -0.0396  0.2093 -0.3801
 5062TIP3    H136745   3.457   2.781   1.532  1.3664  0.4349 -0.4688
 5062TIP3    H236746   3.499   2.847   1.661 -1.2547  0.3946  0.4681
 5063TIP3   OH236747   5.148   2.180   7.605  0.6790 -0.2075  0.0472
 5063TIP3    H136748   5.177   2.267   7.629 -1.3470  0.8965 -1.2212
 5063TIP3    H236749   5.084   2.157   7.672  1.2422 -0.7577  0.4053
 5064TIP3   OH236750   0.168   6.541   0.290 -0.2139 -0.0600  0.0634
 5064TIP3    H136751   0.161   6.472   0.356  0.3819  0.8970  1.1756
 5064TIP3    H236752   0.108   6.609   0.321  1.4970  1.2344  0.7526
 5065TIP3   OH236753   1.912   6.435   0.356  0.3365 -0.2845 -0.2951
 5065TIP3    H136754   1.902   6.530   0.358 -3.8172 -0.4821 -1.8440
 5065TIP3    H236755   1.934   6.416   0.264  1.4614 -0.8560  0.0741
 5066TIP3   OH236756   5.281   4.013   7.301 -0.2593 -0.7127 -0.0282
 5066TIP3    H136757   5.295   3.921   7.320  0.8848 -0.8811 -1.4984
 5066TIP3    H236758   5.213   4.014   7.233 -1.0755 -0.3904  0.7754
 5067TIP3   OH236759   0.378   4.243   7.620 -0.1967 -0.4822  0.1405
 5067TIP3    H136760   0.308   4.300   7.588 -0.5189 -0.6251  0.5782
 5067TIP3    H236761   0.434   4.228   7.544 -1.3697 -1.4382 -0.5747
 5068TIP3   OH236762   5.424   3.409   0.329  0.2831  0.4462  0.0393
 5068TIP3    H136763   5.377   3.449   0.402 -2.1126  0.9395 -1.6670
 5068TIP3    H236764   5.427   3.315   0.351 -4.3484 -0.1780 -1.0593
 5069TIP3   OH236765   2.939   4.815   1.682 -0.3040  0.7244  0.5271
 5069TIP3    H136766   2.880   4.766   1.739  1.3695 -0.8105  1.0290
 5069TIP3    H236767   2.934   4.905   1.714 -1.3206  0.3621  1.4411
 5070TIP3   OH236768   6.498   1.644   1.755 -0.0949 -0.5232  0.8208
 5070TIP3    H136769   6.552   1.594   1.816  1.1729  0.5579  0.6508
 5070TIP3    H236770   6.449   1.705   1.810  0.6956  0.1323  0.8158
 5071TIP3   OH236771   4.356   1.211   0.799 -0.0544 -0.2729  0.7371
 5071TIP3    H136772   4.286   1.232   0.737  2.2574  0.1242 -1.9083
 5071TIP3    H236773   4.397   1.296   0.817  1.1400 -0.7802  0.4555
 5072TIP3   OH236774   5.308   4.954   8.253 -0.5588 -0.0096 -0.1824
 5072TIP3    H136775   5.374   4.885   8.248 -0.0447  0.4598  0.0322
 5072TIP3    H236776   5.249   4.936   8.180 -1.0041 -1.2515  0.4605
 5073TIP3   OH236777   1.283   0.161   8.059  0.1644 -0.4433  0.2728
 5073TIP3    H136778   1.320   0.116   8.134  1.5261  1.3648  0.7446
 5073TIP3    H236779   1.197   0.190   8.088  0.0081 -1.1573  0.5484
 5074TIP3   OH236780   3.838   1.826   3.214  0.2393  0.6007 -0.3768
 5074TIP3    H136781   3.817   1.782   3.132 -0.7663  1.7757 -0.7886
 5074TIP3    H236782   3.815   1.763   3.282 -0.3203  0.1527 -0.9696
 5075TIP3   OH236783   4.587   2.333   1.212 -0.1654 -0.5554  0.6664
 5075TIP3    H136784   4.598   2.403   1.277 -0.2438  1.0304 -0.9650
 5075TIP3    H236785   4.521   2.367   1.151  0.6321 -1.5636 -0.8039
 5076TIP3   OH236786   6.133   6.010   8.137 -0.4352  0.1378 -0.3892
 5076TIP3    H136787   6.066   5.942   8.144 -1.1791  0.6742 -1.8236
 5076TIP3    H236788   6.209   5.965   8.100 -0.2617 -0.3085  0.4952
 5077TIP3   OH236789   5.227   1.956   7.843 -0.4074 -0.4523 -0.2409
 5077TIP3    H136790   5.249   2.049   7.856 -0.4811 -0.6257  1.2911
 5077TIP3    H236791   5.308   1.910   7.861 -0.7129 -0.7705  0.3301
 5078TIP3   OH236792   1.957   1.531   7.847 -0.0671 -0.0549  0.3057
 5078TIP3    H136793   1.916   1.545   7.932  0.0761 -0.1853  0.3972
 5078TIP3    H236794   1.939   1.611   7.798 -2.7835 -1.1229 -0.6321
 5079TIP3   OH236795   4.214   5.427   8.098  0.2524 -0.2459 -0.2684
 5079TIP3    H136796   4.209   5.401   8.006 -1.0583 -0.2383 -0.2102
 5079TIP3    H236797   4.278   5.498   8.099 -0.2713  0.2634 -1.2941
 5080TIP3   OH236798   3.163   1.735   1.423 -0.6248 -0.1700  0.0063
 5080TIP3    H136799   3.240   1.705   1.470 -1.7629 -3.3613  0.1034
 5080TIP3    H236800   3.188   1.732   1.331 -0.6383 -1.3289  0.0288
 5081TIP3   OH236801   5.517   3.107   2.256  0.7555 -0.6999 -0.5598
 5081TIP3    H136802   5.569   3.096   2.177  2.2318  1.2159  0.0419
 5081TIP3    H236803   5.579   3.141   2.321 -0.6744 -0.9946  1.0452
 5082TIP3   OH236804   4.776   5.377   7.916  0.0337 -0.4854  0.4450
 5082TIP3    H136805   4.691   5.372   7.959 -0.2922 -3.0130 -0.3533
 5082TIP3    H236806   4.758   5.366   7.823  1.1880 -0.4306  0.1901
 5083TIP3   OH236807   6.937   0.430   1.930  0.3800  0.3516  0.6262
 5083TIP3    H136808   6.900   0.512   1.963  0.7900  1.0720 -0.6481
 5083TIP3    H236809   6.911   0.427   1.838  0.1406 -1.0967  0.7165
 5084TIP3   OH236810   4.387   4.912   0.064 -0.3228 -0.2809  0.1749
 5084TIP3    H136811   4.481   4.928   0.075 -0.5694  0.6375  0.9736
 5084TIP3    H236812   4.363   4.858   0.139 -0.1836 -1.6750 -0.7385
 5085TIP3   OH236813   3.874   1.969   1.452  0.3696 -0.0691  0.3923
 5085TIP3    H136814   3.873   1.994   1.545 -0.4214  1.9655 -0.1213
 5085TIP3    H236815   3.841   2.046   1.406 -1.5502 -1.8387 -1.3905
 5086TIP3   OH236816   5.243   2.361   2.368  0.0430 -0.5918  0.2415
 5086TIP3    H136817   5.228   2.442   2.416  1.2226 -0.3464  0.2181
 5086TIP3    H236818   5.285   2.303   2.431  0.9857 -0.4981 -0.2839
 5087TIP3   OH236819   0.534   5.828   1.955 -0.0552 -0.0656 -0.0530
 5087TIP3    H136820   0.545   5.784   1.871  2.2443  2.0807 -1.0341
 5087TIP3    H236821   0.494   5.912   1.933 -1.0194 -0.1539  1.2562
 5088TIP3   OH236822   0.665   2.678   0.717  0.4595  0.4439 -0.3488
 5088TIP3    H136823   0.590   2.725   0.681  0.0982 -0.1777 -0.4306
 5088TIP3    H236824   0.626   2.608   0.770  0.9837  0.4384  0.0417
 5089TIP3   OH236825   3.838   6.757   1.681  0.0335  0.3490 -0.7814
 5089TIP3    H136826   3.751   6.716   1.689 -0.3143  1.1664 -0.2794
 5089TIP3    H236827   3.857   6.752   1.587 -0.9135  0.8659 -1.0139
 5090TIP3   OH236828   1.045   0.199   1.126 -0.7629  0.5774 -0.7813
 5090TIP3    H136829   1.063   0.179   1.034 -2.6349  0.8237 -1.2398
 5090TIP3    H236830   1.034   0.294   1.129 -1.1582  0.5263 -0.4020
 5091TIP3   OH236831   2.672   1.231   0.069  0.2738 -0.1532  0.3864
 5091TIP3    H136832   2.591   1.222   0.019  0.7187  1.3824 -0.6937
 5091TIP3    H236833   2.736   1.182   0.019  0.2568 -0.4094  0.6164
 5092TIP3   OH236834   4.842   4.039   2.806 -0.0582 -0.7174 -0.1798
 5092TIP3    H136835   4.926   4.013   2.845  0.4089 -1.3728 -1.5720
 5092TIP3    H236836   4.818   3.966   2.749 -1.1908 -0.1891 -0.4125
 5093TIP3   OH236837   4.995   4.829   2.916  0.3055 -0.2039  0.1509
 5093TIP3    H136838   5.036   4.743   2.905 -0.0967 -0.2423 -1.2145
 5093TIP3    H236839   5.063   4.891   2.890 -0.3869 -0.2655 -2.0577
 5094TIP3   OH236840   6.969   4.673   0.480 -0.0597  0.3420 -0.0366
 5094TIP3    H136841   6.938   4.616   0.551 -1.4147  1.5889  0.4525
 5094TIP3    H236842   7.047   4.715   0.516 -1.0618  1.3997  1.0010
 5095TIP3   OH236843   1.004   2.319   3.042 -0.0061  0.4779 -0.1978
 5095TIP3    H136844   1.012   2.387   3.108  1.9184 -0.1906  0.3200
 5095TIP3    H236845   0.957   2.248   3.086  2.2242 -0.4084  0.9108
 5096TIP3   OH236846   4.577   6.640   2.051  0.0264 -0.0045 -0.0452
 5096TIP3    H136847   4.549   6.658   1.962 -1.9082 -1.8090  0.1193
 5096TIP3    H236848   4.534   6.708   2.104 -1.0696 -0.5383 -0.2210
 5097TIP3   OH236849   2.976   2.241   1.067 -0.0253 -0.5441 -0.4596
 5097TIP3    H136850   2.928   2.158   1.061  0.8413 -0.9841 -1.8491
 5097TIP3    H236851   3.054   2.220   1.119 -0.3307 -0.3187  0.1013
 5098TIP3   OH236852   4.187   6.232   2.709  0.1330 -0.0104  0.0334
 5098TIP3    H136853   4.256   6.276   2.660 -0.1855 -1.3105 -1.6830
 5098TIP3    H236854   4.218   6.230   2.799  1.2321  1.5255 -0.2748
 5099TIP3   OH236855   5.299   3.916   2.021  0.3326 -0.1786  0.1210
 5099TIP3    H136856   5.337   3.968   1.951 -0.6571  0.0768 -0.2508
 5099TIP3    H236857   5.356   3.839   2.028  0.6839 -0.0021 -0.6694
 5100TIP3   OH236858   0.681   1.728   7.712 -0.0073  0.8503  0.4178
 5100TIP3    H136859   0.598   1.688   7.687  0.6040 -1.3463  1.5795
 5100TIP3    H236860   0.721   1.757   7.629 -1.7168  1.6069 -0.1794
 5101TIP3   OH236861   0.801   5.144   1.504  0.1899 -0.6765  0.1612
 5101TIP3    H136862   0.705   5.144   1.497  0.1955 -0.9609  0.0556
 5101TIP3    H236863   0.823   5.233   1.530  0.0721  0.0431 -2.0367
 5102TIP3   OH236864   1.345   4.350   7.084  0.3110 -0.8323 -0.0378
 5102TIP3    H136865   1.312   4.392   7.164  0.1611  0.0487 -0.5590
 5102TIP3    H236866   1.410   4.412   7.050  0.7968 -1.4733 -0.2913
 5103TIP3   OH236867   5.990   3.479   0.068 -0.5486 -0.4330 -0.1818
 5103TIP3    H136868   5.967   3.472  -0.024 -0.2463 -2.5562 -0.1481
 5103TIP3    H236869   6.025   3.393   0.091 -0.0445  0.2300  1.7660
 5104TIP3   OH236870   2.249   4.012   2.634 -0.7501 -0.1981 -0.1525
 5104TIP3    H136871   2.317   4.045   2.575 -0.3979 -1.6239 -0.5899
 5104TIP3    H236872   2.297   3.991   2.715 -0.7650 -0.6600 -0.2609
 5105TIP3   OH236873   5.171   3.638   3.187 -0.5697 -0.0133  0.5086
 5105TIP3    H136874   5.095   3.602   3.142 -1.1187  0.0501  1.3555
 5105TIP3    H236875   5.135   3.702   3.248  0.0214 -0.8724  1.8263
 5106TIP3   OH236876   0.753   1.468   1.403 -0.2975 -0.3235  0.0053
 5106TIP3    H136877   0.836   1.510   1.380 -0.9582  1.4223  0.6657
 5106TIP3    H236878   0.745   1.481   1.498 -1.3935 -0.3480 -0.0710
 5107TIP3   OH236879   1.351   0.687   2.319 -0.0690 -0.3072  0.0805
 5107TIP3    H136880   1.320   0.736   2.243  0.8479 -0.8066 -0.6181
 5107TIP3    H236881   1.366   0.599   2.287 -0.9256 -0.8697  1.1491
 5108TIP3   OH236882   4.065   3.372   0.066  0.2535 -0.3309  0.2707
 5108TIP3    H136883   3.981   3.332   0.085 -0.8560 -0.5511 -3.9943
 5108TIP3    H236884   4.043   3.458   0.030  1.6550 -0.8656 -2.0694
 5109TIP3   OH236885   3.839   4.562   7.884 -0.1510 -0.2646 -0.0488
 5109TIP3    H136886   3.894   4.583   7.809 -1.5522  1.4416 -0.6649
 5109TIP3    H236887   3.818   4.647   7.923 -2.0360 -0.8627  0.3657
 5110TIP3   OH236888   0.918   0.371   2.014  0.1752 -0.5857  0.1681
 5110TIP3    H136889   0.876   0.303   1.960  1.3987 -0.2360 -1.2810
 5110TIP3    H236890   0.974   0.419   1.953  0.1609  1.0554  1.3957
 5111TIP3   OH236891   0.133   6.057   0.701  0.0837 -0.1277 -0.0356
 5111TIP3    H136892   0.079   5.980   0.719  0.5036 -0.5220 -0.4264
 5111TIP3    H236893   0.201   6.025   0.641  0.0386  0.6316 -0.5079
 5112TIP3   OH236894   1.760   6.958   0.653 -0.5555 -0.1266 -0.2488
 5112TIP3    H136895   1.794   7.039   0.692 -1.0456  0.2093 -0.5072
 5112TIP3    H236896   1.824   6.891   0.678  0.3673  0.5077 -0.8222
 5113TIP3   OH236897   1.257   3.989   2.690 -0.2164  0.4978  0.3313
 5113TIP3    H136898   1.317   3.953   2.755 -0.8962  1.1151  1.3172
 5113TIP3    H236899   1.200   3.915   2.666 -0.6253  0.5174  1.2119
 5114TIP3   OH236900   2.914   6.393   1.093  0.0430  0.0939 -0.5627
 5114TIP3    H136901   2.823   6.369   1.111 -0.1935  0.9792 -0.5376
 5114TIP3    H236902   2.954   6.402   1.180 -0.2509  1.1890 -0.5284
 5115TIP3   OH236903   6.230   0.504   2.122 -0.1254  0.4897  0.2956
 5115TIP3    H136904   6.243   0.454   2.203 -0.1471  0.1860  0.1143
 5115TIP3    H236905   6.314   0.546   2.105  0.0411  0.1154  0.1834
 5116TIP3   OH236906   1.983   2.643   0.302 -0.5623  0.2144 -0.7601
 5116TIP3    H136907   2.050   2.692   0.349 -0.9935  0.2521 -0.1737
 5116TIP3    H236908   2.020   2.630   0.214  0.4052 -0.1746 -0.3095
 5117TIP3   OH236909   5.816   6.017   7.492 -0.7037  0.1724 -0.5365
 5117TIP3    H136910   5.728   6.054   7.496 -0.9881 -0.4597 -0.8835
 5117TIP3    H236911   5.813   5.953   7.421  0.7187  1.9009 -2.2657
 5118TIP3   OH236912   4.617   0.214   3.046 -0.4539 -0.4805  0.1053
 5118TIP3    H136913   4.531   0.194   3.085 -0.6780 -0.3724 -0.3240
 5118TIP3    H236914   4.632   0.141   2.985 -1.0053  0.3316 -1.0382
 5119TIP3   OH236915   4.289   5.048   1.266 -0.0049  0.0761  0.0000
 5119TIP3    H136916   4.317   5.098   1.343  0.9685  0.6610 -0.7133
 5119TIP3    H236917   4.249   4.969   1.303  0.9820  0.0515  1.1078
 5120TIP3   OH236918   1.262   4.749   1.425  0.1472  0.0648 -0.4009
 5120TIP3    H136919   1.176   4.762   1.464  0.0411 -0.3817 -0.4832
 5120TIP3    H236920   1.245   4.751   1.330  0.4902  1.7730 -0.4610
 5121TIP3   OH236921   0.715   4.934   2.044  0.2810  0.3473  0.1555
 5121TIP3    H136922   0.793   4.879   2.049 -0.3791 -0.6647 -0.2124
 5121TIP3    H236923   0.693   4.936   1.950  0.7810  1.9759  0.0428
 5122TIP3   OH236924   6.326   1.186   2.525 -0.6432  0.1655 -0.6842
 5122TIP3    H136925   6.313   1.195   2.430  0.2824 -3.3558 -1.3263
 5122TIP3    H236926   6.419   1.167   2.534 -0.5335  1.3926  1.0788
 5123TIP3   OH236927   0.524   5.089   2.693 -0.4992 -0.4662 -0.1091
 5123TIP3    H136928   0.516   5.057   2.783  3.2851 -0.2371  0.4543
 5123TIP3    H236929   0.615   5.116   2.685 -0.6211 -0.6935 -4.1221
 5124TIP3   OH236930   6.292   1.852   1.607  0.4024  0.2527  0.6430
 5124TIP3    H136931   6.265   1.823   1.694 -1.4264  1.0117  0.3669
 5124TIP3    H236932   6.384   1.827   1.601  0.4092 -0.3275  2.5669
 5125TIP3   OH236933   1.099   1.282   3.129 -0.4111 -0.2236  0.1565
 5125TIP3    H136934   1.027   1.280   3.192  0.3347  0.9121  1.0747
 5125TIP3    H236935   1.178   1.291   3.182  0.2741  0.3987 -0.9236
 5126TIP3   OH236936   5.309   0.228   1.672 -0.3256 -0.5014 -0.1939
 5126TIP3    H136937   5.283   0.154   1.617  0.4989 -0.7685 -0.2361
 5126TIP3    H236938   5.289   0.306   1.619  1.7543 -0.7803 -1.4992
 5127TIP3   OH236939   1.547   0.049   1.532  0.2930 -0.4557  0.0207
 5127TIP3    H136940   1.463   0.038   1.576 -0.1784  0.1326 -0.6976
 5127TIP3    H236941   1.567   0.142   1.542  1.9364 -0.9562  2.0439
 5128TIP3   OH236942   1.665   0.719   0.748  0.0510 -0.2432  0.4054
 5128TIP3    H136943   1.704   0.632   0.753 -1.7934 -1.3265 -1.9059
 5128TIP3    H236944   1.685   0.748   0.659 -0.3936  1.2020  0.7614
 5129TIP3   OH236945   6.985   3.139   2.729 -0.2139 -0.6051 -0.5122
 5129TIP3    H136946   6.985   3.162   2.636  0.7374 -1.9299 -0.8810
 5129TIP3    H236947   6.908   3.183   2.765 -1.3983 -1.1642 -2.2100
 5130TIP3   OH236948   1.522   4.081   0.736  0.1054 -0.0901 -0.8549
 5130TIP3    H136949   1.462   4.069   0.663 -0.7234  1.2635 -0.4284
 5130TIP3    H236950   1.466   4.081   0.814  1.1083 -2.9742 -0.0202
 5131TIP3   OH236951   4.834   1.529   2.387  0.2109  0.4056 -0.2676
 5131TIP3    H136952   4.912   1.486   2.354  1.4341  1.7557  0.7527
 5131TIP3    H236953   4.763   1.468   2.368  1.7145 -1.6108  0.2459
 5132TIP3   OH236954   0.325   0.591   1.736 -0.4114 -0.2008 -0.6303
 5132TIP3    H136955   0.316   0.663   1.673 -2.1118  0.7619  0.6061
 5132TIP3    H236956   0.275   0.519   1.697 -2.0967  0.6322 -0.1320
 5133TIP3   OH236957   6.484   4.488   0.102  0.5514 -0.1821 -0.0276
 5133TIP3    H136958   6.540   4.411   0.113  0.5891 -0.1168  0.2698
 5133TIP3    H236959   6.539   4.550   0.054  0.3873 -0.4793 -0.5933
 5134TIP3   OH236960   5.435   2.911   0.535 -0.0460  0.0803  0.2759
 5134TIP3    H136961   5.518   2.866   0.548 -0.5166 -0.8864  0.0631
 5134TIP3    H236962   5.369   2.844   0.550 -0.7599  0.5462 -0.6543
 5135TIP3   OH236963   4.553   3.003   1.493  0.0069  0.1361 -0.0807
 5135TIP3    H136964   4.459   3.014   1.510  0.3335  0.3035  1.7838
 5135TIP3    H236965   4.557   2.938   1.422 -1.5038 -1.3191  1.0770
 5136TIP3   OH236966   2.415   6.193   0.699  0.5695 -0.0588 -0.2387
 5136TIP3    H136967   2.391   6.276   0.739  0.3167 -0.4865  0.5196
 5136TIP3    H236968   2.337   6.167   0.650  0.4722 -0.0970 -0.0625
 5137TIP3   OH236969   6.068   5.773   0.884  0.0091  0.6420 -0.3906
 5137TIP3    H136970   6.140   5.776   0.947 -0.5751 -0.8346  0.3867
 5137TIP3    H236971   6.109   5.791   0.799  1.5316 -1.2850 -0.1387
 5138TIP3   OH236972   4.075   1.039   2.943 -0.0654 -0.0836 -0.2346
 5138TIP3    H136973   4.071   1.134   2.946 -2.0794 -0.1492  0.1992
 5138TIP3    H236974   4.006   1.013   2.883  0.6904 -1.2772 -0.6325
 5139TIP3   OH236975   1.685   6.619   7.941 -0.4006  0.1383  0.6977
 5139TIP3    H136976   1.602   6.627   7.894  0.1442  0.1921 -0.2728
 5139TIP3    H236977   1.726   6.541   7.904  0.6587  0.9645  0.0859
 5140TIP3   OH236978   5.823   0.861   7.075 -0.4244  0.4930 -0.1598
 5140TIP3    H136979   5.731   0.851   7.102 -0.5642  0.3477 -0.6732
 5140TIP3    H236980   5.866   0.781   7.107  0.0876  1.6593  2.2842
 5141TIP3   OH236981   1.861   3.145   0.465 -0.2627 -0.1742 -0.3972
 5141TIP3    H136982   1.917   3.160   0.541  0.2300 -1.3126 -0.5201
 5141TIP3    H236983   1.834   3.054   0.471 -0.4843 -0.1942 -1.4116
 5142TIP3   OH236984   0.419   2.764   1.398  0.0847 -0.5898 -0.6151
 5142TIP3    H136985   0.391   2.835   1.456  0.8426 -0.8129  0.0323
 5142TIP3    H236986   0.374   2.686   1.433  1.0745 -0.8531  0.1139
 5143TIP3   OH236987   4.171   2.428   3.045 -0.3957 -0.3356  0.2068
 5143TIP3    H136988   4.078   2.405   3.049 -0.6713  0.6960  0.0852
 5143TIP3    H236989   4.205   2.406   3.132 -0.8554 -0.3020  0.3957
 5144TIP3   OH236990   1.330   3.986   1.782 -0.5819 -0.1804 -0.1709
 5144TIP3    H136991   1.415   3.947   1.762 -0.8872 -2.2369  2.1032
 5144TIP3    H236992   1.270   3.949   1.717 -0.0056  0.2994 -0.9938
 5145TIP3   OH236993   4.343   5.982   0.890 -0.4769 -0.6822  0.1532
 5145TIP3    H136994   4.282   6.007   0.820 -0.6400 -0.7031  0.2880
 5145TIP3    H236995   4.353   6.062   0.942 -0.9602 -0.8782  0.5552
 5146TIP3   OH236996   5.366   2.732   7.801  0.0679 -0.1979  0.0007
 5146TIP3    H136997   5.278   2.743   7.838  0.1023 -0.5894  0.2070
 5146TIP3    H236998   5.424   2.740   7.877  0.2625  0.7187 -0.2264
 5147TIP3   OH236999   1.803   6.234   7.431 -0.1311  0.0584  0.3067
 5147TIP3    H137000   1.896   6.215   7.421 -0.4338 -0.1934 -2.7638
 5147TIP3    H237001   1.800   6.328   7.452  0.7929 -0.0535  1.0355
 5148TIP3   OH237002   0.843   5.609   1.500  0.1766 -0.0333  0.2902
 5148TIP3    H137003   0.923   5.603   1.448 -0.5720 -1.2020 -0.7917
 5148TIP3    H237004   0.835   5.703   1.520  0.1851  0.6150 -2.2866
 5149TIP3   OH237005   2.196   0.136   7.452  0.3398  0.3750  0.1360
 5149TIP3    H137006   2.166   0.205   7.510 -2.0018 -0.6940  0.3395
 5149TIP3    H237007   2.225   0.181   7.373 -0.6323  1.6324  0.4636
 5150TIP3   OH237008   5.563   0.958   1.691 -0.0818  0.2898  0.6064
 5150TIP3    H137009   5.544   0.866   1.670 -2.9729  0.5828  1.5993
 5150TIP3    H237010   5.504   1.008   1.634  0.6043  1.5075  0.9462
 5151TIP3   OH237011   6.951   0.127   1.042 -0.6169  0.0090 -0.0106
 5151TIP3    H137012   7.028   0.182   1.026  0.0114 -0.6729  0.6203
 5151TIP3    H237013   6.896   0.142   0.965  1.2177 -1.3128 -1.7082
 5152TIP3   OH237014   0.635   5.257   2.013 -0.1670  0.1643  0.0883
 5152TIP3    H137015   0.689   5.183   2.039 -1.7850 -0.1526  2.9813
 5152TIP3    H237016   0.680   5.334   2.048  0.1915  0.2880 -0.6314
 5153TIP3   OH237017   1.575   3.490   2.244 -0.3004 -0.0075 -0.0486
 5153TIP3    H137018   1.642   3.466   2.308  0.5254  2.3820  0.0816
 5153TIP3    H237019   1.510   3.539   2.295 -0.2297  0.9039 -0.8054
 5154TIP3   OH237020   3.692   5.095   7.216 -0.0895  0.2414 -0.1929
 5154TIP3    H137021   3.687   5.002   7.238  0.5270  0.7456  2.5232
 5154TIP3    H237022   3.616   5.111   7.161  0.6928 -2.1579 -2.1657
 5155TIP3   OH237023   4.338   1.300   7.267 -0.3956 -0.8169  0.8277
 5155TIP3    H137024   4.326   1.394   7.277  0.9611 -0.5367  0.1226
 5155TIP3    H237025   4.422   1.282   7.309  0.2810 -1.3723 -0.6825
 5156TIP3   OH237026   3.060   4.323   1.777 -0.2028 -0.0574  0.3164
 5156TIP3    H137027   3.024   4.374   1.849  1.2501  1.2107  0.1955
 5156TIP3    H237028   3.148   4.357   1.765  0.1863 -1.4014 -0.9640
 5157TIP3   OH237029   3.181   2.964   1.537 -0.4841 -0.1495  0.1453
 5157TIP3    H137030   3.227   2.907   1.599  2.3927  1.2301 -0.5483
 5157TIP3    H237031   3.126   3.020   1.591  1.2637  0.4114  1.4330
 5158TIP3   OH237032   6.381   6.539   1.504 -0.3218  0.0870  0.4850
 5158TIP3    H137033   6.407   6.453   1.471 -0.0464 -0.9833  3.2153
 5158TIP3    H237034   6.366   6.591   1.425 -0.3162 -2.3798 -1.2758
 5159TIP3   OH237035   6.929   0.688   1.677  0.1937  0.1391  0.9173
 5159TIP3    H137036   6.880   0.609   1.656  1.8377 -0.7699  0.3700
 5159TIP3    H237037   6.948   0.728   1.592  1.2603 -0.0615  1.0516
 5160TIP3   OH237038   2.798   3.762   0.167 -0.1766 -0.3878  0.7915
 5160TIP3    H137039   2.880   3.793   0.128  0.8279 -4.1507 -0.4524
 5160TIP3    H237040   2.750   3.723   0.094 -1.6725 -1.0367  2.0740
 5161TIP3   OH237041   6.390   5.833   0.498  0.0293  0.2243  0.6618
 5161TIP3    H137042   6.467   5.835   0.442  0.0418  2.0037  0.6747
 5161TIP3    H237043   6.368   5.926   0.511 -1.7637 -0.2317  1.1288
 5162TIP3   OH237044   1.512   1.353   0.095  0.0188  0.2811  0.0454
 5162TIP3    H137045   1.449   1.289   0.063  0.6658  0.5859 -1.9963
 5162TIP3    H237046   1.591   1.336   0.045  1.4883  0.1852  2.2359
 5163TIP3   OH237047   1.947   1.086   0.749  0.0546 -0.6072 -0.9958
 5163TIP3    H137048   1.994   1.162   0.715  1.3133 -1.3889 -1.0797
 5163TIP3    H237049   1.883   1.122   0.809  1.1617  0.4810 -0.4213
 5164TIP3   OH237050   5.427   4.524   1.524  0.4300 -0.0039 -0.3730
 5164TIP3    H137051   5.435   4.606   1.477  0.4107  0.2122  0.0011
 5164TIP3    H237052   5.356   4.538   1.586  1.5469  0.2790  0.8857
 5165TIP3   OH237053   5.637   4.639   7.344  0.4084 -0.4308  0.0035
 5165TIP3    H137054   5.615   4.720   7.299  1.9425  1.2437  2.0664
 5165TIP3    H237055   5.711   4.603   7.294  0.4850  0.0728 -0.2550
 5166TIP3   OH237056   3.746   0.576   2.437 -0.1508  0.6307  0.4473
 5166TIP3    H137057   3.812   0.631   2.478  1.3807 -0.9402  0.2504
 5166TIP3    H237058   3.714   0.519   2.507  0.4114 -0.1568  0.0843
 5167TIP3   OH237059   0.059   1.137   0.081 -0.0915  1.0947  0.5851
 5167TIP3    H137060   0.082   1.110   0.169  0.5718  1.2093  0.4518
 5167TIP3    H237061   0.076   1.231   0.079 -0.8232  1.2347  0.5557
 5168TIP3   OH237062   0.789   2.312   2.091  0.0894 -0.2071  0.0311
 5168TIP3    H137063   0.824   2.397   2.065 -0.2438 -0.1400 -0.2093
 5168TIP3    H237064   0.696   2.327   2.105  0.0643 -0.4891  0.1793
 5169TIP3   OH237065   4.369   1.103   7.591  0.1501  0.5133 -0.9408
 5169TIP3    H137066   4.288   1.087   7.543  0.2444  1.0524 -1.2873
 5169TIP3    H237067   4.369   1.038   7.661 -0.8531  0.8935 -0.5848
 5170TIP3   OH237068   5.172   2.748   2.041  0.4195  0.1788 -0.4060
 5170TIP3    H137069   5.233   2.741   1.968  1.1803  1.5478  0.0691
 5170TIP3    H237070   5.227   2.769   2.117 -0.4581 -0.3012  0.3857
 5171TIP3   OH237071   5.235   3.738   8.195 -0.1577  0.4650  0.3210
 5171TIP3    H137072   5.311   3.681   8.184 -0.9963 -0.7229  0.4928
 5171TIP3    H237073   5.240   3.800   8.122  0.3684 -0.3040 -0.3119
 5172TIP3   OH237074   3.611   0.689   2.753  0.5436 -0.0588 -0.1282
 5172TIP3    H137075   3.566   0.702   2.836  1.2445  0.7536  0.1331
 5172TIP3    H237076   3.543   0.704   2.687  0.0151 -0.5860  0.2823
 5173TIP3   OH237077   6.143   0.548   1.513  0.2875  0.0828  0.2480
 5173TIP3    H137078   6.137   0.589   1.427  0.3316 -0.1252  0.1446
 5173TIP3    H237079   6.084   0.473   1.508 -0.3153  0.5183  0.6593
 5174TIP3   OH237080   3.282   3.108   2.494  0.2374  0.7234  0.0054
 5174TIP3    H137081   3.192   3.138   2.477  0.4698  0.8951 -0.9461
 5174TIP3    H237082   3.270   3.020   2.530 -0.3507  1.1337  0.8639
 5175TIP3   OH237083   4.780   2.317   7.919 -0.2777  0.3075 -0.5385
 5175TIP3    H137084   4.809   2.288   7.833  0.9839  1.3685 -0.5100
 5175TIP3    H237085   4.827   2.399   7.934  0.2719 -0.3146  1.5302
 5176TIP3   OH237086   0.928   1.116   2.671  0.6663 -0.1653 -0.0493
 5176TIP3    H137087   1.011   1.131   2.717  0.5154  1.7353 -0.3239
 5176TIP3    H237088   0.915   1.196   2.619 -1.2390 -0.5144 -0.1701
 5177TIP3   OH237089   6.361   2.281   2.397  0.2625 -0.0149  0.1186
 5177TIP3    H137090   6.342   2.188   2.409  0.2865 -0.1073 -0.5608
 5177TIP3    H237091   6.285   2.316   2.351  0.4246  0.2216  0.0252
 5178TIP3   OH237092   5.012   6.668   2.741 -0.4510 -0.6928 -0.0058
 5178TIP3    H137093   4.951   6.721   2.792 -0.2571 -1.5702  1.1849
 5178TIP3    H237094   4.990   6.686   2.650 -0.0400  1.8544  0.3243
 5179TIP3   OH237095   2.332   6.005   7.027 -0.1509  0.0498 -0.2174
 5179TIP3    H137096   2.309   5.919   7.060  0.2198  0.1640  0.3519
 5179TIP3    H237097   2.404   6.034   7.083 -0.0536  0.5898 -0.6108
 5180TIP3   OH237098   6.016   6.985   1.156 -0.1483  0.2551  0.3899
 5180TIP3    H137099   6.045   6.904   1.198 -0.5798 -0.5412 -0.7845
 5180TIP3    H237100   6.096   7.034   1.139  0.6493 -1.8972 -2.8062
 5181TIP3   OH237101   0.870   2.065   0.901  0.2585 -0.0303 -0.1943
 5181TIP3    H137102   0.783   2.064   0.861 -0.3705 -1.3346  1.1174
 5181TIP3    H237103   0.871   2.144   0.955  0.0383  0.2087 -0.5384
 5182TIP3   OH237104   3.930   5.821   2.809  0.0999 -0.4652  0.1375
 5182TIP3    H137105   3.927   5.895   2.869 -1.5974  0.4692 -1.0103
 5182TIP3    H237106   3.908   5.858   2.724  2.7675 -1.6838 -1.1940
 5183TIP3   OH237107   5.671   1.751   1.534  0.0666 -0.2571 -0.2720
 5183TIP3    H137108   5.704   1.773   1.621 -0.5604 -0.9674  0.1480
 5183TIP3    H237109   5.607   1.819   1.515 -0.8390 -0.8813  0.4360
 5184TIP3   OH237110   1.336   4.051   1.243  0.7835  0.0828 -0.0543
 5184TIP3    H137111   1.271   4.034   1.312  0.7516  0.6865  0.0644
 5184TIP3    H237112   1.406   3.989   1.261  0.5737 -0.0701  0.2559
 5185TIP3   OH237113   6.439   4.991   0.039  0.0193  0.1572  0.7019
 5185TIP3    H137114   6.520   5.041   0.048  0.7443 -0.0852 -2.9621
 5185TIP3    H237115   6.386   5.042  -0.021 -1.0844 -1.3617  0.3308
 5186TIP3   OH237116   0.451   2.734   7.973 -0.3464  0.5124 -0.4421
 5186TIP3    H137117   0.426   2.673   7.904  0.4828  1.1179 -1.3053
 5186TIP3    H237118   0.506   2.683   8.032  0.5739  0.4642 -1.3051
 5187TIP3   OH237119   4.088   5.036   2.125  0.0722  0.1111 -0.3420
 5187TIP3    H137120   4.033   5.012   2.199  0.7936  0.8377  0.4493
 5187TIP3    H237121   4.026   5.073   2.061 -0.6950 -1.4843 -0.5599
 5188TIP3   OH237122   3.644   4.681   3.402  0.0264 -0.0911 -0.1906
 5188TIP3    H137123   3.703   4.636   3.463  2.0886  4.3947  1.5866
 5188TIP3    H237124   3.696   4.693   3.323 -0.4616 -0.5601 -0.5959
 5189TIP3   OH237125   6.917   3.726   7.791  0.2488  0.1192 -0.1133
 5189TIP3    H137126   6.895   3.673   7.867 -1.8427  1.2324  0.1458
 5189TIP3    H237127   6.988   3.783   7.821 -0.6600  0.6586  1.1109
 5190TIP3   OH237128   6.074   2.378   2.812  0.2022 -0.2696  0.6513
 5190TIP3    H137129   6.111   2.290   2.820  2.6912  0.6197 -0.2614
 5190TIP3    H237130   5.991   2.373   2.859  2.7627 -1.6132  5.7336
 5191TIP3   OH237131   2.889   0.538   1.922  0.3103 -0.5522 -0.3021
 5191TIP3    H137132   2.910   0.550   1.830 -1.5725  0.1180 -0.6873
 5191TIP3    H237133   2.813   0.479   1.922 -1.0380  1.0866  0.6490
 5192TIP3   OH237134   3.323   5.382   0.610 -0.1438 -0.0325  0.0415
 5192TIP3    H137135   3.242   5.428   0.631 -2.0302 -3.1314  0.1901
 5192TIP3    H237136   3.314   5.296   0.651  3.1436 -0.6184 -0.1681
 5193TIP3   OH237137   6.631   5.116   0.737  0.2297 -0.0924  0.2881
 5193TIP3    H137138   6.709   5.171   0.745 -0.9913  2.0315 -1.4229
 5193TIP3    H237139   6.630   5.088   0.646 -0.9852 -0.1477  0.3043
 5194TIP3   OH237140   1.870   4.418   2.713  0.1659 -0.0496 -0.2542
 5194TIP3    H137141   1.800   4.357   2.688  0.2911 -0.4829  0.4273
 5194TIP3    H237142   1.867   4.486   2.645 -0.6502 -0.2673 -0.4591
 5195TIP3   OH237143   3.522   6.096   0.901  0.6196  0.3646 -0.2613
 5195TIP3    H137144   3.490   6.042   0.973 -1.0861  0.5152 -0.8526
 5195TIP3    H237145   3.550   6.034   0.834 -0.1469  0.2137 -0.4429
 5196TIP3   OH237146   6.845   3.377   0.410 -0.0312 -0.0287  0.3145
 5196TIP3    H137147   6.907   3.305   0.397  0.3220  0.3002  0.1551
 5196TIP3    H237148   6.874   3.445   0.348  0.0758  0.5321  0.9650
 5197TIP3   OH237149   2.871   2.323   2.436  0.2833 -0.4042 -0.6860
 5197TIP3    H137150   2.878   2.417   2.448  0.8159 -0.6681  1.5150
 5197TIP3    H237151   2.943   2.300   2.378  0.3967  0.4779 -0.9066
 5198TIP3   OH237152   0.037   6.248   0.032  0.3160 -0.3440  0.1556
 5198TIP3    H137153  -0.032   6.314   0.032  1.4757  1.1519  4.2140
 5198TIP3    H237154   0.118   6.298   0.036  1.5176 -2.0816 -0.9117
 5199TIP3   OH237155   5.855   3.466   6.979  0.3426  0.5988  0.0632
 5199TIP3    H137156   5.927   3.528   6.993  0.4341  0.7489 -0.9814
 5199TIP3    H237157   5.781   3.504   7.025  1.2690 -0.3077  2.4719
 5200TIP3   OH237158   1.988   0.679   1.757 -0.4112 -0.1333 -0.3847
 5200TIP3    H137159   2.073   0.647   1.788 -0.6748  0.0041  0.5019
 5200TIP3    H237160   2.010   0.758   1.707  0.1026 -0.8787 -1.3860
 5201TIP3   OH237161   5.219   5.336   8.178  0.5748  0.0705  0.3414
 5201TIP3    H137162   5.137   5.345   8.226  0.7215  0.9986  0.4289
 5201TIP3    H237163   5.270   5.274   8.230  0.5027  0.6172  1.0669
 5202TIP3   OH237164   0.201   2.945   2.682  0.5158  0.2096 -0.2260
 5202TIP3    H137165   0.218   2.948   2.588 -0.8326  1.2584 -0.4720
 5202TIP3    H237166   0.130   2.882   2.691 -1.4521  2.2542 -0.3447
 5203TIP3   OH237167   0.411   1.682   2.253 -0.3981  0.1875 -0.1174
 5203TIP3    H137168   0.407   1.657   2.160  1.8600  0.8668 -0.4728
 5203TIP3    H237169   0.377   1.772   2.255 -0.7516  0.0581 -0.2285
 5204TIP3   OH237170   2.363   5.011   2.505 -0.2725 -0.0084 -0.1834
 5204TIP3    H137171   2.349   4.917   2.503  3.0340 -0.6275 -0.9970
 5204TIP3    H237172   2.432   5.024   2.570  0.5213  1.6012 -1.2771
 5205TIP3   OH237173   6.997   0.485   2.370 -1.2181  0.5624 -0.3580
 5205TIP3    H137174   6.982   0.539   2.448 -2.3052 -0.9783  0.5448
 5205TIP3    H237175   7.008   0.549   2.299  0.6080  2.0337  1.1362
 5206TIP3   OH237176   4.284   1.712   0.852  0.8069  0.3124  0.0591
 5206TIP3    H137177   4.331   1.743   0.774  1.3819 -0.7778 -0.0454
 5206TIP3    H237178   4.284   1.617   0.844 -1.3676  0.2671  0.1186
 5207TIP3   OH237179   3.075   1.741   0.972  0.1863 -0.0514 -0.2455
 5207TIP3    H137180   3.152   1.690   0.945 -1.1272 -2.0498 -0.4265
 5207TIP3    H237181   3.001   1.687   0.947 -1.2948  1.6368  0.3091
 5208TIP3   OH237182   3.346   5.480   8.004 -0.2886  0.2380 -0.2572
 5208TIP3    H137183   3.285   5.490   7.931 -2.1032 -1.6714  0.8793
 5208TIP3    H237184   3.432   5.472   7.963 -1.0650  0.7459 -2.0741
 5209TIP3   OH237185   4.303   3.000   1.661 -0.6539 -0.1737  0.2935
 5209TIP3    H137186   4.231   2.968   1.715 -0.7053 -0.9028 -0.1843
 5209TIP3    H237187   4.382   2.980   1.712 -0.8060  1.2963  1.1503
 5210TIP3   OH237188   2.642   0.091   1.851  0.6214  0.3396  0.1706
 5210TIP3    H137189   2.612   0.173   1.889  0.3634 -0.1138  0.9637
 5210TIP3    H237190   2.729   0.077   1.889 -0.4961 -1.2026  2.3782
 5211TIP3   OH237191   1.284   3.143   1.340 -0.2872  0.0157  0.2954
 5211TIP3    H137192   1.315   3.200   1.269  0.8628  0.0898  0.8204
 5211TIP3    H237193   1.211   3.191   1.379  1.5749  1.9412  1.6742
 5212TIP3   OH237194   2.095   0.309   1.988 -0.0374  0.2937 -0.3044
 5212TIP3    H137195   2.087   0.255   2.067  0.9882  1.2255  0.4486
 5212TIP3    H237196   2.119   0.246   1.919  1.9875 -0.1362  0.7273
 5213TIP3   OH237197   3.910   2.198   1.887 -0.2317 -0.0648 -0.4831
 5213TIP3    H137198   3.827   2.176   1.846 -0.8435  0.0642  0.6454
 5213TIP3    H237199   3.886   2.234   1.973  0.9234  1.1138 -0.6177
 5214TIP3   OH237200   5.669   4.322   7.807 -0.3924 -0.1005 -0.3127
 5214TIP3    H137201   5.745   4.338   7.751 -1.5780  1.8716 -1.4740
 5214TIP3    H237202   5.649   4.229   7.793  0.1847  0.0060 -2.1036
 5215TIP3   OH237203   3.081   0.483   0.028  0.4541  0.6745  0.2109
 5215TIP3    H137204   3.020   0.557   0.036 -0.3208  0.2177 -1.1179
 5215TIP3    H237205   3.156   0.520  -0.019  1.7228  1.4930  2.7223
 5216TIP3   OH237206   4.782   4.321   1.309 -0.0684  0.1018 -0.3912
 5216TIP3    H137207   4.746   4.386   1.369  0.0860  1.4901 -1.7235
 5216TIP3    H237208   4.876   4.330   1.316 -0.0277  1.5254 -2.0444
 5217TIP3   OH237209   1.503   7.041   0.776 -0.0219  0.2319  0.4759
 5217TIP3    H137210   1.526   7.101   0.847 -2.3462 -1.0028  2.3954
 5217TIP3    H237211   1.587   7.005   0.747  1.0928  1.7481  1.6725
 5218TIP3   OH237212   0.717   3.122   1.514 -0.3546 -0.3914  0.2916
 5218TIP3    H137213   0.714   3.039   1.562  1.5580 -0.7329 -0.1004
 5218TIP3    H237214   0.725   3.097   1.422 -0.1096  0.2346  0.1351
 5219TIP3   OH237215   4.552   5.433   1.712 -0.1388  0.1072  0.3334
 5219TIP3    H137216   4.588   5.498   1.773  0.2790  0.9981 -0.8208
 5219TIP3    H237217   4.570   5.349   1.754  0.1901  0.6822  1.4080
 5220TIP3   OH237218   6.059   6.351   2.321 -0.0368  0.1827  0.1621
 5220TIP3    H137219   6.030   6.286   2.385  0.0239 -0.2231 -0.2150
 5220TIP3    H237220   6.070   6.432   2.371  1.5410 -0.5015  0.9757
 5221TIP3   OH237221   2.243   3.907   8.126 -0.3861 -0.4805 -0.2246
 5221TIP3    H137222   2.161   3.857   8.132  0.6234 -2.2882 -0.6288
 5221TIP3    H237223   2.284   3.875   8.046  1.7255 -1.2741  1.1098
 5222TIP3   OH237224   1.835   3.997   1.967 -0.0956  0.0588  0.2022
 5222TIP3    H137225   1.840   3.966   1.877  0.3922  0.9461 -0.0922
 5222TIP3    H237226   1.773   4.070   1.964 -0.3044 -0.0967  0.6441
 5223TIP3   OH237227   3.188   6.405   1.282  0.1185 -0.1277 -0.4932
 5223TIP3    H137228   3.267   6.460   1.286 -1.1420  1.7058  0.8461
 5223TIP3    H237229   3.202   6.350   1.205  2.1131  1.0550 -1.0765
 5224TIP3   OH237230   4.898   3.454   1.991  0.4105  0.1331  0.2935
 5224TIP3    H137231   4.828   3.474   2.052  0.8383 -0.8326  1.1356
 5224TIP3    H237232   4.911   3.359   2.000 -0.3388 -0.2699 -2.1904
 5225TIP3   OH237233   3.951   3.201   1.877 -0.1612  0.3190 -0.7029
 5225TIP3    H137234   3.866   3.176   1.842  0.1232  0.0155 -1.1927
 5225TIP3    H237235   3.996   3.243   1.803  0.8019 -1.1711 -0.9945
 5226TIP3   OH237236   2.194   4.149   0.672  0.3458  0.2188 -0.4692
 5226TIP3    H137237   2.164   4.206   0.601 -0.1034  2.5926  1.4897
 5226TIP3    H237238   2.288   4.166   0.677  0.8848 -1.8722 -2.0255
 5227TIP3   OH237239   6.965   0.334   0.077 -0.8187 -0.3637 -0.2873
 5227TIP3    H137240   6.972   0.254   0.026  0.7995  0.4030 -1.3303
 5227TIP3    H237241   7.009   0.314   0.160 -1.6589 -0.9631  0.0304
 5228TIP3   OH237242   0.824   5.384   1.633 -0.5152  0.4483 -0.3150
 5228TIP3    H137243   0.738   5.392   1.674  0.7002  1.7770  2.1732
 5228TIP3    H237244   0.849   5.475   1.614  0.6976  0.1469 -0.1962
 5229TIP3   OH237245   4.037   3.894   2.016  0.5632 -0.5934 -0.1534
 5229TIP3    H137246   4.061   3.819   1.961 -4.1236 -2.1782 -0.4659
 5229TIP3    H237247   4.025   3.966   1.954  2.2106 -0.3389 -0.2163
 5230TIP3   OH237248   2.846   5.430   1.197  0.4126  0.4573 -0.2240
 5230TIP3    H137249   2.812   5.442   1.286 -1.4433  0.5589 -0.8863
 5230TIP3    H237250   2.875   5.517   1.169  2.3380  0.1735  0.7404
 5231TIP3   OH237251   5.206   4.364   0.194 -0.0106  0.5051  0.0280
 5231TIP3    H137252   5.132   4.397   0.144 -0.3889  1.7432  1.3498
 5231TIP3    H237253   5.262   4.440   0.209  0.8074 -0.1242  0.2656
 5232TIP3   OH237254   1.304   6.799   1.399  0.0746  0.5434 -0.0524
 5232TIP3    H137255   1.265   6.818   1.313  1.9365  0.6706 -0.9272
 5232TIP3    H237256   1.265   6.863   1.458  0.0046  1.5686 -1.1735
 5233TIP3   OH237257   4.307   3.854   0.524  0.0641 -0.5499 -0.0701
 5233TIP3    H137258   4.214   3.861   0.504 -0.2901  1.9522  1.9285
 5233TIP3    H237259   4.349   3.918   0.467  0.5307 -1.3549 -0.6479
 5234TIP3   OH237260   6.491   0.899   1.211  0.1367 -0.3045 -0.6194
 5234TIP3    H137261   6.471   0.922   1.120 -0.3642 -1.5880 -0.8577
 5234TIP3    H237262   6.572   0.848   1.206 -0.9884 -2.1902 -0.6387
 5235TIP3   OH237263   2.471   3.585   1.568 -0.4121 -0.4935 -0.3988
 5235TIP3    H137264   2.532   3.525   1.525  0.2765  1.1202 -1.7725
 5235TIP3    H237265   2.527   3.652   1.606 -1.2713  0.4732 -0.8039
 5236TIP3   OH237266   1.200   6.283   7.242 -0.7005 -0.3938 -0.3821
 5236TIP3    H137267   1.266   6.324   7.186 -0.4059 -0.5418 -0.1440
 5236TIP3    H237268   1.227   6.305   7.331  0.0100 -1.9129 -0.1980
 5237TIP3   OH237269   3.049   5.744   2.047 -0.2503  0.1631  0.3466
 5237TIP3    H137270   3.068   5.804   2.120  0.3105 -1.3326  1.4691
 5237TIP3    H237271   3.060   5.657   2.084 -0.4564 -0.6463 -1.4156
 5238TIP3   OH237272   3.912   0.218   2.739 -0.2659 -0.4347 -0.2256
 5238TIP3    H137273   3.937   0.164   2.814  1.2981  0.5780  0.0447
 5238TIP3    H237274   3.834   0.265   2.768  1.8559  2.0435  1.9332
 5239TIP3   OH237275   5.089   2.867   8.213 -0.0259  0.2109  0.0043
 5239TIP3    H137276   5.002   2.902   8.233  0.4044  2.0581 -1.0840
 5239TIP3    H237277   5.146   2.944   8.210  1.2720 -0.7332 -1.2211
 5240TIP3   OH237278   6.091   0.147   2.174  0.2812 -0.6688 -0.6798
 5240TIP3    H137279   6.183   0.149   2.150  0.1987  0.7035 -0.9738
 5240TIP3    H237280   6.083   0.075   2.236  1.6456 -0.4738 -0.2591
 5241TIP3   OH237281   1.953   4.541   2.970  0.1096  0.2141  0.2780
 5241TIP3    H137282   1.958   4.536   2.874  3.3885  1.3099  0.2694
 5241TIP3    H237283   1.958   4.634   2.990 -3.1899  0.2383  1.5680
 5242TIP3   OH237284   5.976   3.233   0.847 -0.7450  0.1604  0.3113
 5242TIP3    H137285   6.031   3.238   0.926 -0.2045 -0.6652 -0.0072
 5242TIP3    H237286   6.029   3.273   0.778 -0.3263 -1.0608 -0.1026
 5243TIP3   OH237287   4.901   1.759   3.266  0.1452  0.0719  0.1597
 5243TIP3    H137288   4.829   1.781   3.324  2.0925  1.2944  2.2474
 5243TIP3    H237289   4.941   1.681   3.306 -0.4860 -1.1707 -1.4936
 5244TIP3   OH237290   2.086   2.590   1.907 -0.1913 -0.1946 -0.0041
 5244TIP3    H137291   2.170   2.551   1.931 -0.5823 -1.6261 -0.9078
 5244TIP3    H237292   2.108   2.681   1.885  0.6644  0.3261  2.5801
 5245TIP3   OH237293   5.074   6.218   1.852  0.1258  0.8436  0.6617
 5245TIP3    H137294   5.099   6.223   1.759 -0.5762 -0.6287  0.3609
 5245TIP3    H237295   5.107   6.299   1.890  1.0237  1.1717 -0.7371
 5246TIP3   OH237296   2.414   2.907   0.284  0.4005  0.0473 -0.7826
 5246TIP3    H137297   2.477   2.836   0.295  0.9142  0.2164 -2.3057
 5246TIP3    H237298   2.343   2.868   0.232  0.4738  0.5096 -1.2423
 5247TIP3   OH237299   6.623   6.201   2.779 -0.1292  0.5496  0.1008
 5247TIP3    H137300   6.688   6.158   2.835  1.1029  0.4895 -1.3253
 5247TIP3    H237301   6.610   6.287   2.820 -0.8384 -0.2585  1.6381
 5248TIP3   OH237302   5.175   0.854   2.317  0.2875  0.4368  0.2753
 5248TIP3    H137303   5.225   0.831   2.394  1.3114  1.4485 -0.0625
 5248TIP3    H237304   5.234   0.837   2.243 -0.8131 -0.9122 -0.3361
 5249TIP3   OH237305   5.862   0.985   0.139  0.6227 -0.3831 -0.0269
 5249TIP3    H137306   5.810   1.001   0.061 -1.0729 -0.8116  0.9662
 5249TIP3    H237307   5.882   0.892   0.137  1.9537 -0.0994 -0.7403
 5250TIP3   OH237308   5.402   3.588   1.100 -0.0517 -0.7665 -0.3815
 5250TIP3    H137309   5.412   3.506   1.148 -1.5695 -0.0543  1.2783
 5250TIP3    H237310   5.307   3.602   1.095  0.1544  0.7028 -0.9230
 5251TIP3   OH237311   3.435   2.311   2.989  0.1743  0.6563  0.4771
 5251TIP3    H137312   3.501   2.263   2.940 -1.3922 -0.7254 -0.3873
 5251TIP3    H237313   3.375   2.243   3.021 -1.2552  1.9055  0.5629
 5252TIP3   OH237314   0.810   4.965   8.211 -0.0158 -0.1957 -0.4877
 5252TIP3    H137315   0.753   4.971   8.287  1.6733  0.6476  0.8046
 5252TIP3    H237316   0.773   5.026   8.148 -2.1425 -1.8045 -0.8892
 5253TIP3   OH237317   0.960   0.099   7.810  0.4169 -0.2658 -0.3017
 5253TIP3    H137318   0.884   0.084   7.752 -0.0344 -0.1684  0.2572
 5253TIP3    H237319   0.926   0.085   7.898  0.2007  2.8885  0.2328
 5254TIP3   OH237320   4.920   1.440   1.905  0.0355  0.5221  0.1485
 5254TIP3    H137321   4.962   1.354   1.913  0.4371  0.4938 -1.8226
 5254TIP3    H237322   4.854   1.441   1.975 -1.3737 -2.2213 -0.9841
 5255TIP3   OH237323   2.767   1.433   1.145 -0.3834 -0.1099 -0.3794
 5255TIP3    H137324   2.732   1.350   1.115 -2.2754  0.4229  0.2165
 5255TIP3    H237325   2.761   1.429   1.241  1.6601 -0.1569 -0.2064
 5256TIP3   OH237326   4.102   6.057   1.163  0.7436  0.8540  0.1354
 5256TIP3    H137327   4.104   6.112   1.242  1.7792  1.6611 -0.4284
 5256TIP3    H237328   4.058   6.110   1.097  0.6430  0.5218 -0.0680
 5257TIP3   OH237329   4.468   3.967   7.993 -0.4615 -0.0236  0.3194
 5257TIP3    H137330   4.391   3.911   7.986 -0.1029 -0.5956  0.8517
 5257TIP3    H237331   4.473   3.989   8.086  0.1295 -0.1585  0.3245
 5258TIP3   OH237332   3.942   7.032   2.908  0.2937 -0.7302 -0.6382
 5258TIP3    H137333   3.998   6.989   2.973 -0.1932 -1.2365 -0.5472
 5258TIP3    H237334   3.864   6.977   2.904 -1.0786  1.0340  0.7075
 5259TIP3   OH237335   5.346   1.786   1.422 -0.1562 -0.3847  0.1323
 5259TIP3    H137336   5.283   1.846   1.462  0.1336  1.2317 -1.6696
 5259TIP3    H237337   5.359   1.717   1.487 -0.4102  1.5740  2.3911
 5260TIP3   OH237338   4.188   0.760   2.870  0.8018 -0.3831 -0.2316
 5260TIP3    H137339   4.125   0.828   2.894  1.6982 -0.0021  1.1548
 5260TIP3    H237340   4.135   0.680   2.862  0.0404  0.0633  0.2446
 5261TIP3   OH237341   1.487   3.187   7.700  0.5253  0.0339  0.4863
 5261TIP3    H137342   1.542   3.166   7.775  0.3149  2.2291  1.3107
 5261TIP3    H237343   1.548   3.189   7.626  1.0872 -0.1907  0.9360
 5262TIP3   OH237344   2.029   0.205   2.614  0.1042  0.0256 -0.3067
 5262TIP3    H137345   1.991   0.248   2.538 -0.2046  0.3248  0.0126
 5262TIP3    H237346   2.108   0.162   2.581 -0.6585 -0.8620 -1.0583
 5263TIP3   OH237347   0.972   2.031   1.317 -0.5693 -0.2071  0.0743
 5263TIP3    H137348   0.937   2.057   1.402 -1.3447  0.6369 -0.4763
 5263TIP3    H237349   0.975   2.112   1.266  1.8722 -0.3202 -0.0583
 5264TIP3   OH237350   6.809   4.219   7.098  0.1692 -0.7107 -0.4070
 5264TIP3    H137351   6.756   4.291   7.066  1.8777  0.4145 -0.8771
 5264TIP3    H237352   6.801   4.151   7.031 -1.8261 -1.2102  0.2669
 5265TIP3   OH237353   1.062   6.953   2.624 -1.1258  0.2178 -0.8363
 5265TIP3    H137354   1.056   6.916   2.711  0.7562  0.8249 -0.3980
 5265TIP3    H237355   1.115   7.032   2.635  0.0709 -0.2651 -2.6697
 5266TIP3   OH237356   0.467   5.933   1.511 -0.4125 -0.0794 -0.2455
 5266TIP3    H137357   0.553   5.903   1.484 -0.5502  0.3108 -1.1439
 5266TIP3    H237358   0.446   5.880   1.588  0.6243 -0.1728 -0.0158
 5267TIP3   OH237359   2.394   3.052   7.086 -1.0329  0.5047  0.1530
 5267TIP3    H137360   2.434   2.965   7.079 -0.5090  0.7537  0.0823
 5267TIP3    H237361   2.439   3.094   7.159 -1.5729  0.5668  0.4539
 5268TIP3   OH237362   4.392   2.529   1.901 -0.1015  0.2631 -0.0934
 5268TIP3    H137363   4.310   2.502   1.944 -0.1917 -0.2680 -0.5766
 5268TIP3    H237364   4.364   2.586   1.830 -0.1701 -0.9480 -1.0683
 5269TIP3   OH237365   1.762   2.996   2.822  0.3895 -0.1461 -0.1564
 5269TIP3    H137366   1.743   2.966   2.910 -3.2728  1.3088 -0.3012
 5269TIP3    H237367   1.841   3.050   2.832 -0.8766  1.3870  2.5996
 5270TIP3   OH237368   4.172   4.860   1.440 -0.0809  0.4356 -0.0665
 5270TIP3    H137369   4.081   4.832   1.429  0.1798 -1.2774  1.5265
 5270TIP3    H237370   4.169   4.923   1.512 -0.3105  2.5910 -1.8688
 5271TIP3   OH237371   3.910   0.499   3.335 -0.3835  0.3955  0.2247
 5271TIP3    H137372   3.882   0.558   3.264  0.1065  2.4935  1.6796
 5271TIP3    H237373   3.924   0.415   3.292  0.0155  1.6129 -2.1988
 5272TIP3   OH237374   1.431   3.180   1.929  0.0796  0.5828 -0.4497
 5272TIP3    H137375   1.422   3.134   2.012 -0.5390 -1.6439 -1.6616
 5272TIP3    H237376   1.507   3.236   1.941  0.8376 -0.6977  1.1911
 5273TIP3   OH237377   3.944   5.667   0.320  0.2013  0.1318  0.0216
 5273TIP3    H137378   3.891   5.673   0.241 -0.0276 -1.4422  0.0106
 5273TIP3    H237379   3.969   5.574   0.325  2.9908  0.7821  0.0023
 5274TIP3   OH237380   1.176   3.641   2.151 -0.6515 -0.3452 -0.6370
 5274TIP3    H137381   1.167   3.667   2.243  0.7843 -0.1052 -0.5318
 5274TIP3    H237382   1.101   3.680   2.107 -0.7056  0.5756  0.2337
 5275TIP3   OH237383   1.408   1.848   1.284 -0.5265  0.1457  0.4627
 5275TIP3    H137384   1.316   1.877   1.279 -0.3852  0.7654  1.3636
 5275TIP3    H237385   1.406   1.759   1.250 -1.4259  0.2380  0.2346
 5276TIP3   OH237386   2.724   5.693   1.682  0.0386  0.1784  0.4764
 5276TIP3    H137387   2.746   5.723   1.771 -1.1154  1.1967  0.4418
 5276TIP3    H237388   2.628   5.691   1.681 -0.1282  3.3801 -1.7288
 5277TIP3   OH237389   4.512   0.521   3.548  0.1665  0.0692  0.9316
 5277TIP3    H137390   4.523   0.470   3.628  3.3871 -1.5359 -0.3791
 5277TIP3    H237391   4.599   0.526   3.510 -0.9859  1.9854 -1.8092
 5278TIP3   OH237392   5.778   2.433   8.086 -0.1994 -0.1738  0.6558
 5278TIP3    H137393   5.822   2.511   8.121  0.5802 -0.0815 -0.4589
 5278TIP3    H237394   5.739   2.463   8.004  0.0657 -0.9362  0.2410
 5279TIP3   OH237395   6.862   2.846   0.496 -0.3280 -0.2254  0.2279
 5279TIP3    H137396   6.778   2.809   0.522 -0.5882  0.6702  0.7029
 5279TIP3    H237397   6.841   2.935   0.467  0.4152 -0.0774  0.1263
 5280TIP3   OH237398   2.189   3.085   7.808 -0.1232  0.7750 -0.1205
 5280TIP3    H137399   2.265   3.126   7.767  0.7685  0.1916  0.8951
 5280TIP3    H237400   2.173   3.006   7.756  0.8388  0.1781  0.4515
 5281TIP3   OH237401   6.887   1.059   3.220  0.0625  0.1573  0.4445
 5281TIP3    H137402   6.941   1.072   3.298  1.6089  2.3304 -0.8698
 5281TIP3    H237403   6.867   0.966   3.220  1.7884 -0.2831  2.3024
 5282TIP3   OH237404   1.028   4.393   0.423  0.6138  0.1715  0.4010
 5282TIP3    H137405   1.022   4.298   0.432 -0.5532  0.2499  0.6791
 5282TIP3    H237406   1.010   4.411   0.331 -0.7271  0.2056  0.6511
 5283TIP3   OH237407   6.708   6.006   8.041  0.0965 -0.0669  0.4284
 5283TIP3    H137408   6.677   6.097   8.044 -0.0317  0.0066 -1.7269
 5283TIP3    H237409   6.635   5.957   8.003  0.6785 -0.8347  0.2829
 5284TIP3   OH237410   1.814   4.906   0.727  0.7517  0.6215  0.4008
 5284TIP3    H137411   1.874   4.935   0.659 -0.5927  0.3206 -0.9552
 5284TIP3    H237412   1.739   4.871   0.680  0.0460 -0.1823  2.0364
 5285TIP3   OH237413   1.947   1.305   7.281  0.7614  0.2660  0.2978
 5285TIP3    H137414   1.964   1.399   7.290  0.0658  0.4204  0.0391
 5285TIP3    H237415   2.026   1.263   7.315  1.2452  0.9492  0.0316
 5286TIP3   OH237416   2.861   2.508   1.857 -0.0280 -0.0061 -0.1239
 5286TIP3    H137417   2.798   2.516   1.785 -2.1555  0.5825  1.6649
 5286TIP3    H237418   2.852   2.417   1.886  0.8096 -0.2374 -0.5772
 5287TIP3   OH237419   2.637   3.863   8.050 -0.5674  0.4124  0.4806
 5287TIP3    H137420   2.702   3.806   8.093 -1.1377 -2.1352 -1.7785
 5287TIP3    H237421   2.646   3.946   8.096  4.2705  0.2392  0.3956
 5288TIP3   OH237422   5.208   5.162   2.122 -0.6654  0.0161 -0.1897
 5288TIP3    H137423   5.113   5.159   2.110 -1.0144  0.9551  1.9720
 5288TIP3    H237424   5.244   5.129   2.039 -2.8261  1.2073 -1.6747
 5289TIP3   OH237425   4.036   0.477   2.662  0.1579 -0.1049  0.8062
 5289TIP3    H137426   3.963   0.507   2.716 -0.6217 -0.5993  0.0407
 5289TIP3    H237427   4.035   0.382   2.671 -1.0533 -0.3685 -1.3677
 5290TIP3   OH237428   4.647   3.339   2.105 -0.4148 -0.3731  0.2062
 5290TIP3    H137429   4.641   3.292   2.022 -0.3475  1.5598 -0.9384
 5290TIP3    H237430   4.560   3.377   2.118  0.0392  0.7314  0.1267
 5291TIP3   OH237431   2.665   4.303   8.078  0.0681  0.5624  0.6345
 5291TIP3    H137432   2.654   4.298   7.983 -0.0234  0.1795  0.6650
 5291TIP3    H237433   2.592   4.356   8.108 -0.8429 -0.6730  0.6646
 5292TIP3   OH237434   1.430   6.422   2.523  0.5683 -0.6490 -0.4369
 5292TIP3    H137435   1.520   6.417   2.555  0.8150 -0.9315 -1.1545
 5292TIP3    H237436   1.376   6.395   2.598  0.8671  2.0254  0.8728
 5293TIP3   OH237437   5.815   5.731   0.122 -0.0963  0.0842 -0.2252
 5293TIP3    H137438   5.821   5.686   0.206  0.2040 -0.9522 -0.7843
 5293TIP3    H237439   5.820   5.824   0.144 -0.6025 -0.1563  0.9437
 5294TIP3   OH237440   3.871   3.507   7.170  0.4352  0.0429 -0.3342
 5294TIP3    H137441   3.842   3.416   7.179  0.0842  0.1585 -0.2722
 5294TIP3    H237442   3.791   3.558   7.174  0.7064  0.4291  0.6930
 5295TIP3   OH237443   3.845   6.441   1.381 -0.2274 -0.4239 -0.4866
 5295TIP3    H137444   3.929   6.438   1.427 -0.0255 -2.0209 -0.9017
 5295TIP3    H237445   3.779   6.425   1.448 -0.3923  2.2611  0.1217
 5296TIP3   OH237446   3.999   3.271   8.000 -0.9567 -0.2389  0.2095
 5296TIP3    H137447   3.984   3.267   8.094 -1.2098 -0.4488  0.1621
 5296TIP3    H237448   3.912   3.264   7.961 -0.7062 -2.5536 -0.0955
 5297TIP3   OH237449   5.585   0.438   3.056 -0.6201 -0.2134  0.0325
 5297TIP3    H137450   5.677   0.446   3.031  0.0901 -1.0856  2.1749
 5297TIP3    H237451   5.543   0.514   3.015  0.6465 -0.7871 -2.5166
 5298TIP3   OH237452   6.004   3.328   6.797  0.1525  0.6794  0.0704
 5298TIP3    H137453   6.053   3.267   6.851  0.9983 -0.1342 -1.5297
 5298TIP3    H237454   5.946   3.373   6.858  0.9567 -0.2730  1.6054
 5299TIP3   OH237455   1.835   2.249   2.726 -0.1616  0.4710  0.1906
 5299TIP3    H137456   1.785   2.200   2.660  2.7764 -0.7260 -1.3708
 5299TIP3    H237457   1.890   2.308   2.675  2.9588 -1.1948  1.3247
 5300TIP3   OH237458   3.933   5.032   1.287  1.1774 -0.1834 -0.1404
 5300TIP3    H137459   3.930   5.086   1.366 -0.3065  2.9619 -2.1328
 5300TIP3    H237460   3.897   4.948   1.313  2.2295  0.1863  2.8454
 5301TIP3   OH237461   5.665   4.443   1.938 -0.0818  0.0315 -0.1578
 5301TIP3    H137462   5.748   4.468   1.898 -0.6132  0.8303 -0.7906
 5301TIP3    H237463   5.617   4.526   1.947 -0.7329 -0.3949  0.3763
 5302TIP3   OH237464   3.953   5.533   2.171 -0.5307 -0.3450  0.1147
 5302TIP3    H137465   4.030   5.537   2.113 -2.1979  1.5454 -2.1891
 5302TIP3    H237466   3.982   5.574   2.252  0.3469  2.7565 -1.5768
 5303TIP3   OH237467   4.999   2.826   2.435 -0.1463  0.1352  0.2291
 5303TIP3    H137468   4.988   2.853   2.526 -0.4219 -0.0631  0.2570
 5303TIP3    H237469   5.006   2.908   2.386 -0.0885  0.2430  0.4180
 5304TIP3   OH237470   2.206   6.915   7.347  0.5023  0.1377 -0.0923
 5304TIP3    H137471   2.284   6.911   7.292  0.6292  0.2614  0.0764
 5304TIP3    H237472   2.220   6.993   7.402  0.2904  0.1238 -0.0187
 5305TIP3   OH237473   0.576   1.451   7.916  0.0604 -0.0026 -0.3388
 5305TIP3    H137474   0.581   1.407   7.831  1.7559  0.1746 -0.3699
 5305TIP3    H237475   0.505   1.514   7.907  0.1958 -0.0174 -1.6233
 5306TIP3   OH237476   0.374   5.188   1.854 -0.3097  0.4000  0.2101
 5306TIP3    H137477   0.450   5.189   1.912 -0.2277  1.5742  0.1011
 5306TIP3    H237478   0.346   5.096   1.853 -0.6918  0.4190  2.6272
 5307TIP3   OH237479   1.967   5.082   1.297  0.2451  0.2523  0.2936
 5307TIP3    H137480   1.924   5.022   1.237  0.0333  2.3151 -1.7790
 5307TIP3    H237481   2.034   5.126   1.243  1.6575  0.5617  2.1867
 5308TIP3   OH237482   2.164   5.266   1.465 -0.4039  0.1502 -0.3238
 5308TIP3    H137483   2.099   5.219   1.413  0.7746  0.5757 -2.3200
 5308TIP3    H237484   2.244   5.213   1.458 -0.3672 -0.1255  1.6767
 5309TIP3   OH237485   4.868   6.221   1.017 -0.1956 -0.0291  0.5529
 5309TIP3    H137486   4.898   6.130   1.020  0.9840  0.2825 -0.7123
 5309TIP3    H237487   4.819   6.228   0.935  1.4752  0.9278 -0.4378
 5310TIP3   OH237488   6.219   0.245   0.254 -0.6855  0.7992  0.1325
 5310TIP3    H137489   6.152   0.197   0.303  0.8093 -0.9122  0.6184
 5310TIP3    H237490   6.235   0.324   0.305 -0.9377  0.2502  1.0770
 5311TIP3   OH237491   4.224   1.048   7.259  0.5111  0.1823 -0.3324
 5311TIP3    H137492   4.276   1.127   7.241 -0.1193  0.5498 -0.5668
 5311TIP3    H237493   4.173   1.035   7.179 -0.3032  0.2488  0.1710
 5312TIP3   OH237494   4.541   4.827   2.675  0.0929 -0.0085  0.2401
 5312TIP3    H137495   4.551   4.900   2.735  0.9606  0.1515 -0.0866
 5312TIP3    H237496   4.603   4.845   2.604 -2.0301  0.6484 -1.5707
 5313TIP3   OH237497   7.036   4.698   0.049 -0.2576 -0.1492 -0.6179
 5313TIP3    H137498   7.032   4.744   0.133  0.4278 -0.3308 -0.4768
 5313TIP3    H237499   7.031   4.767  -0.017  1.8823  0.2749 -0.4053
 5314TIP3   OH237500   5.185   4.141   2.666  0.3414  0.0691 -0.1355
 5314TIP3    H137501   5.185   4.086   2.744 -0.2353  0.8758  0.4576
 5314TIP3    H237502   5.139   4.221   2.693  1.5267  1.0306 -0.8336
 5315TIP3   OH237503   3.881   6.454   7.824 -0.0578 -0.4663  0.7416
 5315TIP3    H137504   3.793   6.482   7.797  0.1173  1.4870  2.0344
 5315TIP3    H237505   3.898   6.502   7.905  2.6440  0.0471 -0.0349
 5316TIP3   OH237506   6.928   4.087   0.899 -0.1702 -0.3816 -0.5892
 5316TIP3    H137507   6.845   4.068   0.944 -0.1339 -0.2193 -0.4549
 5316TIP3    H237508   6.969   4.155   0.952  1.9395 -3.1803  1.6748
 5317TIP3   OH237509   3.788   4.611   2.497  0.1548  0.5113  0.3827
 5317TIP3    H137510   3.807   4.666   2.422  0.2117  0.3707  0.2926
 5317TIP3    H237511   3.866   4.556   2.507  0.0431  0.3530  0.3859
 5318TIP3   OH237512   0.103   6.796   1.274 -0.0172  0.6417  0.0730
 5318TIP3    H137513   0.130   6.716   1.230 -1.3180 -0.0044  0.4176
 5318TIP3    H237514   0.127   6.866   1.212 -2.2100 -0.2600 -1.9527
 5319TIP3   OH237515   1.595   4.382   2.695  0.7621 -0.2006  0.0576
 5319TIP3    H137516   1.623   4.416   2.781  1.5634 -0.7445  0.0283
 5319TIP3    H237517   1.529   4.444   2.665  1.8851  1.1219  0.1894
 5320TIP3   OH237518   4.986   0.070   6.926 -0.2184 -0.5517 -0.3845
 5320TIP3    H137519   5.064   0.058   6.871  1.3105 -1.3535  1.8130
 5320TIP3    H237520   4.998   0.156   6.966 -0.7662 -0.4405 -0.4498
 5321TIP3   OH237521   2.698   5.541   3.447 -0.1246 -0.0128  0.5527
 5321TIP3    H137522   2.695   5.578   3.359 -0.0025  0.4892  0.7572
 5321TIP3    H237523   2.747   5.459   3.437 -2.7847 -1.5824 -0.4118
 5322TIP3   OH237524   5.484   5.935   1.928 -0.0747  0.5189  0.1688
 5322TIP3    H137525   5.559   5.949   1.986  1.1658 -2.1280 -0.6377
 5322TIP3    H237526   5.432   5.867   1.973 -0.0820 -0.2007 -0.8922
 5323TIP3   OH237527   5.654   0.396   0.782  0.6614  0.9777 -0.3703
 5323TIP3    H137528   5.582   0.357   0.833  0.0134  1.7414 -0.6693
 5323TIP3    H237529   5.732   0.348   0.809  0.1175  0.4936  0.3729
 5324TIP3   OH237530   6.208   5.557   2.048  0.1312  0.5364  0.7321
 5324TIP3    H137531   6.194   5.487   1.984 -0.2037  1.4266 -0.1961
 5324TIP3    H237532   6.232   5.633   1.995 -3.2248  2.1900  1.3202
 5325TIP3   OH237533   2.225   4.213   8.134  0.1561  0.3734 -0.1938
 5325TIP3    H137534   2.291   4.178   8.194 -0.9742  1.3321  1.7208
 5325TIP3    H237535   2.199   4.138   8.081  0.1066 -0.9442  1.5858
 5326TIP3   OH237536   6.742   2.272   0.310  0.3371  0.8855  0.3584
 5326TIP3    H137537   6.747   2.249   0.217 -0.9962  1.9186 -0.0086
 5326TIP3    H237538   6.833   2.283   0.337  0.7950 -0.4179 -0.5542
 5327TIP3   OH237539   5.922   2.121   0.435  0.4048 -0.3265 -0.1006
 5327TIP3    H137540   5.852   2.085   0.489 -0.9138 -0.8597 -2.0711
 5327TIP3    H237541   5.989   2.052   0.434  1.0299  0.1981  1.8143
 5328TIP3   OH237542   6.703   0.375   8.072 -0.5865  0.1078  0.0000
 5328TIP3    H137543   6.764   0.336   8.009 -0.0770  1.4434 -0.3628
 5328TIP3    H237544   6.665   0.300   8.118 -0.3786 -0.8563 -1.3416
 5329TIP3   OH237545   2.207   3.282   0.834 -0.3977 -0.1649  0.1531
 5329TIP3    H137546   2.232   3.231   0.911 -2.3103  0.4579  1.2384
 5329TIP3    H237547   2.148   3.225   0.785  0.3688 -0.3437 -0.5993
 5330TIP3   OH237548   6.846   0.208   2.098  0.3281  0.0260  0.2529
 5330TIP3    H137549   6.806   0.150   2.033  1.2461 -0.7131  0.3225
 5330TIP3    H237550   6.882   0.281   2.046  0.6389 -0.3218 -0.0291
 5331TIP3   OH237551   5.139   5.798   8.177  0.1614 -0.2128  0.1971
 5331TIP3    H137552   5.227   5.781   8.211  0.2981  0.9665  0.4893
 5331TIP3    H237553   5.118   5.886   8.209 -0.5433  0.0942 -1.0525
 5332TIP3   OH237554   1.966   4.507   7.271 -0.2215 -0.4252  0.0544
 5332TIP3    H137555   2.016   4.588   7.265  0.4249 -0.4886  2.8390
 5332TIP3    H237556   2.028   4.438   7.247 -0.7301 -0.1883 -2.1644
 5333TIP3   OH237557   6.251   0.818   7.856 -0.1629 -0.4456  0.5117
 5333TIP3    H137558   6.331   0.772   7.834 -0.0251 -0.1149  0.3138
 5333TIP3    H237559   6.187   0.789   7.791 -0.4305 -1.3196  1.1523
 5334TIP3   OH237560   6.901   3.755   0.008 -0.6298  0.6072  0.1778
 5334TIP3    H137561   6.810   3.744   0.037 -0.4050  0.5242  0.8707
 5334TIP3    H237562   6.899   3.835  -0.045 -1.0664  0.7510  0.4026
 5335TIP3   OH237563   5.714   0.044   1.128  0.0575  0.0630 -0.4938
 5335TIP3    H137564   5.778   0.023   1.196 -0.5644  1.9542  0.7478
 5335TIP3    H237565   5.669  -0.039   1.111 -0.1493 -0.3690  1.8357
 5336TIP3   OH237566   2.540   2.183   8.200 -0.0582 -0.3193 -0.2704
 5336TIP3    H137567   2.479   2.226   8.260 -1.8998 -1.3694 -1.2694
 5336TIP3    H237568   2.619   2.168   8.252 -0.2268  2.0272  0.7826
 5337TIP3   OH237569   3.833   5.777   3.319 -0.0343  0.5942  0.7501
 5337TIP3    H137570   3.817   5.849   3.380 -1.8456 -1.0127  2.2883
 5337TIP3    H237571   3.828   5.818   3.232  0.1133  2.4858  1.5842
 5338TIP3   OH237572   2.425   1.609   0.547  0.1304  0.1012  0.4893
 5338TIP3    H137573   2.499   1.619   0.487 -0.2885 -0.8785 -0.2188
 5338TIP3    H237574   2.444   1.527   0.594  0.0564  0.4457  1.1354
 5339TIP3   OH237575   6.953   4.729   1.909 -0.0728 -0.1245  0.3242
 5339TIP3    H137576   7.022   4.662   1.906 -0.3247 -0.3931  0.5191
 5339TIP3    H237577   6.872   4.679   1.910 -0.2978  0.1957 -0.5713
 5340TIP3   OH237578   6.059   0.185   0.796  0.0392 -0.0249 -0.1527
 5340TIP3    H137579   6.114   0.126   0.847  0.0290 -1.4345 -1.6772
 5340TIP3    H237580   5.977   0.190   0.846  0.8356  0.5331  1.1351
 5341TIP3   OH237581   4.842   5.011   1.286  0.1705 -0.7143  0.0252
 5341TIP3    H137582   4.925   5.053   1.263 -0.1323  0.1456  0.4458
 5341TIP3    H237583   4.811   4.973   1.204 -0.7446  2.0099 -1.0052
 5342TIP3   OH237584   4.757   4.898   2.453 -0.1727  0.5411  0.2602
 5342TIP3    H137585   4.797   4.985   2.447 -0.5617  0.8812  1.9094
 5342TIP3    H237586   4.736   4.874   2.363  2.7311  0.8032 -0.5699
 5343TIP3   OH237587   1.143   3.928   7.670 -0.1021  0.4783  0.8945
 5343TIP3    H137588   1.164   4.019   7.648  4.0285 -0.2716  0.8539
 5343TIP3    H237589   1.218   3.878   7.637 -0.8451 -2.5828  3.3867
 5344TIP3   OH237590   2.228   2.894   2.239 -0.1440  0.1367 -0.1435
 5344TIP3    H137591   2.299   2.924   2.182  0.9400 -1.2810  0.3992
 5344TIP3    H237592   2.264   2.903   2.327 -0.4391 -1.0548  0.1119
 5345TIP3   OH237593   0.903   5.591   7.937 -0.1138  0.7546 -0.0964
 5345TIP3    H137594   0.890   5.673   7.983  1.4294  0.6210  0.6480
 5345TIP3    H237595   0.990   5.600   7.896  0.5815 -0.8785  0.9113
 5346TIP3   OH237596   6.452   3.113   2.247  0.0320 -0.0078 -0.0759
 5346TIP3    H137597   6.479   3.057   2.175  2.1150  1.4206 -0.4967
 5346TIP3    H237598   6.504   3.083   2.322 -0.4025  0.0151  0.2383
 5347TIP3   OH237599   0.149   2.608   0.895  0.5120 -0.6114  0.3385
 5347TIP3    H137600   0.059   2.612   0.927  0.1395 -0.8566 -0.6207
 5347TIP3    H237601   0.204   2.617   0.973 -0.3087  1.5851  0.7525
 5348TIP3   OH237602   6.487   6.684   1.736 -0.2092 -0.4597  0.2923
 5348TIP3    H137603   6.459   6.611   1.681  0.9422 -0.1829 -0.7005
 5348TIP3    H237604   6.565   6.652   1.781  0.5460  0.2746 -0.4667
 5349TIP3   OH237605   6.075   6.251   7.482  0.1557  0.2331  0.0795
 5349TIP3    H137606   6.000   6.191   7.481 -0.2019  0.6724 -0.0269
 5349TIP3    H237607   6.035   6.338   7.477  0.6676  0.4793  0.2829
 5350TIP3   OH237608   4.138   0.921   0.613  0.4927 -0.3565 -0.5556
 5350TIP3    H137609   4.170   0.838   0.649  0.9560 -0.9644 -2.2649
 5350TIP3    H237610   4.043   0.911   0.611  0.5924 -1.2311 -1.5807
 5351TIP3   OH237611   3.514   0.904   0.832 -0.3326  0.5257  0.1227
 5351TIP3    H137612   3.495   0.973   0.768 -0.0802  1.3593  0.9341
 5351TIP3    H237613   3.609   0.905   0.840  0.4055 -3.4949 -3.7857
 5352TIP3   OH237614   3.570   2.500   1.646 -0.2351 -1.0109 -0.4100
 5352TIP3    H137615   3.608   2.514   1.733 -0.9607 -0.3109 -0.1969
 5352TIP3    H237616   3.503   2.433   1.660  0.5209 -1.8607 -0.6909
 5353TIP3   OH237617   1.583   3.901   1.648 -0.1346 -0.5611 -0.0643
 5353TIP3    H137618   1.660   3.956   1.663 -1.0967  0.7377  0.3449
 5353TIP3    H237619   1.567   3.906   1.554 -1.5562  1.8441  0.2179
 5354TIP3   OH237620   4.929   5.263   0.550  0.0863  0.4394  0.8086
 5354TIP3    H137621   4.887   5.298   0.471 -2.1129 -2.9274  0.2912
 5354TIP3    H237622   4.888   5.311   0.622 -0.9155  0.7238  0.0704
 5355TIP3   OH237623   1.755   3.897   8.088  0.3428  0.4712 -0.2479
 5355TIP3    H137624   1.794   3.886   8.001 -1.2238 -1.5910 -0.7675
 5355TIP3    H237625   1.795   3.828   8.140  1.2167  1.6519  0.7047
 5356TIP3   OH237626   3.389   5.333   2.368 -0.1469 -0.1340  0.3498
 5356TIP3    H137627   3.449   5.260   2.354 -0.3821 -0.9835  3.1521
 5356TIP3    H237628   3.304   5.292   2.382 -0.1743  0.5606  2.5341
 5357TIP3   OH237629   5.096   3.340   0.437 -0.0417 -0.6962 -0.1256
 5357TIP3    H137630   5.011   3.342   0.393  0.6155  0.3357 -1.4581
 5357TIP3    H237631   5.085   3.397   0.513 -0.2494  0.4178 -0.9524
 5358TIP3   OH237632   5.329   0.259   7.430  0.4559  0.1576 -0.1397
 5358TIP3    H137633   5.409   0.305   7.456  0.4312  0.4275 -0.5274
 5358TIP3    H237634   5.355   0.209   7.352  0.3804 -0.1641  0.0426
 5359TIP3   OH237635   0.440   5.244   1.341  0.0045  0.6319  0.0690
 5359TIP3    H137636   0.389   5.305   1.286 -1.6515  0.4378  1.2961
 5359TIP3    H237637   0.408   5.157   1.317 -0.3297  0.5109  0.9091
 5360TIP3   OH237638   4.866   4.731   2.636  0.4637 -0.0651 -0.2227
 5360TIP3    H137639   4.833   4.794   2.572 -0.0492  0.7960  0.8659
 5360TIP3    H237640   4.806   4.739   2.710  1.4385 -0.5735  0.6320
 5361TIP3   OH237641   1.888   2.213   2.375 -0.0363 -0.6302  0.3674
 5361TIP3    H137642   1.934   2.132   2.400  2.3328  0.4321 -0.3213
 5361TIP3    H237643   1.798   2.199   2.405  0.0186 -3.9168 -0.6023
 5362TIP3   OH237644   3.756   2.259   8.254  0.1818  0.1873 -0.2315
 5362TIP3    H137645   3.818   2.282   8.185 -1.7223  1.4184 -1.6566
 5362TIP3    H237646   3.722   2.343   8.284 -0.3551 -0.4256  0.9299
 5363TIP3   OH237647   3.486   2.274   2.491  0.0091  0.0080 -0.1784
 5363TIP3    H137648   3.453   2.196   2.447  0.2173 -1.0446  1.4506
 5363TIP3    H237649   3.427   2.345   2.464  0.2896 -0.5142 -2.3058
 5364TIP3   OH237650   2.711   5.557   2.498 -0.0665  0.3593 -0.4777
 5364TIP3    H137651   2.772   5.592   2.433 -0.7384  0.5278 -1.0279
 5364TIP3    H237652   2.684   5.634   2.549  2.6270 -0.1179  1.9319
 5365TIP3   OH237653   6.979   5.304   1.750 -0.4599  0.6035 -0.7680
 5365TIP3    H137654   6.900   5.347   1.782  0.0995  0.6650  0.5928
 5365TIP3    H237655   7.051   5.352   1.791  0.2086 -0.8223 -0.1919
 5366TIP3   OH237656   4.191   1.602   1.423 -0.0636  0.2765 -0.0680
 5366TIP3    H137657   4.128   1.657   1.376  0.7930 -0.8504 -2.6825
 5366TIP3    H237658   4.163   1.608   1.515 -2.4906  1.7139 -0.7973
 5367TIP3   OH237659   1.827   0.622   1.518  0.1110  0.3852  0.7283
 5367TIP3    H137660   1.895   0.635   1.583  0.3083  0.6484  0.4670
 5367TIP3    H237661   1.746   0.644   1.564  0.4503  3.0417  0.1813
 5368TIP3   OH237662   3.545   5.390   7.214 -0.2199 -0.3394 -0.0395
 5368TIP3    H137663   3.457   5.424   7.229 -0.5792 -1.8117  1.4973
 5368TIP3    H237664   3.533   5.295   7.204  1.3929 -0.9242  2.7143
 5369TIP3   OH237665   2.065   6.518   3.043  0.0399  0.1995 -0.2012
 5369TIP3    H137666   2.093   6.534   3.133 -0.8164 -0.1266  0.1343
 5369TIP3    H237667   2.147   6.515   2.992  0.6653 -1.2735  0.8316
 5370TIP3   OH237668   2.847   6.968   7.164 -0.0529 -0.4408 -0.2980
 5370TIP3    H137669   2.932   6.978   7.121 -0.2547  3.9577 -0.1495
 5370TIP3    H237670   2.861   7.004   7.252 -1.5141 -1.9973  0.6169
 5371TIP3   OH237671   0.798   3.624   7.101  0.1873  0.3685 -0.1952
 5371TIP3    H137672   0.778   3.601   7.011 -1.1999  1.5238 -0.2179
 5371TIP3    H237673   0.849   3.705   7.095  1.1840 -0.2171  0.0384
 5372TIP3   OH237674   0.648   0.347   2.966 -0.3187  0.2730 -0.3529
 5372TIP3    H137675   0.599   0.333   3.047  1.5144 -0.5343  0.6708
 5372TIP3    H237676   0.724   0.399   2.993  1.0707 -1.2098 -1.2507
 5373TIP3   OH237677   4.312   4.553   0.553  0.3778  0.0706  0.4511
 5373TIP3    H137678   4.242   4.539   0.617 -0.9526  1.8956 -0.5052
 5373TIP3    H237679   4.368   4.619   0.592  1.3973 -1.1265  1.0587
 5374TIP3   OH237680   4.316   2.408   0.624  0.0673  0.1617  0.3462
 5374TIP3    H137681   4.315   2.464   0.546 -3.7903 -1.2543 -0.8529
 5374TIP3    H237682   4.402   2.366   0.622  0.4748  0.9023 -2.6100
 5375TIP3   OH237683   4.467   2.434   3.222  0.0454  0.1125 -0.6580
 5375TIP3    H137684   4.447   2.357   3.168  0.5503 -0.7382  0.3360
 5375TIP3    H237685   4.383   2.479   3.230 -0.6736 -1.2999  0.2244
 5376TIP3   OH237686   2.726   6.039   2.966 -0.4049  0.1421 -0.0387
 5376TIP3    H137687   2.704   6.020   2.875  1.2000  0.1164 -0.4587
 5376TIP3    H237688   2.748   6.132   2.967  0.8992 -0.1467  0.0139
 5377TIP3   OH237689   3.789   0.728   0.164 -0.2472  0.5333 -0.4530
 5377TIP3    H137690   3.846   0.806   0.165 -0.7553  0.9023  0.0883
 5377TIP3    H237691   3.807   0.687   0.079  0.8448  0.6289 -0.2847
 5378TIP3   OH237692   5.062   6.665   1.367 -0.5945  0.1260  0.0150
 5378TIP3    H137693   5.021   6.581   1.389 -1.8098  0.3465 -1.2246
 5378TIP3    H237694   5.065   6.666   1.271  0.5801  0.9686  0.0359
 5379TIP3   OH237695   3.445   4.876   3.407  0.1109 -0.4609 -0.8243
 5379TIP3    H137696   3.384   4.855   3.477 -0.6603  0.1647 -1.2972
 5379TIP3    H237697   3.518   4.815   3.420 -1.5554 -2.7846 -1.5342
 5380TIP3   OH237698   2.885   5.466   2.725  0.1579 -0.1207  0.3995
 5380TIP3    H137699   2.829   5.544   2.728  0.5099  0.1132  2.0924
 5380TIP3    H237700   2.972   5.500   2.704 -0.2187 -0.4559 -1.9695
 5381TIP3   OH237701   5.963   3.989   2.208 -0.5021 -0.0810  0.3475
 5381TIP3    H137702   6.052   3.963   2.232 -0.5821  1.1171  2.0535
 5381TIP3    H237703   5.954   4.078   2.240 -2.2184 -0.0636 -0.0988
 5382TIP3   OH237704   2.851   6.939   0.539  0.8007  0.1732 -0.1687
 5382TIP3    H137705   2.877   6.871   0.477  0.4893 -0.3214  0.2327
 5382TIP3    H237706   2.898   6.918   0.619 -0.1508 -0.2408  0.3017
 5383TIP3   OH237707   2.487   6.820   7.617  0.3790  0.2177 -0.4825
 5383TIP3    H137708   2.495   6.887   7.549  0.6000 -0.9181 -1.6196
 5383TIP3    H237709   2.493   6.868   7.699 -1.1893  1.8176 -1.2289
 5384TIP3   OH237710   1.591   4.376   0.307  0.7389  0.1246  0.1985
 5384TIP3    H137711   1.539   4.457   0.303 -0.0249 -0.3324  0.5442
 5384TIP3    H237712   1.645   4.386   0.385 -0.8037 -0.5228  1.3966
 5385TIP3   OH237713   0.133   3.216   2.142  0.3071  0.4169  0.1372
 5385TIP3    H137714   0.064   3.259   2.091  0.5950  1.4673  0.6024
 5385TIP3    H237715   0.143   3.271   2.220  1.0900 -0.1860  0.4791
 5386TIP3   OH237716   2.433   4.392   0.353  0.4312 -0.5150  0.3248
 5386TIP3    H137717   2.524   4.367   0.337  0.4698 -0.7796  0.9521
 5386TIP3    H237718   2.387   4.309   0.364 -0.2140 -0.4767 -1.6031
 5387TIP3   OH237719   0.883   1.656   1.802  0.0690  0.1880 -0.1867
 5387TIP3    H137720   0.857   1.729   1.859  0.5146  1.3923 -1.4710
 5387TIP3    H237721   0.929   1.595   1.860 -1.6459  0.1486  1.2237
 5388TIP3   OH237722   5.473   2.263   1.402  0.5124  0.1241 -0.1724
 5388TIP3    H137723   5.538   2.331   1.384  1.4727 -0.7665 -0.1782
 5388TIP3    H237724   5.442   2.236   1.316 -0.7957  1.3936 -0.1316
 5389TIP3   OH237725   4.658   4.369   0.779  0.1781 -0.6101 -0.2613
 5389TIP3    H137726   4.594   4.440   0.768 -0.0196 -0.6718  0.4483
 5389TIP3    H237727   4.618   4.294   0.736 -0.2266 -0.6440  0.1707
 5390TIP3   OH237728   4.414   1.211   2.124 -0.3820  0.1975  0.1561
 5390TIP3    H137729   4.343   1.250   2.175  0.6898 -1.2156  2.9579
 5390TIP3    H237730   4.444   1.137   2.177  0.2153 -2.0813 -3.0526
 5391TIP3   OH237731   2.815   2.640   0.803  0.3030  0.3302  0.4541
 5391TIP3    H137732   2.771   2.626   0.887  0.8946  0.2999  0.7629
 5391TIP3    H237733   2.861   2.723   0.813 -1.0811  1.2504 -0.4737
 5392TIP3   OH237734   1.014   4.982   3.025 -0.0723  0.3591 -0.3447
 5392TIP3    H137735   1.066   4.943   3.095 -1.4980 -2.8264 -0.8846
 5392TIP3    H237736   0.962   5.050   3.068  0.6761 -0.0107  1.2124
 5393TIP3   OH237737   2.268   6.873   8.112  0.1739  0.4156 -0.9804
 5393TIP3    H137738   2.184   6.826   8.121 -0.0411  0.9531 -0.0933
 5393TIP3    H237739   2.334   6.804   8.116 -0.0488  0.2417  1.8476
 5394TIP3   OH237740   3.457   4.595   0.110 -0.3661 -0.1554  0.6309
 5394TIP3    H137741   3.537   4.623   0.154 -0.5760  0.1648  0.8089
 5394TIP3    H237742   3.445   4.657   0.038  0.0242 -0.7279  0.0557
 5395TIP3   OH237743   2.323   4.299   2.913  0.7665 -0.0844 -0.2953
 5395TIP3    H137744   2.304   4.332   3.001  0.7275  2.3406 -1.1251
 5395TIP3    H237745   2.243   4.318   2.863 -0.4522 -4.1896 -0.2771
 5396TIP3   OH237746   1.727   3.395   2.785 -0.3764 -0.2773  0.1634
 5396TIP3    H137747   1.722   3.380   2.880  2.5342 -0.5521  0.3627
 5396TIP3    H237748   1.789   3.467   2.776  0.9281 -1.5548 -1.5842
 5397TIP3   OH237749   6.099   2.003   2.666 -0.2121 -0.2350  0.7607
 5397TIP3    H137750   6.011   1.968   2.680 -0.3788 -0.8751 -1.5488
 5397TIP3    H237751   6.109   2.008   2.571  2.6953 -1.3282  0.9003
 5398TIP3   OH237752   4.895   7.020   0.584 -0.2235  0.0940  0.0428
 5398TIP3    H137753   4.990   7.025   0.593 -0.3784  0.8434  1.7262
 5398TIP3    H237754   4.877   7.058   0.498  1.0064 -0.2999 -0.4059
 5399TIP3   OH237755   2.240   1.991   1.364 -0.4055  0.2329  0.6084
 5399TIP3    H137756   2.274   1.913   1.321 -1.3868 -0.3652  0.8922
 5399TIP3    H237757   2.290   1.997   1.445  0.7531  0.8010 -0.1111
 5400TIP3   OH237758   6.107   5.058   7.756  0.0303  0.4297 -0.4490
 5400TIP3    H137759   6.046   5.121   7.794 -0.1933  0.4352 -0.8175
 5400TIP3    H237760   6.175   5.048   7.823 -0.9536 -0.4379  0.4621
 5401TIP3   OH237761   3.124   0.628   0.478 -0.6414 -0.1099 -0.5172
 5401TIP3    H137762   3.178   0.589   0.409  0.7639 -0.1491  0.5316
 5401TIP3    H237763   3.077   0.554   0.516 -2.1050  0.0398 -1.9667
 5402TIP3   OH237764   6.694   5.880   2.701 -0.7179 -0.6962 -0.0852
 5402TIP3    H137765   6.611   5.897   2.747 -0.9737 -3.2661  0.5608
 5402TIP3    H237766   6.756   5.940   2.741 -1.4438 -1.3252  2.1723
 5403TIP3   OH237767   0.360   3.639   7.898  0.0798  1.0423  0.2828
 5403TIP3    H137768   0.407   3.722   7.909 -2.6124  2.7962 -0.5422
 5403TIP3    H237769   0.374   3.615   7.806  1.4416  0.1280  0.6945
 5404TIP3   OH237770   4.069   0.977   2.645 -0.6499 -0.0132  0.1485
 5404TIP3    H137771   4.131   0.952   2.577 -0.8286 -0.2534  0.0708
 5404TIP3    H237772   4.124   1.002   2.719 -0.4503  0.3477 -0.1113
 5405TIP3   OH237773   3.782   0.733   1.880 -0.1169 -0.8447  0.5448
 5405TIP3    H137774   3.746   0.749   1.793  0.9498 -2.4130 -0.2302
 5405TIP3    H237775   3.817   0.818   1.908 -2.2475  0.1651  0.3529
 5406TIP3   OH237776   5.287   5.836   2.108  0.0608  0.5016  0.6359
 5406TIP3    H137777   5.220   5.898   2.079 -0.6380  0.3195  1.7918
 5406TIP3    H237778   5.348   5.889   2.160  0.5774  0.5800 -0.0342
 5407TIP3   OH237779   6.515   3.442   7.953 -0.0441 -0.0171 -0.1295
 5407TIP3    H137780   6.474   3.405   8.031 -3.4337  0.8742 -1.3088
 5407TIP3    H237781   6.532   3.533   7.976  0.0775 -0.0592 -0.0521
 5408TIP3   OH237782   4.003   2.090   0.214 -0.1594 -0.6866 -0.3058
 5408TIP3    H137783   3.912   2.119   0.222 -0.4858 -1.3533 -1.3942
 5408TIP3    H237784   4.030   2.117   0.127  0.5973 -0.7681 -0.1060
 5409TIP3   OH237785   0.334   0.955   7.767 -0.4213 -0.0735 -0.3617
 5409TIP3    H137786   0.275   0.933   7.694  0.0070 -0.5964 -0.5581
 5409TIP3    H237787   0.294   0.914   7.843 -0.6934  0.1928 -0.3566
 5410TIP3   OH237788   0.318   5.842   8.041 -0.5358  0.1643  0.0111
 5410TIP3    H137789   0.327   5.808   7.952 -0.5256  0.3041 -0.0418
 5410TIP3    H237790   0.275   5.927   8.030 -1.1269 -0.1061  0.1926
 5411TIP3   OH237791   4.313   5.938   6.958 -0.7246  0.4898 -0.2941
 5411TIP3    H137792   4.261   5.989   7.021 -2.0545 -0.9119 -0.1903
 5411TIP3    H237793   4.369   6.002   6.916 -1.0883  1.7510  1.0614
 5412TIP3   OH237794   3.181   1.177   0.650  0.2373 -0.0030 -0.3121
 5412TIP3    H137795   3.165   1.088   0.620  1.2561 -0.7840  1.2831
 5412TIP3    H237796   3.173   1.172   0.746  0.2360  1.6350 -0.1903
 5413TIP3   OH237797   5.034   0.622   0.465 -0.4517 -0.2334 -0.5845
 5413TIP3    H137798   5.029   0.538   0.511  2.3452 -0.1491  0.0630
 5413TIP3    H237799   5.065   0.683   0.531  0.1460  0.6972 -1.6983
 5414TIP3   OH237800   0.229   6.591   1.126 -0.7861  0.3289 -0.3381
 5414TIP3    H137801   0.228   6.515   1.185 -1.8337  0.9981  0.5472
 5414TIP3    H237802   0.207   6.554   1.040  0.9843 -0.6982 -0.4108
 5415TIP3   OH237803   4.568   4.395   2.819 -0.4419 -0.6014 -0.7380
 5415TIP3    H137804   4.580   4.302   2.799 -0.7237 -0.3928 -2.0061
 5415TIP3    H237805   4.505   4.426   2.754 -0.5597  0.4169 -0.1660
 5416TIP3   OH237806   5.981   3.697   0.939 -0.1529 -0.9209 -0.3044
 5416TIP3    H137807   6.060   3.716   0.890 -0.8364  0.3308 -0.9797
 5416TIP3    H237808   5.920   3.661   0.874 -0.4484 -0.9841  0.0024
 5417TIP3   OH237809   4.231   4.147   8.159  0.4161  0.2717  0.0041
 5417TIP3    H137810   4.263   4.216   8.100  0.4306  0.7436  0.5521
 5417TIP3    H237811   4.150   4.117   8.118  1.3621 -0.7214 -1.2426
 5418TIP3   OH237812   0.243   4.720   1.997  0.3007 -0.4138  0.2178
 5418TIP3    H137813   0.185   4.644   2.001  0.3693 -0.5289 -0.8328
 5418TIP3    H237814   0.271   4.733   2.088 -0.6362 -0.9190  0.5966
 5419TIP3   OH237815   4.015   6.156   3.069  0.1335  0.0223 -0.2872
 5419TIP3    H137816   4.041   6.248   3.076  0.8103 -0.1387 -0.6490
 5419TIP3    H237817   3.921   6.157   3.083  0.2690  0.6636  0.6914
 5420TIP3   OH237818   3.610   6.554   2.868  0.6098 -0.3359  0.3633
 5420TIP3    H137819   3.538   6.506   2.909  0.7517  0.7600  2.0076
 5420TIP3    H237820   3.680   6.550   2.933  2.0814 -1.3878 -1.2114
 5421TIP3   OH237821   4.102   4.937   0.689 -0.0997  0.2335  0.0447
 5421TIP3    H137822   4.093   4.998   0.762 -0.3294  0.3801 -0.1064
 5421TIP3    H237823   4.023   4.884   0.692 -0.7869  1.1716 -0.9578
 5422TIP3   OH237824   2.676   4.638   2.296 -0.2341  0.6160  0.3344
 5422TIP3    H137825   2.744   4.705   2.304  1.1575 -0.7963  1.0395
 5422TIP3    H237826   2.701   4.571   2.360  0.9784 -2.6625 -3.1713
 5423TIP3   OH237827   6.086   4.552   2.659  0.1110 -0.4326  0.2614
 5423TIP3    H137828   6.050   4.532   2.746  1.4476 -0.3439  0.8498
 5423TIP3    H237829   6.012   4.591   2.612 -0.4716  0.0846  1.5511
 5424TIP3   OH237830   3.660   2.103   1.183  0.2013  0.2648  0.2681
 5424TIP3    H137831   3.681   2.016   1.216 -0.3257  0.0209 -0.0260
 5424TIP3    H237832   3.650   2.092   1.089 -1.6455  0.2547  0.4156
 5425TIP3   OH237833   5.418   3.015   3.424  0.1738  0.0359  0.6525
 5425TIP3    H137834   5.453   3.076   3.489 -1.3358  0.4264  1.1567
 5425TIP3    H237835   5.482   2.944   3.420  0.7506  0.4586  1.8942
 5426TIP3   OH237836   0.593   3.248   3.241  0.1460 -0.1307 -0.2179
 5426TIP3    H137837   0.500   3.243   3.262  0.2148  0.5043  0.2873
 5426TIP3    H237838   0.601   3.329   3.189  0.3857 -0.2835 -0.4205
 5427TIP3   OH237839   6.342   4.784   7.668 -0.5261  0.3240 -0.1562
 5427TIP3    H137840   6.391   4.744   7.597 -0.7188  0.8757 -0.6041
 5427TIP3    H237841   6.250   4.777   7.641 -0.6438 -0.0057  0.3168
 5428TIP3   OH237842   4.401   4.464   1.725 -0.0764 -0.0915 -0.4764
 5428TIP3    H137843   4.474   4.402   1.717  0.2836  0.1218  0.9044
 5428TIP3    H237844   4.442   4.547   1.749 -0.7611  0.0701  0.1673
 5429TIP3   OH237845   6.237   4.431   0.880  0.0492  0.0298 -0.4078
 5429TIP3    H137846   6.275   4.404   0.964  0.3310 -1.1777 -0.9000
 5429TIP3    H237847   6.308   4.477   0.835 -0.2442  1.0972  0.1896
 5430TIP3   OH237848   1.336   0.161   1.060  0.2450 -0.0821 -0.0226
 5430TIP3    H137849   1.284   0.207   1.125  0.7537 -0.1599  0.4563
 5430TIP3    H237850   1.320   0.068   1.078 -1.6569 -0.1247 -1.7074
 5431TIP3   OH237851   6.807   1.569   0.791 -0.2921 -0.1671 -0.1467
 5431TIP3    H137852   6.820   1.646   0.847  2.0724  1.3324 -2.5160
 5431TIP3    H237853   6.888   1.519   0.799 -0.5490 -0.7450 -0.9879
 5432TIP3   OH237854   3.873   0.492   8.190  0.5728 -0.3411 -0.0684
 5432TIP3    H137855   3.823   0.551   8.133  0.3111 -1.7216 -1.3495
 5432TIP3    H237856   3.822   0.410   8.190  0.8543 -0.5429  1.7524
 5433TIP3   OH237857   0.787   5.442   7.699 -0.0658 -0.3183 -0.5348
 5433TIP3    H137858   0.834   5.360   7.714  0.2294  0.1441  1.2685
 5433TIP3    H237859   0.853   5.511   7.710 -0.0935  0.1784 -2.9415
 5434TIP3   OH237860   0.144   3.895   7.655 -0.2377  0.5837 -0.4123
 5434TIP3    H137861   0.113   3.973   7.609  0.4711  0.1952 -1.6038
 5434TIP3    H237862   0.224   3.870   7.607  0.6989  0.3302  1.2248
 5435TIP3   OH237863   4.752   4.240   0.266  0.2409  0.0743 -0.1891
 5435TIP3    H137864   4.746   4.303   0.338  1.2710  0.5011 -0.4537
 5435TIP3    H237865   4.838   4.200   0.277  0.2260 -0.1719 -0.9258
 5436TIP3   OH237866   5.297   6.695   1.510 -0.2338  0.0691  0.0628
 5436TIP3    H137867   5.287   6.742   1.593  1.1010  0.8385 -0.1754
 5436TIP3    H237868   5.210   6.696   1.470 -0.6150  0.7810  0.8859
 5437TIP3   OH237869   5.388   3.975   2.612  0.0830  0.7139 -0.2755
 5437TIP3    H137870   5.336   3.929   2.678  2.3076  0.5886  1.4876
 5437TIP3    H237871   5.354   4.065   2.613  0.4474  0.8663  1.5133
 5438TIP3   OH237872   5.223   3.507   7.953 -0.6202  0.2386  0.0725
 5438TIP3    H137873   5.243   3.436   7.891 -2.0498 -0.1135 -0.0125
 5438TIP3    H237874   5.306   3.522   7.999  0.2879  0.0075 -1.4053
 5439TIP3   OH237875   2.843   1.326   3.360  0.4261 -0.3623  0.2391
 5439TIP3    H137876   2.888   1.242   3.371 -1.0556 -1.4219 -1.2969
 5439TIP3    H237877   2.760   1.304   3.319 -1.0966  1.6326  2.0353
 5440TIP3   OH237878   3.693   5.324   7.840  0.0842 -0.1725  0.3418
 5440TIP3    H137879   3.705   5.402   7.895 -1.0770 -0.1094  0.5247
 5440TIP3    H237880   3.614   5.342   7.789 -0.2588 -1.2708  0.4573
 5441TIP3   OH237881   4.483   6.729   0.508 -0.4259 -0.0330 -0.0966
 5441TIP3    H137882   4.472   6.824   0.503  0.1278  0.0972  0.7841
 5441TIP3    H237883   4.430   6.694   0.437 -0.3814  0.9559 -0.6285
 5442TIP3   OH237884   5.612   1.476   0.844  0.0665 -0.2877 -0.0208
 5442TIP3    H137885   5.673   1.457   0.915 -0.2047 -0.5997  0.1323
 5442TIP3    H237886   5.552   1.402   0.843 -0.2781 -0.0119 -0.2053
 5443TIP3   OH237887   6.717   6.486   0.908 -0.2996  0.5176 -0.1726
 5443TIP3    H137888   6.691   6.561   0.962 -2.0460 -0.6810  0.7484
 5443TIP3    H237889   6.731   6.415   0.971  0.4156 -0.1800 -1.0928
 5444TIP3   OH237890   6.389   4.488   1.571  0.1192 -0.3843  0.1670
 5444TIP3    H137891   6.328   4.526   1.507 -0.4176  0.4329  1.1285
 5444TIP3    H237892   6.334   4.469   1.647  1.1730  1.0869  1.3530
 5445TIP3   OH237893   5.201   3.383   1.059  0.9801  0.2536  0.2362
 5445TIP3    H137894   5.161   3.469   1.074  1.3837  0.6280 -0.7874
 5445TIP3    H237895   5.197   3.340   1.145 -1.5434  0.2873  0.2028
 5446TIP3   OH237896   3.994   2.493   0.950 -0.0599 -0.0269 -0.2404
 5446TIP3    H137897   4.051   2.513   0.875 -0.5059 -0.0243 -0.5827
 5446TIP3    H237898   3.917   2.548   0.937  0.2744  0.6907  0.7399
 5447TIP3   OH237899   5.462   3.579   8.074 -0.4704 -0.3456 -0.1985
 5447TIP3    H137900   5.491   3.670   8.070 -2.9093  0.4632 -2.3352
 5447TIP3    H237901   5.527   3.531   8.022  0.4835  0.2697  0.4049
 5448TIP3   OH237902   4.187   6.597   2.656 -0.1435 -0.2073 -0.0599
 5448TIP3    H137903   4.258   6.636   2.605 -0.0657 -0.1297  0.1093
 5448TIP3    H237904   4.222   6.587   2.744 -0.8007  1.1557  0.3862
 5449TIP3   OH237905   3.973   1.496   0.750 -0.1109  0.3712  0.2245
 5449TIP3    H137906   3.915   1.485   0.826  0.4924 -0.4842  0.5831
 5449TIP3    H237907   3.920   1.544   0.686 -1.0233  0.1033  0.7551
 5450TIP3   OH237908   5.659   1.532   7.918  0.2161  0.0263 -0.1918
 5450TIP3    H137909   5.671   1.579   7.836  0.8735  2.2623  1.0951
 5450TIP3    H237910   5.578   1.566   7.955  0.6510  0.1216  0.7297
 5451TIP3   OH237911   5.350   2.223   0.776 -0.2890  0.1766  0.0331
 5451TIP3    H137912   5.293   2.235   0.852 -1.3015 -1.6732 -0.3731
 5451TIP3    H237913   5.320   2.289   0.713 -1.4034 -0.1678  0.1779
 5452TIP3   OH237914   4.570   2.544   2.696  0.3904  0.1070  0.2135
 5452TIP3    H137915   4.515   2.528   2.620  2.6156 -1.8343 -1.1130
 5452TIP3    H237916   4.516   2.517   2.771 -0.6053 -1.3792 -0.9908
 5453TIP3   OH237917   4.236   4.186   2.548 -0.2163  0.1184  0.1647
 5453TIP3    H137918   4.176   4.113   2.548  0.7413 -0.7051  1.4914
 5453TIP3    H237919   4.198   4.249   2.609 -0.0353 -0.1471  0.5542
 5454TIP3   OH237920   6.179   1.237   1.959 -0.3519 -0.7524  0.6982
 5454TIP3    H137921   6.099   1.267   1.915  0.0237 -1.1009 -0.2264
 5454TIP3    H237922   6.191   1.147   1.929  0.8154 -0.4429  0.2207
 5455TIP3   OH237923   6.432   6.108   7.830  0.2232  0.0081  0.0528
 5455TIP3    H137924   6.446   6.025   7.876  0.1293 -0.0884 -0.0949
 5455TIP3    H237925   6.520   6.137   7.805  0.2359 -0.1449 -0.0729
 5456TIP3   OH237926   2.203   0.080   3.135 -0.2040  0.2427 -0.4232
 5456TIP3    H137927   2.178   0.146   3.071 -2.2622 -0.2850 -0.2148
 5456TIP3    H237928   2.121   0.047   3.171  0.8011 -1.3555  0.5912
 5457TIP3   OH237929   4.248   5.305   2.939  0.4479 -0.2860 -0.9144
 5457TIP3    H137930   4.315   5.327   2.875 -0.1408  1.4267 -0.9922
 5457TIP3    H237931   4.193   5.240   2.896  0.4847  0.3037 -1.8715
 5458TIP3   OH237932   6.950   3.577   0.212 -0.3066 -0.6701 -0.2078
 5458TIP3    H137933   7.032   3.530   0.199 -1.0341 -1.8586 -0.6873
 5458TIP3    H237934   6.945   3.640   0.141  1.3757  1.2273  1.2559
 5459TIP3   OH237935   2.237   5.630   0.768  0.0737 -0.4093 -0.3834
 5459TIP3    H137936   2.305   5.589   0.821  0.7961  1.1254 -0.0592
 5459TIP3    H237937   2.281   5.704   0.725 -0.9140 -0.5666 -1.7577
 5460TIP3   OH237938   2.908   5.624   2.992 -0.6301 -0.9285  0.0313
 5460TIP3    H137939   2.932   5.556   2.930  0.1224  0.2801 -1.0308
 5460TIP3    H237940   2.813   5.612   3.004 -1.1828 -0.0900 -2.7619
 5461TIP3   OH237941   2.964   4.199   2.752 -0.2236  0.4695 -0.1892
 5461TIP3    H137942   2.951   4.116   2.798 -0.0424  1.2636  1.3627
 5461TIP3    H237943   2.878   4.240   2.751 -0.1186  0.6930 -0.0896
 5462TIP3   OH237944   3.812   6.265   2.571  0.1720  1.0421 -0.3457
 5462TIP3    H137945   3.894   6.271   2.620  0.3283  1.2935 -0.6413
 5462TIP3    H237946   3.760   6.338   2.604 -0.1003  0.6406  0.1429
 5463TIP3   OH237947   5.394   4.943   2.246 -0.4523  0.4084 -0.2666
 5463TIP3    H137948   5.406   4.925   2.153  0.8740  3.9738 -0.9247
 5463TIP3    H237949   5.417   5.035   2.257 -0.8591  0.2446  3.5713
 5464TIP3   OH237950   2.515   1.352   1.551  0.0689 -0.2766  0.0187
 5464TIP3    H137951   2.546   1.279   1.497 -0.4484  1.1243 -2.3468
 5464TIP3    H237952   2.594   1.401   1.573  0.3168 -1.0125  0.7910
 5465TIP3   OH237953   2.020   4.214   3.232 -0.1442 -0.1126  0.0702
 5465TIP3    H137954   2.098   4.236   3.182  0.5616 -3.5050 -0.5241
 5465TIP3    H237955   2.053   4.188   3.318 -0.6423 -1.1614 -0.0473
 5466TIP3   OH237956   5.514   5.884   7.279  0.2963 -0.1169  0.0853
 5466TIP3    H137957   5.441   5.821   7.278 -0.0296  0.2520  0.8296
 5466TIP3    H237958   5.546   5.883   7.188 -1.5398  0.7758 -0.6171
 5467TIP3   OH237959   6.542   2.354   7.652 -0.2303 -0.3174  0.6289
 5467TIP3    H137960   6.502   2.439   7.632  0.3404 -0.1210  0.2867
 5467TIP3    H237961   6.469   2.301   7.684 -0.3803  0.6472  1.9745
 5468TIP3   OH237962   5.342   2.641   6.998 -0.5301 -0.6283  0.1147
 5468TIP3    H137963   5.325   2.650   6.904 -0.4162  0.5535  0.1959
 5468TIP3    H237964   5.276   2.696   7.040  0.0570 -0.3383  0.6778
 5469TIP3   OH237965   3.262   0.706   0.719  0.3971 -0.1033 -0.8450
 5469TIP3    H137966   3.203   0.759   0.772  1.4925  0.1359  0.1920
 5469TIP3    H237967   3.221   0.703   0.633  0.6349  3.0849 -1.1692
 5470TIP3   OH237968   4.285   6.788   1.777 -0.0724  0.0251 -0.3649
 5470TIP3    H137969   4.372   6.757   1.801 -0.0071  0.1602 -0.4277
 5470TIP3    H237970   4.228   6.755   1.846  0.0757  0.1878 -0.1631
 5471TIP3   OH237971   0.505   6.873   0.004 -0.1237 -0.4272  0.0119
 5471TIP3    H137972   0.533   6.821   0.080  0.0574 -0.9576 -0.4124
 5471TIP3    H237973   0.580   6.929  -0.015 -0.5337  0.4067  0.8274
 5472TIP3   OH237974   4.133   0.765   0.017  0.2664  0.5997  0.2765
 5472TIP3    H137975   4.173   0.778   0.104 -2.3116 -0.2367  1.7019
 5472TIP3    H237976   4.048   0.807   0.024 -1.2568 -2.0961 -0.7940
 5473TIP3   OH237977   1.067   2.858   1.077  0.1723  0.0985  0.1078
 5473TIP3    H137978   1.058   2.856   1.172 -0.0488 -0.3259  0.0800
 5473TIP3    H237979   1.057   2.951   1.054  3.0637  0.6750  0.7555
 5474TIP3   OH237980   6.749   2.305   8.252  0.3363  0.1158 -0.0430
 5474TIP3    H137981   6.758   2.296   8.157 -0.8938 -1.5628 -0.0392
 5474TIP3    H237982   6.838   2.327   8.282  0.5197  1.8715 -1.6533
 5475TIP3   OH237983   6.602   3.885   0.897  0.3868 -0.4611  0.0512
 5475TIP3    H137984   6.670   3.880   0.830  1.4499  0.8175  0.9772
 5475TIP3    H237985   6.636   3.831   0.969  0.0074 -0.5240  0.1877
 5476TIP3   OH237986   2.139   4.424   7.538  0.6174  0.3009  1.1884
 5476TIP3    H137987   2.113   4.511   7.568  0.5709  0.4899  0.6246
 5476TIP3    H237988   2.228   4.413   7.571  0.5095  0.4400  1.5202
 5477TIP3   OH237989   0.990   3.083   1.847  0.3199 -0.3864 -0.5988
 5477TIP3    H137990   0.998   3.157   1.908  3.6304  0.1388 -1.4698
 5477TIP3    H237991   0.963   3.123   1.764 -1.7320 -0.7759 -0.1816
 5478TIP3   OH237992   5.331   2.890   2.258  0.4980 -0.6499 -0.3327
 5478TIP3    H137993   5.391   2.816   2.244  2.3277  0.4449  1.3137
 5478TIP3    H237994   5.388   2.965   2.276 -1.2880  0.1916  2.5963
 5479TIP3   OH237995   3.758   0.485   1.825 -0.0958 -0.3237 -0.6839
 5479TIP3    H137996   3.752   0.568   1.873  2.5080  0.4811 -1.5491
 5479TIP3    H237997   3.745   0.417   1.892 -2.4396  0.6978  0.0132
 5480TIP3   OH237998   2.515   4.726   0.975 -0.3592  0.0340 -0.2290
 5480TIP3    H137999   2.534   4.797   1.037 -0.6499 -0.6995  0.7152
 5480TIP3    H238000   2.438   4.756   0.927 -0.2184  0.5483 -0.1432
 5481TIP3   OH238001   4.877   3.726   1.087  0.0374  0.2277 -0.6576
 5481TIP3    H138002   4.824   3.749   1.011 -1.3385 -2.3343 -0.5784
 5481TIP3    H238003   4.833   3.650   1.125  0.2823  1.7509  3.1270
 5482TIP3   OH238004   5.637   1.467   8.250  0.2077 -0.0583  0.0053
 5482TIP3    H138005   5.654   1.550   8.296 -0.0018  0.5952 -1.0736
 5482TIP3    H238006   5.685   1.475   8.167 -0.9160 -0.4605 -0.7010
 5483TIP3   OH238007   1.663   0.317   1.882 -0.0391 -0.0796  0.4092
 5483TIP3    H138008   1.631   0.299   1.971 -0.7766  2.4789  0.7293
 5483TIP3    H238009   1.698   0.233   1.853 -0.7573 -1.2795  2.6973
 5484TIP3   OH238010   4.919   1.600   1.320 -0.2461 -0.0883 -0.4133
 5484TIP3    H138011   4.863   1.590   1.242  0.4776  1.5702 -1.1860
 5484TIP3    H238012   5.006   1.617   1.285  0.1719  0.2924  0.7639
 5485TIP3   OH238013   5.020   2.859   1.639 -0.1254 -0.0199 -0.0483
 5485TIP3    H138014   5.083   2.790   1.657  1.2422  0.9424 -0.9135
 5485TIP3    H238015   5.040   2.886   1.549  0.9976  3.0691  0.9933
 5486TIP3   OH238016   5.012   4.148   7.511 -0.2422  0.0018  0.2948
 5486TIP3    H138017   5.011   4.244   7.507 -1.5878  0.1065  2.0191
 5486TIP3    H238018   4.981   4.120   7.425  0.6034  1.0719 -0.3896
 5487TIP3   OH238019   6.992   0.721   0.165  0.5941  0.3617 -0.0044
 5487TIP3    H138020   7.043   0.779   0.108 -0.3923 -0.4425 -1.8054
 5487TIP3    H238021   6.909   0.710   0.119 -0.0824 -0.7120  1.3989
 5488TIP3   OH238022   5.017   4.107   0.222  0.2479  0.4349 -0.1255
 5488TIP3    H138023   5.055   4.193   0.208  0.6312  0.1458 -0.9207
 5488TIP3    H238024   5.066   4.070   0.296 -0.2620  1.0872  0.5501
 5489TIP3   OH238025   6.785   6.924   0.085  0.4016  0.2267  0.1898
 5489TIP3    H138026   6.737   6.884   0.012  1.6011  0.1956 -0.6100
 5489TIP3    H238027   6.876   6.926   0.056  0.9001  0.3049  1.6650
 5490TIP3   OH238028   0.219   4.802   1.607 -0.1768  0.4986  0.1081
 5490TIP3    H138029   0.180   4.817   1.521 -0.6058  1.0038  0.3912
 5490TIP3    H238030   0.211   4.708   1.621 -0.0308  0.3991 -0.4366
 5491TIP3   OH238031   5.926   1.593   2.163  0.2518  0.5435 -0.5175
 5491TIP3    H138032   5.944   1.551   2.078 -0.9986 -0.4257 -0.3241
 5491TIP3    H238033   6.009   1.636   2.186  1.9214 -2.4806 -0.3404
 5492TIP3   OH238034   1.013   5.330   2.817 -0.2335 -0.2535 -0.1876
 5492TIP3    H138035   1.079   5.319   2.886  0.5224 -0.4251 -0.9240
 5492TIP3    H238036   0.962   5.406   2.845  0.2462 -0.1409  0.4141
 5493TIP3   OH238037   5.331   5.055   1.408 -0.0022 -0.8610 -0.0171
 5493TIP3    H138038   5.359   4.969   1.439  4.1589  1.0610  2.5358
 5493TIP3    H238039   5.274   5.089   1.477 -1.6955 -1.4956 -1.0523
 5494TIP3   OH238040   0.666   4.403   1.326  0.3295 -0.0716  0.2047
 5494TIP3    H138041   0.682   4.412   1.232  1.5067  2.3975  0.5549
 5494TIP3    H238042   0.574   4.430   1.337 -0.0023 -0.9705 -0.2864
 5495TIP3   OH238043   2.878   6.413   2.978 -0.6081  0.1064  0.3592
 5495TIP3    H138044   2.902   6.333   3.026 -0.0067  0.5973  0.8828
 5495TIP3    H238045   2.822   6.381   2.907 -1.5200 -0.6496  1.3647
 5496TIP3   OH238046   4.548   5.741   7.601  0.5417  0.0557 -0.2803
 5496TIP3    H138047   4.459   5.760   7.572  1.2435 -0.7299 -3.3301
 5496TIP3    H238048   4.546   5.751   7.696 -3.5173 -2.7548  0.1825
 5497TIP3   OH238049   1.886   5.310   7.374  0.1255  0.3195 -0.1641
 5497TIP3    H138050   1.810   5.280   7.323 -1.4972 -0.4722  2.4953
 5497TIP3    H238051   1.878   5.262   7.457  2.2335  2.0097  1.0915
 5498TIP3   OH238052   6.999   3.898   2.277 -0.2940 -0.4180  0.4810
 5498TIP3    H138053   7.025   3.920   2.366 -0.1158  0.6551  0.1754
 5498TIP3    H238054   7.081   3.879   2.232 -0.4453 -1.8024  0.7453
 5499TIP3   OH238055   2.607   6.988   1.330  0.5493  0.0561  0.2145
 5499TIP3    H138056   2.596   6.946   1.416  1.3919  0.1313  0.3747
 5499TIP3    H238057   2.605   7.082   1.350  1.3018  0.0758  0.2468
 5500TIP3   OH238058   5.286   4.488   0.705  0.2479  0.1197 -0.2040
 5500TIP3    H138059   5.226   4.536   0.762 -1.5304  1.4053 -2.9270
 5500TIP3    H238060   5.372   4.496   0.747 -0.8371  1.5531  1.8803
 5501TIP3   OH238061   5.809   5.516   0.290 -0.0563  0.8675  0.0525
 5501TIP3    H138062   5.844   5.447   0.234  2.6734  1.5180  0.8222
 5501TIP3    H238063   5.827   5.487   0.379  0.5296  2.2291  0.4122
 5502TIP3   OH238064   2.128   6.238   0.857 -0.0843  0.3952  0.1722
 5502TIP3    H138065   2.130   6.334   0.861 -3.3639  0.5947  0.4250
 5502TIP3    H238066   2.089   6.212   0.941  1.8707 -1.3018  0.6143
 5503TIP3   OH238067   4.908   6.197   8.152 -0.1047 -0.2737  0.6779
 5503TIP3    H138068   4.959   6.133   8.202  3.2419  1.7560  0.1873
 5503TIP3    H238069   4.833   6.148   8.120  2.5880 -4.2519 -0.3602
 5504TIP3   OH238070   6.441   4.119   1.639 -0.0034 -0.1276  0.1343
 5504TIP3    H138071   6.351   4.097   1.616  0.2158 -2.0357  0.8617
 5504TIP3    H238072   6.482   4.034   1.657  2.0228  0.6701 -0.4523
 5505TIP3   OH238073   6.447   0.626   0.571 -0.3706  0.4280  0.5751
 5505TIP3    H138074   6.399   0.698   0.613 -1.3229 -0.1894  0.5882
 5505TIP3    H238075   6.456   0.561   0.640  0.0308  0.3241  0.4222
 5506TIP3   OH238076   3.388   3.443   0.808 -0.4388  0.3784 -0.1375
 5506TIP3    H138077   3.475   3.420   0.775 -0.2202  0.9716  0.0079
 5506TIP3    H238078   3.341   3.475   0.731 -0.4952  0.1479 -0.1983
 5507TIP3   OH238079   6.143   1.546   2.519 -1.1755 -0.8681  0.1143
 5507TIP3    H138080   6.188   1.514   2.597  0.2561  0.2953 -0.1709
 5507TIP3    H238081   6.184   1.499   2.447  0.6245  1.0652 -0.2634
 5508TIP3   OH238082   6.880   1.820   1.533 -0.4184  0.6646 -0.3467
 5508TIP3    H138083   6.855   1.730   1.509 -1.2962  0.9463 -0.5252
 5508TIP3    H238084   6.819   1.875   1.484  2.4448  1.5467 -3.2684
 5509TIP3   OH238085   6.866   0.260   2.502  0.2634  0.6286  0.1233
 5509TIP3    H138086   6.903   0.181   2.464 -1.5987  0.4124 -1.4253
 5509TIP3    H238087   6.880   0.327   2.435  1.0780  1.4432  1.0713
 5510TIP3   OH238088   3.243   5.568   2.214 -0.9393 -0.7807 -0.0312
 5510TIP3    H138089   3.291   5.499   2.167 -1.2051 -1.5745  0.8387
 5510TIP3    H238090   3.160   5.527   2.238 -0.9859 -0.2521  0.7414
 5511TIP3   OH238091   5.757   2.944   6.931  0.1562  0.4756  0.3316
 5511TIP3    H138092   5.718   2.941   7.018  0.7143  0.8219  0.6046
 5511TIP3    H238093   5.851   2.933   6.947  0.2150  0.0300 -0.2736
 5512TIP3   OH238094   5.942   1.313   8.172 -0.1635  0.0777  0.2511
 5512TIP3    H138095   5.951   1.365   8.093 -3.1253 -1.0343 -0.9484
 5512TIP3    H238096   5.849   1.289   8.175  0.5180 -2.8769  2.1450
 5513TIP3   OH238097   2.119   3.516   0.308 -0.3512  0.0658 -0.5359
 5513TIP3    H138098   2.065   3.546   0.381 -0.8352  0.2507 -0.9664
 5513TIP3    H238099   2.057   3.477   0.247  0.0877 -0.3527 -0.7175
 5514TIP3   OH238100   2.925   6.294   1.782 -0.2982 -0.1226 -0.6130
 5514TIP3    H138101   2.853   6.358   1.781 -0.5440 -0.2840  1.4521
 5514TIP3    H238102   2.881   6.209   1.792  0.1193 -0.4151 -1.2106
 5515TIP3   OH238103   2.573   6.571   1.268  0.3305  0.3805  0.0261
 5515TIP3    H138104   2.572   6.494   1.326  0.1736 -1.0503 -1.7668
 5515TIP3    H238105   2.482   6.601   1.266  0.2716  0.2191  0.2317
 5516TIP3   OH238106   2.817   6.689   3.054  0.6534 -0.0660  0.4133
 5516TIP3    H138107   2.770   6.744   2.991  1.5028  0.3566  0.1389
 5516TIP3    H238108   2.811   6.601   3.018  0.2979  0.0243  0.2444
 5517TIP3   OH238109   6.997   1.468   1.064 -0.7271 -0.6358 -0.4667
 5517TIP3    H138110   6.946   1.548   1.082 -0.7923 -0.9199  0.6574
 5517TIP3    H238111   7.046   1.489   0.984 -1.9550 -0.0504 -1.0980
 5518TIP3   OH238112   4.515   4.925   1.504  0.3358  0.6488  0.3914
 5518TIP3    H138113   4.527   5.015   1.476 -0.2642  0.4461 -0.5359
 5518TIP3    H238114   4.604   4.888   1.503  0.7798  1.5561  2.0407
 5519TIP3   OH238115   4.137   0.102   3.546 -0.9212  0.3532 -0.2250
 5519TIP3    H138116   4.099   0.023   3.507 -0.1745  0.3580 -1.0053
 5519TIP3    H238117   4.123   0.170   3.480  2.4491 -0.1380 -1.7007
 5520TIP3   OH238118   0.469   4.509   0.988 -0.4956 -0.0724 -0.4465
 5520TIP3    H138119   0.462   4.576   1.056 -1.0122 -2.1457  1.6368
 5520TIP3    H238120   0.562   4.485   0.987 -0.5143 -0.1461 -0.3847
 5521TIP3   OH238121   0.573   2.516   0.973  0.5454 -0.0633  0.0494
 5521TIP3    H138122   0.590   2.539   1.065 -0.7593 -1.5880  0.7035
 5521TIP3    H238123   0.478   2.514   0.965  0.6319  0.1273 -1.3916
 5522TIP3   OH238124   1.800   2.316   1.891  0.0933  0.3528  0.3786
 5522TIP3    H138125   1.864   2.263   1.940 -1.7461 -0.9637  1.4801
 5522TIP3    H238126   1.780   2.389   1.951 -0.7143 -0.1999  0.7983
 5523TIP3   OH238127   5.171   0.797   6.913  0.2901  0.0454  0.1126
 5523TIP3    H138128   5.148   0.838   6.996 -0.2893 -1.2088  0.5984
 5523TIP3    H238129   5.203   0.710   6.937  2.1592  0.4292 -0.8336
 5524TIP3   OH238130   6.895   5.609   1.461  0.3421 -0.2981  0.2900
 5524TIP3    H138131   6.911   5.515   1.453 -1.2898 -0.9001  2.7355
 5524TIP3    H238132   6.799   5.617   1.457  0.4697  1.3218 -0.2723
 5525TIP3   OH238133   6.875   1.882   7.187 -0.5034  0.5169 -0.0148
 5525TIP3    H138134   6.900   1.796   7.154 -1.5653 -0.3307  1.2510
 5525TIP3    H238135   6.860   1.934   7.109  0.5175 -0.3351 -0.8060
 5526TIP3   OH238136   4.829   3.951   0.067 -0.1917  0.5050 -0.2253
 5526TIP3    H138137   4.853   3.979  -0.022 -2.2455 -1.0678 -1.3684
 5526TIP3    H238138   4.899   3.985   0.122  2.2416 -0.1092 -2.6894
 5527TIP3   OH238139   6.976   2.286   2.557 -0.7007  0.1574 -0.8545
 5527TIP3    H138140   6.944   2.196   2.564  3.3931 -1.8864 -4.2954
 5527TIP3    H238141   6.955   2.312   2.467  1.0499  1.3413 -0.9595
 5528TIP3   OH238142   0.168   6.294   1.610 -0.1820  0.1430  0.1729
 5528TIP3    H138143   0.110   6.277   1.685 -0.1537 -1.2708 -0.1134
 5528TIP3    H238144   0.116   6.269   1.534  0.7749 -1.0843 -0.0960
 5529TIP3   OH238145   1.494   6.729   1.996 -0.2251  0.3674 -0.3419
 5529TIP3    H138146   1.524   6.686   2.076 -2.1184 -0.3380  0.0418
 5529TIP3    H238147   1.479   6.658   1.934 -1.5501  0.6198 -0.3388
 5530TIP3   OH238148   1.535   1.494   1.262 -0.0444  0.2393  1.0165
 5530TIP3    H138149   1.475   1.428   1.295  1.7807 -1.4896  1.0296
 5530TIP3    H238150   1.522   1.494   1.167 -1.4329  1.3258  1.1755
 5531TIP3   OH238151   3.123   4.041   7.007 -0.2559  0.1355 -0.3506
 5531TIP3    H138152   3.095   4.131   7.025  0.2712  0.2174  0.0853
 5531TIP3    H238153   3.121   4.035   6.911 -2.5256 -0.1330 -0.3383
 5532TIP3   OH238154   1.623   3.400   1.402 -0.1384  0.1670  0.2706
 5532TIP3    H138155   1.683   3.464   1.440  1.8702 -2.0615  1.1224
 5532TIP3    H238156   1.535   3.434   1.422  0.8374  1.9284  1.8724
 5533TIP3   OH238157   3.240   5.988   1.459  0.1375 -0.1010 -0.2150
 5533TIP3    H138158   3.275   5.938   1.386 -0.8707  0.9529 -1.4612
 5533TIP3    H238159   3.288   6.071   1.457  1.7266 -0.9063  1.7685
 5534TIP3   OH238160   1.525   5.630   2.249 -0.3398  0.7115  0.4583
 5534TIP3    H138161   1.461   5.694   2.218 -0.5482  0.1818 -0.2265
 5534TIP3    H238162   1.551   5.582   2.171 -1.2000 -0.9390  1.1316
 5535TIP3   OH238163   0.783   0.010   2.575 -0.4019 -0.6301  0.9990
 5535TIP3    H138164   0.870  -0.027   2.561 -0.5630 -0.2724 -1.4295
 5535TIP3    H238165   0.797   0.081   2.638  1.2385 -0.0386  0.0313
 5536TIP3   OH238166   0.986   5.030   2.504  0.5096 -0.0829 -0.0488
 5536TIP3    H138167   1.041   4.986   2.569  0.7329 -0.8954 -0.7645
 5536TIP3    H238168   0.925   4.963   2.475 -1.4904  1.0421  1.3579
 5537TIP3   OH238169   1.678   1.237   8.178  0.1358  0.1818 -0.4860
 5537TIP3    H138170   1.651   1.160   8.227 -1.8327  0.1101 -1.5933
 5537TIP3    H238171   1.750   1.207   8.123 -0.6228 -0.9014 -0.9203
 5538TIP3   OH238172   4.083   0.682   7.986  0.0028 -0.2815 -0.1222
 5538TIP3    H138173   4.162   0.728   7.960 -0.1553  0.7496  1.0931
 5538TIP3    H238174   4.068   0.618   7.917  1.7867 -0.3799 -0.4642
 5539TIP3   OH238175   0.541   6.880   0.871  0.0957 -0.0615  0.1635
 5539TIP3    H138176   0.552   6.923   0.955 -3.7745 -0.4105  1.0227
 5539TIP3    H238177   0.529   6.787   0.892 -1.9968 -0.0156 -0.5582
 5540TIP3   OH238178   2.349   5.141   7.370  0.5140  0.1904  0.1337
 5540TIP3    H138179   2.320   5.116   7.457  0.4857 -1.0679 -0.2172
 5540TIP3    H238180   2.311   5.228   7.355 -0.5413 -0.1416  0.8557
 5541TIP3   OH238181   0.056   3.937   0.593 -0.8105 -0.4509 -0.3668
 5541TIP3    H138182   0.146   3.937   0.560 -0.5732  1.2484  0.1910
 5541TIP3    H238183   0.023   3.851   0.570  1.1968 -1.4105  0.0709
 5542TIP3   OH238184   0.987   0.270   0.351 -0.0484  0.0096  0.7410
 5542TIP3    H138185   1.074   0.259   0.312 -0.0806  2.0426  0.0073
 5542TIP3    H238186   0.927   0.268   0.277 -0.5620 -0.4969  1.1608
 5543TIP3   OH238187   0.648   6.735   7.500  0.2341 -0.6095 -0.3571
 5543TIP3    H138188   0.592   6.813   7.498 -0.1930 -0.9009 -0.0821
 5543TIP3    H238189   0.605   6.677   7.563  0.1074 -1.3861 -1.1334
 5544TIP3   OH238190   2.593   0.159   0.234 -1.2950  0.8127  0.3894
 5544TIP3    H138191   2.641   0.227   0.280 -1.0592  1.6534 -1.0520
 5544TIP3    H238192   2.656   0.124   0.170 -2.0660  0.7717 -0.3684
 5545TIP3   OH238193   6.599   6.438   1.248  0.1965 -0.1587  0.7503
 5545TIP3    H138194   6.549   6.519   1.250 -1.6062 -1.1245 -1.1100
 5545TIP3    H238195   6.546   6.376   1.299 -0.5248 -1.1641 -1.1338
 5546TIP3   OH238196   6.355   0.282   0.510  0.0204  0.0372 -0.1346
 5546TIP3    H138197   6.265   0.297   0.539  0.6807  0.3219  1.9829
 5546TIP3    H238198   6.390   0.218   0.573  1.0137 -0.8431 -1.5148
 5547TIP3   OH238199   1.372   6.505   0.048  0.1543 -0.5418 -0.3410
 5547TIP3    H138200   1.410   6.469  -0.032 -0.2655 -0.5610 -0.5342
 5547TIP3    H238201   1.430   6.577   0.072  1.7131 -2.0921  0.7347
 5548TIP3   OH238202   4.537   1.706   8.265 -0.1016  0.2286 -0.4502
 5548TIP3    H138203   4.551   1.674   8.354 -1.5256  1.4327  0.2450
 5548TIP3    H238204   4.554   1.800   8.271 -0.4317  0.3532 -1.3994
 5549TIP3   OH238205   6.227   3.954   0.472 -0.6759  0.1525  0.0955
 5549TIP3    H138206   6.254   4.029   0.420  3.8697 -0.9509  0.4679
 5549TIP3    H238207   6.265   3.970   0.558 -1.1423 -1.7586  0.6950
 5550TIP3   OH238208   4.577   5.945   1.066 -0.0335 -0.1195  0.1982
 5550TIP3    H138209   4.549   5.976   0.980 -1.3880  0.0685  0.6824
 5550TIP3    H238210   4.496   5.918   1.110  0.4911  0.7681  1.8019
 5551TIP3   OH238211   3.808   6.810   0.290  0.4367  0.4506  0.7073
 5551TIP3    H138212   3.895   6.771   0.302  0.0921  0.2488  2.8068
 5551TIP3    H238213   3.816   6.898   0.327 -0.0840  0.6691  0.3066
 5552TIP3   OH238214   0.684   6.670   7.911 -0.0141 -0.3153  0.1193
 5552TIP3    H138215   0.772   6.685   7.877 -0.2958  1.8242  0.2159
 5552TIP3    H238216   0.650   6.597   7.859  0.7049  0.8197 -2.0522
 5553TIP3   OH238217   2.172   4.542   1.585  1.1761 -0.5187  0.0999
 5553TIP3    H138218   2.138   4.461   1.623 -1.9804  0.8792  0.6260
 5553TIP3    H238219   2.197   4.518   1.496 -1.4383 -1.8191 -0.3951
 5554TIP3   OH238220   5.853   4.517   2.254  0.1487  0.2890 -0.3293
 5554TIP3    H138221   5.849   4.556   2.167 -0.1804  1.4274  0.1701
 5554TIP3    H238222   5.762   4.507   2.280  0.2427 -0.2159 -0.1796
 5555TIP3   OH238223   1.497   2.246   8.264  0.2408 -0.4903 -0.3877
 5555TIP3    H138224   1.561   2.317   8.265 -1.2362  0.9493 -1.4276
 5555TIP3    H238225   1.504   2.209   8.176  0.1178 -0.7662 -0.2815
 5556TIP3   OH238226   2.510   5.355   2.478 -0.5571  0.0026  0.0709
 5556TIP3    H138227   2.589   5.408   2.487 -0.0585 -0.9233  1.3411
 5556TIP3    H238228   2.525   5.301   2.400  0.2210 -0.4075  0.4984
 5557TIP3   OH238229   0.971   5.972   0.706  0.3408  1.0592 -0.5974
 5557TIP3    H138230   0.987   5.957   0.799 -1.0147  0.2278 -0.4771
 5557TIP3    H238231   0.976   6.067   0.697 -1.0518  1.2830  0.6403
 5558TIP3   OH238232   0.490   6.247   1.025  0.2940  0.1209 -0.6174
 5558TIP3    H138233   0.444   6.163   1.022 -0.5580  0.5060  0.7926
 5558TIP3    H238234   0.537   6.246   1.108 -0.1267  1.2273 -0.3401
 5559TIP3   OH238235   0.456   2.281   8.147 -0.3177  0.4930 -0.0185
 5559TIP3    H138236   0.372   2.270   8.104 -0.8308 -1.3911  1.3108
 5559TIP3    H238237   0.506   2.203   8.124 -0.2223 -0.0545  1.8574
 5560TIP3   OH238238   1.098   6.174   1.388  0.0658 -0.3744  0.3483
 5560TIP3    H138239   1.043   6.232   1.441 -0.1779  0.5655 -0.9012
 5560TIP3    H238240   1.133   6.231   1.319 -0.0145 -1.6611 -0.7906
 5561TIP3   OH238241   5.513   4.607   2.487  0.3763 -0.3024  0.2281
 5561TIP3    H138242   5.480   4.583   2.574  0.6316 -0.3347  0.3195
 5561TIP3    H238243   5.567   4.533   2.461  2.0146  0.5547  0.9592
 5562TIP3   OH238244   0.864   3.262   2.008 -0.3918 -0.3090 -0.0810
 5562TIP3    H138245   0.831   3.308   1.931 -0.1561 -1.2525 -0.7616
 5562TIP3    H238246   0.841   3.319   2.081 -0.5451  0.6490 -0.8491
 5563TIP3   OH238247   2.246   4.968   0.335  0.2596  0.5345 -0.1099
 5563TIP3    H138248   2.307   4.906   0.295  1.2426  1.4125 -0.0330
 5563TIP3    H238249   2.159   4.937   0.310  0.6260 -1.7178  1.1794
 5564TIP3   OH238250   3.030   5.400   8.037 -0.3438  0.5547  0.5119
 5564TIP3    H138251   3.032   5.493   8.016 -0.3654  0.4623  0.1013
 5564TIP3    H238252   2.940   5.384   8.065 -1.1528  0.0721 -2.1323
 5565TIP3   OH238253   5.920   3.700   1.830 -0.5201 -0.0720 -0.2505
 5565TIP3    H138254   5.956   3.719   1.917 -1.7882 -1.0714  0.5193
 5565TIP3    H238255   5.841   3.754   1.824 -0.8499 -0.5786 -0.4762
 5566TIP3   OH238256   3.253   0.167   0.353 -0.1854 -0.4003 -0.5507
 5566TIP3    H138257   3.196   0.128   0.419 -0.2112 -0.2787 -0.5027
 5566TIP3    H238258   3.342   0.149   0.385 -0.1662  1.6232  0.6823
 5567TIP3   OH238259   1.183   6.986   1.544  0.3636  0.1866 -0.2564
 5567TIP3    H138260   1.217   7.039   1.616 -0.0066  2.0984 -1.4023
 5567TIP3    H238261   1.116   7.041   1.504 -0.4981 -1.4320 -1.1598
 5568TIP3   OH238262   4.564   4.238   8.124 -0.0414 -0.6169 -0.1780
 5568TIP3    H138263   4.620   4.294   8.177  0.6573 -0.9636 -0.5392
 5568TIP3    H238264   4.534   4.170   8.184  0.6170 -0.9142 -0.1717
 5569TIP3   OH238265   6.300   0.011   2.805  0.7395  0.2677  0.6451
 5569TIP3    H138266   6.395  -0.002   2.795  0.8242  0.3995  1.2486
 5569TIP3    H238267   6.291   0.105   2.822  0.2730  0.8278 -2.0875
 5570TIP3   OH238268   1.714   6.791   0.460  0.1234 -0.2755  0.1565
 5570TIP3    H138269   1.795   6.741   0.447  0.0783 -0.5532  0.8775
 5570TIP3    H238270   1.740   6.863   0.517 -0.1243 -0.3573  0.3768
 5571TIP3   OH238271   6.955   1.424   7.442  0.3263 -0.0126  0.2931
 5571TIP3    H138272   7.047   1.417   7.419  0.3899  2.1215 -0.2495
 5571TIP3    H238273   6.908   1.408   7.360  0.2036 -0.8662  0.5199
 5572TIP3   OH238274   4.911   4.059   0.799  0.0700 -0.3728 -0.4936
 5572TIP3    H138275   4.862   4.085   0.720  0.5169  0.2994 -0.5559
 5572TIP3    H238276   4.987   4.117   0.800 -0.4188  0.2929  0.9583
 5573TIP3   OH238277   1.411   5.837   0.256 -1.0583  0.4638 -0.0125
 5573TIP3    H138278   1.335   5.866   0.205 -1.2626 -0.3946 -0.2146
 5573TIP3    H238279   1.465   5.789   0.193  0.4160  2.3106 -0.2366
 5574TIP3   OH238280   3.450   1.533   2.760 -0.2449  0.1233 -0.2491
 5574TIP3    H138281   3.432   1.483   2.680  2.8771 -0.3192 -0.8003
 5574TIP3    H238282   3.459   1.624   2.729  0.8125 -0.0260 -0.4199
 5575TIP3   OH238283   5.004   6.039   7.644 -0.1211  0.1276 -0.0262
 5575TIP3    H138284   4.969   5.958   7.681  2.1037 -1.0961 -0.3903
 5575TIP3    H238285   4.930   6.079   7.599 -2.2127  0.1740  3.0949
 5576TIP3   OH238286   3.963   5.440   2.734 -0.1585  0.0040 -0.1522
 5576TIP3    H138287   4.041   5.452   2.680  0.7144 -1.4614  0.7284
 5576TIP3    H238288   3.897   5.495   2.692  1.3034  1.2238 -0.9720
 5577TIP3   OH238289   1.584   6.732   1.474 -0.0804 -0.1124 -0.4592
 5577TIP3    H138290   1.497   6.762   1.499  0.0022 -1.3653  1.6064
 5577TIP3    H238291   1.610   6.789   1.402 -1.0633  2.8022  1.3177
 5578TIP3   OH238292   6.657   4.806   2.093 -0.5341  0.0066 -0.7477
 5578TIP3    H138293   6.694   4.718   2.101  1.1812  0.7917  0.5138
 5578TIP3    H238294   6.603   4.817   2.171 -0.1126  0.3603 -0.5062
 5579TIP3   OH238295   0.545   4.417   2.831 -0.4419 -0.1944  0.1272
 5579TIP3    H138296   0.493   4.337   2.838 -1.1086  0.3046  1.1883
 5579TIP3    H238297   0.625   4.390   2.787  0.1104 -1.8460  1.9656
 5580TIP3   OH238298   0.724   0.675   0.035  0.3151  0.2519 -0.5361
 5580TIP3    H138299   0.758   0.606   0.092 -0.7621 -0.4719 -0.7304
 5580TIP3    H238300   0.801   0.708  -0.011  1.0456  0.1144  0.5486
 5581TIP3   OH238301   1.754   0.200   1.224 -0.1892 -0.1493  0.7262
 5581TIP3    H138302   1.830   0.167   1.272  1.0834 -0.1286 -1.1640
 5581TIP3    H238303   1.731   0.282   1.268  0.5101 -0.4539  1.6785
 5582TIP3   OH238304   3.528   0.253   0.157  0.1775  0.2075  0.0170
 5582TIP3    H138305   3.542   0.190   0.228  0.3623 -0.9567 -1.0094
 5582TIP3    H238306   3.546   0.338   0.196 -1.0453 -0.2598  1.7206
 5583TIP3   OH238307   6.675   0.223   1.593 -0.3052 -0.2462  0.2610
 5583TIP3    H138308   6.718   0.218   1.507  0.5978 -1.2053  0.7453
 5583TIP3    H238309   6.583   0.205   1.575 -0.4658  1.3515 -0.7389
 5584TIP3   OH238310   6.950   4.856   0.266  0.1176  0.2921  0.1605
 5584TIP3    H138311   6.954   4.810   0.350 -1.2434 -0.0945  0.0384
 5584TIP3    H238312   6.864   4.898   0.266 -0.2176 -0.3130 -1.3325
 5585TIP3   OH238313   3.271   0.689   1.167 -0.8201  0.1089  0.4215
 5585TIP3    H138314   3.182   0.692   1.201 -1.0118 -1.0435  0.0790
 5585TIP3    H238315   3.284   0.774   1.124 -1.2695  0.7956  1.6059
 5586TIP3   OH238316   5.283   2.021   3.089 -0.4454 -0.5336  0.3779
 5586TIP3    H138317   5.250   1.931   3.086 -0.8261 -0.3813 -0.1051
 5586TIP3    H238318   5.228   2.064   3.155  0.3756 -0.8958  1.3308
 5587TIP3   OH238319   0.773   1.490   2.160  0.0217  0.1882 -0.2280
 5587TIP3    H138320   0.850   1.545   2.172  0.1311 -0.1113  0.4698
 5587TIP3    H238321   0.731   1.489   2.246 -0.0084 -0.7680 -0.2498
 5588TIP3   OH238322   3.278   1.140   0.950  0.0978 -0.0191 -0.2772
 5588TIP3    H138323   3.201   1.186   0.984  1.3351  0.7533  1.5814
 5588TIP3    H238324   3.334   1.210   0.915 -0.2483 -0.6269 -2.1362
 5589TIP3   OH238325   3.302   1.811   0.698 -0.1424  0.0504 -0.1594
 5589TIP3    H138326   3.288   1.718   0.684 -0.0907 -0.1798  1.1852
 5589TIP3    H238327   3.246   1.854   0.633 -3.2596 -0.8759  1.7130
 5590TIP3   OH238328   2.520   2.282   2.054 -0.5149  0.8887 -0.0519
 5590TIP3    H138329   2.477   2.246   1.977 -3.2144  2.1369  0.7428
 5590TIP3    H238330   2.504   2.218   2.123  0.1899  0.6864 -0.0709
 5591TIP3   OH238331   4.794   2.772   1.804 -0.2529 -0.2332 -0.4780
 5591TIP3    H138332   4.873   2.795   1.755 -0.0629  0.1452 -0.0097
 5591TIP3    H238333   4.827   2.725   1.881 -0.3770  0.9419  0.3287
 5592TIP3   OH238334   1.893   2.886   3.084 -0.5956 -0.3736 -0.8329
 5592TIP3    H138335   1.895   2.851   3.173 -1.2122 -1.4287 -1.2121
 5592TIP3    H238336   1.966   2.948   3.080 -1.6080  1.0142  0.9185
 5593TIP3   OH238337   1.955   0.036   0.128  0.0615  0.0137 -0.1712
 5593TIP3    H138338   2.046   0.065   0.129 -0.4249  1.6484  1.0631
 5593TIP3    H238339   1.927   0.042   0.220 -1.7903  1.2307 -0.7624
 5594TIP3   OH238340   5.787   6.255   7.785  0.7130 -0.1711  0.0519
 5594TIP3    H138341   5.789   6.300   7.701  0.8309  0.5600  0.4374
 5594TIP3    H238342   5.726   6.307   7.838  1.4942  0.0296  0.7761
 5595TIP3   OH238343   0.507   3.430   1.972  0.2070  0.1470  0.0452
 5595TIP3    H138344   0.512   3.481   1.891  0.5768  0.0906  0.0326
 5595TIP3    H238345   0.485   3.495   2.040  0.6418  0.3190  0.0244
 5596TIP3   OH238346   3.323   5.546   0.388  0.2675  0.5376  0.5601
 5596TIP3    H138347   3.252   5.598   0.425 -0.1246  0.2261  0.2603
 5596TIP3    H238348   3.348   5.485   0.457 -1.2110 -0.7965 -0.0106
 5597TIP3   OH238349   1.186   6.081   2.427 -0.1716 -0.4355  0.0911
 5597TIP3    H138350   1.250   6.126   2.372 -0.1839 -0.1840  0.2786
 5597TIP3    H238351   1.167   6.144   2.497 -0.6013 -0.5214  0.0509
 5598TIP3   OH238352   3.257   1.298   0.400 -0.0778 -0.7425  0.1171
 5598TIP3    H138353   3.241   1.248   0.480 -0.3140 -2.6509 -1.0599
 5598TIP3    H238354   3.205   1.254   0.333 -1.9062  2.2990 -0.6660
 5599TIP3   OH238355   5.076   1.207   1.665  0.0180 -0.0755  0.0086
 5599TIP3    H138356   5.079   1.255   1.582 -1.5561 -1.1712 -0.7341
 5599TIP3    H238357   4.984   1.182   1.675  0.6356 -2.3439  0.6652
 5600TIP3   OH238358   1.415   0.767   1.159 -0.2243  0.4528 -0.2340
 5600TIP3    H138359   1.410   0.812   1.243  0.5756 -0.5328  0.3590
 5600TIP3    H238360   1.409   0.674   1.181 -0.9606  0.2239 -1.3550
 5601TIP3   OH238361   3.637   3.957   2.913  0.0588 -0.3920  0.3015
 5601TIP3    H138362   3.672   3.868   2.916 -1.1935 -0.9075 -0.0189
 5601TIP3    H238363   3.572   3.960   2.983 -0.9653 -0.2015 -0.6329
 5602TIP3   OH238364   4.584   1.738   0.829  0.3299  0.2228 -0.0324
 5602TIP3    H138365   4.572   1.826   0.793  1.3706  0.7932  0.9385
 5602TIP3    H238366   4.621   1.753   0.916 -3.6323 -1.0030  2.1350
 5603TIP3   OH238367   0.350   4.783   0.418 -0.2466  0.2154 -0.2795
 5603TIP3    H138368   0.329   4.703   0.370 -0.1660  0.7894 -1.2959
 5603TIP3    H238369   0.442   4.773   0.442 -0.6338 -0.6488  0.9148
 5604TIP3   OH238370   6.552   3.900   0.595 -0.6467 -0.5599  0.1018
 5604TIP3    H138371   6.519   3.856   0.516 -1.4015  2.6742 -1.5625
 5604TIP3    H238372   6.527   3.992   0.583  2.0922  0.6604  2.5900
 5605TIP3   OH238373   0.837   4.172   0.813  0.3351 -0.4845  0.3054
 5605TIP3    H138374   0.880   4.087   0.829  2.2680  0.0255 -1.6429
 5605TIP3    H238375   0.886   4.234   0.867 -0.1059 -0.3844  0.5917
 5606TIP3   OH238376   3.888   2.417   3.101 -0.5379  0.2846 -0.8376
 5606TIP3    H138377   3.893   2.507   3.134 -2.9769  0.2313 -0.1156
 5606TIP3    H238378   3.892   2.363   3.180 -2.0603 -0.0519 -0.9602
 5607TIP3   OH238379   2.628   3.771   1.682  0.0715 -0.5199  0.2856
 5607TIP3    H138380   2.574   3.845   1.710 -1.2962 -1.0288 -0.8730
 5607TIP3    H238381   2.713   3.810   1.662 -0.5873  0.7404 -0.1972
 5608TIP3   OH238382   2.802   2.234   1.323 -0.1598 -0.4297 -0.3783
 5608TIP3    H138383   2.835   2.158   1.275  1.3572 -0.3037  0.4126
 5608TIP3    H238384   2.796   2.205   1.414  1.2585  0.6134  0.0852
 5609TIP3   OH238385   6.785   6.524   8.049 -0.1762  0.1606  0.2025
 5609TIP3    H138386   6.724   6.451   8.040  0.0555 -0.3704  2.3947
 5609TIP3    H238387   6.833   6.526   7.966 -2.0838 -0.3881 -0.9547
 5610TIP3   OH238388   6.189   4.940   2.958 -0.7320 -0.5312 -0.4633
 5610TIP3    H138389   6.120   4.924   2.893 -0.3445 -0.8005 -0.8128
 5610TIP3    H238390   6.264   4.892   2.925  0.0214  0.8137 -0.7505
 5611TIP3   OH238391   1.138   4.206   7.518 -0.1882 -0.2745 -0.3693
 5611TIP3    H138392   1.143   4.180   7.426 -1.2599 -0.2139 -0.4635
 5611TIP3    H238393   1.044   4.215   7.535  0.0338  0.8487  0.4134
 5612TIP3   OH238394   0.914   5.818   8.144  0.1391 -0.3217 -0.0866
 5612TIP3    H138395   0.849   5.854   8.205  0.1343 -0.7197  0.1486
 5612TIP3    H238396   0.995   5.814   8.195  0.1244 -0.7012 -0.0888
 5613TIP3   OH238397   5.053   0.834   1.476  0.1725  0.5787 -0.5670
 5613TIP3    H138398   5.088   0.914   1.435 -0.2621  1.1998  0.2384
 5613TIP3    H238399   5.100   0.763   1.433  2.6812  1.3708  0.6193
 5614TIP3   OH238400   5.187   6.925   8.021 -0.9495  0.1440  0.0089
 5614TIP3    H138401   5.274   6.940   8.058 -0.5553 -0.7071 -0.5487
 5614TIP3    H238402   5.148   6.858   8.077 -1.4808  0.9068  0.5871
 5615TIP3   OH238403   4.717   0.091   1.077  0.3950  0.3253  0.6505
 5615TIP3    H138404   4.763   0.171   1.102  3.2293 -0.1328 -2.4701
 5615TIP3    H238405   4.778   0.021   1.097 -1.5638 -1.0528  2.2025
 5616TIP3   OH238406   2.430   6.814   1.552 -0.2128 -0.1756 -0.0430
 5616TIP3    H138407   2.519   6.837   1.577  0.6401 -1.4293 -1.7587
 5616TIP3    H238408   2.425   6.719   1.564  0.3511 -0.9808 -4.3980
 5617TIP3   OH238409   5.604   2.676   1.431  0.1745 -0.0155  0.5164
 5617TIP3    H138410   5.584   2.739   1.361  0.1644  0.8340  1.2695
 5617TIP3    H238411   5.648   2.604   1.386 -1.4863 -0.3525 -0.6711
 5618TIP3   OH238412   3.451   4.298   1.574  0.2672 -0.1769 -0.0366
 5618TIP3    H138413   3.395   4.358   1.624  0.9651  1.0203 -0.6330
 5618TIP3    H238414   3.512   4.263   1.637 -0.4989 -0.7109  0.4279
 5619TIP3   OH238415   2.714   2.948   1.554  0.3667  0.1701 -0.2301
 5619TIP3    H138416   2.794   2.980   1.512 -0.1506  0.1685 -1.2370
 5619TIP3    H238417   2.646   2.958   1.487 -0.4186 -0.1141  0.5103
 5620TIP3   OH238418   1.427   6.094   0.335 -0.1667 -0.5072  0.5098
 5620TIP3    H138419   1.419   5.999   0.345  1.2605 -0.7541 -0.4079
 5620TIP3    H238420   1.453   6.106   0.244  1.9881  0.5875  1.1988
 5621TIP3   OH238421   4.113   4.600   2.725  0.4212 -0.5311 -0.0140
 5621TIP3    H138422   4.200   4.595   2.686  0.7525 -1.0664  0.7625
 5621TIP3    H238423   4.073   4.515   2.705 -0.1433 -0.0690 -0.8663
 5622TIP3   OH238424   4.187   5.815   1.504  0.0412 -0.2778  0.5859
 5622TIP3    H138425   4.109   5.843   1.551 -1.1472 -0.2453 -1.3038
 5622TIP3    H238426   4.219   5.894   1.460 -1.2865 -1.0255 -1.9201
 5623TIP3   OH238427   6.322   3.546   0.148  0.4322  0.3231 -0.1410
 5623TIP3    H138428   6.235   3.510   0.128  1.3466 -1.2834 -1.4587
 5623TIP3    H238429   6.338   3.610   0.078  1.9552 -2.3948 -2.4763
 5624TIP3   OH238430   0.278   2.636   0.413  0.1152  0.7671  0.4850
 5624TIP3    H138431   0.273   2.727   0.441  2.0349  0.6858  1.2669
 5624TIP3    H238432   0.197   2.596   0.445  0.1265  1.7696  1.8541
 5625TIP3   OH238433   5.982   5.925   2.999 -0.8595 -0.2556  0.0931
 5625TIP3    H138434   5.970   5.883   3.084 -0.3211 -1.1185 -0.2458
 5625TIP3    H238435   5.960   5.858   2.935  0.4387 -0.1819 -0.4659
 5626TIP3   OH238436   2.736   0.611   1.493  0.4213  0.1329 -0.3030
 5626TIP3    H138437   2.823   0.644   1.513  0.7923 -0.4557 -0.8951
 5626TIP3    H238438   2.726   0.533   1.548 -0.5432  1.2917  1.2663
 5627TIP3   OH238439   3.700   7.043   7.982 -0.3237 -0.3099 -0.4906
 5627TIP3    H138440   3.686   7.011   7.893  0.1287 -0.9035 -0.3594
 5627TIP3    H238441   3.662   7.130   7.983 -0.6184 -0.4249 -1.1763
 5628TIP3   OH238442   2.277   5.753   3.423 -0.3394  0.1792  0.6475
 5628TIP3    H138443   2.241   5.665   3.418  3.6461 -1.5874 -1.6648
 5628TIP3    H238444   2.329   5.754   3.503 -1.5538  1.0683  1.4727
 5629TIP3   OH238445   5.908   3.804   7.178 -0.4557 -0.1237  0.5538
 5629TIP3    H138446   5.931   3.711   7.181  0.6681  0.1441  0.6695
 5629TIP3    H238447   5.960   3.838   7.105 -1.6889  0.2029 -0.1845
 5630TIP3   OH238448   3.468   2.770   0.294  0.6422  0.0230 -0.3993
 5630TIP3    H138449   3.480   2.815   0.210 -0.6306  0.4985 -0.3621
 5630TIP3    H238450   3.490   2.835   0.360  0.5306  0.0250 -0.3629
 5631TIP3   OH238451   0.309   1.615   0.231 -0.4057  0.1865 -0.4498
 5631TIP3    H138452   0.249   1.554   0.274  1.2508 -0.7689  0.5896
 5631TIP3    H238453   0.298   1.697   0.279 -1.3682  0.2316 -0.7245
 5632TIP3   OH238454   2.976   3.278   1.154  0.6540 -0.2664 -0.9818
 5632TIP3    H138455   2.984   3.372   1.169  0.4242  0.1138 -2.9826
 5632TIP3    H238456   3.038   3.260   1.084  2.0939 -1.9968  0.6507
 5633TIP3   OH238457   1.639   6.302   7.709  0.6062 -0.2092 -0.0151
 5633TIP3    H138458   1.555   6.333   7.742  0.2842  0.2408 -1.1997
 5633TIP3    H238459   1.642   6.333   7.618  0.6748 -2.8672 -1.0002
 5634TIP3   OH238460   1.239   2.416   8.028 -0.2523  0.1923 -0.6735
 5634TIP3    H138461   1.147   2.397   8.047  0.3767 -1.3287  1.3172
 5634TIP3    H238462   1.277   2.330   8.007  0.7896  0.7257 -1.0368
 5635TIP3   OH238463   6.098   4.253   1.982 -0.6019  0.3582  0.2953
 5635TIP3    H138464   6.171   4.246   2.043 -1.5303  0.1056  1.4021
 5635TIP3    H238465   6.132   4.307   1.910  1.1463 -1.0045  0.0319
 5636TIP3   OH238466   6.924   6.265   0.285  0.4381 -0.2237  0.3029
 5636TIP3    H138467   6.984   6.287   0.214 -1.9112  0.4995 -1.5830
 5636TIP3    H238468   6.944   6.328   0.354  0.3756  1.4599 -1.1633
 5637TIP3   OH238469   2.905   4.680   7.560 -0.0266  0.4387  0.2635
 5637TIP3    H138470   2.865   4.741   7.499  0.2009 -0.0015 -0.3315
 5637TIP3    H238471   2.993   4.666   7.525  1.3466  2.7482  2.4649
 5638TIP3   OH238472   3.692   5.709   0.948  0.3654 -0.6582 -0.1253
 5638TIP3    H138473   3.745   5.676   1.020  0.9152  1.2533  0.4056
 5638TIP3    H238474   3.753   5.724   0.876  0.0216 -1.3287 -0.5774
 5639TIP3   OH238475   4.268   3.191   1.965 -0.2491 -0.7339 -0.1946
 5639TIP3    H138476   4.245   3.247   2.039 -1.5698 -1.7633  0.2195
 5639TIP3    H238477   4.274   3.251   1.891  0.7411  0.2654  0.6506
 5640TIP3   OH238478   6.156   5.472   0.548 -0.3231  0.1276 -0.3868
 5640TIP3    H138479   6.067   5.461   0.579 -0.1659  0.1259  0.0679
 5640TIP3    H238480   6.159   5.424   0.465 -0.3875 -0.9653  0.2309
 5641TIP3   OH238481   0.469   6.730   1.732  0.4368 -0.0819  0.5639
 5641TIP3    H138482   0.429   6.650   1.697  1.6743 -0.1217 -0.8530
 5641TIP3    H238483   0.396   6.777   1.771 -1.0722 -0.1062 -2.0009
 5642TIP3   OH238484   6.170   4.663   1.958 -0.2933 -0.0449 -0.3561
 5642TIP3    H138485   6.155   4.691   2.048  0.1140 -0.6405 -0.0967
 5642TIP3    H238486   6.242   4.719   1.927  0.5672 -0.8227  0.1832
 5643TIP3   OH238487   2.014   3.128   1.401  0.0701  0.2536  0.0469
 5643TIP3    H138488   1.920   3.122   1.381 -0.5377  0.0365  2.5665
 5643TIP3    H238489   2.018   3.187   1.476  1.5479 -2.2589  2.1045
 5644TIP3   OH238490   4.798   4.460   2.662  0.1166  0.1266 -0.2234
 5644TIP3    H138491   4.819   4.547   2.627  1.4547  0.1304  0.5312
 5644TIP3    H238492   4.750   4.478   2.743 -0.4413  0.1410 -0.5511
 5645TIP3   OH238493   1.167   3.400   2.021 -1.0266 -0.4533 -0.9612
 5645TIP3    H138494   1.199   3.415   1.931 -0.2852 -0.1741 -0.6630
 5645TIP3    H238495   1.210   3.469   2.072 -0.2668 -1.5125 -0.1386
 5646TIP3   OH238496   0.452   6.156   0.569  0.1891  0.1491  0.3187
 5646TIP3    H138497   0.483   6.156   0.479 -1.2037 -0.1063 -0.1718
 5646TIP3    H238498   0.464   6.066   0.599  4.1165  0.9271  1.6785
 5647TIP3   OH238499   6.867   0.747   1.401  0.1171 -0.8079  0.3164
 5647TIP3    H138500   6.821   0.818   1.356  0.7349  0.0465  0.9973
 5647TIP3    H238501   6.798   0.700   1.448 -0.0710  0.7723  1.7520
 5648TIP3   OH238502   4.046   3.600   1.855 -0.1615  0.4724  0.8304
 5648TIP3    H138503   3.996   3.636   1.782  0.0952  1.0823  0.9496
 5648TIP3    H238504   4.105   3.537   1.815 -0.6074  0.1836  0.6169
 5649TIP3   OH238505   4.499   5.689   2.723  0.5203 -0.1248 -0.2389
 5649TIP3    H138506   4.525   5.665   2.811 -3.0661  0.0010  1.0314
 5649TIP3    H238507   4.437   5.761   2.735  1.0047  0.8647 -2.9841
 5650TIP3   OH238508   3.357   1.733   7.722 -0.2600 -0.2859 -0.3301
 5650TIP3    H138509   3.397   1.719   7.636 -0.2688  0.5595 -0.4802
 5650TIP3    H238510   3.334   1.826   7.723  2.3955  0.4835  1.7030
 5651TIP3   OH238511   2.055   0.193   2.900  0.7956 -0.3615 -0.1883
 5651TIP3    H138512   2.073   0.286   2.910 -0.2561 -0.1208 -0.3805
 5651TIP3    H238513   2.027   0.184   2.808  0.7269 -0.8289 -0.1238
 5652TIP3   OH238514   4.311   3.692   0.142 -0.9928  0.3566  0.1695
 5652TIP3    H138515   4.293   3.690   0.047 -0.4987 -1.1650  0.0788
 5652TIP3    H238516   4.236   3.738   0.179 -0.9599  1.4268 -0.9992
 5653TIP3   OH238517   6.762   3.224   2.482  0.1027 -0.1294  0.4457
 5653TIP3    H138518   6.718   3.305   2.508  0.8648  0.3232  0.3708
 5653TIP3    H238519   6.712   3.155   2.524 -0.4859  0.3907  0.6194
 5654TIP3   OH238520   0.040   1.092   1.190  0.3477 -0.0335 -0.0610
 5654TIP3    H138521   0.005   1.023   1.134  2.8407 -1.4212 -0.0489
 5654TIP3    H238522   0.097   1.142   1.133  2.2380 -0.9291  0.9624
 5655TIP3   OH238523   0.865   6.093   7.726 -0.3084 -0.5008 -0.7528
 5655TIP3    H138524   0.911   6.153   7.668 -0.7153  0.7958  0.2120
 5655TIP3    H238525   0.775   6.092   7.693  0.1780 -2.5052 -2.2222
 5656TIP3   OH238526   2.227   0.112   0.069  0.1107  0.2255  0.6104
 5656TIP3    H138527   2.232   0.191   0.123 -1.7656  0.1483  0.9714
 5656TIP3    H238528   2.168   0.136  -0.002 -1.2808 -1.1169  1.2600
 5657TIP3   OH238529   0.528   7.015   1.118  0.2415 -0.3541  0.2150
 5657TIP3    H138530   0.457   6.963   1.154 -2.2971  0.4767 -3.1158
 5657TIP3    H238531   0.497   7.106   1.123  1.9700  0.2711  0.4545
 5658TIP3   OH238532   2.214   5.568   1.642 -0.1792 -0.3390 -0.6142
 5658TIP3    H138533   2.161   5.540   1.717  2.0849 -0.0551  1.1869
 5658TIP3    H238534   2.152   5.571   1.569 -2.2358 -1.7990  0.9531
 5659TIP3   OH238535   0.237   2.899   8.065 -0.6785 -0.9073 -0.3698
 5659TIP3    H138536   0.196   2.875   8.148 -0.1241 -0.1667  0.1312
 5659TIP3    H238537   0.305   2.833   8.051  2.3546  1.3466  2.1160
 5660TIP3   OH238538   2.581   4.021   2.213  0.0078  0.0495  0.0676
 5660TIP3    H138539   2.666   4.006   2.170  0.7331  1.3016  1.0123
 5660TIP3    H238540   2.522   3.959   2.170  0.8993  0.5819 -2.0930
 5661TIP3   OH238541   1.288   6.881   0.826  0.8707 -0.6760  0.2869
 5661TIP3    H138542   1.358   6.929   0.782 -0.8438  2.2040  0.4285
 5661TIP3    H238543   1.315   6.879   0.918  0.6968  0.6358  0.3842
 5662TIP3   OH238544   4.879   3.963   2.164  0.3919 -0.3081  0.5022
 5662TIP3    H138545   4.788   3.951   2.136 -0.1748  0.9154  1.6660
 5662TIP3    H238546   4.908   3.876   2.192 -0.1041 -0.8897 -0.7440
 5663TIP3   OH238547   6.538   7.025   2.627  0.0776  0.0900  0.2708
 5663TIP3    H138548   6.618   7.005   2.578 -0.3555 -1.8190  0.2844
 5663TIP3    H238549   6.501   6.940   2.649 -1.5124  0.9340  1.0275
 5664TIP3   OH238550   6.701   2.721   8.082  0.0778 -0.0991  0.0625
 5664TIP3    H138551   6.726   2.799   8.131 -1.2182  0.2620  0.2000
 5664TIP3    H238552   6.656   2.666   8.146  1.1957 -1.0745  0.0231
 5665TIP3   OH238553   4.207   1.448   0.850 -0.4810 -0.7148 -0.3107
 5665TIP3    H138554   4.213   1.352   0.851 -1.6965 -0.8184  1.3894
 5665TIP3    H238555   4.132   1.467   0.794 -1.4142 -0.8793  0.8551
 5666TIP3   OH238556   5.147   0.149   0.623 -0.5796  0.1127  0.0227
 5666TIP3    H138557   5.153   0.180   0.714  0.2122  1.3747 -0.4354
 5666TIP3    H238558   5.088   0.211   0.580 -2.6814 -1.6878  0.1196
 5667TIP3   OH238559   1.811   1.947   2.081 -0.2785  0.5490 -0.1296
 5667TIP3    H138560   1.879   1.956   2.014 -0.1205 -1.1823 -0.2418
 5667TIP3    H238561   1.859   1.924   2.161 -0.7063 -0.3994 -0.1439
 5668TIP3   OH238562   4.527   2.900   1.794 -0.0883 -0.3829 -0.4558
 5668TIP3    H138563   4.595   2.837   1.770  2.4158  1.9068  0.0459
 5668TIP3    H238564   4.538   2.912   1.888 -1.6760 -0.4327 -0.2473
 5669TIP3   OH238565   0.263   5.316   7.286  0.3482 -0.0024  0.4248
 5669TIP3    H138566   0.349   5.345   7.316  0.9446  1.0317 -2.0438
 5669TIP3    H238567   0.208   5.394   7.290  0.5751  0.2993 -1.4782
 5670TIP3   OH238568   6.707   4.710   1.365 -0.4072 -0.0200 -0.0382
 5670TIP3    H138569   6.749   4.662   1.437  0.2401 -0.8139 -0.9177
 5670TIP3    H238570   6.661   4.782   1.408  2.4105  1.3541  0.9683
 5671TIP3   OH238571   4.581   0.571   0.014  0.1484 -0.0710 -0.0461
 5671TIP3    H138572   4.568   0.542   0.104  1.2084  0.1839  0.1966
 5671TIP3    H238573   4.618   0.659   0.023 -2.3837  1.1775 -0.7465
 5672TIP3   OH238574   2.148   5.804   1.013  0.5538  0.1623 -0.7399
 5672TIP3    H138575   2.076   5.776   0.956 -0.0927  0.2136  0.0418
 5672TIP3    H238576   2.228   5.779   0.965  0.0204 -1.9254 -0.5984
 5673TIP3   OH238577   5.873   2.310   2.273 -0.0316  0.2046 -0.0516
 5673TIP3    H138578   5.820   2.385   2.299 -0.4881 -0.3130  0.5337
 5673TIP3    H238579   5.814   2.235   2.282  0.7758 -0.3734  0.5328
 5674TIP3   OH238580   2.887   1.558   8.233 -0.1023  0.3034 -0.2094
 5674TIP3    H138581   2.821   1.573   8.166 -0.1027  1.4094  0.0223
 5674TIP3    H238582   2.860   1.612   8.307  0.3250 -0.2940  0.4007
 5675TIP3   OH238583   2.257   1.599   1.166  0.3986 -0.0183  0.6159
 5675TIP3    H138584   2.246   1.637   1.079  1.0526  0.5184  0.7541
 5675TIP3    H238585   2.230   1.508   1.156 -2.3525  0.7270  0.5496
 5676TIP3   OH238586   1.300   3.099   8.256 -0.1660  0.9439 -0.0755
 5676TIP3    H138587   1.231   3.069   8.195 -1.7684  0.1358  2.0161
 5676TIP3    H238588   1.338   3.019   8.291  0.1052  1.3807  0.6493
 5677TIP3   OH238589   0.210   5.036   8.105  0.4458 -0.4538 -0.1833
 5677TIP3    H138590   0.206   5.002   8.194 -0.0870  2.3395  0.9746
 5677TIP3    H238591   0.126   5.081   8.093  0.7476 -0.2858 -1.8957
 5678TIP3   OH238592   3.721   5.545   2.321  0.0312 -0.4106  0.3038
 5678TIP3    H138593   3.651   5.501   2.274  0.7786  0.9462 -2.3323
 5678TIP3    H238594   3.801   5.520   2.274  0.7338  1.7571  0.2240
 5679TIP3   OH238595   1.598   3.812   0.689  0.2825  0.1247  0.5364
 5679TIP3    H138596   1.579   3.904   0.708  0.2914  0.7677 -2.2459
 5679TIP3    H238597   1.641   3.813   0.603 -1.0776 -2.5840 -0.2749
 5680TIP3   OH238598   4.309   4.828   2.356 -0.1102 -0.7651  0.3202
 5680TIP3    H138599   4.247   4.769   2.313  0.0775  0.2808 -1.4647
 5680TIP3    H238600   4.386   4.774   2.372 -0.9730 -1.7472  1.4260
 5681TIP3   OH238601   4.926   4.277   1.554  0.0940  0.3947  0.4459
 5681TIP3    H138602   4.993   4.212   1.535 -0.4812  0.2661 -1.3017
 5681TIP3    H238603   4.844   4.236   1.528 -0.3238  1.6410 -0.2987
 5682TIP3   OH238604   4.645   4.969   0.556 -0.5585 -0.4264 -0.4862
 5682TIP3    H138605   4.664   4.984   0.463  1.3982  2.1561  0.2122
 5682TIP3    H238606   4.576   5.033   0.577 -0.0301 -0.0372  0.1065
 5683TIP3   OH238607   4.210   1.654   7.507  0.2453  0.0093  0.8492
 5683TIP3    H138608   4.225   1.559   7.513 -0.0085 -0.0980 -0.0921
 5683TIP3    H238609   4.250   1.689   7.586  0.7822 -0.8353  0.9662
 5684TIP3   OH238610   2.598   6.688   0.090 -0.5397 -0.0393  0.7912
 5684TIP3    H138611   2.632   6.704   0.177 -2.5040  1.2976  1.3865
 5684TIP3    H238612   2.628   6.763   0.038  1.9189 -1.5768 -0.1728
 5685TIP3   OH238613   2.582   2.700   2.169 -0.0021 -0.0736 -0.0173
 5685TIP3    H138614   2.660   2.734   2.213  1.0730  0.6964 -2.3426
 5685TIP3    H238615   2.528   2.777   2.153 -1.0421 -0.5380  1.1426
 5686TIP3   OH238616   4.547   5.953   1.979 -0.1560  0.5551 -0.7816
 5686TIP3    H138617   4.638   5.976   1.961 -0.6408  3.0866 -0.3251
 5686TIP3    H238618   4.504   5.955   1.893 -0.2300  1.6709 -0.7290
 5687TIP3   OH238619   0.551   6.318   7.342 -0.4848  0.0953 -0.2142
 5687TIP3    H138620   0.542   6.232   7.381 -0.9740 -0.2718 -1.1069
 5687TIP3    H238621   0.492   6.317   7.266 -0.3800  1.1528 -0.3354
 5688TIP3   OH238622   3.879   4.667   2.092 -0.4314 -0.4797  0.5919
 5688TIP3    H138623   3.812   4.600   2.105 -0.2090 -0.8764 -0.2394
 5688TIP3    H238624   3.842   4.725   2.026 -1.1439  0.9521  2.1739
 5689TIP3   OH238625   1.364   3.244   2.372 -0.0596 -0.6634 -0.4882
 5689TIP3    H138626   1.333   3.334   2.371 -2.4799 -1.4257 -1.8756
 5689TIP3    H238627   1.413   3.236   2.454  0.8296  2.0553 -0.6644
 5690TIP3   OH238628   0.961   2.326   8.012 -0.2429  0.2195 -0.8308
 5690TIP3    H138629   0.932   2.417   8.018  2.5249  1.1907 -0.8567
 5690TIP3    H238630   0.903   2.279   8.071 -0.1827  2.4564  1.1687
 5691TIP3   OH238631   6.549   0.407   7.398  0.0782  0.4415  0.4192
 5691TIP3    H138632   6.615   0.350   7.360 -0.4207  0.0531  0.1204
 5691TIP3    H238633   6.500   0.350   7.457  0.8674  1.0417  1.6966
 5692TIP3   OH238634   3.222   4.005   8.257  0.2163 -0.0086 -0.0809
 5692TIP3    H138635   3.301   3.996   8.311 -0.4161  0.7243  1.0139
 5692TIP3    H238636   3.249   4.060   8.184  1.2449 -1.5099 -0.8719
 5693TIP3   OH238637   2.376   3.798   1.180 -0.5842 -0.5659  0.4106
 5693TIP3    H138638   2.363   3.764   1.268 -0.0023 -0.3115  0.5977
 5693TIP3    H238639   2.380   3.893   1.191  1.0196 -0.5998  0.3294
 5694TIP3   OH238640   3.884   3.326   3.528  0.0567  0.5398  0.5230
 5694TIP3    H138641   3.905   3.268   3.455 -1.2415 -1.5802  1.7296
 5694TIP3    H238642   3.909   3.413   3.497  0.8822 -0.4534 -1.8756
 5695TIP3   OH238643   0.306   1.306   1.953  0.0354 -0.2036  0.5125
 5695TIP3    H138644   0.293   1.317   1.859 -1.0590 -2.6042  0.3098
 5695TIP3    H238645   0.227   1.343   1.993 -0.8549 -1.7706  0.2584
 5696TIP3   OH238646   5.112   2.135   0.130  0.1950 -0.4399  0.0548
 5696TIP3    H138647   5.176   2.148   0.060 -1.9074  1.3551 -1.7126
 5696TIP3    H238648   5.158   2.159   0.210  1.9233  0.1141 -1.0392
 5697TIP3   OH238649   5.680   4.294   2.178  0.0399 -0.5187 -0.2496
 5697TIP3    H138650   5.589   4.308   2.205 -0.1194 -0.2626 -0.8885
 5697TIP3    H238651   5.691   4.351   2.102  0.8669 -0.2257  0.0781
 5698TIP3   OH238652   6.496   4.650   1.034 -0.1239  0.4082  0.6613
 5698TIP3    H138653   6.510   4.590   1.107  0.7213 -0.9334 -0.5495
 5698TIP3    H238654   6.478   4.734   1.075  0.7831 -0.2066  2.4025
 5699TIP3   OH238655   2.491   5.109   0.518 -0.7002 -0.1596  0.3537
 5699TIP3    H138656   2.414   5.054   0.507 -0.2098 -0.8706  0.4339
 5699TIP3    H238657   2.560   5.049   0.548 -0.3702  0.6320  1.2210
 5700TIP3   OH238658   1.456   2.397   1.261  0.1183  0.2807  0.6921
 5700TIP3    H138659   1.490   2.307   1.268 -0.3387  0.1645  1.5651
 5700TIP3    H238660   1.511   2.447   1.321  0.5014  0.6364  0.0551
 5701TIP3   OH238661   1.242   1.307   1.360 -0.0767 -0.1551  0.0566
 5701TIP3    H138662   1.152   1.316   1.329 -0.2614  2.5639  1.0843
 5701TIP3    H238663   1.251   1.377   1.425  2.9415 -0.0304 -0.3968
 5702TIP3   OH238664   1.683   2.890   7.642 -0.2219  0.1273 -0.2967
 5702TIP3    H138665   1.678   2.962   7.578  0.5110  0.0262 -0.4797
 5702TIP3    H238666   1.601   2.895   7.690 -0.4296  0.7276 -0.6982
 5703TIP3   OH238667   4.932   2.942   3.811 -0.2695  0.2594 -0.4422
 5703TIP3    H138668   4.993   2.909   3.745  1.7900 -0.1447  1.5383
 5703TIP3    H238669   4.937   3.037   3.803  1.7671  0.2866  0.5829
 5704TIP3   OH238670   1.481   3.926   8.033 -0.0670  0.1917  0.3150
 5704TIP3    H138671   1.576   3.934   8.043 -0.1768  0.1036  1.7153
 5704TIP3    H238672   1.466   3.832   8.026 -0.0028  0.2453 -0.6085
 5705TIP3   OH238673   3.114   3.435   1.703 -0.4384  0.3515  0.1871
 5705TIP3    H138674   3.108   3.461   1.795 -0.5983  2.1557 -0.2945
 5705TIP3    H238675   3.048   3.488   1.659  0.2905  0.2130 -1.1151
 5706TIP3   OH238676   5.489   2.294   7.812 -0.1556  0.3022  0.2332
 5706TIP3    H138677   5.526   2.208   7.832 -1.6735 -0.7327 -1.2160
 5706TIP3    H238678   5.498   2.303   7.717  1.0443  2.3022  0.4666
 5707TIP3   OH238679   3.458   2.236   7.711 -0.1461 -0.1741  0.2657
 5707TIP3    H138680   3.540   2.281   7.692 -0.7102  0.0545 -1.7761
 5707TIP3    H238681   3.466   2.151   7.669 -0.9064 -0.2103  0.1772
 5708TIP3   OH238682   5.942   3.930   0.428  0.2474  0.6900  0.4351
 5708TIP3    H138683   5.941   3.854   0.370 -0.2845  1.7961 -1.0651
 5708TIP3    H238684   6.035   3.946   0.445  0.5137  1.2735 -1.4092
 5709TIP3   OH238685   2.054   3.106   3.307 -0.0697 -0.0550 -0.0374
 5709TIP3    H138686   2.113   3.072   3.373  1.2130  3.2224  0.6904
 5709TIP3    H238687   2.094   3.081   3.223  1.6298  0.9301  0.4547
 5710TIP3   OH238688   4.700   3.196   0.100 -0.1169 -0.2059 -0.4146
 5710TIP3    H138689   4.650   3.236   0.029 -0.9193 -0.4071  0.0220
 5710TIP3    H238690   4.739   3.117   0.061 -0.1417 -0.0499 -0.7577
 5711TIP3   OH238691   0.059   5.301   2.556 -0.1377 -0.0554 -0.1741
 5711TIP3    H138692   0.080   5.228   2.498 -0.9998 -0.4205 -0.0396
 5711TIP3    H238693   0.143   5.344   2.571  0.2385 -0.4795 -0.9780
 5712TIP3   OH238694   4.173   3.752   3.827 -0.1378 -0.0203  0.7615
 5712TIP3    H138695   4.237   3.685   3.850 -1.7819 -2.9014 -2.2034
 5712TIP3    H238696   4.183   3.763   3.732 -3.4878 -0.1073  0.2837
 5713TIP3   OH238697   1.848   6.006   8.098  0.4196 -0.3587 -0.0380
 5713TIP3    H138698   1.936   5.987   8.067  1.0098  1.6854  0.1861
 5713TIP3    H238699   1.791   5.948   8.048  1.6995 -0.0367 -1.9850
 5714TIP3   OH238700   0.128   2.903   1.768  0.4194  0.4472  0.6774
 5714TIP3    H138701   0.037   2.931   1.761  0.4615  0.7573  1.3333
 5714TIP3    H238702   0.153   2.924   1.858  1.5110  1.4493  0.1527
 5715TIP3   OH238703   2.834   2.890   1.179 -0.3294  0.0057  0.1599
 5715TIP3    H138704   2.760   2.873   1.121 -0.8883  0.7426  0.6365
 5715TIP3    H238705   2.852   2.806   1.221 -1.3958 -0.0267  0.5938
 5716TIP3   OH238706   5.031   0.726   7.931  0.2384  0.5509  0.1350
 5716TIP3    H138707   5.074   0.691   7.853  2.0085  1.4989  0.6286
 5716TIP3    H238708   4.939   0.736   7.905  0.5462 -0.2964 -1.4132
 5717TIP3   OH238709   4.381   3.237   0.454  0.4419  0.1742  0.3019
 5717TIP3    H138710   4.434   3.169   0.412  1.0617  0.3522  0.7785
 5717TIP3    H238711   4.390   3.313   0.397 -1.5469 -0.5494 -1.1157
 5718TIP3   OH238712   4.428   0.948   0.734  0.0409 -0.3000 -0.2916
 5718TIP3    H138713   4.381   1.027   0.762 -0.3321 -0.6401  0.0444
 5718TIP3    H238714   4.376   0.876   0.769 -0.2187 -0.7277 -1.5017
 5719TIP3   OH238715   4.094   0.950   7.757  0.4738 -0.0007 -0.1392
 5719TIP3    H138716   4.087   1.020   7.691 -0.6555 -0.0347 -0.0703
 5719TIP3    H238717   4.188   0.933   7.763  0.6848  0.7816 -0.9279
 5720TIP3   OH238718   3.353   1.094   0.013 -0.9072  0.2926 -0.1835
 5720TIP3    H138719   3.446   1.112   0.019 -0.4185 -2.0802  0.0884
 5720TIP3    H238720   3.319   1.162  -0.045  0.8407  1.6013  0.2591
 5721TIP3   OH238721   0.074   6.749   0.427 -0.2313  0.0196  0.6594
 5721TIP3    H138722   0.061   6.754   0.522 -0.8686 -0.6597  0.6081
 5721TIP3    H238723   0.007   6.807   0.391 -1.5329 -1.4938  0.5276
 5722TIP3   OH238724   5.008   4.214   1.093  0.1382 -0.4282 -0.5375
 5722TIP3    H138725   5.018   4.266   1.173  4.1591 -1.8904  0.1538
 5722TIP3    H238726   5.018   4.278   1.022 -1.7014  0.6294  0.0985
 5723TIP3   OH238727   3.767   6.374   2.172  0.0625 -0.5770 -0.1842
 5723TIP3    H138728   3.685   6.358   2.124  0.3135 -1.0543 -0.4608
 5723TIP3    H238729   3.738   6.399   2.260 -0.3830 -1.7923  0.0446
 5724TIP3   OH238730   3.237   0.860   0.121  0.3145 -0.6534 -0.1407
 5724TIP3    H138731   3.269   0.939   0.077  0.5985 -0.6685  0.0293
 5724TIP3    H238732   3.178   0.818   0.058 -0.8587  0.3658  0.2354
 5725TIP3   OH238733   0.468   5.843   1.214 -0.3020 -0.2230 -0.0155
 5725TIP3    H138734   0.545   5.861   1.268  0.9637  0.5713 -2.0033
 5725TIP3    H238735   0.501   5.840   1.124 -2.2865 -1.8421 -0.7645
 5726TIP3   OH238736   2.167   6.813   0.221  0.3670 -0.1356 -0.5176
 5726TIP3    H138737   2.100   6.880   0.210  0.5180  0.9761  3.6767
 5726TIP3    H238738   2.250   6.861   0.218  0.5336 -0.2236  1.3215
 5727TIP3   OH238739   5.470   0.266   0.923 -0.1328  0.1851  0.0617
 5727TIP3    H138740   5.379   0.250   0.899 -0.0382  1.6981 -1.4649
 5727TIP3    H238741   5.471   0.265   1.019 -1.3646 -1.7523  0.0978
 5728TIP3   OH238742   6.185   4.114   8.250 -0.2104 -0.0161  0.3853
 5728TIP3    H138743   6.272   4.108   8.209 -0.0730  0.5881  0.5759
 5728TIP3    H238744   6.202   4.100   8.343 -0.3009  0.2280  0.4380
 5729TIP3   OH238745   6.592   3.555   3.036 -0.6691 -0.5275 -0.5570
 5729TIP3    H138746   6.540   3.608   2.976 -1.4814  0.9355  1.3242
 5729TIP3    H238747   6.527   3.507   3.088 -0.3240  1.4752  1.9623
 5730TIP3   OH238748   1.416   4.225   2.178 -0.2776 -0.2360  0.1441
 5730TIP3    H138749   1.351   4.286   2.212 -2.2423 -2.1181 -0.1011
 5730TIP3    H238750   1.413   4.150   2.236 -0.9309 -1.8695 -1.8877
 5731TIP3   OH238751   2.351   3.330   0.143  0.0617  0.0641  0.1713
 5731TIP3    H138752   2.373   3.387   0.217 -0.9163  0.6989 -0.0010
 5731TIP3    H238753   2.316   3.389   0.076  0.8607 -0.5089 -0.7858
 5732TIP3   OH238754   4.067   2.247   0.423  0.0771  0.2873  0.8399
 5732TIP3    H138755   4.093   2.326   0.375  0.6841  0.2870  1.1636
 5732TIP3    H238756   4.071   2.177   0.358  0.8845  0.2903  0.8825
 5733TIP3   OH238757   2.874   1.179   1.684  0.1371 -0.3058 -0.5614
 5733TIP3    H138758   2.944   1.127   1.645  0.2350  0.4521 -1.4197
 5733TIP3    H238759   2.833   1.120   1.747  1.6051 -0.7411  0.0371
 5734TIP3   OH238760   4.346   1.266   1.599  0.3134  0.2526 -0.0081
 5734TIP3    H138761   4.259   1.280   1.637  0.4613  1.2537 -0.0113
 5734TIP3    H238762   4.396   1.223   1.669 -0.4874 -1.3844 -0.3912
 5735TIP3   OH238763   6.002   0.832   2.532 -0.1630  0.2692 -0.5775
 5735TIP3    H138764   6.032   0.921   2.554  0.9505 -0.1115 -0.4977
 5735TIP3    H238765   5.958   0.842   2.448  1.6068  0.6197 -1.5113
 5736TIP3   OH238766   3.102   2.019   7.492  0.3029 -0.0636  0.0595
 5736TIP3    H138767   3.140   1.936   7.464 -1.4317 -0.6186 -0.8159
 5736TIP3    H238768   3.121   2.024   7.585  0.9608 -1.1587  0.0004
 5737TIP3   OH238769   3.586   6.875   1.189 -0.1131  0.3169 -0.1831
 5737TIP3    H138770   3.578   6.963   1.151 -1.2993  0.9812  1.4646
 5737TIP3    H238771   3.518   6.872   1.256  0.3469 -1.6401  0.2569
 5738TIP3   OH238772   5.804   4.533   0.402  0.1141  0.6231 -0.1231
 5738TIP3    H138773   5.800   4.594   0.476 -0.6689 -0.5958  0.8779
 5738TIP3    H238774   5.713   4.504   0.390  0.4903 -0.4517 -0.4820
 5739TIP3   OH238775   3.351   0.982   1.708 -0.4594  0.3763 -0.1605
 5739TIP3    H138776   3.412   0.985   1.781 -0.7365  1.8956  0.0407
 5739TIP3    H238777   3.373   1.058   1.654  0.1487 -1.0361 -2.0467
 5740TIP3   OH238778   1.209   1.806   1.819 -0.4098 -0.1484  0.8205
 5740TIP3    H138779   1.149   1.780   1.749  2.0817 -1.7529 -0.8919
 5740TIP3    H238780   1.252   1.725   1.845  3.0758  1.1799 -0.1566
 5741TIP3   OH238781   0.370   5.018   7.248  0.1338 -0.0096  0.6926
 5741TIP3    H138782   0.323   5.087   7.202 -0.5762 -0.4567  0.7348
 5741TIP3    H238783   0.430   4.982   7.182  0.0921  0.2545  0.5079
 5742TIP3   OH238784   6.392   2.650   1.687 -0.0636 -0.1272 -0.6279
 5742TIP3    H138785   6.454   2.686   1.624  0.5398  1.7498  0.9124
 5742TIP3    H238786   6.441   2.582   1.733 -0.3808 -1.2255 -1.8744
 5743TIP3   OH238787   5.341   3.458   0.586 -0.4519  0.5423  0.4699
 5743TIP3    H138788   5.329   3.371   0.625 -4.1408  1.5394  2.0276
 5743TIP3    H238789   5.349   3.517   0.661  0.9503  1.7192 -0.5551
 5744TIP3   OH238790   6.925   3.945   1.369 -0.3641  0.0750  0.6014
 5744TIP3    H138791   6.992   3.890   1.409 -0.5470  0.5592  1.6136
 5744TIP3    H238792   6.906   4.011   1.435 -1.4844  0.2426  0.1345
 5745TIP3   OH238793   0.289   2.968   1.029 -0.2870  0.2727  0.0124
 5745TIP3    H138794   0.375   2.952   1.068 -0.1170 -0.1108 -0.5131
 5745TIP3    H238795   0.229   2.966   1.103  0.0359 -0.4117  0.2609
 5746TIP3   OH238796   1.180   3.693   1.793  0.0371 -0.5675  0.0701
 5746TIP3    H138797   1.214   3.605   1.813 -0.8301 -0.7959  0.6195
 5746TIP3    H238798   1.237   3.726   1.723 -0.2327 -1.9708 -0.8559
 5747TIP3   OH238799   2.425   1.020   7.406  0.2935  0.4663  0.3269
 5747TIP3    H138800   2.457   0.960   7.474 -2.0460 -1.4523 -0.1627
 5747TIP3    H238801   2.429   0.969   7.325  0.2898  1.7448 -0.5042
 5748TIP3   OH238802   4.691   5.849   2.210  0.1420  0.1219  0.3838
 5748TIP3    H138803   4.689   5.790   2.135 -0.9380 -0.2632  0.6959
 5748TIP3    H238804   4.623   5.816   2.268 -1.3237  2.3403  0.0486
 5749TIP3   OH238805   4.675   3.204   3.366 -0.3959 -0.7036 -0.3842
 5749TIP3    H138806   4.616   3.278   3.380 -0.4269 -0.3862 -1.9466
 5749TIP3    H238807   4.737   3.207   3.438 -0.7358  0.5192 -0.1337
 5750TIP3   OH238808   1.338   1.540   2.909  0.1461  0.2189 -0.5594
 5750TIP3    H138809   1.323   1.535   3.003 -1.1690  1.0572 -0.6822
 5750TIP3    H238810   1.327   1.633   2.888  0.6166  0.0777 -1.5103
 5751TIP3   OH238811   6.725   1.145   1.951  0.0128 -0.1466  0.2071
 5751TIP3    H138812   6.662   1.169   2.019  2.0682  1.5535  1.6480
 5751TIP3    H238813   6.740   1.051   1.965 -2.0624 -0.5697 -0.1223
 5752TIP3   OH238814   1.125   5.831   2.495 -0.5264  0.0593  0.2642
 5752TIP3    H138815   1.030   5.843   2.486 -0.3476  1.0082 -0.4776
 5752TIP3    H238816   1.162   5.918   2.482  0.3711 -0.0027  1.9934
 5753TIP3   OH238817   0.472   3.910   1.223 -0.1354  0.4352  0.4667
 5753TIP3    H138818   0.412   3.967   1.176 -1.0753 -0.9802 -0.1442
 5753TIP3    H238819   0.418   3.872   1.293  0.8520  1.3734  1.7776
 5754TIP3   OH238820   3.265   1.607   3.223 -0.3895 -0.3844  0.2338
 5754TIP3    H138821   3.323   1.682   3.241  1.8993 -2.1297  0.7003
 5754TIP3    H238822   3.227   1.586   3.308  0.8724 -1.1604  0.6461
 5755TIP3   OH238823   3.444   5.050   2.385 -0.1545 -0.1508 -0.4657
 5755TIP3    H138824   3.425   5.039   2.478 -1.8312 -0.5114 -0.8195
 5755TIP3    H238825   3.511   4.985   2.366 -0.1617 -0.4117  0.3830
 5756TIP3   OH238826   4.783   3.500   0.257  0.0585 -0.3047 -0.1747
 5756TIP3    H138827   4.764   3.510   0.163 -0.3067  2.9437  0.1472
 5756TIP3    H238828   4.707   3.537   0.301  1.8630  1.8413  1.3197
 5757TIP3   OH238829   6.597   2.739   0.973 -0.1832 -0.5460 -0.2393
 5757TIP3    H138830   6.560   2.809   0.919 -1.1226 -0.2940  0.7001
 5757TIP3    H238831   6.523   2.707   1.024  0.6297 -0.9598  0.7005
 5758TIP3   OH238832   0.577   4.421   0.639  0.2985  0.1142  0.3772
 5758TIP3    H138833   0.656   4.475   0.631  0.8669 -0.7249  0.1112
 5758TIP3    H238834   0.515   4.459   0.577  0.9291  0.0649 -0.2926
 5759TIP3   OH238835   2.026   0.780   1.421  0.4016 -0.5577 -0.1102
 5759TIP3    H138836   1.952   0.719   1.423  1.4738 -2.0171 -2.0044
 5759TIP3    H238837   2.043   0.796   1.328  2.4702 -0.3057  0.2507
 5760TIP3   OH238838   5.968   3.710   0.202 -0.9220  0.1011 -0.8430
 5760TIP3    H138839   5.981   3.640   0.139  1.0773  0.4567 -0.8904
 5760TIP3    H238840   5.997   3.789   0.157 -1.4984  0.6908 -0.2013
 5761TIP3   OH238841   2.008   2.712   2.241  0.2249  0.0265 -0.6230
 5761TIP3    H138842   2.054   2.633   2.271 -1.9192 -0.4510  1.7824
 5761TIP3    H238843   2.076   2.765   2.201  2.6494 -1.1910  1.5190
 5762TIP3   OH238844   0.488   4.539   7.784  0.1991  0.1975 -0.0121
 5762TIP3    H138845   0.464   4.579   7.868 -0.4239 -2.2804  1.0532
 5762TIP3    H238846   0.410   4.546   7.730 -0.1531 -0.2963  0.4382
 5763TIP3   OH238847   6.650   6.871   1.558 -0.1034  0.2561 -0.1680
 5763TIP3    H138848   6.669   6.801   1.496 -1.2643 -0.1409 -0.1038
 5763TIP3    H238849   6.680   6.837   1.643  3.2272  1.5215 -0.6691
 5764TIP3   OH238850   4.078   5.785   1.219  0.1640 -0.0746  0.0617
 5764TIP3    H138851   3.985   5.768   1.233 -0.0077 -0.3144 -1.2284
 5764TIP3    H238852   4.084   5.880   1.211  0.3275  0.1063  1.9962
 5765TIP3   OH238853   6.538   1.482   2.496  0.2918 -0.3609 -0.2606
 5765TIP3    H138854   6.568   1.550   2.556 -3.1075 -0.0088  1.2469
 5765TIP3    H238855   6.570   1.400   2.535  0.1687  0.0350  0.6854
 5766TIP3   OH238856   6.756   5.367   2.505 -0.1361 -0.0719  0.5564
 5766TIP3    H138857   6.790   5.456   2.515 -2.1443  1.1130 -1.8962
 5766TIP3    H238858   6.699   5.353   2.581  1.1191  0.2351  1.5720
 5767TIP3   OH238859   0.987   6.276   1.106 -0.1828  0.5205 -0.6875
 5767TIP3    H138860   1.063   6.298   1.160 -1.5771  1.3745  1.0409
 5767TIP3    H238861   0.960   6.359   1.067 -0.3824  0.2738 -1.0806
 5768TIP3   OH238862   3.543   1.522   3.345  0.1948 -0.0732  0.6008
 5768TIP3    H138863   3.575   1.439   3.311  1.2956  0.2780  0.7540
 5768TIP3    H238864   3.465   1.499   3.397 -0.2305 -0.8528 -0.3573
 5769TIP3   OH238865   7.031   1.729   0.452 -0.2373  0.2501  0.1141
 5769TIP3    H138866   6.965   1.795   0.430 -0.6156  0.5322  1.9690
 5769TIP3    H238867   6.987   1.669   0.511  0.0098 -1.9170 -1.7775
 5770TIP3   OH238868   6.872   0.606   7.132 -0.0825  0.3666  0.1837
 5770TIP3    H138869   6.879   0.587   7.226  0.3561  2.4069  0.5936
 5770TIP3    H238870   6.781   0.634   7.121  0.2112  1.3723  0.2577
 5771TIP3   OH238871   0.090   5.143   0.720  0.9356 -0.3223 -0.3220
 5771TIP3    H138872   0.065   5.148   0.812 -0.0091 -0.9377 -0.5276
 5771TIP3    H238873   0.155   5.213   0.708 -0.5522  1.2421  0.3070
 5772TIP3   OH238874   4.922   3.759   3.201 -0.2622 -0.1325  0.4434
 5772TIP3    H138875   4.960   3.812   3.271  0.8298  1.4516 -1.2655
 5772TIP3    H238876   4.856   3.705   3.245  0.8963  0.2425  2.7948
 5773TIP3   OH238877   0.704   5.447   8.056  0.3692  0.2352 -0.3880
 5773TIP3    H138878   0.681   5.512   8.122  4.0258  0.6399  0.7214
 5773TIP3    H238879   0.772   5.490   8.003 -1.7915 -0.3628 -4.0321
 5774TIP3   OH238880   5.249   0.691   1.702  0.5053  0.2952  0.3285
 5774TIP3    H138881   5.237   0.785   1.718  0.9402  0.3921  0.1041
 5774TIP3    H238882   5.332   0.670   1.745  2.8637  1.0177 -3.4301
 5775TIP3   OH238883   5.313   3.158   1.978  0.0066 -0.1651  0.2052
 5775TIP3    H138884   5.331   3.100   2.052 -1.4482 -2.0989 -0.8717
 5775TIP3    H238885   5.360   3.119   1.904  0.0214  0.7613 -0.2990
 5776TIP3   OH238886   1.295   3.678   7.584 -0.3566  0.1959  0.5261
 5776TIP3    H138887   1.205   3.658   7.608 -0.5881 -1.1682 -1.2515
 5776TIP3    H238888   1.336   3.592   7.569  0.9441  0.8227  0.3124
 5777TIP3   OH238889   0.967   4.178   2.857 -0.0572  0.0488  0.2387
 5777TIP3    H138890   0.948   4.231   2.934 -0.8645  0.3106 -0.1215
 5777TIP3    H238891   0.986   4.241   2.788 -2.2412 -0.0159 -0.5140
 5778TIP3   OH238892   0.166   3.610   3.186 -0.0515 -0.0216 -0.1006
 5778TIP3    H138893   0.170   3.659   3.103 -1.1867 -1.5637 -1.1334
 5778TIP3    H238894   0.196   3.522   3.163 -1.3662 -0.7652  0.8709
 5779TIP3   OH238895   1.601   3.373   2.008 -0.1991  0.2210 -0.0262
 5779TIP3    H138896   1.680   3.419   1.981 -0.9106  1.7860  0.4316
 5779TIP3    H238897   1.587   3.400   2.099 -2.3148  1.6261 -0.6709
 5780TIP3   OH238898   2.911   6.090   0.406 -0.2460 -0.1994 -0.4013
 5780TIP3    H138899   2.838   6.109   0.464  0.3602  2.5032 -0.3666
 5780TIP3    H238900   2.988   6.123   0.452  0.8355 -1.7637 -1.0088
 5781TIP3   OH238901   4.494   1.075   2.430  0.3011 -0.2225 -0.2036
 5781TIP3    H138902   4.554   1.033   2.368  0.2962 -0.7814  0.1611
 5781TIP3    H238903   4.548   1.091   2.508  1.0253  2.8658 -1.2103
 5782TIP3   OH238904   5.203   0.925   0.360  0.5790 -0.6456 -0.0913
 5782TIP3    H138905   5.145   0.963   0.426 -1.4728 -0.2272 -2.0053
 5782TIP3    H238906   5.287   0.970   0.373  0.5328 -1.1795  2.6913
 5783TIP3   OH238907   3.873   1.556   1.717  0.5138  0.2235  0.2250
 5783TIP3    H138908   3.780   1.572   1.735  0.1151 -1.8997  0.3411
 5783TIP3    H238909   3.897   1.485   1.776  0.8264 -2.7354 -3.0972
 5784TIP3   OH238910   4.591   2.381   7.261  0.4906  0.5503  0.0944
 5784TIP3    H138911   4.590   2.328   7.341 -0.4218  1.3529  0.6455
 5784TIP3    H238912   4.536   2.333   7.199  0.2035  0.5232  0.3671
 5785TIP3   OH238913   4.704   5.676   8.104 -0.2978  0.1293  0.3492
 5785TIP3    H138914   4.796   5.675   8.078 -0.6259  1.7621 -1.0700
 5785TIP3    H238915   4.686   5.768   8.126 -1.2478 -0.4034  1.9997
 5786TIP3   OH238916   4.968   0.257   7.135  0.2017  0.1728  0.3413
 5786TIP3    H138917   4.967   0.350   7.158  1.4583  0.1041  0.7631
 5786TIP3    H238918   4.885   0.223   7.169  0.9823  0.5583  2.8946
 5787TIP3   OH238919   1.371   0.661   1.654  0.4120 -0.4523 -0.0557
 5787TIP3    H138920   1.342   0.648   1.744 -1.8058 -1.0437 -0.7997
 5787TIP3    H238921   1.348   0.579   1.609  0.4780  0.2387 -1.3966
 5788TIP3   OH238922   0.740   3.356   0.773  0.3632  0.8926 -0.1751
 5788TIP3    H138923   0.657   3.394   0.802  0.2766  1.4803 -1.1348
 5788TIP3    H238924   0.737   3.265   0.804  1.1628  1.9300  3.3725
 5789TIP3   OH238925   3.627   6.623   0.403 -0.2388 -0.7959 -0.3340
 5789TIP3    H138926   3.607   6.630   0.309 -1.9161  0.8948  0.0776
 5789TIP3    H238927   3.684   6.698   0.420  0.4063 -1.3422 -0.0616
 5790TIP3   OH238928   2.595   4.587   1.311  0.1320  0.1798  0.5129
 5790TIP3    H138929   2.583   4.653   1.244 -0.4674  1.1785  1.5717
 5790TIP3    H238930   2.599   4.636   1.393  0.7143 -1.0131  1.2322
 5791TIP3   OH238931   2.018   3.625   2.203  0.2981  0.2062  0.3459
 5791TIP3    H138932   1.943   3.671   2.165 -0.5944 -1.7782 -0.4504
 5791TIP3    H238933   1.982   3.541   2.232  1.6757  0.2902  2.5187
 5792TIP3   OH238934   0.929   1.571   0.730  0.5178  0.1518 -0.1528
 5792TIP3    H138935   0.907   1.486   0.767 -0.8799 -0.1663 -1.6220
 5792TIP3    H238936   1.024   1.578   0.741  0.4883 -1.0201  1.1215
 5793TIP3   OH238937   3.497   5.724   7.275  0.6874 -0.2416 -0.3026
 5793TIP3    H138938   3.557   5.674   7.219 -0.1635 -1.9467  0.2615
 5793TIP3    H238939   3.454   5.785   7.215  1.0009 -0.8999 -1.2197
 5794TIP3   OH238940   4.364   6.088   0.322 -0.0669  0.1545  0.2584
 5794TIP3    H138941   4.353   6.124   0.234 -1.8069  0.8727  0.7347
 5794TIP3    H238942   4.304   6.013   0.325 -0.7965  0.7515  1.1321
 5795TIP3   OH238943   1.211   0.130   2.073 -0.5702  0.1407  0.0825
 5795TIP3    H138944   1.142   0.134   2.006 -1.2922  0.5884  0.8294
 5795TIP3    H238945   1.287   0.096   2.027 -1.2229 -0.1309 -0.8277
 5796TIP3   OH238946   2.498   5.497   1.312  0.5013  0.3702  0.0689
 5796TIP3    H138947   2.480   5.589   1.331  2.3564  0.8279 -0.2058
 5796TIP3    H238948   2.581   5.479   1.357  0.1072 -1.2183  0.2311
 5797TIP3   OH238949   0.033   0.216   2.828 -0.4528 -0.7707  0.2536
 5797TIP3    H138950   0.073   0.217   2.741 -0.6405 -0.1473  0.1727
 5797TIP3    H238951   0.089   0.158   2.879  1.4345  1.2054  0.5546
 5798TIP3   OH238952   5.060   0.264   0.142  0.2513 -0.0747  0.3633
 5798TIP3    H138953   5.124   0.196   0.122  0.8157  0.2080  1.1346
 5798TIP3    H238954   4.996   0.259   0.071 -1.0322 -2.9364  1.5715
 5799TIP3   OH238955   2.213   0.503   2.548  0.2390 -0.1064 -0.7098
 5799TIP3    H138956   2.294   0.501   2.497  1.1191 -1.0506  0.6294
 5799TIP3    H238957   2.228   0.439   2.618 -2.1494 -1.1892 -1.1074
 5800TIP3   OH238958   1.337   3.315   7.905  0.7112  0.0161  0.0140
 5800TIP3    H138959   1.248   3.341   7.878 -0.0149 -1.1561  1.1722
 5800TIP3    H238960   1.369   3.262   7.831 -0.3457 -1.2043  0.3909
 5801TIP3   OH238961   6.079   1.119   2.599  0.4716 -0.6666  0.1779
 5801TIP3    H138962   6.047   1.136   2.510 -0.1907 -0.7825  0.3863
 5801TIP3    H238963   6.163   1.164   2.603 -0.8412  1.9730  0.4668
 5802TIP3   OH238964   1.209   6.387   1.245  0.0665  0.2038  0.1464
 5802TIP3    H138965   1.163   6.468   1.267  0.3319  1.6173 -3.7504
 5802TIP3    H238966   1.301   6.412   1.238  0.5365 -1.0707  1.2056
 5803TIP3   OH238967   6.094   6.355   8.115  0.1266  0.2973 -0.1091
 5803TIP3    H138968   6.122   6.391   8.031  0.6919 -1.7287 -0.8347
 5803TIP3    H238969   6.135   6.269   8.119 -2.7623 -1.1470  0.6391
 5804TIP3   OH238970   1.295   5.357   8.093  0.3169 -0.0622  0.0493
 5804TIP3    H138971   1.209   5.325   8.066  0.1208  0.1914  0.3604
 5804TIP3    H238972   1.340   5.280   8.128 -0.6228  0.2102  2.0055
 5805TIP3   OH238973   0.676   1.755   2.630  0.0002  0.1147  0.4921
 5805TIP3    H138974   0.595   1.767   2.679 -0.1743 -0.3529  0.3292
 5805TIP3    H238975   0.746   1.777   2.691 -0.2731  1.4361  0.3560
 5806TIP3   OH238976   3.058   6.651   2.894  0.5151 -0.3040  0.0213
 5806TIP3    H138977   3.002   6.717   2.853  0.7114  0.5567  1.0850
 5806TIP3    H238978   2.996   6.588   2.932  0.1042  1.5669  2.7227
 5807TIP3   OH238979   4.876   6.519   0.870 -0.6519 -0.3029  0.6883
 5807TIP3    H138980   4.891   6.452   0.803 -0.4697  0.7257 -0.3267
 5807TIP3    H238981   4.797   6.490   0.916 -2.0137  0.0019 -1.3371
 5808TIP3   OH238982   4.198   3.350   0.616 -0.0268 -0.0968 -0.1301
 5808TIP3    H138983   4.267   3.389   0.669  0.8282 -2.2484  0.4373
 5808TIP3    H238984   4.241   3.323   0.535  0.0865 -2.2500  0.5819
 5809TIP3   OH238985   4.546   0.563   1.585  0.6822  0.3306  0.1244
 5809TIP3    H138986   4.522   0.640   1.532 -0.5809  0.1152  0.3441
 5809TIP3    H238987   4.622   0.591   1.635 -0.9504  2.1779  1.7406
 5810TIP3   OH238988   1.111   5.548   3.235  0.4832 -0.1915 -0.1203
 5810TIP3    H138989   1.197   5.586   3.215  0.6111 -0.4501 -0.0617
 5810TIP3    H238990   1.103   5.554   3.330 -0.2096  1.2202 -0.2291
 5811TIP3   OH238991   1.562   6.990   7.976  0.3698  0.1110  0.5307
 5811TIP3    H138992   1.496   6.922   7.988  1.2931 -1.0360 -0.6822
 5811TIP3    H238993   1.512   7.066   7.945 -0.5972 -0.1571  1.3908
 5812TIP3   OH238994   1.873   5.259   2.003  0.0289 -0.6436  0.2745
 5812TIP3    H138995   1.849   5.242   1.912  0.4691 -0.5870  0.1421
 5812TIP3    H238996   1.856   5.176   2.048 -0.6685 -0.5195  0.2481
 5813TIP3   OH238997   5.124   4.845   0.481  0.1366 -0.2623  0.0451
 5813TIP3    H138998   5.063   4.889   0.540  0.1046 -1.7492  1.1711
 5813TIP3    H238999   5.173   4.916   0.440 -0.6835  0.8635  0.9518
 5814TIP3   OH239000   1.820   3.474   1.904  0.0452 -0.4523 -0.3907
 5814TIP3    H139001   1.747   3.532   1.880  0.2196 -0.8741 -2.1159
 5814TIP3    H239002   1.898   3.521   1.875  0.6842  0.7146  2.8728
 5815TIP3   OH239003   0.376   5.694   7.548 -0.5380  0.1454  0.4586
 5815TIP3    H139004   0.402   5.747   7.472 -1.2689  3.6721  2.4550
 5815TIP3    H239005   0.282   5.681   7.537 -0.0495 -3.1537 -1.2410
 5816TIP3   OH239006   0.429   2.288   1.846  0.4070 -0.2105 -0.1177
 5816TIP3    H139007   0.432   2.196   1.871  2.3846  0.6161  3.3174
 5816TIP3    H239008   0.346   2.321   1.882 -1.3362 -0.9204 -3.1298
 5817TIP3   OH239009   2.526   0.992   1.659  0.1775  0.0539  0.5326
 5817TIP3    H139010   2.434   0.975   1.681 -0.3026  0.1574 -1.2048
 5817TIP3    H239011   2.560   1.039   1.734 -1.0290 -0.4955  1.4715
 5818TIP3   OH239012   4.694   2.795   2.456 -0.1159  0.0314  0.1272
 5818TIP3    H139013   4.689   2.782   2.362 -2.3287 -1.3990  0.3638
 5818TIP3    H239014   4.770   2.744   2.484  0.5973  0.5295 -0.8554
 5819TIP3   OH239015   6.166   7.004   1.872 -0.0227  0.1692  0.4148
 5819TIP3    H139016   6.221   7.080   1.893 -0.7808  1.6347 -2.3234
 5819TIP3    H239017   6.224   6.929   1.882  2.7071  1.6213 -2.4382
 5820TIP3   OH239018   2.433   0.424   8.236  0.1856  0.2208  0.1656
 5820TIP3    H139019   2.493   0.494   8.261 -2.0158  3.3424 -2.4239
 5820TIP3    H239020   2.374   0.416   8.311  0.5022  1.1841  0.5382
 5821TIP3   OH239021   0.487   1.590   0.550 -0.1100 -0.3336  0.0907
 5821TIP3    H139022   0.437   1.651   0.495 -1.2996 -1.1471  0.2232
 5821TIP3    H239023   0.505   1.640   0.630  0.0652  0.2653 -0.3140
 5822TIP3   OH239024   3.706   5.557   7.995  0.5527  0.1212  0.0348
 5822TIP3    H139025   3.771   5.597   8.053 -0.2159  0.5118  0.6552
 5822TIP3    H239026   3.681   5.628   7.935  1.0254 -0.1594 -0.5099
 5823TIP3   OH239027   1.852   2.157   1.669  0.6579 -0.5086  0.3357
 5823TIP3    H139028   1.857   2.237   1.720 -1.9101 -0.4256  0.5625
 5823TIP3    H239029   1.938   2.150   1.628  0.5168  3.2082 -0.9655
 5824TIP3   OH239030   0.511   2.439   0.101  0.5093  0.3174 -0.0411
 5824TIP3    H139031   0.493   2.387   0.023  1.2975  1.5658 -1.1047
 5824TIP3    H239032   0.491   2.380   0.175 -0.6370 -0.7511 -1.1600
 5825TIP3   OH239033   4.634   5.120   0.016  0.0191  0.0251  0.1628
 5825TIP3    H139034   4.633   5.151   0.107  1.7587 -0.6773  0.4556
 5825TIP3    H239035   4.597   5.192  -0.034 -3.0970 -0.4042  1.6226
 5826TIP3   OH239036   5.293   6.813   2.262 -0.4530 -0.3052 -0.2112
 5826TIP3    H139037   5.266   6.856   2.343 -1.8942  0.5443 -1.0945
 5826TIP3    H239038   5.228   6.842   2.197 -1.1076 -3.2920 -1.0287
 5827TIP3   OH239039   3.795   0.200   0.914 -0.1121  0.4919  0.4495
 5827TIP3    H139040   3.886   0.229   0.925  0.2571 -0.0249 -1.0746
 5827TIP3    H239041   3.752   0.273   0.871 -0.2994  0.5226  0.6864
 5828TIP3   OH239042   2.434   6.849   1.175 -0.4011 -0.4493 -0.3235
 5828TIP3    H139043   2.368   6.846   1.245 -1.9853  2.2336 -1.5026
 5828TIP3    H239044   2.516   6.867   1.220 -1.0375 -0.6801  0.9768
 5829TIP3   OH239045   2.243   4.937   2.217  0.3991 -0.1508  0.3184
 5829TIP3    H139046   2.172   4.960   2.277  1.7185  0.3129  1.7705
 5829TIP3    H239047   2.261   4.845   2.236 -1.5875 -1.1444 -2.0212
 5830TIP3   OH239048   6.187   1.217   1.159  0.2085 -0.4908  0.4870
 5830TIP3    H139049   6.221   1.257   1.239  2.3675 -1.6041  0.1992
 5830TIP3    H239050   6.257   1.228   1.095 -0.2373 -2.2870 -0.3633
 5831TIP3   OH239051   6.066   6.944   2.294 -0.1053 -0.2884  0.0571
 5831TIP3    H139052   6.131   6.926   2.362 -0.1583 -0.9852 -0.0682
 5831TIP3    H239053   5.982   6.938   2.339 -0.0732  1.6588  0.4551
 5832TIP3   OH239054   4.507   0.344   0.967  0.3583 -0.0361 -0.1037
 5832TIP3    H139055   4.420   0.367   0.935  0.8221 -0.8123 -2.0124
 5832TIP3    H239056   4.519   0.400   1.044 -1.8173  0.0585  0.2319
 5833TIP3   OH239057   4.398   6.266   2.123  0.2258  0.1279 -0.4987
 5833TIP3    H139058   4.373   6.318   2.200  1.5989 -0.0669  0.1086
 5833TIP3    H239059   4.376   6.176   2.147  0.4834  0.0906 -0.3920
 5834TIP3   OH239060   4.543   6.598   8.060 -1.0493 -0.8628 -0.2609
 5834TIP3    H139061   4.506   6.649   7.988 -0.1635 -1.2592 -1.0125
 5834TIP3    H239062   4.599   6.660   8.107 -0.4397 -0.9822 -0.8206
 5835TIP3   OH239063   4.015   5.202   2.853 -0.4542 -0.1437  0.0154
 5835TIP3    H139064   3.939   5.145   2.867 -0.1779 -0.8742 -1.2500
 5835TIP3    H239065   3.978   5.286   2.825 -0.8145 -0.5585 -0.8010
 5836TIP3   OH239066   3.564   4.059   7.119  0.0370 -0.1856  0.5191
 5836TIP3    H139067   3.619   4.028   7.191  1.4631  1.2913  0.1191
 5836TIP3    H239068   3.523   4.139   7.153  1.5932  1.1542 -0.6188
 5837TIP3   OH239069   3.585   1.533   1.757 -0.1659  0.5228  0.2184
 5837TIP3    H139070   3.587   1.544   1.852  0.0317 -0.8294  0.3925
 5837TIP3    H239071   3.581   1.438   1.744  0.3388  0.6629 -1.1327
 5838TIP3   OH239072   4.514   6.603   2.774 -0.0792  0.1646 -0.0951
 5838TIP3    H139073   4.580   6.619   2.842  0.9725 -1.4379 -0.6630
 5838TIP3    H239074   4.431   6.604   2.820  0.5314  0.1072  1.0527
 5839TIP3   OH239075   6.941   0.449   2.838  0.0906  0.2526  0.1118
 5839TIP3    H139076   6.987   0.369   2.863  1.8393  1.3189  0.4642
 5839TIP3    H239077   6.967   0.464   2.747  0.6682  0.9942  0.3884
 5840TIP3   OH239078   6.919   3.177   6.939  0.0376  0.2039 -0.6171
 5840TIP3    H139079   6.984   3.231   6.895 -0.8872 -0.5978 -3.1668
 5840TIP3    H239080   6.851   3.238   6.968  0.3967  0.7073 -0.8321
 5841TIP3   OH239081   6.272   5.461   2.528 -0.1192  0.2544  0.0396
 5841TIP3    H139082   6.335   5.404   2.485  0.6278  0.8150  0.3756
 5841TIP3    H239083   6.247   5.413   2.607 -0.9370 -0.4423 -0.6128
 5842TIP3   OH239084   4.589   2.854   1.268  0.2393 -0.1015 -0.1704
 5842TIP3    H139085   4.668   2.815   1.233  0.8732  0.6271  0.4233
 5842TIP3    H239086   4.539   2.780   1.302  1.2203 -0.4574  0.5364
 5843TIP3   OH239087   5.266   1.429   7.971 -0.0227 -0.3214  0.4620
 5843TIP3    H139088   5.291   1.432   7.878 -1.4843 -0.3852  0.0462
 5843TIP3    H239089   5.189   1.372   7.973 -0.8227  0.7480  1.5107
 5844TIP3   OH239090   0.013   1.469   0.053  0.0524 -0.6791  0.4993
 5844TIP3    H139091  -0.073   1.432   0.071 -1.7970  2.3197 -1.2081
 5844TIP3    H239092   0.017   1.548   0.107  1.7580 -0.7346  0.5152
 5845TIP3   OH239093   6.065   0.639   8.117 -0.2938  0.3216  0.2667
 5845TIP3    H139094   6.156   0.611   8.117 -0.5270 -0.4854 -0.4201
 5845TIP3    H239095   6.065   0.721   8.166  0.9982  1.0115 -0.8190
 5846TIP3   OH239096   3.673   2.522   1.925  0.0110  0.7690 -0.0954
 5846TIP3    H139097   3.602   2.479   1.974  0.4293  0.6004  0.3665
 5846TIP3    H239098   3.753   2.485   1.961  0.3654  1.5870 -0.0249
 5847TIP3   OH239099   2.289   4.859   0.881 -0.0936  0.9218  0.5591
 5847TIP3    H139100   2.277   4.889   0.791  0.1902 -0.2852  0.0961
 5847TIP3    H239101   2.240   4.777   0.886  0.9618  0.2896  1.0982
 5848TIP3   OH239102   1.109   2.770   2.590 -0.3125  0.3659  0.3311
 5848TIP3    H139103   1.045   2.700   2.594 -1.0140  0.9541 -0.2820
 5848TIP3    H239104   1.189   2.729   2.556 -1.0337  0.0834 -1.0740
 5849TIP3   OH239105   0.562   0.029   2.770  0.3475  0.1110 -0.1427
 5849TIP3    H139106   0.565  -0.053   2.819  1.7334  0.5167  0.5010
 5849TIP3    H239107   0.641   0.076   2.796  0.4361  0.9422 -1.7561
 5850TIP3   OH239108   4.097   2.578   2.615  0.1808  0.2393 -0.4029
 5850TIP3    H139109   4.084   2.570   2.520 -0.2275  0.2404 -0.3494
 5850TIP3    H239110   4.013   2.610   2.648  0.2757  0.1023 -0.0210
 5851TIP3   OH239111   5.852   2.491   2.956  0.3703  0.4545 -0.3481
 5851TIP3    H139112   5.847   2.587   2.950 -0.6829  0.4950  0.8146
 5851TIP3    H239113   5.914   2.476   3.027 -2.3055  0.3961  2.1323
 5852TIP3   OH239114   4.646   1.790   7.784 -0.1309  0.2047 -0.2958
 5852TIP3    H139115   4.719   1.774   7.843  1.2057  0.2190 -1.8809
 5852TIP3    H239116   4.580   1.726   7.810  1.0160 -0.7837  0.2619
 5853TIP3   OH239117   6.059   2.056   1.796  0.0724 -0.0541 -0.2688
 5853TIP3    H139118   5.983   2.029   1.746 -0.6384  0.3121  0.5946
 5853TIP3    H239119   6.028   2.127   1.852  1.3289  0.8999 -0.7487
 5854TIP3   OH239120   4.506   6.614   1.190 -0.2024  0.5729 -0.2541
 5854TIP3    H139121   4.426   6.664   1.177 -1.3560 -1.1510 -0.1944
 5854TIP3    H239122   4.560   6.634   1.114 -0.4474  2.1749 -0.0321
 5855TIP3   OH239123   2.546   4.596   2.031  0.1689  0.6744 -0.8294
 5855TIP3    H139124   2.584   4.598   2.119 -2.9330 -0.6663  0.6958
 5855TIP3    H239125   2.457   4.629   2.043 -0.7746 -0.7644 -3.2243
 5856TIP3   OH239126   1.222   5.092   1.985 -0.0057 -0.3209  0.1561
 5856TIP3    H139127   1.196   5.044   2.064 -1.4803 -1.4102 -0.9407
 5856TIP3    H239128   1.304   5.051   1.958  0.7491  0.3469  1.3147
 5857TIP3   OH239129   6.208   5.292   2.176 -0.3820  0.1864 -0.4236
 5857TIP3    H139130   6.204   5.386   2.159  0.3483 -0.0509 -2.1373
 5857TIP3    H239131   6.301   5.271   2.169 -0.4746 -0.5798  0.5058
 5858TIP3   OH239132   4.883   2.459   1.610 -0.2792 -0.2610 -0.4368
 5858TIP3    H139133   4.937   2.505   1.674 -0.0389  0.3446 -1.0671
 5858TIP3    H239134   4.803   2.512   1.605 -0.1717 -0.1351 -0.8564
 5859TIP3   OH239135   2.468   5.438   2.729 -0.4633 -0.5285 -0.4289
 5859TIP3    H139136   2.475   5.387   2.648 -1.3759  0.3979 -1.1115
 5859TIP3    H239137   2.386   5.409   2.769  0.0717 -1.1183  0.2944
 5860TIP3   OH239138   0.274   0.441   0.813  0.2729  0.0442 -0.1143
 5860TIP3    H139139   0.351   0.481   0.852 -0.0558  1.4201 -0.7970
 5860TIP3    H239140   0.294   0.437   0.720 -1.2209  2.4247 -0.6512
 5861TIP3   OH239141   6.491   0.542   2.048  0.5930  0.3519  0.2360
 5861TIP3    H139142   6.497   0.466   2.107  1.1934  0.7799  0.7388
 5861TIP3    H239143   6.551   0.606   2.086  0.8378  0.7102 -0.7393
 5862TIP3   OH239144   0.245   6.867   1.814 -0.4179  0.1960 -0.6036
 5862TIP3    H139145   0.161   6.841   1.850 -0.4111  0.8005 -0.1387
 5862TIP3    H239146   0.232   6.866   1.719 -0.1080 -2.5211 -0.6855
 5863TIP3   OH239147   5.184   1.323   0.943 -0.2834 -0.5073  1.1249
 5863TIP3    H139148   5.187   1.306   0.849 -1.3102  1.1218  0.7490
 5863TIP3    H239149   5.143   1.409   0.950 -0.9009 -0.9165  3.1084
 5864TIP3   OH239150   3.487   4.985   7.400  0.6437  0.0470 -0.1579
 5864TIP3    H139151   3.516   4.997   7.490  1.2125 -0.4934 -0.2586
 5864TIP3    H239152   3.421   4.915   7.405 -0.4107  1.0155  0.0196
 5865TIP3   OH239153   5.860   6.630   1.443 -0.0028 -0.4152 -0.7226
 5865TIP3    H139154   5.825   6.712   1.479 -1.5484 -0.4552 -2.0412
 5865TIP3    H239155   5.923   6.600   1.509  0.4211  1.7015 -0.1076
 5866TIP3   OH239156   4.714   6.358   0.125 -0.1718 -0.0480  0.3412
 5866TIP3    H139157   4.692   6.340   0.034 -0.5461 -1.1145  0.6320
 5866TIP3    H239158   4.631   6.376   0.168 -0.3315 -2.0217  0.9850
 5867TIP3   OH239159   0.694   3.269   7.503 -0.0903 -0.1332 -0.1994
 5867TIP3    H139160   0.633   3.231   7.439  0.3484  0.3372 -0.9180
 5867TIP3    H239161   0.780   3.249   7.467  0.1537  0.6556 -0.0621
 5868TIP3   OH239162   1.854   4.634   0.775  0.8091  0.4224  0.4956
 5868TIP3    H139163   1.823   4.619   0.864 -0.1514 -0.1486  0.0762
 5868TIP3    H239164   1.851   4.730   0.765 -1.4386  0.3963  0.2947
 5869TIP3   OH239165   2.974   1.096   3.379  0.1988 -0.3504 -0.5797
 5869TIP3    H139166   2.961   1.082   3.286 -1.0647 -0.5257 -0.3895
 5869TIP3    H239167   2.936   1.020   3.421  0.2049  0.0157  0.1092
 5870TIP3   OH239168   6.530   5.030   1.970  0.6333  0.0590  0.2045
 5870TIP3    H139169   6.438   5.004   1.963  0.7326 -0.3468  0.3844
 5870TIP3    H239170   6.563   4.981   2.045  1.0838 -0.0585 -0.0650
 5871TIP3   OH239171   6.431   5.079   7.410  0.2571  0.0224  0.1516
 5871TIP3    H139172   6.469   5.167   7.419  0.5084  0.1186 -1.5203
 5871TIP3    H239173   6.354   5.093   7.354  0.4434 -0.8526 -0.3292
 5872TIP3   OH239174   4.800   4.509   3.228  0.0206  0.3163 -0.3409
 5872TIP3    H139175   4.843   4.594   3.237  1.1311 -0.4193  2.5299
 5872TIP3    H239176   4.841   4.454   3.296 -1.0711 -2.3428 -1.6839
 5873TIP3   OH239177   3.442   4.396   8.200  0.0474  0.2816  0.0772
 5873TIP3    H139178   3.444   4.442   8.284  1.0576  1.0460 -0.3417
 5873TIP3    H239179   3.533   4.370   8.184 -0.4358 -1.5719  0.1115
 5874TIP3   OH239180   2.123   2.365   1.741 -0.3606 -0.3558 -0.0636
 5874TIP3    H139181   2.203   2.321   1.771  0.4811  0.7147 -0.6934
 5874TIP3    H239182   2.105   2.430   1.808 -0.5442 -0.4030 -0.0668
 5875TIP3   OH239183   1.406   3.838   0.080 -0.0954  0.1171  0.2461
 5875TIP3    H139184   1.425   3.868  -0.009 -0.8012 -0.3885 -0.0767
 5875TIP3    H239185   1.338   3.898   0.112  1.0680  1.1200  0.9379
 5876TIP3   OH239186   0.645   6.370   0.661 -0.3314  0.3447  0.6375
 5876TIP3    H139187   0.636   6.424   0.739 -1.0155 -1.7098  2.0838
 5876TIP3    H239188   0.556   6.340   0.642 -0.1454  0.6448 -0.8335
 5877TIP3   OH239189   3.244   3.892   1.218  0.0118 -0.5943  0.1425
 5877TIP3    H139190   3.302   3.815   1.216  0.8920  0.0578 -1.4398
 5877TIP3    H239191   3.251   3.925   1.307  1.6747 -0.8668  0.1445
 5878TIP3   OH239192   4.716   0.146   7.259 -0.3947 -0.0828  0.2227
 5878TIP3    H139193   4.698   0.053   7.250  0.0788 -0.0385 -1.4903
 5878TIP3    H239194   4.643   0.180   7.310 -1.2113 -1.1855 -0.1743
 5879TIP3   OH239195   0.701   1.674   0.356 -0.1019  0.3118  0.1675
 5879TIP3    H139196   0.619   1.671   0.406 -0.2520 -2.1900 -0.0874
 5879TIP3    H239197   0.769   1.676   0.423 -0.3439 -0.6364  0.4558
 5880TIP3   OH239198   2.374   7.021   0.253 -0.6478  0.4453 -0.3882
 5880TIP3    H139199   2.335   7.064   0.177 -1.4889 -0.1820 -0.3336
 5880TIP3    H239200   2.459   7.064   0.265  0.5478 -0.9557 -3.0722
 5881TIP3   OH239201   2.608   7.000   0.998  0.5825  0.2639  0.2973
 5881TIP3    H139202   2.614   7.094   1.017  0.4165  0.6509 -1.3950
 5881TIP3    H239203   2.528   6.972   1.043  0.5646  0.9579  0.7162
 5882TIP3   OH239204   1.022   5.316   0.753  0.0442  0.3192  0.3945
 5882TIP3    H139205   1.080   5.389   0.774  0.5101  0.3555 -0.9385
 5882TIP3    H239206   0.934   5.353   0.758  0.2090  0.6387  0.9918
 5883TIP3   OH239207   3.992   3.383   3.209 -0.2832  0.1245  0.6312
 5883TIP3    H139208   3.987   3.302   3.260  0.6974 -0.8728 -0.7775
 5883TIP3    H239209   3.901   3.407   3.195 -0.7382 -2.1460 -0.9904
 5884TIP3   OH239210   0.440   6.342   3.152 -0.5330  0.8070  0.1085
 5884TIP3    H139211   0.506   6.381   3.209 -0.2930  0.4775  0.0590
 5884TIP3    H239212   0.485   6.268   3.110 -0.7256  1.0053 -0.4531
 5885TIP3   OH239213   5.011   3.865   0.536  0.2226 -0.2226 -0.6548
 5885TIP3    H139214   4.929   3.885   0.491 -0.3662 -1.4674 -0.1641
 5885TIP3    H239215   4.987   3.804   0.606  1.3012  0.8046  0.6582
 5886TIP3   OH239216   0.183   0.223   0.964 -0.0519  0.7138 -0.1105
 5886TIP3    H139217   0.228   0.215   1.048 -0.4935 -0.9786 -0.0039
 5886TIP3    H239218   0.209   0.310   0.932  1.3441  0.7796  1.0526
 5887TIP3   OH239219   2.481   0.778   0.367  0.6013 -0.1688 -0.4613
 5887TIP3    H139220   2.518   0.755   0.282  1.1768  3.4308 -1.3813
 5887TIP3    H239221   2.406   0.835   0.346 -1.0978 -1.5178  1.4775
 5888TIP3   OH239222   6.549   3.421   2.107 -0.0199 -0.0446 -0.3727
 5888TIP3    H139223   6.464   3.387   2.135 -0.3608  0.7562 -0.3778
 5888TIP3    H239224   6.613   3.361   2.144 -0.3389  1.6087  3.3627
 5889TIP3   OH239225   5.128   7.020   2.122  0.5433  0.1193  0.1387
 5889TIP3    H139226   5.073   7.005   2.045 -0.1671  2.1498  0.1826
 5889TIP3    H239227   5.204   7.067   2.088  1.0376 -0.4448  0.4520
 5890TIP3   OH239228   4.145   4.161   1.230 -0.3483 -0.4914  0.0035
 5890TIP3    H139229   4.063   4.175   1.277 -0.7255  0.0494 -0.7934
 5890TIP3    H239230   4.131   4.202   1.145  1.5869  1.7590  0.6630
 5891TIP3   OH239231   4.033   6.361   1.596  0.1180 -0.0031 -0.1497
 5891TIP3    H139232   4.119   6.332   1.625  1.2215  1.7402 -1.4778
 5891TIP3    H239233   3.979   6.359   1.675  2.1514  1.5729  1.4073
 5892TIP3   OH239234   5.199   1.913   1.601 -0.1253 -0.5318  0.3079
 5892TIP3    H139235   5.209   1.885   1.692 -0.1450 -1.7109 -0.0414
 5892TIP3    H239236   5.105   1.928   1.591  0.1752  2.8380  1.3704
 5893TIP3   OH239237   6.988   0.663   7.958  0.1611  0.2306  0.4584
 5893TIP3    H139238   7.023   0.587   8.004 -0.7237 -0.5403 -0.1101
 5893TIP3    H239239   7.059   0.727   7.961  0.8981 -0.5847  1.0077
 5894TIP3   OH239240   4.191   2.820   1.420 -0.0136  0.0467  0.4833
 5894TIP3    H139241   4.182   2.759   1.347 -1.7116  0.6144  0.1766
 5894TIP3    H239242   4.246   2.891   1.385 -0.6603  0.2263 -0.1887
 5895TIP3   OH239243   5.944   1.852   7.706  0.0893 -0.0897  0.2111
 5895TIP3    H139244   5.990   1.935   7.717  3.8708 -1.9049 -0.0352
 5895TIP3    H239245   5.924   1.849   7.612  1.5716 -0.1056 -0.1434
 5896TIP3   OH239246   2.567   6.309   1.499  0.1856  0.9385  0.0124
 5896TIP3    H139247   2.656   6.273   1.502 -0.6466 -1.2352  1.1984
 5896TIP3    H239248   2.517   6.244   1.450 -1.3022  0.6073  1.8462
 5897TIP3   OH239249   4.610   3.983   2.125  0.6711 -0.1219 -0.1086
 5897TIP3    H139250   4.601   3.941   2.039 -1.2310  0.3354 -0.1947
 5897TIP3    H239251   4.564   3.923   2.185  0.3434  0.4724  0.2396
 5898TIP3   OH239252   0.153   0.328   2.219 -0.0182 -0.8363 -0.4761
 5898TIP3    H139253   0.143   0.313   2.125 -0.4352  0.8275 -0.7353
 5898TIP3    H239254   0.070   0.368   2.245  0.7369  0.3140  0.2412
 5899TIP3   OH239255   3.392   3.492   1.659  0.2850  0.4839  0.1059
 5899TIP3    H139256   3.300   3.465   1.650  0.2303  0.8501 -0.5069
 5899TIP3    H239257   3.442   3.412   1.645  0.0261 -0.1486  2.3785
 5900TIP3   OH239258   4.477   4.265   0.595 -0.3869 -0.0608 -0.4028
 5900TIP3    H139259   4.448   4.343   0.547 -1.1221  1.3229  2.0773
 5900TIP3    H239260   4.406   4.249   0.658  0.4541 -1.8363  0.1559
 5901TIP3   OH239261   2.569   2.849   1.093 -0.2164  0.2190  0.0657
 5901TIP3    H139262   2.517   2.769   1.091 -0.0612  0.0924  0.8688
 5901TIP3    H239263   2.577   2.875   1.001 -0.4941 -0.5348 -0.1761
 5902TIP3   OH239264   1.863   6.603   1.151  0.0880  0.5604 -0.0573
 5902TIP3    H139265   1.821   6.668   1.095 -0.5759  0.9202  0.8379
 5902TIP3    H239266   1.894   6.536   1.090 -0.4968  1.0046 -0.8668
 5903TIP3   OH239267   5.091   4.801   1.878  0.7791  0.2830 -0.0114
 5903TIP3    H139268   5.115   4.729   1.936 -1.3583 -0.7271 -0.2955
 5903TIP3    H239269   5.174   4.845   1.859  2.1002 -1.8610  0.4611
 5904TIP3   OH239270   1.814   2.043   7.511 -0.0752  0.6139  0.0245
 5904TIP3    H139271   1.898   2.022   7.470  0.5071 -0.0851  1.5021
 5904TIP3    H239272   1.802   2.137   7.496  1.3977  0.9076  0.5215
 5905TIP3   OH239273   3.281   2.815   3.056  0.1802 -0.2003 -0.5296
 5905TIP3    H139274   3.257   2.751   3.123  1.2716 -0.6302 -0.5320
 5905TIP3    H239275   3.239   2.896   3.084  1.3437 -0.1403  1.1644
 5906TIP3   OH239276   4.998   3.973   3.033 -0.0538  0.2152  0.2000
 5906TIP3    H139277   4.970   3.891   3.074 -1.5725 -0.5129 -2.1448
 5906TIP3    H239278   5.094   3.971   3.039 -0.1112 -1.2411  1.0716
 5907TIP3   OH239279   3.461   1.430   7.995 -0.4383  0.0184 -0.0216
 5907TIP3    H139280   3.523   1.477   8.050 -0.1380 -2.0889  1.5688
 5907TIP3    H239281   3.515   1.364   7.950 -1.4761 -2.2999  1.8885
 5908TIP3   OH239282   6.100   6.351   7.834  0.6083  0.0627  0.0415
 5908TIP3    H139283   6.007   6.335   7.824  0.5643 -2.1795  2.8479
 5908TIP3    H239284   6.142   6.295   7.769  0.0400 -0.4114  0.0813
 5909TIP3   OH239285   6.674   3.564   2.411 -0.0078  0.3556  0.4540
 5909TIP3    H139286   6.581   3.552   2.392 -0.0325 -0.9145  1.2866
 5909TIP3    H239287   6.711   3.594   2.328 -1.2387  1.4776  0.2586
 5910TIP3   OH239288   0.184   4.522   0.306  0.2534  0.0686  0.3077
 5910TIP3    H139289   0.149   4.433   0.307  2.4177 -0.9270 -1.9010
 5910TIP3    H239290   0.106   4.578   0.304 -1.2169 -1.5957  3.2936
 5911TIP3   OH239291   5.766   2.114   0.853 -0.1541 -0.8930  0.1458
 5911TIP3    H139292   5.764   2.163   0.771 -0.8112 -1.3930 -0.1536
 5911TIP3    H239293   5.752   2.179   0.921 -0.8256 -0.6239 -0.2302
 5912TIP3   OH239294   5.795   3.716   7.891 -0.4574 -0.7477 -0.7846
 5912TIP3    H139295   5.784   3.641   7.950  0.1534 -1.3050 -1.3620
 5912TIP3    H239296   5.762   3.685   7.806 -2.7274  0.5305 -0.4394
 5913TIP3   OH239297   0.935   6.733   2.512 -0.2703 -0.7239 -0.4145
 5913TIP3    H139298   0.990   6.753   2.436 -1.3550 -0.8458 -1.2418
 5913TIP3    H239299   0.954   6.803   2.575  1.1249 -0.9838 -0.5089
 5914TIP3   OH239300   3.597   1.510   2.035 -0.5177  0.4166 -0.0247
 5914TIP3    H139301   3.530   1.443   2.046 -0.1456 -0.0650 -0.6622
 5914TIP3    H239302   3.602   1.553   2.121 -0.4179 -0.6830  0.5370
 5915TIP3   OH239303   0.970   3.503   1.299 -0.0575 -0.2662 -0.2325
 5915TIP3    H139304   0.952   3.544   1.214 -0.4705  0.6800  0.2924
 5915TIP3    H239305   0.892   3.523   1.352  0.1360 -0.9535  0.3347
 5916TIP3   OH239306   0.272   6.505   1.916  0.0369  0.8230 -0.2798
 5916TIP3    H139307   0.176   6.505   1.910 -0.0566 -0.3530  0.7035
 5916TIP3    H239308   0.292   6.572   1.981 -0.4557 -1.5607  2.5664
 5917TIP3   OH239309   2.267   0.787   2.668 -0.0039 -0.1423  0.5886
 5917TIP3    H139310   2.353   0.746   2.678  0.2151  0.2566  0.3822
 5917TIP3    H239311   2.251   0.789   2.574  0.5266  1.3034  0.5025
 5918TIP3   OH239312   0.227   6.913   1.555 -0.1899 -0.7892 -0.3466
 5918TIP3    H139313   0.216   6.828   1.511  0.4596 -0.7102 -0.6737
 5918TIP3    H239314   0.212   6.978   1.486  1.9283 -0.6728 -0.7562
 5919TIP3   OH239315   2.344   0.765   1.506 -0.1713 -0.0065 -0.1690
 5919TIP3    H139316   2.253   0.787   1.488 -0.4739 -1.5114 -0.5472
 5919TIP3    H239317   2.350   0.671   1.492  0.7102 -0.5056  2.7765
 5920TIP3   OH239318   6.764   0.222   1.325 -0.1655 -0.2155  0.1357
 5920TIP3    H139319   6.752   0.283   1.251 -0.1609 -0.3032  0.0629
 5920TIP3    H239320   6.760   0.135   1.285 -2.0183 -0.3319  0.4819
 5921TIP3   OH239321   1.920   3.217   0.790 -0.4807  0.6941  0.0888
 5921TIP3    H139322   1.833   3.191   0.821 -0.3062 -1.3670 -0.9866
 5921TIP3    H239323   1.950   3.282   0.854 -2.6813  1.2447  0.6374
 5922TIP3   OH239324   2.735   4.780   1.891 -0.0716  0.1723  0.0223
 5922TIP3    H139325   2.657   4.821   1.930 -0.7656  0.1718 -1.3018
 5922TIP3    H239326   2.705   4.693   1.865  0.1166  0.4835 -1.2768
 5923TIP3   OH239327   3.624   0.568   8.067 -0.1209 -0.0550 -0.2983
 5923TIP3    H139328   3.643   0.546   7.976 -1.5567 -0.3850 -0.5397
 5923TIP3    H239329   3.620   0.664   8.069  1.3652  0.0289 -0.2505
 5924TIP3   OH239330   6.496   1.668   7.253  0.1215 -0.6524 -0.4932
 5924TIP3    H139331   6.444   1.596   7.218  0.3795 -0.7623 -0.6543
 5924TIP3    H239332   6.584   1.631   7.263  0.1381 -0.5104 -0.0886
 5925TIP3   OH239333   1.191   3.989   0.150  0.0599  0.2834  0.5064
 5925TIP3    H139334   1.220   4.058   0.090  1.4429  0.6564  1.5288
 5925TIP3    H239335   1.110   3.955   0.112 -0.2614  1.9749 -0.4011
 5926TIP3   OH239336   3.013   2.777   3.272 -0.1030 -0.2951 -0.1632
 5926TIP3    H139337   3.080   2.845   3.268 -0.9882  0.5889 -0.8555
 5926TIP3    H239338   2.996   2.765   3.365 -0.6062  1.1679 -0.0310
 5927TIP3   OH239339   5.633   2.964   6.652 -0.2582 -0.4353  0.1640
 5927TIP3    H139340   5.683   3.042   6.628 -2.7769  1.4550  0.7049
 5927TIP3    H239341   5.645   2.957   6.747 -0.2496 -0.5539  0.1536
 5928TIP3   OH239342   2.644   6.946   1.612 -0.2077 -0.0080 -0.5344
 5928TIP3    H139343   2.615   6.999   1.686  1.1555  0.0251 -0.0037
 5928TIP3    H239344   2.739   6.954   1.612 -0.1435 -0.4628 -1.9543
 5929TIP3   OH239345   4.961   6.429   7.354  0.4893 -0.8075 -0.7522
 5929TIP3    H139346   5.056   6.434   7.339  0.4901  0.4175 -0.4477
 5929TIP3    H239347   4.929   6.376   7.281  0.8994  2.3313 -3.5010
 5930TIP3   OH239348   0.041   5.685   1.670 -0.2641 -0.9115 -0.4558
 5930TIP3    H139349   0.003   5.700   1.756 -0.9012 -0.2523 -0.8418
 5930TIP3    H239350  -0.034   5.672   1.611  0.1319 -0.6893 -1.0258
 5931TIP3   OH239351   1.422   2.803   7.701  0.6110  0.5336  0.3528
 5931TIP3    H139352   1.441   2.729   7.643  1.4103  0.8040  0.2576
 5931TIP3    H239353   1.351   2.772   7.757 -0.8006  0.5723 -1.3402
 5932TIP3   OH239354   6.539   1.247   2.131  0.1154 -0.6677  0.0251
 5932TIP3    H139355   6.495   1.313   2.077  0.3275 -0.4340  0.1346
 5932TIP3    H239356   6.467   1.204   2.179 -0.0658 -0.8358 -0.3945
 5933TIP3   OH239357   0.906   4.847   7.404  0.6482 -0.4044  0.0159
 5933TIP3    H139358   0.976   4.864   7.341  1.4623 -0.8812  0.7762
 5933TIP3    H239359   0.845   4.790   7.358  0.1114  0.9968 -1.0765
 5934TIP3   OH239360   2.563   7.036   2.200 -0.0637 -0.0425  0.3542
 5934TIP3    H139361   2.507   6.984   2.142 -0.2001 -0.8412  1.1757
 5934TIP3    H239362   2.652   7.013   2.173 -0.0938  1.4506 -1.1485
 5935TIP3   OH239363   0.271   3.206   2.745  1.0152  0.2498 -0.0642
 5935TIP3    H139364   0.266   3.117   2.710 -1.6528  0.3814 -0.2468
 5935TIP3    H239365   0.268   3.194   2.840  1.7302  0.1247 -0.0527
 5936TIP3   OH239366   0.629   3.368   7.778 -0.1074  0.0714 -0.4620
 5936TIP3    H139367   0.652   3.378   7.686 -0.7777  1.1563 -0.5288
 5936TIP3    H239368   0.556   3.306   7.778  0.2704 -0.3722 -0.6080
 5937TIP3   OH239369   4.901   4.307   2.275  0.8060 -0.3131 -0.0861
 5937TIP3    H139370   4.900   4.299   2.180 -3.3807  1.5765 -0.4500
 5937TIP3    H239371   4.990   4.334   2.296  2.3189 -2.2789 -3.1952
 5938TIP3   OH239372   2.083   1.247   3.425  0.0342  0.4830 -0.1023
 5938TIP3    H139373   2.013   1.249   3.359  1.8854  0.3471 -2.2074
 5938TIP3    H239374   2.126   1.163   3.411 -0.4074 -0.2121  2.3654
 5939TIP3   OH239375   5.352   3.294   0.857  0.7176 -0.0253  0.1342
 5939TIP3    H139376   5.445   3.296   0.877  0.3179  0.4445  2.1785
 5939TIP3    H239377   5.311   3.342   0.929 -1.1621 -0.7204 -0.4135
 5940TIP3   OH239378   5.969   3.068   7.661 -0.5845  0.4636 -0.3123
 5940TIP3    H139379   6.016   3.114   7.592 -0.2264 -0.3034 -0.5893
 5940TIP3    H239380   5.928   3.137   7.713  1.4343  1.1955  0.3831
 5941TIP3   OH239381   6.570   2.978   0.104  0.6775 -0.5440  0.1311
 5941TIP3    H139382   6.587   2.889   0.135  1.6416 -1.2295 -2.1320
 5941TIP3    H239383   6.645   3.029   0.135  0.6914 -0.7810  0.4882
 5942TIP3   OH239384   6.385   0.330   1.553  0.0026 -0.0371  0.3667
 5942TIP3    H139385   6.370   0.418   1.588 -1.3904  0.1762 -0.6689
 5942TIP3    H239386   6.298   0.301   1.524  0.9266 -0.3435 -2.4340
 5943TIP3   OH239387   3.664   5.005   0.226  0.3267 -0.1771 -0.5066
 5943TIP3    H139388   3.592   5.037   0.281  0.8320 -0.4330  0.3174
 5943TIP3    H239389   3.716   5.083   0.206  1.7035 -0.4313  1.7129
 5944TIP3   OH239390   4.891   6.774   0.802  0.1957  0.2936  0.6044
 5944TIP3    H139391   4.899   6.682   0.830  0.1927  0.5910  1.6219
 5944TIP3    H239392   4.801   6.798   0.826  0.1325  0.5029  0.1570
 5945TIP3   OH239393   0.068   5.205   2.101 -0.7132  0.4167  0.2534
 5945TIP3    H139394   0.120   5.279   2.072 -0.4496  0.4178  0.7166
 5945TIP3    H239395  -0.020   5.223   2.067 -0.0974 -0.4012 -1.9642
 5946TIP3   OH239396   6.457   5.672   2.602  0.2439  0.0941  0.3974
 5946TIP3    H139397   6.416   5.606   2.546 -2.6427  1.5892  0.5366
 5946TIP3    H239398   6.517   5.719   2.544  0.8809 -1.3601 -0.1761
 5947TIP3   OH239399   0.904   2.104   1.886 -0.4423  0.2858 -0.1832
 5947TIP3    H139400   0.838   2.137   1.947  0.8227  3.6322 -0.3975
 5947TIP3    H239401   0.861   2.108   1.800 -0.0390  2.5835 -0.3412
 5948TIP3   OH239402   3.035   7.005   1.900  0.3486 -0.3184  0.6900
 5948TIP3    H139403   3.128   6.990   1.918  0.8175  1.8084  0.3178
 5948TIP3    H239404   3.033   7.087   1.850 -1.8464  0.7431  2.3605
 5949TIP3   OH239405   1.283   4.932   2.419 -0.4254  0.0389 -0.5443
 5949TIP3    H139406   1.209   4.880   2.385 -1.9704  0.6533  1.6657
 5949TIP3    H239407   1.271   5.018   2.380 -0.0551 -0.2239 -1.2578
 5950TIP3   OH239408   1.858   0.521   0.424 -0.5783 -0.4327  0.0526
 5950TIP3    H139409   1.838   0.612   0.447  0.1242 -0.6160  1.5674
 5950TIP3    H239410   1.940   0.503   0.470  0.0624 -1.4068 -1.3890
 5951TIP3   OH239411   6.993   2.684   1.576  0.3332  0.7160  0.2340
 5951TIP3    H139412   7.059   2.649   1.636  0.0561  0.6809  0.5216
 5951TIP3    H239413   6.964   2.766   1.617  0.3533  0.8423 -0.0002
 5952TIP3   OH239414   6.314   4.943   6.734  0.1655 -0.2583  0.2726
 5952TIP3    H139415   6.251   4.998   6.781  0.3428  1.0489 -0.9389
 5952TIP3    H239416   6.395   4.951   6.783  0.6455  1.9739 -0.7698
 5953TIP3   OH239417   5.655   3.107   2.030 -0.3312 -0.7592  0.0623
 5953TIP3    H139418   5.615   3.120   1.944 -1.3463  0.2276  0.6694
 5953TIP3    H239419   5.747   3.132   2.017 -0.2913 -1.3462 -0.9095
 5954TIP3   OH239420   2.724   5.055   2.211  0.0550  0.2193  0.1616
 5954TIP3    H139421   2.815   5.038   2.189  0.0690 -1.1324  1.1759
 5954TIP3    H239422   2.675   4.985   2.168 -0.5889  1.2503 -0.8368
 5955TIP3   OH239423   2.045   0.307   7.628  0.5537 -0.1736  0.3400
 5955TIP3    H139424   1.995   0.366   7.685  0.5318 -0.9245  1.1186
 5955TIP3    H239425   1.979   0.265   7.573  0.3730 -0.7122  0.9514
 5956TIP3   OH239426   1.106   4.091   0.396 -0.0235  0.0768 -0.2845
 5956TIP3    H139427   1.160   4.057   0.324 -0.7103  1.3198 -1.4463
 5956TIP3    H239428   1.046   4.020   0.416  1.1832 -0.8623  0.1614
 5957TIP3   OH239429   0.350   0.434   2.377 -0.0111  0.3098 -0.1048
 5957TIP3    H139430   0.325   0.456   2.466 -0.2301  1.1331 -0.3582
 5957TIP3    H239431   0.268   0.437   2.327 -0.0336 -0.9899 -0.1873
 5958TIP3   OH239432   2.805   1.699   0.181  0.6032 -0.4918 -0.1071
 5958TIP3    H139433   2.746   1.767   0.150  1.7097  1.0662  1.0532
 5958TIP3    H239434   2.765   1.669   0.263  0.8918 -0.1636  0.1544
 5959TIP3   OH239435   4.491   0.559   1.169  0.0970 -0.5085  0.1333
 5959TIP3    H139436   4.398   0.578   1.157  0.1940  0.7515  1.2413
 5959TIP3    H239437   4.529   0.641   1.199  1.4801 -1.1525  0.2125
 5960TIP3   OH239438   6.269   5.745   1.093  0.2250 -0.1515 -0.1726
 5960TIP3    H139439   6.341   5.802   1.120 -0.9810  0.4501  1.9508
 5960TIP3    H239440   6.302   5.656   1.109  0.4055  0.1273  1.0629
 5961TIP3   OH239441   6.999   1.994   0.778  0.1687 -0.1331 -0.5035
 5961TIP3    H139442   6.923   2.009   0.721 -0.1378 -0.8580 -0.3073
 5961TIP3    H239443   6.972   1.920   0.833 -0.0545  1.3461  1.4834
 5962TIP3   OH239444   6.770   5.717   0.164 -0.3279  0.2507  0.3739
 5962TIP3    H139445   6.770   5.745   0.072  1.2100 -1.8564 -0.3583
 5962TIP3    H239446   6.861   5.693   0.182 -0.9629 -1.3077  1.8011
 5963TIP3   OH239447   6.543   3.684   1.972 -0.1510 -0.4539  0.2000
 5963TIP3    H139448   6.540   3.615   2.038 -0.9080 -0.0351  0.6130
 5963TIP3    H239449   6.502   3.645   1.895 -0.2847 -0.5727  0.3307
 5964TIP3   OH239450   6.674   2.883   2.463 -0.1617 -0.5301 -0.2309
 5964TIP3    H139451   6.726   2.854   2.387  1.2134  1.1185  0.0230
 5964TIP3    H239452   6.676   2.808   2.523  1.6786 -0.6689 -0.3893
 5965TIP3   OH239453   1.349   4.668   7.694 -0.1694  0.2622 -0.0360
 5965TIP3    H139454   1.336   4.573   7.696 -0.6504  0.3269 -0.0075
 5965TIP3    H239455   1.288   4.700   7.628  1.2373  0.3787 -1.3457
 5966TIP3   OH239456   5.955   4.745   0.557  0.1108  0.2775  0.2104
 5966TIP3    H139457   5.969   4.722   0.648 -0.2542  1.6663  0.6548
 5966TIP3    H239458   6.008   4.684   0.507  1.0257  0.0725  1.4029
 5967TIP3   OH239459   1.439   0.543   0.849 -0.0891  0.0863 -0.4726
 5967TIP3    H139460   1.383   0.609   0.809 -0.1035  0.4884  0.1917
 5967TIP3    H239461   1.477   0.587   0.925  0.8702 -0.2852 -0.7246
 5968TIP3   OH239462   5.427   5.373   2.724 -0.0259 -0.6922 -0.4695
 5968TIP3    H139463   5.409   5.456   2.768  0.4383 -1.3627  1.0411
 5968TIP3    H239464   5.341   5.337   2.704 -0.2529 -0.4617  0.0692
 5969TIP3   OH239465   2.560   0.198   8.147 -0.3872 -0.3224 -0.5483
 5969TIP3    H139466   2.502   0.247   8.206 -1.2849 -0.4953 -1.2574
 5969TIP3    H239467   2.500   0.149   8.091  0.4748 -1.0356 -0.8600
 5970TIP3   OH239468   4.692   1.905   2.646  0.1845  0.2347 -0.5187
 5970TIP3    H139469   4.636   1.832   2.619 -0.5233  0.6840 -0.2822
 5970TIP3    H239470   4.775   1.889   2.601  0.5203 -1.4650  0.6192
 5971TIP3   OH239471   3.863   1.241   1.857 -0.3250 -0.3056  0.3227
 5971TIP3    H139472   3.779   1.235   1.813  1.1801 -1.9738 -2.6927
 5971TIP3    H239473   3.869   1.160   1.908 -0.7310  0.0320  0.9047
 5972TIP3   OH239474   6.780   5.550   7.555  0.2467 -0.2463 -0.2868
 5972TIP3    H139475   6.802   5.621   7.495  0.5673  0.5524  0.7506
 5972TIP3    H239476   6.806   5.582   7.641  0.0947 -1.4980  0.2465
 5973TIP3   OH239477   6.721   6.873   2.383 -0.5380 -0.3997  0.2066
 5973TIP3    H139478   6.683   6.794   2.421  0.1755 -0.0527  1.7667
 5973TIP3    H239479   6.750   6.923   2.459  0.1817  0.7711 -0.8071
 5974TIP3   OH239480   3.720   3.136   8.104 -0.0470  0.2027  0.2953
 5974TIP3    H139481   3.641   3.149   8.156  0.4890 -1.8525  1.7245
 5974TIP3    H239482   3.692   3.082   8.030 -0.2447  0.7891 -0.0732
 5975TIP3   OH239483   0.097   0.659   1.457 -0.2995  0.3672 -0.5789
 5975TIP3    H139484   0.027   0.703   1.409 -1.5457  0.3507  1.1347
 5975TIP3    H239485   0.112   0.715   1.534 -1.1989 -1.5936  1.1094
 5976TIP3   OH239486   1.832   1.145   1.593  0.3272  0.2865  0.0354
 5976TIP3    H139487   1.803   1.176   1.507 -0.4019 -2.3616 -0.7688
 5976TIP3    H239488   1.753   1.146   1.647  0.1480 -0.7155 -0.1920
 5977TIP3   OH239489   4.093   6.477   1.022  0.2698 -0.4287 -0.9317
 5977TIP3    H139490   4.042   6.544   1.068 -0.7054 -1.4155 -0.5165
 5977TIP3    H239491   4.171   6.465   1.077 -1.1424 -1.9981  0.8725
 5978TIP3   OH239492   3.771   5.974   7.366 -0.2361 -0.3577 -0.0872
 5978TIP3    H139493   3.773   5.883   7.336 -1.7121 -0.6534  0.6109
 5978TIP3    H239494   3.678   5.993   7.380  0.1762  0.6281  1.6500
 5979TIP3   OH239495   4.544   0.030   1.904 -0.5101  0.1798 -0.1712
 5979TIP3    H139496   4.521   0.063   1.817 -1.5141 -0.6532 -0.2313
 5979TIP3    H239497   4.460   0.011   1.946 -0.0201  0.1023  0.7967
 5980TIP3   OH239498   2.843   5.287   0.755  0.6157  0.1013 -0.1914
 5980TIP3    H139499   2.780   5.344   0.799  0.5214  0.7623 -1.1470
 5980TIP3    H239500   2.818   5.199   0.781 -1.2716  0.2812 -1.2191
 5981TIP3   OH239501   5.514   4.703   1.926 -0.3500 -0.5425 -0.4958
 5981TIP3    H139502   5.462   4.705   2.006  0.6272 -1.1371  0.1732
 5981TIP3    H239503   5.470   4.764   1.867 -1.9728 -1.2481 -0.0694
 5982TIP3   OH239504   1.513   1.996   1.491 -0.2334  0.0891 -0.1127
 5982TIP3    H139505   1.479   1.968   1.576 -1.7959  0.9372 -0.4164
 5982TIP3    H239506   1.458   1.952   1.427  0.8876 -0.4841 -0.7126
 5983TIP3   OH239507   0.299   0.218   7.846  0.5837 -0.6035  0.1900
 5983TIP3    H139508   0.295   0.308   7.812 -0.2730 -0.6653  0.1115
 5983TIP3    H239509   0.321   0.165   7.769  0.7326 -0.5023  0.1620
 5984TIP3   OH239510   4.209   2.117   7.918  0.4775  0.3115  0.4910
 5984TIP3    H139511   4.199   2.144   7.826  1.5735 -1.0480 -0.0557
 5984TIP3    H239512   4.281   2.054   7.917 -0.5789 -0.9905  2.0282
 5985TIP3   OH239513   2.077   3.528   3.395 -0.4294 -0.4608  0.6777
 5985TIP3    H139514   2.078   3.622   3.380  0.7375 -0.6226 -0.4666
 5985TIP3    H239515   2.162   3.497   3.361 -1.5499 -2.1742 -0.7655
 5986TIP3   OH239516   4.732   5.436   1.966  0.2992  0.3574  0.2751
 5986TIP3    H139517   4.786   5.432   1.887 -0.2465  0.3447 -0.0999
 5986TIP3    H239518   4.661   5.496   1.945  0.0550  0.2296  0.6983
 5987TIP3   OH239519   2.362   6.276   1.768 -0.0467  0.0042  0.0329
 5987TIP3    H139520   2.436   6.246   1.716 -1.1262  0.5182 -1.8693
 5987TIP3    H239521   2.313   6.196   1.788  0.1331 -0.1465 -0.1243
 5988TIP3   OH239522   5.513   6.068   7.557 -0.7734 -0.4431 -0.6106
 5988TIP3    H139523   5.424   6.050   7.526 -1.2350  0.5463  0.0877
 5988TIP3    H239524   5.538   6.149   7.512 -0.5125 -0.3253 -0.2564
 5989TIP3   OH239525   1.844   6.413   0.933  0.0526 -0.2824 -1.3079
 5989TIP3    H139526   1.785   6.344   0.963  1.2350 -2.2666 -3.2121
 5989TIP3    H239527   1.795   6.456   0.862 -1.2017  1.8278  0.7078
 5990TIP3   OH239528   3.894   5.872   1.704  0.3685 -0.6774  0.3276
 5990TIP3    H139529   3.852   5.872   1.618 -1.0521  2.3890  0.9080
 5990TIP3    H239530   3.834   5.821   1.759 -0.9275  0.8226  0.3763
 5991TIP3   OH239531   4.261   4.490   3.041  0.0939 -0.2482 -0.1714
 5991TIP3    H139532   4.202   4.415   3.041 -2.4320  1.5769 -1.4385
 5991TIP3    H239533   4.252   4.526   3.130 -0.4126 -0.2210 -0.2275
 5992TIP3   OH239534   3.228   1.133   1.303 -0.6428 -0.0641 -0.0095
 5992TIP3    H139535   3.290   1.206   1.308 -0.5789 -0.0927 -0.3887
 5992TIP3    H239536   3.282   1.058   1.277 -0.4523 -0.5603  1.6536
 5993TIP3   OH239537   5.088   1.163   2.513 -0.1062  0.3023 -0.3759
 5993TIP3    H139538   5.171   1.132   2.548 -1.0289 -0.5770  1.1774
 5993TIP3    H239539   5.087   1.257   2.534  0.1743  0.1600  0.3018
 5994TIP3   OH239540   4.949   3.757   1.422 -0.3041  0.0915  0.6561
 5994TIP3    H139541   4.940   3.784   1.331  0.4175  1.5537  0.9927
 5994TIP3    H239542   4.937   3.662   1.420 -0.5016  0.1248 -0.9228
 5995TIP3   OH239543   1.058   6.306   2.554  0.6387  0.2483  0.4097
 5995TIP3    H139544   1.028   6.359   2.480 -0.8097  0.2426  0.9624
 5995TIP3    H239545   1.083   6.370   2.621 -0.2432  0.2382  0.7482
 5996TIP3   OH239546   6.971   6.113   0.523  0.0059  0.2708 -0.3179
 5996TIP3    H139547   7.021   6.126   0.603  0.4369 -1.1337 -0.3361
 5996TIP3    H239548   7.023   6.156   0.455  0.7614 -0.4044 -0.1847
 5997TIP3   OH239549   6.896   5.535   2.149 -0.1495  0.0806 -0.3887
 5997TIP3    H139550   6.959   5.521   2.220  0.4590  0.6077 -0.8184
 5997TIP3    H239551   6.873   5.447   2.120 -1.2967 -0.2028  1.2150
 5998TIP3   OH239552   1.246   3.285   1.097 -0.0980  0.0724 -0.4386
 5998TIP3    H139553   1.301   3.263   1.022  0.2515  2.4872 -0.9617
 5998TIP3    H239554   1.185   3.350   1.064 -1.6129 -0.6661  0.7951
 5999TIP3   OH239555   0.273   1.622   1.984  0.1789  0.0676  0.7275
 5999TIP3    H139556   0.320   1.547   1.949  0.5570  0.7061 -0.1679
 5999TIP3    H239557   0.229   1.661   1.909 -1.1479 -0.0390  1.4041
 6000TIP3   OH239558   1.157   6.732   1.988  0.0479 -0.1830 -0.2728
 6000TIP3    H139559   1.117   6.819   1.988 -0.8604 -0.5725  0.6114
 6000TIP3    H239560   1.250   6.747   1.971 -0.1389  0.9372 -0.3358
 6001TIP3   OH239561   3.671   2.427   7.700 -0.2923  0.0970  0.7974
 6001TIP3    H139562   3.747   2.439   7.643  0.2841 -1.0065  1.2993
 6001TIP3    H239563   3.636   2.516   7.713  0.4030  0.5181 -0.1120
 6002TIP3   OH239564   2.568   0.925   2.957  0.2751 -0.0276 -0.0574
 6002TIP3    H139565   2.556   0.928   2.862 -3.3601  3.3768  0.2456
 6002TIP3    H239566   2.633   0.994   2.975  0.4176 -0.1733 -0.0113
 6003TIP3   OH239567   3.481   6.547   2.006  0.2358 -0.0962  0.2096
 6003TIP3    H139568   3.532   6.608   2.060 -2.4976  1.0467  1.7011
 6003TIP3    H239569   3.410   6.601   1.970 -1.7513 -2.1477  0.7895
 6004TIP3   OH239570   0.518   6.833   2.906 -0.4897 -0.7299  0.2243
 6004TIP3    H139571   0.491   6.749   2.869  0.2542 -1.3233  0.9751
 6004TIP3    H239572   0.510   6.821   3.001 -1.5617  0.4715  0.3149
 6005TIP3   OH239573   4.432   5.378   1.153 -0.0891 -0.1495  0.6452
 6005TIP3    H139574   4.423   5.284   1.143 -0.8508 -0.1421  1.1932
 6005TIP3    H239575   4.501   5.389   1.218  1.5546 -0.2685 -0.9805
 6006TIP3   OH239576   6.907   0.056   1.639 -1.1002  0.4746  0.1355
 6006TIP3    H139577   6.889  -0.038   1.630 -1.6835  0.6757 -0.9649
 6006TIP3    H239578   6.823   0.094   1.666 -0.5644  0.5403  1.8265
 6007TIP3   OH239579   3.316   1.961   0.926  0.1031 -0.1779 -0.1215
 6007TIP3    H139580   3.236   1.939   0.974 -0.5738  1.5116 -0.4033
 6007TIP3    H239581   3.313   1.904   0.849 -0.4416 -0.6519  0.2336
 6008TIP3   OH239582   0.223   5.999   1.900 -0.5598  0.3382 -0.1429
 6008TIP3    H139583   0.161   6.070   1.911 -0.2258  0.6931 -0.5142
 6008TIP3    H239584   0.309   6.039   1.913 -0.3471  0.0912 -0.7248
 6009TIP3   OH239585   2.052   0.966   2.487 -0.9271  0.0023 -0.2126
 6009TIP3    H139586   2.142   0.942   2.465 -1.0622 -1.5607  0.7995
 6009TIP3    H239587   2.047   0.956   2.582 -2.5555 -1.4428 -0.4001
 6010TIP3   OH239588   4.301   3.702   1.963  0.1166 -0.2120 -0.2159
 6010TIP3    H139589   4.320   3.777   1.907 -2.8986  1.5278  0.8314
 6010TIP3    H239590   4.236   3.652   1.915  0.0673 -0.6156  0.2634
 6011TIP3   OH239591   3.434   3.571   7.581 -0.0672  0.7633  0.1893
 6011TIP3    H139592   3.445   3.479   7.603  1.6609  1.2482  1.6285
 6011TIP3    H239593   3.379   3.571   7.503 -0.7341 -1.4348  0.5971
 6012TIP3   OH239594   2.508   3.280   1.790  0.2059 -0.6179 -0.1259
 6012TIP3    H139595   2.527   3.291   1.697  0.0747 -1.0492 -0.2032
 6012TIP3    H239596   2.515   3.368   1.826  2.5763 -0.7496 -0.1079
 6013TIP3   OH239597   6.225   6.942   2.543  0.1123 -0.3457 -0.0799
 6013TIP3    H139598   6.290   6.876   2.567 -0.6383 -0.2545  2.5143
 6013TIP3    H239599   6.214   6.995   2.622 -2.2811  0.3524 -0.7833
 6014TIP3   OH239600   1.230   2.569   1.726  0.1706  0.3284  0.1007
 6014TIP3    H139601   1.187   2.653   1.742  0.4224  0.1356  1.9671
 6014TIP3    H239602   1.309   2.572   1.780  2.2152  0.3967 -2.6822
 6015TIP3   OH239603   5.215   5.575   1.263  0.1130 -0.2973 -0.2091
 6015TIP3    H139604   5.247   5.554   1.350 -1.4075  2.0613  1.0301
 6015TIP3    H239605   5.200   5.490   1.222  1.8571 -1.4609  1.4050
 6016TIP3   OH239606   3.126   0.598   7.904  0.7240  0.3290 -0.4260
 6016TIP3    H139607   3.031   0.596   7.896  0.5211  1.8253  1.1288
 6016TIP3    H239608   3.157   0.545   7.830 -1.2707  0.4789 -1.4434
 6017TIP3   OH239609   4.543   1.485   0.196 -0.0285  0.1220  0.2753
 6017TIP3    H139610   4.518   1.505   0.286  1.0885  0.0332  0.6181
 6017TIP3    H239611   4.593   1.404   0.202  0.8401  0.5998 -0.3055
 6018TIP3   OH239612   5.625   3.788   1.426  0.0871  0.3783  0.2255
 6018TIP3    H139613   5.583   3.822   1.347 -3.4869 -0.8555  1.4059
 6018TIP3    H239614   5.651   3.867   1.475  0.9080  1.1569 -1.3799
 6019TIP3   OH239615   7.017   5.857   0.797  0.0476  0.6906  0.1927
 6019TIP3    H139616   6.937   5.805   0.790  0.4639  0.1481 -0.6766
 6019TIP3    H239617   7.069   5.812   0.864 -1.0113  1.9449  1.9432
 6020TIP3   OH239618   4.528   2.702   3.072 -0.7675  0.3448  0.4533
 6020TIP3    H139619   4.614   2.742   3.058 -0.2361 -0.6755  0.7354
 6020TIP3    H239620   4.527   2.679   3.165 -0.9404 -0.5557  0.2405
 6021TIP3   OH239621   5.836   3.909   2.768  0.4890 -0.1355 -0.4139
 6021TIP3    H139622   5.926   3.932   2.793  1.0378 -1.6666 -0.8704
 6021TIP3    H239623   5.807   3.848   2.836 -0.8595  1.5927  0.6537
 6022TIP3   OH239624   6.427   4.831   1.199  0.1575 -0.1589 -0.0852
 6022TIP3    H139625   6.443   4.819   1.292  2.2480 -0.0415 -0.3819
 6022TIP3    H239626   6.467   4.915   1.177  0.1157 -0.4012 -1.1804
 6023TIP3   OH239627   0.025   0.291   7.428 -0.3493  0.2914  0.3930
 6023TIP3    H139628  -0.014   0.365   7.381  0.3029  0.7119  0.4874
 6023TIP3    H239629   0.120   0.309   7.424 -0.2212 -0.2857  0.8412
 6024TIP3   OH239630   6.858   5.542   7.970  0.4161  0.1219  0.8753
 6024TIP3    H139631   6.938   5.563   7.923  0.6975 -1.7514  0.4730
 6024TIP3    H239632   6.801   5.618   7.955  2.0686  1.4688  1.1490
 6025TIP3   OH239633   2.648   6.094   0.167 -0.2150  0.1587 -0.2351
 6025TIP3    H139634   2.665   6.084   0.261 -1.2244 -1.1542 -0.1680
 6025TIP3    H239635   2.556   6.067   0.156  0.1545 -0.6048 -1.7213
 6026TIP3   OH239636   1.244   5.614   2.567  0.5378 -0.1166  0.1435
 6026TIP3    H139637   1.199   5.696   2.548  1.9049  0.4599 -0.7051
 6026TIP3    H239638   1.270   5.622   2.659  2.3070  1.2689 -0.4090
 6027TIP3   OH239639   3.854   4.948   0.505 -0.3384  0.2022  0.4561
 6027TIP3    H139640   3.818   5.032   0.531  0.5612 -0.0419  2.6711
 6027TIP3    H239641   3.785   4.885   0.526  0.0064  0.1156  1.3667
 6028TIP3   OH239642   2.653   5.953   2.444 -0.7690  0.0079 -0.3657
 6028TIP3    H139643   2.580   5.908   2.400 -0.5111 -1.6228  0.8003
 6028TIP3    H239644   2.729   5.933   2.390 -0.9097  0.3862 -0.7119
 6029TIP3   OH239645   1.602   2.794   0.018  0.5454 -0.0085  0.1374
 6029TIP3    H139646   1.514   2.820   0.046  1.0362 -0.0593  1.8125
 6029TIP3    H239647   1.600   2.802  -0.077 -1.2314  0.1180  0.1540
 6030TIP3   OH239648   5.936   0.935   8.049 -0.3597  0.2225 -0.0473
 6030TIP3    H139649   5.932   0.951   7.955  1.1457 -1.3834 -0.4252
 6030TIP3    H239650   6.027   0.949   8.072  0.2412 -3.4315  0.3108
 6031TIP3   OH239651   3.361   6.709   1.790 -0.2252 -0.6357  0.0952
 6031TIP3    H139652   3.343   6.792   1.835 -1.1377 -0.4331 -0.6129
 6031TIP3    H239653   3.275   6.677   1.764  0.2323 -1.0907 -0.8987
 6032TIP3   OH239654   5.698   3.434   0.154  1.0043  0.1821 -0.1900
 6032TIP3    H139655   5.687   3.356   0.209 -0.7536 -0.5547 -1.4969
 6032TIP3    H239656   5.789   3.431   0.126  0.6590 -2.1511 -1.2347
 6033TIP3   OH239657   4.297   3.321   7.986 -0.2084  0.3767  0.0041
 6033TIP3    H139658   4.259   3.253   7.930 -1.3040  1.1707 -0.2438
 6033TIP3    H239659   4.263   3.301   8.074 -0.4529  0.5448 -0.0519
 6034TIP3   OH239660   5.502   6.630   1.178  0.2280  0.4692  0.0093
 6034TIP3    H139661   5.553   6.583   1.244  0.4787 -0.2810 -0.7128
 6034TIP3    H239662   5.416   6.642   1.219  0.8527  1.4643  1.1070
 6035TIP3   OH239663   5.979   1.572   1.499 -0.3374  0.1539 -0.2458
 6035TIP3    H139664   5.950   1.584   1.590  1.1430  0.5677  0.2045
 6035TIP3    H239665   5.971   1.659   1.460 -0.1744  0.1598 -0.2652
 6036TIP3   OH239666   6.539   5.814   2.941 -0.0019  0.0827  0.2551
 6036TIP3    H139667   6.615   5.755   2.943 -0.1349 -0.1502  3.3023
 6036TIP3    H239668   6.472   5.767   2.989 -0.5250  2.1765  1.6832
 6037TIP3   OH239669   1.197   6.578   0.745 -0.2696 -0.2287  0.0051
 6037TIP3    H139670   1.175   6.632   0.669 -0.5246 -0.7792 -0.3292
 6037TIP3    H239671   1.260   6.629   0.795 -0.2404  0.2194 -0.4859
 6038TIP3   OH239672   3.150   4.963   2.881 -0.1399  0.4482 -0.5548
 6038TIP3    H139673   3.175   4.888   2.936 -0.6895 -0.1173 -1.0712
 6038TIP3    H239674   3.217   5.030   2.900  0.5874 -0.3123 -0.3927
 6039TIP3   OH239675   1.205   4.903   8.143 -0.5821 -0.2361 -0.5425
 6039TIP3    H139676   1.167   4.945   8.066 -0.1765 -0.8237 -1.0809
 6039TIP3    H239677   1.221   4.812   8.116 -0.2698 -0.4087  0.1749
 6040TIP3   OH239678   0.033   0.231   7.700 -0.0422 -0.2559  0.0335
 6040TIP3    H139679   0.065   0.315   7.731  2.0536 -0.6527 -0.9065
 6040TIP3    H239680   0.024   0.241   7.605 -0.1448 -0.9687 -0.0435
 6041TIP3   OH239681   6.320   3.858   7.923 -0.1705 -0.3320 -0.1711
 6041TIP3    H139682   6.228   3.832   7.914  0.1626 -1.5933 -0.1632
 6041TIP3    H239683   6.317   3.952   7.936 -1.5760 -0.5663  1.4927
 6042TIP3   OH239684   1.351   1.280   2.821  0.0657  0.4868 -0.6837
 6042TIP3    H139685   1.319   1.369   2.829  1.0151  0.7487  0.4758
 6042TIP3    H239686   1.378   1.255   2.910 -0.4663 -1.0647 -0.9170
 6043TIP3   OH239687   0.868   4.527   7.341  0.1761 -0.7189 -0.3707
 6043TIP3    H139688   0.835   4.531   7.431  2.1474  1.5482  0.3584
 6043TIP3    H239689   0.807   4.579   7.290  1.8408  2.6010  0.7692
 6044TIP3   OH239690   5.187   6.856   6.903  0.0152 -0.7288 -0.4956
 6044TIP3    H139691   5.225   6.785   6.955 -0.5911  0.9098  2.3548
 6044TIP3    H239692   5.248   6.929   6.914 -2.0830  0.8718  1.2916
 6045TIP3   OH239693   3.463   6.241   1.556  0.6506 -0.1298  0.1018
 6045TIP3    H139694   3.504   6.327   1.559  1.8666 -0.6904  0.8260
 6045TIP3    H239695   3.461   6.218   1.463  1.5424  0.1383  0.0045
 6046TIP3   OH239696   0.695   2.659   2.641  0.1156  0.9765  0.2188
 6046TIP3    H139697   0.784   2.625   2.638 -0.2972 -0.3060  1.0947
 6046TIP3    H239698   0.665   2.658   2.550  0.1063 -1.2408  0.1750
 6047TIP3   OH239699   1.900   5.744   8.266 -0.0324  0.1210 -0.2600
 6047TIP3    H139700   1.884   5.650   8.270 -1.9088  0.4351  0.8014
 6047TIP3    H239701   1.835   5.776   8.203  0.5391  0.7455 -0.5493
 6048TIP3   OH239702   6.022   2.365   7.822 -0.5578  0.2960  0.4953
 6048TIP3    H139703   6.016   2.285   7.770 -0.7904 -0.7213  2.0232
 6048TIP3    H239704   5.947   2.417   7.795 -1.7229 -1.0120  1.0577
 6049TIP3   OH239705   5.949   6.058   1.671 -0.3230 -0.9254 -0.5404
 6049TIP3    H139706   5.855   6.074   1.681 -0.7291 -1.8994 -2.4029
 6049TIP3    H239707   5.979   6.124   1.610  0.2375 -0.6027  0.0622
 6050TIP3   OH239708   3.272   1.982   7.731  0.2410 -0.2341  0.3689
 6050TIP3    H139709   3.193   1.963   7.783  0.7361 -0.6384  0.9869
 6050TIP3    H239710   3.325   2.038   7.787  1.6426 -2.1908  1.1148
 6051TIP3   OH239711   2.146   1.520   2.816  0.3421 -0.2996  0.0909
 6051TIP3    H139712   2.096   1.587   2.770  2.2660  1.8328  0.9490
 6051TIP3    H239713   2.092   1.496   2.891  0.0811  1.1222  0.3848
 6052TIP3   OH239714   3.621   1.803   0.738  0.2975 -0.2208  0.7832
 6052TIP3    H139715   3.572   1.828   0.659  1.0384 -4.5749 -1.3933
 6052TIP3    H239716   3.710   1.837   0.722  0.3183 -0.6348 -0.0535
 6053TIP3   OH239717   5.425   6.271   2.076 -0.2458  0.0932 -0.3664
 6053TIP3    H139718   5.431   6.183   2.041 -0.2544  0.8591 -2.4151
 6053TIP3    H239719   5.412   6.327   1.999 -2.4729  1.6683  1.0218
 6054TIP3   OH239720   4.673   0.151   7.768  0.1817  0.1703 -0.6834
 6054TIP3    H139721   4.584   0.143   7.732  0.4288  0.6878 -1.4282
 6054TIP3    H239722   4.706   0.061   7.768 -0.0062  0.0913 -1.2885
 6055TIP3   OH239723   2.492   2.546   0.778  0.6748  0.1378  0.1646
 6055TIP3    H139724   2.498   2.460   0.737  0.0424 -0.0944  0.5406
 6055TIP3    H239725   2.548   2.540   0.855  2.2931  0.7453 -0.9091
 6056TIP3   OH239726   2.900   1.181   2.452 -0.1920 -0.8069  0.9436
 6056TIP3    H139727   2.917   1.241   2.525 -1.4894  1.1505 -0.2307
 6056TIP3    H239728   2.962   1.208   2.384 -1.7542  0.2761 -0.1190
 6057TIP3   OH239729   5.118   3.799   2.372  0.8453  0.2782  0.2733
 6057TIP3    H139730   5.178   3.725   2.376 -0.4886 -1.0251 -1.8889
 6057TIP3    H239731   5.047   3.769   2.315  0.8340  3.6217 -1.7279
 6058TIP3   OH239732   1.663   5.425   2.090 -0.4687 -0.3262  0.0222
 6058TIP3    H139733   1.740   5.400   2.039 -1.2248  1.8440 -2.4196
 6058TIP3    H239734   1.589   5.397   2.036 -1.3040  1.4285  0.1900
 6059TIP3   OH239735   5.688   3.181   0.245 -0.4618 -0.0710  0.4030
 6059TIP3    H139736   5.596   3.172   0.269  0.1148 -0.8895  2.5641
 6059TIP3    H239737   5.718   3.092   0.231  0.1781  0.1251  0.4869
 6060TIP3   OH239738   6.259   3.882   0.909  0.3167  0.1767 -0.3061
 6060TIP3    H139739   6.344   3.839   0.923  0.6754  0.1989 -2.0868
 6060TIP3    H239740   6.237   3.861   0.818 -0.3286  2.3392 -0.6993
 6061TIP3   OH239741   4.852   2.098   1.347 -0.3630  0.3417  0.4181
 6061TIP3    H139742   4.867   2.019   1.400 -0.9733 -1.2709 -1.6764
 6061TIP3    H239743   4.806   2.158   1.407  2.4158  0.2502  2.8763
 6062TIP3   OH239744   2.120   4.741   7.842  0.5101 -0.2871 -0.1049
 6062TIP3    H139745   2.107   4.746   7.748  0.2945  0.2400 -0.0467
 6062TIP3    H239746   2.199   4.687   7.852  1.2181  0.6258 -0.6269
 6063TIP3   OH239747   5.884   6.111   3.358  0.0724  0.3576 -0.4584
 6063TIP3    H139748   5.953   6.082   3.298 -0.3728  0.1068 -0.8575
 6063TIP3    H239749   5.827   6.035   3.368 -0.3131  0.6536 -0.3684
 6064TIP3   OH239750   3.073   4.147   1.236 -0.2684  0.1750  0.8171
 6064TIP3    H139751   3.040   4.096   1.162  0.1270  0.1516  0.6551
 6064TIP3    H239752   3.155   4.103   1.260 -1.6066 -1.3710  2.9003
 6065TIP3   OH239753   4.046   0.798   2.081  0.4752  0.0988  1.0706
 6065TIP3    H139754   4.099   0.738   2.028  1.3127  2.9431 -1.5954
 6065TIP3    H239755   4.096   0.808   2.162  2.2646  0.0821  0.0148
 6066TIP3   OH239756   1.304   5.545   7.046  0.0462 -0.1066  0.1353
 6066TIP3    H139757   1.396   5.564   7.064 -0.1302  0.8355  0.0762
 6066TIP3    H239758   1.260   5.559   7.129 -0.0570 -0.5155  0.1516
 6067TIP3   OH239759   3.620   1.700   0.379 -0.2398  0.1443  0.3417
 6067TIP3    H139760   3.570   1.631   0.334  2.5607 -0.9323 -1.3711
 6067TIP3    H239761   3.564   1.777   0.373 -2.3480 -1.3261 -0.0703
 6068TIP3   OH239762   2.842   0.255   1.496  0.1208  0.0061  0.3301
 6068TIP3    H139763   2.822   0.317   1.565  0.3431  0.3105  0.1208
 6068TIP3    H239764   2.911   0.296   1.445  0.1747 -0.3510  0.1087
 6069TIP3   OH239765   0.431   4.295   1.935  0.7755  0.3819 -0.1506
 6069TIP3    H139766   0.430   4.256   1.848  0.0909 -0.5648  0.2551
 6069TIP3    H239767   0.456   4.386   1.921 -1.3590  0.8240 -1.5839
 6070TIP3   OH239768   3.817   6.388   1.108 -0.0847 -0.1118  0.0433
 6070TIP3    H139769   3.890   6.339   1.071  1.3703  1.7106  0.3005
 6070TIP3    H239770   3.831   6.384   1.203  1.2803  2.3498  0.0450
 6071TIP3   OH239771   1.147   4.517   2.633  0.0346 -0.2227 -0.3409
 6071TIP3    H139772   1.219   4.560   2.588  0.4801  0.6660  1.1369
 6071TIP3    H239773   1.177   4.427   2.648  0.3868 -0.1575 -0.6574
 6072TIP3   OH239774   2.911   4.288   7.916 -0.0548  0.0476  0.1336
 6072TIP3    H139775   2.824   4.294   7.876  0.8285  1.9335 -1.6658
 6072TIP3    H239776   2.897   4.317   8.006 -1.2569  0.6134 -0.2127
 6073TIP3   OH239777   6.033   3.575   1.512 -0.1150  0.2401 -0.3533
 6073TIP3    H139778   6.024   3.544   1.422 -2.5234 -2.3007  0.6098
 6073TIP3    H239779   5.991   3.661   1.512  1.0600  0.8484 -1.8699
 6074TIP3   OH239780   3.205   3.904   0.663 -0.5195 -0.7170  0.2408
 6074TIP3    H139781   3.123   3.865   0.632 -0.8134  0.5541 -0.6749
 6074TIP3    H239782   3.220   3.864   0.748 -2.7963 -0.0483  1.0214
 6075TIP3   OH239783   2.084   2.047   0.230  0.2385 -0.2026  0.3860
 6075TIP3    H139784   1.991   2.035   0.248  0.0909 -1.2361 -0.9139
 6075TIP3    H239785   2.099   2.141   0.242 -0.8818 -0.0807  0.9467
 6076TIP3   OH239786   6.534   1.721   0.489  0.2913 -0.2878 -0.2200
 6076TIP3    H139787   6.570   1.735   0.401 -1.3019  1.4493 -0.6564
 6076TIP3    H239788   6.550   1.803   0.535  0.5252 -0.9567  0.9241
 6077TIP3   OH239789   0.564   3.762   1.629  0.0812 -0.9620  0.9002
 6077TIP3    H139790   0.629   3.778   1.561 -1.2467 -0.3207 -0.2717
 6077TIP3    H239791   0.569   3.839   1.686 -0.7115 -0.1561 -0.0900
 6078TIP3   OH239792   0.935   3.288   1.633 -0.2118 -0.0600 -0.0020
 6078TIP3    H139793   0.867   3.231   1.600 -0.8162  1.2969 -1.2129
 6078TIP3    H239794   0.888   3.356   1.682  0.2272  0.9664 -0.9649
 6079TIP3   OH239795   5.721   2.551   1.063  0.3779  0.5879 -0.8891
 6079TIP3    H139796   5.767   2.635   1.061  2.7880 -0.6099 -3.6362
 6079TIP3    H239797   5.652   2.561   0.998  1.0568  0.3245 -1.6788
 6080TIP3   OH239798   1.566   2.817   2.083 -0.0999 -0.3461  0.4988
 6080TIP3    H139799   1.617   2.881   2.034 -1.4959  0.2121 -0.2898
 6080TIP3    H239800   1.610   2.811   2.168  2.0449 -0.9101 -0.5840
 6081TIP3   OH239801   7.013   2.716   2.171 -0.0487  0.2425  0.0071
 6081TIP3    H139802   7.072   2.785   2.140  0.4853 -0.4223 -0.4969
 6081TIP3    H239803   7.062   2.670   2.238  0.0230 -0.3218 -0.4202
 6082TIP3   OH239804   3.242   3.323   1.030  0.2772 -0.0472 -0.7678
 6082TIP3    H139805   3.267   3.366   1.112 -0.7284 -1.4320  0.3121
 6082TIP3    H239806   3.265   3.387   0.962 -0.1344  1.7201  0.6620
 6083TIP3   OH239807   3.111   4.733   0.766  0.5411 -0.2375 -0.1494
 6083TIP3    H139808   3.069   4.647   0.761 -0.2938  0.0392  1.3986
 6083TIP3    H239809   3.118   4.762   0.675  0.1829 -1.6372 -0.6436
 6084TIP3   OH239810   1.157   0.303   0.119  0.1528 -0.5784 -0.8360
 6084TIP3    H139811   1.111   0.307   0.035 -2.2612  1.3571  0.4466
 6084TIP3    H239812   1.197   0.389   0.129  1.0842 -1.0528 -0.2978
 6085TIP3   OH239813   5.348   6.408   1.475 -0.1492 -1.0630  0.0072
 6085TIP3    H139814   5.337   6.503   1.465 -0.4832 -1.1870 -0.9737
 6085TIP3    H239815   5.441   6.396   1.492 -0.0697 -0.5736 -0.0599
 6086TIP3   OH239816   1.219   5.973   7.560  0.0999  0.1192  0.2793
 6086TIP3    H139817   1.257   6.058   7.584 -1.1282  1.0505 -0.9818
 6086TIP3    H239818   1.292   5.926   7.520  0.2878  1.4215 -1.0052
 6087TIP3   OH239819   3.868   2.937   1.649  0.3696  0.3302 -0.4294
 6087TIP3    H139820   3.945   2.964   1.700  0.2013 -1.1174  0.6752
 6087TIP3    H239821   3.898   2.861   1.599 -1.1762 -2.8930  3.0394
 6088TIP3   OH239822   5.202   4.565   1.653  0.3214 -0.2147 -0.1027
 6088TIP3    H139823   5.112   4.544   1.676 -0.4227  3.1538  0.5588
 6088TIP3    H239824   5.195   4.630   1.583  2.2877 -0.5431 -0.6882
 6089TIP3   OH239825   1.863   0.567   1.193  0.3923  0.4798 -0.9564
 6089TIP3    H139826   1.817   0.528   1.267  0.1087 -0.9954 -1.8752
 6089TIP3    H239827   1.823   0.654   1.183 -1.2357 -0.2369 -0.8741
 6090TIP3   OH239828   4.407   1.306   7.947  0.0222  0.4292 -0.0079
 6090TIP3    H139829   4.351   1.231   7.930  0.6071 -0.5181  1.9713
 6090TIP3    H239830   4.422   1.305   8.042  2.1174  1.5401 -0.2470
 6091TIP3   OH239831   3.320   5.882   2.716 -0.2562  0.7976 -0.4444
 6091TIP3    H139832   3.399   5.888   2.769 -0.5861  0.3331  0.1020
 6091TIP3    H239833   3.319   5.792   2.685 -2.3501 -0.2936  2.3794
 6092TIP3   OH239834   6.109   5.064   6.876  0.5023 -0.4889  0.3192
 6092TIP3    H139835   6.023   5.028   6.898  1.0466 -1.4496  0.9413
 6092TIP3    H239836   6.122   5.136   6.938  0.2790 -0.5264  0.4088
 6093TIP3   OH239837   4.771   1.101   0.968 -0.4458 -0.2101  0.3624
 6093TIP3    H139838   4.742   1.010   0.978 -1.1109  0.1309  1.8609
 6093TIP3    H239839   4.727   1.147   1.039 -0.2444  1.3243 -0.4813
 6094TIP3   OH239840   6.610   4.482   2.371 -0.5716  0.1352  0.0105
 6094TIP3    H139841   6.557   4.469   2.293 -2.1100  1.7478  0.7175
 6094TIP3    H239842   6.692   4.520   2.339 -0.0419 -1.8080 -1.0357
 6095TIP3   OH239843   0.239   6.933   2.720 -0.1769 -0.2924 -0.3127
 6095TIP3    H139844   0.328   6.908   2.696 -0.3274  0.4393 -1.7198
 6095TIP3    H239845   0.188   6.926   2.639 -0.7472  2.0655 -0.2404
 6096TIP3   OH239846   5.457   0.194   8.195 -0.5494  0.1317 -0.5620
 6096TIP3    H139847   5.499   0.175   8.279 -1.3749 -1.5701 -0.5019
 6096TIP3    H239848   5.418   0.281   8.208  1.4631  1.0077 -0.0724
 6097TIP3   OH239849   0.430   2.846   0.618 -0.5574  0.0380 -0.1570
 6097TIP3    H139850   0.444   2.924   0.564 -0.8788 -0.1168 -0.4668
 6097TIP3    H239851   0.351   2.867   0.669  0.0467  0.3967  0.6447
 6098TIP3   OH239852   0.186   5.501   2.141 -0.0723 -0.1156 -0.1065
 6098TIP3    H139853   0.260   5.561   2.154  1.3310 -1.3387 -1.8698
 6098TIP3    H239854   0.200   5.465   2.053 -1.8223 -1.7168  0.2114
 6099TIP3   OH239855   4.517   0.657   2.572 -0.1111 -0.4632 -0.4614
 6099TIP3    H139856   4.425   0.684   2.564  0.1149  0.5223  0.0044
 6099TIP3    H239857   4.513   0.574   2.619 -0.7626 -0.3640 -0.3228
 6100TIP3   OH239858   0.601   2.072   0.886 -0.1265  0.4671 -0.0435
 6100TIP3    H139859   0.529   2.124   0.851 -0.3263  1.6965  2.0072
 6100TIP3    H239860   0.578   2.060   0.979  2.3446  0.9936  0.7058
 6101TIP3   OH239861   0.495   1.098   0.026 -0.5851  0.8063  0.2727
 6101TIP3    H139862   0.537   1.031   0.081 -1.1089  0.0163 -0.2673
 6101TIP3    H239863   0.474   1.169   0.087  2.2457  1.6258  0.4544
 6102TIP3   OH239864   0.014   5.660   1.235  0.0901 -0.2885 -0.2036
 6102TIP3    H139865   0.092   5.697   1.276 -1.0334  0.3470  1.5238
 6102TIP3    H239866  -0.039   5.629   1.309 -0.9339 -1.4552 -1.3660
 6103TIP3   OH239867   6.166   1.992   1.413  0.3991 -0.7550  0.4967
 6103TIP3    H139868   6.191   1.966   1.502 -1.2337  1.3443  1.6632
 6103TIP3    H239869   6.203   2.079   1.403  0.4012 -0.8986 -0.8428
 6104TIP3   OH239870   5.608   0.596   1.499  0.1433  0.2630  0.4884
 6104TIP3    H139871   5.650   0.525   1.452  0.2349 -0.1951  1.2434
 6104TIP3    H239872   5.563   0.647   1.431 -0.8079 -1.1083  0.0406
 6105TIP3   OH239873   6.673   6.313   2.291 -0.5136 -0.1353 -0.0560
 6105TIP3    H139874   6.721   6.235   2.264  1.2249  1.1369 -0.7768
 6105TIP3    H239875   6.735   6.362   2.344 -1.5752  0.7745  0.3740
 6106TIP3   OH239876   5.418   0.428   1.262 -0.0010 -0.1067 -0.2696
 6106TIP3    H139877   5.354   0.434   1.333  0.0440 -0.2975 -0.2103
 6106TIP3    H239878   5.479   0.360   1.291 -0.0557 -0.2761 -0.5454
 6107TIP3   OH239879   0.292   0.969   2.531 -0.0182  0.3316  0.4759
 6107TIP3    H139880   0.271   1.011   2.614  0.7921  1.0623  0.3209
 6107TIP3    H239881   0.350   0.896   2.555 -0.0144  0.3671  0.5764
 6108TIP3   OH239882   4.610   5.146   3.275  0.1199 -0.4383  0.3885
 6108TIP3    H139883   4.594   5.086   3.202  0.4019 -0.8154  0.6295
 6108TIP3    H239884   4.532   5.202   3.278  0.2838 -0.1460 -0.4566
 6109TIP3   OH239885   5.922   6.573   8.194  0.0507 -0.0503  0.6461
 6109TIP3    H139886   5.977   6.495   8.204 -1.2712 -0.9829  0.8178
 6109TIP3    H239887   5.924   6.590   8.100  0.0626 -0.4977  0.5614
 6110TIP3   OH239888   2.933   0.367   2.529 -0.1162 -0.2921 -0.0046
 6110TIP3    H139889   2.960   0.303   2.595 -1.7703 -2.3579 -1.2142
 6110TIP3    H239890   3.006   0.429   2.525  1.8161 -2.3514  0.9039
 6111TIP3   OH239891   1.818   4.374   7.497  0.0059  0.3748  0.2045
 6111TIP3    H139892   1.765   4.441   7.539  1.4571  0.9467  1.2235
 6111TIP3    H239893   1.879   4.424   7.442  0.5749 -0.1395  0.3578
 6112TIP3   OH239894   3.639   0.438   0.822 -0.0806 -0.0482  0.0579
 6112TIP3    H139895   3.703   0.510   0.825 -0.8023  0.6224 -0.3457
 6112TIP3    H239896   3.555   0.480   0.837 -0.3733 -1.0449  1.3936
 6113TIP3   OH239897   2.562   5.019   2.709  0.8356  0.0816  0.0371
 6113TIP3    H139898   2.639   5.026   2.653  0.2676  0.3595 -0.7236
 6113TIP3    H239899   2.583   4.949   2.771  0.6534 -1.7301 -1.8444
 6114TIP3   OH239900   0.219   1.791   7.804  0.0015 -0.2538 -0.2204
 6114TIP3    H139901   0.127   1.796   7.830  0.8196  1.7744  2.8523
 6114TIP3    H239902   0.250   1.881   7.811  2.4735 -1.0561 -0.1680
 6115TIP3   OH239903   4.498   4.642   8.093 -0.0503 -0.2329 -0.1038
 6115TIP3    H139904   4.421   4.691   8.065  0.1682  0.2168  0.0663
 6115TIP3    H239905   4.538   4.612   8.011  0.1485  0.3953 -0.2426
 6116TIP3   OH239906   1.794   2.856   0.500 -0.2073  0.0917 -0.1980
 6116TIP3    H139907   1.885   2.828   0.511 -0.2700  0.3330  1.0739
 6116TIP3    H239908   1.766   2.813   0.419 -0.1877 -3.2510  1.3989
 6117TIP3   OH239909   4.948   1.129   7.212  0.0759 -0.5899 -0.3355
 6117TIP3    H139910   4.878   1.075   7.248 -1.1715  1.0392 -0.1945
 6117TIP3    H239911   4.963   1.197   7.278 -1.2093  1.5742 -2.1326
 6118TIP3   OH239912   3.958   3.930   1.580  0.0078  0.9168  0.3797
 6118TIP3    H139913   3.959   3.905   1.487 -2.3744  0.3367  0.4536
 6118TIP3    H239914   3.918   3.856   1.624  1.7853  0.8770  2.0233
 6119TIP3   OH239915   1.556   1.875   0.688 -0.1688  0.5967  0.4379
 6119TIP3    H139916   1.531   1.860   0.779  2.1417  0.1927  1.0738
 6119TIP3    H239917   1.501   1.948   0.660 -2.0927 -0.3252  1.5933
 6120TIP3   OH239918   0.339   1.254   1.412 -0.0661  0.2717  0.5348
 6120TIP3    H139919   0.252   1.289   1.395 -0.5433 -1.3127 -0.5016
 6120TIP3    H239920   0.350   1.260   1.506 -0.2264  2.8623  0.4580
 6121TIP3   OH239921   2.019   1.066   3.113 -0.2998 -0.1933 -0.2036
 6121TIP3    H139922   1.961   1.128   3.159 -0.6965  0.2618 -1.2908
 6121TIP3    H239923   2.095   1.119   3.087  0.5486 -0.7438  1.0405
 6122TIP3   OH239924   1.535   6.986   2.569 -0.4206  0.2570 -0.2791
 6122TIP3    H139925   1.575   6.901   2.551 -2.2092 -1.0688  1.5483
 6122TIP3    H239926   1.605   7.037   2.609 -0.1658 -1.6099  1.8351
 6123TIP3   OH239927   6.204   3.709   3.074 -0.1133 -0.0133  0.1046
 6123TIP3    H139928   6.198   3.704   3.169 -0.0927  2.4378  0.2872
 6123TIP3    H239929   6.133   3.767   3.048  1.1230  1.0303 -1.1368
 6124TIP3   OH239930   2.255   5.278   2.484 -0.0951  0.2991 -0.7698
 6124TIP3    H139931   2.265   5.185   2.500 -1.2269  0.3633  0.4201
 6124TIP3    H239932   2.345   5.312   2.483  0.2765 -0.6437 -0.2597
 6125TIP3   OH239933   0.166   3.141   1.460 -0.4331 -0.0276  0.0773
 6125TIP3    H139934   0.231   3.180   1.518  1.3882 -1.6197 -0.7736
 6125TIP3    H239935   0.113   3.215   1.430  2.4699  1.7987 -1.0346
 6126TIP3   OH239936   0.935   4.643   7.694 -0.6939 -0.2208 -0.2863
 6126TIP3    H139937   0.866   4.613   7.635 -1.9793 -1.9448  1.9329
 6126TIP3    H239938   0.958   4.566   7.744  1.6949  0.7419  0.2206
 6127TIP3   OH239939   0.739   1.225   7.477 -0.5588 -0.5726  0.5001
 6127TIP3    H139940   0.817   1.183   7.513  0.2799 -0.1068 -0.7183
 6127TIP3    H239941   0.765   1.316   7.463 -0.9087 -0.6912 -1.0716
 6128TIP3   OH239942   5.517   4.477   0.059 -0.3074 -0.4388 -0.4461
 6128TIP3    H139943   5.583   4.407   0.067 -1.0303 -1.2658 -1.5768
 6128TIP3    H239944   5.566   4.552   0.026  0.6110 -0.1642  1.3842
 6129TIP3   OH239945   4.865   2.818   0.733  0.1102 -0.0920  0.3423
 6129TIP3    H139946   4.887   2.860   0.649 -1.9675 -1.1534 -0.8150
 6129TIP3    H239947   4.794   2.872   0.768 -0.1430 -0.5908  0.6071
 6130TIP3   OH239948   0.803   4.017   3.217  0.6035 -0.1100 -0.1194
 6130TIP3    H139949   0.812   4.082   3.286  2.2526 -0.5526  0.1229
 6130TIP3    H239950   0.737   4.053   3.159  0.7980  1.3316  0.5045
 6131TIP3   OH239951   4.960   2.589   0.627  0.4242  0.0475 -0.2214
 6131TIP3    H139952   4.916   2.529   0.687 -1.4233 -0.0289 -1.5584
 6131TIP3    H239953   4.952   2.675   0.668  1.8246 -0.3545  1.0127
 6132TIP3   OH239954   2.667   6.457   0.826  0.7106 -0.2727  0.1104
 6132TIP3    H139955   2.754   6.418   0.839  0.4392 -0.8442  0.2516
 6132TIP3    H239956   2.655   6.514   0.902  0.7425 -0.5973  0.3607
 6133TIP3   OH239957   4.343   3.006   1.299  0.1160 -0.5216  0.0067
 6133TIP3    H139958   4.403   2.987   1.226 -0.7343  0.3416 -0.9387
 6133TIP3    H239959   4.326   3.099   1.292 -1.2494 -0.7354  0.3376
 6134TIP3   OH239960   2.950   3.279   2.770  0.3719 -0.4590  0.3349
 6134TIP3    H139961   2.986   3.191   2.778 -1.5664 -1.1523  2.8755
 6134TIP3    H239962   2.861   3.271   2.805 -0.2311  2.3127 -0.3504
 6135TIP3   OH239963   4.893   5.908   0.603 -0.5618 -0.0453  0.6579
 6135TIP3    H139964   4.918   5.883   0.514  3.4016  3.2889  0.5554
 6135TIP3    H239965   4.902   5.828   0.654  0.5016 -1.2941 -1.3778
 6136TIP3   OH239966   3.050   6.440   2.638 -0.1004  0.1298  0.2476
 6136TIP3    H139967   3.085   6.518   2.596  1.1510 -1.3097 -1.5502
 6136TIP3    H239968   3.118   6.412   2.699  1.2310 -1.6582 -1.9349
 6137TIP3   OH239969   4.042   2.823   2.941 -0.1781  0.5005  0.4411
 6137TIP3    H139970   4.027   2.852   3.031 -1.5061 -1.4432  0.9007
 6137TIP3    H239971   4.121   2.768   2.947 -0.5323 -0.0029  0.5123
 6138TIP3   OH239972   4.095   1.808   3.341 -0.6476  0.4350 -0.1969
 6138TIP3    H139973   4.148   1.881   3.309 -0.1658  0.2787  0.2235
 6138TIP3    H239974   4.006   1.829   3.313 -0.1261 -0.2173 -2.5382
 6139TIP3   OH239975   6.243   6.025   0.916  0.6127  0.0427  0.1703
 6139TIP3    H139976   6.288   6.081   0.980  3.3616 -3.1766  1.3151
 6139TIP3    H239977   6.181   5.974   0.968 -0.8394  0.9223 -0.6360
 6140TIP3   OH239978   5.236   3.421   2.071 -0.6387 -0.2523  0.1572
 6140TIP3    H139979   5.143   3.443   2.071 -1.0801 -1.5676 -2.8801
 6140TIP3    H239980   5.243   3.348   2.009  2.6000  0.9004 -1.0505
 6141TIP3   OH239981   4.366   1.838   0.578  0.0331  0.2932 -0.0064
 6141TIP3    H139982   4.445   1.879   0.612 -0.1125  0.9424 -0.4312
 6141TIP3    H239983   4.392   1.803   0.493 -0.2537  0.9462 -0.3713
 6142TIP3   OH239984   5.510   6.995   1.582 -0.4557 -0.5545  0.1378
 6142TIP3    H139985   5.438   6.939   1.611  1.4811 -3.4930 -0.2828
 6142TIP3    H239986   5.477   7.037   1.502 -1.3443 -2.8484 -0.7920
 6143TIP3   OH239987   6.275   2.391   7.877 -0.3769  0.4253  0.1544
 6143TIP3    H139988   6.184   2.417   7.863  0.0221  1.6346 -0.3048
 6143TIP3    H239989   6.300   2.346   7.796 -0.5910 -0.0202  0.3302
 6144TIP3   OH239990   0.507   3.951   2.713 -0.1773  0.2447  0.2668
 6144TIP3    H139991   0.582   3.992   2.757 -0.7512 -0.2752  1.8113
 6144TIP3    H239992   0.431   3.980   2.763 -0.9119 -0.0956 -0.6196
 6145TIP3   OH239993   5.375   5.773   0.064 -0.0794  0.0643  0.6712
 6145TIP3    H139994   5.434   5.716   0.112  1.3557  0.0816 -0.9916
 6145TIP3    H239995   5.371   5.853   0.116  0.2821 -0.4325  1.4804
 6146TIP3   OH239996   0.003   6.204   1.876 -0.1232  0.0448 -0.6639
 6146TIP3    H139997  -0.092   6.192   1.870 -0.0266 -0.1757 -3.7706
 6146TIP3    H239998   0.014   6.291   1.913 -1.4657 -0.4595  1.0612
 6147TIP3   OH239999   3.948   5.675   7.735 -0.6030  0.0045  0.1855
 6147TIP3    H140000   4.011   5.713   7.673  0.9148  0.4380  1.8959
 6147TIP3    H240001   3.977   5.585   7.747 -1.1738 -0.2161 -0.0865
 6148TIP3   OH240002   6.575   4.273   3.494  0.4637  0.6982  0.2574
 6148TIP3    H140003   6.498   4.266   3.438  1.5822  0.0078 -1.2926
 6148TIP3    H240004   6.607   4.183   3.503  0.0746  0.7280  2.4325
 6149TIP3   OH240005   6.220   3.306   1.370  0.1755 -0.5659 -0.2171
 6149TIP3    H140006   6.174   3.258   1.438 -1.0222 -1.9567 -1.9377
 6149TIP3    H240007   6.308   3.318   1.406 -1.0940  1.1375  2.6568
 6150TIP3   OH240008   1.608   0.600   2.068  0.0992  0.6246 -0.5730
 6150TIP3    H140009   1.518   0.622   2.044  0.3488  0.7724 -1.4367
 6150TIP3    H240010   1.658   0.616   1.988  0.8301  0.1634 -0.2199
 6151TIP3   OH240011   5.982   7.030   8.151  0.0695 -0.0978 -0.2554
 6151TIP3    H140012   6.022   7.115   8.173  0.1441 -0.2794  0.3542
 6151TIP3    H240013   6.017   6.970   8.218  0.2309 -0.6674 -0.8438
 6152TIP3   OH240014   0.248   5.197   7.737 -0.0118 -0.2010 -0.3294
 6152TIP3    H140015   0.289   5.272   7.694  1.2697 -1.2568 -1.0291
 6152TIP3    H240016   0.154   5.210   7.723  0.2241  0.9280 -1.0021
 6153TIP3   OH240017   4.318   5.894   1.181 -0.5822  0.6794  0.1584
 6153TIP3    H140018   4.254   5.843   1.231 -0.0212  0.6991  0.9272
 6153TIP3    H240019   4.270   5.970   1.149 -0.7567  1.1299  1.4386
 6154TIP3   OH240020   1.307   3.796   1.587 -0.1569 -0.6751  0.7531
 6154TIP3    H140021   1.389   3.780   1.540 -0.1209 -0.3520  0.7101
 6154TIP3    H240022   1.240   3.799   1.519 -0.0780 -0.0060  0.6989
 6155TIP3   OH240023   2.318   2.395   0.923 -0.0673  0.1995 -0.3969
 6155TIP3    H140024   2.225   2.410   0.902 -0.0383  2.0260  0.5000
 6155TIP3    H240025   2.365   2.448   0.859  0.4315 -1.3071 -1.3215
 6156TIP3   OH240026   2.722   0.164   0.539 -0.1483 -0.6552 -0.1016
 6156TIP3    H140027   2.792   0.131   0.596 -1.2435  0.9426  2.3137
 6156TIP3    H240028   2.653   0.098   0.545  0.6257 -1.6312 -1.5086
 6157TIP3   OH240029   2.454   2.177   2.918 -0.0505  0.0917 -0.2832
 6157TIP3    H140030   2.472   2.247   2.855  4.0076 -1.4828 -1.2246
 6157TIP3    H240031   2.490   2.210   3.001 -0.5421  0.1292 -0.0840
 6158TIP3   OH240032   1.651   4.195   2.012  0.2169  0.5143  0.0662
 6158TIP3    H140033   1.591   4.217   2.083 -1.4173 -0.9902 -0.7760
 6158TIP3    H240034   1.629   4.257   1.943 -1.2185 -0.7013 -0.6391
 6159TIP3   OH240035   4.148   0.614   1.423 -0.0219  0.4295  0.2484
 6159TIP3    H140036   4.179   0.687   1.476  2.3922 -1.5179  1.8051
 6159TIP3    H240037   4.186   0.537   1.465 -1.3277 -1.6154 -2.0513
 6160TIP3   OH240038   1.271   5.464   0.864 -0.1767  0.3968  0.0179
 6160TIP3    H140039   1.319   5.385   0.890 -2.0569 -0.4416  1.1916
 6160TIP3    H240040   1.306   5.533   0.920  1.3839  0.4126 -0.9162
 6161TIP3   OH240041   3.186   3.584   0.694  0.6129 -0.6889  0.1062
 6161TIP3    H140042   3.174   3.628   0.778  1.4920 -1.3653  0.6006
 6161TIP3    H240043   3.163   3.650   0.629 -2.7433 -0.9400  0.8749
 6162TIP3   OH240044   3.497   4.405   1.966 -0.0292 -0.0476 -0.2068
 6162TIP3    H140045   3.435   4.432   2.034  0.3287 -0.4677  0.2913
 6162TIP3    H240046   3.582   4.408   2.010  0.2518  0.0779 -0.7578
 6163TIP3   OH240047   6.319   3.569   1.178 -0.1317 -1.0195  0.2879
 6163TIP3    H140048   6.391   3.629   1.196 -0.9306  1.0863 -2.6769
 6163TIP3    H240049   6.254   3.587   1.246  0.6974 -0.3401  0.9096
 6164TIP3   OH240050   0.667   1.642   2.387 -0.2846 -0.1504  0.0196
 6164TIP3    H140051   0.594   1.674   2.333 -0.7845 -0.8543  0.2492
 6164TIP3    H240052   0.661   1.693   2.467  0.4912  0.9366 -0.5859
 6165TIP3   OH240053   3.467   1.987   0.084  0.4759  0.7713 -0.4187
 6165TIP3    H140054   3.410   1.919   0.048  0.5705  1.2352 -1.4750
 6165TIP3    H240055   3.539   1.993   0.021  0.6139  1.6440 -0.1867
 6166TIP3   OH240056   3.160   1.901   0.442  0.3189  0.0620 -0.2429
 6166TIP3    H140057   3.248   1.871   0.418 -0.2876 -0.9793 -1.2673
 6166TIP3    H240058   3.114   1.907   0.358 -0.4869  0.9321  0.2520
 6167TIP3   OH240059   4.216   0.888   1.576 -0.2179  0.0509  0.3319
 6167TIP3    H140060   4.230   0.974   1.616  1.5420 -0.8633  1.8721
 6167TIP3    H240061   4.181   0.834   1.648  0.5970 -1.0073 -0.0424
 6168TIP3   OH240062   5.290   6.986   3.279 -0.3202 -0.5677  0.1546
 6168TIP3    H140063   5.360   6.967   3.341 -1.0847  0.4509  1.3666
 6168TIP3    H240064   5.227   6.915   3.290 -0.0059 -0.9031 -0.1682
 6169TIP3   OH240065   1.360   2.855   0.110  0.1147  0.3598  0.1771
 6169TIP3    H140066   1.323   2.903   0.184 -1.2402  1.4442 -1.1522
 6169TIP3    H240067   1.304   2.778   0.102  0.8796 -0.2940  0.8653
 6170TIP3   OH240068   0.803   2.674   1.811 -0.1914  0.3040  0.3113
 6170TIP3    H140069   0.748   2.595   1.820  1.0045 -0.6548 -0.4206
 6170TIP3    H240070   0.791   2.721   1.893  0.0597 -1.3117  1.3218
 6171TIP3   OH240071   0.079   1.883   2.697  0.3418 -0.2990 -0.5869
 6171TIP3    H140072   0.061   1.973   2.668  2.2105  0.5480  0.6132
 6171TIP3    H240073   0.002   1.833   2.671 -0.4775  1.5171 -1.8785
 6172TIP3   OH240074   1.556   4.305   7.911 -0.4627 -0.2131 -0.3554
 6172TIP3    H140075   1.595   4.270   7.991 -0.9585 -0.2839 -0.1409
 6172TIP3    H240076   1.526   4.392   7.935  1.1494  0.5648 -1.0009
 6173TIP3   OH240077   5.616   6.687   0.469 -0.8390  0.2798 -0.0872
 6173TIP3    H140078   5.536   6.738   0.459 -0.7927  0.5522  0.8363
 6173TIP3    H240079   5.587   6.596   0.467 -1.1082  0.3667 -0.2010
 6174TIP3   OH240080   2.176   2.391   2.995  0.1575  0.0212 -0.2569
 6174TIP3    H140081   2.086   2.423   3.007  0.3087  0.2054  0.4239
 6174TIP3    H240082   2.214   2.395   3.083  0.5238 -0.9931 -0.3645
 6175TIP3   OH240083   3.248   3.538   1.252 -0.6261 -0.2882 -0.2735
 6175TIP3    H140084   3.315   3.594   1.292  0.8048 -0.5332 -2.1821
 6175TIP3    H240085   3.258   3.454   1.295 -1.2054  0.2518  0.9687
 6176TIP3   OH240086   4.762   3.210   7.199  0.1971  0.5435  0.4831
 6176TIP3    H140087   4.677   3.247   7.174  1.3007  1.8663 -1.6123
 6176TIP3    H240088   4.776   3.240   7.289 -0.5639  2.2950  0.0618
 6177TIP3   OH240089   6.873   6.896   1.108  0.3804 -0.0373 -0.2364
 6177TIP3    H140090   6.901   6.986   1.094  0.7891 -0.2664 -0.9204
 6177TIP3    H240091   6.930   6.843   1.052  0.2461 -0.7366  0.2677
 6178TIP3   OH240092   0.271   2.270   2.774  0.6545  0.0426 -0.0054
 6178TIP3    H140093   0.260   2.350   2.825 -1.0019 -0.1006 -0.0922
 6178TIP3    H240094   0.344   2.289   2.715  2.0266  0.5171  1.7829
 6179TIP3   OH240095   3.256   4.173   7.463 -0.3144  0.0632  0.2337
 6179TIP3    H140096   3.251   4.247   7.524 -0.6127  0.0284  0.2542
 6179TIP3    H240097   3.165   4.151   7.444 -0.2487 -1.0290  1.1028
 6180TIP3   OH240098   6.841   3.834   2.693 -0.0095 -0.5508 -0.2116
 6180TIP3    H140099   6.807   3.878   2.615  0.9318  0.2007 -0.2186
 6180TIP3    H240100   6.936   3.833   2.680  0.1166 -0.8654  0.6899
 6181TIP3   OH240101   6.879   0.715   1.943  0.2552  0.0352 -0.0665
 6181TIP3    H140102   6.885   0.717   1.848  1.8871  0.3870  0.0195
 6181TIP3    H240103   6.788   0.737   1.962  0.0660  0.6061 -1.5247
 6182TIP3   OH240104   1.332   5.783   0.501 -0.1271  0.2079  0.0444
 6182TIP3    H140105   1.385   5.800   0.423 -0.2334 -0.4635 -0.1850
 6182TIP3    H240106   1.243   5.775   0.469  0.1877 -3.5332 -0.3712
 6183TIP3   OH240107   0.892   2.465   7.499  0.2959 -0.0098 -0.0559
 6183TIP3    H140108   0.837   2.405   7.551 -0.2088  0.9544  0.5548
 6183TIP3    H240109   0.883   2.434   7.409 -0.1383 -0.7055  0.2156
 6184TIP3   OH240110   0.988   3.148   1.168  0.0837 -0.4163  0.0624
 6184TIP3    H140111   1.024   3.189   1.247 -2.0191 -0.6376  1.2200
 6184TIP3    H240112   1.054   3.162   1.101  1.4053  0.8793  1.5576
 6185TIP3   OH240113   6.752   0.924   2.148 -0.0080 -0.2055 -0.4480
 6185TIP3    H140114   6.711   0.978   2.214 -3.4543 -0.8077 -1.8845
 6185TIP3    H240115   6.717   0.836   2.163 -0.0187 -0.5797 -2.3317
 6186TIP3   OH240116   1.419   6.323   3.002 -0.2025 -0.0193  0.5251
 6186TIP3    H140117   1.405   6.418   3.010 -0.0196 -0.0586  1.4061
 6186TIP3    H240118   1.382   6.301   2.917  2.0945  1.2884 -0.9304
 6187TIP3   OH240119   4.153   1.531   3.380  0.2507  0.2390  0.2367
 6187TIP3    H140120   4.131   1.606   3.436  1.8102 -0.0618  1.3330
 6187TIP3    H240121   4.071   1.509   3.336 -0.0504  3.2019 -0.9293
 6188TIP3   OH240122   4.452   6.785   7.882 -0.1835 -0.0068 -0.4879
 6188TIP3    H140123   4.530   6.797   7.827 -1.5014  1.2971 -2.2028
 6188TIP3    H240124   4.387   6.844   7.844 -2.7000 -2.5047 -0.3882
 6189TIP3   OH240125   6.986   5.908   1.426 -1.2967  0.6209 -0.6461
 6189TIP3    H140126   6.993   5.943   1.515 -1.1597  0.0809 -0.4432
 6189TIP3    H240127   7.008   5.815   1.435  0.4152  0.9046 -1.5201
 6190TIP3   OH240128   0.959   2.475   0.039 -0.0258 -0.4229 -0.6285
 6190TIP3    H140129   0.990   2.386   0.058  1.7332  0.0650 -1.0424
 6190TIP3    H240130   0.910   2.501   0.116  2.0762 -0.6162  0.8476
 6191TIP3   OH240131   1.427   4.031   2.372 -0.0975  0.3563  0.1655
 6191TIP3    H140132   1.482   3.955   2.351 -0.8105 -0.4633  1.1938
 6191TIP3    H240133   1.476   4.078   2.439 -0.0189  0.3791  0.0927
 6192TIP3   OH240134   2.240   4.975   0.611 -0.5095  0.3299  0.3009
 6192TIP3    H140135   2.196   5.048   0.654 -1.2862 -0.5137  0.9667
 6192TIP3    H240136   2.202   4.973   0.523  1.1571  2.1218 -0.5462
 6193TIP3   OH240137   1.869   3.953   1.014  0.4406 -0.0379  0.4325
 6193TIP3    H140138   1.950   3.906   1.038  0.1889 -0.2832  0.8090
 6193TIP3    H240139   1.819   3.957   1.095 -0.1172 -0.2616  0.1020
 6194TIP3   OH240140   1.791   0.297   8.263  0.5000  0.5068  0.0899
 6194TIP3    H140141   1.813   0.288   8.355 -1.5464  1.1773  0.6886
 6194TIP3    H240142   1.722   0.232   8.248  0.3893  0.8131 -0.8118
 6195TIP3   OH240143   3.711   2.198   1.694  0.3536  0.1596  0.7071
 6195TIP3    H140144   3.679   2.216   1.606  1.3511 -1.4620 -0.0286
 6195TIP3    H240145   3.632   2.181   1.746 -0.3258  2.2180  0.4620
 6196TIP3   OH240146   0.812   2.869   8.148 -0.1339 -0.3332  0.6938
 6196TIP3    H140147   0.740   2.929   8.132 -0.2159 -0.0312  2.0626
 6196TIP3    H240148   0.774   2.802   8.206  0.6794 -0.1219  1.4986
 6197TIP3   OH240149   2.238   2.854   0.073  0.2099  0.0594 -0.9324
 6197TIP3    H140150   2.157   2.803   0.077 -0.0707  0.4743 -1.2682
 6197TIP3    H240151   2.238   2.892  -0.014  1.4181 -0.9853 -1.4219
 6198TIP3   OH240152   6.943   5.354   7.417 -0.2397  0.6635  0.0665
 6198TIP3    H140153   6.890   5.300   7.359  0.4890  1.3550 -1.3028
 6198TIP3    H240154   6.880   5.412   7.461 -0.7089  0.8836 -0.8777
 6199TIP3   OH240155   4.127   1.959   0.664  0.0098  0.3044  0.2751
 6199TIP3    H140156   4.211   1.915   0.653 -0.5471 -0.8751  0.4793
 6199TIP3    H240157   4.148   2.051   0.672  1.3069 -0.0092  0.6368
 6200TIP3   OH240158   1.575   0.521   0.411 -0.3031  0.0072  0.4176
 6200TIP3    H140159   1.578   0.467   0.491  1.1112 -0.2748  0.2102
 6200TIP3    H240160   1.666   0.525   0.383 -0.8326 -0.3000 -1.4571
 6201TIP3   OH240161   6.064   5.994   0.166  0.3663  0.1506 -0.1237
 6201TIP3    H140162   5.977   5.978   0.128 -0.1341  0.1402  0.9988
 6201TIP3    H240163   6.110   5.911   0.154 -0.3025 -0.3478  0.6117
 6202TIP3   OH240164   5.380   6.130   7.269  0.5654 -0.3541  0.1469
 6202TIP3    H140165   5.465   6.160   7.300  1.3256 -1.0908 -1.1730
 6202TIP3    H240166   5.376   6.038   7.296  0.0955 -0.2744  0.3652
 6203TIP3   OH240167   4.667   6.675   1.408 -0.1709 -0.1248 -0.3255
 6203TIP3    H140168   4.699   6.759   1.376 -0.8227  0.5248  0.6959
 6203TIP3    H240169   4.632   6.632   1.330 -0.0015  0.6164 -0.8228
 6204TIP3   OH240170   0.118   0.805   3.010  0.3900 -0.4579 -0.7681
 6204TIP3    H140171   0.154   0.890   3.034 -0.0270 -0.3937 -0.3747
 6204TIP3    H240172   0.175   0.742   3.054 -0.8748 -0.3348  1.1595
 6205TIP3   OH240173   3.862   3.924   1.042  0.0810 -0.6440 -0.0924
 6205TIP3    H140174   3.873   3.844   0.992 -1.2493 -0.3656 -0.8712
 6205TIP3    H240175   3.865   3.994   0.977 -3.9291 -0.3956 -0.2571
 6206TIP3   OH240176   3.902   3.009   2.364  0.0333 -0.0477  0.2748
 6206TIP3    H140177   3.946   2.937   2.319  1.4514  0.5142  0.7021
 6206TIP3    H240178   3.878   3.070   2.294 -1.6125 -1.1034 -0.1482
 6207TIP3   OH240179   4.181   2.727   0.060 -0.2736  0.7086 -0.3374
 6207TIP3    H140180   4.218   2.750   0.145 -0.2731 -2.2013  0.5630
 6207TIP3    H240181   4.091   2.760   0.063  0.4816  2.9063 -0.3135
 6208TIP3   OH240182   2.340   2.587   2.895  0.6166 -0.0826  0.0040
 6208TIP3    H140183   2.264   2.529   2.888  0.0000  0.8738 -2.9892
 6208TIP3    H240184   2.302   2.673   2.912  1.0422  0.2775 -0.7848
 6209TIP3   OH240185   0.808   4.604   3.464  0.2920 -0.1368 -0.6420
 6209TIP3    H140186   0.731   4.613   3.409 -0.5814 -2.2447  0.1251
 6209TIP3    H240187   0.877   4.574   3.405  0.2685  0.7377 -1.1348
 6210TIP3   OH240188   3.334   0.049   2.148  0.5118  0.6677 -0.6188
 6210TIP3    H140189   3.321   0.027   2.241  0.6395  0.8348 -0.5609
 6210TIP3    H240190   3.405   0.113   2.149  0.5734  0.6005 -0.8414
 6211TIP3   OH240191   3.616   0.782   1.440  0.1668  0.5687 -0.2901
 6211TIP3    H140192   3.681   0.713   1.433  0.4069  0.9100 -1.7514
 6211TIP3    H240193   3.579   0.790   1.352 -1.4356  0.7894  0.3663
 6212TIP3   OH240194   3.884   4.378   0.817  0.4456 -0.4398  0.1672
 6212TIP3    H140195   3.806   4.432   0.800  0.1744 -0.8084  0.2281
 6212TIP3    H240196   3.955   4.424   0.772  0.3612  0.3729  0.8484
 6213TIP3   OH240197   5.581   4.230   1.013 -0.5563 -0.3085 -0.0581
 6213TIP3    H140198   5.576   4.326   1.013 -0.9176 -0.3261  0.3429
 6213TIP3    H240199   5.649   4.211   1.078 -1.9964 -0.3877  1.4876
 6214TIP3   OH240200   6.231   3.026   1.146 -0.1140 -0.0301  0.3360
 6214TIP3    H140201   6.247   2.999   1.055  0.7186  0.2762  0.3858
 6214TIP3    H240202   6.313   3.066   1.174 -0.9644  1.6288  0.5929
 6215TIP3   OH240203   4.744   0.360   3.470  0.0279 -0.4778  0.3933
 6215TIP3    H140204   4.744   0.348   3.375  1.3487 -1.0363  0.4390
 6215TIP3    H240205   4.835   0.382   3.492 -0.8503  3.1411  1.1640
 6216TIP3   OH240206   6.493   0.376   2.317  0.3003 -0.1842 -0.6522
 6216TIP3    H140207   6.462   0.293   2.353 -0.6262 -0.3842 -1.8500
 6216TIP3    H240208   6.435   0.442   2.355  0.9005 -0.0884  0.1302
 6217TIP3   OH240209   3.946   0.130   7.749  0.1505  0.3283  0.5918
 6217TIP3    H140210   3.855   0.102   7.735  0.6484 -0.6765 -0.8439
 6217TIP3    H240211   3.958   0.202   7.687  1.0984 -1.3321 -1.2604
 6218TIP3   OH240212   6.508   0.769   7.718  0.4247 -0.1783  0.3412
 6218TIP3    H140213   6.523   0.844   7.774 -0.4114 -2.1220  3.3943
 6218TIP3    H240214   6.591   0.721   7.719  0.5211 -0.0542 -0.4591
 6219TIP3   OH240215   0.858   2.179   1.518 -0.1257  0.0161 -0.1055
 6219TIP3    H140216   0.780   2.192   1.465 -0.3876 -0.1635  0.2365
 6219TIP3    H240217   0.899   2.266   1.522  1.0350 -0.3486 -2.3410
 6220TIP3   OH240218   3.242   7.040   2.420  0.1174 -0.1662 -0.0959
 6220TIP3    H140219   3.285   6.957   2.398  0.5392 -0.3833  1.4347
 6220TIP3    H240220   3.159   7.015   2.460  0.5396  0.1028  0.9880
 6221TIP3   OH240221   5.796   3.014   0.809 -0.1680 -0.0723  0.5940
 6221TIP3    H140222   5.827   2.975   0.727 -0.1900  0.0659  0.5185
 6221TIP3    H240223   5.846   3.095   0.817 -2.1764  1.4280 -0.8087
 6222TIP3   OH240224   0.490   3.044   7.879 -0.1825  0.8961 -0.2695
 6222TIP3    H140225   0.507   2.952   7.856 -1.1049  0.9799 -1.4058
 6222TIP3    H240226   0.536   3.057   7.961  0.1138 -0.5438 -0.1748
 6223TIP3   OH240227   4.901   5.102   7.082 -0.3810  0.0353 -1.0285
 6223TIP3    H140228   4.847   5.176   7.056 -0.9732 -0.0410 -0.0612
 6223TIP3    H240229   4.869   5.078   7.169  0.7390 -0.4638 -0.7312
 6224TIP3   OH240230   4.032   5.191   0.586 -0.2007  0.5818 -0.7389
 6224TIP3    H140231   4.117   5.191   0.630 -1.5260 -0.6620  2.1427
 6224TIP3    H240232   4.001   5.100   0.594 -2.6210  1.4108  0.1836
 6225TIP3   OH240233   5.371   4.167   0.072  0.1123  0.5437 -0.4355
 6225TIP3    H140234   5.300   4.223   0.102  1.6376  1.2986  2.0366
 6225TIP3    H240235   5.450   4.209   0.104  1.6451 -0.8573 -2.1258
 6226TIP3   OH240236   0.003   2.434   7.824  0.5852 -0.3976 -0.4198
 6226TIP3    H140237  -0.069   2.423   7.762  0.6247 -0.1963 -0.5016
 6226TIP3    H240238  -0.035   2.485   7.896  1.0250  0.9393 -1.1251
 6227TIP3   OH240239   1.466   3.330   0.903 -0.4927  0.3663 -0.5973
 6227TIP3    H140240   1.487   3.347   0.995 -0.9168  1.2895 -0.6641
 6227TIP3    H240241   1.448   3.416   0.867  0.0827  0.0585 -1.6554
 6228TIP3   OH240242   0.398   5.127   0.797  0.1452 -0.0164 -0.2657
 6228TIP3    H140243   0.450   5.132   0.877  0.5004 -2.7353 -0.2259
 6228TIP3    H240244   0.327   5.065   0.819 -0.9158  0.7262 -1.4602
 6229TIP3   OH240245   0.681   6.469   6.970  0.2202 -0.3962 -0.0950
 6229TIP3    H140246   0.704   6.515   7.051  1.0945 -2.4140  0.8567
 6229TIP3    H240247   0.680   6.377   6.994 -1.2672 -0.9256 -1.9975
 6230TIP3   OH240248   3.826   3.267   0.131 -0.2770  0.7914  0.6173
 6230TIP3    H140249   3.836   3.180   0.170  2.3085  0.9196  0.4041
 6230TIP3    H240250   3.753   3.258   0.071 -0.2333 -1.1740  0.8051
 6231TIP3   OH240251   0.882   2.858   3.219  0.1256  0.4920 -0.7554
 6231TIP3    H140252   0.973   2.832   3.232  0.0442  0.7837  0.5882
 6231TIP3    H240253   0.832   2.781   3.245 -0.0608  1.2458  1.2892
 6232TIP3   OH240254   2.496   2.458   0.123  0.3894 -0.0910 -0.7459
 6232TIP3    H140255   2.510   2.508   0.043  0.4965 -0.5503 -1.0153
 6232TIP3    H240256   2.580   2.415   0.139  0.9986  1.4940  0.6695
 6233TIP3   OH240257   5.433   3.430   6.665 -0.0184  0.2319 -0.0831
 6233TIP3    H140258   5.371   3.396   6.729 -1.8192  0.4229 -1.6328
 6233TIP3    H240259   5.503   3.470   6.717 -1.7213  0.9368  1.7563
 6234TIP3   OH240260   2.275   6.470   2.423 -0.5164  0.0289  0.1531
 6234TIP3    H140261   2.359   6.489   2.464 -0.3978  0.9071 -0.4614
 6234TIP3    H240262   2.250   6.384   2.456 -0.9079  1.0694  2.8170
 6235TIP3   OH240263   4.665   6.892   2.577  0.0058  0.7233  0.0444
 6235TIP3    H140264   4.730   6.890   2.647 -2.0447  3.0889  2.2062
 6235TIP3    H240265   4.642   6.800   2.563  1.2858  0.1066  1.6963
 6236TIP3   OH240266   5.578   6.031   0.683  0.8235 -0.5814  0.4100
 6236TIP3    H140267   5.580   6.100   0.616 -0.8580 -1.4863 -0.6218
 6236TIP3    H240268   5.625   6.069   0.757  0.7231  1.3317 -0.4513
 6237TIP3   OH240269   3.704   4.216   0.487 -0.1237  1.0233 -0.1962
 6237TIP3    H140270   3.704   4.311   0.475  0.4658  1.2299  1.2844
 6237TIP3    H240271   3.627   4.199   0.541 -0.1279  0.6753 -0.3096
 6238TIP3   OH240272   1.943   6.416   0.636 -0.2639  0.4026  0.1730
 6238TIP3    H140273   2.026   6.445   0.674 -0.3159 -1.0687  1.4891
 6238TIP3    H240274   1.956   6.428   0.542  1.4981  0.1001  0.3283
 6239TIP3   OH240275   3.681   1.378   2.847 -0.2177 -0.0241  0.1174
 6239TIP3    H140276   3.698   1.401   2.939 -1.2092 -1.1170  0.6055
 6239TIP3    H240277   3.621   1.446   2.816 -0.2276  0.1081  0.4209
 6240TIP3   OH240278   0.704   3.146   7.161 -0.1620  0.4438  0.4452
 6240TIP3    H140279   0.764   3.130   7.088 -1.1782 -0.9529 -0.1265
 6240TIP3    H240280   0.761   3.158   7.237  0.8863 -1.3787  0.0187
 6241TIP3   OH240281   6.530   3.743   8.027  0.2156 -0.0275 -0.3357
 6241TIP3    H140282   6.558   3.833   8.041 -0.0867 -0.1464  1.2132
 6241TIP3    H240283   6.444   3.751   7.984 -1.0944  0.5397  2.1997
 6242TIP3   OH240284   0.324   2.821   7.494 -0.4338  0.4869  0.4842
 6242TIP3    H140285   0.406   2.783   7.524 -1.4416 -0.6047  2.0350
 6242TIP3    H240286   0.338   2.838   7.401  1.0219 -1.1189  0.3496
 6243TIP3   OH240287   4.443   0.151   1.174 -0.1626  0.5135 -0.1712
 6243TIP3    H140288   4.435   0.230   1.227 -1.3079  0.7283 -0.6447
 6243TIP3    H240289   4.527   0.161   1.128  0.2116  0.9332  0.5953
 6244TIP3   OH240290   6.155   4.731   3.361  0.1760  0.2161 -0.4192
 6244TIP3    H140291   6.149   4.641   3.329  0.7839  0.5445 -1.4840
 6244TIP3    H240292   6.245   4.757   3.345  0.3990  0.5499  1.2031
 6245TIP3   OH240293   5.875   2.205   2.582 -0.1798  0.5396  0.0873
 6245TIP3    H140294   5.841   2.120   2.610 -1.1131  0.1679 -1.9557
 6245TIP3    H240295   5.910   2.188   2.494  0.9486  1.9743  0.2344
 6246TIP3   OH240296   0.215   6.017   1.270 -0.6333  0.2572 -0.2224
 6246TIP3    H140297   0.297   5.979   1.240  0.5103  2.0520  0.4466
 6246TIP3    H240298   0.190   5.963   1.345  0.1379 -0.1063 -0.2113
 6247TIP3   OH240299   3.069   0.770   1.348 -0.2602 -0.2434  0.1542
 6247TIP3    H140300   3.113   0.784   1.432  0.3489 -1.6959  0.1105
 6247TIP3    H240301   2.987   0.818   1.356 -0.3087 -0.5208  1.6821
 6248TIP3   OH240302   2.009   6.108   2.187 -0.2603  1.0116  0.8613
 6248TIP3    H140303   1.932   6.132   2.135 -0.3064  1.1349  0.9867
 6248TIP3    H240304   2.044   6.030   2.143 -0.1398  1.2776  0.4830
 6249TIP3   OH240305   5.775   4.667   1.199 -1.0239 -0.5571  0.0252
 6249TIP3    H140306   5.792   4.684   1.292 -1.9961 -0.1269  0.1412
 6249TIP3    H240307   5.817   4.740   1.154  1.4451 -1.9547 -0.0851
 6250TIP3   OH240308   5.560   1.716   1.899  0.6569  0.6331  0.0819
 6250TIP3    H140309   5.634   1.713   1.959 -0.0839  0.8420  1.0389
 6250TIP3    H240310   5.483   1.724   1.956 -0.5826 -3.9052 -0.4791
 6251TIP3   OH240311   0.508   4.655   1.232 -0.0330  0.0030 -0.3131
 6251TIP3    H140312   0.527   4.737   1.278 -2.0135 -0.4810  1.5045
 6251TIP3    H240313   0.492   4.592   1.301 -0.7940 -1.3721 -1.6799
 6252TIP3   OH240314   6.294   5.836   2.289  0.0290 -0.5095 -0.0009
 6252TIP3    H140315   6.277   5.886   2.210  2.1063 -0.9615 -0.7964
 6252TIP3    H240316   6.298   5.745   2.260 -2.2059 -1.0487  1.1711
 6253TIP3   OH240317   3.990   3.611   2.207 -0.2835 -0.0894  0.5435
 6253TIP3    H140318   3.923   3.581   2.269  0.1245  0.9176  1.5038
 6253TIP3    H240319   3.940   3.639   2.130 -1.0176  0.9458  1.3697
 6254TIP3   OH240320   4.794   3.380   0.577 -0.6901 -0.0162 -0.2742
 6254TIP3    H140321   4.874   3.432   0.588 -1.4250  1.3804 -1.1392
 6254TIP3    H240322   4.766   3.360   0.666  0.7082 -0.7004  0.0423
 6255TIP3   OH240323   4.156   1.338   2.255  0.0423 -0.5497 -0.0106
 6255TIP3    H140324   4.134   1.288   2.176 -0.0825  0.5421 -0.6893
 6255TIP3    H240325   4.083   1.399   2.266 -0.5621 -1.5267  1.6961
 6256TIP3   OH240326   0.099   5.686   0.972 -0.4081  0.4700 -0.6255
 6256TIP3    H140327   0.081   5.699   1.066  1.5225 -0.5254 -0.0624
 6256TIP3    H240328   0.055   5.604   0.950 -0.2046  0.2904 -0.3743
 6257TIP3   OH240329   5.697   0.762   0.478 -0.1094  0.2155 -0.0430
 6257TIP3    H140330   5.722   0.854   0.470 -1.6633  1.0340  3.1464
 6257TIP3    H240331   5.624   0.762   0.540  0.1564 -3.2226  0.4504
 6258TIP3   OH240332   1.101   2.449   2.788  0.1190 -0.1461 -0.0957
 6258TIP3    H140333   1.077   2.392   2.862 -1.3383  0.3728 -0.1282
 6258TIP3    H240334   1.185   2.415   2.758  0.2424 -1.0262  1.1417
 6259TIP3   OH240335   1.997   6.295   6.955 -0.0510  0.8006 -0.3597
 6259TIP3    H140336   1.945   6.242   7.016 -0.1187  1.9173  0.5924
 6259TIP3    H240337   2.085   6.257   6.959 -0.2682  0.2975 -0.2636
 6260TIP3   OH240338   0.759   3.563   2.474 -0.4754  0.3749  0.3882
 6260TIP3    H140339   0.772   3.578   2.380  1.9824  2.7657  0.9723
 6260TIP3    H240340   0.675   3.605   2.493 -2.2342 -2.2113 -1.0326
 6261TIP3   OH240341   6.704   4.271   0.566  0.1941 -0.2424  0.1021
 6261TIP3    H140342   6.770   4.227   0.620 -0.2897 -1.0835  0.0312
 6261TIP3    H240343   6.632   4.208   0.561  0.2865 -0.2574 -1.6719
 6262TIP3   OH240344   3.530   5.395   1.301  0.3512  0.1322  0.8493
 6262TIP3    H140345   3.443   5.356   1.314  0.2919  0.6284  2.1173
 6262TIP3    H240346   3.590   5.321   1.305  0.1890  0.0391  2.6552
 6263TIP3   OH240347   2.754   5.307   1.834 -0.5765 -0.2071 -1.0071
 6263TIP3    H140348   2.661   5.319   1.815 -1.1003 -2.8733 -0.6196
 6263TIP3    H240349   2.769   5.355   1.915 -1.4706  0.7018 -1.3646
 6264TIP3   OH240350   1.752   0.283   7.979 -0.6661 -0.0329 -0.1614
 6264TIP3    H140351   1.707   0.215   7.929 -0.2318 -1.0728  0.8014
 6264TIP3    H240352   1.743   0.255   8.070  0.0587  0.8844  0.2100
 6265TIP3   OH240353   4.977   7.012   1.896  0.5915  0.1755 -0.1736
 6265TIP3    H140354   4.900   7.011   1.952 -1.0552  2.0247 -2.2214
 6265TIP3    H240355   4.975   7.098   1.854  1.9599 -0.9191 -2.7215
 6266TIP3   OH240356   6.933   2.323   2.302 -0.0378  0.2108  0.1021
 6266TIP3    H140357   6.941   2.246   2.244 -0.7863  0.6684 -0.6409
 6266TIP3    H240358   6.851   2.363   2.275  0.1763  1.0776  0.7308
 6267TIP3   OH240359   4.656   2.019   7.942  0.6326 -0.5535 -0.2535
 6267TIP3    H140360   4.651   2.051   7.852  0.9532 -0.1239 -0.1189
 6267TIP3    H240361   4.628   1.928   7.936 -0.8527 -0.1013 -0.5530
 6268TIP3   OH240362   3.735   4.228   2.568  0.6637  1.0636 -0.3156
 6268TIP3    H140363   3.729   4.133   2.560  0.4493  0.9480  0.9841
 6268TIP3    H240364   3.726   4.244   2.662  2.5624  2.2327 -0.2839
 6269TIP3   OH240365   2.552   4.773   7.802 -0.0742 -0.1502 -0.5029
 6269TIP3    H140366   2.622   4.820   7.756  0.0363 -0.9280 -1.1527
 6269TIP3    H240367   2.596   4.696   7.840 -0.0979  0.6396  1.2062
 6270TIP3   OH240368   1.802   6.544   2.472  0.1517  0.2591 -0.2505
 6270TIP3    H140369   1.838   6.458   2.452 -2.6477 -0.9236 -0.7692
 6270TIP3    H240370   1.834   6.565   2.560  0.3611 -1.6464  0.1543
 6271TIP3   OH240371   0.315   6.691   2.470  0.6491 -0.0851  0.0804
 6271TIP3    H140372   0.337   6.773   2.514  0.1381  0.1736 -0.1316
 6271TIP3    H240373   0.363   6.694   2.387  0.1332  0.3006 -0.2117
 6272TIP3   OH240374   5.552   3.359   7.923  0.0331  0.2009  0.3223
 6272TIP3    H140375   5.631   3.355   7.977 -0.5684 -0.1208  1.2019
 6272TIP3    H240376   5.539   3.269   7.894  1.7510  0.7360 -2.5001
 6273TIP3   OH240377   6.924   4.422   0.003  0.0783  0.1406  0.4561
 6273TIP3    H140378   6.967   4.360   0.062  0.0385 -1.2214 -0.8725
 6273TIP3    H240379   6.938   4.507   0.043  1.0011 -0.6194  1.8417
 6274TIP3   OH240380   6.129   3.525   7.921  0.0520 -0.1599 -0.1741
 6274TIP3    H140381   6.080   3.543   7.841 -0.4683  0.7909  0.3436
 6274TIP3    H240382   6.070   3.550   7.992  0.7575 -0.3573  0.4982
 6275TIP3   OH240383   0.081   5.519   7.299 -0.1916  0.6853  0.6437
 6275TIP3    H140384   0.009   5.457   7.313  0.3836 -0.5686 -1.4815
 6275TIP3    H240385   0.057   5.565   7.219  0.4367  1.7082  1.0304
 6276TIP3   OH240386   6.811   5.049   0.994  0.0483 -0.0321 -0.4374
 6276TIP3    H140387   6.799   4.967   0.948 -0.7670  0.3565 -0.9327
 6276TIP3    H240388   6.818   5.024   1.086  0.0205 -0.6729 -0.6073
 6277TIP3   OH240389   4.415   1.993   0.004 -0.8100 -0.1122 -0.5394
 6277TIP3    H140390   4.428   1.969   0.096 -0.3340  0.7828 -0.3575
 6277TIP3    H240391   4.322   2.015  -0.002 -0.2799  2.9231  0.5387
 6278TIP3   OH240392   1.377   1.817   2.892 -0.4445 -0.3508 -0.3246
 6278TIP3    H140393   1.285   1.829   2.869 -0.5286  0.0367  0.1914
 6278TIP3    H240394   1.378   1.815   2.988  0.0301 -0.8111 -0.3371
 6279TIP3   OH240395   4.818   3.252   2.307  0.4571  0.0140 -0.6745
 6279TIP3    H140396   4.748   3.286   2.252  0.6650  0.5074 -0.6447
 6279TIP3    H240397   4.774   3.194   2.370  0.1759 -0.2649 -1.1266
 6280TIP3   OH240398   5.963   3.129   0.397  0.1474 -0.0386 -0.1543
 6280TIP3    H140399   6.035   3.183   0.428  0.2244 -1.0620  1.5405
 6280TIP3    H240400   5.886   3.185   0.407  0.4737  0.4406 -0.2836
 6281TIP3   OH240401   6.622   6.081   7.303  0.3894 -0.3905 -0.3950
 6281TIP3    H140402   6.622   6.004   7.245 -2.7088 -2.7984  2.3892
 6281TIP3    H240403   6.700   6.069   7.358  1.2230 -0.1571 -1.4757
 6282TIP3   OH240404   6.535   3.316   1.852 -0.2264 -0.3237  0.1770
 6282TIP3    H140405   6.447   3.285   1.872 -0.0740 -0.4093  0.7043
 6282TIP3    H240406   6.572   3.343   1.936  1.8241 -4.1961  0.7399
 6283TIP3   OH240407   3.651   0.267   0.574  0.5050  0.5335 -0.0500
 6283TIP3    H140408   3.611   0.351   0.554  2.0995  0.9303 -1.9301
 6283TIP3    H240409   3.733   0.289   0.619  0.4223 -0.0688  0.4139
 6284TIP3   OH240410   3.242   0.128   1.158 -0.3683 -0.0216  0.4380
 6284TIP3    H140411   3.198   0.050   1.126 -1.5921  0.3096  1.2259
 6284TIP3    H240412   3.218   0.133   1.251 -0.9888  1.6973  0.2275
 6285TIP3   OH240413   4.333   6.626   0.295  0.2783 -0.1188  0.3024
 6285TIP3    H140414   4.400   6.681   0.256  2.1133 -2.4533 -0.1149
 6285TIP3    H240415   4.372   6.538   0.296 -2.2603 -1.3485  1.3390
 6286TIP3   OH240416   6.001   2.158   1.243 -0.2023 -0.0932 -0.7015
 6286TIP3    H140417   6.057   2.102   1.297  0.2000  2.9683  2.4451
 6286TIP3    H240418   6.060   2.194   1.177  0.8841  0.7579  0.6763
 6287TIP3   OH240419   5.912   2.960   2.450 -0.1685 -0.6400 -0.7549
 6287TIP3    H140420   5.923   2.912   2.532  0.9822 -0.1605 -0.6088
 6287TIP3    H240421   5.934   2.896   2.382  0.7692 -0.5068 -0.5896
 6288TIP3   OH240422   0.558   2.698   7.509 -0.0989 -0.2544  0.2860
 6288TIP3    H140423   0.549   2.603   7.523  1.5343 -0.5016 -0.1824
 6288TIP3    H240424   0.604   2.729   7.587  3.0575 -0.5676 -1.2979
 6289TIP3   OH240425   6.679   0.142   1.865  0.7139  0.8778  0.1426
 6289TIP3    H140426   6.706   0.228   1.833 -0.8517  0.9831 -1.0080
 6289TIP3    H240427   6.584   0.142   1.857  0.5104 -0.2654  1.9765
 6290TIP3   OH240428   6.124   3.282   1.108  0.3387 -0.0882  0.1569
 6290TIP3    H140429   6.126   3.197   1.064 -3.0654 -0.8934  1.2278
 6290TIP3    H240430   6.159   3.265   1.195 -0.6842 -0.5416  0.4964
 6291TIP3   OH240431   2.645   2.932   1.825 -0.3507 -0.1869  0.1829
 6291TIP3    H140432   2.685   2.942   1.739  0.6599  1.5208  0.7978
 6291TIP3    H240433   2.708   2.879   1.874  0.2527  0.8384  0.5534
 6292TIP3   OH240434   2.553   4.775   2.847 -0.2025  0.2368  0.5325
 6292TIP3    H140435   2.610   4.731   2.784  0.5870  0.0522  1.3497
 6292TIP3    H240436   2.467   4.734   2.835  0.4971 -1.5012  1.2107
 6293TIP3   OH240437   2.005   2.338   8.249 -0.0642 -0.2537 -0.1971
 6293TIP3    H140438   2.007   2.374   8.160 -1.3666 -1.2567 -0.6616
 6293TIP3    H240439   1.951   2.259   8.242 -0.8490  0.0741  1.6404
 6294TIP3   OH240440   0.398   2.257   0.826  0.2793 -0.2576  0.3703
 6294TIP3    H140441   0.351   2.317   0.768 -1.1175 -1.1041  0.5800
 6294TIP3    H240442   0.376   2.285   0.914  0.9352 -0.0909  0.4866
 6295TIP3   OH240443   5.396   0.679   0.417 -0.1134 -0.7000 -0.2849
 6295TIP3    H140444   5.421   0.616   0.485  0.0334  1.9084  2.2340
 6295TIP3    H240445   5.479   0.713   0.385 -0.2062  0.5726  0.7641
 6296TIP3   OH240446   5.938   4.865   1.117 -0.0856 -0.1709  0.1077
 6296TIP3    H140447   6.025   4.850   1.079 -0.5072 -1.9123 -0.2044
 6296TIP3    H240448   5.897   4.930   1.059 -0.3932 -2.1188 -1.9671
 6297TIP3   OH240449   3.106   6.462   0.695 -0.2530 -0.2560  0.0385
 6297TIP3    H140450   3.155   6.529   0.648  2.7370 -1.4931  1.1202
 6297TIP3    H240451   3.105   6.491   0.786 -0.4211 -0.8555  0.2389
 6298TIP3   OH240452   1.025   3.256   7.963 -0.3151 -0.0097  0.5260
 6298TIP3    H140453   1.021   3.161   7.948  1.0132 -0.5877  3.2581
 6298TIP3    H240454   0.956   3.274   8.026  2.0536 -0.0340  3.3540
 6299TIP3   OH240455   4.625   1.268   1.132 -0.0302 -0.1478 -0.3617
 6299TIP3    H140456   4.619   1.338   1.067  1.9806  0.3484 -0.0829
 6299TIP3    H240457   4.630   1.314   1.216  1.2594 -0.5952 -0.1747
 6300TIP3   OH240458   3.007   3.810   2.124 -0.0325  0.3126 -0.1905
 6300TIP3    H140459   2.998   3.723   2.086 -1.2410 -0.5699  1.9290
 6300TIP3    H240460   3.070   3.799   2.195  0.7032  1.4642 -0.6332
 6301TIP3   OH240461   2.432   3.519   0.325 -0.1284 -0.9225  0.3546
 6301TIP3    H140462   2.508   3.502   0.269 -0.9377 -1.1177 -0.7309
 6301TIP3    H240463   2.430   3.615   0.333  0.1604 -0.9081  0.2944
 6302TIP3   OH240464   5.854   4.649   7.599 -1.0732  0.0422  0.0086
 6302TIP3    H140465   5.820   4.685   7.517 -0.7397  0.3460  0.0022
 6302TIP3    H240466   5.936   4.695   7.613 -0.8961 -0.3498  0.2708
 6303TIP3   OH240467   2.293   0.965   0.630  0.8664  0.0809 -0.0461
 6303TIP3    H140468   2.387   0.978   0.616  1.0274 -0.5032  0.4211
 6303TIP3    H240469   2.252   1.046   0.599  1.4471  0.0066 -1.0355
 6304TIP3   OH240470   2.327   2.214   1.139 -0.2358  0.1485  0.1014
 6304TIP3    H140471   2.386   2.149   1.101 -1.3985 -0.2876 -1.0310
 6304TIP3    H240472   2.336   2.290   1.082  1.0087  0.9651  1.3383
 6305TIP3   OH240473   4.237   3.705   2.373  0.2454 -0.1880  0.0339
 6305TIP3    H140474   4.173   3.692   2.304 -3.1086  1.8222  2.4837
 6305TIP3    H240475   4.277   3.790   2.353 -0.5153  0.2601  0.4014
 6306TIP3   OH240476   4.549   3.952   1.279 -0.2634  0.2808  0.2442
 6306TIP3    H140477   4.637   3.976   1.249 -0.3688 -0.2540 -0.5347
 6306TIP3    H240478   4.499   4.033   1.272 -0.4907  0.0257 -1.8753
 6307TIP3   OH240479   1.881   4.503   1.800 -0.2307  0.2713 -0.1570
 6307TIP3    H140480   1.800   4.538   1.837 -0.5701 -1.0791  0.4574
 6307TIP3    H240481   1.943   4.506   1.872 -0.0928  0.1704 -0.2722
 6308TIP3   OH240482   2.504   4.215   7.567  0.2695  0.0040  0.3112
 6308TIP3    H140483   2.470   4.294   7.525  0.1377  0.0558  0.5147
 6308TIP3    H240484   2.583   4.193   7.517 -1.6420 -1.8615 -2.1437
 6309TIP3   OH240485   4.271   4.347   0.377 -0.1280 -0.4508  0.4286
 6309TIP3    H140486   4.285   4.427   0.427  2.7408 -1.4952  1.4886
 6309TIP3    H240487   4.176   4.342   0.366 -0.5893  1.7059  2.6382
 6310TIP3   OH240488   3.417   4.381   2.814 -0.5267  0.1322  0.3802
 6310TIP3    H140489   3.405   4.325   2.891  0.6705  0.9282  1.1857
 6310TIP3    H240490   3.362   4.458   2.832 -0.1019  0.4022  0.5338
 6311TIP3   OH240491   2.487   0.234   2.327  0.0880 -0.1509 -0.4461
 6311TIP3    H140492   2.499   0.162   2.265 -1.3595 -0.4526 -0.4035
 6311TIP3    H240493   2.569   0.237   2.376  0.7396 -0.7855 -1.4545
 6312TIP3   OH240494   1.190   4.364   1.357 -0.2457 -0.0564  0.1775
 6312TIP3    H140495   1.187   4.415   1.276  2.3942  0.6637  0.4155
 6312TIP3    H240496   1.215   4.428   1.424 -0.3113 -1.0390  1.1600
 6313TIP3   OH240497   2.999   4.069   1.849 -0.4093 -0.5898 -0.0666
 6313TIP3    H140498   3.017   4.161   1.834 -0.4908 -0.1218  2.3510
 6313TIP3    H240499   3.086   4.029   1.859 -0.3813 -0.0517  2.4184
 6314TIP3   OH240500   6.683   3.140   1.023 -0.0629 -0.0339 -0.2971
 6314TIP3    H140501   6.617   3.207   1.007  0.5224  0.1350 -2.1473
 6314TIP3    H240502   6.637   3.074   1.076 -1.1558  0.9523  0.0184
 6315TIP3   OH240503   3.532   2.917   2.985 -0.0927  0.2630  0.0620
 6315TIP3    H140504   3.507   2.919   2.893 -0.3150 -2.4073 -0.0218
 6315TIP3    H240505   3.463   2.866   3.028  1.1842 -0.5592  1.2385
 6316TIP3   OH240506   4.560   2.874   2.717 -0.7825 -0.3235  0.1197
 6316TIP3    H140507   4.606   2.851   2.636 -2.0597  0.2867 -0.8208
 6316TIP3    H240508   4.478   2.825   2.713 -0.5747 -0.8054  1.3838
 6317TIP3   OH240509   1.298   6.724   0.217 -0.3617 -0.5984 -0.2815
 6317TIP3    H140510   1.276   6.736   0.309 -0.0497  1.3438 -0.4170
 6317TIP3    H240511   1.394   6.723   0.215 -0.3639 -0.5000 -0.5793
 6318TIP3   OH240512   2.909   4.622   2.782  0.2230 -0.1786  0.3098
 6318TIP3    H140513   3.001   4.608   2.758 -0.4423 -1.8307 -1.6097
 6318TIP3    H240514   2.911   4.638   2.876  2.5936  1.3850  0.0779
 6319TIP3   OH240515   1.838   2.761   1.565 -0.1856  0.0735  0.0094
 6319TIP3    H140516   1.844   2.679   1.614 -1.1059  0.4505  0.7889
 6319TIP3    H240517   1.886   2.744   1.484 -1.0262 -1.4977 -0.2045
 6320TIP3   OH240518   0.201   0.064   0.564  0.2418  0.3616 -0.0363
 6320TIP3    H140519   0.254   0.051   0.485  0.1262 -0.3022 -0.0092
 6320TIP3    H240520   0.218  -0.014   0.617  0.7684  1.0657  0.8624
 6321TIP3   OH240521   5.804   0.188   0.896 -0.4445  0.6607 -0.3341
 6321TIP3    H140522   5.753   0.122   0.849  1.1392  0.2529 -1.6045
 6321TIP3    H240523   5.805   0.158   0.987 -2.3300  0.6426 -0.2905
 6322TIP3   OH240524   0.672   1.725   8.186 -1.0114 -0.3994 -0.1488
 6322TIP3    H140525   0.705   1.788   8.250 -1.6662 -0.3747  0.1732
 6322TIP3    H240526   0.607   1.674   8.234 -0.0738 -1.7274 -0.2313
 6323TIP3   OH240527   3.910   0.356   0.601  0.5447  0.3938  0.5218
 6323TIP3    H140528   3.892   0.347   0.508 -2.0731 -0.8593  1.0515
 6323TIP3    H240529   3.908   0.451   0.617 -0.1684  0.5593 -0.4871
 6324TIP3   OH240530   4.606   2.172   8.166  0.7123 -0.4416 -0.3450
 6324TIP3    H140531   4.600   2.143   8.075 -1.8409  0.1601 -0.4452
 6324TIP3    H240532   4.537   2.123   8.212  0.0323  1.3430  0.6374
 6325TIP3   OH240533   5.002   0.524   7.131 -0.1596 -0.1088 -0.5606
 6325TIP3    H140534   5.094   0.546   7.143 -0.4436  0.8055  0.0788
 6325TIP3    H240535   4.957   0.609   7.128 -0.9956 -0.5402 -0.6962
 6326TIP3   OH240536   3.859   4.108   0.849 -0.0868 -0.2237  0.4199
 6326TIP3    H140537   3.795   4.053   0.804  1.9952 -0.6950 -2.2565
 6326TIP3    H240538   3.845   4.196   0.814 -0.1707 -0.0495  0.8871
 6327TIP3   OH240539   0.583   1.069   7.324 -0.2475  0.8581 -0.1145
 6327TIP3    H140540   0.651   1.110   7.378 -0.1348 -0.9908  1.2498
 6327TIP3    H240541   0.501   1.089   7.370 -0.4210  1.3205 -0.6140
 6328TIP3   OH240542   1.964   5.821   1.564 -0.3777  0.3245 -0.3313
 6328TIP3    H140543   1.885   5.842   1.514 -1.2805 -0.1558  0.8581
 6328TIP3    H240544   1.970   5.725   1.560 -0.1815  0.3165  0.0696
 6329TIP3   OH240545   5.807   0.472   1.057 -0.0057  0.0698  0.2983
 6329TIP3    H140546   5.747   0.404   1.030 -0.0682  0.8951 -1.8059
 6329TIP3    H240547   5.887   0.425   1.082 -0.2502 -0.8119 -0.5230
 6330TIP3   OH240548   0.167   3.166   8.010  0.4250 -0.2311 -0.0818
 6330TIP3    H140549   0.245   3.221   8.009  0.5466 -0.4072 -0.5778
 6330TIP3    H240550   0.200   3.077   8.024  0.3215 -0.3214 -0.4123
 6331TIP3   OH240551   1.690   3.141   0.933 -0.1369  0.3166 -0.3229
 6331TIP3    H140552   1.609   3.094   0.955  0.4554 -0.1046  1.0210
 6331TIP3    H240553   1.675   3.230   0.965  0.2265  0.0300  0.6859
 6332TIP3   OH240554   5.247   6.102   7.584 -0.1486 -0.0182  0.2144
 6332TIP3    H140555   5.162   6.072   7.617  0.0804 -0.5802  0.3004
 6332TIP3    H240556   5.225   6.175   7.527 -0.7389 -0.4789 -0.1651
 6333TIP3   OH240557   1.983   6.703   0.408  0.3414 -0.0804 -0.3099
 6333TIP3    H140558   2.033   6.767   0.357 -0.8584  2.1286  1.1337
 6333TIP3    H240559   2.007   6.720   0.499  1.3900 -3.0157  0.0841
 6334TIP3   OH240560   4.402   5.719   0.412 -0.7511 -0.7195 -0.3278
 6334TIP3    H140561   4.334   5.720   0.478 -0.1713  1.5527  0.3144
 6334TIP3    H240562   4.363   5.673   0.338 -2.6027 -0.3783  0.3874
 6335TIP3   OH240563   0.854   3.618   1.063 -0.2174  0.0902  0.3318
 6335TIP3    H140564   0.831   3.709   1.044 -2.8606 -0.4898  0.2862
 6335TIP3    H240565   0.878   3.581   0.978  0.9126  0.7293  0.3590
 6336TIP3   OH240566   3.828   4.365   0.127 -0.5217 -0.1427 -0.0207
 6336TIP3    H140567   3.772   4.312   0.071 -0.4069 -0.4307  0.1361
 6336TIP3    H240568   3.894   4.402   0.068 -0.9467  0.3059 -0.2302
 6337TIP3   OH240569   4.250   6.988   2.326  0.0593  0.2957  0.0624
 6337TIP3    H140570   4.203   6.905   2.328 -0.0774  0.3567 -0.4218
 6337TIP3    H240571   4.201   7.045   2.386  2.1125 -0.9556  3.1684
 6338TIP3   OH240572   6.807   2.496   1.295 -0.2746  0.0538  0.7656
 6338TIP3    H140573   6.896   2.473   1.270 -1.5523 -1.1362 -3.4597
 6338TIP3    H240574   6.795   2.586   1.265 -1.1098 -0.5842 -0.9629
 6339TIP3   OH240575   3.193   6.602   7.974 -1.0937  0.0790  0.4782
 6339TIP3    H140576   3.151   6.634   8.053  0.4090  0.1467  1.2775
 6339TIP3    H240577   3.286   6.623   7.985 -0.6706 -0.9872 -0.7575
 6340TIP3   OH240578   4.633   6.361   1.996  0.1959 -0.1199  0.7254
 6340TIP3    H140579   4.616   6.453   2.014 -0.2865  0.6739 -2.9479
 6340TIP3    H240580   4.560   6.314   2.037 -1.7350  1.5710 -0.5772
 6341TIP3   OH240581   3.762   0.877   2.334  0.0110  0.2287  0.1366
 6341TIP3    H140582   3.849   0.914   2.322  0.3417 -1.0632 -2.0179
 6341TIP3    H240583   3.762   0.842   2.423  0.8615  2.2281  0.9715
 6342TIP3   OH240584   6.805   0.861   8.095 -0.3815 -0.1049  0.4981
 6342TIP3    H140585   6.817   0.768   8.080 -1.1696 -0.1646  0.1574
 6342TIP3    H240586   6.772   0.867   8.185  0.3561 -0.0875  0.7745
 6343TIP3   OH240587   0.961   1.630   8.115 -0.0564  0.0169 -0.4040
 6343TIP3    H140588   0.924   1.605   8.031  2.0098  0.5593 -1.5300
 6343TIP3    H240589   0.892   1.683   8.156 -1.4973 -1.1203 -1.2626
 6344TIP3   OH240590   1.326   1.163   1.931 -0.8204  0.3813 -0.4225
 6344TIP3    H140591   1.379   1.120   1.864 -1.5927 -1.2639 -0.0177
 6344TIP3    H240592   1.366   1.249   1.941  2.1155 -0.9549  0.2775
 6345TIP3   OH240593   4.227   3.555   0.894 -0.4905  0.0605  0.2877
 6345TIP3    H140594   4.296   3.498   0.928  1.0805  2.4695  1.5241
 6345TIP3    H240595   4.261   3.585   0.809 -1.8103 -1.5837 -0.8817
 6346TIP3   OH240596   1.757   0.581   1.845  0.2465 -0.5245  0.1369
 6346TIP3    H140597   1.756   0.487   1.826  0.3858 -0.2707 -1.2923
 6346TIP3    H240598   1.850   0.605   1.845  0.1855 -0.2737 -0.1871
 6347TIP3   OH240599   4.016   6.232   0.948 -0.5050  0.1221  0.2512
 6347TIP3    H140600   4.047   6.319   0.926 -0.5855  0.3276  0.9150
 6347TIP3    H240601   4.070   6.172   0.896 -1.8129  0.6182 -1.8179
 6348TIP3   OH240602   4.796   1.172   1.759 -0.1758 -0.0760  0.3324
 6348TIP3    H140603   4.819   1.167   1.851  0.0393  1.4845  0.3889
 6348TIP3    H240604   4.700   1.166   1.757 -0.2198  0.5177  0.7099
 6349TIP3   OH240605   6.735   1.383   7.896  0.6566 -0.1291  0.3221
 6349TIP3    H140606   6.697   1.374   7.808  2.0272 -2.7872 -0.0834
 6349TIP3    H240607   6.816   1.432   7.882  0.0934  0.8653  0.4013
 6350TIP3   OH240608   4.095   2.273   0.698 -0.5321  0.6281  0.8738
 6350TIP3    H140609   4.060   2.277   0.608  0.6785 -0.0296  0.3541
 6350TIP3    H240610   4.177   2.323   0.694  1.1399 -1.9691  0.8051
 6351TIP3   OH240611   6.094   3.771   8.120 -0.1260  0.4555  0.1638
 6351TIP3    H140612   6.089   3.773   8.024  0.5127  0.2546  0.1206
 6351TIP3    H240613   6.003   3.771   8.149 -0.4172 -2.2117 -0.4878
 6352TIP3   OH240614   4.152   3.394   2.124  0.0944 -0.4905 -0.0389
 6352TIP3    H140615   4.148   3.337   2.200  0.7731  0.6077  0.8423
 6352TIP3    H240616   4.098   3.469   2.148 -0.6369 -0.6506 -1.1107
 6353TIP3   OH240617   1.938   4.170   0.813 -0.5224  0.2799  0.3302
 6353TIP3    H140618   1.950   4.092   0.867  1.7004  0.2863 -0.0602
 6353TIP3    H240619   2.023   4.184   0.772 -1.1514  2.3453 -0.3903
 6354TIP3   OH240620   0.859   4.353   1.833 -0.6540 -0.3060 -0.1356
 6354TIP3    H140621   0.939   4.327   1.788  0.5800  0.3453  1.5375
 6354TIP3    H240622   0.827   4.429   1.784  2.2767  2.2678  1.5540
 6355TIP3   OH240623   3.684   4.126   7.970 -0.2066 -0.3870  0.2957
 6355TIP3    H140624   3.675   4.138   7.876 -1.2187 -0.8524  0.3320
 6355TIP3    H240625   3.687   4.216   8.005  2.1070 -0.1575 -0.3201
 6356TIP3   OH240626   2.755   4.829   7.413  0.1193 -0.1123  0.2222
 6356TIP3    H140627   2.660   4.833   7.408  0.1209  1.5212  0.8476
 6356TIP3    H240628   2.784   4.826   7.322 -0.5207  0.0464  0.0073
 6357TIP3   OH240629   2.680   4.298   2.773 -0.0724 -0.4557 -0.3750
 6357TIP3    H140630   2.605   4.257   2.815  0.0161 -1.6019 -1.2709
 6357TIP3    H240631   2.642   4.356   2.707 -0.1803 -0.0172  0.0666
 6358TIP3   OH240632   4.933   5.542   1.007  0.3899  0.0334 -0.1671
 6358TIP3    H140633   4.927   5.471   1.070  1.7527  1.0894  1.2531
 6358TIP3    H240634   4.904   5.620   1.055  0.4751  0.7019 -1.1605
 6359TIP3   OH240635   0.525   5.973   3.365  0.2021 -0.0560  0.5870
 6359TIP3    H140636   0.551   6.054   3.321  0.8309 -0.5490  0.0389
 6359TIP3    H240637   0.595   5.911   3.345 -0.9183 -1.1306 -0.1113
 6360TIP3   OH240638   3.568   3.215   0.856  0.0455  0.7723  0.0490
 6360TIP3    H140639   3.624   3.292   0.870  0.2963  0.5211  0.4675
 6360TIP3    H240640   3.628   3.141   0.864  0.0645  0.5669 -1.6803
 6361TIP3   OH240641   3.477   5.639   3.501 -0.3742 -0.1818  0.4168
 6361TIP3    H140642   3.465   5.562   3.446 -1.7440  0.3269 -0.0366
 6361TIP3    H240643   3.557   5.621   3.551  1.0109 -0.6306 -1.8009
 6362TIP3   OH240644   2.788   0.136   7.850 -0.6574  0.3259  0.3721
 6362TIP3    H140645   2.881   0.159   7.842 -0.2359 -0.6030  2.0822
 6362TIP3    H240646   2.746   0.216   7.882 -0.0645  0.1792  1.5657
 6363TIP3   OH240647   3.554   4.345   2.307 -0.2028 -1.1062  0.5998
 6363TIP3    H140648   3.611   4.274   2.336  1.5101  0.2051  0.5793
 6363TIP3    H240649   3.473   4.301   2.279  0.5555 -2.9651  1.1923
 6364TIP3   OH240650   4.247   3.468   0.303 -0.1302 -0.2405  0.4527
 6364TIP3    H140651   4.173   3.414   0.275 -1.3113  0.2886  2.3476
 6364TIP3    H240652   4.223   3.557   0.277  0.7093 -0.2848 -0.5336
 6365TIP3   OH240653   5.836   2.969   0.195 -0.6531 -0.1035 -0.2690
 6365TIP3    H140654   5.886   2.928   0.125  0.6632  0.4998  0.2884
 6365TIP3    H240655   5.902   3.005   0.255 -1.7404  1.5054  0.0371
 6366TIP3   OH240656   2.447   5.531   7.824  0.5929 -0.7211  0.4756
 6366TIP3    H140657   2.533   5.515   7.785  0.5342 -0.6052  0.2995
 6366TIP3    H240658   2.449   5.623   7.849 -0.5028  0.0839 -2.1109
 6367TIP3   OH240659   1.395   4.085   7.434 -0.1877 -0.3699 -0.3400
 6367TIP3    H140660   1.402   3.990   7.440  0.8141 -0.2324  1.3936
 6367TIP3    H240661   1.413   4.116   7.523 -2.0511  1.3733 -0.4868
 6368TIP3   OH240662   6.687   1.135   2.392  0.4709  0.4104  0.4731
 6368TIP3    H140663   6.679   1.173   2.480  0.5003  1.0283  0.2133
 6368TIP3    H240664   6.769   1.170   2.358  0.5697 -0.0052  0.2826
 6369TIP3   OH240665   0.689   3.856   0.667  0.0244 -0.2515  0.5669
 6369TIP3    H140666   0.707   3.763   0.657  0.2244 -0.0617 -1.1020
 6369TIP3    H240667   0.609   3.860   0.719  0.3446 -1.3191  1.1737
 6370TIP3   OH240668   2.285   5.824   7.252 -0.3422  0.0504 -0.3302
 6370TIP3    H140669   2.192   5.835   7.272 -0.6222  0.1550 -1.6127
 6370TIP3    H240670   2.322   5.784   7.331 -1.3854  0.3917  0.3546
 6371TIP3   OH240671   5.502   2.506   7.573  0.2671 -0.5997 -0.4184
 6371TIP3    H140672   5.523   2.427   7.523 -1.1872  0.8682 -3.6014
 6371TIP3    H240673   5.415   2.489   7.610  0.8312 -1.2126  0.6965
 6372TIP3   OH240674   2.907   4.514   8.099 -0.0593  0.1783  0.0389
 6372TIP3    H140675   2.892   4.581   8.166 -0.5718  1.2939 -1.1516
 6372TIP3    H240676   2.998   4.526   8.073 -0.8311  2.2403 -2.0225
 6373TIP3   OH240677   5.531   6.539   0.138  0.4849 -0.3982  0.1201
 6373TIP3    H140678   5.619   6.503   0.125  1.7404  2.0726  1.2523
 6373TIP3    H240679   5.503   6.503   0.222  0.7609 -0.5504  0.1495
 6374TIP3   OH240680   4.877   0.089   2.549 -0.6686  0.0398  0.0299
 6374TIP3    H140681   4.937   0.119   2.481  0.1713 -0.1798  0.6528
 6374TIP3    H240682   4.795   0.071   2.503 -0.1576  0.0176 -0.8961
 6375TIP3   OH240683   1.144   5.576   7.833  0.0190 -0.4085 -0.1993
 6375TIP3    H140684   1.118   5.539   7.749  1.0701  0.5130 -0.9574
 6375TIP3    H240685   1.205   5.646   7.811 -0.8322  0.8427  1.2623
 6376TIP3   OH240686   6.553   2.105   8.154  1.0912 -0.1140  0.0002
 6376TIP3    H140687   6.533   2.124   8.062 -1.5200  0.3309  0.5755
 6376TIP3    H240688   6.607   2.179   8.183  3.0908 -0.9145 -1.4478
 6377TIP3   OH240689   3.762   4.117   1.983  0.0964 -0.5864 -1.2390
 6377TIP3    H140690   3.676   4.130   1.944  1.1172  1.7885 -2.9252
 6377TIP3    H240691   3.776   4.022   1.981 -2.4826 -1.0519 -0.7599
 6378TIP3   OH240692   3.102   6.243   0.527 -0.3326 -0.3199 -0.0113
 6378TIP3    H140693   3.114   6.322   0.579  0.5944 -0.0377 -0.6280
 6378TIP3    H240694   3.150   6.261   0.446 -0.8342 -1.1772 -0.5060
 6379TIP3   OH240695   1.399   5.919   1.600 -0.1238  0.3451 -0.3386
 6379TIP3    H140696   1.384   5.933   1.506 -2.0096 -1.0072 -0.2989
 6379TIP3    H240697   1.366   5.998   1.642  2.0184  1.5947 -0.8157
 6380TIP3   OH240698   3.434   2.173   2.751 -0.4939  0.4732  0.2692
 6380TIP3    H140699   3.352   2.220   2.768 -1.8239 -1.1328 -1.2796
 6380TIP3    H240700   3.464   2.206   2.667 -0.5723 -0.2639 -0.0575
 6381TIP3   OH240701   3.149   4.390   1.421  0.2061 -0.1756  0.1063
 6381TIP3    H140702   3.116   4.448   1.490  0.7099  0.1731  0.0619
 6381TIP3    H240703   3.244   4.403   1.422  0.2425 -0.3611 -0.4733
 6382TIP3   OH240704   2.956   6.717   0.205  0.0077  0.4511 -0.8240
 6382TIP3    H140705   2.991   6.629   0.192 -0.3867 -0.2565  2.2900
 6382TIP3    H240706   3.019   6.760   0.262 -2.7936 -0.1539  3.1544
 6383TIP3   OH240707   0.889   4.934   7.653 -0.2203 -0.0939  0.2203
 6383TIP3    H140708   0.898   4.895   7.566  3.9611  1.6489 -0.3509
 6383TIP3    H240709   0.905   4.861   7.714  1.6835 -0.4733 -0.6676
 6384TIP3   OH240710   5.377   2.369   2.097 -0.2156 -0.1015 -0.2606
 6384TIP3    H140711   5.381   2.317   2.177  2.8779 -0.6502 -0.6260
 6384TIP3    H240712   5.338   2.311   2.032 -1.4880 -0.1269  0.5038
 6385TIP3   OH240713   3.356   0.864   2.876 -0.4201  0.2331 -0.2863
 6385TIP3    H140714   3.300   0.819   2.940 -0.4939 -0.7075 -1.0058
 6385TIP3    H240715   3.444   0.855   2.910 -0.4767 -0.1285 -0.2346
 6386TIP3   OH240716   4.884   2.433   1.172  0.2213  0.1267 -0.5966
 6386TIP3    H140717   4.804   2.386   1.150  0.8123 -0.3463 -1.8838
 6386TIP3    H240718   4.916   2.392   1.252  0.5244 -1.4589 -1.4842
 6387TIP3   OH240719   0.689   3.566   1.326  0.3126 -0.0481  0.2760
 6387TIP3    H140720   0.705   3.661   1.328  0.1846 -0.0071 -0.3591
 6387TIP3    H240721   0.627   3.554   1.255 -1.4993 -0.3553  1.8353
 6388TIP3   OH240722   2.528   4.908   2.095 -0.2493 -0.3217 -0.6166
 6388TIP3    H140723   2.463   4.874   2.033  0.2796 -1.6128 -0.5070
 6388TIP3    H240724   2.501   4.873   2.180 -0.3895  0.5906 -0.2769
 6389TIP3   OH240725   1.348   5.461   1.298 -0.5157 -0.4124  0.4132
 6389TIP3    H140726   1.373   5.468   1.391  0.3129  0.4281  0.1431
 6389TIP3    H240727   1.430   5.476   1.251 -1.1229  0.1915 -0.4720
 6390TIP3   OH240728   1.704   4.886   1.581 -0.4237 -0.1713 -0.3969
 6390TIP3    H140729   1.769   4.821   1.553  1.0378  0.6676  0.8975
 6390TIP3    H240730   1.729   4.966   1.536 -1.2519 -0.1022 -0.7482
 6391TIP3   OH240731   6.456   0.265   0.022  0.6519  0.5168 -0.5811
 6391TIP3    H140732   6.468   0.215   0.102 -0.5466  1.0870 -0.0143
 6391TIP3    H240733   6.397   0.336   0.047  0.8114  1.1050 -1.8095
 6392TIP3   OH240734   0.156   3.609   0.701 -0.1668  0.6931  0.4940
 6392TIP3    H140735   0.210   3.680   0.667  1.8877 -1.1995 -0.5438
 6392TIP3    H240736   0.199   3.584   0.783  0.7993 -0.9852 -0.4560
 6393TIP3   OH240737   1.114   5.336   2.035  0.4091 -0.3794 -0.3133
 6393TIP3    H140738   1.088   5.302   2.121  0.9405 -1.0227 -0.3932
 6393TIP3    H240739   1.159   5.262   1.993  2.8167  0.8064  0.0249
 6394TIP3   OH240740   5.440   6.556   2.966 -0.9555  0.1189 -0.4254
 6394TIP3    H140741   5.399   6.486   2.916 -0.2354 -0.5770 -0.0742
 6394TIP3    H240742   5.369   6.595   3.017 -1.2642 -0.7218 -0.2070
 6395TIP3   OH240743   5.691   4.123   2.908 -0.2282  0.3764  0.1517
 6395TIP3    H140744   5.756   4.146   2.975  0.3944  0.4026 -0.4457
 6395TIP3    H240745   5.742   4.083   2.838 -1.1393 -1.7665  0.6401
 6396TIP3   OH240746   3.234   2.223   3.175  0.4055 -0.1338 -0.1882
 6396TIP3    H140747   3.177   2.180   3.240 -2.8504  0.6965 -2.2534
 6396TIP3    H240748   3.193   2.308   3.160  1.7035  0.1682 -2.4707
 6397TIP3   OH240749   3.367   2.228   1.993  0.6056  0.0825  0.3765
 6397TIP3    H140750   3.404   2.304   2.038  0.9957 -0.0181  0.2293
 6397TIP3    H240751   3.394   2.238   1.902  2.3781 -1.2581  0.7099
 6398TIP3   OH240752   1.551   6.414   8.115 -0.2643  0.2378 -0.5057
 6398TIP3    H140753   1.600   6.463   8.048  0.4426  0.3115  0.0509
 6398TIP3    H240754   1.609   6.342   8.139 -0.8081 -0.1915 -0.4638
 6399TIP3   OH240755   5.437   5.835   1.616 -0.4391 -0.7942 -0.3265
 6399TIP3    H140756   5.366   5.849   1.678 -1.6123 -2.1688 -1.2999
 6399TIP3    H240757   5.421   5.897   1.546  0.9817  0.8774  0.7265
 6400TIP3   OH240758   0.613   5.670   8.164  0.1499  0.4110 -0.1959
 6400TIP3    H140759   0.641   5.728   8.093 -1.4597  0.2373 -1.0268
 6400TIP3    H240760   0.527   5.639   8.137  0.6292 -1.7793  0.5891
 6401TIP3   OH240761   6.728   0.801   1.146 -0.3010 -0.6352  0.3516
 6401TIP3    H140762   6.767   0.724   1.188 -2.3410 -1.5987  0.6366
 6401TIP3    H240763   6.793   0.830   1.083  1.5803 -1.0237  2.0016
 6402TIP3   OH240764   4.453   6.325   8.126 -0.0934 -0.6422  0.1907
 6402TIP3    H140765   4.499   6.268   8.065  0.7724  1.4825 -1.2902
 6402TIP3    H240766   4.492   6.411   8.112 -1.8837  0.5059  1.7115
 6403TIP3   OH240767   3.023   2.147   0.098  0.6115 -0.4436  0.1504
 6403TIP3    H140768   2.933   2.165   0.126  0.0562  0.5508 -2.0940
 6403TIP3    H240769   3.067   2.119   0.178 -2.1566 -2.9070  0.9800
 6404TIP3   OH240770   4.705   2.629   8.112 -0.2325 -0.5077 -0.1668
 6404TIP3    H140771   4.776   2.637   8.049 -1.1262  0.7901 -1.0558
 6404TIP3    H240772   4.746   2.593   8.191  1.5464  0.8557 -0.4244
 6405TIP3   OH240773   1.042   0.651   0.589  0.8647  0.7428 -0.0443
 6405TIP3    H140774   0.960   0.601   0.589  0.6293  1.1095 -1.0995
 6405TIP3    H240775   1.109   0.587   0.614  0.0625  0.8252  2.5584
 6406TIP3   OH240776   5.467   2.171   1.083 -0.0588 -0.1556 -0.3485
 6406TIP3    H140777   5.481   2.084   1.046  1.6591  0.9186 -2.4280
 6406TIP3    H240778   5.384   2.200   1.046 -0.7551 -0.9724  0.5401
 6407TIP3   OH240779   5.277   3.289   3.007 -0.0303 -0.7346  0.1463
 6407TIP3    H140780   5.201   3.237   3.033 -1.6144  1.2651 -0.1747
 6407TIP3    H240781   5.323   3.308   3.089 -2.0556  1.1508  0.9681
 6408TIP3   OH240782   3.728   3.494   2.192 -0.2425 -0.0693 -0.4216
 6408TIP3    H140783   3.713   3.409   2.234 -0.7039 -0.6830 -1.7639
 6408TIP3    H240784   3.770   3.472   2.108  0.0755  1.0681 -0.5778
 6409TIP3   OH240785   2.010   6.177   7.855  0.0765 -0.4323  0.2577
 6409TIP3    H140786   1.957   6.144   7.782  0.4596  1.8531 -1.1581
 6409TIP3    H240787   2.067   6.104   7.878 -1.7245 -2.0231 -0.0664
 6410TIP3   OH240788   3.293   2.036   3.565 -0.7211  0.1773  0.1891
 6410TIP3    H140789   3.343   2.103   3.517 -1.6083  0.1789 -0.7553
 6410TIP3    H240790   3.358   1.968   3.585 -0.4068 -0.0440 -1.4310
 6411TIP3   OH240791   5.000   1.779   2.709  0.0395 -0.3048  0.0888
 6411TIP3    H140792   4.993   1.801   2.802  0.8025 -0.3778  0.1681
 6411TIP3    H240793   4.990   1.684   2.706 -0.8656 -0.2201 -0.0065
 6412TIP3   OH240794   0.116   5.237   7.081 -0.0975  0.0178  0.1586
 6412TIP3    H140795   0.127   5.141   7.083  0.9434  0.1199 -0.0127
 6412TIP3    H240796   0.111   5.262   7.173 -5.2148 -0.6343  0.3615
 6413TIP3   OH240797   3.564   2.070   0.929  0.1263 -0.2700 -0.1944
 6413TIP3    H140798   3.593   2.115   0.849 -1.0539  0.6986 -0.1073
 6413TIP3    H240799   3.477   2.036   0.907 -0.2970  0.1903  0.7371
 6414TIP3   OH240800   2.855   0.275   0.964  0.2858  0.6880 -0.3031
 6414TIP3    H140801   2.902   0.341   0.912 -0.3884  0.2865 -1.4605
 6414TIP3    H240802   2.764   0.281   0.933  0.3680 -1.3835 -1.0845
 6415TIP3   OH240803   3.213   5.350   3.194 -0.1918  0.1635  0.4338
 6415TIP3    H140804   3.303   5.373   3.218  0.4657  0.2847 -1.8813
 6415TIP3    H240805   3.209   5.255   3.204  0.6643 -0.0185 -0.7556
 6416TIP3   OH240806   5.901   6.415   1.208  0.5196  0.6368  0.1614
 6416TIP3    H140807   5.888   6.479   1.137  1.3587  0.8952  0.2285
 6416TIP3    H240808   5.848   6.448   1.280 -1.8733 -0.6130 -0.8993
 6417TIP3   OH240809   5.838   0.256   2.211 -0.4995 -0.5177 -0.1586
 6417TIP3    H140810   5.822   0.251   2.116 -0.1136 -0.5651 -0.2236
 6417TIP3    H240811   5.921   0.210   2.223 -0.6436 -0.6708  0.2296
 6418TIP3   OH240812   5.786   0.457   7.327 -0.2196  0.0679  0.0581
 6418TIP3    H140813   5.831   0.479   7.408 -0.5327  0.0707  0.2333
 6418TIP3    H240814   5.729   0.532   7.310  0.2657  0.3257 -0.4752
 6419TIP3   OH240815   3.807   2.577   1.526  0.5102  0.7102  0.7283
 6419TIP3    H140816   3.720   2.568   1.564 -0.6490 -2.0594 -2.1052
 6419TIP3    H240817   3.865   2.533   1.587 -0.8562 -1.3591  0.6231
 6420TIP3   OH240818   0.972   0.740   1.687  0.2767 -0.2179 -0.9490
 6420TIP3    H140819   0.968   0.824   1.640  0.4707 -0.6366 -1.7227
 6420TIP3    H240820   1.030   0.758   1.762 -1.4665  0.9515  0.1978
 6421TIP3   OH240821   4.807   2.816   0.358 -1.1206  0.2186  0.3161
 6421TIP3    H140822   4.891   2.823   0.404  0.0593 -0.8167 -1.5535
 6421TIP3    H240823   4.744   2.793   0.426  0.5337 -1.2463  1.4355
 6422TIP3   OH240824   0.149   2.430   2.196  0.1729 -0.3325 -0.3930
 6422TIP3    H140825   0.172   2.484   2.272  0.5906 -1.0644  0.0060
 6422TIP3    H240826   0.061   2.397   2.215 -0.2737  0.5426 -0.8413
 6423TIP3   OH240827   3.459   3.355   1.960  0.0921  0.1911 -0.0692
 6423TIP3    H140828   3.448   3.329   2.051  0.2528  2.9486  0.8043
 6423TIP3    H240829   3.399   3.298   1.912 -1.2203 -0.2277  1.9487
 6424TIP3   OH240830   2.559   2.436   2.887 -0.1400 -0.0426 -0.2696
 6424TIP3    H140831   2.595   2.471   2.969 -0.2641 -0.6707  0.0572
 6424TIP3    H240832   2.476   2.483   2.876 -1.0128 -1.2348  0.9285
 6425TIP3   OH240833   0.623   6.000   0.311 -0.0376 -0.2170  0.0373
 6425TIP3    H140834   0.692   5.969   0.252 -0.5704 -0.5604 -0.4174
 6425TIP3    H240835   0.551   5.937   0.299 -0.9296  0.8562 -0.4877
 6426TIP3   OH240836   2.197   2.330   2.703 -0.4540  0.2349 -0.4875
 6426TIP3    H140837   2.206   2.331   2.798  0.0227  1.1881 -0.5317
 6426TIP3    H240838   2.120   2.385   2.686  0.5437  1.5972 -0.7367
 6427TIP3   OH240839   0.283   0.301   7.459  0.7238  0.0505  0.1858
 6427TIP3    H140840   0.333   0.254   7.526  0.8104  2.0305  1.5893
 6427TIP3    H240841   0.328   0.385   7.450  1.0668 -0.3372 -2.8582
 6428TIP3   OH240842   6.518   4.136   0.872  0.0281  0.1568  0.9087
 6428TIP3    H140843   6.531   4.041   0.872 -0.1558  0.1140 -0.7651
 6428TIP3    H240844   6.475   4.154   0.955 -0.3077 -1.2762  1.0682
 6429TIP3   OH240845   5.402   6.886   1.998 -0.1627  0.3820 -0.3633
 6429TIP3    H140846   5.403   6.849   2.086  0.0132 -0.0977 -0.5606
 6429TIP3    H240847   5.471   6.839   1.951 -0.4345  0.4329 -0.8306
 6430TIP3   OH240848   3.380   5.457   1.963 -0.1309 -0.3639  0.0154
 6430TIP3    H140849   3.431   5.530   1.928 -1.0021  0.4094  0.3159
 6430TIP3    H240850   3.407   5.381   1.911  0.5141  0.2470 -0.5525
 6431TIP3   OH240851   2.725   4.480   7.599  0.4636 -0.4959 -0.0413
 6431TIP3    H140852   2.778   4.420   7.547 -0.8980  0.4260 -2.7119
 6431TIP3    H240853   2.777   4.560   7.604  1.3885 -1.1825  1.6939
 6432TIP3   OH240854   6.656   5.681   1.712  0.1302 -0.2539  0.2380
 6432TIP3    H140855   6.639   5.734   1.635  1.0212 -0.6283 -0.2258
 6432TIP3    H240856   6.704   5.739   1.771  0.8390 -0.4408 -0.1456
 6433TIP3   OH240857   0.782   5.393   0.835  0.5121 -0.7742  0.4618
 6433TIP3    H140858   0.729   5.467   0.804  0.5051 -1.4551 -1.2851
 6433TIP3    H240859   0.813   5.419   0.922  0.9550  1.5086 -0.3275
 6434TIP3   OH240860   3.627   3.415   3.639 -0.2894 -0.3317 -0.0698
 6434TIP3    H140861   3.665   3.503   3.640 -0.6353 -0.1179  2.5800
 6434TIP3    H240862   3.703   3.357   3.642 -0.0559 -0.1709 -1.9376
 6435TIP3   OH240863   3.981   4.670   8.244 -0.0371  0.0273 -0.6716
 6435TIP3    H140864   3.947   4.719   8.168 -1.1912 -0.1977 -0.3197
 6435TIP3    H240865   3.997   4.582   8.211 -1.1087 -0.2345 -0.5347
 6436TIP3   OH240866   2.489   1.135   0.936  0.2000  0.0239 -0.5488
 6436TIP3    H140867   2.439   1.076   0.992 -0.9421  0.5428 -1.0067
 6436TIP3    H240868   2.564   1.083   0.907 -0.9309 -1.2872 -1.1732
 6437TIP3   OH240869   4.772   6.369   7.829  0.2817  0.1930  0.0770
 6437TIP3    H140870   4.854   6.359   7.781  0.8250 -1.3549  1.2192
 6437TIP3    H240871   4.724   6.437   7.782  0.9463 -0.9218 -2.3769
 6438TIP3   OH240872   3.314   1.559   0.941  0.1907 -0.6316 -0.1438
 6438TIP3    H140873   3.286   1.538   0.851 -1.4819  1.3128 -0.1677
 6438TIP3    H240874   3.408   1.544   0.941  0.1784 -1.0541 -2.1200
 6439TIP3   OH240875   0.178   0.217   2.606  0.1169  0.1735 -0.4521
 6439TIP3    H140876   0.160   0.141   2.551 -0.0243 -0.3588  0.3133
 6439TIP3    H240877   0.174   0.291   2.546 -1.1323 -0.2806 -0.9757
 6440TIP3   OH240878   6.246   5.177   7.185 -0.3861  0.4378 -0.0321
 6440TIP3    H140879   6.219   5.252   7.132 -1.1802  1.6374  1.9544
 6440TIP3    H240880   6.169   5.121   7.186 -0.5879  0.7188  0.3547
 6441TIP3   OH240881   4.030   5.883   8.085  0.0078  0.4091 -0.0669
 6441TIP3    H140882   3.991   5.915   8.003 -1.3572  0.3882  0.5345
 6441TIP3    H240883   3.977   5.807   8.108  0.3289  0.4463  0.8531
 6442TIP3   OH240884   5.025   5.909   1.592  0.0170 -0.2571 -0.4026
 6442TIP3    H140885   4.955   5.962   1.631  1.5288  0.2911  1.7084
 6442TIP3    H240886   5.040   5.949   1.506  0.1312  1.8879  0.5532
 6443TIP3   OH240887   5.046   4.378   2.742  0.1460 -0.0539 -0.0289
 6443TIP3    H140888   4.952   4.364   2.741 -0.1644  1.8742 -0.4335
 6443TIP3    H240889   5.059   4.456   2.796  1.2443  1.2837 -2.1260
 6444TIP3   OH240890   3.514   0.350   2.332 -0.2864  0.0745  0.2103
 6444TIP3    H140891   3.526   0.445   2.341 -1.7524  0.5916 -2.3511
 6444TIP3    H240892   3.432   0.332   2.377 -0.6477  0.2494 -0.3740
 6445TIP3   OH240893   6.410   0.502   0.352  0.0027  0.6969  0.2031
 6445TIP3    H140894   6.398   0.413   0.387 -0.3645  0.1608 -1.2352
 6445TIP3    H240895   6.429   0.555   0.429 -0.9535 -0.4147  1.2433
 6446TIP3   OH240896   3.617   3.445   8.248 -0.1090  0.0312 -0.6994
 6446TIP3    H140897   3.567   3.381   8.299  0.3443  0.8563  0.8676
 6446TIP3    H240898   3.640   3.400   8.168 -1.3148 -1.1660 -0.4130
 6447TIP3   OH240899   1.226   5.879   2.796 -0.0569  0.1436 -0.1660
 6447TIP3    H140900   1.257   5.790   2.814  2.1251  0.5051 -1.6851
 6447TIP3    H240901   1.169   5.870   2.720 -2.1009 -0.2525  1.3455
 6448TIP3   OH240902   1.636   5.088   0.510 -0.1612  0.2965 -0.3787
 6448TIP3    H140903   1.646   5.024   0.439  0.3539 -0.2328  0.1579
 6448TIP3    H240904   1.575   5.047   0.571  0.0385  0.3930 -0.1145
 6449TIP3   OH240905   5.541   1.937   7.335  0.2140  0.0393  0.7443
 6449TIP3    H140906   5.459   1.954   7.381  0.2356  1.1529  0.4063
 6449TIP3    H240907   5.578   2.024   7.319  1.2430 -0.4273  0.4985
 6450TIP3   OH240908   0.506   2.877   1.175  0.6695  0.2474 -0.0448
 6450TIP3    H140909   0.588   2.926   1.182  0.3386  1.1603 -2.0946
 6450TIP3    H240910   0.481   2.861   1.266  1.6030  2.5271  0.6820
 6451TIP3   OH240911   6.589   2.729   1.520 -0.6441  0.1680  0.3753
 6451TIP3    H140912   6.574   2.821   1.541  0.9456  0.1958  1.5840
 6451TIP3    H240913   6.563   2.720   1.429 -2.3851  1.4184  0.6910
 6452TIP3   OH240914   2.180   5.968   1.491 -0.6201 -0.3300  0.0998
 6452TIP3    H140915   2.139   5.904   1.549  0.7152 -0.5926  0.7866
 6452TIP3    H240916   2.139   5.953   1.406 -1.4341 -1.0348  0.6024
 6453TIP3   OH240917   0.736   0.133   1.877  0.1637  0.4623  0.1134
 6453TIP3    H140918   0.703   0.106   1.963  0.6572  0.0825  0.1831
 6453TIP3    H240919   0.672   0.098   1.815 -1.0422  2.0379  0.3965
 6454TIP3   OH240920   3.306   0.510   8.125 -0.2923  0.1486  0.1322
 6454TIP3    H140921   3.256   0.553   8.055  0.4859 -0.4576 -0.8319
 6454TIP3    H240922   3.397   0.536   8.108 -0.1724  0.5874  1.3792
 6455TIP3   OH240923   6.669   6.717   1.041  0.1175 -0.0648  0.3580
 6455TIP3    H140924   6.734   6.785   1.059  0.3070  0.0974 -0.9045
 6455TIP3    H240925   6.615   6.752   0.971 -0.1338 -0.9888  0.0725
 6456TIP3   OH240926   4.802   6.235   7.538  0.3183  0.1150  0.0979
 6456TIP3    H140927   4.707   6.234   7.529  0.0230 -0.3924  2.5722
 6456TIP3    H240928   4.826   6.327   7.530 -0.5053  0.3593  0.3612
 6457TIP3   OH240929   3.951   4.153   7.678 -0.1458  0.0245  0.1869
 6457TIP3    H140930   4.035   4.137   7.720 -1.1770 -3.3819  1.3650
 6457TIP3    H240931   3.956   4.105   7.595 -0.0248  2.1465 -1.0947
 6458TIP3   OH240932   6.225   5.983   2.060  0.4065  0.1917 -0.0873
 6458TIP3    H140933   6.243   5.910   2.002  1.7454 -0.8250  1.5131
 6458TIP3    H240934   6.281   6.054   2.028  1.4415 -0.4852  0.1658
 6459TIP3   OH240935   4.951   4.131   7.787 -0.2170  0.3616 -0.2817
 6459TIP3    H140936   4.978   4.111   7.697 -1.6044  1.3553 -0.9544
 6459TIP3    H240937   4.936   4.045   7.827 -2.0123 -0.1124 -1.8072
 6460TIP3   OH240938   5.624   1.598   0.258  0.5129 -0.1556 -0.0681
 6460TIP3    H140939   5.644   1.658   0.329 -0.2086 -0.3782  0.3376
 6460TIP3    H240940   5.557   1.642   0.206  0.5100 -0.2997 -0.1898
 6461TIP3   OH240941   4.754   5.985   1.334 -0.6609 -0.6219  0.0325
 6461TIP3    H140942   4.748   6.031   1.250  0.0123 -1.1177 -0.2988
 6461TIP3    H240943   4.770   6.054   1.399 -0.7666 -0.2803 -0.3018
 6462TIP3   OH240944   0.305   4.312   2.193  0.1262  0.4885 -0.0852
 6462TIP3    H140945   0.379   4.361   2.230 -0.2430  1.9729 -1.2037
 6462TIP3    H240946   0.318   4.317   2.098  1.0127 -3.1458 -0.3114
 6463TIP3   OH240947   0.379   5.009   1.218  0.2850  0.2347 -0.2261
 6463TIP3    H140948   0.373   4.968   1.132  0.2712  1.7876 -0.9939
 6463TIP3    H240949   0.397   4.936   1.278 -0.5019 -0.9821 -1.4122
 6464TIP3   OH240950   3.037   6.129   1.964 -0.7925  0.0578 -0.0249
 6464TIP3    H140951   3.052   6.209   1.914 -0.0289 -0.2939 -0.3639
 6464TIP3    H240952   3.117   6.078   1.953 -0.9237 -0.3698  0.9140
 6465TIP3   OH240953   6.692   5.129   0.073 -0.0906  0.4343 -0.4977
 6465TIP3    H140954   6.726   5.196   0.132 -0.1620  1.2803 -1.3946
 6465TIP3    H240955   6.703   5.166  -0.014 -2.3489  0.3312 -0.8984
 6466TIP3   OH240956   3.954   4.591   0.549 -0.7005  0.5657  0.0430
 6466TIP3    H140957   3.960   4.645   0.628  3.4212 -1.5205  1.4594
 6466TIP3    H240958   4.027   4.621   0.495 -0.8369 -0.8620 -0.9683
 6467TIP3   OH240959   5.986   4.015   3.355  0.1747  0.1042 -0.0220
 6467TIP3    H140960   6.011   4.095   3.402  3.0937 -0.1700 -0.8927
 6467TIP3    H240961   5.983   3.947   3.422 -1.1150  0.6739  0.5319
 6468TIP3   OH240962   5.107   6.266   1.151 -0.1787  0.7096  0.1759
 6468TIP3    H140963   5.023   6.287   1.109 -0.3329 -0.7946 -0.3312
 6468TIP3    H240964   5.162   6.237   1.079 -0.9096 -3.3954  1.0319
 6469TIP3   OH240965   5.917   0.982   0.823 -0.5631 -0.0300  0.4126
 6469TIP3    H140966   5.869   0.954   0.901 -1.2622 -1.5498 -0.5281
 6469TIP3    H240967   5.945   1.071   0.843 -1.0957 -0.2335  2.2237
 6470TIP3   OH240968   3.283   5.735   0.797  0.0882 -0.0980 -0.0612
 6470TIP3    H140969   3.364   5.771   0.761  0.6757 -1.5986 -0.3234
 6470TIP3    H240970   3.234   5.706   0.720 -0.4385  0.2643  0.1335
 6471TIP3   OH240971   3.535   5.932   1.109  0.8885 -0.1512 -0.5821
 6471TIP3    H140972   3.625   5.901   1.102  0.7673 -0.3055 -1.7104
 6471TIP3    H240973   3.487   5.857   1.144  0.8512 -0.8021 -1.9424
 6472TIP3   OH240974   6.580   0.133   3.119 -0.3001  0.0195  0.0559
 6472TIP3    H140975   6.556   0.041   3.107 -0.2665 -0.1231  0.9993
 6472TIP3    H240976   6.674   0.135   3.106 -0.3534 -0.0103 -0.3450
 6473TIP3   OH240977   6.218   1.959   7.973 -0.8347  0.0953 -0.5179
 6473TIP3    H140978   6.171   2.032   7.933 -1.2353  0.1767  0.0850
 6473TIP3    H240979   6.252   1.995   8.056 -1.4382 -0.5255  0.0117
 6474TIP3   OH240980   1.737   4.817   2.279  0.3090  0.0869 -0.6328
 6474TIP3    H140981   1.782   4.750   2.330 -0.8291 -1.3791 -1.4719
 6474TIP3    H240982   1.657   4.835   2.328 -0.3768 -0.7033 -1.4288
 6475TIP3   OH240983   3.689   2.536   0.053 -0.3253 -0.2405  0.3689
 6475TIP3    H140984   3.653   2.582  -0.023 -1.9963 -2.6944 -0.4622
 6475TIP3    H240985   3.784   2.546   0.045 -0.4643 -0.2841 -1.9788
 6476TIP3   OH240986   0.093   3.828   7.943 -0.6098  0.8930  0.2075
 6476TIP3    H140987   0.174   3.792   7.909 -1.6242 -0.5962 -0.7373
 6476TIP3    H240988   0.084   3.913   7.899 -0.3196  0.3938 -0.8478
 6477TIP3   OH240989   2.759   6.147   1.374 -0.2938 -0.2599 -0.0134
 6477TIP3    H140990   2.838   6.201   1.381 -1.5564  2.1840 -2.5746
 6477TIP3    H240991   2.792   6.059   1.357  1.8636  0.4081  0.2954
 6478TIP3   OH240992   3.150   4.572   0.142 -0.4728  0.4325  0.1232
 6478TIP3    H140993   3.123   4.588   0.052 -0.6507 -0.8933 -0.0750
 6478TIP3    H240994   3.244   4.588   0.143 -0.4101  0.0971 -0.3821
 6479TIP3   OH240995   3.892   2.498   7.549 -0.1867 -0.1769 -0.0972
 6479TIP3    H140996   3.951   2.435   7.507 -0.1818 -0.4570  0.3305
 6479TIP3    H240997   3.872   2.561   7.480 -0.0002 -0.5119 -0.4605
 6480TIP3   OH240998   5.179   6.364   0.161  0.2168  0.2324 -0.3619
 6480TIP3    H140999   5.212   6.290   0.109 -0.3040  0.1775 -0.6203
 6480TIP3    H241000   5.085   6.347   0.169  0.0737  0.9423 -0.5404
 6481TIP3   OH241001   2.862   0.069   0.765  0.1504  0.0371 -0.2319
 6481TIP3    H141002   2.831  -0.016   0.795  3.2114 -0.2445  2.8313
 6481TIP3    H241003   2.852   0.127   0.841  1.6554  1.3511 -0.9699
 6482TIP3   OH241004   2.612   1.857   3.091  0.0058  0.0569 -0.5221
 6482TIP3    H141005   2.544   1.900   3.143  0.0912 -0.4600  0.0308
 6482TIP3    H241006   2.693   1.904   3.113  0.0802 -0.3042 -0.0062
 6483TIP3   OH241007   5.972   3.897   6.910  0.2425 -0.1814 -0.1304
 6483TIP3    H141008   5.936   3.983   6.929  1.5012  0.4396 -0.4676
 6483TIP3    H241009   5.940   3.876   6.823 -0.1345 -0.0878 -0.0137
 6484TIP3   OH241010   5.820   1.913   7.206  0.0942 -0.4816 -0.0192
 6484TIP3    H141011   5.911   1.930   7.182 -0.7691  1.4706 -2.3351
 6484TIP3    H241012   5.784   1.999   7.227 -0.9181 -1.3838  2.2597
 6485TIP3   OH241013   2.302   4.683   2.930  0.7767 -0.1106 -0.7706
 6485TIP3    H141014   2.278   4.761   2.980  0.5497 -0.3441 -0.5133
 6485TIP3    H241015   2.276   4.610   2.986 -0.6606 -0.3916 -1.7532
 6486TIP3   OH241016   3.684   2.006   8.199 -0.4100  0.3810  0.5446
 6486TIP3    H141017   3.758   1.962   8.156 -0.8190  1.7087 -1.6582
 6486TIP3    H241018   3.722   2.087   8.234 -0.8779  1.4892 -1.3351
 6487TIP3   OH241019   1.189   1.181   2.183 -0.1142 -0.1086  0.1603
 6487TIP3    H141020   1.137   1.101   2.180  2.2756 -1.9615  2.5482
 6487TIP3    H241021   1.231   1.186   2.098 -2.7822  0.5316 -1.2111
 6488TIP3   OH241022   6.372   6.475   7.923 -0.0110 -0.5263  0.0434
 6488TIP3    H141023   6.324   6.551   7.955 -0.4352 -0.9740  0.5102
 6488TIP3    H241024   6.304   6.410   7.903  0.3701 -0.9830  0.1991
 6489TIP3   OH241025   4.305   4.439   1.437  0.1534  0.4091  0.2146
 6489TIP3    H141026   4.363   4.438   1.514 -0.8918 -0.9864  1.0453
 6489TIP3    H241027   4.217   4.437   1.474 -0.3692 -1.6678 -0.9729
 6490TIP3   OH241028   1.860   2.934   0.912 -0.6760 -0.1266  0.0768
 6490TIP3    H141029   1.946   2.960   0.879 -0.1159 -2.2878 -0.2974
 6490TIP3    H241030   1.823   3.014   0.949  0.2818  1.5304 -2.3135
 6491TIP3   OH241031   6.345   4.900   2.588  0.1117  0.3947 -0.1411
 6491TIP3    H141032   6.271   4.874   2.643 -0.2239  1.3545 -0.1342
 6491TIP3    H241033   6.306   4.927   2.505  0.4398  0.9659 -0.1153
 6492TIP3   OH241034   5.836   6.680   6.893  0.6569  0.0378  0.0168
 6492TIP3    H141035   5.750   6.710   6.922  0.4185 -0.3537 -0.2760
 6492TIP3    H241036   5.879   6.648   6.973  0.3123 -0.2933  0.0695
 6493TIP3   OH241037   1.169   1.742   7.735  0.3603 -0.2324  0.5239
 6493TIP3    H141038   1.134   1.660   7.700  0.3269 -0.2224  0.5339
 6493TIP3    H241039   1.095   1.803   7.732 -0.0513 -0.6247  1.9655
 6494TIP3   OH241040   0.730   0.223   7.692 -0.1781 -0.4045  0.0171
 6494TIP3    H141041   0.678   0.201   7.770  0.4724 -1.2901  0.2224
 6494TIP3    H241042   0.714   0.316   7.678 -0.6611 -0.3307  0.9474
 6495TIP3   OH241043   4.766   0.405   3.198 -0.0241 -0.0619 -0.0190
 6495TIP3    H141044   4.785   0.493   3.164 -0.0576 -0.4116 -0.9590
 6495TIP3    H241045   4.692   0.375   3.145  1.6004 -1.6754 -1.4896
 6496TIP3   OH241046   3.733   2.100   7.889  0.3538 -0.5746  0.7014
 6496TIP3    H141047   3.678   2.078   7.964  0.4956 -2.6075  0.2758
 6496TIP3    H241048   3.694   2.051   7.816  2.2046 -1.3943  0.2160
 6497TIP3   OH241049   5.655   4.249   1.764 -0.0230  0.0978  0.4206
 6497TIP3    H141050   5.617   4.311   1.826 -1.3244 -0.6553  0.4143
 6497TIP3    H241051   5.677   4.172   1.816 -2.0731 -0.9430 -0.1528
 6498TIP3   OH241052   1.283   1.308   0.643 -0.1354  0.4480 -0.1119
 6498TIP3    H141053   1.266   1.259   0.562  1.0293 -0.3183  0.0739
 6498TIP3    H241054   1.296   1.398   0.614 -2.0264  0.6230 -0.4934
 6499TIP3   OH241055   5.178   2.614   2.475 -0.5765  0.3689  0.0539
 6499TIP3    H141056   5.149   2.613   2.566 -0.8246 -0.9735 -0.0094
 6499TIP3    H241057   5.118   2.674   2.431 -1.7069 -0.4675  0.4103
 6500TIP3   OH241058   0.826   0.460   1.195  0.1788  0.1444  0.0510
 6500TIP3    H141059   0.829   0.498   1.282 -1.5766 -0.0468  0.2309
 6500TIP3    H241060   0.819   0.535   1.136  0.5780  0.2432  0.1277
 6501TIP3   OH241061   1.296   1.440   7.883 -0.1654  0.4778  0.3819
 6501TIP3    H141062   1.202   1.426   7.898 -0.7657  2.5025 -1.0983
 6501TIP3    H241063   1.308   1.423   7.789  1.1693 -0.6347  0.7168
 6502TIP3   OH241064   2.594   3.468   1.095 -0.1842  0.0542 -0.1251
 6502TIP3    H141065   2.583   3.398   1.159  1.3942 -0.9698 -0.9093
 6502TIP3    H241066   2.685   3.462   1.067 -0.3495  1.6098 -1.1757
 6503TIP3   OH241067   6.651   4.681   0.282  0.0588 -0.3435  0.4062
 6503TIP3    H141068   6.667   4.775   0.283 -2.4359  0.1400  0.9123
 6503TIP3    H241069   6.644   4.659   0.189  1.9377 -0.3329  0.2233
 6504TIP3   OH241070   6.604   6.342   7.965  0.9817  0.4257  0.2306
 6504TIP3    H141071   6.602   6.361   7.871 -0.2058 -0.6452  0.0121
 6504TIP3    H241072   6.521   6.378   7.998  0.5855 -0.7290  0.5363
 6505TIP3   OH241073   5.278   6.558   7.181  0.0545  0.0654 -0.1804
 6505TIP3    H141074   5.270   6.652   7.193 -0.1243 -0.0949  1.0729
 6505TIP3    H241075   5.246   6.542   7.092  2.5601  1.4782 -1.4327
 6506TIP3   OH241076   0.584   6.143   8.174 -0.4729  0.2850 -0.1208
 6506TIP3    H141077   0.562   6.215   8.232  0.2713  0.9110 -0.5899
 6506TIP3    H241078   0.607   6.185   8.091  0.9729 -0.4036 -0.1011
 6507TIP3   OH241079   0.005   6.797   0.886  0.1283 -0.3429  0.0795
 6507TIP3    H141080   0.037   6.712   0.854  0.2529  0.0477 -0.8538
 6507TIP3    H241081  -0.030   6.840   0.808  2.2933  1.4742  0.0112
 6508TIP3   OH241082   0.813   1.035   7.950  0.3822 -0.5522 -0.3557
 6508TIP3    H141083   0.804   1.061   7.858  0.5790  0.9087  0.0116
 6508TIP3    H241084   0.904   1.003   7.957  1.0906  1.3638 -0.2314
 6509TIP3   OH241085   1.923   1.698   0.192 -0.0916 -0.8643 -0.7185
 6509TIP3    H141086   1.895   1.763   0.256  1.2548  0.1954 -1.1626
 6509TIP3    H241087   2.016   1.685   0.211  0.4864 -0.0809 -2.8062
 6510TIP3   OH241088   6.697   5.724   2.469  0.4388  0.1960  0.4328
 6510TIP3    H141089   6.700   5.787   2.541 -0.2335  1.8568 -0.9112
 6510TIP3    H241090   6.780   5.677   2.475  1.0376  1.3089  1.4130
 6511TIP3   OH241091   2.071   6.479   7.886 -0.0913 -0.2311 -0.0030
 6511TIP3    H141092   2.050   6.499   7.794  1.1473  1.0577 -0.0445
 6511TIP3    H241093   2.029   6.395   7.902 -0.4755 -0.4128 -1.7039
 6512TIP3   OH241094   0.009   3.809   1.157  0.3468 -0.2310 -0.0816
 6512TIP3    H141095  -0.075   3.835   1.194 -0.0933 -0.7260 -0.7142
 6512TIP3    H241096  -0.012   3.777   1.070  1.3136  0.4927 -0.5986
 6513TIP3   OH241097   2.835   3.622   2.560  0.0865  0.0949  0.0134
 6513TIP3    H141098   2.760   3.635   2.503  0.9822 -1.5361 -1.6231
 6513TIP3    H241099   2.797   3.603   2.646 -1.2955  1.9475 -0.1284
 6514TIP3   OH241100   5.424   3.591   1.496  0.1915  0.1285 -0.8847
 6514TIP3    H141101   5.391   3.634   1.575 -0.6997  1.0031 -1.7035
 6514TIP3    H241102   5.513   3.625   1.487  0.5917 -0.5918  0.1634
 6515TIP3   OH241103   2.815   5.173   0.081 -0.3809  0.4565 -0.4927
 6515TIP3    H141104   2.874   5.211   0.145 -0.0093 -0.3135 -0.3687
 6515TIP3    H241105   2.765   5.107   0.130 -1.2056  0.9509 -0.6419
 6516TIP3   OH241106   5.282   2.617   0.882 -0.5967  0.1290 -0.2545
 6516TIP3    H141107   5.233   2.538   0.906 -2.7989  1.2253 -0.8281
 6516TIP3    H241108   5.245   2.685   0.937  0.6211  0.9402 -0.4152
 6517TIP3   OH241109   1.233   4.312   0.983  0.0580  0.1310  0.0993
 6517TIP3    H141110   1.275   4.229   0.961  1.4389  0.8150  0.0792
 6517TIP3    H241111   1.276   4.376   0.927 -1.4829  0.7726 -0.3952
 6518TIP3   OH241112   3.644   2.217   0.682 -0.2115 -0.5415  0.1183
 6518TIP3    H141113   3.704   2.197   0.754 -1.5983  0.0130  1.4544
 6518TIP3    H241114   3.683   2.293   0.639  0.8009 -1.0871  0.0301
 6519TIP3   OH241115   4.768   0.623   1.717 -0.5095  0.9188 -0.3635
 6519TIP3    H141116   4.785   0.717   1.725  0.6226  0.5584  3.0015
 6519TIP3    H241117   4.854   0.582   1.715 -0.9687 -0.1226 -0.0731
 6520TIP3   OH241118   3.451   3.759   1.579  0.2733  0.4136  0.0954
 6520TIP3    H141119   3.424   3.668   1.576  0.0924  0.4698 -0.0104
 6520TIP3    H241120   3.476   3.775   1.670 -1.0986  0.6620  0.4474
 6521TIP3   OH241121   4.386   1.909   7.550 -0.1335  0.1060 -0.1371
 6521TIP3    H141122   4.371   1.981   7.488  1.3338  0.4583 -0.1114
 6521TIP3    H241123   4.428   1.841   7.498 -1.4407 -0.7184 -0.1374
 6522TIP3   OH241124   6.735   2.675   1.847  0.0297 -0.0337 -0.8551
 6522TIP3    H141125   6.745   2.594   1.797 -0.5650 -2.3861  2.4217
 6522TIP3    H241126   6.652   2.663   1.894  1.6356  0.6961  2.4792
 6523TIP3   OH241127   3.644   5.120   1.319 -0.2449  0.3316  0.4841
 6523TIP3    H141128   3.565   5.105   1.267 -0.8004  0.0204  1.3947
 6523TIP3    H241129   3.716   5.111   1.256 -0.8089 -1.5094  0.0292
 6524TIP3   OH241130   1.877   3.581   0.424  0.5550 -0.2553 -0.2779
 6524TIP3    H141131   1.824   3.505   0.447  1.0759 -0.7715 -0.7686
 6524TIP3    H241132   1.817   3.655   0.433  0.0993 -0.6949  0.3983
 6525TIP3   OH241133   1.992   4.686   2.500 -0.3195 -0.6174  0.1197
 6525TIP3    H141134   1.902   4.665   2.528 -0.3178 -0.3051  0.3693
 6525TIP3    H241135   1.994   4.665   2.407 -0.0601 -2.5606  0.5301
 6526TIP3   OH241136   4.417   5.726   3.325  0.1201 -0.7393  0.4031
 6526TIP3    H141137   4.324   5.732   3.305  0.5926 -0.9858 -2.1320
 6526TIP3    H241138   4.441   5.637   3.303  0.8730 -0.8655  1.6288
 6527TIP3   OH241139   0.684   6.799   2.436  0.1870 -0.3597 -0.4692
 6527TIP3    H141140   0.694   6.733   2.367  1.7780  0.7534 -1.3671
 6527TIP3    H241141   0.768   6.799   2.481 -0.0294  0.5893 -0.0521
 6528TIP3   OH241142   3.796   5.691   1.299  0.4880 -0.1976 -0.0823
 6528TIP3    H141143   3.754   5.609   1.324  0.3033 -0.3360 -0.8043
 6528TIP3    H241144   3.781   5.750   1.373 -1.0546 -0.2274 -0.3223
 6529TIP3   OH241145   2.855   1.978   8.197 -0.1005 -0.5500 -0.3758
 6529TIP3    H141146   2.829   1.979   8.104 -0.5186  0.8632 -0.2673
 6529TIP3    H241147   2.900   2.061   8.210  1.3966 -1.4409  0.3200
 6530TIP3   OH241148   5.159   4.747   1.451  0.5598 -0.0819  0.4823
 6530TIP3    H141149   5.120   4.733   1.365  1.3970  1.5137 -0.2121
 6530TIP3    H241150   5.112   4.823   1.486  0.0911 -0.8369  1.5461
 6531TIP3   OH241151   4.066   6.722   0.382 -0.5105  0.3820 -0.5159
 6531TIP3    H141152   4.091   6.771   0.460 -0.6192 -2.3068  1.3344
 6531TIP3    H241153   4.139   6.732   0.322  0.1234  1.5101  0.4264
 6532TIP3   OH241154   2.333   3.113   1.009  0.0316  0.2253  0.2101
 6532TIP3    H141155   2.411   3.063   0.984  0.4211  1.1792 -0.6001
 6532TIP3    H241156   2.273   3.048   1.045  0.7881 -0.7015 -0.1391
 6533TIP3   OH241157   6.807   1.137   1.577  0.1490 -0.1146 -0.1240
 6533TIP3    H141158   6.747   1.146   1.503  1.4310  1.7652 -1.0359
 6533TIP3    H241159   6.774   1.062   1.627 -1.5353 -0.5992 -1.8594
 6534TIP3   OH241160   3.516   1.560   7.435  0.2701 -0.5565  0.2208
 6534TIP3    H141161   3.539   1.643   7.477  0.8218 -0.1335 -0.8703
 6534TIP3    H241162   3.420   1.561   7.429  0.3416  1.3986 -2.3996
 6535TIP3   OH241163   1.688   6.494   1.370 -0.0831  0.1917  0.6206
 6535TIP3    H141164   1.745   6.522   1.298  1.6751 -0.9108  1.5344
 6535TIP3    H241165   1.620   6.561   1.373  0.1011  0.5835 -1.6796
 6536TIP3   OH241166   3.607   1.341   2.352  0.3722  0.4197 -0.0089
 6536TIP3    H141167   3.545   1.324   2.423  1.8216 -0.6877  1.0325
 6536TIP3    H241168   3.662   1.412   2.385  1.0181 -0.0666 -0.0153
 6537TIP3   OH241169   5.760   4.398   8.069  0.0601 -0.4271  0.0433
 6537TIP3    H141170   5.730   4.361   7.986  0.5462  0.0209 -0.3362
 6537TIP3    H241171   5.814   4.329   8.108  0.3036 -0.4274 -0.2868
 6538TIP3   OH241172   4.300   3.874   2.598  0.5538  0.6124  0.2205
 6538TIP3    H141173   4.207   3.883   2.620  0.7538  0.9395  0.9799
 6538TIP3    H241174   4.310   3.920   2.515 -0.1464 -0.2606 -0.3653
 6539TIP3   OH241175   5.128   3.049   2.342  0.2547  0.2032  0.7280
 6539TIP3    H141176   5.089   3.073   2.258  0.4216  3.4895  1.4521
 6539TIP3    H241177   5.193   2.983   2.321  0.1182  0.7597 -1.7040
 6540TIP3   OH241178   4.551   1.232   7.457 -0.4011 -0.1154 -0.1533
 6540TIP3    H141179   4.486   1.178   7.501 -1.5787  1.5053  0.1943
 6540TIP3    H241180   4.631   1.221   7.509 -1.2862  0.3481  1.3754
 6541TIP3   OH241181   6.897   0.416   6.927  0.1715 -0.3483  0.6709
 6541TIP3    H141182   6.900   0.478   6.999 -0.7011 -2.3006  2.4911
 6541TIP3    H241183   6.984   0.378   6.925  0.5540  0.5237 -0.1208
 6542TIP3   OH241184   4.565   2.264   7.499  0.2131 -0.5679  0.5625
 6542TIP3    H141185   4.480   2.259   7.543  0.7863  0.2783  1.7903
 6542TIP3    H241186   4.628   2.230   7.563  0.9392 -0.2140  0.0550
 6543TIP3   OH241187   1.681   5.350   8.148 -0.1217  0.4357  0.2032
 6543TIP3    H141188   1.740   5.333   8.221 -0.4145  1.5541  0.7229
 6543TIP3    H241189   1.610   5.286   8.160 -0.1077  0.5281  0.8386
 6544TIP3   OH241190   5.572   0.097   0.205 -0.4384 -0.0863  0.1788
 6544TIP3    H141191   5.533   0.109   0.292 -2.5095 -1.8350 -0.4305
 6544TIP3    H241192   5.659   0.060   0.222 -0.2421  0.9126  1.5112
 6545TIP3   OH241193   5.437   3.620   0.128  0.2004  0.0046 -0.0389
 6545TIP3    H141194   5.508   3.558   0.146  1.0899  1.3260  1.2657
 6545TIP3    H241195   5.480   3.706   0.131 -0.7889  0.6808 -2.8313
 6546TIP3   OH241196   0.236   1.176   1.000  0.6879  0.1256 -0.0734
 6546TIP3    H141197   0.163   1.168   0.938  1.0818  1.4682 -0.7449
 6546TIP3    H241198   0.267   1.266   0.988  2.1336 -0.2767  0.5665
 6547TIP3   OH241199   6.833   0.437   1.671  0.8327  0.1315 -0.7613
 6547TIP3    H141200   6.869   0.397   1.592 -1.0410  1.6827 -2.5040
 6547TIP3    H241201   6.745   0.399   1.679  1.6482 -1.4518  1.7600
 6548TIP3   OH241202   0.367   4.107   7.188  0.1612 -0.5983 -0.4494
 6548TIP3    H141203   0.302   4.132   7.122  2.7342  0.3259 -2.8463
 6548TIP3    H241204   0.364   4.011   7.190 -2.2823 -0.5746  0.7149
 6549TIP3   OH241205   4.338   6.947   8.135  0.7137 -0.0793  0.8780
 6549TIP3    H141206   4.416   6.953   8.080  1.1973  0.5596  1.6158
 6549TIP3    H241207   4.274   7.003   8.092  0.9329  0.0433  0.7105
 6550TIP3   OH241208   6.097   1.252   0.792  0.0894 -0.2730  0.1729
 6550TIP3    H141209   6.146   1.211   0.863  0.7385 -0.3594 -0.3164
 6550TIP3    H241210   6.121   1.202   0.714  0.3476  0.5975 -0.3204
 6551TIP3   OH241211   5.479   2.718   8.058  0.2104 -0.0973  0.2549
 6551TIP3    H141212   5.487   2.670   8.141  0.2044  1.2510  1.0639
 6551TIP3    H241213   5.510   2.806   8.078  0.3718  0.2079 -1.2346
 6552TIP3   OH241214   3.131   5.843   2.917  0.1455 -0.2852  0.2400
 6552TIP3    H141215   3.174   5.859   2.833  1.5210 -0.8709  0.8110
 6552TIP3    H241216   3.106   5.751   2.914  2.8013 -1.1382  1.5584
 6553TIP3   OH241217   4.756   5.834   1.836 -0.1548 -0.5126  0.3857
 6553TIP3    H141218   4.798   5.905   1.787 -2.5762  0.0052 -1.0833
 6553TIP3    H241219   4.828   5.774   1.858  1.3429  0.2808 -2.0036
 6554TIP3   OH241220   0.196   5.393   1.878 -0.1260  0.0777  0.2753
 6554TIP3    H141221   0.264   5.330   1.855 -1.1350 -1.0893  0.3507
 6554TIP3    H241222   0.202   5.461   1.810 -0.1340 -1.0050 -0.8493
 6555TIP3   OH241223   1.020   0.453   0.971 -0.5945  0.9698 -0.5138
 6555TIP3    H141224   0.947   0.480   1.026 -1.0634  0.2083 -0.7478
 6555TIP3    H241225   1.059   0.535   0.940 -1.2762  1.3822 -0.2951
 6556TIP3   OH241226   3.191   3.601   7.771  0.6627 -0.6057  0.4803
 6556TIP3    H141227   3.139   3.597   7.692  1.2893  0.8830 -0.0496
 6556TIP3    H241228   3.277   3.631   7.742  0.6179  0.9950  1.8069
 6557TIP3   OH241229   6.974   0.507   1.026 -0.1098 -0.0335  0.2930
 6557TIP3    H141230   7.052   0.553   0.997 -0.6183  0.5581 -0.1582
 6557TIP3    H241231   7.004   0.453   1.100  0.0778  2.7901  2.4448
 6558TIP3   OH241232   1.176   3.564   0.709  0.5510  0.1671 -0.4263
 6558TIP3    H141233   1.202   3.627   0.775  2.4794  1.8937 -2.6424
 6558TIP3    H241234   1.258   3.540   0.666 -0.5907 -0.9347 -2.1272
 6559TIP3   OH241235   2.411   0.996   8.259  0.2427 -0.2243  0.9690
 6559TIP3    H141236   2.479   0.944   8.214  1.4967  0.7636  1.6608
 6559TIP3    H241237   2.417   1.083   8.219 -0.2116  0.0372  1.4595
 6560TIP3   OH241238   6.789   0.555   0.009  0.4478  0.3992 -0.8850
 6560TIP3    H141239   6.838   0.489   0.058 -0.7700  0.2327  0.1774
 6560TIP3    H241240   6.779   0.519  -0.078  0.2610 -0.5871 -0.4685
 6561TIP3   OH241241   6.023   6.703   1.216 -0.5934 -0.2437 -0.1006
 6561TIP3    H141242   5.962   6.688   1.143 -0.0202  0.1420 -0.6627
 6561TIP3    H241243   5.975   6.672   1.293 -1.3578 -0.3008 -0.5849
 6562TIP3   OH241244   3.978   6.472   0.390 -0.5538  0.2954 -0.1309
 6562TIP3    H141245   4.015   6.559   0.404 -0.3202  0.0274  1.0356
 6562TIP3    H241246   3.898   6.471   0.441  0.8678 -1.0846  2.2841
 6563TIP3   OH241247   0.907   2.099   7.412  0.2107 -0.1508 -0.1297
 6563TIP3    H141248   0.971   2.083   7.342  0.3493 -0.9112  0.1548
 6563TIP3    H241249   0.822   2.078   7.372  0.2937 -0.6298 -0.0636
 6564TIP3   OH241250   0.130   0.290   7.045 -0.1806 -0.3992  0.8163
 6564TIP3    H141251   0.162   0.240   6.970 -0.9644  0.0835  0.1327
 6564TIP3    H241252   0.165   0.245   7.121  0.1158 -1.2743  0.1806
 6565TIP3   OH241253   0.820   4.821   1.754  0.2142  0.2824  0.5862
 6565TIP3    H141254   0.744   4.878   1.763 -0.8411 -0.8919 -0.6168
 6565TIP3    H241255   0.895   4.880   1.765 -0.8346  1.7152  0.3453
 6566TIP3   OH241256   6.643   5.104   8.071  0.5494  0.6179 -0.3451
 6566TIP3    H141257   6.554   5.116   8.106  1.3381  1.4582  1.5298
 6566TIP3    H241258   6.644   5.154   7.990 -0.7660  0.3661 -0.5370
 6567TIP3   OH241259   3.601   5.757   7.861 -0.0472  0.5232  0.7685
 6567TIP3    H141260   3.509   5.783   7.850 -0.5139 -1.7700 -1.6879
 6567TIP3    H241261   3.649   5.809   7.796 -0.1734 -0.7035 -0.3422
 6568TIP3   OH241262   1.324   5.798   2.244 -0.3766 -0.2209  0.7584
 6568TIP3    H141263   1.278   5.828   2.165  0.4295 -0.3412  0.2340
 6568TIP3    H241264   1.256   5.796   2.311 -1.0052  0.2170  0.1542
 6569TIP3   OH241265   1.787   1.000   2.438  0.0550 -0.2037  0.6218
 6569TIP3    H141266   1.880   0.984   2.451 -0.1772 -2.3559  0.0278
 6569TIP3    H241267   1.764   0.947   2.362 -1.4050  1.3232 -0.0674
 6570TIP3   OH241268   0.998   3.535   7.536  0.4269  0.4311  0.7569
 6570TIP3    H141269   1.016   3.511   7.446  0.3238 -0.4757  0.9655
 6570TIP3    H241270   0.914   3.581   7.532 -0.8255 -1.6804  0.6270
 6571TIP3   OH241271   2.409   2.644   2.401  0.5690  0.0155 -0.3216
 6571TIP3    H141272   2.435   2.555   2.425 -0.6439 -0.4676 -0.7219
 6571TIP3    H241273   2.466   2.667   2.327 -0.3087 -1.1331 -1.3906
 6572TIP3   OH241274   5.181   6.494   8.179  0.4997 -0.5164  0.5650
 6572TIP3    H141275   5.193   6.426   8.245 -0.8141 -0.5680  0.7788
 6572TIP3    H241276   5.148   6.447   8.102  0.1460 -0.2087  0.5267
 6573TIP3   OH241277   5.457   7.008   3.009  0.1121 -0.5395  0.0879
 6573TIP3    H141278   5.473   6.945   2.938  2.5480 -0.7734  0.7463
 6573TIP3    H241279   5.408   6.958   3.074 -1.1567 -0.6529 -0.9188
 6574TIP3   OH241280   1.525   5.564   2.526  0.7297 -0.2030  0.6494
 6574TIP3    H141281   1.436   5.576   2.557  0.5422 -1.9721  0.8901
 6574TIP3    H241282   1.522   5.587   2.433 -0.0632 -0.5485  0.5828
 6575TIP3   OH241283   1.161   4.957   0.146  0.1044 -0.2227 -0.2275
 6575TIP3    H141284   1.200   4.925   0.064 -0.5900  0.2566 -0.7521
 6575TIP3    H241285   1.123   5.042   0.123 -1.5876 -0.8375  0.1750
 6576TIP3   OH241286   0.370   6.597   3.122 -0.1417  0.2281  0.1878
 6576TIP3    H141287   0.277   6.603   3.142 -0.5580 -0.7968 -1.2408
 6576TIP3    H241288   0.384   6.504   3.104  0.0816  0.8951 -4.1608
 6577TIP3   OH241289   4.254   0.324   0.865  0.3992  0.2798  0.0383
 6577TIP3    H141290   4.254   0.307   0.770 -0.5324  1.2698 -0.1642
 6577TIP3    H241291   4.162   0.339   0.886  0.6712  0.6682  0.9889
 6578TIP3   OH241292   2.174   3.068   7.307 -0.3281 -0.5083  0.4065
 6578TIP3    H141293   2.109   3.088   7.240 -0.9796 -0.7898  0.9438
 6578TIP3    H241294   2.258   3.071   7.261  0.0154  5.4025  0.6475
 6579TIP3   OH241295   2.615   0.276   0.797  0.0160  0.0603 -0.3079
 6579TIP3    H141296   2.667   0.248   0.721  0.1268  0.0037 -0.2110
 6579TIP3    H241297   2.584   0.363   0.773  1.8061  0.9375  0.4522
 6580TIP3   OH241298   0.950   3.941   7.459  0.1447 -0.0808 -0.4211
 6580TIP3    H141299   0.991   3.859   7.431 -2.4474 -1.7729  0.3711
 6580TIP3    H241300   0.959   3.942   7.554  0.7737  0.9438 -0.4775
 6581TIP3   OH241301   6.320   0.522   8.112 -0.6412  0.2735  0.1661
 6581TIP3    H141302   6.367   0.603   8.095 -1.1550  1.0962  2.2952
 6581TIP3    H241303   6.344   0.498   8.202 -1.7092 -1.0642  0.1397
 6582TIP3   OH241304   1.587   3.205   0.664 -0.6394 -1.1430  0.0634
 6582TIP3    H141305   1.638   3.278   0.629 -0.4034 -1.7798 -0.9560
 6582TIP3    H241306   1.582   3.223   0.758  1.4503 -1.0362  0.2069
 6583TIP3   OH241307   1.923   6.355   1.991  0.9104 -0.7062  0.1276
 6583TIP3    H141308   1.841   6.308   2.008  0.8022 -0.3619  0.5740
 6583TIP3    H241309   1.930   6.357   1.896 -1.1068  1.7971 -0.0659
 6584TIP3   OH241310   4.661   6.835   0.071  0.0237  0.2257 -0.5100
 6584TIP3    H141311   4.723   6.762   0.069 -1.0971 -0.8003  0.5591
 6584TIP3    H241312   4.698   6.899   0.010  1.3140 -0.9993 -1.0846
 6585TIP3   OH241313   0.298   0.324   0.544 -0.9031 -0.1699 -0.2756
 6585TIP3    H141314   0.285   0.289   0.632  0.6045  1.5485  0.6823
 6585TIP3    H241315   0.354   0.260   0.501 -2.0441 -1.2714 -0.2076
 6586TIP3   OH241316   1.264   5.485   2.299 -0.1295  0.0336  0.1116
 6586TIP3    H141317   1.341   5.519   2.345  0.8817  0.3022 -1.6982
 6586TIP3    H241318   1.194   5.489   2.365  0.9563  1.5307  1.2628
 6587TIP3   OH241319   6.447   0.946   7.179 -0.5791  0.1372  0.1900
 6587TIP3    H141320   6.402   0.933   7.096  0.8290 -0.4510 -0.5245
 6587TIP3    H241321   6.483   0.860   7.200  0.6781  0.6999  0.4330
 6588TIP3   OH241322   6.594   1.841   2.948 -0.0932  0.2921 -0.2661
 6588TIP3    H141323   6.681   1.803   2.959 -0.4498 -0.7081 -0.7597
 6588TIP3    H241324   6.536   1.783   2.997 -0.4274  1.2951  0.5830
 6589TIP3   OH241325   1.994   1.732   2.709  0.0399 -0.5287  0.2053
 6589TIP3    H141326   1.972   1.716   2.617 -1.2656 -2.1343  0.7535
 6589TIP3    H241327   1.997   1.828   2.716 -1.3828 -0.3389 -1.1662
 6590TIP3   OH241328   0.052   2.042   2.416  0.2030  0.5168 -0.3225
 6590TIP3    H141329  -0.015   2.042   2.347  0.7967  1.7340 -0.9371
 6590TIP3    H241330   0.048   1.954   2.453 -0.9377  0.2034 -1.1198
 6591TIP3   OH241331   4.628   1.272   0.359  0.0649  0.4139  0.1715
 6591TIP3    H141332   4.564   1.203   0.373 -1.2482  1.2870 -1.1503
 6591TIP3    H241333   4.695   1.258   0.426 -0.9066 -1.2350  0.8442
 6592TIP3   OH241334   4.483   1.152   8.214 -0.1632  0.2371 -0.0026
 6592TIP3    H141335   4.501   1.098   8.137 -0.2098  2.1563 -1.4480
 6592TIP3    H241336   4.406   1.112   8.254 -0.3665 -0.6171 -1.1894
 6593TIP3   OH241337   1.246   2.665   7.924 -0.5871 -0.1722 -0.2914
 6593TIP3    H141338   1.248   2.571   7.943 -1.3248  0.0461  1.0756
 6593TIP3    H241339   1.160   2.693   7.957  0.1381  1.1993  0.5278
 6594TIP3   OH241340   5.710   1.198   0.755  0.3534  1.2739 -0.2306
 6594TIP3    H141341   5.669   1.284   0.745  0.2485  1.1063 -1.5104
 6594TIP3    H241342   5.654   1.152   0.817  0.8596  2.3830  1.0919
 6595TIP3   OH241343   5.588   6.866   1.046 -0.4830  0.0328 -0.7684
 6595TIP3    H141344   5.574   6.807   0.971 -1.7283 -0.4664 -0.1609
 6595TIP3    H241345   5.600   6.808   1.121 -0.4737  0.5403 -0.3699
 6596TIP3   OH241346   6.149   6.295   2.878  0.2052 -0.2417  0.0883
 6596TIP3    H141347   6.070   6.241   2.880 -0.9149  1.2740 -1.0065
 6596TIP3    H241348   6.120   6.379   2.841  2.3068  0.3913 -0.2509
 6597TIP3   OH241349   1.187   3.656   7.914  0.1171  0.1457 -0.4234
 6597TIP3    H141350   1.281   3.652   7.930  0.4451  2.0020 -1.6451
 6597TIP3    H241351   1.171   3.587   7.849  0.3581 -1.1266  0.8290
 6598TIP3   OH241352   3.085   4.648   1.526  0.0358 -0.5723  0.3828
 6598TIP3    H141353   3.047   4.723   1.572 -0.6085 -0.4085 -0.3807
 6598TIP3    H241354   3.051   4.655   1.437  1.0121 -1.0513 -0.0384
 6599TIP3   OH241355   3.076   0.206   2.709  0.5091  0.1137  0.1465
 6599TIP3    H141356   3.092   0.261   2.786 -1.6246 -0.3025  0.9684
 6599TIP3    H241357   3.077   0.117   2.743 -2.8308  0.0126  0.3029
 6600TIP3   OH241358   2.372   3.346   2.251 -0.3240 -0.2120 -0.0962
 6600TIP3    H141359   2.410   3.428   2.218  1.5639 -0.7577  0.5954
 6600TIP3    H241360   2.291   3.373   2.293 -0.0850  1.2151 -0.4891
 6601TIP3   OH241361   0.124   0.519   0.454 -0.4608 -0.1576  0.1962
 6601TIP3    H141362   0.181   0.444   0.470  0.2318 -0.0600 -1.6470
 6601TIP3    H241363   0.160   0.589   0.509  0.9581 -0.2215 -0.6166
 6602TIP3   OH241364   1.393   0.564   7.724 -0.2308 -0.2747  0.3024
 6602TIP3    H141365   1.388   0.473   7.696 -0.7228  0.0666 -0.8000
 6602TIP3    H241366   1.301   0.591   7.734 -0.2173  0.7477 -1.7041
 6603TIP3   OH241367   3.028   3.030   2.915  0.0883 -0.3111  0.3757
 6603TIP3    H141368   3.000   2.940   2.899  2.9874 -1.1951 -0.2428
 6603TIP3    H241369   3.022   3.040   3.010 -2.2149 -0.3802  0.3029
 6604TIP3   OH241370   5.701   6.125   0.923  0.0790 -0.7607 -0.3779
 6604TIP3    H141371   5.782   6.144   0.970 -0.9150  1.8299  0.4428
 6604TIP3    H241372   5.633   6.130   0.989 -1.2264  1.7906 -1.7601
 6605TIP3   OH241373   4.046   5.236   2.511 -0.1782  0.4344 -0.2986
 6605TIP3    H141374   4.107   5.245   2.438  1.0523 -1.5395  0.4235
 6605TIP3    H241375   4.102   5.228   2.588 -1.4450  2.8820  1.0070
 6606TIP3   OH241376   2.115   3.421   1.428 -0.2654 -0.8704  0.1860
 6606TIP3    H141377   2.083   3.507   1.403  1.1435 -0.1056  0.8788
 6606TIP3    H241378   2.154   3.385   1.349 -0.4318 -0.6639  0.0110
 6607TIP3   OH241379   4.942   6.039   2.291  0.3776 -0.1278 -0.4146
 6607TIP3    H141380   4.911   6.129   2.278  1.2693  0.0192 -1.7982
 6607TIP3    H241381   4.867   5.985   2.270 -1.1770  0.2313  3.3946
 6608TIP3   OH241382   4.575   2.296   0.635 -0.7526  0.2535  0.3116
 6608TIP3    H141383   4.581   2.283   0.730 -0.6752 -0.2632  0.2400
 6608TIP3    H241384   4.645   2.358   0.615 -1.8384  1.6938  0.8239
 6609TIP3   OH241385   1.951   3.388   7.951  0.3182  0.2578  0.3260
 6609TIP3    H141386   1.963   3.463   7.893 -0.4578  1.2660  1.4067
 6609TIP3    H241387   2.040   3.358   7.971  0.6748  1.3883  0.4925
 6610TIP3   OH241388   0.641   6.272   0.382  0.1764  0.3453  0.6512
 6610TIP3    H141389   0.710   6.290   0.445 -0.9740  0.8552  1.8133
 6610TIP3    H241390   0.652   6.180   0.359  1.8500  0.6671  0.0138
 6611TIP3   OH241391   1.284   2.161   1.382  0.4105  0.3460  0.2061
 6611TIP3    H141392   1.332   2.227   1.432 -0.8270  1.5925 -0.1981
 6611TIP3    H241393   1.239   2.108   1.448  0.3524  0.7360  0.4808
 6612TIP3   OH241394   6.029   4.204   8.051 -0.5855 -0.1604 -0.0116
 6612TIP3    H141395   6.098   4.153   8.093  1.1970  0.8369 -1.5793
 6612TIP3    H241396   6.020   4.165   7.965 -2.3097 -0.5174  0.3042
 6613TIP3   OH241397   3.336   2.234   0.580  0.1851  0.2032 -0.1191
 6613TIP3    H141398   3.370   2.160   0.531 -0.1997  0.9446 -1.5707
 6613TIP3    H241399   3.241   2.226   0.573 -0.3233 -2.6314  5.0548
 6614TIP3   OH241400   4.083   1.468   0.094 -0.0686 -0.4204  0.7919
 6614TIP3    H141401   4.169   1.445   0.059  0.0859  0.7269  0.3921
 6614TIP3    H241402   4.095   1.467   0.189  0.9654  1.7505  0.7330
 6615TIP3   OH241403   3.286   3.379   3.415 -0.3620 -0.0194 -0.0204
 6615TIP3    H141404   3.222   3.442   3.450  0.4396  1.5492 -1.2671
 6615TIP3    H241405   3.295   3.403   3.322  0.0315 -1.9439 -0.5144
 6616TIP3   OH241406   6.034   2.041   0.055 -0.3358  0.6248  0.1191
 6616TIP3    H141407   5.987   2.108   0.005  0.9119 -0.0878 -2.1941
 6616TIP3    H241408   6.122   2.041   0.018 -0.5736 -3.0528 -0.8979
 6617TIP3   OH241409   1.036   1.366   7.916 -0.6385  0.1836 -0.0066
 6617TIP3    H141410   0.999   1.325   7.995 -2.3383 -1.7087 -1.6668
 6617TIP3    H241411   0.975   1.436   7.895  0.2545  1.2237  0.7529
 6618TIP3   OH241412   1.761   5.547   1.601  0.3403  0.4347  0.0347
 6618TIP3    H141413   1.729   5.636   1.590  0.8274  0.6489  0.3222
 6618TIP3    H241414   1.690   5.502   1.648  0.6977  1.0819  1.2518
 6619TIP3   OH241415   1.764   5.773   7.949  0.1181  0.0655 -0.1353
 6619TIP3    H141416   1.689   5.751   7.894  0.5213 -0.2527 -0.5692
 6619TIP3    H241417   1.839   5.772   7.889  0.4912  0.2330  0.3173
 6620TIP3   OH241418   3.882   1.523   1.020 -0.0714 -0.2576 -0.4328
 6620TIP3    H141419   3.827   1.579   1.075  0.5623 -0.6428  0.6123
 6620TIP3    H241420   3.963   1.573   1.009  0.4911 -0.9462  0.4916
 6621TIP3   OH241421   4.276   1.280   2.507 -0.1664 -0.1876  0.7264
 6621TIP3    H141422   4.240   1.295   2.420 -0.8320 -0.5852  0.9204
 6621TIP3    H241423   4.271   1.185   2.520  0.8592 -0.2461  0.8135
 6622TIP3   OH241424   3.880   4.332   1.241  0.0795  0.2180 -0.3305
 6622TIP3    H141425   3.802   4.386   1.229 -0.0249  0.7772  2.2831
 6622TIP3    H241426   3.952   4.388   1.209 -0.3544  0.5769 -0.7040
 6623TIP3   OH241427   3.102   5.515   2.542 -0.0027  0.0301  0.5878
 6623TIP3    H141428   3.083   5.604   2.514  3.4180  0.6958  0.0188
 6623TIP3    H241429   3.155   5.478   2.472  1.0246 -1.4690  2.0702
 6624TIP3   OH241430   6.578   2.807   3.598  0.4151  0.1283 -0.2918
 6624TIP3    H141431   6.515   2.752   3.645  0.3061  0.1449 -0.4173
 6624TIP3    H241432   6.549   2.804   3.507 -0.1300  1.1300 -0.1578
 6625TIP3   OH241433   1.974   4.244   7.703 -0.1204 -0.6663  0.0286
 6625TIP3    H141434   2.008   4.297   7.631  0.0535 -0.8499 -0.0279
 6625TIP3    H241435   1.892   4.208   7.670  0.8520 -2.2586 -0.7971
 6626TIP3   OH241436   0.348   3.531   2.632 -0.1016 -0.0145 -0.3706
 6626TIP3    H141437   0.377   3.584   2.707 -1.7370  0.4953 -0.0717
 6626TIP3    H241438   0.255   3.548   2.625 -0.3372 -1.5421 -1.3686
 6627TIP3   OH241439   1.058   5.820   0.455  0.5463  0.6894 -0.7182
 6627TIP3    H141440   0.969   5.829   0.422 -0.6367  1.4987  2.3605
 6627TIP3    H241441   1.079   5.906   0.491  1.9331  0.0337  0.1072
 6628TIP3   OH241442   5.845   2.792   1.045 -0.8659 -0.8555  0.2243
 6628TIP3    H141443   5.888   2.786   0.960 -0.3643 -0.9937  0.4847
 6628TIP3    H241444   5.846   2.885   1.067 -0.4141 -0.8927  0.3723
 6629TIP3   OH241445   4.031   0.040   8.262 -0.4959 -0.0416 -0.4735
 6629TIP3    H141446   4.031   0.067   8.171  1.9705  0.2422 -0.4422
 6629TIP3    H241447   3.976  -0.039   8.263  1.3527 -1.4819 -2.6891
 6630TIP3   OH241448   3.763   2.655   0.892  0.4533 -0.2821  0.5425
 6630TIP3    H141449   3.766   2.691   0.803 -2.0779 -1.0162  0.0786
 6630TIP3    H241450   3.681   2.605   0.895  0.0106  0.4194  3.5416
 6631TIP3   OH241451   5.952   5.998   0.465  0.0386  0.0523 -0.0746
 6631TIP3    H141452   6.019   6.012   0.398  0.6341 -0.4837  0.3962
 6631TIP3    H241453   5.959   6.074   0.523  0.2524 -0.0109 -0.0171
 6632TIP3   OH241454   2.491   5.312   0.944 -0.2991  0.6058 -0.2033
 6632TIP3    H141455   2.515   5.235   0.994  0.2802  1.9852  1.7655
 6632TIP3    H241456   2.429   5.280   0.878  1.0650 -1.7569 -0.4677
 6633TIP3   OH241457   6.656   6.762   8.119 -0.2021 -0.1741 -0.6045
 6633TIP3    H141458   6.650   6.843   8.069  2.3469  1.5438  1.6191
 6633TIP3    H241459   6.686   6.697   8.056 -0.6537  0.9902 -2.0777
 6634TIP3   OH241460   3.509   3.195   1.209  0.7224  0.3875 -0.3799
 6634TIP3    H141461   3.463   3.122   1.251  1.1100  0.0555 -0.5383
 6634TIP3    H241462   3.479   3.194   1.118 -1.9343  2.5174  0.3240
 6635TIP3   OH241463   2.628   5.723   2.040 -0.2117 -0.2346 -0.6128
 6635TIP3    H141464   2.706   5.743   1.988  1.7117 -1.1615  1.7199
 6635TIP3    H241465   2.650   5.751   2.129 -2.4615 -0.7769  0.1889
 6636TIP3   OH241466   2.652   2.548   1.012 -0.3800 -0.2989 -0.5616
 6636TIP3    H141467   2.666   2.453   1.012 -0.2207 -0.2762 -0.5712
 6636TIP3    H241468   2.564   2.560   1.047 -0.3543 -0.4436 -0.4494
 6637TIP3   OH241469   4.104   1.107   7.515  0.2618 -0.4817 -0.5052
 6637TIP3    H141470   4.108   1.081   7.423  0.2175 -0.4824 -0.5072
 6637TIP3    H241471   4.013   1.135   7.528 -0.0460 -1.5892 -0.1703
 6638TIP3   OH241472   1.537   1.000   0.689  0.1264 -0.4439 -0.2203
 6638TIP3    H141473   1.618   0.967   0.649  0.9565 -1.0389  1.8258
 6638TIP3    H241474   1.559   1.088   0.720 -0.0715 -0.5229  0.1525
 6639TIP3   OH241475   1.730   6.123   1.781 -0.4079  0.1455 -0.0704
 6639TIP3    H141476   1.723   6.078   1.696  0.1103  0.5413 -0.3302
 6639TIP3    H241477   1.749   6.214   1.758  1.5145 -0.0757  0.4769
 6640TIP3   OH241478   6.018   1.929   2.415  0.0139 -0.1718  0.2547
 6640TIP3    H141479   5.975   1.849   2.445  1.9824 -1.6958 -0.7181
 6640TIP3    H241480   5.963   1.961   2.345 -0.3963 -1.1508  0.1108
 6641TIP3   OH241481   0.029   5.501   2.369  0.7298 -0.5137 -0.0680
 6641TIP3    H141482   0.042   5.423   2.423  0.1871 -1.7725 -1.6782
 6641TIP3    H241483   0.086   5.488   2.293  1.3823  1.1559  0.0727
 6642TIP3   OH241484   5.991   1.331   2.769 -0.2039  0.0446  0.2350
 6642TIP3    H141485   6.082   1.359   2.760  0.4410 -1.6419  1.0186
 6642TIP3    H241486   5.992   1.239   2.744 -1.8502  0.1549 -0.3750
 6643TIP3   OH241487   4.332   5.901   7.831 -0.3381  0.3577 -0.0262
 6643TIP3    H141488   4.386   5.954   7.773 -0.9119  2.1982  1.0252
 6643TIP3    H241489   4.242   5.931   7.815 -0.6972 -0.4240  0.4731
 6644TIP3   OH241490   3.112   0.955   2.293 -0.3763 -0.1964 -0.3216
 6644TIP3    H141491   3.176   0.929   2.226  0.0947 -0.8029  0.3529
 6644TIP3    H241492   3.112   0.883   2.355  0.6353  1.1917  1.3865
 6645TIP3   OH241493   0.412   0.843   1.120  0.0713 -0.0859 -0.1219
 6645TIP3    H141494   0.338   0.872   1.173 -0.3954  0.8216 -1.2117
 6645TIP3    H241495   0.489   0.866   1.170 -0.3598  0.7387  0.1733
 6646TIP3   OH241496   4.615   0.405   8.064 -0.6026  0.0114  0.4523
 6646TIP3    H141497   4.614   0.466   8.137 -1.1444  0.3514  0.1689
 6646TIP3    H241498   4.604   0.319   8.104  0.4577  0.0570  0.8820
 6647TIP3   OH241499   3.683   2.585   2.289  0.9094 -0.0728  0.4405
 6647TIP3    H141500   3.715   2.609   2.201 -1.0430 -2.0332 -0.9120
 6647TIP3    H241501   3.728   2.503   2.309  0.8466  0.0239  0.9810
 6648TIP3   OH241502   4.978   0.307   2.688  0.5290 -0.0324 -0.5485
 6648TIP3    H141503   5.050   0.272   2.636  0.2464  0.1621 -1.0759
 6648TIP3    H241504   4.901   0.257   2.661  0.3074  0.3314 -0.6070
 6649TIP3   OH241505   5.925   2.941   7.916  0.3922 -0.3537  0.4500
 6649TIP3    H141506   5.932   3.001   7.842  1.1933  0.9103  1.5039
 6649TIP3    H241507   5.859   2.981   7.973  0.1954 -1.0084  0.6845
 6650TIP3   OH241508   4.076   3.260   1.649 -0.8048  0.2144  0.1466
 6650TIP3    H141509   4.171   3.255   1.648 -0.7362  1.0267  1.0100
 6650TIP3    H241510   4.051   3.268   1.557 -0.1370 -1.2099 -0.1888
 6651TIP3   OH241511   2.506   1.788   2.826  0.6182  0.1680  0.6129
 6651TIP3    H141512   2.536   1.820   2.911  2.7020  0.5396 -0.2209
 6651TIP3    H241513   2.570   1.722   2.801 -0.3611 -0.4462 -0.3821
 6652TIP3   OH241514   1.599   2.652   2.747 -0.3811 -0.0987  0.0103
 6652TIP3    H141515   1.625   2.696   2.828 -3.0550 -1.4351  1.7622
 6652TIP3    H241516   1.659   2.685   2.680  0.9751  2.2101  2.2249
 6653TIP3   OH241517   2.649   3.503   2.715 -0.8440  0.1373  0.2490
 6653TIP3    H141518   2.565   3.501   2.670  0.3597  1.0573 -2.1916
 6653TIP3    H241519   2.664   3.412   2.742 -2.6647  0.0012  0.9231
 6654TIP3   OH241520   2.880   0.192   1.967 -0.0456  0.2044 -0.0652
 6654TIP3    H141521   2.958   0.171   2.018 -0.5923  1.0571  1.1876
 6654TIP3    H241522   2.833   0.256   2.021 -0.6370  1.1830 -1.6714
 6655TIP3   OH241523   5.833   3.057   7.386 -0.3172 -0.5119  0.2191
 6655TIP3    H141524   5.893   3.067   7.460  0.2996 -2.6629  0.0962
 6655TIP3    H241525   5.859   3.125   7.324  1.1765 -0.5919  0.7141
 6656TIP3   OH241526   6.621   4.533   3.056  0.2489  0.2364 -0.5571
 6656TIP3    H141527   6.703   4.581   3.050  0.7337 -0.5801 -0.5492
 6656TIP3    H241528   6.604   4.526   3.150 -0.8019  2.0107 -0.5800
 6657TIP3   OH241529   6.859   4.400   1.073 -0.0245  0.1215  0.4779
 6657TIP3    H141530   6.868   4.482   1.024 -0.1722  0.1948  0.5716
 6657TIP3    H241531   6.787   4.354   1.029  0.4920 -0.2590  0.0106
 6658TIP3   OH241532   0.050   4.116   7.885 -0.1171 -0.7943 -0.0552
 6658TIP3    H141533  -0.044   4.105   7.875 -0.1541 -0.9476  0.4341
 6658TIP3    H241534   0.061   4.206   7.917 -0.0150 -0.3850 -1.1941
 6659TIP3   OH241535   0.596   6.987   0.580  0.2457 -0.3831 -0.3327
 6659TIP3    H141536   0.685   7.020   0.573  0.4900 -0.8389  0.3865
 6659TIP3    H241537   0.557   7.038   0.651  1.2197 -2.7512  2.0897
 6660TIP3   OH241538   3.861   0.804   2.561 -0.4927  0.0707  0.1463
 6660TIP3    H141539   3.801   0.778   2.630 -0.7259 -0.3698 -0.2182
 6660TIP3    H241540   3.931   0.852   2.606 -1.1935  0.7260  0.5497
 6661TIP3   OH241541   3.075   2.340   0.562  0.1762  0.0417  0.0619
 6661TIP3    H141542   2.986   2.373   0.572  0.2880  1.1090 -2.0357
 6661TIP3    H241543   3.102   2.317   0.651 -2.6301 -1.5715  0.5780
 6662TIP3   OH241544   0.900   2.073   2.766 -0.4054  0.5722  0.3259
 6662TIP3    H141545   0.882   2.037   2.853  2.0477 -2.3182 -0.2084
 6662TIP3    H241546   0.962   2.144   2.782 -0.9608  0.9189  0.9971
 6663TIP3   OH241547   1.941   0.982   2.734  0.9110  0.7373  0.3885
 6663TIP3    H141548   1.847   0.989   2.715  0.7216  0.0863  1.0673
 6663TIP3    H241549   1.953   1.028   2.817  1.0694  0.2078  0.6628
 6664TIP3   OH241550   1.038   0.291   8.137 -0.2643  0.2562 -0.4331
 6664TIP3    H141551   0.988   0.214   8.113  0.7108  0.3126 -2.8781
 6664TIP3    H241552   0.981   0.365   8.117 -1.0691  0.2615  1.5987
 6665TIP3   OH241553   6.254   6.584   8.198 -0.1624  0.6387 -0.3551
 6665TIP3    H141554   6.239   6.658   8.257 -0.9275 -0.0476  0.3356
 6665TIP3    H241555   6.235   6.620   8.111  0.0120  1.3985 -0.0898
 6666TIP3   OH241556   1.795   1.863   0.392 -0.5841 -0.2522 -0.5169
 6666TIP3    H141557   1.704   1.836   0.393 -1.2005  1.3760 -3.2417
 6666TIP3    H241558   1.793   1.956   0.418  0.0224  0.2816 -2.2168
 6667TIP3   OH241559   2.301   0.983   0.237 -0.3125 -0.1467  0.0816
 6667TIP3    H141560   2.231   0.922   0.214 -1.3811  0.5578  1.2968
 6667TIP3    H241561   2.340   1.008   0.153 -2.7337  0.8275 -0.8587
 6668TIP3   OH241562   1.636   3.338   1.134  0.2723 -0.4414 -0.1134
 6668TIP3    H141563   1.665   3.429   1.126 -0.9624 -0.0300 -0.2198
 6668TIP3    H241564   1.637   3.321   1.229  1.1945 -0.5678 -0.1379
 6669TIP3   OH241565   2.106   1.873   8.260  0.3522  0.5164  0.1017
 6669TIP3    H141566   2.078   1.938   8.324 -2.2744 -0.2651 -0.1367
 6669TIP3    H241567   2.200   1.887   8.251  0.0967  3.4246  0.9599
 6670TIP3   OH241568   0.653   1.297   8.143  0.0603 -0.4760  0.4188
 6670TIP3    H141569   0.627   1.327   8.056 -0.1284 -2.1643 -0.1390
 6670TIP3    H241570   0.584   1.330   8.201  0.9958  2.0270  0.2364
 6671TIP3   OH241571   5.700   0.543   7.695 -0.4645 -0.1565  0.1513
 6671TIP3    H141572   5.652   0.626   7.702  0.1016  0.2617 -0.7395
 6671TIP3    H241573   5.781   0.566   7.650  2.0416 -0.2746  4.1202
 6672TIP3   OH241574   5.088   2.823   3.208 -0.1219  0.6834  0.5516
 6672TIP3    H141575   5.076   2.873   3.289 -0.3864 -0.9740  1.5921
 6672TIP3    H241576   5.150   2.874   3.157 -1.0512  2.5090  1.1499
 6673TIP3   OH241577   6.730   0.421   2.204 -0.2962 -0.3505  0.4696
 6673TIP3    H141578   6.644   0.396   2.236 -0.6093 -0.2904 -0.2874
 6673TIP3    H241579   6.777   0.339   2.193  0.2772 -0.3069  2.2642
 6674TIP3   OH241580   1.070   3.039   2.435 -0.9015  0.3436 -0.4434
 6674TIP3    H141581   1.056   2.971   2.502  1.9828  0.3587  0.3112
 6674TIP3    H241582   0.988   3.089   2.434 -1.6671 -0.7174  1.8728
 6675TIP3   OH241583   2.508   3.607   8.090 -0.0809  0.6012  0.3557
 6675TIP3    H141584   2.539   3.694   8.115  0.3667  0.4639  0.2898
 6675TIP3    H241585   2.551   3.588   8.007  0.9479 -0.2577  1.0549
 6676TIP3   OH241586   0.904   0.625   1.402 -0.1962  0.1148  0.6061
 6676TIP3    H141587   0.970   0.665   1.345  0.3805 -1.0431  0.4260
 6676TIP3    H241588   0.920   0.663   1.488  0.1752  0.4608  0.3888
 6677TIP3   OH241589   2.259   0.834   2.406 -0.2013  0.0524 -0.0133
 6677TIP3    H141590   2.179   0.793   2.372 -1.0885  2.3838 -0.9625
 6677TIP3    H241591   2.282   0.899   2.339  0.1690  2.2166  2.0966
 6678TIP3   OH241592   0.770   6.779   2.759  0.1329  0.0260 -0.5965
 6678TIP3    H141593   0.715   6.850   2.727 -1.1249 -0.3594  0.6304
 6678TIP3    H241594   0.768   6.788   2.855  0.0570 -1.5769 -0.4259
 6679TIP3   OH241595   4.910   3.301   1.607  0.1359  0.1405 -0.3834
 6679TIP3    H141596   4.997   3.292   1.567  1.2628  2.0578  1.4145
 6679TIP3    H241597   4.884   3.212   1.628  1.7273 -0.4802 -0.8652
 6680TIP3   OH241598   2.147   0.795   1.131 -0.5315  0.4521 -0.7908
 6680TIP3    H141599   2.132   0.701   1.124 -1.8792  0.6810 -1.1201
 6680TIP3    H241600   2.140   0.827   1.040 -1.5524  1.0689 -0.5130
 6681TIP3   OH241601   5.026   6.641   1.106  0.2229 -0.5168  0.1146
 6681TIP3    H141602   4.980   6.608   1.028 -0.7804  0.3453  0.3201
 6681TIP3    H241603   5.119   6.623   1.088 -0.0393 -0.8284 -1.0306
 6682TIP3   OH241604   6.506   4.760   7.887  0.2827 -0.1210 -0.0317
 6682TIP3    H141605   6.447   4.794   7.820  1.0546  0.2873 -0.5320
 6682TIP3    H241606   6.516   4.667   7.866 -0.1566 -0.1866  0.0442
 6683TIP3   OH241607   5.820   3.292   2.906  0.0586 -0.1136 -0.4899
 6683TIP3    H141608   5.872   3.259   2.832  1.9990 -0.3505  0.9036
 6683TIP3    H241609   5.779   3.371   2.872 -1.4832 -1.7202 -2.6821
 6684TIP3   OH241610   1.689   6.371   2.662 -0.4320 -0.1625  0.1301
 6684TIP3    H141611   1.774   6.414   2.660 -0.4755  0.0778  1.7566
 6684TIP3    H241612   1.706   6.287   2.706 -1.0236 -0.1015  0.4873
 6685TIP3   OH241613   3.506   2.074   0.471 -0.7205 -0.1865  0.2368
 6685TIP3    H141614   3.538   2.117   0.392  0.6957 -0.0812  0.8456
 6685TIP3    H241615   3.568   2.099   0.539 -1.6773 -0.6214  1.2990
 6686TIP3   OH241616   2.403   4.010   1.567 -1.0380 -0.0762 -0.2323
 6686TIP3    H141617   2.350   4.090   1.566 -2.2922 -0.8670  0.6512
 6686TIP3    H241618   2.448   4.013   1.652 -2.9189 -1.4023  0.9045
 6687TIP3   OH241619   4.389   2.150   1.289  0.3590 -0.2915 -0.0088
 6687TIP3    H141620   4.332   2.211   1.337  1.1870  1.8132 -1.5351
 6687TIP3    H241621   4.463   2.204   1.262  0.5920 -1.7026 -2.4474
 6688TIP3   OH241622   5.351   0.410   1.866  0.0336 -0.8414 -0.2579
 6688TIP3    H141623   5.355   0.336   1.806 -0.4564 -0.6118 -0.5777
 6688TIP3    H241624   5.413   0.474   1.829 -0.0241 -0.8317 -0.3373
 6689TIP3   OH241625   3.815   2.812   0.551 -0.0617 -0.0295 -0.3690
 6689TIP3    H141626   3.815   2.783   0.459 -0.6949  0.4821 -0.5402
 6689TIP3    H241627   3.732   2.778   0.586  0.1373 -0.1409 -0.0112
 6690TIP3   OH241628   6.818   3.616   1.941 -0.1078 -0.1753  0.1322
 6690TIP3    H141629   6.727   3.644   1.939 -0.1489 -0.3794 -1.4405
 6690TIP3    H241630   6.862   3.670   1.875  0.5707 -1.1878 -0.2738
 6691TIP3   OH241631   5.266   1.949   0.712  0.3264  0.1189  0.4391
 6691TIP3    H141632   5.302   2.036   0.730  0.3769  0.4534 -1.1212
 6691TIP3    H241633   5.176   1.953   0.743  0.1706  0.8996 -0.0973
 6692TIP3   OH241634   0.477   5.067   2.237 -0.4230  0.0054 -0.3450
 6692TIP3    H141635   0.499   4.991   2.183 -2.0323  0.3887 -1.6282
 6692TIP3    H241636   0.549   5.074   2.300 -0.4505 -2.8419  0.1334
 6693TIP3   OH241637   2.009   3.073   2.149  0.1812 -0.0546  0.5888
 6693TIP3    H141638   2.088   3.020   2.164  1.7940  2.0877  0.2216
 6693TIP3    H241639   1.957   3.061   2.228  1.7090 -0.1992  1.6300
 6694TIP3   OH241640   1.413   0.991   0.939  0.1342 -0.2655 -0.7477
 6694TIP3    H141641   1.455   0.961   0.858  0.1645 -0.8523 -0.5208
 6694TIP3    H241642   1.463   0.949   1.009 -1.0028 -1.2270 -0.4800
 6695TIP3   OH241643   6.845   3.079   2.027 -0.2177 -0.5411 -0.0951
 6695TIP3    H141644   6.776   3.054   1.965 -1.2270  2.4909 -0.3790
 6695TIP3    H241645   6.914   3.117   1.972 -0.5403  0.9621  0.5019
 6696TIP3   OH241646   6.832   0.398   7.657  0.3003  0.0453 -0.2648
 6696TIP3    H141647   6.756   0.339   7.650  1.0271 -0.9821  0.2513
 6696TIP3    H241648   6.908   0.341   7.646  1.1007  0.5167  2.2241
 6697TIP3   OH241649   1.446   6.831   7.108 -0.1352 -0.3728 -0.1495
 6697TIP3    H141650   1.460   6.747   7.064 -0.4867  0.2439 -1.4946
 6697TIP3    H241651   1.413   6.807   7.194  0.3146 -1.6296 -0.3066
 6698TIP3   OH241652   5.209   6.692   3.057 -0.2060 -0.0336 -0.0129
 6698TIP3    H141653   5.124   6.658   3.032 -0.6101 -0.2502  1.5536
 6698TIP3    H241654   5.192   6.746   3.134  0.8246  1.4386 -0.7656
 6699TIP3   OH241655   1.945   3.238   2.845 -0.0387  0.0379  0.0651
 6699TIP3    H141656   1.969   3.293   2.920  2.4420 -1.0849  0.1718
 6699TIP3    H241657   1.862   3.275   2.815  0.3515  2.3575  1.5450
 6700TIP3   OH241658   6.325   4.532   8.153 -0.1539 -0.2530  0.0741
 6700TIP3    H141659   6.297   4.600   8.214 -1.3673 -1.7565  1.2697
 6700TIP3    H241660   6.394   4.485   8.200 -1.4023 -1.6981  0.5452
 6701TIP3   OH241661   6.054   5.468   8.180 -0.0321 -0.0044 -0.5289
 6701TIP3    H141662   5.982   5.526   8.153  0.3780  0.2663 -1.0653
 6701TIP3    H241663   6.043   5.458   8.274 -0.6576  0.1958 -0.5772
 6702TIP3   OH241664   1.450   3.645   8.005 -0.5925  0.4702  0.2419
 6702TIP3    H141665   1.479   3.597   8.083 -0.1819  2.1774  1.1885
 6702TIP3    H241666   1.479   3.591   7.931  0.1795 -0.5333  1.2496
 6703TIP3   OH241667   5.016   4.527   0.062 -0.1057  0.3202  0.1305
 6703TIP3    H141668   4.947   4.554   0.001 -2.1524  0.6641  2.4413
 6703TIP3    H241669   5.017   4.596   0.128  1.1656 -0.6463  1.1729
 6704TIP3   OH241670   4.204   7.037   0.187 -0.4757  0.3616 -0.1604
 6704TIP3    H141671   4.168   7.076   0.107  0.6716  1.3404 -0.2348
 6704TIP3    H241672   4.143   6.967   0.210 -2.0824  1.5672 -0.5956
 6705TIP3   OH241673   4.388   3.623   7.657  0.1528 -0.3886 -0.0050
 6705TIP3    H141674   4.441   3.618   7.578  0.2070 -0.9864  0.0697
 6705TIP3    H241675   4.443   3.586   7.726 -0.7080 -1.9641 -0.1123
 6706TIP3   OH241676   5.257   0.503   2.839 -0.0516 -0.0546  0.3847
 6706TIP3    H141677   5.183   0.507   2.901  1.0750  0.6683  1.7521
 6706TIP3    H241678   5.304   0.585   2.854  0.1934  0.1988 -1.5763
 6707TIP3   OH241679   5.279   0.438   3.279 -0.3287 -0.4047  0.1098
 6707TIP3    H141680   5.283   0.362   3.221  2.1017 -1.4391  1.4944
 6707TIP3    H241681   5.190   0.435   3.315 -1.7248 -0.0758 -2.9255
 6708TIP3   OH241682   7.040   6.872   8.262 -0.2385 -0.5649 -0.0270
 6708TIP3    H141683   7.002   6.798   8.215 -1.0770 -0.3710  0.3271
 6708TIP3    H241684   7.114   6.835   8.310 -0.2290 -1.0341 -0.4026
 6709TIP3   OH241685   6.983   2.873   2.441  0.7764  0.9335  0.8537
 6709TIP3    H141686   7.032   2.803   2.398 -0.4962  0.7991 -0.4450
 6709TIP3    H241687   6.960   2.837   2.526  0.1224 -0.2648  0.1930
 6710TIP3   OH241688   3.101   6.198   2.327 -0.1164 -0.0693  0.6093
 6710TIP3    H141689   3.022   6.209   2.273 -0.5585  0.3800  1.3322
 6710TIP3    H241690   3.068   6.181   2.415  0.5977 -0.0532  0.8862
 6711TIP3   OH241691   5.938   4.815   8.151  0.2085  0.2211 -0.3706
 6711TIP3    H141692   5.855   4.768   8.156 -0.0699  0.7866  0.6654
 6711TIP3    H241693   5.996   4.756   8.103 -0.1478 -1.1278  0.8053
 6712TIP3   OH241694   2.577   1.980   1.984 -0.0755 -0.0276 -0.5838
 6712TIP3    H141695   2.513   2.025   1.930 -1.4570 -2.9555 -1.5666
 6712TIP3    H241696   2.642   1.947   1.922  2.4508  2.6534  0.3622
 6713TIP3   OH241697   4.126   2.679   1.898  0.6711 -0.2836 -0.1165
 6713TIP3    H141698   4.107   2.655   1.808 -1.8396 -0.4404  0.3762
 6713TIP3    H241699   4.118   2.774   1.900  0.9306 -0.2628 -0.1148
 6714TIP3   OH241700   3.238   0.476   7.695 -0.2292  0.0323 -0.5487
 6714TIP3    H141701   3.295   0.550   7.675  0.9732 -0.8979 -0.6892
 6714TIP3    H241702   3.200   0.452   7.610 -0.3723  0.2932 -0.5579
 6715TIP3   OH241703   5.108   3.239   3.238  0.1030  0.3802  0.4018
 6715TIP3    H141704   5.051   3.190   3.179  0.5289  0.6153 -0.2218
 6715TIP3    H241705   5.055   3.315   3.265  0.0713  0.5312 -0.0723
 6716TIP3   OH241706   3.437   5.002   2.655 -0.5061 -0.0069 -0.3392
 6716TIP3    H141707   3.395   5.038   2.733 -0.6628  1.3482 -1.0154
 6716TIP3    H241708   3.475   4.919   2.684 -1.8365 -0.2522  0.8065
 6717TIP3   OH241709   4.306   3.482   1.778  0.1738  0.1801 -0.0619
 6717TIP3    H141710   4.295   3.418   1.708 -1.2045 -1.7403  1.7946
 6717TIP3    H241711   4.399   3.505   1.774  0.1981 -0.0365 -2.3038
 6718TIP3   OH241712   3.555   5.887   1.624 -0.9375 -0.1834 -0.2788
 6718TIP3    H141713   3.616   5.827   1.582 -0.4301 -1.2667  1.8766
 6718TIP3    H241714   3.475   5.836   1.637 -1.9048  0.8220 -1.8524
 6719TIP3   OH241715   1.595   6.553   2.193  0.2402  0.5511  1.0604
 6719TIP3    H141716   1.653   6.528   2.266  1.6570  0.9625  0.1229
 6719TIP3    H241717   1.604   6.482   2.130  1.7059  1.7532 -0.1674
 6720TIP3   OH241718   5.452   5.677   8.065 -0.4659 -0.0026 -0.3447
 6720TIP3    H141719   5.540   5.643   8.085 -0.7578 -1.8252 -1.8166
 6720TIP3    H241720   5.421   5.714   8.147  1.7729  0.9449  0.1378
 6721TIP3   OH241721   5.226   4.334   2.069  0.1202  0.2600  0.0479
 6721TIP3    H141722   5.236   4.279   1.992 -0.5328  0.4115 -0.1472
 6721TIP3    H241723   5.172   4.283   2.129 -1.2448  1.0133 -0.4849
 6722TIP3   OH241724   3.776   3.097   2.997 -0.5076 -0.3446  0.3560
 6722TIP3    H141725   3.783   3.050   3.080  0.1492 -1.8175 -0.5087
 6722TIP3    H241726   3.706   3.051   2.950  0.0516 -0.3666 -0.4477
 6723TIP3   OH241727   2.472   0.152   3.150 -0.3447  0.2182 -0.2111
 6723TIP3    H141728   2.453   0.239   3.114 -1.3887  0.6158  1.2149
 6723TIP3    H241729   2.387   0.118   3.177  0.2450 -0.5633  0.7421
 6724TIP3   OH241730   5.389   1.729   7.619 -0.0318  0.7946  0.1161
 6724TIP3    H141731   5.378   1.723   7.714  0.0697 -0.6902  0.0627
 6724TIP3    H241732   5.472   1.775   7.608  0.0743  0.7756  0.7622
 6725TIP3   OH241733   2.851   4.125   0.762  0.4145  1.0992  0.0220
 6725TIP3    H141734   2.943   4.138   0.782  0.5815 -2.5809  2.8131
 6725TIP3    H241735   2.805   4.174   0.831  0.4196  0.9079  0.1644
 6726TIP3   OH241736   2.408   6.822   2.036 -0.3051  0.2666  0.5095
 6726TIP3    H141737   2.360   6.831   1.954  0.0798  0.9251  0.3413
 6726TIP3    H241738   2.353   6.767   2.091 -0.0965 -1.0670 -0.5541
 6727TIP3   OH241739   4.685   2.474   0.869  0.0735 -0.0211 -0.0153
 6727TIP3    H141740   4.648   2.392   0.903  0.6816  0.5230  2.1203
 6727TIP3    H241741   4.611   2.534   0.867  0.1180  0.0841  0.9237
 6728TIP3   OH241742   3.115   5.531   0.696  0.5946 -0.0872 -0.6840
 6728TIP3    H141743   3.119   5.532   0.792 -0.6036 -1.6069 -0.5879
 6728TIP3    H241744   3.028   5.563   0.675  1.3248  1.5944 -1.3695
 6729TIP3   OH241745   3.675   6.139   2.323 -0.5767 -0.2897  0.2662
 6729TIP3    H141746   3.714   6.075   2.263 -1.2754 -0.8010  0.3531
 6729TIP3    H241747   3.737   6.212   2.322  0.7705 -1.3760  0.9508
 6730TIP3   OH241748   3.274   5.257   1.001 -0.1583  0.1161  0.2242
 6730TIP3    H141749   3.320   5.340   1.007 -1.0577  0.6690 -0.2220
 6730TIP3    H241750   3.185   5.281   0.975 -0.0238 -1.0865 -1.5486
 6731TIP3   OH241751   5.868   2.983   3.114 -0.3068  0.0807  0.0086
 6731TIP3    H141752   5.950   3.026   3.091 -0.4966  0.7705  0.5767
 6731TIP3    H241753   5.832   3.037   3.184 -0.1639 -1.4637  1.3233
 6732TIP3   OH241754   2.888   5.837   2.690 -0.0764 -0.1481 -0.2869
 6732TIP3    H141755   2.840   5.913   2.722 -0.6216 -0.8931  0.7482
 6732TIP3    H241756   2.825   5.764   2.698  0.5860 -0.7976 -0.8007
 6733TIP3   OH241757   3.566   0.996   2.599  0.6015 -0.3141  0.3449
 6733TIP3    H141758   3.611   0.998   2.683  0.9938  0.8258  0.1257
 6733TIP3    H241759   3.633   1.019   2.535 -0.0204  0.2239 -0.1274
 6734TIP3   OH241760   4.484   6.109   1.259  0.0052  0.2584 -0.0304
 6734TIP3    H141761   4.432   6.157   1.195 -0.7724  0.8526  0.9980
 6734TIP3    H241762   4.539   6.050   1.208 -2.3474 -1.0914 -1.1315
 6735TIP3   OH241763   5.591   1.500   1.581  0.2866  0.1076 -0.4360
 6735TIP3    H141764   5.503   1.523   1.609 -0.7212 -2.5092 -1.1235
 6735TIP3    H241765   5.636   1.584   1.569 -1.5063  1.4771  1.6839
 6736TIP3   OH241766   1.965   1.247   1.163 -0.0622  0.6042 -0.4137
 6736TIP3    H141767   1.897   1.221   1.225 -1.3050  0.8930 -1.6128
 6736TIP3    H241768   1.930   1.221   1.077  1.0262  1.4135 -1.1201
 6737TIP3   OH241769   1.578   1.862   2.194 -0.0096 -0.1006 -0.1549
 6737TIP3    H141770   1.669   1.884   2.175  0.0433 -0.4460 -0.3157
 6737TIP3    H241771   1.527   1.909   2.127  0.1691 -1.2253 -1.1124
 6738TIP3   OH241772   3.299   6.073   8.060  0.1620  0.4962  0.0927
 6738TIP3    H141773   3.260   6.107   7.979  0.0074  0.9770  0.3717
 6738TIP3    H241774   3.244   5.999   8.084  0.5173  0.0153 -0.5305
 6739TIP3   OH241775   3.350   6.951   0.689 -0.6397 -0.7451 -0.2353
 6739TIP3    H141776   3.299   6.938   0.769 -0.0470 -1.1597  0.0818
 6739TIP3    H241777   3.374   7.043   0.691 -1.1582 -0.6068 -0.2569
 6740TIP3   OH241778   7.001   2.616   0.446 -0.0614  0.4340  0.0197
 6740TIP3    H141779   7.044   2.661   0.518  0.5137  0.5678 -0.3945
 6740TIP3    H241780   6.928   2.672   0.421 -0.4206  0.2579  0.6619
 6741TIP3   OH241781   5.308   1.989   7.470  0.5247  0.7019 -0.8966
 6741TIP3    H141782   5.260   2.064   7.506  0.6802  0.9525 -1.2062
 6741TIP3    H241783   5.266   1.913   7.509  0.1820  0.9409 -0.7943
 6742TIP3   OH241784   0.993   1.241   8.146 -0.2613  0.0793  0.0119
 6742TIP3    H141785   1.016   1.295   8.221  1.7876 -1.1885  0.3736
 6742TIP3    H241786   0.907   1.203   8.168  0.3827 -0.4189  1.8109
 6743TIP3   OH241787   0.041   3.907   0.300 -0.1061  0.5612  0.1686
 6743TIP3    H141788   0.054   3.822   0.342  2.3013  0.5172 -0.5168
 6743TIP3    H241789  -0.051   3.928   0.317  0.1035 -0.5194  3.3965
 6744TIP3   OH241790   5.201   3.725   0.393 -0.2037  0.0056 -0.5770
 6744TIP3    H141791   5.278   3.712   0.448 -1.2510 -0.3224  0.8625
 6744TIP3    H241792   5.142   3.779   0.446 -0.5655  1.1278 -2.0565
 6745TIP3   OH241793   0.435   6.042   2.258  0.6466  0.3922  0.0620
 6745TIP3    H141794   0.501   6.102   2.224  0.1494 -0.0280 -1.7538
 6745TIP3    H241795   0.351   6.084   2.238  0.3244 -0.1636  0.2055
 6746TIP3   OH241796   0.247   5.757   0.495 -0.2633 -0.1914  0.5771
 6746TIP3    H141797   0.206   5.680   0.454  1.2460 -0.9081  0.3560
 6746TIP3    H241798   0.290   5.803   0.423 -0.1252  0.1938  0.8994
 6747TIP3   OH241799   2.522   5.681   0.654 -0.1878 -0.1758 -0.0677
 6747TIP3    H141800   2.581   5.623   0.702 -0.0200 -2.1114 -2.4071
 6747TIP3    H241801   2.561   5.688   0.567 -1.3534  1.7760 -0.4805
 6748TIP3   OH241802   0.091   0.686   0.885 -0.1413 -0.2742  0.4733
 6748TIP3    H141803   0.181   0.653   0.880 -0.7215 -2.1033  1.0810
 6748TIP3    H241804   0.074   0.724   0.799  0.4513 -2.0753 -0.4983
 6749TIP3   OH241805   4.812   1.319   0.572 -0.1869 -0.2353 -0.6195
 6749TIP3    H141806   4.902   1.351   0.570 -0.0761 -0.3889  0.8333
 6749TIP3    H241807   4.759   1.396   0.552  0.1676  0.4604  0.9340
 6750TIP3   OH241808   2.543   6.429   2.117  0.6588 -0.4741 -0.3833
 6750TIP3    H141809   2.571   6.340   2.098  1.3250 -0.3486 -0.0332
 6750TIP3    H241810   2.453   6.434   2.085 -0.3054 -2.0318  1.8325
 6751TIP3   OH241811   3.429   0.324   1.540 -0.0051 -0.1828  0.2800
 6751TIP3    H141812   3.521   0.349   1.534  0.0596 -0.2752  0.8986
 6751TIP3    H241813   3.418   0.256   1.473  0.1589  0.4562 -0.4103
 6752TIP3   OH241814   5.689   2.476   2.422  0.0381 -0.3454 -0.5745
 6752TIP3    H141815   5.637   2.556   2.426  1.2462  0.4417 -0.1257
 6752TIP3    H241816   5.744   2.478   2.500 -0.4688 -2.0397 -0.1108
 6753TIP3   OH241817   4.773   0.736   1.386  0.4315  0.2646  0.4480
 6753TIP3    H141818   4.691   0.782   1.368 -0.0686 -0.5408  0.6185
 6753TIP3    H241819   4.840   0.804   1.381 -0.2480  0.9437  0.3463
 6754TIP3   OH241820   2.673   5.550   8.260  0.1867 -0.1419 -0.8353
 6754TIP3    H141821   2.672   5.645   8.266  0.5665 -0.1397 -0.7391
 6754TIP3    H241822   2.708   5.521   8.345 -0.1136 -0.3744 -0.7897
 6755TIP3   OH241823   3.858   6.637   2.409  0.1985  0.3263  0.7202
 6755TIP3    H141824   3.775   6.657   2.367  0.0517 -2.7745 -0.7117
 6755TIP3    H241825   3.845   6.550   2.447  1.8561  1.0576  3.2044
 6756TIP3   OH241826   6.920   5.705   1.919 -0.4834  0.1875  0.0912
 6756TIP3    H141827   6.911   5.643   1.992 -1.9555  0.7713  0.4384
 6756TIP3    H241828   6.867   5.780   1.945 -1.5241  0.1667 -1.8437
 6757TIP3   OH241829   5.145   6.690   7.427 -0.5815 -0.4909 -0.4576
 6757TIP3    H141830   5.171   6.719   7.339 -0.5848  0.9458 -0.0090
 6757TIP3    H241831   5.049   6.688   7.424 -0.5913 -0.1734 -0.4149
 6758TIP3   OH241832   4.924   3.865   7.891  0.0535  0.0157  0.0258
 6758TIP3    H141833   4.942   3.795   7.953 -2.7475  1.4136  2.6989
 6758TIP3    H241834   4.840   3.842   7.852  0.8784  0.1060 -1.8961
 6759TIP3   OH241835   1.730   3.428   7.360  0.3228  0.1391  0.4842
 6759TIP3    H141836   1.802   3.426   7.298  0.4094 -0.6169  0.5951
 6759TIP3    H241837   1.669   3.360   7.329 -0.5697  1.0838  0.1235
 6760TIP3   OH241838   5.100   2.445   0.991 -0.7762  0.5444 -0.2385
 6760TIP3    H141839   5.031   2.457   1.056 -1.5552 -0.4899 -0.8413
 6760TIP3    H241840   5.135   2.358   1.008  0.6063  1.1538  0.2326
 6761TIP3   OH241841   0.644   2.034   1.756  0.2547  0.0890 -0.4341
 6761TIP3    H141842   0.562   2.019   1.803 -0.1691  0.3620 -1.0711
 6761TIP3    H241843   0.618   2.049   1.665  0.9853  0.4843 -0.5917
 6762TIP3   OH241844   4.458   5.583   8.158  0.5572  0.4003 -0.0791
 6762TIP3    H141845   4.415   5.648   8.102  1.7265 -0.3574 -1.9824
 6762TIP3    H241846   4.550   5.585   8.130  0.8266 -1.2778  0.5737
 6763TIP3   OH241847   3.957   3.348   0.952  0.3452  0.1700 -0.2164
 6763TIP3    H141848   3.929   3.354   1.043  2.0011 -0.5051  0.3837
 6763TIP3    H241849   4.022   3.418   0.943  1.7112 -1.0596 -0.2461
 6764TIP3   OH241850   5.020   2.050   2.667  0.3252 -0.2496  0.1900
 6764TIP3    H141851   4.975   1.968   2.688  0.7056  0.0207  2.2810
 6764TIP3    H241852   5.091   2.025   2.607 -0.0094 -1.3185  0.2271
 6765TIP3   OH241853   6.543   6.901   7.895  0.0589 -0.2036  0.0514
 6765TIP3    H141854   6.513   6.992   7.893 -0.6935 -0.4310  0.5121
 6765TIP3    H241855   6.497   6.860   7.822  1.7287  0.1598 -1.2665
 6766TIP3   OH241856   5.792   1.926   1.724  0.9215 -0.0551 -0.1837
 6766TIP3    H141857   5.803   1.951   1.633  1.9266  1.2052  0.2554
 6766TIP3    H241858   5.713   1.972   1.752  1.0318  0.1484 -0.2111
 6767TIP3   OH241859   6.837   1.905   0.409 -0.0501 -0.4077  0.0052
 6767TIP3    H141860   6.854   1.970   0.341 -0.4876 -1.4610 -1.1465
 6767TIP3    H241861   6.757   1.862   0.381 -0.0728 -1.0716  1.0447
 6768TIP3   OH241862   2.043   4.617   2.230  0.1434 -0.1182  0.0320
 6768TIP3    H141863   2.044   4.530   2.189 -3.4509  0.1136 -0.8437
 6768TIP3    H241864   2.047   4.678   2.156  2.8469  0.5971  0.6513
 6769TIP3   OH241865   0.806   1.071   0.007  1.0225  0.4810  0.7892
 6769TIP3    H141866   0.776   1.134   0.074  1.3142  0.1943  1.1928
 6769TIP3    H241867   0.869   1.015   0.053  0.1614 -0.6339  0.6472
 6770TIP3   OH241868   5.104   1.916   3.309  0.1809  0.2318 -0.1544
 6770TIP3    H141869   5.115   2.011   3.303  2.4029  0.0510  0.2662
 6770TIP3    H241870   5.012   1.902   3.289  0.0659  2.3685 -1.5149
 6771TIP3   OH241871   3.347   5.826   7.794  0.1152 -0.3270  0.4029
 6771TIP3    H141872   3.338   5.876   7.714  1.9791  0.2289  0.4843
 6771TIP3    H241873   3.328   5.736   7.769 -1.7533  0.1633 -0.0829
 6772TIP3   OH241874   0.397   1.418   2.250 -0.5689 -0.2786 -0.1863
 6772TIP3    H141875   0.314   1.464   2.261  0.0839  1.3077 -1.4268
 6772TIP3    H241876   0.438   1.461   2.175  1.8139 -0.3504  0.9990
 6773TIP3   OH241877   6.318   2.192   2.099  0.2286  0.0382 -0.2832
 6773TIP3    H141878   6.377   2.267   2.101  0.2683  0.0484 -1.1665
 6773TIP3    H241879   6.258   2.206   2.172  1.7950 -0.3909  1.1327
 6774TIP3   OH241880   5.018   1.507   0.488 -0.0094 -0.2439  0.5282
 6774TIP3    H141881   5.106   1.514   0.453 -0.5987 -0.9369 -1.2293
 6774TIP3    H241882   5.009   1.582   0.547  0.9753  1.1694 -1.0432
 6775TIP3   OH241883   0.947   0.786   8.189  0.0561  0.6959  0.5602
 6775TIP3    H141884   0.923   0.858   8.131  0.0824  1.1784  1.1355
 6775TIP3    H241885   0.991   0.828   8.263  0.8015  0.0076  0.5189
 6776TIP3   OH241886   2.201   6.356   0.456  0.3617 -0.2650  0.4615
 6776TIP3    H141887   2.267   6.425   0.454 -0.6535  0.7369 -1.1310
 6776TIP3    H241888   2.148   6.372   0.378 -1.5180 -1.2724  1.4760
 6777TIP3   OH241889   1.388   6.967   0.025  0.7407  0.3599  0.0301
 6777TIP3    H141890   1.393   6.909   0.100  2.2050 -0.3489 -0.5776
 6777TIP3    H241891   1.432   7.047   0.053  2.7139 -0.4616 -0.5023
 6778TIP3   OH241892   4.715   0.811   2.450  0.0824  0.5530 -0.2582
 6778TIP3    H141893   4.641   0.759   2.481 -0.1122  1.3710  0.6931
 6778TIP3    H241894   4.785   0.792   2.513  0.4933  0.2745 -0.7902
 6779TIP3   OH241895   3.317   4.297   0.215 -0.2114  1.1464 -0.0338
 6779TIP3    H141896   3.341   4.214   0.174 -0.5313  0.7731  0.5116
 6779TIP3    H241897   3.396   4.351   0.210 -0.3841  1.2907 -1.5598
 6780TIP3   OH241898   3.177   3.848   7.503 -0.1259  0.0535  0.6389
 6780TIP3    H141899   3.253   3.899   7.532 -0.1083  1.0784 -1.0358
 6780TIP3    H241900   3.153   3.888   7.419 -1.8853 -0.9186  0.6397
 6781TIP3   OH241901   5.774   3.452   2.204  0.0316  0.1145 -0.0824
 6781TIP3    H141902   5.725   3.473   2.125 -0.2588 -0.0001  0.0680
 6781TIP3    H241903   5.708   3.437   2.271  0.2376 -0.9178 -0.0976
 6782TIP3   OH241904   4.186   0.463   0.103 -0.2687  0.1758  0.0210
 6782TIP3    H141905   4.275   0.431   0.089 -0.7505 -1.2250  0.0408
 6782TIP3    H241906   4.139   0.389   0.141 -1.6991  0.5775 -0.8745
 6783TIP3   OH241907   4.563   3.516   0.493 -0.3776 -0.1993 -0.1026
 6783TIP3    H141908   4.644   3.498   0.540 -0.0087  1.5034 -0.0059
 6783TIP3    H241909   4.493   3.500   0.557 -0.0742 -0.7979  0.0867
 6784TIP3   OH241910   4.507   5.178   0.342 -0.1672 -0.5625  0.6337
 6784TIP3    H141911   4.497   5.191   0.436 -3.0647 -0.7102  0.4596
 6784TIP3    H241912   4.518   5.084   0.331  0.0713 -0.5559  0.8236
 6785TIP3   OH241913   6.765   6.859   2.933 -0.8056  0.5075 -0.2503
 6785TIP3    H141914   6.842   6.803   2.925 -0.1781  1.0779  1.5212
 6785TIP3    H241915   6.795   6.946   2.908 -1.0481  0.6224 -0.1472
 6786TIP3   OH241916   0.541   2.000   0.055  0.4331  0.1701  0.4901
 6786TIP3    H141917   0.604   1.943   0.100 -1.7801 -3.7606 -0.8352
 6786TIP3    H241918   0.560   1.987  -0.038 -0.9339  0.6405  0.1284
 6787TIP3   OH241919   4.756   6.681   0.489  0.5621 -0.2796  0.1685
 6787TIP3    H141920   4.661   6.682   0.477  0.7316  2.0831 -1.6967
 6787TIP3    H241921   4.773   6.752   0.551  1.1225 -0.8160  0.6441
 6788TIP3   OH241922   1.443   6.005   2.023 -0.4436  0.4337 -0.1857
 6788TIP3    H141923   1.448   6.098   2.002  0.0009 -0.0296 -2.3396
 6788TIP3    H241924   1.518   5.990   2.082 -1.4877  1.6993  1.5814
 6789TIP3   OH241925   2.995   3.550   1.171  0.0472 -0.1393  0.1686
 6789TIP3    H141926   3.087   3.542   1.197  0.5185 -0.4738 -1.4501
 6789TIP3    H241927   2.993   3.624   1.111 -0.3707 -1.2092 -1.1999
 6790TIP3   OH241928   3.098   3.444   0.322 -0.4894  0.2812 -0.5134
 6790TIP3    H141929   3.071   3.375   0.383 -0.0741  1.6355  1.2679
 6790TIP3    H241930   3.019   3.463   0.271 -0.6134 -1.4756 -1.0497
 6791TIP3   OH241931   5.636   2.948   7.158  0.4357  0.4089 -0.0913
 6791TIP3    H141932   5.709   2.965   7.217  2.6843 -1.6851 -2.0819
 6791TIP3    H241933   5.572   2.901   7.213  1.9602 -0.5156  0.9843
 6792TIP3   OH241934   5.124   1.013   8.077 -0.3971 -0.1191  0.4335
 6792TIP3    H141935   5.161   1.041   7.994  2.3107  0.5418  1.7363
 6792TIP3    H241936   5.040   0.973   8.054  0.6564 -0.8309 -2.7006
 6793TIP3   OH241937   2.850   6.443   7.726 -0.2585 -0.3883  0.5729
 6793TIP3    H141938   2.891   6.409   7.805  0.1604  1.1758  1.0547
 6793TIP3    H241939   2.890   6.394   7.654  3.2088  1.6541  0.9231
 6794TIP3   OH241940   3.236   4.921   1.528  0.1004  0.0545  0.1184
 6794TIP3    H141941   3.222   4.974   1.449  0.8628  0.1208  0.0220
 6794TIP3    H241942   3.183   4.843   1.513 -0.1908  0.3103 -0.2176
 6795TIP3   OH241943   5.751   4.027   3.711  0.2074 -0.1933 -0.3885
 6795TIP3    H141944   5.798   3.953   3.672 -2.8813 -1.2100 -2.6313
 6795TIP3    H241945   5.689   3.987   3.772 -0.6671  0.5800 -0.7295
 6796TIP3   OH241946   2.754   3.202   2.480 -0.0414 -0.2293 -0.3110
 6796TIP3    H141947   2.659   3.207   2.490  0.1568  0.7589  1.4328
 6796TIP3    H241948   2.789   3.225   2.566  1.8063  0.4134 -1.1820
 6797TIP3   OH241949   1.608   1.136   0.403  0.0454 -0.0576  0.1098
 6797TIP3    H141950   1.587   1.046   0.375 -0.3404 -0.0167  0.2581
 6797TIP3    H241951   1.697   1.151   0.371 -0.4028  0.0164 -1.1752
 6798TIP3   OH241952   1.951   1.771   1.035 -0.5968  0.0118 -0.2728
 6798TIP3    H141953   1.962   1.756   0.941 -2.1328 -0.6490 -0.3810
 6798TIP3    H241954   1.920   1.687   1.069 -1.5703  0.6854  0.5496
 6799TIP3   OH241955   3.109   3.547   1.976  0.1725  0.4557  0.1184
 6799TIP3    H141956   3.116   3.481   2.046  1.1838  0.7792  0.3364
 6799TIP3    H241957   3.199   3.575   1.961  0.1658 -0.5426 -2.2390
 6800TIP3   OH241958   0.044   4.258   2.224 -0.2003  0.3193 -0.2152
 6800TIP3    H141959   0.137   4.279   2.234 -0.3344  1.0457 -0.4149
 6800TIP3    H241960   0.027   4.192   2.291  0.4122  0.3259 -0.0444
 6801TIP3   OH241961   3.407   4.735   2.234  0.4347  0.7018  0.1147
 6801TIP3    H141962   3.434   4.718   2.325  0.1082  0.5465  0.1847
 6801TIP3    H241963   3.470   4.685   2.181 -0.0297 -0.1050  0.2969
 6802TIP3   OH241964   6.716   6.702   1.341  0.0645  0.2149  0.2489
 6802TIP3    H141965   6.759   6.619   1.363  1.8300  0.6581 -1.3113
 6802TIP3    H241966   6.696   6.694   1.247 -4.0341 -0.2459  0.9644
 6803TIP3   OH241967   1.793   3.452   2.428  0.3292  0.2876 -0.3568
 6803TIP3    H141968   1.812   3.541   2.457  0.5096  0.3235 -0.5771
 6803TIP3    H241969   1.831   3.396   2.496  2.3115  0.3301 -1.3525
 6804TIP3   OH241970   1.350   3.479   1.462 -0.2157  0.0188 -0.4114
 6804TIP3    H141971   1.291   3.448   1.393  1.0313 -0.7221 -1.1789
 6804TIP3    H241972   1.351   3.574   1.452 -0.0428 -0.0815 -1.4294
 6805TIP3   OH241973   6.497   5.345   0.529  0.5756 -0.3367 -0.7406
 6805TIP3    H141974   6.535   5.419   0.575 -0.0442 -1.5974  2.0246
 6805TIP3    H241975   6.402   5.362   0.531  0.5152 -0.6160 -1.1706
 6806TIP3   OH241976   4.142   6.066   0.704  0.2997 -0.2151 -0.4116
 6806TIP3    H141977   4.049   6.046   0.719  0.4206  0.6723  1.8936
 6806TIP3    H241978   4.140   6.139   0.641 -0.4221 -1.7065 -2.2112
 6807TIP3   OH241979   3.094   2.093   3.367  0.0295  0.6808 -0.7818
 6807TIP3    H141980   3.020   2.098   3.428  0.7386  1.4503  0.0528
 6807TIP3    H241981   3.165   2.055   3.419  1.3452  3.4872 -0.3556
 6808TIP3   OH241982   6.534   3.580   7.561 -0.0033  0.8169  0.3828
 6808TIP3    H141983   6.607   3.579   7.500  1.0769 -0.5539  1.6270
 6808TIP3    H241984   6.565   3.633   7.634 -0.6184  1.0086  0.5075
 6809TIP3   OH241985   3.652   6.710   2.648  0.4975 -0.1749  0.1249
 6809TIP3    H141986   3.650   6.664   2.732  1.1910 -0.9198 -0.2613
 6809TIP3    H241987   3.714   6.661   2.595 -1.0209 -0.5906 -1.3545
 6810TIP3   OH241988   3.478   5.086   0.427 -0.1901 -0.0462  0.6339
 6810TIP3    H141989   3.446   4.996   0.434  0.6259 -0.3612  0.3502
 6810TIP3    H241990   3.542   5.095   0.498  0.9484 -0.2106 -0.3606
 6811TIP3   OH241991   5.908   4.738   0.832  0.1991  0.4169  0.3035
 6811TIP3    H141992   5.818   4.765   0.816 -0.4893  0.2926  3.3443
 6811TIP3    H241993   5.959   4.819   0.823 -0.2874  0.6232 -0.7257
 6812TIP3   OH241994   0.299   1.920   2.170  0.4202  0.0301  0.4684
 6812TIP3    H141995   0.291   2.013   2.191 -0.2639 -0.2100  1.3197
 6812TIP3    H241996   0.213   1.897   2.135  0.2319 -0.5238  1.2783
 6813TIP3   OH241997   2.245   3.581   1.986 -0.1876 -0.4783 -0.3057
 6813TIP3    H141998   2.209   3.494   2.000  0.5639 -0.5878  1.0759
 6813TIP3    H241999   2.194   3.637   2.045  1.5504 -0.5681  1.3666
 6814TIP3   OH242000   0.479   5.495   1.006 -0.0172 -0.3198 -0.2183
 6814TIP3    H142001   0.505   5.403   0.998  0.1358 -0.1824 -1.4552
 6814TIP3    H242002   0.384   5.493   1.017 -0.5459 -0.5500 -3.7273
 6815TIP3   OH242003   1.103   3.457   6.879  0.5387 -0.2346  0.1754
 6815TIP3    H142004   1.171   3.437   6.815 -0.1602 -0.0315 -0.6476
 6815TIP3    H242005   1.094   3.552   6.877  1.1548 -0.1412  1.2611
 6816TIP3   OH242006   4.225   6.418   1.921  0.4264  0.6981 -0.0004
 6816TIP3    H142007   4.152   6.375   1.964 -0.3292  1.7681 -0.1884
 6816TIP3    H242008   4.303   6.378   1.960 -0.2413 -0.6524 -0.0089
 6817TIP3   OH242009   6.591   4.674   0.558 -0.0265  0.2582  0.0820
 6817TIP3    H142010   6.656   4.725   0.607 -1.6319  0.4099  2.2104
 6817TIP3    H242011   6.629   4.664   0.471  1.9968  1.9141  0.6871
 6818TIP3   OH242012   6.770   3.786   7.092 -0.5942  0.1577 -0.6696
 6818TIP3    H142013   6.812   3.809   7.175 -1.2446  2.3794 -0.8884
 6818TIP3    H242014   6.731   3.700   7.108 -0.6001  0.4758  1.2890
 6819TIP3   OH242015   1.951   4.366   1.585  0.1147 -0.5506 -0.5317
 6819TIP3    H142016   1.865   4.329   1.565 -0.2020 -1.1638  1.7371
 6819TIP3    H242017   1.938   4.418   1.664  1.5811  0.4496 -0.8973
 6820TIP3   OH242018   5.179   0.445   1.435 -0.7110 -0.5752 -0.3379
 6820TIP3    H142019   5.126   0.416   1.360  0.9824 -2.1032 -1.0485
 6820TIP3    H242020   5.200   0.536   1.416 -1.2364 -0.6136 -1.1603
 6821TIP3   OH242021   3.602   3.619   7.088 -0.2562  0.5890  0.2610
 6821TIP3    H142022   3.524   3.572   7.119  0.0020  0.8985  1.4454
 6821TIP3    H242023   3.568   3.680   7.023 -0.6777 -0.7888 -0.8732
 6822TIP3   OH242024   2.899   5.050   1.819 -0.4498 -0.2184 -0.0975
 6822TIP3    H142025   2.903   5.013   1.908  1.7550 -0.9831 -0.4378
 6822TIP3    H242026   2.828   5.113   1.823 -0.3934 -0.1842  2.2449
 6823TIP3   OH242027   6.045   4.841   3.687  0.1755  0.5270 -0.2162
 6823TIP3    H142028   5.993   4.863   3.764 -0.0522  0.2107 -0.2820
 6823TIP3    H242029   6.101   4.769   3.716  0.3788  0.6798 -0.2275
 6824TIP3   OH242030   6.401   3.718   0.721  0.2247 -0.0513  0.4113
 6824TIP3    H142031   6.446   3.796   0.689  0.1301  0.5783  1.7367
 6824TIP3    H242032   6.434   3.646   0.667  0.6358  0.8433 -0.5396
 6825TIP3   OH242033   1.949   2.963   7.994  0.2496  0.0273  0.1560
 6825TIP3    H142034   1.900   2.898   8.043 -0.5118  1.2783  1.1073
 6825TIP3    H242035   1.945   2.932   7.903 -0.9296 -0.7547  0.4469
 6826TIP3   OH242036   4.976   0.141   2.304  0.1281 -0.1778  0.5327
 6826TIP3    H142037   5.019   0.082   2.242 -0.3361  0.0301  0.0087
 6826TIP3    H242038   4.990   0.228   2.268  0.3227 -0.0074  1.0087
 6827TIP3   OH242039   3.310   6.244   0.342  0.0036  0.4590 -0.0406
 6827TIP3    H142040   3.375   6.299   0.386 -0.8734  1.1326  0.4493
 6827TIP3    H242041   3.324   6.260   0.249  0.1340  1.0687  0.0815
 6828TIP3   OH242042   3.010   0.344   0.524  0.4458  0.2181  0.0657
 6828TIP3    H142043   3.002   0.249   0.524 -1.7109  0.3350  0.4618
 6828TIP3    H242044   3.087   0.363   0.578  0.4422 -1.2720  0.6234
 6829TIP3   OH242045   6.706   5.793   0.771  0.5428  0.0739 -0.0298
 6829TIP3    H142046   6.630   5.782   0.829  0.1949  1.9074 -0.0676
 6829TIP3    H242047   6.679   5.751   0.689 -1.3924  2.5277 -0.7804
 6830TIP3   OH242048   3.333   1.272   1.951 -0.4501 -0.2653 -0.3309
 6830TIP3    H142049   3.371   1.187   1.973 -1.3956 -0.0886  2.3638
 6830TIP3    H242050   3.245   1.251   1.920 -1.4442 -0.2747  2.2505
 6831TIP3   OH242051   3.530   3.376   2.965 -0.5373 -0.4180 -1.0661
 6831TIP3    H142052   3.482   3.313   2.911 -2.9371  0.4308 -0.0666
 6831TIP3    H242053   3.532   3.456   2.912  0.8996 -0.7536 -1.5793
 6832TIP3   OH242054   0.583   0.678   1.787  0.7407  0.2251 -0.6813
 6832TIP3    H142055   0.602   0.732   1.864  1.8530  1.9901 -2.0945
 6832TIP3    H242056   0.505   0.629   1.810  1.7158 -0.2315  2.0036
 6833TIP3   OH242057   1.914   6.742   1.843 -0.5765 -0.4187  0.4476
 6833TIP3    H142058   1.831   6.737   1.890 -0.7997 -2.0552 -0.0468
 6833TIP3    H242059   1.918   6.660   1.793  0.7717  0.1776 -0.4845
 6834TIP3   OH242060   3.003   4.988   7.707  0.1764 -0.4645 -0.2478
 6834TIP3    H142061   3.086   4.953   7.676 -0.1846 -0.7507 -0.9273
 6834TIP3    H242062   3.023   5.078   7.735  0.4347 -0.0097 -1.8066
 6835TIP3   OH242063   3.594   2.437   3.614  0.1130  0.7345 -0.7165
 6835TIP3    H142064   3.499   2.437   3.600  0.0504  0.6162 -0.3189
 6835TIP3    H242065   3.623   2.522   3.581  0.0982  0.1592 -2.2683
 6836TIP3   OH242066   6.577   0.832   7.434  0.0038  0.2104  0.1429
 6836TIP3    H142067   6.533   0.796   7.510  2.0261  1.9967  2.3330
 6836TIP3    H242068   6.544   0.922   7.428  1.3329  0.7227  0.2086
 6837TIP3   OH242069   0.977   3.596   8.102  0.0360 -0.1487  0.2059
 6837TIP3    H142070   1.028   3.607   8.021 -0.7449 -0.3244 -0.3275
 6837TIP3    H242071   0.909   3.663   8.096 -0.7736 -0.9700  0.1147
 6838TIP3   OH242072   4.260   1.264   1.333 -0.9276 -0.6161 -0.0661
 6838TIP3    H142073   4.274   1.352   1.300  0.0894 -0.6263  0.3046
 6838TIP3    H242074   4.290   1.267   1.424  2.1143 -2.0702 -0.8748
 6839TIP3   OH242075   1.504   4.847   7.246  0.4355  0.1191  0.2158
 6839TIP3    H142076   1.473   4.927   7.289 -1.5440  0.0979 -1.0536
 6839TIP3    H242077   1.578   4.876   7.193  1.3869  0.5779  1.7280
 6840TIP3   OH242078   6.810   6.883   2.122  0.4897 -0.0734 -0.7287
 6840TIP3    H142079   6.784   6.887   2.214 -0.4030  0.8273 -1.0061
 6840TIP3    H242080   6.896   6.924   2.119 -0.7947  2.8917 -0.7239
 6841TIP3   OH242081   5.045   5.182   1.857 -0.7063 -0.1619 -0.3044
 6841TIP3    H142082   5.039   5.109   1.918 -0.7959 -0.0997 -0.2389
 6841TIP3    H242083   4.972   5.239   1.880 -1.0484 -0.3908 -0.8113
 6842TIP3   OH242084   2.994   3.107   1.628  0.5222 -0.2406  0.4420
 6842TIP3    H142085   2.958   3.111   1.539  1.9348 -2.2723 -0.2837
 6842TIP3    H242086   2.922   3.137   1.684 -0.1237  1.9342 -1.3990
 6843TIP3   OH242087   4.985   6.861   7.830 -0.2050 -0.0340  0.4014
 6843TIP3    H142088   5.026   6.805   7.765  0.6387 -1.5166  2.1243
 6843TIP3    H242089   5.056   6.885   7.890 -0.8029  1.8856  0.4291
 6844TIP3   OH242090   6.689   6.124   0.451  0.2036  0.4317  0.1823
 6844TIP3    H142091   6.710   6.073   0.529  0.3483 -1.4826 -1.0484
 6844TIP3    H242092   6.774   6.150   0.416  0.2484 -0.7229 -0.5974
 6845TIP3   OH242093   4.636   6.084   0.384  0.2953  0.1832 -0.3149
 6845TIP3    H142094   4.545   6.068   0.360  0.2469 -0.0245  0.0040
 6845TIP3    H242095   4.648   6.037   0.466  0.6664  0.2821 -0.3101
 6846TIP3   OH242096   0.036   5.569   7.766  0.2549  0.6035  0.1612
 6846TIP3    H142097   0.087   5.492   7.792  0.1950  0.8975  1.2064
 6846TIP3    H242098   0.061   5.586   7.676 -0.0917 -0.9386 -0.2539
 6847TIP3   OH242099   6.627   4.297   1.633 -0.4131 -0.2348 -0.0349
 6847TIP3    H142100   6.572   4.371   1.605 -1.3039 -0.9049 -0.1164
 6847TIP3    H242101   6.575   4.219   1.611 -0.2179 -0.8456  1.5404
 6848TIP3   OH242102   1.235   4.021   2.037 -0.2843 -0.2832  0.4428
 6848TIP3    H142103   1.270   4.012   1.949  0.2228 -0.7027  0.6824
 6848TIP3    H242104   1.294   4.083   2.080 -0.2848 -0.3949  0.6075
 6849TIP3   OH242105   3.889   0.081   1.297  0.0416  0.2821  0.4542
 6849TIP3    H142106   3.856   0.135   1.226  1.3028  0.4035 -0.0563
 6849TIP3    H242107   3.967   0.038   1.261 -2.4165 -4.2273 -0.1982
 6850TIP3   OH242108   6.039   0.526   0.288  0.0639 -0.1577  0.2960
 6850TIP3    H142109   5.971   0.539   0.355 -0.0251 -0.5680  0.2936
 6850TIP3    H242110   6.022   0.437   0.255  0.7995 -0.3885  0.5220
 6851TIP3   OH242111   6.936   6.621   1.695 -0.0370 -0.3564  0.2033
 6851TIP3    H142112   6.987   6.617   1.614  0.4013 -0.0396  0.4651
 6851TIP3    H242113   6.912   6.713   1.705 -1.1019 -0.5687 -0.1818
 6852TIP3   OH242114   2.604   6.000   1.032 -0.8078  0.6526 -0.0359
 6852TIP3    H142115   2.537   5.956   0.979 -0.8743 -0.2696  0.7813
 6852TIP3    H242116   2.686   5.974   0.991 -0.8951  0.6997 -0.2448
 6853TIP3   OH242117   3.971   6.978   0.864 -0.2072 -0.8330  0.3226
 6853TIP3    H142118   3.964   6.941   0.776 -0.1211  0.5847 -0.3046
 6853TIP3    H242119   3.925   7.062   0.858 -0.0186 -0.6310  1.5805
 6854TIP3   OH242120   1.721   4.105   7.637 -0.2326 -0.2286 -0.1743
 6854TIP3    H142121   1.629   4.106   7.662 -1.0174 -2.9972 -2.4012
 6854TIP3    H242122   1.754   4.022   7.671 -0.1514 -1.9135 -3.8721
 6855TIP3   OH242123   2.431   0.418   1.693  0.1809  0.1345  0.3670
 6855TIP3    H142124   2.410   0.444   1.604  1.9749 -0.0513 -0.1476
 6855TIP3    H242125   2.446   0.500   1.740  1.1323  0.2075 -0.0294
 6856TIP3   OH242126   1.953   7.006   8.137  0.3552 -0.9180  0.8238
 6856TIP3    H142127   1.946   7.017   8.231  0.9489 -1.9229  0.9983
 6856TIP3    H242128   1.902   6.928   8.118 -1.1627  0.2099  0.0636
 6857TIP3   OH242129   4.214   1.677   7.793  0.5105  0.3879  0.2715
 6857TIP3    H142130   4.156   1.603   7.773  0.4208  0.8801 -1.4675
 6857TIP3    H242131   4.297   1.637   7.819  0.3202 -0.3236 -0.2006
 6858TIP3   OH242132   3.407   1.859   0.346  0.1227 -0.1924 -0.6691
 6858TIP3    H142133   3.442   1.929   0.401 -0.4274  0.4326 -1.0970
 6858TIP3    H242134   3.435   1.882   0.257 -0.3634 -0.3151 -0.8573
 6859TIP3   OH242135   4.458   0.633   0.395 -0.6075 -0.4019  0.7774
 6859TIP3    H142136   4.504   0.576   0.333 -2.3637 -1.9104  0.7718
 6859TIP3    H242137   4.516   0.709   0.405  0.4874 -0.8407 -1.4580
 6860TIP3   OH242138   3.945   6.531   0.726 -0.6878 -0.3198 -0.7825
 6860TIP3    H142139   3.869   6.515   0.782  0.0038  0.3596  0.4015
 6860TIP3    H242140   3.958   6.626   0.730 -1.7998  0.0495 -3.7372
 6861TIP3   OH242141   4.671   5.315   2.911  0.3843 -0.0496  0.0532
 6861TIP3    H142142   4.698   5.384   2.972 -1.0041 -0.0930  0.7478
 6861TIP3    H242143   4.689   5.351   2.825  0.3334  0.8895  0.4259
 6862TIP3   OH242144   3.099   7.015   2.836  0.2935 -0.0103 -0.3760
 6862TIP3    H142145   3.087   6.971   2.920 -0.2239 -0.9835 -0.9377
 6862TIP3    H242146   3.031   6.978   2.780 -0.2854  1.6709 -0.8303
 6863TIP3   OH242147   0.337   0.639   2.013  0.6127 -0.2916 -0.1878
 6863TIP3    H142148   0.275   0.662   1.944  1.7248  0.1981 -1.0627
 6863TIP3    H242149   0.306   0.555   2.047  0.1196 -0.6141 -1.3970
 6864TIP3   OH242150   2.724   3.504   7.590  0.0504  0.1264 -0.3785
 6864TIP3    H142151   2.807   3.531   7.551 -0.8502  2.9017 -0.6242
 6864TIP3    H242152   2.687   3.442   7.527  1.2073  0.1041 -1.0572
 6865TIP3   OH242153   4.750   6.262   6.981  0.4891 -0.2087 -0.2879
 6865TIP3    H142154   4.811   6.258   6.907 -0.5795 -0.3522 -1.1801
 6865TIP3    H242155   4.805   6.243   7.058  1.5428 -0.4438 -1.0716
 6866TIP3   OH242156   3.277   2.397   2.333  0.0468 -0.2094  0.4134
 6866TIP3    H142157   3.192   2.399   2.289  0.1016  0.5579  0.3351
 6866TIP3    H242158   3.340   2.413   2.263  0.3612 -1.9711  0.2494
 6867TIP3   OH242159   2.535   1.025   0.563 -0.0289 -0.3559  0.2923
 6867TIP3    H142160   2.616   0.979   0.584  1.0563  1.8682  1.3722
 6867TIP3    H242161   2.550   1.062   0.476  0.3442  0.4867  0.7077
 6868TIP3   OH242162   2.218   2.234   1.528 -0.0162 -0.1342  0.3626
 6868TIP3    H142163   2.177   2.275   1.604  0.9312  2.9707 -0.6529
 6868TIP3    H242164   2.305   2.208   1.559  0.8527  2.2715  0.1327
 6869TIP3   OH242165   6.704   1.165   0.593  0.0933  0.0680  0.2911
 6869TIP3    H142166   6.663   1.079   0.601 -1.3382  0.7574  0.9581
 6869TIP3    H242167   6.788   1.149   0.552 -0.2103 -1.6274  0.2734
 6870TIP3   OH242168   2.795   5.032   0.851 -0.4065 -0.5470  0.6108
 6870TIP3    H142169   2.804   4.946   0.894  3.1481 -0.3469  0.5634
 6870TIP3    H242170   2.822   5.095   0.918 -1.4184  0.4322  0.1312
 6871TIP3   OH242171   5.007   0.771   1.133  0.8260 -0.6708 -0.2933
 6871TIP3    H142172   5.057   0.767   1.052 -0.2479 -1.0753 -0.9542
 6871TIP3    H242173   5.049   0.841   1.183  0.1508  1.1712 -2.1426
 6872TIP3   OH242174   1.820   4.852   1.168 -0.0473  0.7000 -0.9672
 6872TIP3    H142175   1.877   4.795   1.116 -0.6094 -0.2764 -0.5325
 6872TIP3    H242176   1.756   4.886   1.105 -0.0860  0.3533 -1.1188
 6873TIP3   OH242177   5.697   4.979   3.824 -0.0194  0.4561  0.3912
 6873TIP3    H142178   5.639   4.926   3.769  1.2961 -0.0244 -0.5932
 6873TIP3    H242179   5.672   5.070   3.805  0.1937  0.2821 -0.7893
 6874TIP3   OH242180   2.926   4.545   0.698  0.0270  0.1000  0.6153
 6874TIP3    H142181   2.879   4.466   0.672 -0.0295 -0.5376  2.4698
 6874TIP3    H242182   2.859   4.612   0.707 -0.3423 -0.3803  1.6602
 6875TIP3   OH242183   3.116   2.530   0.804 -0.3245 -0.6281 -0.3547
 6875TIP3    H142184   3.102   2.599   0.739  1.0018  2.8654  2.6934
 6875TIP3    H242185   3.030   2.491   0.816 -0.7153 -1.1646 -3.7394
 6876TIP3   OH242186   0.140   0.757   2.711 -0.0568 -0.1652 -0.0546
 6876TIP3    H142187   0.165   0.848   2.695 -0.0422 -0.1860 -0.1559
 6876TIP3    H242188   0.096   0.758   2.796 -1.1040  0.1378 -0.5859
 6877TIP3   OH242189   2.880   1.230   1.326  0.4286  0.0776  0.3991
 6877TIP3    H142190   2.804   1.181   1.294  0.2559  0.5019  0.1657
 6877TIP3    H242191   2.928   1.166   1.379  0.1467 -0.3169  0.1823
 6878TIP3   OH242192   4.879   0.472   0.085  0.2588  0.2269  0.4688
 6878TIP3    H142193   4.932   0.408   0.132 -2.0069 -0.8740  1.6888
 6878TIP3    H242194   4.803   0.422   0.054 -0.6299  1.9398 -0.2632
 6879TIP3   OH242195   5.895   1.394   7.920 -0.1090  0.0273 -0.4493
 6879TIP3    H142196   5.810   1.437   7.929  1.1455  2.2706  1.6351
 6879TIP3    H242197   5.934   1.434   7.842 -0.2306  0.3085 -0.3669
 6880TIP3   OH242198   0.554   1.540   2.041  0.9025 -0.2608 -0.5005
 6880TIP3    H142199   0.561   1.604   1.971  0.5397  0.0204 -0.2836
 6880TIP3    H242200   0.643   1.532   2.075  0.8407  0.6170 -0.1019
 6881TIP3   OH242201   2.400   2.639   1.143 -0.0155  0.4339  0.7104
 6881TIP3    H142202   2.305   2.645   1.146 -0.7951 -4.0950 -3.0850
 6881TIP3    H242203   2.426   2.610   1.230 -2.1486  1.2173  1.6577
 6882TIP3   OH242204   4.560   5.760   2.436  0.1165 -0.1085  0.1732
 6882TIP3    H142205   4.474   5.798   2.418  0.2551 -0.3730 -1.1283
 6882TIP3    H242206   4.547   5.709   2.516 -0.4103  1.5130  1.1749
 6883TIP3   OH242207   3.609   2.873   0.039 -0.2128  0.0442  0.2323
 6883TIP3    H142208   3.668   2.877  -0.036  1.2464 -0.2380  1.3080
 6883TIP3    H242209   3.600   2.964   0.068 -0.4648  0.1083 -0.0401
 6884TIP3   OH242210   5.229   5.029   1.059 -0.6233 -0.2914  0.4936
 6884TIP3    H142211   5.203   5.009   0.969 -0.0328 -0.2584  0.3121
 6884TIP3    H242212   5.289   4.958   1.082 -1.4221 -0.7690  1.1638
 6885TIP3   OH242213   6.887   0.816   3.106 -0.2597  0.8355  0.2392
 6885TIP3    H142214   6.978   0.785   3.103 -0.1335  1.2531 -1.7894
 6885TIP3    H242215   6.836   0.742   3.073 -0.6167  0.7663  0.9372
 6886TIP3   OH242216   4.311   4.722   1.865 -0.3870  0.1733 -0.4037
 6886TIP3    H142217   4.301   4.795   1.804 -1.4609  0.6457  0.3121
 6886TIP3    H242218   4.353   4.760   1.942 -0.8451  0.0265 -0.0740
 6887TIP3   OH242219   0.832   2.526   0.330 -0.8380  0.0342 -0.7497
 6887TIP3    H142220   0.895   2.486   0.389 -0.2514  2.1398  0.1412
 6887TIP3    H242221   0.747   2.489   0.357 -0.4183 -0.0413  0.5343
 6888TIP3   OH242222   2.970   3.954   0.489 -0.1703  0.0792 -0.9727
 6888TIP3    H142223   2.981   3.884   0.424  1.1618  0.4606 -1.1737
 6888TIP3    H242224   2.880   3.942   0.520  0.1032 -1.9307 -0.7769
 6889TIP3   OH242225   5.412   3.822   1.241  0.1803 -0.3195 -0.1017
 6889TIP3    H142226   5.447   3.830   1.152  0.7604 -3.1613 -0.2224
 6889TIP3    H242227   5.398   3.728   1.253 -2.3284  0.1998  1.9269
 6890TIP3   OH242228   1.119   0.831   0.367 -0.1618  0.6720  0.0038
 6890TIP3    H142229   1.187   0.775   0.404 -2.1165 -1.4683  0.5838
 6890TIP3    H242230   1.039   0.807   0.414 -1.8763  1.0794 -2.4932
 6891TIP3   OH242231   5.733   5.459   0.850  0.1438 -0.3542  0.2225
 6891TIP3    H142232   5.818   5.448   0.810 -0.2113  0.0981 -0.6808
 6891TIP3    H242233   5.751   5.471   0.943  1.1111  0.4955 -0.0704
 6892TIP3   OH242234   5.546   3.748   2.606  0.0027  0.2180 -0.3188
 6892TIP3    H142235   5.634   3.765   2.571 -0.6693  0.4674 -1.9963
 6892TIP3    H242236   5.500   3.831   2.595 -1.0465 -0.4741 -1.4438
 6893TIP3   OH242237   0.426   4.250   0.342 -0.6751 -0.3742  0.1322
 6893TIP3    H142238   0.355   4.208   0.294 -0.3953  1.4073 -1.9816
 6893TIP3    H242239   0.456   4.320   0.285  1.3384  0.3354  1.9143
 6894TIP3   OH242240   0.940   4.708   3.688 -0.7327  0.1807  0.1865
 6894TIP3    H142241   0.904   4.665   3.610 -1.2540  0.4823  0.2553
 6894TIP3    H242242   0.885   4.676   3.760  0.2288 -0.7063  0.5595
 6895TIP3   OH242243   1.523   5.017   1.347 -0.4385  0.3948  0.2262
 6895TIP3    H142244   1.571   5.052   1.272 -1.2329  0.8521 -0.0861
 6895TIP3    H242245   1.532   5.083   1.415 -1.1642  0.8008 -0.0562
 6896TIP3   OH242246   5.479   0.815   1.305 -0.4913  0.3096 -0.1727
 6896TIP3    H142247   5.512   0.781   1.222  0.6624 -1.1397  0.8375
 6896TIP3    H242248   5.549   0.871   1.338 -1.6639  2.3678 -0.9631
 6897TIP3   OH242249   3.042   5.858   8.263  0.8693 -0.5494  0.0941
 6897TIP3    H142250   3.110   5.859   8.196  0.1625  0.2441 -0.6433
 6897TIP3    H242251   2.960   5.850   8.214  0.3005  0.4559  0.8231
 6898TIP3   OH242252   3.393   0.895   3.583  0.0260  0.1414  0.5502
 6898TIP3    H142253   3.469   0.954   3.576 -0.9594  1.4506  0.3881
 6898TIP3    H242254   3.369   0.876   3.492  1.0337 -1.4914  0.5935
 6899TIP3   OH242255   5.502   3.106   1.218  0.1383 -0.0907  0.6169
 6899TIP3    H142256   5.526   3.193   1.253 -0.7750  0.1381  0.7051
 6899TIP3    H242257   5.531   3.108   1.127  0.3790  0.2073  0.6979
 6900TIP3   OH242258   3.173   6.710   2.626  0.2994  0.2278  0.7170
 6900TIP3    H142259   3.148   6.682   2.714 -0.8966 -1.9361 -0.2590
 6900TIP3    H242260   3.101   6.766   2.597 -0.3703 -0.8176  0.3220
 6901TIP3   OH242261   1.733   2.754   2.339  0.0561 -0.3725  0.2405
 6901TIP3    H142262   1.667   2.684   2.340 -1.6370  1.1194 -1.1038
 6901TIP3    H242263   1.813   2.710   2.310 -0.5145 -2.0627  1.0586
 6902TIP3   OH242264   1.496   5.432   1.042 -0.1709 -0.2487  0.4979
 6902TIP3    H142265   1.525   5.372   0.973 -0.8570 -0.0066 -0.0119
 6902TIP3    H242266   1.577   5.456   1.088  0.1370 -1.3736  0.5660
 6903TIP3   OH242267   2.888   0.690   8.238 -0.4565 -0.0106  0.3172
 6903TIP3    H142268   2.829   0.671   8.165  1.1598  1.4887 -1.4880
 6903TIP3    H242269   2.831   0.695   8.315 -2.8084  2.1057 -1.4230
 6904TIP3   OH242270   3.759   5.489   0.140  0.4666  0.5202  0.0096
 6904TIP3    H142271   3.798   5.404   0.161  0.7290  0.2242 -1.5935
 6904TIP3    H242272   3.671   5.469   0.109  1.0550  0.6419 -1.8824
 6905TIP3   OH242273   0.125   2.931   2.089 -0.1484  0.4873 -0.5265
 6905TIP3    H142274   0.117   3.021   2.119  0.1781  0.4302 -0.2562
 6905TIP3    H242275   0.219   2.913   2.089 -0.2009  0.1936 -0.7155
 6906TIP3   OH242276   0.121   4.569   2.648 -0.4667 -0.0493  0.0503
 6906TIP3    H142277   0.084   4.655   2.629  1.1466  0.4317 -1.0782
 6906TIP3    H242278   0.214   4.578   2.629 -0.0999 -1.7925  0.8267
 6907TIP3   OH242279   4.400   3.483   2.109  0.2019  0.4215  0.0013
 6907TIP3    H142280   4.370   3.552   2.049  1.2672  1.3512  0.5005
 6907TIP3    H242281   4.320   3.437   2.135 -0.2619 -0.1745 -2.3025
 6908TIP3   OH242282   3.928   3.639   3.645  0.1024  0.1644 -0.3202
 6908TIP3    H142283   3.936   3.652   3.550  0.4904  0.8390 -0.1995
 6908TIP3    H242284   4.010   3.672   3.681  0.6822 -1.6633  0.1135
 6909TIP3   OH242285   4.705   0.847   1.966  0.4264  0.1885 -0.3360
 6909TIP3    H142286   4.778   0.892   1.924  0.5662 -0.5120 -0.8839
 6909TIP3    H242287   4.745   0.777   2.017  0.2134  0.6491  0.4720
 6910TIP3   OH242288   5.220   0.977   1.750 -0.7471  0.8411 -0.0967
 6910TIP3    H142289   5.198   1.056   1.700  0.1994  1.6257  0.6674
 6910TIP3    H242290   5.282   1.008   1.817 -0.8205 -0.4469  0.5990
 6911TIP3   OH242291   2.941   1.049   2.087 -0.0039  0.0791  0.3347
 6911TIP3    H142292   2.940   1.145   2.089  1.6907  0.2051 -1.3937
 6911TIP3    H242293   2.989   1.023   2.166  1.8502  0.8375 -0.4780
 6912TIP3   OH242294   6.493   4.850   3.005 -0.5113 -0.0537 -0.1609
 6912TIP3    H142295   6.526   4.810   3.085 -1.7730 -0.2362  0.2976
 6912TIP3    H242296   6.444   4.780   2.961 -0.0711  0.1224 -0.9594
 6913TIP3   OH242297   0.300   3.595   8.158 -0.1926 -0.5693 -0.2650
 6913TIP3    H142298   0.209   3.566   8.166 -1.1601  1.9568 -1.2574
 6913TIP3    H242299   0.318   3.593   8.064  0.3534  0.1394 -0.1837
 6914TIP3   OH242300   4.388   3.329   0.955 -0.2787 -0.0504  0.1122
 6914TIP3    H142301   4.449   3.339   1.029  0.5100  1.1064 -0.6499
 6914TIP3    H242302   4.414   3.247   0.914  0.2406  0.0206  0.2876
 6915TIP3   OH242303   0.795   1.145   7.060 -0.5363  0.3366  0.0844
 6915TIP3    H142304   0.789   1.052   7.040  0.3443  0.5203 -1.1975
 6915TIP3    H242305   0.731   1.160   7.130 -0.4134 -1.2881  0.5639
 6916TIP3   OH242306   4.516   3.886   0.739 -0.4224 -0.0344  0.0286
 6916TIP3    H142307   4.428   3.880   0.703  0.0074 -1.2242 -0.8990
 6916TIP3    H242308   4.554   3.963   0.696 -0.2125 -0.9255 -1.4854
 6917TIP3   OH242309   2.886   6.909   0.043  0.6656  0.2399  0.0889
 6917TIP3    H142310   2.889   6.832   0.099  0.9478 -0.5190 -0.9343
 6917TIP3    H242311   2.801   6.905   0.001  0.2134  1.1328  0.8841
 6918TIP3   OH242312   3.641   2.902   7.962 -0.3285  0.0509  0.1966
 6918TIP3    H142313   3.571   2.910   7.897 -1.6975  1.0550  1.7062
 6918TIP3    H242314   3.714   2.863   7.914 -1.8432 -0.8607 -1.5067
 6919TIP3   OH242315   0.505   0.889   0.479 -0.0040  0.4388  0.7129
 6919TIP3    H142316   0.541   0.906   0.392 -0.7827  0.7275  0.4371
 6919TIP3    H242317   0.581   0.889   0.537  0.4646  0.7498  0.1110
 6920TIP3   OH242318   4.652   2.781   2.190 -0.2312 -0.3170 -0.4377
 6920TIP3    H142319   4.613   2.848   2.133 -0.2816  0.2382  0.2415
 6920TIP3    H242320   4.597   2.704   2.177  0.5446 -0.6410 -2.1740
 6921TIP3   OH242321   4.995   3.360   2.704 -0.0735  0.0655 -0.0505
 6921TIP3    H142322   5.023   3.365   2.613 -0.3137  1.4003 -0.0811
 6921TIP3    H242323   4.974   3.268   2.719 -0.7960 -0.0428 -1.5780
 6922TIP3   OH242324   5.980   5.224   8.011  0.0341  0.4433 -0.0699
 6922TIP3    H142325   6.012   5.295   8.066 -0.9954 -0.3969  1.6776
 6922TIP3    H242326   6.027   5.147   8.041 -0.7998 -0.0967 -0.1236
 6923TIP3   OH242327   2.843   6.973   2.110 -0.1134 -0.0306 -0.6524
 6923TIP3    H142328   2.874   6.883   2.119  1.5452  0.7225  2.6788
 6923TIP3    H242329   2.911   7.017   2.060  1.7912  0.3738  2.0387
 6924TIP3   OH242330   6.100   3.107   1.534 -0.2409  0.0347 -0.0864
 6924TIP3    H142331   6.081   3.067   1.619  1.2511  0.6633  0.5665
 6924TIP3    H242332   6.102   3.033   1.473  0.2540 -0.6330  0.7074
 6925TIP3   OH242333   5.632   5.476   1.613  0.0896 -0.2436 -0.3459
 6925TIP3    H142334   5.629   5.409   1.681 -1.3634 -0.1186 -0.2471
 6925TIP3    H242335   5.697   5.539   1.643  2.1869 -2.0279 -0.8800
 6926TIP3   OH242336   3.900   1.466   3.295 -0.6716  0.1344 -0.2564
 6926TIP3    H142337   3.852   1.540   3.333  1.8921  1.0584  1.3903
 6926TIP3    H242338   3.874   1.391   3.348 -1.2526  0.3621 -0.2073
 6927TIP3   OH242339   5.923   1.355   7.492  0.2403 -0.5586 -0.3176
 6927TIP3    H142340   5.995   1.353   7.555  0.2172 -1.2173 -0.3095
 6927TIP3    H242341   5.964   1.330   7.409  0.0665 -0.7028 -0.3588
 6928TIP3   OH242342   5.545   2.674   0.883 -0.2775  0.4711 -0.5331
 6928TIP3    H142343   5.548   2.770   0.884  1.6265  0.4712  0.8998
 6928TIP3    H242344   5.452   2.653   0.896 -0.6265  2.1372 -0.0014
 6929TIP3   OH242345   1.848   0.300   0.261  0.1744  0.7794  0.7814
 6929TIP3    H142346   1.850   0.390   0.294  0.6874  1.1261 -0.1508
 6929TIP3    H242347   1.881   0.247   0.333 -1.7846  1.1088  1.9693
 6930TIP3   OH242348   6.276   0.740   0.772 -0.4322 -0.0256  0.2322
 6930TIP3    H142349   6.213   0.683   0.729 -0.2163  0.1012 -0.2675
 6930TIP3    H242350   6.293   0.699   0.856 -0.5944 -0.4729  0.0492
 6931TIP3   OH242351   3.730   4.500   0.416 -0.1492 -0.5604  0.3934
 6931TIP3    H142352   3.793   4.509   0.487  2.5865 -0.2414 -1.8770
 6931TIP3    H242353   3.738   4.582   0.367 -0.2135 -1.6537 -1.5450
 6932TIP3   OH242354   4.382   4.601   2.646  0.0708 -0.2007  0.3401
 6932TIP3    H142355   4.406   4.667   2.581  0.1957 -1.6753 -1.1756
 6932TIP3    H242356   4.444   4.615   2.718  0.1024  1.2956  0.0501
 6933TIP3   OH242357   3.661   2.518   2.768 -0.3148 -0.4559  0.3166
 6933TIP3    H142358   3.744   2.566   2.759 -1.0500  1.2429  1.9908
 6933TIP3    H242359   3.685   2.439   2.817  0.2817  0.1864  1.0983
 6934TIP3   OH242360   5.663   5.922   7.042 -0.2724 -0.2734  0.4572
 6934TIP3    H142361   5.680   5.839   6.997 -0.1918  0.1237 -0.2555
 6934TIP3    H242362   5.724   5.984   7.003 -1.0722  0.3811  0.2073
 6935TIP3   OH242363   3.479   2.101   3.294  0.1928 -0.5450 -0.3234
 6935TIP3    H142364   3.558   2.134   3.252  0.6988 -0.7526  0.4338
 6935TIP3    H242365   3.408   2.126   3.235  0.9878 -2.1488 -2.0553
 6936TIP3   OH242366   0.140   2.734   0.628  0.5390 -0.1064  0.3024
 6936TIP3    H142367   0.100   2.818   0.650 -0.1649 -0.0758 -1.0165
 6936TIP3    H242368   0.152   2.691   0.713  1.2427  1.4524  1.0294
 6937TIP3   OH242369   0.474   2.616   6.834 -0.2605  0.5716  0.2557
 6937TIP3    H142370   0.450   2.687   6.894 -0.8080  1.6562 -1.1769
 6937TIP3    H242371   0.390   2.578   6.808  0.0650 -2.5574  3.1111
 6938TIP3   OH242372   5.008   3.462   6.389  0.0711  0.6663 -0.4845
 6938TIP3    H142373   4.956   3.485   6.466 -1.5850 -1.1023 -0.9603
 6938TIP3    H242374   5.098   3.456   6.420 -0.4055  1.1565  1.0348
 6939TIP3   OH242375   5.882   3.300   7.808 -0.0174  0.1715  0.1834
 6939TIP3    H142376   5.857   3.350   7.886 -1.4148  0.1966 -0.2417
 6939TIP3    H242377   5.864   3.359   7.735 -3.3511 -1.3623 -0.4684
 6940TIP3   OH242378   6.963   4.868   8.097  0.0417 -0.3715  0.3688
 6940TIP3    H142379   6.868   4.862   8.083  0.2605  0.6212 -2.0117
 6940TIP3    H242380   6.981   4.962   8.101  0.8175 -0.5577  1.9944
 6941TIP3   OH242381   1.741   4.907   1.846 -0.7136 -0.4263  0.2247
 6941TIP3    H142382   1.728   4.816   1.873 -1.2449 -0.3804  0.1246
 6941TIP3    H242383   1.736   4.905   1.750  0.9658 -0.5566  0.0984
 6942TIP3   OH242384   6.097   5.479   7.476  0.5872  0.0022  0.8636
 6942TIP3    H142385   6.011   5.441   7.487 -0.1019  1.3654  0.4355
 6942TIP3    H242386   6.122   5.510   7.563 -1.0123  2.9019  0.4063
 6943TIP3   OH242387   4.002   1.572   2.280 -0.3058  0.3531  0.1083
 6943TIP3    H142388   3.959   1.506   2.225 -0.1814 -0.4874  0.9783
 6943TIP3    H242389   3.975   1.656   2.243 -1.5621 -0.1729 -0.2205
 6944TIP3   OH242390   0.660   1.139   0.950  0.1522  0.4020 -0.8197
 6944TIP3    H142391   0.705   1.056   0.967 -0.5733  0.3379  1.0137
 6944TIP3    H242392   0.614   1.158   1.032 -1.0095  1.7955 -1.7545
 6945TIP3   OH242393   3.394   4.789   1.754  0.1319  0.8162 -0.0053
 6945TIP3    H142394   3.343   4.820   1.679  0.2739  0.4195 -0.2739
 6945TIP3    H242395   3.329   4.761   1.818  0.0037  1.8609  0.3254
 6946TIP3   OH242396   6.338   2.226   1.324  0.2636  0.3914 -0.7011
 6946TIP3    H142397   6.358   2.247   1.233  2.5397 -0.6983 -0.5319
 6946TIP3    H242398   6.424   2.214   1.365 -0.7188 -1.4100  1.0091
 6947TIP3   OH242399   5.106   6.490   1.877  0.3047 -0.4356  0.1740
 6947TIP3    H142400   5.077   6.581   1.876  0.8007 -0.2230 -2.3060
 6947TIP3    H242401   5.200   6.494   1.856  0.2812 -1.5238 -0.2205
 6948TIP3   OH242402   0.195   2.105   1.887  0.5247 -0.3626  0.6187
 6948TIP3    H142403   0.166   2.194   1.906  1.8653  0.7091 -1.8472
 6948TIP3    H242404   0.116   2.057   1.864 -0.1444  0.3079  1.4736
 6949TIP3   OH242405   0.331   3.771   7.494  0.4478  0.0056  0.1909
 6949TIP3    H142406   0.313   3.686   7.533 -1.0521  0.5711  0.8121
 6949TIP3    H242407   0.393   3.753   7.423  0.2584 -1.5679  0.3985
 6950TIP3   OH242408   0.368   0.946   1.784  0.9482 -0.1171 -0.2274
 6950TIP3    H142409   0.358   1.004   1.859  1.0071 -0.8892  0.3862
 6950TIP3    H242410   0.299   0.881   1.795 -0.4340  0.9518 -1.9866
 6951TIP3   OH242411   2.051   2.012   2.531  0.1924 -0.1839 -0.9912
 6951TIP3    H142412   2.133   2.061   2.524 -0.5258  1.3278  0.3652
 6951TIP3    H242413   2.022   2.029   2.621 -2.8650  1.4790 -2.1596
 6952TIP3   OH242414   6.722   5.365   0.346  0.3898 -0.1608 -0.4102
 6952TIP3    H142415   6.810   5.338   0.372 -0.1371 -0.4656  1.1553
 6952TIP3    H242416   6.668   5.353   0.424 -1.2889 -0.9784 -1.6206
 6953TIP3   OH242417   1.765   3.003   2.262  0.6172  0.6085  0.2704
 6953TIP3    H142418   1.796   2.967   2.180  0.4991  0.2191  0.3933
 6953TIP3    H242419   1.751   2.927   2.319 -1.2515  0.6730 -0.0194
 6954TIP3   OH242420   0.876   6.368   0.518 -0.8329 -0.0358  0.3241
 6954TIP3    H142421   0.797   6.367   0.571 -1.5231  2.1394 -0.5758
 6954TIP3    H242422   0.907   6.458   0.520  1.1461 -0.6294 -0.0853
 6955TIP3   OH242423   2.444   2.092   2.245 -0.7145 -0.1184  0.0909
 6955TIP3    H142424   2.537   2.078   2.263 -0.8157 -1.4491 -0.3510
 6955TIP3    H242425   2.401   2.071   2.327 -0.5531  1.7584  0.6990
 6956TIP3   OH242426   5.156   1.598   1.741  0.0859 -0.0754  0.0098
 6956TIP3    H142427   5.100   1.615   1.817 -0.1999 -1.2581  0.0769
 6956TIP3    H242428   5.101   1.621   1.666 -0.2875 -0.6726  0.0973
 6957TIP3   OH242429   5.847   0.512   0.479 -0.2531 -0.0706  0.0439
 6957TIP3    H142430   5.802   0.436   0.442  0.1024  0.3632 -1.3384
 6957TIP3    H242431   5.785   0.584   0.466 -0.5592 -0.0926  1.2833
 6958TIP3   OH242432   5.944   0.286   0.223 -0.2177 -0.1762 -0.1383
 6958TIP3    H142433   5.913   0.220   0.285 -1.6618 -0.7882 -1.4229
 6958TIP3    H242434   5.864   0.317   0.180  0.6771  0.6033 -1.2983
 6959TIP3   OH242435   2.794   2.682   3.115  0.3315 -0.4952  0.5967
 6959TIP3    H142436   2.862   2.720   3.171  0.9184  0.4871 -0.7539
 6959TIP3    H242437   2.761   2.755   3.064 -0.7059 -1.2498  0.1642
 6960TIP3   OH242438   6.651   3.063   1.812 -0.4475 -0.4752  0.4986
 6960TIP3    H142439   6.583   2.997   1.801 -0.2651 -0.5293 -0.2930
 6960TIP3    H242440   6.604   3.147   1.808 -0.5308 -0.5242  0.4678
 6961TIP3   OH242441   3.017   1.716   2.691  0.0462 -0.1167  0.1740
 6961TIP3    H142442   2.932   1.760   2.691 -0.0710 -0.2115 -2.5675
 6961TIP3    H242443   3.039   1.705   2.599  2.7465 -0.7104  0.8010
 6962TIP3   OH242444   6.066   6.795   0.008 -0.3640  0.4938 -0.1982
 6962TIP3    H142445   6.038   6.708  -0.021 -2.1445  0.6223  0.9492
 6962TIP3    H242446   6.137   6.778   0.070 -0.3025 -0.1035 -0.4255
 6963TIP3   OH242447   3.545   6.816   3.389  0.5306  0.2412 -0.0386
 6963TIP3    H142448   3.603   6.855   3.454 -1.0953 -0.7463  2.1157
 6963TIP3    H242449   3.593   6.740   3.356  0.9846  0.1711  0.7672
 6964TIP3   OH242450   6.832   6.998   2.601 -0.3771  0.0703  0.5369
 6964TIP3    H142451   6.915   6.951   2.603 -0.6136 -0.3455  0.9290
 6964TIP3    H242452   6.821   7.032   2.690 -0.9610 -0.4848  0.6849
 6965TIP3   OH242453   0.797   0.232   2.767  0.6446 -0.1007 -0.2151
 6965TIP3    H142454   0.760   0.272   2.846  1.4792 -3.8739  2.3733
 6965TIP3    H242455   0.889   0.259   2.768  0.5208  0.3194 -0.2074
 6966TIP3   OH242456   6.646   3.766   7.785 -1.0604 -0.0832 -0.2760
 6966TIP3    H142457   6.635   3.761   7.880 -1.5773 -1.2440 -0.3764
 6966TIP3    H242458   6.741   3.768   7.772 -0.9619  2.5080  0.3188
 6967TIP3   OH242459   3.526   3.043   0.389  0.9388 -0.1491 -0.1186
 6967TIP3    H142460   3.504   3.075   0.477 -0.2650 -1.7668  0.2184
 6967TIP3    H242461   3.508   3.117   0.332 -0.2819  0.2830  0.7802
 6968TIP3   OH242462   0.545   6.900   7.827 -0.6906  0.3994 -0.6271
 6968TIP3    H142463   0.601   6.823   7.819 -1.4729 -0.2449 -0.0233
 6968TIP3    H242464   0.506   6.910   7.739  0.3313  0.8453 -1.0449
 6969TIP3   OH242465   4.079   1.222   0.728  0.0551 -0.2987  0.1812
 6969TIP3    H142466   4.046   1.134   0.713  1.3857 -0.5792 -1.4124
 6969TIP3    H242467   4.007   1.280   0.701 -0.4931 -0.8931  0.3553
 6970TIP3   OH242468   2.296   0.138   1.186  0.0589  0.5611  0.3768
 6970TIP3    H142469   2.239   0.175   1.118  0.8076  0.3365 -0.4019
 6970TIP3    H242470   2.253   0.057   1.212 -0.2180  0.6307  0.1389
 6971TIP3   OH242471   1.134   2.155   1.123 -0.5349  0.3481 -0.1794
 6971TIP3    H142472   1.182   2.136   1.204 -0.2724  0.0650 -0.4014
 6971TIP3    H242473   1.161   2.086   1.062 -0.1264  1.0041 -0.7585
 6972TIP3   OH242474   6.961   2.779   2.707  0.1722  0.4981  0.5393
 6972TIP3    H142475   6.878   2.801   2.749  0.5352  1.1627  0.9362
 6972TIP3    H242476   6.993   2.703   2.755  0.2162  0.7853  0.9745
 6973TIP3   OH242477   3.673   4.173   7.711  0.2051 -0.2634  0.6386
 6973TIP3    H142478   3.652   4.168   7.617  0.7292 -0.0983  0.5070
 6973TIP3    H242479   3.765   4.198   7.713 -0.0547  0.6918  1.2061
 6974TIP3   OH242480   5.013   4.331   3.310 -0.5773 -0.2938  0.2303
 6974TIP3    H142481   5.065   4.250   3.312 -0.6873 -0.4329 -1.5895
 6974TIP3    H242482   5.012   4.358   3.219 -1.3209  1.2895  0.6622
 6975TIP3   OH242483   0.817   3.371   8.105  0.0892  0.3615 -0.4077
 6975TIP3    H142484   0.852   3.459   8.117  0.1052  0.4384 -0.9936
 6975TIP3    H242485   0.737   3.384   8.054 -0.1005  0.0697 -0.1885
 6976TIP3   OH242486   4.404   5.210   1.994  0.1210 -0.6153  0.7160
 6976TIP3    H142487   4.474   5.188   1.932 -1.6266 -2.0874 -0.8680
 6976TIP3    H242488   4.326   5.221   1.939 -1.3031 -0.9307  2.5693
 6977TIP3   OH242489   0.577   5.023   7.831  0.0542  0.5840  0.2051
 6977TIP3    H142490   0.652   4.963   7.829  0.7868  1.4883 -1.5674
 6977TIP3    H242491   0.501   4.965   7.833  0.7520 -0.3592  1.2942
 6978TIP3   OH242492   6.607   3.325   0.128 -0.1697 -0.0406 -0.1418
 6978TIP3    H142493   6.653   3.334   0.211  0.9871 -1.9263 -0.5218
 6978TIP3    H242494   6.539   3.392   0.131 -0.9565 -0.8372  2.8453
 6979TIP3   OH242495   0.923   5.503   3.043  0.0364  0.5024 -0.4132
 6979TIP3    H142496   0.997   5.516   3.102  0.6363 -0.9349 -0.8227
 6979TIP3    H242497   0.882   5.590   3.037  3.3438  2.1189 -2.3827
 6980TIP3   OH242498   6.078   2.746   0.196  0.6397  0.0530  0.1054
 6980TIP3    H142499   6.032   2.799   0.131 -0.3021 -0.4571  0.3343
 6980TIP3    H242500   6.022   2.668   0.207  1.4068 -0.4351  0.6215
 6981TIP3   OH242501   2.254   2.968   2.508 -0.4321 -0.3625  0.0131
 6981TIP3    H142502   2.296   2.906   2.568 -3.8190 -4.1911 -1.1385
 6981TIP3    H242503   2.212   3.032   2.566 -0.9299 -2.0673  1.6398
 6982TIP3   OH242504   0.262   5.435   1.207  0.1223  0.1199 -0.0192
 6982TIP3    H142505   0.258   5.514   1.260 -0.2242  0.7164 -0.9171
 6982TIP3    H242506   0.186   5.384   1.234  0.4971 -0.0534  0.7590
 6983TIP3   OH242507   1.912   0.344   1.032  0.2086 -0.0990 -0.1124
 6983TIP3    H142508   1.833   0.303   1.068 -0.3842  2.0061  1.1372
 6983TIP3    H242509   1.905   0.436   1.058  2.5802  0.3467 -0.8575
 6984TIP3   OH242510   2.801   2.260   7.732  0.3193  0.2632 -0.0433
 6984TIP3    H142511   2.831   2.174   7.704  0.0946 -0.3694  1.5668
 6984TIP3    H242512   2.744   2.243   7.807  2.0356  1.9167  1.7457
 6985TIP3   OH242513   4.279   2.825   0.333 -0.0570 -0.0256 -0.0402
 6985TIP3    H142514   4.298   2.916   0.312 -1.7735  0.4426  0.2177
 6985TIP3    H242515   4.209   2.830   0.399 -0.8550 -1.5276 -0.7228
 6986TIP3   OH242516   6.548   1.671   0.041 -0.2464 -0.4120  0.4491
 6986TIP3    H142517   6.474   1.645   0.096 -0.3768 -1.7439 -0.3300
 6986TIP3    H242518   6.533   1.628  -0.042 -0.4378  2.1592 -0.9501
 6987TIP3   OH242519   0.550   6.435   2.044 -0.6348  0.3365  0.1226
 6987TIP3    H142520   0.598   6.424   1.962  1.9178  0.9994  1.4355
 6987TIP3    H242521   0.460   6.452   2.017 -0.1470 -0.7310 -2.4856
 6988TIP3   OH242522   2.468   1.298   3.050 -0.0210  0.6485  0.1821
 6988TIP3    H142523   2.496   1.336   3.133  1.7791 -0.2679  0.0437
 6988TIP3    H242524   2.545   1.253   3.017 -1.7018 -2.1961 -0.2030
 6989TIP3   OH242525   2.681   4.612   7.968  0.2892 -0.3169  0.0440
 6989TIP3    H142526   2.768   4.610   8.008 -0.4595  2.8462  2.2071
 6989TIP3    H242527   2.622   4.580   8.036 -0.4951  0.0146 -0.4637
 6990TIP3   OH242528   7.036   1.063   2.748 -0.4311  0.0056 -0.3624
 6990TIP3    H142529   7.126   1.033   2.761 -0.8430 -0.5737  1.5154
 6990TIP3    H242530   6.985   1.012   2.812 -1.8079  1.5929 -0.1393
 6991TIP3   OH242531   4.470   6.961   3.439 -0.5400 -0.2151 -0.3689
 6991TIP3    H142532   4.385   6.978   3.397  0.0302 -1.8820 -2.3814
 6991TIP3    H242533   4.488   6.869   3.419  2.7467  0.6211 -2.0273
 6992TIP3   OH242534   5.752   6.791   0.083  0.7466  0.7551  0.5226
 6992TIP3    H142535   5.770   6.880   0.051 -0.1989  0.1503 -1.8890
 6992TIP3    H242536   5.839   6.752   0.093  1.1379  1.5284  0.2734
 6993TIP3   OH242537   6.931   5.852   0.418 -0.1281  0.5802 -0.2728
 6993TIP3    H142538   6.946   5.918   0.485 -2.7970  0.2653  0.7515
 6993TIP3    H242539   6.887   5.899   0.347  1.6430  0.6641 -1.3959
 6994TIP3   OH242540   4.323   3.977   2.343  0.4701  0.0146 -0.1505
 6994TIP3    H142541   4.352   3.977   2.251  0.7385  0.3328 -0.0669
 6994TIP3    H242542   4.324   4.070   2.368  1.3093 -0.1465  0.4617
 6995TIP3   OH242543   0.238   6.761   0.086 -0.1696 -0.1606 -0.5292
 6995TIP3    H142544   0.306   6.753   0.019 -0.0935 -0.1110 -0.4588
 6995TIP3    H242545   0.249   6.685   0.142 -0.2607 -0.2243 -0.5985
 6996TIP3   OH242546   6.553   1.401   0.563  0.3278 -0.2741 -0.0917
 6996TIP3    H142547   6.558   1.433   0.654 -0.0367  2.0668 -0.8218
 6996TIP3    H242548   6.609   1.324   0.562  0.5607 -0.2155  2.0615
 6997TIP3   OH242549   1.241   6.317   0.844 -0.1203  0.0808 -0.0777
 6997TIP3    H142550   1.157   6.272   0.842  0.0172 -0.2015  0.2866
 6997TIP3    H242551   1.226   6.399   0.798 -0.6087  0.0586  0.0365
 6998TIP3   OH242552   2.444   4.883   3.291 -0.3119  0.3239 -0.1386
 6998TIP3    H142553   2.350   4.891   3.312 -0.2816  0.4147 -0.0374
 6998TIP3    H242554   2.465   4.964   3.245 -0.4552 -0.0169 -0.8202
 6999TIP3   OH242555   6.335   4.142   7.991 -0.0420  0.2842  0.0187
 6999TIP3    H142556   6.408   4.122   7.932  0.1473  0.9315  0.0227
 6999TIP3    H242557   6.306   4.229   7.964  0.7713  1.0852  1.5867
 7000TIP3   OH242558   1.755   1.943   1.134 -0.4396 -0.6814  0.8670
 7000TIP3    H142559   1.824   1.916   1.074  1.2636 -0.6285  2.6751
 7000TIP3    H242560   1.787   1.917   1.221 -1.4127  1.7647  2.0835
 7001TIP3   OH242561   4.947   4.982   0.652  0.8158 -0.5735 -0.3910
 7001TIP3    H142562   4.984   5.070   0.664 -0.1156  0.0673 -1.8744
 7001TIP3    H242563   4.852   4.995   0.653  0.6545 -1.6551 -0.0956
 7002TIP3   OH242564   5.889   5.101   1.408  0.1185 -0.0513  0.0699
 7002TIP3    H142565   5.953   5.128   1.342  0.3651  0.6230  0.5721
 7002TIP3    H242566   5.816   5.163   1.397  0.1772  0.0868  0.4574
 7003TIP3   OH242567   3.461   3.201   0.612 -0.2794  0.2515 -0.1545
 7003TIP3    H142568   3.515   3.212   0.690  0.5501  1.8933 -0.9102
 7003TIP3    H242569   3.373   3.185   0.645  0.4483 -1.4754  1.1002
 7004TIP3   OH242570   3.403   2.450   1.414  0.3402  0.2612  0.1122
 7004TIP3    H142571   3.441   2.530   1.451 -0.3768  0.3553  0.6720
 7004TIP3    H242572   3.361   2.479   1.332  2.0379  0.0298 -0.8766
 7005TIP3   OH242573   0.838   5.408   2.071  0.0039 -0.0917 -0.0574
 7005TIP3    H142574   0.917   5.428   2.021  1.3576 -0.9545  1.6261
 7005TIP3    H242575   0.840   5.469   2.144 -0.2774 -0.8623  0.6042
 7006TIP3   OH242576   0.666   2.674   0.065  0.3437 -0.0262 -0.2780
 7006TIP3    H142577   0.692   2.710   0.149  2.9081  0.0339 -1.0030
 7006TIP3    H242578   0.656   2.580   0.081  0.2020  0.0721  0.2155
 7007TIP3   OH242579   5.636   3.262   0.864 -0.1089 -0.4370 -0.6771
 7007TIP3    H142580   5.660   3.340   0.913  0.8808 -1.8534  1.2512
 7007TIP3    H242581   5.718   3.233   0.823 -0.0964 -1.3179 -0.0524
 7008TIP3   OH242582   1.080   4.948   2.235 -0.1999 -0.6063  0.2021
 7008TIP3    H142583   1.050   5.039   2.232 -0.4493 -0.6987 -0.4523
 7008TIP3    H242584   1.000   4.896   2.225 -0.1689 -0.9223  1.4675
 7009TIP3   OH242585   6.367   6.123   2.957 -0.9125  0.1692  0.2025
 7009TIP3    H142586   6.300   6.183   2.926 -0.3914  0.8029  0.2891
 7009TIP3    H242587   6.404   6.086   2.877 -0.4129  0.8754  0.1017
 7010TIP3   OH242588   1.244   5.034   1.371  0.1968 -0.1451  0.0253
 7010TIP3    H142589   1.327   4.995   1.344  0.1515  0.1060 -0.4954
 7010TIP3    H242590   1.257   5.057   1.463  0.7528  0.0112 -0.0869
 7011TIP3   OH242591   5.360   5.708   0.440  0.2383  0.2715 -0.2874
 7011TIP3    H142592   5.351   5.704   0.345  1.2938 -0.4141 -0.3651
 7011TIP3    H242593   5.394   5.622   0.465 -3.0786 -0.8082  1.0761
 7012TIP3   OH242594   6.524   1.529   8.041 -0.2950 -0.0073  0.1782
 7012TIP3    H142595   6.603   1.491   8.003 -0.1930 -0.6049  0.9552
 7012TIP3    H242596   6.459   1.523   7.971  0.0172 -0.6375 -0.0696
 7013TIP3   OH242597   2.547   2.364   0.382 -0.2775 -0.2122 -0.2863
 7013TIP3    H142598   2.601   2.307   0.327 -1.3800 -3.8454  2.1162
 7013TIP3    H242599   2.470   2.383   0.328  0.3618 -0.5041 -1.3383
 7014TIP3   OH242600   3.250   4.407   7.605 -0.2101 -0.1131  0.7007
 7014TIP3    H142601   3.236   4.488   7.556  3.5010  1.9672  2.6755
 7014TIP3    H242602   3.196   4.416   7.683 -0.3898  0.0767  0.5574
 7015TIP3   OH242603   0.683   2.346   0.799 -0.0433 -0.0912 -0.2209
 7015TIP3    H142604   0.657   2.419   0.856 -1.1747 -1.1976  0.7371
 7015TIP3    H242605   0.601   2.301   0.778  0.2551  0.4892 -3.1180
 7016TIP3   OH242606   0.186   3.062   0.581 -0.2208 -0.3186 -0.4348
 7016TIP3    H142607   0.195   3.157   0.590  0.2551 -0.5341  2.1169
 7016TIP3    H242608   0.136   3.035   0.658  1.2354 -2.3233 -0.1043
 7017TIP3   OH242609   5.033   1.262   8.134  0.0292 -0.0815 -0.4121
 7017TIP3    H142610   5.056   1.171   8.119 -2.3304 -0.8178  0.0161
 7017TIP3    H242611   4.943   1.270   8.102  0.6377  2.4788 -1.7405
 7018TIP3   OH242612   5.448   5.093   2.843  0.3959  0.5790  0.7629
 7018TIP3    H142613   5.418   5.183   2.853  0.2887  0.5310  0.8894
 7018TIP3    H242614   5.530   5.089   2.891  0.2886  0.5538  0.9457
 7019TIP3   OH242615   6.301   5.236   7.879  0.1348  1.1474 -0.6947
 7019TIP3    H142616   6.329   5.306   7.820  0.8348  1.8055  0.3763
 7019TIP3    H242617   6.367   5.168   7.869  0.7553  1.6407 -0.0193
 7020TIP3   OH242618   1.760   0.946   8.243 -0.5496 -0.2773 -0.1933
 7020TIP3    H142619   1.718   0.865   8.274  1.6751 -1.2998  0.3602
 7020TIP3    H242620   1.761   0.937   8.147  0.4872 -1.3652 -0.0968
 7021TIP3   OH242621   3.530   3.349   7.988  0.1542 -0.8709  0.3382
 7021TIP3    H142622   3.470   3.290   7.942 -0.6349 -0.7306  1.1567
 7021TIP3    H242623   3.604   3.358   7.929 -1.5582  0.6840 -1.7566
 7022TIP3   OH242624   4.034   3.988   2.561 -0.7873  0.3506 -0.0180
 7022TIP3    H142625   3.949   4.024   2.536 -1.0321  0.1933  0.5719
 7022TIP3    H242626   4.016   3.934   2.638 -0.4685 -1.1974 -0.9754
 7023TIP3   OH242627   0.037   1.156   0.770 -0.5473  0.2972  0.6555
 7023TIP3    H142628  -0.035   1.099   0.742 -0.3398  0.5534 -0.4386
 7023TIP3    H242629   0.116   1.113   0.739 -0.2489  0.2817  1.4015
 7024TIP3   OH242630   2.081   3.615   1.748  0.3326  0.4282 -0.3013
 7024TIP3    H142631   2.143   3.650   1.812  0.3449  0.0647 -0.1097
 7024TIP3    H242632   2.085   3.676   1.674  2.8511 -0.9552 -1.4259
 7025TIP3   OH242633   6.948   1.304   2.660 -0.1750  0.2031 -0.5991
 7025TIP3    H142634   6.973   1.286   2.569  0.9651 -0.4078 -0.1868
 7025TIP3    H242635   6.978   1.227   2.708  1.5905  1.6160  0.6929
 7026TIP3   OH242636   1.135   4.119   1.472  0.0069 -0.5390  0.5668
 7026TIP3    H142637   1.167   4.195   1.423 -1.4651 -1.0322 -1.3187
 7026TIP3    H242638   1.075   4.156   1.536  1.4808  0.0778  1.6501
 7027TIP3   OH242639   6.002   0.850   1.342  0.2292 -0.0965  0.0885
 7027TIP3    H142640   5.939   0.806   1.399  0.4099  0.0276  0.3826
 7027TIP3    H242641   5.973   0.940   1.338  0.7429  0.1081  0.7346
 7028TIP3   OH242642   3.662   3.290   2.367  0.2469 -0.2100  0.0277
 7028TIP3    H142643   3.672   3.295   2.462  0.4146  0.1372 -0.0070
 7028TIP3    H242644   3.620   3.205   2.352 -0.3271 -0.0067  0.4539
 7029TIP3   OH242645   3.154   3.540   0.009 -0.2305  0.5311  0.2637
 7029TIP3    H142646   3.169   3.589  -0.071  0.8344  0.3029  0.3132
 7029TIP3    H242647   3.186   3.452  -0.010 -2.8035 -0.4374 -0.0886
 7030TIP3   OH242648   1.028   4.416   7.832  0.0048  0.0979  0.3798
 7030TIP3    H142649   1.112   4.408   7.878  0.2624  1.8215  0.2767
 7030TIP3    H242650   1.027   4.342   7.771  0.6052 -1.0163  1.6423
 7031TIP3   OH242651   3.347   1.385   7.650  0.3008 -0.1581  0.5415
 7031TIP3    H142652   3.357   1.450   7.581  0.7927  0.8432  1.5177
 7031TIP3    H242653   3.268   1.337   7.626 -0.8869  1.7078  0.4784
 7032TIP3   OH242654   3.561   6.267   0.684  0.0797  0.1935 -0.0153
 7032TIP3    H142655   3.563   6.210   0.607 -0.1690  1.1582 -0.7676
 7032TIP3    H242656   3.542   6.209   0.757  0.5082 -0.7774 -0.6606
 7033TIP3   OH242657   1.214   5.084   1.631  0.3365  0.3857 -0.8170
 7033TIP3    H142658   1.146   5.036   1.678  1.9124 -0.7795  0.3668
 7033TIP3    H242659   1.189   5.176   1.641 -0.4389  0.0546  0.6615
 7034TIP3   OH242660   2.104   5.939   8.018 -0.3472  0.2333  0.1301
 7034TIP3    H142661   2.149   5.875   7.963  0.3039  0.7976 -0.0233
 7034TIP3    H242662   2.176   5.990   8.057 -0.8340  2.1552 -1.2952
 7035TIP3   OH242663   0.545   4.385   2.425  0.6282 -0.1589 -0.0035
 7035TIP3    H142664   0.619   4.343   2.469  1.2296 -0.3860 -1.1983
 7035TIP3    H242665   0.493   4.311   2.391  0.3734  0.0218 -0.0103
 7036TIP3   OH242666   2.111   5.248   0.653  0.0568 -0.1830  0.1013
 7036TIP3    H142667   2.020   5.217   0.652 -0.3782  1.0060 -1.5364
 7036TIP3    H242668   2.106   5.338   0.623  1.9609 -0.7149 -2.0969
 7037TIP3   OH242669   5.817   2.000   2.211  0.1207  0.1372  0.1049
 7037TIP3    H142670   5.783   1.917   2.178  0.2472  0.4197 -0.7470
 7037TIP3    H242671   5.741   2.043   2.251 -0.4691  0.5795 -1.4062
 7038TIP3   OH242672   5.380   0.257   2.829  0.1612 -0.1362 -0.2892
 7038TIP3    H142673   5.349   0.347   2.841  2.2645  0.4896  0.9190
 7038TIP3    H242674   5.406   0.253   2.737 -1.8978 -0.2204 -0.9251
 7039TIP3   OH242675   1.438   1.922   1.742  0.1925 -0.0429 -0.7967
 7039TIP3    H142676   1.369   1.898   1.804  2.3983 -3.1315  0.7123
 7039TIP3    H242677   1.477   2.001   1.779  1.5651 -1.9050  2.0231
 7040TIP3   OH242678   3.087   1.348   1.796 -0.1182  0.6643  0.7917
 7040TIP3    H142679   3.047   1.412   1.853 -0.9040 -1.1814  2.4131
 7040TIP3    H242680   3.017   1.286   1.775  0.8731 -0.3394  0.2876
 7041TIP3   OH242681   3.345   4.954   0.173  0.1530 -0.4353 -0.5877
 7041TIP3    H142682   3.388   5.037   0.189  0.2207 -0.2662 -1.5462
 7041TIP3    H242683   3.355   4.904   0.254  0.3273  0.3900 -0.0945
 7042TIP3   OH242684   6.319   4.106   1.137 -0.3677  0.1367  0.1105
 7042TIP3    H142685   6.227   4.081   1.129 -0.9652  1.5268  1.8444
 7042TIP3    H242686   6.352   4.054   1.210 -0.3019  0.9312  0.6577
 7043TIP3   OH242687   4.753   0.036   2.080 -0.1084  0.2454 -0.3562
 7043TIP3    H142688   4.724   0.090   2.153  0.3176  1.2605 -0.9115
 7043TIP3    H242689   4.692   0.056   2.009  0.1340  0.1007 -0.6120
 7044TIP3   OH242690   2.559   5.274   2.228  0.3315  0.0145 -0.2150
 7044TIP3    H142691   2.614   5.196   2.223  0.5060  0.2075 -2.0678
 7044TIP3    H242692   2.487   5.258   2.167 -1.1397  0.2109  1.3879
 7045TIP3   OH242693   6.426   7.019   1.615  0.2093  0.1395 -0.2038
 7045TIP3    H142694   6.372   6.940   1.623  0.1077  0.2836  0.5840
 7045TIP3    H242695   6.515   6.985   1.605  0.0430 -0.0893 -0.9506
 7046TIP3   OH242696   3.316   3.619   2.723 -0.0444  0.2432 -0.3882
 7046TIP3    H142697   3.267   3.669   2.658 -0.4871 -1.7949 -1.7199
 7046TIP3    H242698   3.328   3.533   2.683 -0.0009 -0.9972  2.0963
 7047TIP3   OH242699   0.916   6.792   7.508  0.1767 -0.1112  0.5554
 7047TIP3    H142700   0.909   6.884   7.533  1.5184  0.0460  0.4342
 7047TIP3    H242701   0.825   6.762   7.499 -0.2732  1.1662  0.6830
 7048TIP3   OH242702   1.838   4.891   7.836  0.6646 -0.0926 -0.3175
 7048TIP3    H142703   1.830   4.974   7.884  0.2941  0.5766 -1.4870
 7048TIP3    H242704   1.930   4.866   7.848  0.8794  0.6805 -0.2521
 7049TIP3   OH242705   2.528   1.284   2.186  0.0374  0.6915 -0.2338
 7049TIP3    H142706   2.548   1.378   2.189  0.4967  0.5664  0.8852
 7049TIP3    H242707   2.575   1.247   2.260  0.4793 -0.5515 -1.0962
 7050TIP3   OH242708   4.169   6.357   8.084  0.1708 -0.1010 -0.0950
 7050TIP3    H142709   4.189   6.441   8.041  0.1683 -0.1942 -0.2806
 7050TIP3    H242710   4.255   6.322   8.109  0.0645  0.9091  1.8279
 7051TIP3   OH242711   2.893   4.916   2.791  0.3779 -0.3172 -0.1363
 7051TIP3    H142712   2.975   4.954   2.822  0.3721  0.1287 -0.6703
 7051TIP3    H242713   2.912   4.822   2.784  0.3346 -0.4647  1.3512
 7052TIP3   OH242714   2.826   3.369   1.746  0.6676 -0.2063 -0.2851
 7052TIP3    H142715   2.795   3.413   1.666  1.5158  3.4838  1.1977
 7052TIP3    H242716   2.918   3.394   1.752  0.3407  0.6307  2.4016
 7053TIP3   OH242717   1.971   1.779   0.761  0.2399 -0.9040 -0.1573
 7053TIP3    H142718   1.893   1.728   0.740  0.3504 -1.6969  1.2245
 7053TIP3    H242719   2.003   1.810   0.676 -0.4714 -2.2094 -0.9380
 7054TIP3   OH242720   4.362   2.820   2.361 -0.3195  0.2028 -0.1747
 7054TIP3    H142721   4.269   2.813   2.339 -0.1891  0.3078 -0.7928
 7054TIP3    H242722   4.382   2.914   2.354 -0.2823  0.2406  0.4418
 7055TIP3   OH242723   5.182   5.094   2.444 -0.4544 -0.2329 -0.4960
 7055TIP3    H142724   5.240   5.038   2.393 -0.7846 -0.2692 -0.8319
 7055TIP3    H242725   5.145   5.154   2.379 -2.5925 -1.6905 -0.7034
 7056TIP3   OH242726   0.760   2.237   0.206  0.2277  0.0349  0.2841
 7056TIP3    H142727   0.849   2.206   0.224  0.3131  0.2103  0.1693
 7056TIP3    H242728   0.726   2.263   0.292  1.2511  2.4889  0.0339
 7057LIG     O142729   5.466   3.445   6.136 -0.1559  0.0773 -0.0619
 7057LIG     O242730   5.366   3.254   6.247 -0.2284  0.1630 -0.4966
 7057LIG     O342731   5.546   3.158   6.142  0.3823 -0.2058  0.4519
 7057LIG     O442732   5.160   3.531   6.138 -0.3618 -0.6664 -0.1495
 7057LIG     O542733   5.225   3.415   5.882  1.0860  0.2348 -0.2035
 7057LIG     O642734   5.450   3.172   6.503 -0.3251 -0.5448 -0.1087
 7057LIG     O742735   5.293   2.981   6.359  0.6198 -0.4736 -0.5851
 7057LIG     O842736   5.439   2.810   6.187  0.3043 -0.1150  0.5210
 7057LIG     O942737   5.261   3.418   6.454  0.2769  0.2452  0.1855
 7057LIG    O1042738   5.588   3.321   5.900  0.0361  0.1480 -0.7699
 7057LIG    O1142739   5.482   3.051   5.862  0.3114  0.0856 -0.0721
 7057LIG     C142740   5.356   3.395   6.222  0.4179 -0.0823  0.0685
 7057LIG     C242741   5.231   3.410   6.130  0.3480 -0.4892  0.4758
 7057LIG     C342742   5.306   3.379   5.991 -0.2869  1.2463 -0.1446
 7057LIG     C442743   5.427   3.473   6.000  0.7687  0.6198  0.9412
 7057LIG     C542744   5.503   3.214   6.269  0.3174  0.8972 -0.1500
 7057LIG     C642745   5.507   3.113   6.386 -0.2399  0.2362  0.2908
 7057LIG     C742746   5.434   2.980   6.350  0.3874 -0.3420 -0.8359
 7057LIG     C842747   5.481   2.938   6.214 -0.2424  0.0953 -0.2420
 7057LIG     C942748   5.470   3.042   6.100  0.6419  0.3230 -0.7700
 7057LIG    C1042749   5.343   3.479   6.352 -0.8018 -0.0940  0.0779
 7057LIG    C1142750   5.544   3.453   5.907 -0.1619 -0.2858  0.3996
 7057LIG    C1242751   5.533   2.974   5.968 -0.1829 -0.5334 -0.0361
 7057LIG     H142752   5.157   3.332   6.152 -1.1030  1.2549  2.1988
 7057LIG     H242753   5.344   3.276   5.980  1.0317  1.6000  0.8186
 7057LIG     H342754   5.393   3.577   5.986 -3.0839 -0.4569  1.0228
 7057LIG     H442755   5.563   3.302   6.300  1.0376  0.1015  0.7653
 7057LIG     H542756   5.610   3.079   6.406 -0.4387 -0.2900  0.4444
 7057LIG     H642757   5.483   2.908   6.419 -1.2484 -0.2072  0.5254
 7057LIG     H742758   5.591   2.921   6.224 -0.5518 -0.6701  3.0102
 7057LIG     H842759   5.363   3.067   6.084  0.1169  1.0530  2.9901
 7057LIG     H942760   5.444   3.486   6.398  0.0149  1.3242 -1.7966
 7057LIG    H1042761   5.315   3.582   6.323 -0.3583  0.2045  0.7012
 7057LIG    H1142762   5.516   3.480   5.803 -0.5364 -1.1651  0.2572
 7057LIG    H1242763   5.621   3.530   5.928 -1.1097  1.5538 -2.4176
 7057LIG    H1342764   5.641   2.996   5.986 -0.2294 -0.1199 -0.2376
 7057LIG    H1442765   5.523   2.864   5.955  2.3743 -0.6570 -1.7922
 7057LIG    H1542766   5.103   3.540   6.214 -0.3296  0.2338 -0.2198
 7057LIG    H1642767   5.150   3.461   5.921  1.7929  1.4459 -0.2408
 7057LIG    H1742768   5.528   3.204   6.549 -1.1719 -0.7150  1.5171
 7057LIG    H1842769   5.274   3.057   6.414 -1.1742  0.0503 -1.8386
 7057LIG    H1942770   5.354   2.804   6.230 -0.2510  0.0416 -0.5349
 7057LIG    H2042771   5.321   3.399   6.526  1.0667 -1.5140 -0.8674
 7057LIG    H2142772   5.584   3.294   5.992 -1.6789  0.5538 -0.6914
 7057LIG    H2242773   5.535   3.131   5.855  0.3145 -0.0274 -1.8257
   7.04429   7.04429   8.26732
