Title
42773
    1SAPS     N    1   5.722   0.496   6.474  0.3648 -0.3787  0.5097
    1SAPS   HN1    2   5.712   0.394   6.459  0.0534 -0.4943  1.4080
    1SAPS   HN2    3   5.819   0.533   6.475  0.2114  0.1982 -1.5335
    1SAPS   HN3    4   5.676   0.518   6.565 -1.8791  2.1707 -1.0913
    1SAPS   C12    5   5.641   0.572   6.371 -0.3841  0.3528  0.1732
    1SAPS  H12A    6   5.684   0.556   6.273 -1.9782 -2.6953 -0.1422
    1SAPS   C13    7   5.494   0.523   6.361 -0.2715 -0.3184  0.6060
    1SAPS  O13A    8   5.455   0.419   6.420 -0.6455 -0.8211  0.6056
    1SAPS  O13B    9   5.419   0.569   6.271  0.1922  0.1203 -0.3903
    1SAPS   C11   10   5.648   0.721   6.400  0.5710 -0.8208 -0.2543
    1SAPS  H11A   11   5.592   0.732   6.496  1.5152 -1.2510  0.3648
    1SAPS  H11B   12   5.587   0.775   6.325  1.5740  0.3276 -0.2792
    1SAPS     P   13   5.877   0.825   6.314 -0.1364  0.0974 -0.0492
    1SAPS   O13   14   5.808   0.912   6.219 -0.0183 -0.3920  0.0937
    1SAPS   O14   15   6.004   0.868   6.379 -0.0405 -0.8605  0.5120
    1SAPS   O12   16   5.776   0.780   6.423 -0.2489  0.6386  0.4734
    1SAPS   O11   17   5.901   0.687   6.246  0.2231 -0.1332  0.0715
    1SAPS    C1   18   6.007   0.666   6.159  0.0677  0.5251  0.3680
    1SAPS    HA   19   6.019   0.740   6.077 -1.0960 -1.2630 -1.5041
    1SAPS    HB   20   6.107   0.653   6.207  0.7402 -0.0094 -1.1239
    1SAPS    C2   21   5.980   0.535   6.070  0.3415  0.2321 -0.1031
    1SAPS    HS   22   6.052   0.541   5.986  0.9823  1.4665  0.5078
    1SAPS   O21   23   5.841   0.521   6.026 -0.0948  0.0802  0.2044
    1SAPS   C21   24   5.795   0.591   5.925 -0.6873  0.1873 -0.3910
    1SAPS   O22   25   5.856   0.666   5.854  0.1224  0.5074  0.0102
    1SAPS   C22   26   5.647   0.569   5.913 -0.3685  0.2471 -0.5290
    1SAPS   H2R   27   5.631   0.460   5.898 -0.0428 -0.0346  0.9967
    1SAPS   H2S   28   5.590   0.597   6.004  0.0699 -0.0060 -0.1752
    1SAPS    C3   29   6.026   0.404   6.150 -0.2967  1.4042 -0.2582
    1SAPS    HX   30   5.972   0.395   6.247  0.7943  1.7690  0.4061
    1SAPS    HY   31   6.133   0.418   6.177 -0.2463 -2.2441  2.1752
    1SAPS   O31   32   6.009   0.287   6.064 -0.0117 -0.4881 -0.4077
    1SAPS   C31   33   5.894   0.217   6.077 -0.5374 -1.0004 -0.2346
    1SAPS   O32   34   5.800   0.249   6.144 -0.0285 -0.2472 -0.0619
    1SAPS   C32   35   5.893   0.092   5.980 -0.4971 -0.2537  0.6764
    1SAPS   H2X   36   5.839   0.011   6.033 -1.0746 -0.1546  0.2462
    1SAPS   H2Y   37   6.000   0.062   5.974 -0.4569 -0.0315  0.2181
    1SAPS   C23   38   5.597   0.648   5.797  0.0315  0.0815 -0.4823
    1SAPS   H3R   39   5.649   0.744   5.781  0.4676 -0.2777 -1.3114
    1SAPS   H3S   40   5.489   0.672   5.809  0.5661  2.1809  0.6212
    1SAPS   C24   41   5.604   0.563   5.669 -0.7529 -0.0107  0.0614
    1SAPS   H4R   42   5.538   0.476   5.691 -1.7695  1.4975  3.7882
    1SAPS   H4S   43   5.712   0.540   5.659 -0.5555  0.2117  1.4535
    1SAPS   C25   44   5.555   0.637   5.548 -0.7745 -0.2026  0.5693
    1SAPS   H5R   45   5.510   0.736   5.568  1.2055  1.2495 -1.5594
    1SAPS   C26   46   5.584   0.622   5.412 -0.4060  0.1984 -0.5457
    1SAPS   H6R   47   5.536   0.688   5.339 -1.5624  1.8871  1.6259
    1SAPS   C27   48   5.683   0.524   5.360 -0.2102 -0.3028 -0.3292
    1SAPS   H7R   49   5.649   0.476   5.266 -0.0440  0.4191 -0.7662
    1SAPS   H7S   50   5.690   0.449   5.442 -2.4251  1.5803  1.7134
    1SAPS   C28   51   5.832   0.561   5.335 -0.0595 -0.5788 -0.0609
    1SAPS   H8R   52   5.878   0.631   5.406 -1.5480  1.0806 -0.6645
    1SAPS   C29   53   5.918   0.515   5.241 -0.0823 -0.1511  0.3353
    1SAPS   H9R   54   6.025   0.540   5.247 -0.0211 -0.4886  0.6958
    1SAPS  C210   55   5.878   0.420   5.132  0.1682  0.6296 -0.2224
    1SAPS  H10R   56   5.778   0.439   5.088 -0.1717 -0.2123  0.1659
    1SAPS  H10S   57   5.885   0.319   5.177 -1.6056  0.4958 -0.1693
    1SAPS  C211   58   5.978   0.416   5.025 -0.4030 -1.1668 -0.2355
    1SAPS  H11R   59   6.069   0.358   5.049  0.6524  0.6751  0.4054
    1SAPS  C212   60   5.978   0.488   4.912 -0.9865 -0.2574  0.2262
    1SAPS  H12R   61   6.066   0.495   4.847  1.1068 -2.2170  2.6395
    1SAPS  C213   62   5.874   0.581   4.873 -0.4179  0.5453  0.4249
    1SAPS  H13R   63   5.903   0.655   4.796 -1.0376 -0.6343 -0.9681
    1SAPS  H13S   64   5.834   0.633   4.963  1.1307 -2.3720  2.9898
    1SAPS  C214   65   5.755   0.506   4.816 -0.1054  0.0725 -0.0227
    1SAPS  H14R   66   5.658   0.510   4.869 -0.1368 -1.7543  0.1129
    1SAPS  C215   67   5.748   0.452   4.692  0.8954 -0.7318 -0.0750
    1SAPS  H15R   68   5.655   0.404   4.656 -0.0004  0.2982  0.8184
    1SAPS  C216   69   5.847   0.465   4.578 -0.2397 -0.0883  0.1051
    1SAPS  H16R   70   5.856   0.367   4.526  1.6704 -0.3411  0.8257
    1SAPS  H16S   71   5.944   0.512   4.603 -0.1643 -0.1158 -0.1418
    1SAPS  C217   72   5.774   0.555   4.486 -0.1250 -0.3083 -0.2334
    1SAPS  H17R   73   5.746   0.651   4.533 -0.5466 -2.2788  3.9667
    1SAPS  H17S   74   5.668   0.528   4.468 -0.4975  1.3581 -0.7034
    1SAPS  C218   75   5.836   0.560   4.342  0.0253 -0.1088 -0.1588
    1SAPS  H18R   76   5.834   0.458   4.297  1.1656  0.5670 -1.8622
    1SAPS  H18S   77   5.946   0.573   4.354 -0.1006  0.4193  0.4493
    1SAPS  C219   78   5.778   0.660   4.234  0.5042 -0.7283  0.4824
    1SAPS  H19R   79   5.670   0.640   4.217  0.8707 -0.3325 -3.0339
    1SAPS  H19S   80   5.817   0.630   4.135  0.6727  1.9273 -0.3356
    1SAPS  C220   81   5.794   0.808   4.269 -0.4235 -0.7669  0.5324
    1SAPS  H20R   82   5.782   0.830   4.378  0.6262  0.6201  0.3957
    1SAPS  H20S   83   5.738   0.876   4.201 -0.9618  1.1279  2.7110
    1SAPS  H20T   84   5.900   0.837   4.253 -1.0105  1.1198 -0.1603
    1SAPS   C33   85   5.839   0.127   5.840  0.3523  0.2398 -0.1931
    1SAPS   H3X   86   5.862   0.048   5.766  0.2655  0.3914 -0.3844
    1SAPS   H3Y   87   5.888   0.220   5.801  0.5642  0.6561  1.0336
    1SAPS   C34   88   5.689   0.137   5.834  0.2309 -0.0463  0.8473
    1SAPS   H4X   89   5.658   0.208   5.914  0.2489 -0.9738  1.7016
    1SAPS   H4Y   90   5.655   0.033   5.856  2.3518 -1.0225 -0.2332
    1SAPS   C35   91   5.649   0.193   5.696 -0.3701  0.6500  0.2480
    1SAPS   H5X   92   5.702   0.129   5.622 -2.9857 -1.4212  0.0219
    1SAPS   H5Y   93   5.676   0.300   5.688  1.3887  0.5352  3.1200
    1SAPS   C36   94   5.506   0.161   5.666  0.0931  0.1068  0.2008
    1SAPS   H6X   95   5.432   0.194   5.743 -0.4490  0.2802 -0.3848
    1SAPS   H6Y   96   5.483   0.053   5.664  1.3118 -0.1660  0.3722
    1SAPS   C37   97   5.451   0.214   5.529  0.3297  0.7686  0.0432
    1SAPS   H7X   98   5.454   0.325   5.537  0.3747  0.8164 -0.5470
    1SAPS   H7Y   99   5.343   0.186   5.521  0.6841 -0.1589 -2.5146
    1SAPS   C38  100   5.527   0.160   5.404  0.1681  0.3483  0.1893
    1SAPS   H8X  101   5.529   0.049   5.403  1.0810  0.3614  0.2223
    1SAPS   H8Y  102   5.630   0.198   5.416  1.1549 -2.5868  2.0338
    1SAPS   C39  103   5.456   0.214   5.282  0.3046 -0.1709 -0.6995
    1SAPS   H9X  104   5.466   0.325   5.272  0.2276 -0.2405 -1.6272
    1SAPS   H9Y  105   5.350   0.182   5.283 -0.1568  1.3021 -0.2001
    1SAPS  C310  106   5.525   0.151   5.159  1.4979 -0.3944 -0.1340
    1SAPS  H10X  107   5.551   0.043   5.167 -0.0661 -0.8886 -1.0945
    1SAPS  H10Y  108   5.619   0.204   5.133  0.7773 -0.6295 -3.8296
    1SAPS  C311  109   5.438   0.169   5.028  0.2979 -0.8732 -0.8664
    1SAPS  H11X  110   5.417   0.276   5.011  1.3137 -0.7401 -1.3275
    1SAPS  H11Y  111   5.339   0.118   5.034  0.2311 -1.0310 -2.7448
    1SAPS  C312  112   5.506   0.102   4.905 -0.6925  0.1722  0.8383
    1SAPS  H12X  113   5.495  -0.008   4.911 -1.3628  0.1047 -1.0159
    1SAPS  H12Y  114   5.614   0.127   4.901 -0.4757 -0.8303  0.1168
    1SAPS  C313  115   5.451   0.154   4.777  0.1650 -0.4298  0.2477
    1SAPS  H13X  116   5.467   0.263   4.771  3.4768 -0.8116  0.3468
    1SAPS  H13Y  117   5.344   0.122   4.779 -0.3405  1.0602 -1.1523
    1SAPS  C314  118   5.509   0.083   4.649  1.0804 -0.0944 -0.4685
    1SAPS  H14X  119   5.483  -0.025   4.657  0.6332  0.1042  0.9682
    1SAPS  H14Y  120   5.618   0.102   4.638  0.9226  0.7151 -0.6326
    1SAPS  C315  121   5.441   0.133   4.520 -0.4337  0.1431 -0.5383
    1SAPS  H15X  122   5.454   0.243   4.531  3.0050 -0.3741  2.5434
    1SAPS  H15Y  123   5.334   0.102   4.526 -0.5751  0.8674  1.2124
    1SAPS  C316  124   5.515   0.085   4.391  0.0342 -0.0415 -0.0381
    1SAPS  H16X  125   5.529  -0.024   4.409  3.0101  0.2496 -0.1005
    1SAPS  H16Y  126   5.619   0.121   4.376 -0.6413  1.0508 -2.5223
    1SAPS  C317  127   5.432   0.111   4.263  0.1084 -0.4623  0.5661
    1SAPS  H17X  128   5.444   0.219   4.244  2.4547 -1.1158 -2.4984
    1SAPS  H17Y  129   5.326   0.086   4.284  0.0140 -1.4557 -0.9204
    1SAPS  C318  130   5.471   0.038   4.137 -0.4290  0.4146  0.0320
    1SAPS  H18X  131   5.437   0.081   4.041  0.4704  1.7523  0.2699
    1SAPS  H18Y  132   5.426  -0.063   4.148 -2.6310  1.1652 -1.4261
    1SAPS  H18Z  133   5.582   0.027   4.141 -0.5644 -0.7634  2.2166
    2SAPS     N  134   3.550   1.612   6.528  0.2640  0.1971  0.2456
    2SAPS   HN1  135   3.543   1.569   6.434  1.1703  0.7720 -0.0926
    2SAPS   HN2  136   3.453   1.630   6.560  0.9043  2.5566  1.0908
    2SAPS   HN3  137   3.599   1.701   6.507  0.9999 -0.4942 -1.0922
    2SAPS   C12  138   3.625   1.519   6.613 -0.1166  0.0887  0.3453
    2SAPS  H12A  139   3.667   1.567   6.701 -1.0332 -0.4963  1.1273
    2SAPS   C13  140   3.549   1.391   6.661  0.9822 -0.0474 -0.3229
    2SAPS  O13A  141   3.448   1.350   6.599 -0.1622  0.4741  0.3112
    2SAPS  O13B  142   3.608   1.310   6.735  0.7699  0.1706  0.5138
    2SAPS   C11  143   3.746   1.466   6.536  0.6687  0.1325 -0.1142
    2SAPS  H11A  144   3.726   1.406   6.445  3.2418 -0.4607 -0.3647
    2SAPS  H11B  145   3.807   1.408   6.608 -1.2802 -0.2599  1.3173
    2SAPS     P  146   3.982   1.570   6.473  0.2329 -0.0289 -0.4261
    2SAPS   O13  147   4.037   1.671   6.571  0.9296 -0.4145  0.3854
    2SAPS   O14  148   4.014   1.425   6.488 -0.1998  0.2965 -0.5725
    2SAPS   O12  149   3.820   1.574   6.491 -0.2642 -0.0110 -0.0271
    2SAPS   O11  150   4.019   1.621   6.324 -0.3755 -0.0904 -0.7757
    2SAPS    C1  151   3.923   1.692   6.246 -0.2073 -0.1535 -0.7606
    2SAPS    HA  152   3.838   1.734   6.305 -0.2370 -1.0371 -0.1433
    2SAPS    HB  153   3.976   1.776   6.197  1.4812 -1.0040 -0.4570
    2SAPS    C2  154   3.853   1.603   6.131  0.2105  0.3579  0.3120
    2SAPS    HS  155   3.801   1.513   6.169 -3.0125  2.5275  1.4281
    2SAPS   O21  156   3.966   1.571   6.050  0.1527 -0.7280  0.5153
    2SAPS   C21  157   3.959   1.453   5.982  0.1543 -0.3751 -0.3529
    2SAPS   O22  158   3.857   1.385   5.988  0.0234 -0.1133  1.1836
    2SAPS   C22  159   4.064   1.443   5.876  0.6968  0.3330  0.3429
    2SAPS   H2R  160   4.076   1.538   5.820 -0.5826  1.8262  2.4370
    2SAPS   H2S  161   4.161   1.420   5.926 -0.6115 -0.2744  2.7640
    2SAPS    C3  162   3.744   1.687   6.056  0.4446  0.0247  0.2107
    2SAPS    HX  163   3.776   1.792   6.037 -1.5631  1.0612  2.1000
    2SAPS    HY  164   3.657   1.697   6.124  0.3361 -1.1085  0.2519
    2SAPS   O31  165   3.705   1.631   5.926  0.0837  0.2896 -0.3299
    2SAPS   C31  166   3.601   1.556   5.920 -0.0651 -0.2863  0.0314
    2SAPS   O32  167   3.530   1.516   6.012 -0.0319  0.2521  0.2004
    2SAPS   C32  168   3.568   1.514   5.772 -0.5721 -0.1213  0.1590
    2SAPS   H2X  169   3.645   1.436   5.756 -0.7140 -0.2752  0.2170
    2SAPS   H2Y  170   3.572   1.601   5.704  0.6514 -0.3644 -0.1097
    2SAPS   C23  171   4.042   1.339   5.768 -1.0505  0.8329  0.5133
    2SAPS   H3R  172   4.005   1.248   5.821 -2.6686  0.4613 -1.1467
    2SAPS   H3S  173   4.138   1.301   5.728 -2.1184 -0.4874 -0.9435
    2SAPS   C24  174   3.948   1.377   5.647 -0.5137 -0.4077 -0.5029
    2SAPS   H4R  175   4.021   1.429   5.581 -1.3008 -0.2754 -1.2870
    2SAPS   H4S  176   3.877   1.453   5.684 -2.1431 -2.0759 -0.0595
    2SAPS   C25  177   3.886   1.257   5.578  0.0268  0.8517 -0.2128
    2SAPS   H5R  178   3.844   1.184   5.648 -1.5515 -0.1150 -2.0939
    2SAPS   C26  179   3.892   1.218   5.445 -0.2030  0.0536  0.0415
    2SAPS   H6R  180   3.855   1.118   5.419  1.7388 -1.1897  1.7882
    2SAPS   C27  181   3.963   1.294   5.335 -0.4643  0.5901  0.3260
    2SAPS   H7R  182   3.993   1.397   5.363 -4.6677  1.9343  0.6338
    2SAPS   H7S  183   3.895   1.311   5.249 -0.8489  1.0211  0.7076
    2SAPS   C28  184   4.068   1.200   5.279  0.2203 -0.3292  0.8328
    2SAPS   H8R  185   4.128   1.161   5.362  0.9216 -3.3621 -0.9271
    2SAPS   C29  186   4.084   1.154   5.151  0.8832 -0.0025 -0.7411
    2SAPS   H9R  187   4.167   1.081   5.150  0.4802 -0.5936  1.8492
    2SAPS  C210  188   4.023   1.188   5.018  0.9098  0.4024 -0.0568
    2SAPS  H10R  189   3.931   1.248   5.037  0.5026 -1.0573  3.2869
    2SAPS  H10S  190   3.982   1.096   4.970  2.8127 -0.9858  0.8599
    2SAPS  C211  191   4.102   1.258   4.908 -0.2284  0.4816 -0.5401
    2SAPS  H11R  192   4.133   1.360   4.932 -0.8045  0.3662  0.7788
    2SAPS  C212  193   4.133   1.200   4.786 -0.0046  0.2734  0.4506
    2SAPS  H12R  194   4.195   1.259   4.716 -1.2944  1.7846  0.5302
    2SAPS  C213  195   4.093   1.059   4.750 -0.8697  0.5566  0.1536
    2SAPS  H13R  196   3.983   1.048   4.747 -0.6395 -2.7624 -1.2050
    2SAPS  H13S  197   4.132   0.996   4.833  1.1638  1.9910  0.3658
    2SAPS  C214  198   4.150   0.997   4.621  0.3604 -0.8493  0.0993
    2SAPS  H14R  199   4.230   0.923   4.632  1.8081  0.2256 -2.4511
    2SAPS  C215  200   4.104   1.024   4.495 -0.1161  0.2306 -0.2030
    2SAPS  H15R  201   4.158   0.971   4.414  0.0586  0.5409 -0.2917
    2SAPS  C216  202   4.008   1.134   4.461 -0.0843 -1.4331 -0.6927
    2SAPS  H16R  203   3.988   1.203   4.546  2.5788  1.4570 -2.2259
    2SAPS  H16S  204   3.915   1.096   4.415 -0.2844 -0.9547 -0.6809
    2SAPS  C217  205   4.076   1.223   4.351  0.9110 -0.1354  0.6562
    2SAPS  H17R  206   3.995   1.273   4.294  0.1242 -1.8594  0.1877
    2SAPS  H17S  207   4.127   1.172   4.266 -1.3091 -2.9180  0.8324
    2SAPS  C218  208   4.162   1.337   4.402  0.8343  0.3218  0.2992
    2SAPS  H18R  209   4.242   1.289   4.463  0.2597 -0.0062  0.8074
    2SAPS  H18S  210   4.123   1.413   4.474  0.3161  0.8638 -0.5315
    2SAPS  C219  211   4.215   1.418   4.286  0.1384 -0.3014  0.3245
    2SAPS  H19R  212   4.134   1.483   4.248  0.4199  0.2179  0.6014
    2SAPS  H19S  213   4.235   1.351   4.200  0.6869  0.4009 -0.1092
    2SAPS  C220  214   4.337   1.498   4.319  0.8377 -0.6885 -0.0462
    2SAPS  H20R  215   4.411   1.430   4.366 -0.3330 -2.6372 -0.9249
    2SAPS  H20S  216   4.307   1.574   4.394  2.4492 -1.5047  1.5104
    2SAPS  H20T  217   4.371   1.554   4.229 -4.5587  2.1952 -0.7058
    2SAPS   C33  218   3.433   1.448   5.761 -0.8763 -0.2027 -0.1936
    2SAPS   H3X  219   3.343   1.510   5.785 -0.0190  0.6749  0.8777
    2SAPS   H3Y  220   3.433   1.361   5.830 -0.9327 -2.3539 -2.7490
    2SAPS   C34  221   3.409   1.403   5.620 -0.9459 -0.6405  0.6640
    2SAPS   H4X  222   3.493   1.331   5.616  1.8183  2.1783  2.8313
    2SAPS   H4Y  223   3.425   1.484   5.544  0.4009 -1.9348 -0.4975
    2SAPS   C35  224   3.279   1.334   5.583 -0.0494  0.8975  0.5456
    2SAPS   H5X  225   3.195   1.406   5.585 -2.6407 -1.8851 -0.9329
    2SAPS   H5Y  226   3.245   1.258   5.658  1.6002 -0.7424 -0.2886
    2SAPS   C36  227   3.277   1.264   5.447  0.3778  0.4726 -0.0718
    2SAPS   H6X  228   3.368   1.202   5.443  0.3626  0.3483  1.1583
    2SAPS   H6Y  229   3.288   1.348   5.375 -2.1414  1.8399  0.9978
    2SAPS   C37  230   3.156   1.182   5.404 -0.1929 -0.7227  0.1961
    2SAPS   H7X  231   3.069   1.252   5.407  0.0780 -0.4032  0.6436
    2SAPS   H7Y  232   3.138   1.096   5.472  1.5665 -1.7460 -0.5872
    2SAPS   C38  233   3.159   1.106   5.272 -0.9744  0.4404  0.2243
    2SAPS   H8X  234   3.235   1.026   5.286 -0.2821  1.0142 -0.1996
    2SAPS   H8Y  235   3.185   1.175   5.189  0.9290 -1.3511 -0.7631
    2SAPS   C39  236   3.026   1.038   5.230  0.5701 -0.8748 -0.1007
    2SAPS   H9X  237   2.956   1.116   5.192 -1.0435 -2.4955 -0.6083
    2SAPS   H9Y  238   2.987   0.993   5.323 -0.3904 -0.8755 -0.4911
    2SAPS  C310  239   3.040   0.939   5.115 -0.2835 -0.6908  0.1150
    2SAPS  H10X  240   2.940   0.893   5.096 -0.5105  0.9383 -3.7898
    2SAPS  H10Y  241   3.110   0.857   5.137 -0.4830 -0.6699  0.8341
    2SAPS  C311  242   3.079   1.016   4.989  0.2415  0.0957  0.3580
    2SAPS  H11X  243   3.173   1.075   4.980  0.7158 -0.9708 -4.0737
    2SAPS  H11Y  244   2.997   1.089   4.977 -0.6509 -1.0131 -0.5413
    2SAPS  C312  245   3.084   0.940   4.856  0.3492  0.5211  0.3166
    2SAPS  H12X  246   3.060   1.009   4.773  2.8569  1.4858  0.3034
    2SAPS  H12Y  247   3.004   0.863   4.850  0.4371  0.4648 -0.1845
    2SAPS  C313  248   3.217   0.863   4.836  0.1386  0.0715  0.1147
    2SAPS  H13X  249   3.233   0.802   4.927  0.1784 -1.1663 -0.7004
    2SAPS  H13Y  250   3.294   0.943   4.843  0.1383 -0.0429  1.8058
    2SAPS  C314  251   3.213   0.778   4.716 -0.2820  0.0880  0.5234
    2SAPS  H14X  252   3.121   0.717   4.700  1.6938 -2.6367 -1.3813
    2SAPS  H14Y  253   3.297   0.705   4.708 -0.4757 -0.1151  0.3281
    2SAPS  C315  254   3.230   0.866   4.590  0.2053  0.3471  0.2549
    2SAPS  H15X  255   3.319   0.932   4.603  0.7687  0.1790 -2.2342
    2SAPS  H15Y  256   3.137   0.925   4.575 -0.9363 -0.7931  2.4136
    2SAPS  C316  257   3.263   0.778   4.463  0.3123 -0.1798 -0.3633
    2SAPS  H16X  258   3.164   0.746   4.423 -0.1290  2.1826 -1.3462
    2SAPS  H16Y  259   3.339   0.701   4.486 -1.6628 -1.8648  0.8868
    2SAPS  C317  260   3.330   0.865   4.348  0.3184  0.8387 -0.4723
    2SAPS  H17X  261   3.351   0.790   4.269  0.6387  0.6010 -0.1608
    2SAPS  H17Y  262   3.419   0.917   4.390  0.8203  0.2263 -0.7714
    2SAPS  C318  263   3.229   0.964   4.290  0.0036 -0.4327  0.2350
    2SAPS  H18X  264   3.132   0.913   4.271  0.4339 -2.6670  3.2944
    2SAPS  H18Y  265   3.278   1.010   4.201  0.0411 -0.6136  0.1612
    2SAPS  H18Z  266   3.213   1.040   4.369  1.1768 -1.7448  1.7975
    3SAPS     N  267   4.042   1.937   6.601 -0.6222 -0.1692 -0.5239
    3SAPS   HN1  268   4.110   1.999   6.553  0.0394 -0.5686 -0.1200
    3SAPS   HN2  269   4.049   1.970   6.699  1.3164 -0.7576 -0.4258
    3SAPS   HN3  270   4.063   1.838   6.577 -2.0674 -0.8162  0.7060
    3SAPS   C12  271   3.906   1.968   6.541  0.1883  0.3242  0.0434
    3SAPS  H12A  272   3.917   1.954   6.434 -0.6122  0.9924 -0.1434
    3SAPS   C13  273   3.783   1.875   6.592 -0.1480 -0.7937 -0.1225
    3SAPS  O13A  274   3.803   1.816   6.700  0.2591  0.0830 -0.5314
    3SAPS  O13B  275   3.672   1.886   6.533 -0.9766 -0.5815 -0.1418
    3SAPS   C11  276   3.874   2.113   6.576 -0.0528  0.3286  0.1547
    3SAPS  H11A  277   3.894   2.128   6.685  0.0382  0.1254  0.1661
    3SAPS  H11B  278   3.766   2.136   6.564  0.3204  2.6529  0.6572
    3SAPS     P  279   3.965   2.348   6.520 -0.3050 -0.2632  0.5774
    3SAPS   O13  280   3.995   2.367   6.662  0.8468 -0.4348  0.0171
    3SAPS   O14  281   4.050   2.410   6.416 -0.0715  0.0490  0.2557
    3SAPS   O12  282   3.966   2.194   6.496  0.7980  0.8073  0.1817
    3SAPS   O11  283   3.809   2.377   6.498  0.5576 -0.5369 -0.4286
    3SAPS    C1  284   3.765   2.418   6.369 -0.4451  0.0595  0.3584
    3SAPS    HA  285   3.679   2.488   6.376 -2.1638 -1.8613 -0.6044
    3SAPS    HB  286   3.840   2.475   6.309  0.5729 -1.6130 -0.0300
    3SAPS    C2  287   3.717   2.292   6.289 -0.5180  0.8796  0.5484
    3SAPS    HS  288   3.703   2.206   6.357  0.2273 -0.3463 -0.7978
    3SAPS   O21  289   3.828   2.261   6.197  1.3386  0.2215 -0.3604
    3SAPS   C21  290   3.836   2.134   6.162 -0.1395 -0.1146 -0.8322
    3SAPS   O22  291   3.759   2.046   6.198  0.0296 -0.3522  0.7171
    3SAPS   C22  292   3.963   2.096   6.081  0.1128  0.0728  0.0087
    3SAPS   H2R  293   3.932   2.002   6.030 -0.4925  0.5078 -0.4195
    3SAPS   H2S  294   3.981   2.165   5.996 -1.5694 -2.0851 -2.2406
    3SAPS    C3  295   3.589   2.330   6.204  0.4982  0.0410 -0.0018
    3SAPS    HX  296   3.619   2.415   6.139  1.8253  1.0101  1.7766
    3SAPS    HY  297   3.512   2.370   6.273  0.0351  1.0496 -1.0634
    3SAPS   O31  298   3.543   2.222   6.123  0.5295  0.6583 -0.4043
    3SAPS   C31  299   3.480   2.256   6.013  0.1152  0.5609 -0.5541
    3SAPS   O32  300   3.470   2.371   5.974  0.5175 -0.0030 -0.1421
    3SAPS   C32  301   3.435   2.128   5.934 -0.1619  0.3178 -0.1324
    3SAPS   H2X  302   3.394   2.156   5.835 -1.1904  0.9935  0.4674
    3SAPS   H2Y  303   3.351   2.099   6.000  0.6254  0.6229  1.0392
    3SAPS   C23  304   4.085   2.076   6.174  0.6855 -0.4382 -0.0134
    3SAPS   H3R  305   4.063   1.996   6.247  1.6556 -1.9562 -1.3163
    3SAPS   H3S  306   4.114   2.170   6.227 -0.8469  0.3028 -0.4294
    3SAPS   C24  307   4.204   2.021   6.098  0.2240  0.3896 -0.1907
    3SAPS   H4R  308   4.292   2.045   6.162 -0.8046 -0.1232  1.5061
    3SAPS   H4S  309   4.235   2.078   6.009  2.1145  0.7731  0.6609
    3SAPS   C25  310   4.190   1.877   6.055 -1.0407 -0.2865 -0.0070
    3SAPS   H5R  311   4.219   1.802   6.130 -0.1573  0.4835  0.4574
    3SAPS   C26  312   4.151   1.826   5.936  0.1225 -0.2072 -0.0677
    3SAPS   H6R  313   4.158   1.717   5.927  1.8421 -0.1528  0.3845
    3SAPS   C27  314   4.100   1.890   5.805  0.6204  0.3098  0.4152
    3SAPS   H7R  315   4.188   1.885   5.738  0.9137  1.9593  0.6328
    3SAPS   H7S  316   4.063   1.995   5.804  0.5575  0.2916 -0.7403
    3SAPS   C28  317   3.984   1.808   5.747  0.3108 -0.5074 -0.3187
    3SAPS   H8R  318   3.906   1.765   5.812  0.1133  1.7450  1.0247
    3SAPS   C29  319   3.988   1.767   5.619  0.3055  0.1635  0.4328
    3SAPS   H9R  320   3.904   1.709   5.579  1.3687 -0.4511 -1.0267
    3SAPS  C210  321   4.089   1.795   5.511  0.1461  0.1029  0.3968
    3SAPS  H10R  322   4.153   1.880   5.545  1.3325  0.3768 -2.2439
    3SAPS  H10S  323   4.042   1.845   5.424 -2.1756  0.1099  1.5876
    3SAPS  C211  324   4.171   1.675   5.479  0.1194 -0.0498  0.0155
    3SAPS  H11R  325   4.217   1.631   5.569  1.5500  0.8632 -0.2339
    3SAPS  C212  326   4.170   1.606   5.364  0.3569  0.6332 -0.6663
    3SAPS  H12R  327   4.227   1.513   5.373 -0.5186  0.2177  0.9265
    3SAPS  C213  328   4.116   1.645   5.234 -0.0032 -0.1930  0.7985
    3SAPS  H13R  329   4.116   1.756   5.232 -0.6627 -0.1789  1.1438
    3SAPS  H13S  330   4.010   1.619   5.212  0.3969 -1.1444 -0.0434
    3SAPS  C214  331   4.200   1.589   5.122  0.1334 -0.1304 -0.4553
    3SAPS  H14R  332   4.187   1.480   5.110 -0.2502 -0.0959 -0.3468
    3SAPS  C215  333   4.292   1.646   5.040  0.2495  0.8809 -0.2118
    3SAPS  H15R  334   4.338   1.586   4.961  2.4440  0.6399  1.1456
    3SAPS  C216  335   4.342   1.789   5.026 -0.6008  1.0804 -0.4932
    3SAPS  H16R  336   4.441   1.799   5.075 -1.0918 -0.4655  0.8938
    3SAPS  H16S  337   4.271   1.851   5.086  0.6110  0.7252  1.3776
    3SAPS  C217  338   4.354   1.843   4.886  0.3569 -0.2523 -0.0117
    3SAPS  H17R  339   4.258   1.837   4.829 -0.7029  0.9112  1.5510
    3SAPS  H17S  340   4.441   1.807   4.827  0.8832  0.3991  0.3551
    3SAPS  C218  341   4.380   1.999   4.892 -0.0791  0.3974  0.3525
    3SAPS  H18R  342   4.288   2.048   4.931 -2.8390 -0.2675 -4.4689
    3SAPS  H18S  343   4.390   2.014   4.783 -2.1447 -0.0828  0.0497
    3SAPS  C219  344   4.503   2.049   4.979 -0.0889  0.1250  0.2404
    3SAPS  H19R  345   4.494   2.157   4.954 -3.0651 -0.7160 -3.0421
    3SAPS  H19S  346   4.479   2.035   5.087  0.3247 -2.3367  0.0567
    3SAPS  C220  347   4.642   1.992   4.938  0.1853 -0.0106 -0.4889
    3SAPS  H20R  348   4.628   1.883   4.923 -0.2346  0.0745 -0.7309
    3SAPS  H20S  349   4.721   2.006   5.015  0.2211 -0.2809 -0.4771
    3SAPS  H20T  350   4.658   2.049   4.843  0.4573 -1.2351 -1.1967
    3SAPS   C33  351   3.538   2.019   5.943 -0.4639 -0.3031 -0.4177
    3SAPS   H3X  352   3.499   1.925   5.898 -0.0703 -1.2242  1.1233
    3SAPS   H3Y  353   3.552   1.988   6.048 -0.1340 -0.6243 -0.5537
    3SAPS   C34  354   3.667   2.053   5.881  0.2146  0.3665  1.0412
    3SAPS   H4X  355   3.733   1.965   5.900  1.9922  0.7324 -2.5719
    3SAPS   H4Y  356   3.715   2.144   5.924 -1.9381  1.9567  0.2238
    3SAPS   C35  357   3.656   2.086   5.735 -0.4948  0.1249 -0.0566
    3SAPS   H5X  358   3.592   2.174   5.712  0.9440  1.5795  1.2612
    3SAPS   H5Y  359   3.749   2.123   5.687  0.2186  1.1620  2.0121
    3SAPS   C36  360   3.615   1.957   5.661  0.5121 -0.0928 -0.1466
    3SAPS   H6X  361   3.507   1.943   5.681  0.7333 -1.1982  0.3516
    3SAPS   H6Y  362   3.673   1.879   5.714 -0.3905  0.2328  1.3944
    3SAPS   C37  363   3.652   1.951   5.511 -0.5140 -0.5916  0.0005
    3SAPS   H7X  364   3.759   1.974   5.491 -0.5751  1.1298  1.4414
    3SAPS   H7Y  365   3.586   2.012   5.445 -1.1170 -0.9239  0.2934
    3SAPS   C38  366   3.615   1.814   5.459  0.4742  0.3781  0.4282
    3SAPS   H8X  367   3.509   1.784   5.477  1.2940 -1.7054  2.3145
    3SAPS   H8Y  368   3.664   1.733   5.517 -0.8247 -0.9640 -0.2749
    3SAPS   C39  369   3.655   1.789   5.312 -0.0632 -0.2170 -0.1518
    3SAPS   H9X  370   3.764   1.780   5.298  0.1733  0.9104  0.8645
    3SAPS   H9Y  371   3.619   1.875   5.250  0.3215  0.1668  0.1538
    3SAPS  C310  372   3.598   1.660   5.252  0.2323  0.0687  0.4136
    3SAPS  H10X  373   3.609   1.649   5.142 -2.0378  1.6125 -0.0286
    3SAPS  H10Y  374   3.488   1.667   5.260  0.2823 -0.0176  1.2030
    3SAPS  C311  375   3.650   1.528   5.308 -0.4578 -0.3688 -0.3302
    3SAPS  H11X  376   3.627   1.527   5.417 -0.0893  3.9508 -0.0390
    3SAPS  H11Y  377   3.758   1.515   5.285 -0.5642 -0.3240 -0.8432
    3SAPS  C312  378   3.589   1.396   5.248 -0.7353  0.3816 -0.0946
    3SAPS  H12X  379   3.482   1.389   5.277 -0.4784 -1.5839  0.4819
    3SAPS  H12Y  380   3.624   1.305   5.300 -1.7845 -1.0745 -1.8406
    3SAPS  C313  381   3.597   1.367   5.094 -0.0803  0.0329 -0.2399
    3SAPS  H13X  382   3.705   1.356   5.068 -0.2019  0.2491 -0.8503
    3SAPS  H13Y  383   3.542   1.444   5.036 -1.9966 -0.6580  0.5889
    3SAPS  C314  384   3.519   1.239   5.074  0.5842  0.3644 -0.6366
    3SAPS  H14X  385   3.426   1.240   5.134 -0.2835 -0.5710 -1.9070
    3SAPS  H14Y  386   3.580   1.155   5.114 -1.0619 -0.0550  1.1687
    3SAPS  C315  387   3.497   1.213   4.928  0.3050 -0.5049 -0.3085
    3SAPS  H15X  388   3.429   1.286   4.877  3.9142  3.7751  0.4222
    3SAPS  H15Y  389   3.468   1.107   4.916  0.0751 -0.7371  1.9293
    3SAPS  C316  390   3.617   1.233   4.835 -0.0244  0.1516  1.0652
    3SAPS  H16X  391   3.700   1.180   4.888 -0.1961  0.7435  1.9442
    3SAPS  H16Y  392   3.629   1.342   4.824 -1.1008  0.1235 -0.7902
    3SAPS  C317  393   3.585   1.181   4.699 -0.3713  0.2375 -0.7191
    3SAPS  H17X  394   3.499   1.236   4.654  0.4236  1.6710 -0.5206
    3SAPS  H17Y  395   3.559   1.073   4.706 -0.4557  0.2467 -0.8901
    3SAPS  C318  396   3.705   1.202   4.606  0.3074 -0.2801 -0.1940
    3SAPS  H18X  397   3.697   1.309   4.576  1.9489 -0.9155 -3.3377
    3SAPS  H18Y  398   3.688   1.146   4.512 -2.2344  1.2890 -0.7913
    3SAPS  H18Z  399   3.800   1.177   4.658 -0.2698  2.2994  2.4123
    4SAPS     N  400   2.750   5.316   6.557 -0.2958 -0.5156  0.3480
    4SAPS   HN1  401   2.651   5.312   6.587 -0.3111  0.5885  0.4841
    4SAPS   HN2  402   2.746   5.281   6.459 -0.8193 -1.3388  0.6541
    4SAPS   HN3  403   2.794   5.236   6.607  0.3678 -0.5477 -0.2684
    4SAPS   C12  404   2.814   5.449   6.572  0.3942 -0.8743  0.9492
    4SAPS  H12A  405   2.764   5.514   6.502 -3.4809 -1.5195  2.8161
    4SAPS   C13  406   2.801   5.521   6.709  0.2556 -0.7026  0.6211
    4SAPS  O13A  407   2.736   5.464   6.802 -0.5243  0.3476  1.0735
    4SAPS  O13B  408   2.852   5.636   6.719  0.7207 -0.1018 -0.3966
    4SAPS   C11  409   2.961   5.434   6.526  0.2869 -0.7119  0.0011
    4SAPS  H11A  410   3.001   5.353   6.591 -0.4312 -0.6591  0.5191
    4SAPS  H11B  411   3.010   5.530   6.553 -0.1075 -0.0512 -1.5420
    4SAPS     P  412   3.009   5.501   6.276  0.2909  0.5122  0.0209
    4SAPS   O13  413   2.962   5.637   6.314 -0.1568 -0.1665 -0.1103
    4SAPS   O14  414   3.156   5.491   6.264 -0.3391 -0.2969  1.1117
    4SAPS   O12  415   2.962   5.400   6.388  0.6313  0.6303  0.0001
    4SAPS   O11  416   2.936   5.464   6.143  0.0680  0.2258 -0.3395
    4SAPS    C1  417   2.803   5.415   6.153  0.0902 -0.0739 -0.3313
    4SAPS    HA  418   2.793   5.308   6.126 -3.2787  0.1310 -0.3188
    4SAPS    HB  419   2.761   5.415   6.256 -0.5331  0.9463 -0.5775
    4SAPS    C2  420   2.719   5.489   6.049 -0.8848  0.0762  0.1971
    4SAPS    HS  421   2.614   5.453   6.045 -1.9027  2.8218 -0.0284
    4SAPS   O21  422   2.792   5.457   5.928 -0.2097 -1.0166  0.1093
    4SAPS   C21  423   2.715   5.441   5.820  0.3845 -0.0861  1.1007
    4SAPS   O22  424   2.597   5.426   5.816  0.3040 -0.3788  0.1366
    4SAPS   C22  425   2.810   5.457   5.696 -0.1286  0.1956  0.4601
    4SAPS   H2R  426   2.841   5.564   5.696  1.8361 -0.3279 -0.6341
    4SAPS   H2S  427   2.905   5.402   5.713  2.2251  3.7802  0.0277
    4SAPS    C3  428   2.719   5.635   6.088 -0.3600 -0.5446  0.0885
    4SAPS    HX  429   2.823   5.672   6.079 -0.1989 -1.1084 -0.4026
    4SAPS    HY  430   2.698   5.641   6.197  1.2975 -0.2296  0.4126
    4SAPS   O31  431   2.622   5.698   6.004  0.7351 -0.5265 -0.5888
    4SAPS   C31  432   2.672   5.765   5.904 -0.5017  0.2100  0.8587
    4SAPS   O32  433   2.793   5.777   5.874  0.5400 -0.2865 -0.1751
    4SAPS   C32  434   2.564   5.841   5.825  0.4325 -0.0442 -0.8684
    4SAPS   H2X  435   2.522   5.914   5.898  0.2315  1.3225 -2.2872
    4SAPS   H2Y  436   2.486   5.766   5.799  0.7811 -0.7905  0.1921
    4SAPS   C23  437   2.750   5.419   5.562  0.1508 -0.3368 -0.4928
    4SAPS   H3R  438   2.666   5.490   5.550 -2.0271 -2.4657  1.1900
    4SAPS   H3S  439   2.701   5.319   5.559  1.9508 -1.2709 -3.2924
    4SAPS   C24  440   2.847   5.422   5.442 -0.6932 -0.1054  0.4984
    4SAPS   H4R  441   2.784   5.414   5.351  1.7690 -0.4063 -1.2868
    4SAPS   H4S  442   2.916   5.335   5.438  0.3861  0.7092  0.9482
    4SAPS   C25  443   2.919   5.550   5.425 -0.7243  0.2568 -0.1733
    4SAPS   H5R  444   2.966   5.583   5.518  0.0785  2.2585 -1.2330
    4SAPS   C26  445   2.934   5.622   5.309  0.0493 -0.3422  0.2906
    4SAPS   H6R  446   2.983   5.720   5.318  0.1086 -0.3857  0.4432
    4SAPS   C27  447   2.873   5.593   5.176 -0.1072  0.2475  1.1297
    4SAPS   H7R  448   2.805   5.678   5.152 -3.2887 -1.7356  2.5196
    4SAPS   H7S  449   2.800   5.509   5.171 -0.6633  0.7952 -0.4244
    4SAPS   C28  450   2.973   5.579   5.065  0.3625  0.0077  0.2036
    4SAPS   H8R  451   3.074   5.593   5.106  0.7890 -1.2332 -0.3712
    4SAPS   C29  452   2.954   5.556   4.930  0.3469 -0.4005 -0.0149
    4SAPS   H9R  453   3.038   5.536   4.862  0.2403 -0.7788 -0.0358
    4SAPS  C210  454   2.825   5.549   4.853  0.2318  1.2385 -0.1658
    4SAPS  H10R  455   2.733   5.537   4.915 -1.0624  1.2368 -1.9962
    4SAPS  H10S  456   2.835   5.458   4.791 -0.2438  0.6452  0.6125
    4SAPS  C211  457   2.789   5.667   4.774 -0.0950  0.4445 -0.1961
    4SAPS  H11R  458   2.727   5.740   4.827  0.6619  0.9490  0.0065
    4SAPS  C212  459   2.836   5.690   4.653 -0.0982  0.1289  0.2278
    4SAPS  H12R  460   2.795   5.776   4.597 -1.1461 -1.1088 -0.9945
    4SAPS  C213  461   2.922   5.606   4.565  0.0723 -0.0655 -0.2152
    4SAPS  H13R  462   2.911   5.499   4.595  2.2107 -0.7613 -1.6664
    4SAPS  H13S  463   3.025   5.617   4.606  0.0577 -2.0104  0.4779
    4SAPS  C214  464   2.917   5.631   4.414  0.0341  0.1275 -0.3817
    4SAPS  H14R  465   2.989   5.705   4.377 -1.5981  0.1063 -3.9949
    4SAPS  C215  466   2.834   5.572   4.324 -0.4392  0.5313 -0.8271
    4SAPS  H15R  467   2.839   5.598   4.217 -2.6544 -0.1388 -1.1355
    4SAPS  C216  468   2.717   5.478   4.346 -0.2890 -1.0412 -0.5116
    4SAPS  H16R  469   2.624   5.538   4.331  0.1411 -0.5927 -1.5033
    4SAPS  H16S  470   2.729   5.446   4.452 -0.2452 -2.2120 -0.8570
    4SAPS  C217  471   2.708   5.350   4.257 -0.1669 -0.4129 -0.5513
    4SAPS  H17R  472   2.622   5.286   4.288 -0.9768  1.1734  0.7081
    4SAPS  H17S  473   2.804   5.298   4.275  0.6765  1.3443  0.2591
    4SAPS  C218  474   2.700   5.384   4.106  0.4276  0.9523  0.5727
    4SAPS  H18R  475   2.791   5.445   4.089  0.7067  1.4815  3.3353
    4SAPS  H18S  476   2.605   5.438   4.088 -1.0432 -0.9485  2.1208
    4SAPS  C219  477   2.683   5.253   4.020 -0.3905  0.3406  0.4500
    4SAPS  H19R  478   2.587   5.207   4.052  0.5373 -2.1417 -0.0983
    4SAPS  H19S  479   2.761   5.179   4.047 -1.7523 -1.1653  0.4123
    4SAPS  C220  480   2.677   5.282   3.863  0.1963 -0.4859  0.8775
    4SAPS  H20R  481   2.619   5.376   3.853 -0.0234 -0.7894 -1.0769
    4SAPS  H20S  482   2.627   5.199   3.808 -0.1521 -1.1002  2.0801
    4SAPS  H20T  483   2.776   5.302   3.817 -0.5164 -1.3050 -1.1217
    4SAPS   C33  484   2.610   5.905   5.695 -0.4735 -0.4604  0.3861
    4SAPS   H3X  485   2.692   5.847   5.648 -2.0414 -2.7176  0.2728
    4SAPS   H3Y  486   2.657   6.004   5.715  1.7637 -1.0844 -1.3038
    4SAPS   C34  487   2.496   5.912   5.600 -0.1510 -0.4216  0.1761
    4SAPS   H4X  488   2.415   5.964   5.654 -1.0314 -1.8962  0.3428
    4SAPS   H4Y  489   2.463   5.808   5.577  1.9355 -1.0831 -0.0882
    4SAPS   C35  490   2.508   5.981   5.465 -0.1672  0.2927 -0.0292
    4SAPS   H5X  491   2.545   6.085   5.482  0.0243  0.3638 -0.8211
    4SAPS   H5Y  492   2.400   5.976   5.442  0.0379 -5.0215 -1.1274
    4SAPS   C36  493   2.586   5.912   5.347  0.6073 -0.6850 -0.3642
    4SAPS   H6X  494   2.692   5.903   5.380  0.5592  1.7292  0.6823
    4SAPS   H6Y  495   2.588   5.978   5.258  0.3340 -1.0675 -0.6561
    4SAPS   C37  496   2.522   5.785   5.296  0.0090  0.0686  0.5934
    4SAPS   H7X  497   2.515   5.712   5.380  0.1917  0.8011  1.2638
    4SAPS   H7Y  498   2.584   5.739   5.216 -1.4533  0.4906 -0.8334
    4SAPS   C38  499   2.383   5.796   5.249  0.4832 -0.3573  0.1760
    4SAPS   H8X  500   2.311   5.831   5.325  0.1896 -3.3319  1.4081
    4SAPS   H8Y  501   2.355   5.691   5.228 -1.2663 -0.5366  2.9833
    4SAPS   C39  502   2.345   5.869   5.116  0.2625  0.4426  0.2202
    4SAPS   H9X  503   2.372   5.976   5.126 -0.1417  0.6630 -0.9214
    4SAPS   H9Y  504   2.235   5.867   5.105  0.1350 -0.5701  1.4104
    4SAPS  C310  505   2.406   5.810   4.987  0.4137 -0.4649 -0.3279
    4SAPS  H10X  506   2.405   5.699   4.999  0.0785 -0.3121  1.1581
    4SAPS  H10Y  507   2.510   5.850   4.982 -0.1032  0.8412 -1.4713
    4SAPS  C311  508   2.341   5.855   4.851 -0.6826  0.6395  0.1524
    4SAPS  H11X  509   2.363   5.962   4.835 -1.1861  0.6682 -0.3954
    4SAPS  H11Y  510   2.234   5.831   4.871 -0.2103 -0.8242  1.1007
    4SAPS  C312  511   2.393   5.774   4.727 -0.4591  0.3865  0.0745
    4SAPS  H12X  512   2.363   5.668   4.744  2.6542 -1.0645 -2.2080
    4SAPS  H12Y  513   2.504   5.777   4.739 -0.3764  2.5045 -0.7842
    4SAPS  C313  514   2.350   5.798   4.589  0.2106 -0.6006  0.0072
    4SAPS  H13X  515   2.391   5.898   4.563 -3.7562  1.2709  0.1403
    4SAPS  H13Y  516   2.239   5.806   4.581  0.1957 -1.1742 -0.5098
    4SAPS  C314  517   2.395   5.695   4.472  0.1373 -0.7617 -0.6109
    4SAPS  H14X  518   2.327   5.607   4.477 -2.1582  0.8920 -0.9431
    4SAPS  H14Y  519   2.498   5.670   4.503  0.7518  3.6737  1.7947
    4SAPS  C315  520   2.385   5.755   4.331 -0.5163  0.1192  0.2031
    4SAPS  H15X  521   2.445   5.686   4.268  1.1571  0.9334  0.8460
    4SAPS  H15Y  522   2.436   5.853   4.342 -0.5965  0.5744 -2.6296
    4SAPS  C316  523   2.238   5.787   4.291 -0.0690 -0.1639  0.4667
    4SAPS  H16X  524   2.190   5.873   4.342 -1.2520 -0.3562 -0.2711
    4SAPS  H16Y  525   2.174   5.695   4.290  0.4816 -0.5506 -0.0890
    4SAPS  C317  526   2.236   5.823   4.143  0.3185 -0.2058  0.1080
    4SAPS  H17X  527   2.314   5.899   4.120  1.3912 -1.1739  0.4636
    4SAPS  H17Y  528   2.137   5.868   4.120  0.1512 -0.1226  0.9519
    4SAPS  C318  529   2.257   5.703   4.055  0.0248  1.4260 -0.2545
    4SAPS  H18X  530   2.261   5.735   3.949 -2.4138  0.7418 -0.6266
    4SAPS  H18Y  531   2.172   5.632   4.068  0.9103  0.5901  1.3376
    4SAPS  H18Z  532   2.349   5.647   4.084 -1.4846 -0.8666  0.4570
    5SAPS     N  533   0.536   0.883   6.598 -0.5914 -0.5787  1.0356
    5SAPS   HN1  534   0.561   0.869   6.697  1.0405 -2.4115  0.4106
    5SAPS   HN2  535   0.620   0.911   6.543  0.0757 -2.3670  1.1094
    5SAPS   HN3  536   0.472   0.965   6.589 -1.8959 -1.7813 -2.0322
    5SAPS   C12  537   0.482   0.759   6.528  0.3277 -0.0489  0.6760
    5SAPS  H12A  538   0.548   0.676   6.551  0.5460  0.6481  2.8196
    5SAPS   C13  539   0.334   0.718   6.574 -0.1298  0.0472  0.6997
    5SAPS  O13A  540   0.262   0.798   6.638  0.0986 -0.4182 -0.6407
    5SAPS  O13B  541   0.283   0.616   6.524  0.0629  0.5875  0.1261
    5SAPS   C11  542   0.490   0.784   6.373  0.0071 -0.2290 -0.6035
    5SAPS  H11A  543   0.437   0.701   6.321  0.7246 -0.4220 -1.0462
    5SAPS  H11B  544   0.600   0.787   6.360  0.6056  3.7614  3.1752
    5SAPS     P  545   0.328   0.902   6.203  0.4742  0.4421 -0.7318
    5SAPS   O13  546   0.195   0.847   6.235 -0.0859  0.2517  0.1207
    5SAPS   O14  547   0.336   1.035   6.143 -0.1724 -0.4143  0.3710
    5SAPS   O12  548   0.412   0.902   6.344 -0.4462 -0.3339 -0.6542
    5SAPS   O11  549   0.411   0.808   6.113 -0.4727  0.4229 -0.0113
    5SAPS    C1  550   0.538   0.850   6.053 -0.1525  0.2219 -0.7146
    5SAPS    HA  551   0.560   0.959   6.060  1.2464 -0.0868  0.0604
    5SAPS    HB  552   0.624   0.802   6.103 -1.0222  0.4525  1.0748
    5SAPS    C2  553   0.539   0.822   5.898 -0.6043 -0.0782  0.1265
    5SAPS    HS  554   0.621   0.868   5.838 -1.1943 -0.1550 -0.7632
    5SAPS   O21  555   0.410   0.867   5.851 -0.0929 -0.3933 -0.6315
    5SAPS   C21  556   0.411   1.002   5.835  0.1759 -0.0542  0.1908
    5SAPS   O22  557   0.511   1.071   5.840 -0.4233 -0.8222  0.3195
    5SAPS   C22  558   0.269   1.054   5.824  0.5991  0.5432 -0.5393
    5SAPS   H2R  559   0.196   0.971   5.839  1.3969 -0.4421 -1.8711
    5SAPS   H2S  560   0.257   1.127   5.907 -2.1015  0.4494 -0.7386
    5SAPS    C3  561   0.549   0.673   5.869  0.1993  0.9166  0.1328
    5SAPS    HX  562   0.458   0.630   5.918 -0.7929  2.0497 -0.6501
    5SAPS    HY  563   0.636   0.644   5.931 -1.6733 -0.2538  2.3974
    5SAPS   O31  564   0.585   0.643   5.730 -0.3685  0.4016 -0.5272
    5SAPS   C31  565   0.493   0.592   5.656  1.4649  0.0819  0.5493
    5SAPS   O32  566   0.377   0.576   5.687  0.2845 -0.0261  0.0212
    5SAPS   C32  567   0.545   0.581   5.516  0.4579 -0.5434 -0.6040
    5SAPS   H2X  568   0.646   0.628   5.507  0.8749 -0.6217  2.5134
    5SAPS   H2Y  569   0.471   0.637   5.455  0.3879 -0.5520 -0.5274
    5SAPS   C23  570   0.239   1.105   5.680  0.2193 -0.0542 -0.0396
    5SAPS   H3R  571   0.311   1.179   5.637 -1.0332  0.6860 -0.9609
    5SAPS   H3S  572   0.144   1.164   5.682  0.2072 -0.0028 -1.0738
    5SAPS   C24  573   0.225   0.991   5.572 -0.1412  0.5541 -0.3962
    5SAPS   H4R  574   0.128   0.941   5.594  0.0044  0.2645 -0.4077
    5SAPS   H4S  575   0.304   0.914   5.583 -0.3768 -0.2227 -3.3871
    5SAPS   C25  576   0.223   1.053   5.434 -0.0859 -0.2194  0.5090
    5SAPS   H5R  577   0.131   1.109   5.411  1.6934  2.6658 -0.0633
    5SAPS   C26  578   0.314   1.053   5.339  0.2368 -0.6365  0.5379
    5SAPS   H6R  579   0.302   1.116   5.250 -1.9574  0.6402  1.6676
    5SAPS   C27  580   0.439   0.980   5.349 -0.2924  0.9811  0.4986
    5SAPS   H7R  581   0.453   0.930   5.447  0.0486  0.1184  0.0231
    5SAPS   H7S  582   0.525   1.049   5.359  0.8227 -0.4650  1.4058
    5SAPS   C28  583   0.452   0.881   5.235  0.5808  0.1368 -0.8349
    5SAPS   H8R  584   0.420   0.777   5.251  3.0327 -0.5189  0.3035
    5SAPS   C29  585   0.491   0.905   5.109  0.0707 -0.5321 -0.1751
    5SAPS   H9R  586   0.469   0.828   5.033 -2.9245 -1.4201  1.4144
    5SAPS  C210  587   0.516   1.048   5.059 -0.3237  0.2597  0.5007
    5SAPS  H10R  588   0.502   1.132   5.131  2.1514 -0.3150  1.7812
    5SAPS  H10S  589   0.444   1.078   4.980  0.0133 -0.6487 -0.1728
    5SAPS  C211  590   0.650   1.041   5.001  0.4217  0.2725 -0.9849
    5SAPS  H11R  591   0.730   1.082   5.065 -0.0143 -1.7002  0.9778
    5SAPS  C212  592   0.681   1.015   4.875 -0.1933  0.2502  0.9548
    5SAPS  H12R  593   0.784   0.994   4.840 -0.7033 -0.8011  0.0176
    5SAPS  C213  594   0.584   0.991   4.760  0.0520  0.3400  0.1244
    5SAPS  H13R  595   0.628   1.009   4.659 -2.1363  2.8901 -0.4974
    5SAPS  H13S  596   0.511   1.074   4.769  1.3300  1.6593 -1.1327
    5SAPS  C214  597   0.516   0.859   4.776 -0.7520  0.5383 -0.5902
    5SAPS  H14R  598   0.412   0.859   4.814  0.4035  1.2313  3.0073
    5SAPS  C215  599   0.581   0.740   4.739 -0.5751  0.1871  0.2639
    5SAPS  H15R  600   0.525   0.646   4.756  0.0924  0.1554  2.5420
    5SAPS  C216  601   0.724   0.723   4.701  0.1075 -0.2232 -0.1120
    5SAPS  H16R  602   0.765   0.647   4.771  2.7092  0.1059 -1.1803
    5SAPS  H16S  603   0.779   0.818   4.718  0.4531 -0.5521  0.6262
    5SAPS  C217  604   0.728   0.685   4.553  0.1111 -0.3305 -0.8818
    5SAPS  H17R  605   0.675   0.589   4.537 -0.9675  0.1682 -0.4352
    5SAPS  H17S  606   0.835   0.666   4.529  0.6218 -0.2450  1.1663
    5SAPS  C218  607   0.686   0.794   4.452  0.4058 -0.4543 -0.1080
    5SAPS  H18R  608   0.719   0.897   4.476 -0.5490 -0.2981  0.5673
    5SAPS  H18S  609   0.577   0.806   4.434  0.5408  1.1092 -0.0325
    5SAPS  C219  610   0.754   0.769   4.313  0.3687 -0.2530 -0.3090
    5SAPS  H19R  611   0.864   0.780   4.328  0.1865 -0.5903  1.4444
    5SAPS  H19S  612   0.709   0.839   4.239  0.4208  1.2124  1.0020
    5SAPS  C220  613   0.725   0.627   4.248  0.3760 -0.0895  0.4180
    5SAPS  H20R  614   0.785   0.613   4.155  1.2471  0.5197  0.8724
    5SAPS  H20S  615   0.619   0.626   4.216  0.4911  1.3637 -0.0936
    5SAPS  H20T  616   0.746   0.548   4.323 -0.2503 -0.8699 -0.2022
    5SAPS   C33  617   0.535   0.446   5.457 -0.9257 -0.3923  0.7339
    5SAPS   H3X  618   0.431   0.430   5.419  0.1772 -2.2307 -1.8583
    5SAPS   H3Y  619   0.552   0.361   5.526 -2.8124  0.0009  1.7683
    5SAPS   C34  620   0.640   0.434   5.347 -0.3840 -0.2545 -0.0275
    5SAPS   H4X  621   0.627   0.336   5.296 -0.0597  0.7082 -2.0678
    5SAPS   H4Y  622   0.746   0.445   5.379  0.1602  0.5227 -1.9545
    5SAPS   C35  623   0.620   0.528   5.229  0.2540 -0.2294  0.4000
    5SAPS   H5X  624   0.654   0.624   5.273  0.0296  0.3602 -0.6710
    5SAPS   H5Y  625   0.512   0.546   5.214  0.1412  0.2050  1.6320
    5SAPS   C36  626   0.687   0.499   5.091 -0.9087 -0.0590 -0.0024
    5SAPS   H6X  627   0.787   0.460   5.119 -0.7617  0.4261  0.1538
    5SAPS   H6Y  628   0.710   0.581   5.019  1.7993  0.4041  1.2449
    5SAPS   C37  629   0.613   0.383   5.013 -0.7814 -0.4547  0.2951
    5SAPS   H7X  630   0.503   0.394   5.027 -0.7928  0.5241 -0.4546
    5SAPS   H7Y  631   0.644   0.291   5.068  0.2886  0.3262  1.0276
    5SAPS   C38  632   0.668   0.370   4.869  0.1272 -0.1549  0.1305
    5SAPS   H8X  633   0.779   0.382   4.870  0.1088  0.5634  3.2292
    5SAPS   H8Y  634   0.647   0.458   4.805  0.7987  0.5937  0.9206
    5SAPS   C39  635   0.627   0.248   4.790 -0.1319  0.4678 -0.5817
    5SAPS   H9X  636   0.519   0.240   4.766 -0.7834 -0.0564  2.2197
    5SAPS   H9Y  637   0.652   0.154   4.844 -0.3435  0.9399  0.3673
    5SAPS  C310  638   0.699   0.252   4.661  0.2355 -0.6224 -0.1340
    5SAPS  H10X  639   0.808   0.243   4.680  0.6279 -0.1835 -2.0263
    5SAPS  H10Y  640   0.688   0.352   4.615  0.4809 -0.9313 -0.8820
    5SAPS  C311  641   0.654   0.144   4.554  0.1247 -0.3039  0.3349
    5SAPS  H11X  642   0.543   0.140   4.540 -0.0608 -2.9401  2.0016
    5SAPS  H11Y  643   0.679   0.048   4.604  1.3799  1.3081  3.0399
    5SAPS  C312  644   0.735   0.136   4.425 -0.2289  0.5626  0.1988
    5SAPS  H12X  645   0.843   0.154   4.445 -0.2646 -0.3522  1.3149
    5SAPS  H12Y  646   0.693   0.208   4.352 -0.0385 -0.8381 -1.3476
    5SAPS  C313  647   0.731  -0.002   4.367  0.0674 -0.0090 -0.0669
    5SAPS  H13X  648   0.633  -0.037   4.330  0.4448  0.0735 -1.1686
    5SAPS  H13Y  649   0.747  -0.083   4.442 -1.7906 -1.9739 -1.6710
    5SAPS  C314  650   0.838  -0.006   4.257 -0.2623  0.4573  0.4706
    5SAPS  H14X  651   0.909   0.077   4.277 -0.1979  0.4292  0.3586
    5SAPS  H14Y  652   0.782   0.009   4.162  1.7135 -3.3536 -1.5241
    5SAPS  C315  653   0.920  -0.134   4.263  0.2476  0.4292 -0.0936
    5SAPS  H15X  654   0.852  -0.211   4.221 -0.8818  0.5416  1.4263
    5SAPS  H15Y  655   0.947  -0.160   4.368 -0.4163 -1.5202 -0.3551
    5SAPS  C316  656   1.050  -0.111   4.197 -0.5516 -0.2852  0.1919
    5SAPS  H16X  657   1.107  -0.034   4.254  0.5482 -0.7142 -0.2995
    5SAPS  H16Y  658   1.023  -0.056   4.105 -0.7862 -0.6024  0.0716
    5SAPS  C317  659   1.139  -0.229   4.187 -0.4534  0.5035  0.7354
    5SAPS  H17X  660   1.093  -0.300   4.114 -0.0776 -0.1362  1.1100
    5SAPS  H17Y  661   1.141  -0.276   4.288  0.8666 -0.6265  0.2189
    5SAPS  C318  662   1.274  -0.195   4.146 -0.0824  0.4925  0.1074
    5SAPS  H18X  663   1.340  -0.284   4.143 -0.7395  0.0169 -2.0382
    5SAPS  H18Y  664   1.321  -0.112   4.202 -1.8139  2.2202 -0.8799
    5SAPS  H18Z  665   1.284  -0.155   4.043  0.5576 -0.2507 -0.1252
    6SAPS     N  666   3.206   1.415   6.670 -0.0314  0.3638 -0.2756
    6SAPS   HN1  667   3.223   1.482   6.748 -0.8778  0.1391  0.1096
    6SAPS   HN2  668   3.148   1.337   6.707 -1.5436  2.9156  3.2886
    6SAPS   HN3  669   3.299   1.380   6.641 -1.4259 -1.8204 -2.4338
    6SAPS   C12  670   3.150   1.488   6.557  0.5878 -0.0942  0.0519
    6SAPS  H12A  671   3.044   1.491   6.577  0.5258  0.9741 -0.3992
    6SAPS   C13  672   3.204   1.637   6.549  0.2408 -0.1833 -0.2411
    6SAPS  O13A  673   3.309   1.676   6.605 -0.0709  0.4360 -0.0129
    6SAPS  O13B  674   3.140   1.719   6.472  0.0468  0.3592  0.2660
    6SAPS   C11  675   3.166   1.408   6.420 -0.4829  0.1033 -0.4753
    6SAPS  H11A  676   3.275   1.407   6.402 -0.1208  0.9724  1.4731
    6SAPS  H11B  677   3.115   1.472   6.344  0.2480  1.6041  0.2555
    6SAPS     P  678   2.978   1.237   6.361  0.7179  0.1072  0.0853
    6SAPS   O13  679   2.925   1.108   6.414  0.0084 -0.0260  0.0887
    6SAPS   O14  680   2.884   1.350   6.375 -0.0301 -0.5094  0.4354
    6SAPS   O12  681   3.108   1.277   6.439  0.2201  0.0771  0.1083
    6SAPS   O11  682   3.009   1.223   6.214 -0.0784  0.0685  0.1292
    6SAPS    C1  683   3.087   1.309   6.131  0.3734  0.9317 -0.5660
    6SAPS    HA  684   3.054   1.415   6.137  0.4128  0.9067  0.1491
    6SAPS    HB  685   3.194   1.304   6.159  0.6931  2.6194 -1.3823
    6SAPS    C2  686   3.080   1.255   5.981 -0.1684  0.4271  0.2506
    6SAPS    HS  687   3.143   1.324   5.921  1.0606  0.8090  1.8961
    6SAPS   O21  688   2.945   1.243   5.937  0.1066 -1.0330  0.1552
    6SAPS   C21  689   2.909   1.366   5.886 -0.6260 -0.0356  0.2291
    6SAPS   O22  690   2.981   1.464   5.886  0.0285 -0.0814  0.2951
    6SAPS   C22  691   2.766   1.349   5.832  0.2632 -0.3377  1.0123
    6SAPS   H2R  692   2.698   1.313   5.913 -0.4394  0.1710  0.6587
    6SAPS   H2S  693   2.725   1.449   5.807  0.0882 -1.0880 -2.0321
    6SAPS    C3  694   3.142   1.112   5.975 -0.4073  0.7334  0.4733
    6SAPS    HX  695   3.074   1.058   6.045  0.3490 -0.5980  0.2251
    6SAPS    HY  696   3.240   1.117   6.027 -0.7540 -1.4876  1.4864
    6SAPS   O31  697   3.158   1.060   5.837  0.9049  0.6102  0.1962
    6SAPS   C31  698   3.088   0.945   5.823 -0.8628  1.1094 -0.4774
    6SAPS   O32  699   3.011   0.893   5.899  0.1812  0.8976  0.5463
    6SAPS   C32  700   3.094   0.890   5.680  0.0209 -0.0600  0.0409
    6SAPS   H2X  701   3.185   0.931   5.633 -2.4694  2.9647 -2.6382
    6SAPS   H2Y  702   2.999   0.923   5.632 -1.7578 -1.6145  2.2573
    6SAPS   C23  703   2.754   1.247   5.719  0.1419  0.0660  0.0614
    6SAPS   H3R  704   2.645   1.226   5.712  0.2614 -0.1610 -1.5272
    6SAPS   H3S  705   2.787   1.148   5.758 -4.9006 -2.1570 -0.4359
    6SAPS   C24  706   2.830   1.271   5.585 -0.3852  0.2711  0.2972
    6SAPS   H4R  707   2.808   1.175   5.533 -0.4619  0.3887  0.1127
    6SAPS   H4S  708   2.940   1.281   5.598  0.3379 -5.2777  0.9984
    6SAPS   C25  709   2.767   1.394   5.521  0.1648  0.2105 -0.4705
    6SAPS   H5R  710   2.710   1.450   5.596 -1.8596 -0.6157 -1.3217
    6SAPS   C26  711   2.758   1.436   5.397  0.3809  0.3223 -0.5802
    6SAPS   H6R  712   2.694   1.522   5.373  1.6308  0.9630 -1.7662
    6SAPS   C27  713   2.823   1.369   5.281  0.3517  0.7909  0.2417
    6SAPS   H7R  714   2.749   1.327   5.209  1.1955  0.0773 -0.2356
    6SAPS   H7S  715   2.892   1.291   5.320 -0.4342 -1.0208 -1.7863
    6SAPS   C28  716   2.904   1.459   5.191  0.3588  0.5950 -0.4010
    6SAPS   H8R  717   2.994   1.502   5.236 -0.2236  0.9471  0.4646
    6SAPS   C29  718   2.883   1.479   5.060  0.6021 -0.1733 -0.0590
    6SAPS   H9R  719   2.949   1.547   5.003 -1.1837  1.2390 -0.5230
    6SAPS  C210  720   2.786   1.403   4.974 -0.2028 -0.3532 -0.0290
    6SAPS  H10R  721   2.682   1.415   5.011 -0.1880 -0.7972  0.1674
    6SAPS  H10S  722   2.808   1.294   4.979  2.7564  0.1636  0.3829
    6SAPS  C211  723   2.779   1.452   4.835 -0.4221 -0.5541  0.1652
    6SAPS  H11R  724   2.692   1.517   4.814 -0.0018  0.3407  1.1286
    6SAPS  C212  725   2.852   1.418   4.728 -0.8046 -0.3350  0.7877
    6SAPS  H12R  726   2.859   1.489   4.644 -1.9667  1.3197  2.0206
    6SAPS  C213  727   2.958   1.316   4.732  0.0167  0.3725  0.2543
    6SAPS  H13R  728   2.925   1.229   4.672  0.0532  0.9739 -0.6653
    6SAPS  H13S  729   2.972   1.282   4.836 -2.3439 -1.7475 -0.0423
    6SAPS  C214  730   3.091   1.357   4.683  0.6105 -0.6134 -0.3030
    6SAPS  H14R  731   3.169   1.399   4.748  1.4637  0.8722 -2.2015
    6SAPS  C215  732   3.113   1.386   4.553 -0.0552  0.4431 -0.2106
    6SAPS  H15R  733   3.210   1.430   4.525  0.1574  0.1968  0.1338
    6SAPS  C216  734   3.019   1.362   4.439 -0.0396 -0.0158  0.4814
    6SAPS  H16R  735   2.950   1.449   4.436  0.5462  0.4349 -2.2043
    6SAPS  H16S  736   2.953   1.272   4.447  0.4890 -0.4988 -0.4156
    6SAPS  C217  737   3.098   1.349   4.308  0.5590  0.0860 -0.1418
    6SAPS  H17R  738   3.160   1.257   4.308 -2.1195 -1.8678 -1.5901
    6SAPS  H17S  739   3.173   1.429   4.290 -0.4040  0.5437 -2.4781
    6SAPS  C218  740   3.006   1.337   4.182  0.3327  0.0735  0.5176
    6SAPS  H18R  741   3.070   1.340   4.092 -1.2987  0.1012 -0.6956
    6SAPS  H18S  742   2.950   1.433   4.175  0.4502  0.2924  2.0793
    6SAPS  C219  743   2.915   1.215   4.161 -0.3178 -0.8746 -0.5201
    6SAPS  H19R  744   2.833   1.197   4.233  1.6000 -3.4923  1.2314
    6SAPS  H19S  745   2.976   1.122   4.168  2.3111  0.6107 -1.7986
    6SAPS  C220  746   2.853   1.217   4.018 -0.1574  0.0898  0.2217
    6SAPS  H20R  747   2.799   1.308   3.983  2.2796  1.5115 -0.0265
    6SAPS  H20S  748   2.773   1.140   4.012 -2.2658  2.1810 -0.1842
    6SAPS  H20T  749   2.926   1.189   3.939 -0.2668 -2.5073  0.9595
    6SAPS   C33  750   3.089   0.728   5.679 -0.9808 -0.0725  0.2133
    6SAPS   H3X  751   2.992   0.682   5.705 -0.9364 -0.7574 -0.7648
    6SAPS   H3Y  752   3.181   0.706   5.738  0.7760 -0.0320 -2.3030
    6SAPS   C34  753   3.143   0.663   5.545 -0.1669  0.0554 -0.5486
    6SAPS   H4X  754   3.145   0.554   5.568  3.0168 -0.5252 -2.8953
    6SAPS   H4Y  755   3.250   0.691   5.528  0.0245 -0.8136 -0.8255
    6SAPS   C35  756   3.055   0.687   5.426  0.2018  0.6954 -0.1902
    6SAPS   H5X  757   3.038   0.797   5.417 -0.7616  0.5126 -0.7467
    6SAPS   H5Y  758   2.959   0.637   5.451  0.4581  1.3013  2.2926
    6SAPS   C36  759   3.117   0.618   5.304 -0.1636  0.4466  0.0919
    6SAPS   H6X  760   3.146   0.517   5.340 -0.4330 -0.6164 -2.4303
    6SAPS   H6Y  761   3.203   0.671   5.257  1.3634 -0.5578  1.6187
    6SAPS   C37  762   3.010   0.592   5.197  0.4154  0.2988 -0.2520
    6SAPS   H7X  763   2.975   0.687   5.150  0.1609  0.6508  0.6271
    6SAPS   H7Y  764   2.921   0.551   5.251 -0.5386  1.7300 -0.6645
    6SAPS   C38  765   3.068   0.498   5.087  0.0554 -0.6951  0.1397
    6SAPS   H8X  766   3.128   0.418   5.136  1.5981 -1.6274 -2.9745
    6SAPS   H8Y  767   3.138   0.557   5.024  0.1293  1.4499  2.0934
    6SAPS   C39  768   2.958   0.443   4.999  0.7152 -0.5791  0.7419
    6SAPS   H9X  769   2.884   0.525   4.984 -1.9498 -2.9439  0.1626
    6SAPS   H9Y  770   2.912   0.357   5.053 -1.3549 -0.9027 -1.3879
    6SAPS  C310  771   3.008   0.399   4.859  0.2025  0.0460 -0.9820
    6SAPS  H10X  772   3.047   0.295   4.865 -0.9490 -0.3874 -0.6525
    6SAPS  H10Y  773   3.083   0.475   4.828 -0.0848  0.5539 -0.4565
    6SAPS  C311  774   2.888   0.389   4.759  0.1450 -0.6044 -0.0194
    6SAPS  H11X  775   2.845   0.492   4.756  0.0983 -0.6523 -2.1010
    6SAPS  H11Y  776   2.815   0.313   4.794 -0.2050 -0.7998 -1.1448
    6SAPS  C312  777   2.942   0.339   4.618 -0.0385  0.2796 -0.2507
    6SAPS  H12X  778   3.007   0.251   4.633 -0.6486  0.1569  1.9827
    6SAPS  H12Y  779   3.007   0.423   4.586  1.5566 -0.4609  0.9184
    6SAPS  C313  780   2.816   0.311   4.525 -0.0874  0.2175  0.1843
    6SAPS  H13X  781   2.748   0.396   4.549  0.9769  1.4652 -1.0471
    6SAPS  H13Y  782   2.774   0.211   4.546  0.0450 -0.1593 -1.2509
    6SAPS  C314  783   2.859   0.321   4.379  0.4415 -0.2811  0.6036
    6SAPS  H14X  784   2.766   0.284   4.330  1.0745 -1.3999  0.2269
    6SAPS  H14Y  785   2.944   0.251   4.368 -0.0900 -1.0625  1.3413
    6SAPS  C315  786   2.897   0.458   4.320 -0.5241  0.2238  0.5117
    6SAPS  H15X  787   2.978   0.503   4.382  0.0190  1.9716 -1.3700
    6SAPS  H15Y  788   2.813   0.527   4.343 -0.2391 -0.1437  3.0271
    6SAPS  C316  789   2.938   0.455   4.169  0.0194  0.1467  0.2643
    6SAPS  H16X  790   2.881   0.375   4.116 -2.7622  2.2348 -0.1055
    6SAPS  H16Y  791   3.046   0.426   4.170  0.1266  0.3813 -1.3143
    6SAPS  C317  792   2.922   0.592   4.092 -0.0298 -0.0822  0.0163
    6SAPS  H17X  793   2.816   0.622   4.092  0.7378  2.9520  1.3043
    6SAPS  H17Y  794   2.953   0.576   3.987 -0.4213  0.1043 -0.1244
    6SAPS  C318  795   3.012   0.693   4.156  0.4245  0.6554  0.2152
    6SAPS  H18X  796   2.971   0.732   4.252 -3.1217 -2.0419  0.0451
    6SAPS  H18Y  797   3.026   0.784   4.093  1.0035  0.9716  0.7939
    6SAPS  H18Z  798   3.114   0.650   4.160  0.3225 -0.0289 -2.3998
    7SAPS     N  799   3.889   0.532   6.452  0.3397  0.0824  0.9155
    7SAPS   HN1  800   3.884   0.600   6.373 -0.3498 -0.7289  0.2469
    7SAPS   HN2  801   3.986   0.496   6.462  0.1524  0.0076  2.8220
    7SAPS   HN3  802   3.825   0.458   6.417  1.7854  1.1214 -5.1717
    7SAPS   C12  803   3.850   0.594   6.585  0.5697 -0.2377 -0.0902
    7SAPS  H12A  804   3.859   0.524   6.667 -1.9592  0.6178  1.0136
    7SAPS   C13  805   3.928   0.715   6.633 -0.7464 -0.2940 -0.0994
    7SAPS  O13A  806   4.017   0.757   6.558  0.1307  0.0862 -0.1309
    7SAPS  O13B  807   3.916   0.740   6.753 -0.1617  0.5096  0.0608
    7SAPS   C11  808   3.693   0.625   6.570 -0.4920  0.4766 -0.6271
    7SAPS  H11A  809   3.678   0.686   6.478 -0.7940  1.0547 -0.1960
    7SAPS  H11B  810   3.664   0.695   6.651 -1.1107  1.4078 -1.6173
    7SAPS     P  811   3.506   0.473   6.463  0.4049  0.5514  0.0189
    7SAPS   O13  812   3.464   0.337   6.493  0.0372  0.6490 -0.2639
    7SAPS   O14  813   3.391   0.563   6.486  0.0818 -0.1335 -0.3889
    7SAPS   O12  814   3.615   0.505   6.577 -0.2780  0.4637  0.3045
    7SAPS   O11  815   3.556   0.492   6.321  0.0571 -0.5424  0.1276
    7SAPS    C1  816   3.490   0.418   6.216 -0.6641 -0.1987  0.5101
    7SAPS    HA  817   3.509   0.309   6.213  2.0498  0.2330 -0.9708
    7SAPS    HB  818   3.379   0.428   6.223 -0.4567  2.3861  1.3519
    7SAPS    C2  819   3.520   0.478   6.071 -0.2094  0.3226  0.1847
    7SAPS    HS  820   3.463   0.414   6.001 -0.6448  1.7184 -0.7696
    7SAPS   O21  821   3.658   0.471   6.039  0.0810 -0.2113  0.4099
    7SAPS   C21  822   3.722   0.354   6.042  0.1107 -0.0798 -0.2161
    7SAPS   O22  823   3.669   0.244   6.052  0.0815 -0.3708 -0.7087
    7SAPS   C22  824   3.866   0.384   6.016 -0.5036  0.4677  0.4008
    7SAPS   H2R  825   3.873   0.491   5.983 -3.7294  1.1276  1.4827
    7SAPS   H2S  826   3.926   0.364   6.107 -0.1089 -2.2952 -0.3773
    7SAPS    C3  827   3.471   0.620   6.043  0.4003  0.2898  0.1797
    7SAPS    HX  828   3.516   0.708   6.094 -1.9226  1.3925  0.4613
    7SAPS    HY  829   3.365   0.626   6.074  0.7084 -1.4879  1.8228
    7SAPS   O31  830   3.479   0.642   5.903 -0.0163  0.4176  0.1088
    7SAPS   C31  831   3.439   0.765   5.861  0.5978 -0.0892  0.2154
    7SAPS   O32  832   3.374   0.839   5.931 -0.1896 -0.1768  0.4598
    7SAPS   C32  833   3.485   0.799   5.723  0.6284 -0.1233  0.2398
    7SAPS   H2X  834   3.407   0.771   5.649  0.2361 -1.0464  0.9783
    7SAPS   H2Y  835   3.576   0.739   5.703  1.6302  1.4220  0.0254
    7SAPS   C23  836   3.923   0.290   5.909 -0.5893  1.0824  0.0324
    7SAPS   H3R  837   3.908   0.184   5.941  0.5393  0.9414  0.1405
    7SAPS   H3S  838   4.033   0.305   5.902 -1.0648  4.6470 -2.5902
    7SAPS   C24  839   3.863   0.305   5.766  0.1579  0.6311 -0.1720
    7SAPS   H4R  840   3.757   0.271   5.777  0.6195 -0.8828 -0.1583
    7SAPS   H4S  841   3.907   0.231   5.695 -0.3011 -0.3339  0.5253
    7SAPS   C25  842   3.883   0.444   5.712  0.5671  0.4525 -0.3099
    7SAPS   H5R  843   3.859   0.531   5.775 -1.6702  0.4533 -1.0824
    7SAPS   C26  844   3.930   0.474   5.593  0.4721  0.3436 -0.7450
    7SAPS   H6R  845   3.941   0.578   5.559  2.8644  0.6597  0.7175
    7SAPS   C27  846   3.973   0.373   5.491  0.5002  0.5568  0.8325
    7SAPS   H7R  847   3.994   0.274   5.536 -4.2053 -1.5764 -0.9922
    7SAPS   H7S  848   4.060   0.406   5.430  1.7418 -1.7744  1.2158
    7SAPS   C28  849   3.866   0.342   5.394  0.0624 -0.3645  0.1763
    7SAPS   H8R  850   3.766   0.324   5.436 -0.9138 -0.2916 -2.0052
    7SAPS   C29  851   3.893   0.318   5.263 -0.1262  0.3492 -0.0106
    7SAPS   H9R  852   3.808   0.315   5.193  0.6784 -0.2895 -0.9821
    7SAPS  C210  853   4.017   0.325   5.182 -0.5067  0.1611  0.6873
    7SAPS  H10R  854   4.001   0.250   5.101  1.2000  0.7887 -0.2866
    7SAPS  H10S  855   4.112   0.300   5.233  0.3606 -0.7384 -1.2437
    7SAPS  C211  856   4.028   0.458   5.109 -0.8175  0.3172  0.1310
    7SAPS  H11R  857   4.031   0.551   5.167  1.0048 -0.1081  0.7952
    7SAPS  C212  858   4.018   0.480   4.977 -0.5194 -0.3659  0.0740
    7SAPS  H12R  859   4.027   0.581   4.937 -1.4818 -0.1088  0.4644
    7SAPS  C213  860   4.016   0.374   4.869 -0.9603  0.0029 -0.8379
    7SAPS  H13R  861   4.045   0.272   4.903 -1.2266  0.0790 -0.3824
    7SAPS  H13S  862   4.092   0.411   4.796 -0.1303 -2.9467 -1.6245
    7SAPS  C214  863   3.877   0.370   4.803 -0.1159 -0.1486  0.3914
    7SAPS  H14R  864   3.786   0.389   4.863  0.0722 -0.0316  0.6409
    7SAPS  C215  865   3.853   0.332   4.679  0.5482  0.3031  0.9048
    7SAPS  H15R  866   3.752   0.328   4.636  1.3693  0.5044 -1.1796
    7SAPS  C216  867   3.965   0.295   4.576  0.6481  0.2020  0.3837
    7SAPS  H16R  868   4.067   0.303   4.618 -0.8646 -1.0199  4.8489
    7SAPS  H16S  869   3.961   0.367   4.491 -0.1178  0.6675  0.7996
    7SAPS  C217  870   3.935   0.157   4.519  0.4329 -0.2277  0.1455
    7SAPS  H17R  871   3.828   0.150   4.490 -0.6401 -3.1915  4.0904
    7SAPS  H17S  872   3.949   0.082   4.599  1.6471 -0.8649 -0.6213
    7SAPS  C218  873   4.036   0.143   4.409 -0.4062  0.0670 -0.0200
    7SAPS  H18R  874   4.139   0.154   4.449 -0.6407  0.0615  0.5980
    7SAPS  H18S  875   4.033   0.226   4.335 -1.0115 -0.4789 -0.6208
    7SAPS  C219  876   4.011   0.016   4.324 -0.9179 -0.8350  0.3178
    7SAPS  H19R  877   3.927   0.028   4.253  1.1032 -1.4174 -2.3258
    7SAPS  H19S  878   3.979  -0.076   4.378 -1.8719 -0.4623  0.4147
    7SAPS  C220  879   4.136  -0.021   4.241  0.3334  0.1635  0.3524
    7SAPS  H20R  880   4.207  -0.076   4.307  1.1668  0.6491 -0.1297
    7SAPS  H20S  881   4.183   0.073   4.205  1.8781 -1.0516 -0.9404
    7SAPS  H20T  882   4.116  -0.085   4.153  0.5185 -1.8445  1.6960
    7SAPS   C33  883   3.507   0.949   5.698 -0.2396  0.4469  0.3128
    7SAPS   H3X  884   3.576   0.984   5.778 -2.0171  0.6132  1.8527
    7SAPS   H3Y  885   3.415   1.012   5.701 -0.2860  0.3910  0.1075
    7SAPS   C34  886   3.586   0.973   5.565 -0.5087 -0.3908 -0.0215
    7SAPS   H4X  887   3.685   0.923   5.571 -0.0264  0.5046 -0.3754
    7SAPS   H4Y  888   3.622   1.078   5.565 -0.1334 -0.4323  2.7614
    7SAPS   C35  889   3.524   0.937   5.429  0.8136 -0.0852 -0.8749
    7SAPS   H5X  890   3.446   1.009   5.392  0.0294 -0.2859  0.3482
    7SAPS   H5Y  891   3.469   0.841   5.437  0.4155  0.2310  0.4628
    7SAPS   C36  892   3.627   0.918   5.313  0.5922 -0.2615 -0.1715
    7SAPS   H6X  893   3.704   0.996   5.332 -0.2528  1.1599 -2.1267
    7SAPS   H6Y  894   3.575   0.936   5.216  2.0282  2.3486 -0.5614
    7SAPS   C37  895   3.699   0.785   5.320 -0.1648 -0.1601  0.6387
    7SAPS   H7X  896   3.635   0.721   5.255 -0.1057  1.3340 -0.9829
    7SAPS   H7Y  897   3.700   0.734   5.418 -1.5304  0.0241  0.7741
    7SAPS   C38  898   3.839   0.786   5.260  0.4033 -0.2558 -0.1586
    7SAPS   H8X  899   3.886   0.686   5.266 -0.1739 -0.6932 -2.0170
    7SAPS   H8Y  900   3.902   0.843   5.331 -2.2342 -0.9743  3.0091
    7SAPS   C39  901   3.846   0.832   5.117 -0.0172 -0.0309  0.3209
    7SAPS   H9X  902   3.947   0.816   5.075 -0.9831 -2.2737 -1.3419
    7SAPS   H9Y  903   3.837   0.943   5.124 -0.4834 -0.0456 -0.0167
    7SAPS  C310  904   3.747   0.800   5.009  0.5515 -0.0925  0.0028
    7SAPS  H10X  905   3.645   0.841   5.021 -0.4842 -1.8748 -2.0971
    7SAPS  H10Y  906   3.724   0.692   5.024  1.7848 -0.1721  1.7351
    7SAPS  C311  907   3.803   0.827   4.868 -0.3375  0.0239  0.4077
    7SAPS  H11X  908   3.910   0.796   4.863 -0.5323 -0.6932  0.5240
    7SAPS  H11Y  909   3.789   0.932   4.836  0.3331  0.0906  0.3112
    7SAPS  C312  910   3.724   0.749   4.759  0.1541 -0.3284 -1.0560
    7SAPS  H12X  911   3.620   0.786   4.771 -0.1858 -0.6522 -2.8232
    7SAPS  H12Y  912   3.708   0.643   4.792 -2.2171  0.9279  2.4298
    7SAPS  C313  913   3.787   0.759   4.614  0.4234 -0.0227 -0.4508
    7SAPS  H13X  914   3.892   0.724   4.626  0.0264 -0.9814  0.3511
    7SAPS  H13Y  915   3.777   0.865   4.581  0.6059 -0.1475 -0.9113
    7SAPS  C314  916   3.712   0.663   4.516  0.1081  0.8533  0.1425
    7SAPS  H14X  917   3.605   0.693   4.510  0.4713  2.1858 -0.0570
    7SAPS  H14Y  918   3.725   0.562   4.558 -0.5741  1.7389  2.6428
    7SAPS  C315  919   3.761   0.674   4.370  0.5099  0.2404  0.0454
    7SAPS  H15X  920   3.869   0.648   4.365  0.4862  0.1005  0.2445
    7SAPS  H15Y  921   3.747   0.772   4.319 -1.4223 -0.9053 -1.8391
    7SAPS  C316  922   3.695   0.579   4.267 -0.3233  0.3873 -0.0088
    7SAPS  H16X  923   3.705   0.629   4.168  0.0669  0.7800  0.2235
    7SAPS  H16Y  924   3.585   0.570   4.279 -0.1359 -0.8157  0.9487
    7SAPS  C317  925   3.759   0.442   4.262 -0.8265  0.8396  0.6306
    7SAPS  H17X  926   3.766   0.398   4.364 -1.6756 -2.8500 -0.7317
    7SAPS  H17Y  927   3.864   0.459   4.230 -0.5364 -0.2023  0.9893
    7SAPS  C318  928   3.708   0.347   4.155  0.1506  0.2774 -0.8671
    7SAPS  H18X  929   3.598   0.354   4.164  0.0908 -0.0428 -1.3362
    7SAPS  H18Y  930   3.745   0.244   4.175  0.4308  0.6640  0.7858
    7SAPS  H18Z  931   3.748   0.383   4.058 -0.9935  1.7425 -0.8369
    8SAPS     N  932   2.699   1.512   6.461 -0.0370  0.5313 -0.1330
    8SAPS   HN1  933   2.782   1.462   6.423  0.3053  0.2277  0.9925
    8SAPS   HN2  934   2.666   1.586   6.395 -0.3989 -0.5928 -1.2647
    8SAPS   HN3  935   2.733   1.550   6.551  0.1233 -0.9283  0.4513
    8SAPS   C12  936   2.589   1.412   6.485  0.0244  0.2486 -1.1391
    8SAPS  H12A  937   2.600   1.333   6.412  0.5952  1.6000 -2.5575
    8SAPS   C13  938   2.607   1.351   6.637  0.6353  0.1189 -0.5434
    8SAPS  O13A  939   2.685   1.402   6.720  0.4136 -0.2366 -0.2903
    8SAPS  O13B  940   2.552   1.243   6.663  0.1377  0.3166  0.8650
    8SAPS   C11  941   2.451   1.480   6.473  1.0462 -0.4689  0.5745
    8SAPS  H11A  942   2.431   1.562   6.546 -0.9576 -2.9846  3.0563
    8SAPS  H11B  943   2.378   1.397   6.486 -1.3863  1.2932 -0.8315
    8SAPS     P  944   2.452   1.679   6.294  0.0703 -0.1208 -0.0894
    8SAPS   O13  945   2.357   1.756   6.377 -0.4768 -0.6792  0.4761
    8SAPS   O14  946   2.592   1.720   6.302 -0.1214 -0.3117 -0.4477
    8SAPS   O12  947   2.438   1.530   6.339 -0.4816 -0.9322 -0.0038
    8SAPS   O11  948   2.422   1.689   6.142  0.5283  0.1872 -0.4875
    8SAPS    C1  949   2.319   1.603   6.084  0.1466  0.5471  0.1576
    8SAPS    HA  950   2.292   1.505   6.129  1.9447 -0.6469 -1.2267
    8SAPS    HB  951   2.227   1.663   6.066  0.5195  1.1680  0.2797
    8SAPS    C2  952   2.365   1.575   5.935  0.0537 -0.2145 -0.3712
    8SAPS    HS  953   2.464   1.526   5.942 -0.7449 -2.3060 -2.5062
    8SAPS   O21  954   2.366   1.693   5.855  0.4672 -0.2976  0.6922
    8SAPS   C21  955   2.461   1.692   5.757  0.2071 -0.5538 -0.6026
    8SAPS   O22  956   2.560   1.629   5.756 -0.1607 -0.2990  0.7878
    8SAPS   C22  957   2.421   1.795   5.648  0.2614  0.4449  1.5462
    8SAPS   H2R  958   2.318   1.787   5.609 -0.0667 -1.1181  2.6701
    8SAPS   H2S  959   2.428   1.888   5.708  1.3024  0.7430  1.0089
    8SAPS    C3  960   2.271   1.476   5.866  0.4345 -0.4516  0.4683
    8SAPS    HX  961   2.168   1.519   5.870  0.1568 -1.1935  2.0084
    8SAPS    HY  962   2.253   1.391   5.935  0.8710 -2.1280 -1.3866
    8SAPS   O31  963   2.316   1.453   5.723 -0.3970  0.3594 -0.6330
    8SAPS   C31  964   2.349   1.328   5.694 -0.4922 -0.4341 -0.6975
    8SAPS   O32  965   2.348   1.229   5.771 -0.0909 -0.1767  0.0004
    8SAPS   C32  966   2.383   1.311   5.543  0.2093 -0.3913 -0.2309
    8SAPS   H2X  967   2.339   1.212   5.519 -2.6510  0.7595 -0.1450
    8SAPS   H2Y  968   2.492   1.298   5.557  0.1862 -0.2047  0.1448
    8SAPS   C23  969   2.520   1.802   5.530  0.5275 -0.6185  0.3553
    8SAPS   H3R  970   2.542   1.704   5.482  0.3245 -0.3745 -0.2401
    8SAPS   H3S  971   2.613   1.853   5.563 -0.2192  0.7444  0.4248
    8SAPS   C24  972   2.462   1.902   5.428 -0.5570  0.1997  0.0631
    8SAPS   H4R  973   2.423   1.990   5.482  1.1339  0.6014  0.6979
    8SAPS   H4S  974   2.383   1.847   5.371  1.3224 -2.2695 -0.3456
    8SAPS   C25  975   2.570   1.951   5.338 -0.5945 -1.0708 -0.9569
    8SAPS   H5R  976   2.660   1.988   5.391 -0.8097 -3.0837  0.9686
    8SAPS   C26  977   2.572   1.958   5.203 -0.3236 -0.2889  0.0499
    8SAPS   H6R  978   2.659   2.004   5.155  0.7665 -1.3800  0.9287
    8SAPS   C27  979   2.455   1.916   5.123 -0.1166  0.1271  0.4956
    8SAPS   H7R  980   2.365   1.940   5.185  1.8845  1.5332  3.0655
    8SAPS   H7S  981   2.474   1.807   5.128  2.4600  0.4382 -0.8164
    8SAPS   C28  982   2.434   1.958   4.977  0.3436 -0.0286  0.0915
    8SAPS   H8R  983   2.342   2.014   4.955  0.4687  0.1892  0.1188
    8SAPS   C29  984   2.525   1.926   4.878 -0.0384  0.1694  0.4015
    8SAPS   H9R  985   2.500   1.945   4.772  0.3794  1.6934  0.5526
    8SAPS  C210  986   2.659   1.845   4.897  0.1618  0.4195 -0.0773
    8SAPS  H10R  987   2.656   1.761   4.824 -1.1363  1.5598 -1.3668
    8SAPS  H10S  988   2.661   1.791   4.994  1.2560 -0.4312 -0.5454
    8SAPS  C211  989   2.786   1.929   4.897 -0.3949  0.2735 -0.1713
    8SAPS  H11R  990   2.791   1.988   4.989 -2.6149 -0.3433  0.3912
    8SAPS  C212  991   2.884   1.923   4.799  0.1558 -0.3590 -0.3933
    8SAPS  H12R  992   2.975   1.984   4.806 -0.2976  0.5653 -2.0371
    8SAPS  C213  993   2.888   1.843   4.671 -0.1211 -0.6283 -0.4426
    8SAPS  H13R  994   2.848   1.900   4.585  0.2393  0.0442 -0.1755
    8SAPS  H13S  995   2.813   1.762   4.683 -0.4052 -0.1283  1.6928
    8SAPS  C214  996   3.019   1.778   4.629  0.4241  0.0786  0.1379
    8SAPS  H14R  997   3.024   1.678   4.675 -2.1204 -0.2624 -0.1804
    8SAPS  C215  998   3.094   1.807   4.520 -0.4156 -0.3173  0.0227
    8SAPS  H15R  999   3.193   1.761   4.506 -0.9331 -1.7176  0.7689
    8SAPS  C216 1000   3.068   1.926   4.428  0.2503  0.5566 -0.3804
    8SAPS  H16R 1001   3.160   1.980   4.399 -1.9209  4.5880 -0.4678
    8SAPS  H16S 1002   3.012   2.004   4.485  1.3438 -0.0511  1.6215
    8SAPS  C217 1003   2.991   1.898   4.291  0.7578 -0.2480 -0.8253
    8SAPS  H17R 1004   2.912   1.821   4.305  0.5144 -0.0885 -1.3004
    8SAPS  H17S 1005   3.066   1.848   4.227 -0.2666 -1.2010 -1.3145
    8SAPS  C218 1006   2.937   2.027   4.238 -0.2746 -0.1987  0.1623
    8SAPS  H18R 1007   3.015   2.104   4.255  1.4086 -0.9970 -3.0358
    8SAPS  H18S 1008   2.844   2.053   4.291 -0.0782  1.2712 -0.1718
    8SAPS  C219 1009   2.898   2.029   4.091  0.0685  0.2272  0.2814
    8SAPS  H19R 1010   2.835   1.946   4.052 -0.1954  1.3715 -1.8982
    8SAPS  H19S 1011   2.988   2.021   4.026 -1.0185 -1.5101 -1.1040
    8SAPS  C220 1012   2.826   2.160   4.053 -0.0856  0.1745 -0.4943
    8SAPS  H20R 1013   2.824   2.181   3.944 -2.9810  0.7616 -0.4044
    8SAPS  H20S 1014   2.871   2.253   4.095 -2.0674  0.3628  1.3869
    8SAPS  H20T 1015   2.719   2.154   4.081 -0.2505 -1.7766 -1.3784
    8SAPS   C33 1016   2.346   1.421   5.444  0.1128 -0.2438  0.4673
    8SAPS   H3X 1017   2.395   1.519   5.464  1.0339 -0.0138 -2.4696
    8SAPS   H3Y 1018   2.237   1.439   5.436 -0.2678 -2.2755  0.7679
    8SAPS   C34 1019   2.394   1.390   5.301  0.5121  0.5374 -0.1307
    8SAPS   H4X 1020   2.366   1.284   5.283  2.0925  0.3294 -1.6777
    8SAPS   H4Y 1021   2.505   1.378   5.293  0.6853  0.8302  1.5378
    8SAPS   C35 1022   2.332   1.479   5.194 -0.0193  0.3395 -0.4275
    8SAPS   H5X 1023   2.323   1.587   5.218 -1.3892  0.4564 -1.3246
    8SAPS   H5Y 1024   2.231   1.435   5.181  0.6346 -1.6454  0.7997
    8SAPS   C36 1025   2.397   1.468   5.054 -0.3929  0.1967 -0.1643
    8SAPS   H6X 1026   2.430   1.363   5.037 -1.6824 -0.3033  0.3341
    8SAPS   H6Y 1027   2.491   1.528   5.052  0.3912 -1.0002 -0.3932
    8SAPS   C37 1028   2.305   1.518   4.938  0.4034 -0.4132 -0.2415
    8SAPS   H7X 1029   2.287   1.624   4.965  2.2136  0.4625 -2.2133
    8SAPS   H7Y 1030   2.203   1.475   4.928 -1.2965  2.5645  2.4256
    8SAPS   C38 1031   2.375   1.516   4.806 -0.0192 -0.2416  0.1732
    8SAPS   H8X 1032   2.484   1.509   4.826  0.2804  1.1187 -0.8623
    8SAPS   H8Y 1033   2.363   1.608   4.746  0.1252  1.4554  2.5805
    8SAPS   C39 1034   2.348   1.396   4.713  0.3863 -0.2731 -0.0362
    8SAPS   H9X 1035   2.260   1.402   4.646 -1.5022 -2.0235  2.0957
    8SAPS   H9Y 1036   2.333   1.303   4.772 -1.5793 -0.1156 -0.2260
    8SAPS  C310 1037   2.468   1.365   4.621 -0.5715  0.0424  0.7211
    8SAPS  H10X 1038   2.444   1.268   4.572  1.6593  0.8940 -2.3209
    8SAPS  H10Y 1039   2.556   1.352   4.687  0.3235  0.5289 -0.3469
    8SAPS  C311 1040   2.488   1.481   4.515 -0.5141 -0.1321 -0.4177
    8SAPS  H11X 1041   2.521   1.574   4.567 -1.0430 -0.1437 -0.0615
    8SAPS  H11Y 1042   2.388   1.496   4.470 -0.8950 -0.4005  0.3276
    8SAPS  C312 1043   2.590   1.444   4.406 -0.2350  0.1844  0.2445
    8SAPS  H12X 1044   2.594   1.334   4.391  1.8154  0.4592 -1.6628
    8SAPS  H12Y 1045   2.696   1.464   4.430  0.1907  0.4255 -1.6952
    8SAPS  C313 1046   2.551   1.512   4.276  0.2813 -0.8460  0.1278
    8SAPS  H13X 1047   2.625   1.493   4.195  0.3684  0.4283 -0.1165
    8SAPS  H13Y 1048   2.535   1.621   4.291 -1.5315 -1.5170  4.4875
    8SAPS  C314 1049   2.436   1.439   4.208 -0.0456  0.2018  0.6979
    8SAPS  H14X 1050   2.338   1.479   4.240 -0.3229  3.3056 -3.2731
    8SAPS  H14Y 1051   2.442   1.331   4.232 -0.1134  0.1306  0.3951
    8SAPS  C315 1052   2.443   1.459   4.059 -0.2889 -0.2855  0.1890
    8SAPS  H15X 1053   2.526   1.396   4.020 -0.1494  0.5520 -0.9169
    8SAPS  H15Y 1054   2.470   1.564   4.035 -0.8863 -0.6639 -2.4579
    8SAPS  C316 1055   2.310   1.419   3.988  0.0583 -0.3679 -0.0244
    8SAPS  H16X 1056   2.326   1.424   3.878 -0.8632  0.4120 -0.1427
    8SAPS  H16Y 1057   2.215   1.475   4.005  0.6138  1.4142 -2.4027
    8SAPS  C317 1058   2.275   1.271   4.017  0.1626  0.1652 -1.1313
    8SAPS  H17X 1059   2.252   1.249   4.123 -2.8038 -0.3542 -1.8004
    8SAPS  H17Y 1060   2.371   1.218   4.001  1.4098  2.0092 -0.1080
    8SAPS  C318 1061   2.169   1.212   3.922  0.1882 -0.2140 -0.1700
    8SAPS  H18X 1062   2.070   1.259   3.938 -0.4433 -2.0446  1.6019
    8SAPS  H18Y 1063   2.150   1.106   3.947 -0.3627 -0.0793 -0.0024
    8SAPS  H18Z 1064   2.202   1.228   3.817  1.3084  1.2358  0.3540
    9SAPS     N 1065   0.809   6.759   6.278 -0.4034 -0.5965  0.6075
    9SAPS   HN1 1066   0.765   6.765   6.184 -0.1584 -1.1058  0.4604
    9SAPS   HN2 1067   0.897   6.704   6.278  1.3883  1.9680 -2.6700
    9SAPS   HN3 1068   0.744   6.706   6.340 -0.7996 -2.7008 -1.4580
    9SAPS   C12 1069   0.856   6.895   6.318 -0.1739  0.9146  0.5365
    9SAPS  H12A 1070   0.777   6.940   6.376 -1.0706  0.3929 -0.2358
    9SAPS   C13 1071   0.981   6.891   6.416 -0.2866 -0.6302 -0.2450
    9SAPS  O13A 1072   1.044   6.783   6.432 -0.4647 -0.1314 -0.4809
    9SAPS  O13B 1073   1.042   6.999   6.448 -0.2221  0.0755 -0.1345
    9SAPS   C11 1074   0.892   6.985   6.199 -1.4307  0.4927  0.2325
    9SAPS  H11A 1075   0.962   6.947   6.123 -0.6633  1.4637  0.4204
    9SAPS  H11B 1076   0.943   7.077   6.236  3.2684 -0.8290 -2.1944
    9SAPS     P 1077   0.664   7.127   6.142  0.0555  0.0040  0.2161
    9SAPS   O13 1078   0.542   7.081   6.081  0.4481  0.3160 -0.0848
    9SAPS   O14 1079   0.646   7.173   6.279  0.0676 -0.1825  0.1533
    9SAPS   O12 1080   0.771   7.010   6.125  0.5261  0.1150 -0.2905
    9SAPS   O11 1081   0.716   7.242   6.061 -0.2105 -0.0487 -0.4956
    9SAPS    C1 1082   0.849   7.281   6.040 -0.7323 -0.4574  0.0147
    9SAPS    HA 1083   0.848   7.391   6.021 -0.1659 -0.2204  1.2679
    9SAPS    HB 1084   0.906   7.271   6.135 -1.3307  0.7299  0.5239
    9SAPS    C2 1085   0.905   7.205   5.920 -0.0341  0.1252  0.1580
    9SAPS    HS 1086   0.916   7.095   5.937 -3.5057 -0.2314  0.6730
    9SAPS   O21 1087   1.030   7.266   5.878 -0.3028  0.5289 -0.5677
    9SAPS   C21 1088   1.140   7.246   5.962 -0.1027 -0.1925 -0.1213
    9SAPS   O22 1089   1.133   7.174   6.058 -0.1620  0.5251 -0.1579
    9SAPS   C22 1090   1.269   7.314   5.897 -0.1366  0.6343 -0.0167
    9SAPS   H2R 1091   1.242   7.418   5.868 -1.2280 -0.1064 -1.7384
    9SAPS   H2S 1092   1.347   7.322   5.977 -0.8781  1.3616  0.6551
    9SAPS    C3 1093   0.802   7.204   5.808  0.1355  0.1020  0.4303
    9SAPS    HX 1094   0.775   7.311   5.793 -1.3650 -0.3729 -0.4801
    9SAPS    HY 1095   0.706   7.157   5.838 -1.1129  0.8160 -2.2124
    9SAPS   O31 1096   0.853   7.150   5.681  0.8750  0.1370 -0.1509
    9SAPS   C31 1097   0.835   7.018   5.669 -0.2933  0.3110 -0.4897
    9SAPS   O32 1098   0.781   6.944   5.746  0.4780  0.9553 -0.4868
    9SAPS   C32 1099   0.901   6.969   5.543  0.1898  0.0541 -1.0000
    9SAPS   H2X 1100   1.012   6.967   5.546  0.2689  0.5695 -2.4436
    9SAPS   H2Y 1101   0.872   7.049   5.471 -3.4916  1.2218  1.4807
    9SAPS   C23 1102   1.328   7.235   5.780  0.2528 -0.8418 -0.5030
    9SAPS   H3R 1103   1.332   7.127   5.804 -0.1100 -1.2359 -2.0939
    9SAPS   H3S 1104   1.427   7.285   5.773 -0.3797  0.5927  0.3805
    9SAPS   C24 1105   1.249   7.241   5.651  0.2571 -0.0497  0.0127
    9SAPS   H4R 1106   1.198   7.338   5.631 -2.4612 -1.4761 -0.4775
    9SAPS   H4S 1107   1.168   7.165   5.657 -0.0323  0.3647  2.1670
    9SAPS   C25 1108   1.340   7.196   5.539 -0.7816 -0.0360  0.0091
    9SAPS   H5R 1109   1.440   7.161   5.567 -0.3131 -0.0368 -1.5549
    9SAPS   C26 1110   1.326   7.229   5.412  1.0052  0.4417 -0.0104
    9SAPS   H6R 1111   1.395   7.192   5.335  0.9947  2.7206 -1.1608
    9SAPS   C27 1112   1.198   7.279   5.351 -0.1237  0.5400  1.0115
    9SAPS   H7R 1113   1.219   7.352   5.270 -0.9394 -0.2371  0.0695
    9SAPS   H7S 1114   1.136   7.339   5.421 -2.5286  0.4860 -0.9186
    9SAPS   C28 1115   1.117   7.161   5.301 -0.2048 -0.7255  0.9371
    9SAPS   H8R 1116   1.088   7.096   5.384  1.5421 -1.6002  0.9035
    9SAPS   C29 1117   1.093   7.117   5.172  0.0791 -0.0482 -0.8009
    9SAPS   H9R 1118   1.015   7.039   5.169  1.0008 -1.0753  0.5488
    9SAPS  C210 1119   1.120   7.187   5.045  0.8189 -0.1334  0.2874
    9SAPS  H10R 1120   1.147   7.290   5.076  0.4931 -0.2675  1.0437
    9SAPS  H10S 1121   1.025   7.192   4.987  0.4237 -0.0289  0.9407
    9SAPS  C211 1122   1.241   7.145   4.965  0.4554 -0.7264  0.0555
    9SAPS  H11R 1123   1.340   7.140   5.014  1.3710 -1.9490 -1.8116
    9SAPS  C212 1124   1.224   7.133   4.836 -0.5812  0.2244 -0.3025
    9SAPS  H12R 1125   1.308   7.100   4.773 -0.2506 -0.7438  0.6142
    9SAPS  C213 1126   1.105   7.137   4.748  0.1009  0.0390 -0.2849
    9SAPS  H13R 1127   1.004   7.126   4.793 -0.2749 -1.2034 -1.3760
    9SAPS  H13S 1128   1.101   7.045   4.686 -3.7201 -0.3701  0.3638
    9SAPS  C214 1129   1.094   7.253   4.658 -0.7459  0.3883 -0.2005
    9SAPS  H14R 1130   1.078   7.353   4.699  2.6572  0.9801 -0.0431
    9SAPS  C215 1131   1.132   7.258   4.530 -0.0973  0.1406 -0.1722
    9SAPS  H15R 1132   1.124   7.361   4.490  0.8872  0.6949  0.9883
    9SAPS  C216 1133   1.176   7.148   4.442  0.1091 -0.6940 -0.4178
    9SAPS  H16R 1134   1.090   7.135   4.373 -1.3351  1.1992  0.8974
    9SAPS  H16S 1135   1.198   7.053   4.494 -1.1848 -3.5300 -4.5619
    9SAPS  C217 1136   1.305   7.179   4.361  0.2632 -0.0068  0.5898
    9SAPS  H17R 1137   1.343   7.083   4.319 -0.3191 -0.5117  1.1910
    9SAPS  H17S 1138   1.374   7.221   4.437 -1.0313 -0.7362  2.2488
    9SAPS  C218 1139   1.283   7.284   4.253  0.0660  0.2692  0.5160
    9SAPS  H18R 1140   1.243   7.381   4.291  1.2454  0.6240  0.8916
    9SAPS  H18S 1141   1.213   7.251   4.174  0.0269  3.8642 -1.1640
    9SAPS  C219 1142   1.410   7.316   4.170 -0.5268  0.2209  0.3771
    9SAPS  H19R 1143   1.457   7.223   4.133  1.1029  2.1276 -2.7937
    9SAPS  H19S 1144   1.483   7.365   4.237 -2.3420 -0.7587  3.2555
    9SAPS  C220 1145   1.392   7.418   4.049  0.4562 -0.3029 -0.1741
    9SAPS  H20R 1146   1.363   7.519   4.086  0.1251 -1.5623  3.3467
    9SAPS  H20S 1147   1.309   7.386   3.982  0.3350  1.4248 -0.9129
    9SAPS  H20T 1148   1.484   7.432   3.989  1.9471 -0.5533  1.9582
    9SAPS   C33 1149   0.840   6.844   5.468  0.4986 -0.0849 -0.0885
    9SAPS   H3X 1150   0.733   6.842   5.497  0.5783  0.2562  0.2455
    9SAPS   H3Y 1151   0.879   6.748   5.508 -0.2721 -0.7957 -1.0301
    9SAPS   C34 1152   0.853   6.848   5.318  0.2932 -0.4332  0.2391
    9SAPS   H4X 1153   0.962   6.861   5.301  0.3065 -0.5058  0.2666
    9SAPS   H4Y 1154   0.799   6.933   5.273  0.0869 -0.7071 -0.0352
    9SAPS   C35 1155   0.795   6.728   5.241  0.3647  0.5010 -0.6198
    9SAPS   H5X 1156   0.685   6.733   5.255  0.3978 -0.1690 -0.0601
    9SAPS   H5Y 1157   0.826   6.629   5.279  0.9230  0.7487 -0.4292
    9SAPS   C36 1158   0.815   6.742   5.085  0.2005  0.4678 -0.0785
    9SAPS   H6X 1159   0.924   6.744   5.062 -0.3224  1.8546 -2.8894
    9SAPS   H6Y 1160   0.772   6.836   5.046  2.7453  1.1426 -1.5019
    9SAPS   C37 1161   0.773   6.621   5.004 -0.1262 -0.1824 -0.0131
    9SAPS   H7X 1162   0.665   6.597   5.018  0.1548 -0.6148  1.6020
    9SAPS   H7Y 1163   0.819   6.531   5.049 -4.0695 -1.9996  0.8389
    9SAPS   C38 1164   0.795   6.623   4.853 -0.6778  0.2467  0.2900
    9SAPS   H8X 1165   0.891   6.673   4.830 -0.2732 -0.6463 -0.0131
    9SAPS   H8Y 1166   0.721   6.688   4.802 -0.2040  0.0531 -0.6790
    9SAPS   C39 1167   0.788   6.479   4.801  0.0518  0.3436 -0.8872
    9SAPS   H9X 1168   0.690   6.437   4.831  0.2209  1.0424  0.7715
    9SAPS   H9Y 1169   0.875   6.424   4.844  1.0797  2.0416 -0.6801
    9SAPS  C310 1170   0.785   6.477   4.652 -0.4636  0.1999 -0.1708
    9SAPS  H10X 1171   0.825   6.569   4.605 -0.9068 -0.3776 -1.7347
    9SAPS  H10Y 1172   0.683   6.456   4.613 -1.4140  1.4770  1.5103
    9SAPS  C311 1173   0.875   6.361   4.603 -0.6544  0.6056  0.7602
    9SAPS  H11X 1174   0.833   6.267   4.645 -0.5188  0.3794  0.3961
    9SAPS  H11Y 1175   0.979   6.373   4.641 -0.0678  1.9076 -1.1116
    9SAPS  C312 1176   0.865   6.340   4.449  0.2141 -0.2002 -0.4736
    9SAPS  H12X 1177   0.915   6.421   4.392  3.2461 -1.1484  0.5833
    9SAPS  H12Y 1178   0.760   6.335   4.415  0.0853  0.8442 -0.2561
    9SAPS  C313 1179   0.939   6.212   4.401  0.5174 -0.6082  0.2260
    9SAPS  H13X 1180   0.899   6.134   4.469  0.5306 -1.5838 -0.8556
    9SAPS  H13Y 1181   1.049   6.227   4.408  0.4617  0.0042 -0.0890
    9SAPS  C314 1182   0.895   6.190   4.261  0.1471 -0.8760  0.1103
    9SAPS  H14X 1183   0.924   6.275   4.196  1.5451 -0.1393  1.6093
    9SAPS  H14Y 1184   0.785   6.181   4.261 -0.2579  2.6921 -0.6483
    9SAPS  C315 1185   0.971   6.062   4.216  0.0234  0.1616  0.3017
    9SAPS  H15X 1186   0.909   5.990   4.159  0.6846  1.5645 -2.3629
    9SAPS  H15Y 1187   1.011   6.018   4.311 -3.1815 -0.2107  1.5977
    9SAPS  C316 1188   1.077   6.097   4.109 -0.1607 -0.4951 -0.2983
    9SAPS  H16X 1189   1.124   6.185   4.157 -0.2594 -2.0750  3.0119
    9SAPS  H16Y 1190   1.028   6.129   4.015 -0.6652  1.2486  0.5171
    9SAPS  C317 1191   1.194   5.994   4.090  0.0918  0.8607 -0.2445
    9SAPS  H17X 1192   1.240   5.987   4.190  0.9034  0.7075 -0.6224
    9SAPS  H17Y 1193   1.266   6.044   4.022 -0.1556  1.5891  0.0131
    9SAPS  C318 1194   1.149   5.859   4.038  0.1335 -0.8693 -0.3023
    9SAPS  H18X 1195   1.238   5.793   4.034  1.4240  0.7278  0.5684
    9SAPS  H18Y 1196   1.107   5.872   3.936 -0.4112 -0.8043 -0.0753
    9SAPS  H18Z 1197   1.065   5.816   4.097 -2.0602  1.3425 -1.6268
   10SAPS     N 1198   2.503   0.832   6.361 -0.5142  0.4341  0.5348
   10SAPS   HN1 1199   2.546   0.739   6.380  0.6432  0.4685 -1.5620
   10SAPS   HN2 1200   2.585   0.895   6.354 -0.7401  0.6463 -0.3491
   10SAPS   HN3 1201   2.448   0.871   6.440 -0.2666  1.5678  0.1672
   10SAPS   C12 1202   2.427   0.822   6.236 -0.4343  0.4002 -0.3817
   10SAPS  H12A 1203   2.397   0.921   6.204 -1.9429  0.3836  0.8383
   10SAPS   C13 1204   2.521   0.763   6.125 -0.5244  0.0159  0.4687
   10SAPS  O13A 1205   2.638   0.727   6.147 -0.4591 -0.0275  0.1075
   10SAPS  O13B 1206   2.468   0.740   6.014 -0.1285 -0.3749 -0.2371
   10SAPS   C11 1207   2.306   0.738   6.256  0.6502  0.6516 -0.3307
   10SAPS  H11A 1208   2.346   0.635   6.245  1.1516  1.1108 -4.0395
   10SAPS  H11B 1209   2.228   0.754   6.179  1.0731 -1.5007 -1.2875
   10SAPS     P 1210   2.103   0.696   6.415 -0.0634 -0.2402  0.3604
   10SAPS   O13 1211   2.112   0.552   6.448 -0.3181 -0.1106 -0.0819
   10SAPS   O14 1212   2.053   0.787   6.525  0.1850  0.1521 -0.1820
   10SAPS   O12 1213   2.237   0.766   6.379 -0.1066  0.4852  0.2328
   10SAPS   O11 1214   2.021   0.715   6.282  0.1855  0.0986 -0.3432
   10SAPS    C1 1215   1.957   0.840   6.252  0.4325 -0.4694 -0.1077
   10SAPS    HA 1216   1.899   0.875   6.340  0.0593 -3.0898  0.7799
   10SAPS    HB 1217   2.035   0.912   6.221  1.9230 -2.1394 -0.3610
   10SAPS    C2 1218   1.878   0.832   6.121  0.6576  0.1113 -0.0476
   10SAPS    HS 1219   1.849   0.934   6.087 -0.1813  0.3010  1.1717
   10SAPS   O21 1220   1.756   0.754   6.128  0.1511 -0.5586 -0.7598
   10SAPS   C21 1221   1.655   0.804   6.196 -0.1291 -0.3882  0.3572
   10SAPS   O22 1222   1.652   0.906   6.259  0.2826  0.5159 -0.1546
   10SAPS   C22 1223   1.523   0.738   6.152 -0.1840 -0.4470 -0.0489
   10SAPS   H2R 1224   1.540   0.663   6.071  0.0463 -0.2060 -0.2241
   10SAPS   H2S 1225   1.479   0.694   6.244 -0.1671  1.2363  0.7896
   10SAPS    C3 1226   1.960   0.781   6.005  0.2900  0.1799  0.2776
   10SAPS    HX 1227   2.012   0.687   6.032 -1.6526 -1.1867 -0.4624
   10SAPS    HY 1228   2.028   0.867   5.986 -1.6074  2.3711  2.5606
   10SAPS   O31 1229   1.878   0.755   5.892 -0.1980  0.3795  0.3365
   10SAPS   C31 1230   1.945   0.709   5.787 -0.0683 -0.7269  0.0266
   10SAPS   O32 1231   2.070   0.703   5.781  0.1472  0.3139  0.4553
   10SAPS   C32 1232   1.848   0.670   5.676  0.1876 -0.8110 -0.4189
   10SAPS   H2X 1233   1.890   0.667   5.573 -0.4873  1.6064 -0.8339
   10SAPS   H2Y 1234   1.775   0.754   5.669  0.9782 -0.0094  0.6968
   10SAPS   C23 1235   1.425   0.837   6.090 -0.2048 -0.2269 -0.7896
   10SAPS   H3R 1236   1.396   0.915   6.165  1.7195  0.8232 -1.0870
   10SAPS   H3S 1237   1.332   0.785   6.060 -0.4149 -0.5444  0.3403
   10SAPS   C24 1238   1.478   0.908   5.968 -0.2427  0.7483  0.0683
   10SAPS   H4R 1239   1.553   0.842   5.919 -0.4246 -0.5301  1.4346
   10SAPS   H4S 1240   1.540   0.996   5.998 -1.5865  2.1873 -1.2238
   10SAPS   C25 1241   1.370   0.958   5.877 -0.3935  0.4620  0.3701
   10SAPS   H5R 1242   1.291   1.021   5.921  1.2256  1.3643  2.1661
   10SAPS   C26 1243   1.356   0.909   5.749  0.8666  0.2304 -0.2689
   10SAPS   H6R 1244   1.268   0.948   5.697  0.3487 -1.0313 -0.3550
   10SAPS   C27 1245   1.440   0.814   5.662  0.4803  0.5351 -0.1737
   10SAPS   H7R 1246   1.451   0.728   5.731 -0.0046  0.2160 -0.4909
   10SAPS   H7S 1247   1.542   0.852   5.639  0.7629 -0.9325 -1.5348
   10SAPS   C28 1248   1.378   0.761   5.535 -0.2903  0.0571  0.4084
   10SAPS   H8R 1249   1.278   0.718   5.552 -0.1266 -0.6720 -0.3581
   10SAPS   C29 1250   1.419   0.776   5.410  0.5807  0.1991  0.2018
   10SAPS   H9R 1251   1.351   0.751   5.327  0.6738  1.4244 -0.2567
   10SAPS  C210 1252   1.545   0.840   5.362  0.6153  0.4219 -0.8227
   10SAPS  H10R 1253   1.576   0.916   5.437 -0.7730 -1.4742  1.8223
   10SAPS  H10S 1254   1.519   0.896   5.270  0.1596  0.0111 -0.9493
   10SAPS  C211 1255   1.654   0.736   5.337  0.1086  0.0440  0.0640
   10SAPS  H11R 1256   1.727   0.744   5.418 -0.3050  0.6229  0.3844
   10SAPS  C212 1257   1.677   0.661   5.225  0.0686 -0.5123 -0.7058
   10SAPS  H12R 1258   1.758   0.588   5.238 -0.3510 -0.5258  2.4416
   10SAPS  C213 1259   1.587   0.656   5.102 -0.7145 -0.2879  0.3038
   10SAPS  H13R 1260   1.556   0.760   5.078  1.4222  0.5948  1.1689
   10SAPS  H13S 1261   1.491   0.609   5.132 -0.9343 -1.2727 -1.7832
   10SAPS  C214 1262   1.650   0.585   4.984 -0.5607 -0.4268  0.2492
   10SAPS  H14R 1263   1.755   0.559   5.003 -0.7468 -0.9958  0.5444
   10SAPS  C215 1264   1.598   0.570   4.859 -0.7272 -0.3709  0.0384
   10SAPS  H15R 1265   1.651   0.503   4.790 -0.8338  0.9666 -1.3977
   10SAPS  C216 1266   1.463   0.613   4.823  0.3093 -0.4496  0.8227
   10SAPS  H16R 1267   1.395   0.596   4.909 -0.9794  0.7054  0.0612
   10SAPS  H16S 1268   1.422   0.550   4.742 -1.4795  1.2149  0.3727
   10SAPS  C217 1269   1.466   0.763   4.767  0.2972 -0.6763 -0.1583
   10SAPS  H17R 1270   1.507   0.834   4.843  0.3649 -1.5536  0.6411
   10SAPS  H17S 1271   1.360   0.795   4.759  0.5559  0.4731  0.5867
   10SAPS  C218 1272   1.530   0.771   4.631 -0.8028 -0.0230  0.3986
   10SAPS  H18R 1273   1.515   0.681   4.568  2.4962  0.1402 -0.8570
   10SAPS  H18S 1274   1.637   0.801   4.643 -0.7909 -0.6954  2.3607
   10SAPS  C219 1275   1.476   0.880   4.534  0.6339  0.1988  0.2736
   10SAPS  H19R 1276   1.486   0.980   4.581  0.2732 -1.1337  3.4031
   10SAPS  H19S 1277   1.369   0.854   4.521  0.4214  0.4210  1.4692
   10SAPS  C220 1278   1.541   0.881   4.399  0.5626  0.0860  0.1436
   10SAPS  H20R 1279   1.477   0.941   4.329  2.2899  2.2871  0.3444
   10SAPS  H20S 1280   1.554   0.780   4.354 -3.1726 -0.1503 -0.7541
   10SAPS  H20T 1281   1.632   0.944   4.407  0.6932 -0.2070  1.1140
   10SAPS   C33 1282   1.774   0.546   5.718  0.1603  0.6398 -0.1544
   10SAPS   H3X 1283   1.719   0.574   5.810  0.8524 -0.3462  0.5702
   10SAPS   H3Y 1284   1.850   0.470   5.746  0.3369  1.2432  1.0300
   10SAPS   C34 1285   1.693   0.492   5.598 -0.5806 -0.1741 -0.3583
   10SAPS   H4X 1286   1.622   0.566   5.556 -0.1749  1.2485  1.3320
   10SAPS   H4Y 1287   1.635   0.412   5.648  0.2591 -0.3999  0.2681
   10SAPS   C35 1288   1.772   0.413   5.492 -0.2073  0.1178  0.2970
   10SAPS   H5X 1289   1.855   0.358   5.542  1.9422  1.7925 -1.2118
   10SAPS   H5Y 1290   1.827   0.476   5.420  0.9001  1.7803  2.4615
   10SAPS   C36 1291   1.685   0.320   5.414 -0.1856  0.1487 -0.8574
   10SAPS   H6X 1292   1.589   0.368   5.387 -0.6834  0.1540  0.8675
   10SAPS   H6Y 1293   1.663   0.223   5.461  0.8667  0.5142  0.4434
   10SAPS   C37 1294   1.756   0.275   5.286 -0.2460  0.8327  0.1270
   10SAPS   H7X 1295   1.851   0.219   5.301 -1.3607 -0.7913  1.5544
   10SAPS   H7Y 1296   1.790   0.367   5.234 -1.9487  1.1607 -0.4552
   10SAPS   C38 1297   1.658   0.208   5.184 -1.1538  0.0296 -0.1506
   10SAPS   H8X 1298   1.571   0.273   5.159 -1.5695 -1.1655 -2.0474
   10SAPS   H8Y 1299   1.606   0.118   5.223 -0.8143 -0.8782 -1.7081
   10SAPS   C39 1300   1.733   0.164   5.050  0.0257 -0.6541 -0.9383
   10SAPS   H9X 1301   1.782   0.066   5.069  0.2463 -0.1076  1.6355
   10SAPS   H9Y 1302   1.807   0.246   5.045 -1.0067  0.3743 -0.1761
   10SAPS  C310 1303   1.643   0.161   4.929  0.3190  0.0280  0.1423
   10SAPS  H10X 1304   1.572   0.246   4.921  2.1247  1.6335  0.5900
   10SAPS  H10Y 1305   1.588   0.064   4.925 -1.2916  0.8416  1.3750
   10SAPS  C311 1306   1.724   0.186   4.805  0.7003  0.5400 -0.0050
   10SAPS  H11X 1307   1.821   0.132   4.801  3.0412  4.1146  2.6455
   10SAPS  H11Y 1308   1.746   0.293   4.789 -3.3791  1.3291 -1.4449
   10SAPS  C312 1309   1.648   0.151   4.682 -0.6574  0.4282  0.2988
   10SAPS  H12X 1310   1.544   0.190   4.683  0.0536  2.7176  3.9127
   10SAPS  H12Y 1311   1.640   0.041   4.672 -1.9968  0.4710  0.7633
   10SAPS  C313 1312   1.737   0.194   4.560  0.5762  0.5278 -0.3261
   10SAPS  H13X 1313   1.701   0.119   4.486 -0.9704  0.9981 -0.0962
   10SAPS  H13Y 1314   1.840   0.163   4.587  0.8200 -0.6545 -2.3287
   10SAPS  C314 1315   1.735   0.344   4.527  0.4472 -0.3739 -0.5201
   10SAPS  H14X 1316   1.804   0.386   4.604  1.9930  0.3414 -2.2378
   10SAPS  H14Y 1317   1.630   0.380   4.539  0.9836  0.9327  0.4986
   10SAPS  C315 1318   1.796   0.369   4.392 -0.0915  0.1575  0.2962
   10SAPS  H15X 1319   1.733   0.321   4.314 -1.2957  1.0633  0.6796
   10SAPS  H15Y 1320   1.901   0.335   4.383  0.8707  3.1485 -1.0721
   10SAPS  C316 1321   1.794   0.517   4.355  0.4903  0.2574 -0.3615
   10SAPS  H16X 1322   1.866   0.562   4.427  0.9609 -1.8060  0.5285
   10SAPS  H16Y 1323   1.691   0.557   4.365  0.6480  0.6908 -0.4270
   10SAPS  C317 1324   1.857   0.545   4.220  0.2948 -0.1987 -0.1794
   10SAPS  H17X 1325   1.793   0.492   4.146 -1.3440 -0.8024  1.5599
   10SAPS  H17Y 1326   1.964   0.516   4.217  0.1818 -0.5645 -0.8252
   10SAPS  C318 1327   1.859   0.696   4.174 -0.3184  0.2959  0.5185
   10SAPS  H18X 1328   1.877   0.708   4.065 -1.5583  0.5482  0.3288
   10SAPS  H18Y 1329   1.945   0.746   4.224  1.2129 -1.2565 -0.4254
   10SAPS  H18Z 1330   1.761   0.740   4.198  0.5493  2.3280  0.5003
   11SAPS     N 1331   0.138   4.320   1.936 -0.0174 -0.4572  0.9134
   11SAPS   HN1 1332   0.099   4.374   2.016 -3.2052 -0.5699 -0.4090
   11SAPS   HN2 1333   0.230   4.364   1.916 -0.3189 -1.0619 -2.3714
   11SAPS   HN3 1334   0.079   4.340   1.853 -1.8314 -0.5516  2.1218
   11SAPS   C12 1335   0.137   4.179   1.969  0.1139 -0.3765 -0.5633
   11SAPS  H12A 1336   0.039   4.165   2.012  0.1023 -0.0564 -0.4815
   11SAPS   C13 1337   0.141   4.089   1.849  0.3408  0.5027 -0.1535
   11SAPS  O13A 1338   0.118   4.134   1.734  0.8895 -0.2876  0.2048
   11SAPS  O13B 1339   0.145   3.964   1.862 -0.1738 -0.1292  0.3491
   11SAPS   C11 1340   0.261   4.143   2.060  0.7728  0.3984  0.3849
   11SAPS  H11A 1341   0.254   4.035   2.086 -2.1682  0.6678  1.0062
   11SAPS  H11B 1342   0.259   4.199   2.156 -0.5010 -2.0827  1.9092
   11SAPS     P 1343   0.524   4.133   2.068 -0.2802 -0.1476 -0.0057
   11SAPS   O13 1344   0.562   4.004   1.999 -0.5118 -0.2438 -0.1958
   11SAPS   O14 1345   0.613   4.249   2.062  0.0328 -0.6276 -1.0994
   11SAPS   O12 1346   0.385   4.178   1.996  0.2820  0.8529  0.3413
   11SAPS   O11 1347   0.487   4.089   2.217  0.2682  0.3909  0.2321
   11SAPS    C1 1348   0.498   4.170   2.331  0.3934 -0.6455  0.1845
   11SAPS    HA 1349   0.578   4.246   2.316 -1.7971  1.5355 -1.1965
   11SAPS    HB 1350   0.403   4.224   2.351  0.2984  0.2191 -2.3120
   11SAPS    C2 1351   0.543   4.082   2.456 -0.1854 -0.1040  0.7944
   11SAPS    HS 1352   0.631   4.024   2.419  2.6290  3.0745  1.9715
   11SAPS   O21 1353   0.435   4.009   2.511  0.5274  0.7010 -0.1303
   11SAPS   C21 1354   0.424   3.885   2.449  0.0447 -0.3757 -1.0438
   11SAPS   O22 1355   0.508   3.832   2.379  0.4512 -0.1343  0.2858
   11SAPS   C22 1356   0.278   3.825   2.486 -1.0239  0.0515  0.3218
   11SAPS   H2R 1357   0.242   3.880   2.576  1.9204  2.1251  0.4011
   11SAPS   H2S 1358   0.206   3.849   2.404 -1.3362 -3.3676 -0.5670
   11SAPS    C3 1359   0.597   4.169   2.566 -0.3692 -0.5558 -0.5167
   11SAPS    HX 1360   0.518   4.238   2.601 -1.0136 -0.9660 -1.1282
   11SAPS    HY 1361   0.680   4.231   2.525  2.2375 -2.5636  1.3498
   11SAPS   O31 1362   0.638   4.094   2.689 -0.5320  0.2010 -0.4312
   11SAPS   C31 1363   0.747   4.013   2.688 -0.6408  0.3413 -0.2766
   11SAPS   O32 1364   0.808   3.977   2.588 -0.0132 -0.5835 -0.1437
   11SAPS   C32 1365   0.777   3.971   2.835 -0.4615  0.1478  0.1409
   11SAPS   H2X 1366   0.684   3.961   2.895  0.2269 -0.2596  1.1540
   11SAPS   H2Y 1367   0.828   4.063   2.869 -0.0115 -0.5232  1.3531
   11SAPS   C23 1368   0.280   3.671   2.499 -0.6874  0.1156  0.0954
   11SAPS   H3R 1369   0.352   3.634   2.423  1.4553  0.1507  1.9796
   11SAPS   H3S 1370   0.177   3.638   2.477 -1.3088  1.3811  1.0153
   11SAPS   C24 1371   0.309   3.619   2.643 -0.0217  0.2868  0.5002
   11SAPS   H4R 1372   0.414   3.645   2.668  0.2663  2.4184 -2.5574
   11SAPS   H4S 1373   0.311   3.508   2.638  0.8426  0.3262 -0.1791
   11SAPS   C25 1374   0.204   3.654   2.756 -0.8265 -0.0309 -0.0049
   11SAPS   H5R 1375   0.108   3.602   2.743  0.4357 -2.6020  0.3345
   11SAPS   C26 1376   0.225   3.744   2.855  0.1706  0.1786 -0.0100
   11SAPS   H6R 1377   0.137   3.760   2.919 -0.4814 -0.6848 -0.6649
   11SAPS   C27 1378   0.347   3.823   2.884 -0.4251  0.2423  0.6741
   11SAPS   H7R 1379   0.317   3.913   2.941  0.6505  1.8119 -1.1259
   11SAPS   H7S 1380   0.394   3.833   2.784 -2.9308 -1.2750 -0.7425
   11SAPS   C28 1381   0.449   3.749   2.967 -0.0591 -0.1671  0.1664
   11SAPS   H8R 1382   0.525   3.694   2.910 -1.7410 -3.2430  0.6539
   11SAPS   C29 1383   0.449   3.747   3.102  0.5184 -0.3323 -0.4031
   11SAPS   H9R 1384   0.517   3.677   3.152 -1.8103 -2.5936 -0.2115
   11SAPS  C210 1385   0.350   3.816   3.193 -0.3734 -0.4474  0.5534
   11SAPS  H10R 1386   0.266   3.744   3.207  0.4637 -1.4467  0.6118
   11SAPS  H10S 1387   0.311   3.908   3.145  5.7641  2.8716  0.9545
   11SAPS  C211 1388   0.411   3.853   3.331  0.4016  0.9225  0.1897
   11SAPS  H11R 1389   0.503   3.913   3.331  0.6654  0.5262 -0.2263
   11SAPS  C212 1390   0.351   3.842   3.456 -0.1104  0.3358 -0.3442
   11SAPS  H12R 1391   0.393   3.885   3.548 -0.2344  1.0047 -0.5928
   11SAPS  C213 1392   0.217   3.779   3.485 -0.2403  0.1523  0.4700
   11SAPS  H13R 1393   0.206   3.690   3.419  0.2625  3.3659 -4.4738
   11SAPS  H13S 1394   0.139   3.851   3.452  1.3646  1.1544 -1.3805
   11SAPS  C214 1395   0.215   3.752   3.633  1.1974 -0.4175  0.1965
   11SAPS  H14R 1396   0.306   3.708   3.677  0.4243 -2.5812 -0.2865
   11SAPS  C215 1397   0.104   3.768   3.706  0.0569  0.3508 -0.2375
   11SAPS  H15R 1398   0.103   3.751   3.814  1.6587  3.3508  0.3476
   11SAPS  C216 1399  -0.019   3.828   3.655 -0.9111  0.4102  0.7751
   11SAPS  H16R 1400  -0.068   3.761   3.581  2.0981  0.1475 -1.1696
   11SAPS  H16S 1401  -0.002   3.915   3.588 -4.1745 -1.0979 -2.3744
   11SAPS  C217 1402  -0.122   3.864   3.766 -1.2689 -0.4528 -0.5581
   11SAPS  H17R 1403  -0.134   3.778   3.835 -2.8555  0.1995  0.0301
   11SAPS  H17S 1404  -0.222   3.884   3.722 -1.0494 -1.3367 -1.4874
   11SAPS  C218 1405  -0.065   3.992   3.852 -0.1721  0.5533 -1.0773
   11SAPS  H18R 1406  -0.064   4.086   3.793  2.3248  1.0700 -0.3287
   11SAPS  H18S 1407   0.040   3.967   3.880 -0.8806  0.3116  1.5947
   11SAPS  C219 1408  -0.133   4.020   3.986 -0.3369  0.1565 -0.0577
   11SAPS  H19R 1409  -0.130   3.929   4.050  0.3115 -0.9879 -1.6449
   11SAPS  H19S 1410  -0.242   4.039   3.979 -0.4261  0.6317  2.0241
   11SAPS  C220 1411  -0.063   4.125   4.068 -0.1798 -0.6201  0.4743
   11SAPS  H20R 1412  -0.127   4.143   4.157 -0.6217  0.4679 -0.0534
   11SAPS  H20S 1413  -0.053   4.223   4.018  0.4012 -0.7817  0.2668
   11SAPS  H20T 1414   0.040   4.094   4.096  0.3220 -0.2700 -0.8998
   11SAPS   C33 1415   0.870   3.848   2.847  0.0999  0.0440  0.0080
   11SAPS   H3X 1416   0.974   3.886   2.835  0.4912 -0.5118  1.3974
   11SAPS   H3Y 1417   0.854   3.767   2.772  1.9934 -0.3107 -0.0735
   11SAPS   C34 1418   0.858   3.785   2.983  0.1911  0.0181 -0.0972
   11SAPS   H4X 1419   0.913   3.689   2.983 -1.1950 -0.8234  0.9324
   11SAPS   H4Y 1420   0.753   3.753   3.002  0.7949 -1.5269  0.7787
   11SAPS   C35 1421   0.911   3.874   3.095 -0.2272  0.0146 -0.3129
   11SAPS   H5X 1422   0.859   3.970   3.079  1.5116  1.2079  0.8437
   11SAPS   H5Y 1423   1.017   3.904   3.086 -1.0489  3.4576  0.1737
   11SAPS   C36 1424   0.891   3.818   3.238  0.6559 -0.2644 -0.1475
   11SAPS   H6X 1425   0.958   3.731   3.251 -0.9990 -1.2927  2.1426
   11SAPS   H6Y 1426   0.784   3.792   3.249  0.2886  1.3130  0.2809
   11SAPS   C37 1427   0.927   3.920   3.346 -0.1588  0.0361  0.6559
   11SAPS   H7X 1428   0.857   4.006   3.351  0.3270  0.6251 -1.5280
   11SAPS   H7Y 1429   1.030   3.960   3.337  0.1322 -0.6977  0.6546
   11SAPS   C38 1430   0.914   3.845   3.481 -0.4162  0.0660  0.2853
   11SAPS   H8X 1431   0.947   3.914   3.563 -0.5043 -2.3630  2.4907
   11SAPS   H8Y 1432   0.983   3.759   3.485 -0.2572  0.1735 -0.1050
   11SAPS   C39 1433   0.773   3.793   3.517 -0.0518 -0.7382  0.2614
   11SAPS   H9X 1434   0.736   3.717   3.444 -0.0570 -0.4526 -0.0374
   11SAPS   H9Y 1435   0.711   3.885   3.505  1.3054  0.1204 -0.4922
   11SAPS  C310 1436   0.762   3.737   3.662 -0.4547 -0.5564  0.1941
   11SAPS  H10X 1437   0.800   3.810   3.737  0.8488  1.6256 -2.4029
   11SAPS  H10Y 1438   0.821   3.643   3.664 -0.8344 -0.8032 -0.0116
   11SAPS  C311 1439   0.618   3.698   3.688 -0.1875  1.2091  0.0839
   11SAPS  H11X 1440   0.585   3.619   3.617  1.6913  1.8601 -1.6147
   11SAPS  H11Y 1441   0.558   3.790   3.673  2.2399  3.8213  4.3246
   11SAPS  C312 1442   0.602   3.641   3.830 -0.4522 -0.1509  0.0481
   11SAPS  H12X 1443   0.497   3.668   3.855 -0.9509 -1.5271 -0.4531
   11SAPS  H12Y 1444   0.668   3.710   3.886  1.5096 -0.5731 -1.6443
   11SAPS  C313 1445   0.636   3.497   3.849 -0.0405  0.4227  0.3452
   11SAPS  H13X 1446   0.742   3.477   3.820  0.0977 -2.1518  2.3044
   11SAPS  H13Y 1447   0.577   3.446   3.770 -0.0951  2.1473 -0.7892
   11SAPS  C314 1448   0.597   3.464   3.994 -0.1683 -0.1945  0.0043
   11SAPS  H14X 1449   0.622   3.550   4.061 -0.5845 -1.7751  2.2917
   11SAPS  H14Y 1450   0.654   3.376   4.033  1.1484  0.6729  0.1311
   11SAPS  C315 1451   0.447   3.428   4.017 -0.3519 -0.0230  0.2234
   11SAPS  H15X 1452   0.435   3.322   4.046 -0.8090  0.3107  1.2953
   11SAPS  H15Y 1453   0.386   3.445   3.926  0.4814 -0.3625 -0.4157
   11SAPS  C316 1454   0.371   3.516   4.125  0.2179 -0.0833  0.0385
   11SAPS  H16X 1455   0.262   3.494   4.128  0.2874 -0.3214  2.2679
   11SAPS  H16Y 1456   0.377   3.625   4.103  0.1619 -0.0716  0.0804
   11SAPS  C317 1457   0.434   3.482   4.257 -0.0722 -0.1934  0.0396
   11SAPS  H17X 1458   0.545   3.491   4.253 -0.0310 -0.2502  0.8365
   11SAPS  H17Y 1459   0.417   3.373   4.266  1.8481 -0.3636  3.6984
   11SAPS  C318 1460   0.373   3.558   4.376 -0.4109 -0.2388 -0.4836
   11SAPS  H18X 1461   0.395   3.667   4.380 -2.3815  0.3905 -3.2931
   11SAPS  H18Y 1462   0.411   3.511   4.469 -1.6874  1.3945  0.9219
   11SAPS  H18Z 1463   0.263   3.552   4.365 -0.3428  0.8518 -2.1002
   12SAPS     N 1464   0.614   3.344   1.688 -0.8522 -1.3128 -0.2678
   12SAPS   HN1 1465   0.553   3.350   1.604 -1.7707  3.0249  0.5085
   12SAPS   HN2 1466   0.574   3.274   1.753  0.9129  1.3755  4.1303
   12SAPS   HN3 1467   0.608   3.431   1.745 -2.5993 -1.6022  0.0330
   12SAPS   C12 1468   0.753   3.312   1.663 -0.1079  0.0884  0.1729
   12SAPS  H12A 1469   0.783   3.211   1.642  1.8645  0.7956 -0.5816
   12SAPS   C13 1470   0.821   3.388   1.553 -0.8833 -0.2714 -0.0361
   12SAPS  O13A 1471   0.763   3.483   1.493  0.5846  0.4441  0.4284
   12SAPS  O13B 1472   0.930   3.342   1.513 -0.3259  0.2901  0.8524
   12SAPS   C11 1473   0.830   3.330   1.799  0.5541  0.2657  0.1256
   12SAPS  H11A 1474   0.937   3.315   1.774  0.6388  0.6094  0.2625
   12SAPS  H11B 1475   0.803   3.252   1.873 -1.5881  1.0470  0.2478
   12SAPS     P 1476   0.773   3.490   1.999 -0.0940 -0.1664 -0.2012
   12SAPS   O13 1477   0.828   3.627   2.040 -0.5766 -0.3814 -0.4037
   12SAPS   O14 1478   0.626   3.478   2.016 -0.1919  0.4858 -0.6511
   12SAPS   O12 1479   0.811   3.461   1.848 -0.3313 -0.1386  0.1664
   12SAPS   O11 1480   0.840   3.370   2.079 -0.3076 -0.5681 -0.1323
   12SAPS    C1 1481   0.984   3.379   2.103 -0.0203 -0.2293  0.3406
   12SAPS    HA 1482   1.033   3.295   2.050  0.6481 -0.4554  1.2982
   12SAPS    HB 1483   1.030   3.476   2.077  0.2200 -0.5474 -0.4634
   12SAPS    C2 1484   1.019   3.366   2.252  0.2575  0.1544 -0.3976
   12SAPS    HS 1485   1.130   3.364   2.260  0.2162  1.3082  0.6664
   12SAPS   O21 1486   0.954   3.250   2.312  0.1518  0.2699  0.1764
   12SAPS   C21 1487   1.019   3.136   2.273 -0.0179 -0.4206  0.0317
   12SAPS   O22 1488   1.113   3.133   2.200  0.0155 -0.4308  0.3284
   12SAPS   C22 1489   0.962   3.016   2.355 -0.4851 -0.7229  0.0863
   12SAPS   H2R 1490   0.979   3.034   2.463  1.5993 -0.9326 -0.1545
   12SAPS   H2S 1491   0.855   3.011   2.328 -0.7700  0.5942  0.8576
   12SAPS    C3 1492   0.974   3.499   2.331 -0.3416  0.8062  0.6466
   12SAPS    HX 1493   0.863   3.506   2.325 -0.6780 -3.0498 -0.5020
   12SAPS    HY 1494   1.021   3.581   2.273  0.0365  0.5127  0.5391
   12SAPS   O31 1495   1.016   3.500   2.473  0.6360 -0.2278 -0.4858
   12SAPS   C31 1496   1.128   3.569   2.502  0.7209 -1.0842  0.2918
   12SAPS   O32 1497   1.212   3.601   2.418 -0.5994  0.0592 -0.9403
   12SAPS   C32 1498   1.120   3.617   2.646 -0.6892 -0.7611  0.2756
   12SAPS   H2X 1499   1.056   3.545   2.701 -0.7716  0.5099  1.9309
   12SAPS   H2Y 1500   1.079   3.719   2.666 -0.0872 -0.3044 -0.7498
   12SAPS   C23 1501   1.025   2.884   2.330  0.0229  0.6033  0.4230
   12SAPS   H3R 1502   1.132   2.885   2.362  0.1494 -2.1962  0.3682
   12SAPS   H3S 1503   1.030   2.854   2.223  2.0530 -0.2336  0.7035
   12SAPS   C24 1504   0.949   2.781   2.412  0.2323 -0.1884  0.2935
   12SAPS   H4R 1505   0.844   2.783   2.374  0.5491  0.8428 -0.5922
   12SAPS   H4S 1506   0.951   2.814   2.518  2.4051  2.2377 -0.3944
   12SAPS   C25 1507   1.011   2.645   2.389 -0.1771  0.3478 -0.3764
   12SAPS   H5R 1508   1.046   2.617   2.289  0.6474 -0.3863  0.1034
   12SAPS   C26 1509   1.037   2.555   2.481  0.0331 -0.1948 -0.1776
   12SAPS   H6R 1510   1.094   2.467   2.447  1.9401  0.9421 -0.0560
   12SAPS   C27 1511   1.012   2.546   2.628 -0.1981  0.1304  0.3291
   12SAPS   H7R 1512   1.090   2.473   2.656  1.7325  2.5312  1.5454
   12SAPS   H7S 1513   0.914   2.495   2.636  0.5053 -1.1863  0.8219
   12SAPS   C28 1514   1.022   2.658   2.731  0.0307  0.6049 -0.2941
   12SAPS   H8R 1515   1.087   2.742   2.704 -1.0929  2.4994  2.4600
   12SAPS   C29 1516   0.975   2.649   2.860 -0.3529 -0.5940 -0.0902
   12SAPS   H9R 1517   0.993   2.744   2.914  1.6191  1.0806 -3.3539
   12SAPS  C210 1518   0.888   2.540   2.920  0.3992 -0.3467  0.3450
   12SAPS  H10R 1519   0.835   2.481   2.842 -1.1104  0.1179  0.9629
   12SAPS  H10S 1520   0.805   2.585   2.979 -0.4981 -0.6200 -0.6669
   12SAPS  C211 1521   0.965   2.450   3.010  0.0540 -0.2834 -0.3762
   12SAPS  H11R 1522   1.059   2.496   3.043  1.2890 -0.2453 -3.5884
   12SAPS  C212 1523   0.925   2.328   3.056 -0.1237 -0.3526 -0.5213
   12SAPS  H12R 1524   0.991   2.278   3.129 -1.5256 -0.0923  0.9767
   12SAPS  C213 1525   0.812   2.238   3.011  0.6442 -0.3149  0.5705
   12SAPS  H13R 1526   0.713   2.289   3.008 -0.4832 -2.2904  1.5853
   12SAPS  H13S 1527   0.814   2.155   3.085  0.5133 -0.3507  0.5355
   12SAPS  C214 1528   0.821   2.177   2.864  0.0057 -0.3481 -0.5309
   12SAPS  H14R 1529   0.834   2.251   2.783  3.1457 -3.4057 -3.1273
   12SAPS  C215 1530   0.837   2.048   2.827  0.2534 -0.0246  0.3624
   12SAPS  H15R 1531   0.857   2.019   2.723  1.0602  1.2908  0.1238
   12SAPS  C216 1532   0.843   1.932   2.921 -0.0805 -0.5858 -0.0322
   12SAPS  H16R 1533   0.820   1.842   2.860  0.4625 -0.3151 -0.6435
   12SAPS  H16S 1534   0.770   1.936   3.005  1.3746  0.3175  1.2405
   12SAPS  C217 1535   0.976   1.923   2.987 -0.3105  0.2803 -0.8999
   12SAPS  H17R 1536   0.972   1.847   3.067 -0.1497  2.2192  1.0438
   12SAPS  H17S 1537   1.007   2.011   3.047 -0.0384  0.1550 -0.8555
   12SAPS  C218 1538   1.105   1.888   2.910  0.4411  0.2624  0.2692
   12SAPS  H18R 1539   1.179   1.884   2.993 -0.7592 -0.5453  1.3422
   12SAPS  H18S 1540   1.141   1.961   2.835  2.1867 -2.0355 -1.3002
   12SAPS  C219 1541   1.113   1.762   2.823  0.3827  0.3111 -0.6844
   12SAPS  H19R 1542   1.063   1.782   2.726 -0.1298  2.4337 -0.0360
   12SAPS  H19S 1543   1.055   1.681   2.871  2.2135  0.5843  2.2526
   12SAPS  C220 1544   1.251   1.702   2.804 -0.6580 -0.4792  0.4260
   12SAPS  H20R 1545   1.318   1.784   2.769 -2.6641  0.8888 -0.3945
   12SAPS  H20S 1546   1.252   1.618   2.731 -0.6689  0.6830 -0.9552
   12SAPS  H20T 1547   1.294   1.657   2.896  3.0804  1.9545  0.1011
   12SAPS   C33 1548   1.268   3.632   2.711 -0.0709 -0.0910 -0.4151
   12SAPS   H3X 1549   1.319   3.722   2.669  0.8945 -1.9599 -3.6055
   12SAPS   H3Y 1550   1.328   3.546   2.673 -1.7862 -0.5486 -2.2794
   12SAPS   C34 1551   1.282   3.625   2.864 -0.6901 -0.1750  0.8872
   12SAPS   H4X 1552   1.243   3.716   2.914  1.5405  0.6342  1.2594
   12SAPS   H4Y 1553   1.390   3.635   2.886 -0.8057 -0.5105  1.6264
   12SAPS   C35 1554   1.229   3.502   2.931  0.0658 -0.1171  0.3991
   12SAPS   H5X 1555   1.304   3.421   2.933  0.4873  0.2666  0.2779
   12SAPS   H5Y 1556   1.143   3.466   2.870  0.9939 -1.4833 -0.1400
   12SAPS   C36 1557   1.191   3.526   3.077  0.1414  0.0239 -0.4765
   12SAPS   H6X 1558   1.147   3.628   3.082  2.4740  1.0920  0.0162
   12SAPS   H6Y 1559   1.287   3.540   3.132 -0.2052  0.1948  0.0858
   12SAPS   C37 1560   1.108   3.432   3.163  0.0146  0.8859 -0.0398
   12SAPS   H7X 1561   1.127   3.325   3.141 -0.8264  0.1802  2.4312
   12SAPS   H7Y 1562   1.002   3.457   3.141 -0.4860 -0.8846  0.2489
   12SAPS   C38 1563   1.123   3.456   3.315 -0.3067 -0.2755 -0.3983
   12SAPS   H8X 1564   1.118   3.565   3.337 -0.0836 -0.7096  2.1741
   12SAPS   H8Y 1565   1.229   3.432   3.338  0.6039  0.9577 -2.9982
   12SAPS   C39 1566   1.028   3.387   3.417 -0.5818 -0.2858  0.4407
   12SAPS   H9X 1567   1.043   3.443   3.512 -0.9047  0.0317  0.3079
   12SAPS   H9Y 1568   1.062   3.283   3.433  3.0789  1.0904  2.8633
   12SAPS  C310 1569   0.880   3.391   3.379  0.2177  0.1787  1.1242
   12SAPS  H10X 1570   0.851   3.329   3.291 -0.1777 -0.5739  1.7661
   12SAPS  H10Y 1571   0.872   3.495   3.342  1.6035  0.3569  1.3096
   12SAPS  C311 1572   0.790   3.358   3.500  0.4144 -0.6502  0.3596
   12SAPS  H11X 1573   0.688   3.401   3.488  1.0218  0.7897  0.1163
   12SAPS  H11Y 1574   0.836   3.384   3.599  0.3069 -1.2441  0.5675
   12SAPS  C312 1575   0.766   3.205   3.507 -0.6665 -0.4371  0.1054
   12SAPS  H12X 1576   0.861   3.148   3.492 -0.5660 -0.0210 -0.9237
   12SAPS  H12Y 1577   0.699   3.182   3.421  0.5367  0.3123 -1.0714
   12SAPS  C313 1578   0.709   3.169   3.642  0.1253  1.1044 -0.0077
   12SAPS  H13X 1579   0.612   3.221   3.656 -1.0091 -0.6823 -0.8456
   12SAPS  H13Y 1580   0.762   3.203   3.734  3.2567  0.7168 -1.5403
   12SAPS  C314 1581   0.672   3.016   3.655  0.2141 -0.1129 -0.1188
   12SAPS  H14X 1582   0.752   2.956   3.608 -1.0576  0.5427 -3.4148
   12SAPS  H14Y 1583   0.582   3.013   3.589  0.3457 -0.3467 -0.2853
   12SAPS  C315 1584   0.624   2.963   3.797  0.4782  0.1298 -0.2919
   12SAPS  H15X 1585   0.540   3.027   3.828 -1.0255 -1.6879 -0.4409
   12SAPS  H15Y 1586   0.706   2.984   3.870 -1.5514  1.2588  1.7815
   12SAPS  C316 1587   0.577   2.816   3.825 -0.5862 -0.3908 -0.0438
   12SAPS  H16X 1588   0.610   2.757   3.737  0.8915  1.6544 -0.9422
   12SAPS  H16Y 1589   0.468   2.817   3.846 -0.7112  2.2022 -0.5521
   12SAPS  C317 1590   0.639   2.749   3.950 -0.2740  0.2298  0.4557
   12SAPS  H17X 1591   0.609   2.801   4.043  1.3159 -1.2793  1.8873
   12SAPS  H17Y 1592   0.750   2.740   3.945 -0.2916 -1.1030  1.8591
   12SAPS  C318 1593   0.587   2.607   3.953  0.3808  0.6192 -0.0358
   12SAPS  H18X 1594   0.476   2.601   3.950  0.4122 -0.5381  0.3929
   12SAPS  H18Y 1595   0.623   2.549   4.040 -1.5240  0.7562  0.8974
   12SAPS  H18Z 1596   0.610   2.559   3.855 -2.6756  0.0149 -0.5621
   13SAPS     N 1597   3.492   5.985   1.587 -0.3015 -1.0110  0.2198
   13SAPS   HN1 1598   3.475   5.884   1.573 -0.7514 -0.7129 -1.5055
   13SAPS   HN2 1599   3.571   5.995   1.655 -0.2830  1.3869 -0.0703
   13SAPS   HN3 1600   3.408   6.030   1.628 -2.5189 -2.7305 -2.1999
   13SAPS   C12 1601   3.517   6.059   1.455 -0.4679  0.2914 -0.0134
   13SAPS  H12A 1602   3.551   6.156   1.486  1.6017 -0.6083  0.7536
   13SAPS   C13 1603   3.639   6.008   1.377 -0.3810  0.1146 -0.1460
   13SAPS  O13A 1604   3.715   5.920   1.424 -0.3844 -0.6247  0.8148
   13SAPS  O13B 1605   3.678   6.091   1.289 -0.1350 -0.5396 -0.5970
   13SAPS   C11 1606   3.392   6.067   1.359 -0.2690  0.3668 -0.1947
   13SAPS  H11A 1607   3.369   5.971   1.307  0.3259  0.1854 -0.1351
   13SAPS  H11B 1608   3.424   6.137   1.279 -3.0483 -0.2458 -1.9688
   13SAPS     P 1609   3.136   6.090   1.384 -0.4333  0.0116 -0.2275
   13SAPS   O13 1610   3.125   6.173   1.264  0.0523  0.0848  0.3469
   13SAPS   O14 1611   3.109   5.944   1.373 -0.3479  0.4189  0.0898
   13SAPS   O12 1612   3.283   6.110   1.446  0.0465  0.3640 -0.2806
   13SAPS   O11 1613   3.049   6.152   1.495  0.2013 -0.6514  0.5928
   13SAPS    C1 1614   3.063   6.286   1.541 -0.1242 -0.3180 -0.2080
   13SAPS    HA 1615   3.112   6.347   1.462 -0.2548 -0.5577 -0.4749
   13SAPS    HB 1616   2.966   6.335   1.563  0.0497  0.7726 -1.7307
   13SAPS    C2 1617   3.151   6.282   1.665 -0.4121 -0.0254  0.8822
   13SAPS    HS 1618   3.256   6.267   1.632 -0.5719  0.7426 -0.0514
   13SAPS   O21 1619   3.098   6.188   1.758 -0.6215 -0.5188  0.4855
   13SAPS   C21 1620   3.185   6.097   1.812  0.0262  0.3914 -0.0184
   13SAPS   O22 1621   3.302   6.089   1.775  0.5795  0.4032  0.1338
   13SAPS   C22 1622   3.109   6.003   1.905  1.3982 -0.3608  0.0351
   13SAPS   H2R 1623   3.020   6.054   1.947  0.0034 -1.9846 -0.7947
   13SAPS   H2S 1624   3.080   5.914   1.845 -0.2562  0.2875 -0.1806
   13SAPS    C3 1625   3.165   6.431   1.734 -0.8906  0.8012  0.4546
   13SAPS    HX 1626   3.066   6.461   1.773 -1.6716  2.9275 -2.7728
   13SAPS    HY 1627   3.199   6.504   1.657  1.2716 -0.3581  0.2502
   13SAPS   O31 1628   3.261   6.417   1.840 -0.3584  0.5658 -0.5617
   13SAPS   C31 1629   3.394   6.410   1.814  0.8173 -0.7089  0.2422
   13SAPS   O32 1630   3.438   6.406   1.694  0.1748  0.4890  0.5703
   13SAPS   C32 1631   3.481   6.401   1.935  0.2331 -0.4174  0.4956
   13SAPS   H2X 1632   3.583   6.428   1.900  0.8281 -1.7691  1.1043
   13SAPS   H2Y 1633   3.491   6.294   1.966  2.2230 -0.6602 -0.7810
   13SAPS   C23 1634   3.211   5.958   2.017 -0.7936  0.1608  0.8521
   13SAPS   H3R 1635   3.306   5.932   1.966 -0.9613 -0.2685  0.7567
   13SAPS   H3S 1636   3.193   5.858   2.063  1.3895  0.4527  2.4666
   13SAPS   C24 1637   3.245   6.060   2.123 -0.1611 -0.3571  0.3119
   13SAPS   H4R 1638   3.239   6.165   2.086 -0.6993 -1.4851 -3.2159
   13SAPS   H4S 1639   3.348   6.054   2.164 -0.5893  0.1374  1.4864
   13SAPS   C25 1640   3.142   6.043   2.239 -0.4789 -0.0649  0.1726
   13SAPS   H5R 1641   3.039   6.018   2.208 -0.8106 -1.9139  2.4721
   13SAPS   C26 1642   3.171   6.055   2.370 -0.7524  0.0166  0.2873
   13SAPS   H6R 1643   3.086   6.039   2.438 -1.6621  3.3754  0.1224
   13SAPS   C27 1644   3.303   6.098   2.440  0.1477  0.1678  0.4768
   13SAPS   H7R 1645   3.282   6.196   2.488  1.3416  0.5277  0.3025
   13SAPS   H7S 1646   3.387   6.122   2.371 -0.4237 -2.7127 -1.4060
   13SAPS   C28 1647   3.342   5.974   2.528  0.1786  0.4519 -0.3862
   13SAPS   H8R 1648   3.380   5.881   2.485 -0.9656  0.0141 -0.4947
   13SAPS   C29 1649   3.328   5.972   2.661  0.1377 -0.2334 -0.1770
   13SAPS   H9R 1650   3.359   5.882   2.716 -0.6564  1.2937  3.0126
   13SAPS  C210 1651   3.273   6.081   2.749  0.8735  0.5459  0.1366
   13SAPS  H10R 1652   3.184   6.038   2.800  1.5056  0.3718  1.1273
   13SAPS  H10S 1653   3.233   6.162   2.685 -0.7558 -1.1493 -1.0995
   13SAPS  C211 1654   3.378   6.125   2.848  0.3581 -0.5086  0.2662
   13SAPS  H11R 1655   3.479   6.148   2.812  0.4454 -3.4215 -1.7668
   13SAPS  C212 1656   3.367   6.118   2.980 -0.1704 -0.7430 -0.5848
   13SAPS  H12R 1657   3.451   6.157   3.039 -0.1465 -0.8744 -0.5297
   13SAPS  C213 1658   3.241   6.088   3.066 -0.1999 -0.1412 -0.1035
   13SAPS  H13R 1659   3.146   6.105   3.010 -0.0556  2.9768  0.4235
   13SAPS  H13S 1660   3.236   6.163   3.148 -1.1708 -1.8596  1.4728
   13SAPS  C214 1661   3.253   5.954   3.143  0.7365  0.0567  0.0693
   13SAPS  H14R 1662   3.202   5.867   3.098  1.6235 -0.4193 -0.0480
   13SAPS  C215 1663   3.313   5.930   3.255  0.2903  0.6560 -0.2407
   13SAPS  H15R 1664   3.307   5.831   3.302 -1.7425 -1.7450 -4.9417
   13SAPS  C216 1665   3.379   6.042   3.333  0.0163 -0.8822 -0.2643
   13SAPS  H16R 1666   3.388   6.139   3.281 -3.6951 -0.2347 -0.0141
   13SAPS  H16S 1667   3.481   6.007   3.360  0.4822  0.7796  0.2261
   13SAPS  C217 1668   3.306   6.090   3.462  0.7960  0.5723  0.4995
   13SAPS  H17R 1669   3.229   6.161   3.427  0.3267 -0.0447  0.2529
   13SAPS  H17S 1670   3.374   6.153   3.523 -1.3390  0.1309  3.6358
   13SAPS  C218 1671   3.263   5.978   3.561 -0.6683  1.2680  0.9901
   13SAPS  H18R 1672   3.336   5.894   3.568 -2.8315 -0.7841  0.4157
   13SAPS  H18S 1673   3.170   5.931   3.523  0.2857 -0.4373  0.6713
   13SAPS  C219 1674   3.232   6.029   3.703  0.0050 -0.2556 -0.7901
   13SAPS  H19R 1675   3.321   6.048   3.766 -0.9194 -1.5371  0.9716
   13SAPS  H19S 1676   3.176   5.950   3.757  0.8206 -0.2206  0.1250
   13SAPS  C220 1677   3.144   6.160   3.696 -0.3823 -0.0294  0.7420
   13SAPS  H20R 1678   3.094   6.191   3.790 -2.8395  0.6501 -0.6704
   13SAPS  H20S 1679   3.062   6.143   3.622 -0.8130 -4.6422  1.9749
   13SAPS  H20T 1680   3.207   6.245   3.663  2.3696 -2.6360 -1.3251
   13SAPS   C33 1681   3.450   6.491   2.063 -0.1957  0.0012  1.0426
   13SAPS   H3X 1682   3.339   6.502   2.059 -0.2416 -0.7018 -0.0422
   13SAPS   H3Y 1683   3.491   6.594   2.049 -0.4303 -0.1784 -1.3853
   13SAPS   C34 1684   3.492   6.428   2.192 -0.9675  0.1388  0.5097
   13SAPS   H4X 1685   3.601   6.419   2.173 -1.2617  0.5978 -1.6797
   13SAPS   H4Y 1686   3.460   6.322   2.201  2.7111 -1.2018 -0.6249
   13SAPS   C35 1687   3.438   6.507   2.313 -0.0872  0.0515  0.3242
   13SAPS   H5X 1688   3.327   6.498   2.315 -0.0910 -0.9864 -2.0610
   13SAPS   H5Y 1689   3.467   6.613   2.300  2.7768 -0.4915  1.6376
   13SAPS   C36 1690   3.473   6.449   2.449 -0.3056 -0.1539  0.0371
   13SAPS   H6X 1691   3.577   6.409   2.451  0.2336  1.2144  2.1887
   13SAPS   H6Y 1692   3.398   6.367   2.455 -1.1798  0.6215 -0.0786
   13SAPS   C37 1693   3.452   6.542   2.571 -0.6237  0.2680 -0.5821
   13SAPS   H7X 1694   3.361   6.605   2.560 -1.0135 -0.4277 -1.5336
   13SAPS   H7Y 1695   3.539   6.611   2.565 -0.1659 -0.3689 -1.5213
   13SAPS   C38 1696   3.443   6.458   2.697 -0.5723  0.5406 -0.2712
   13SAPS   H8X 1697   3.521   6.379   2.692 -0.9020  0.2379 -0.6472
   13SAPS   H8Y 1698   3.343   6.411   2.698 -0.2747 -0.0964 -0.1376
   13SAPS   C39 1699   3.462   6.535   2.829  0.0603 -0.1871  0.1045
   13SAPS   H9X 1700   3.375   6.603   2.842 -0.9773 -1.6936  1.3594
   13SAPS   H9Y 1701   3.559   6.589   2.826  0.6747 -1.2747 -0.1692
   13SAPS  C310 1702   3.456   6.434   2.951 -0.2086 -0.5872 -0.0965
   13SAPS  H10X 1703   3.517   6.346   2.922  1.2150 -0.0299  1.1215
   13SAPS  H10Y 1704   3.350   6.409   2.975  0.1137 -2.4267 -0.4355
   13SAPS  C311 1705   3.502   6.511   3.076  0.7514 -0.3109 -0.4338
   13SAPS  H11X 1706   3.431   6.585   3.120  1.8279 -0.2496  1.3115
   13SAPS  H11Y 1707   3.598   6.567   3.074  0.7588 -0.2927  0.3275
   13SAPS  C312 1708   3.520   6.413   3.191  0.1071 -0.0757 -0.3751
   13SAPS  H12X 1709   3.609   6.348   3.170  1.7037  1.6044  0.8801
   13SAPS  H12Y 1710   3.435   6.342   3.201  0.9933 -1.1248 -0.0947
   13SAPS  C313 1711   3.540   6.500   3.314  0.2082 -0.1432 -0.3770
   13SAPS  H13X 1712   3.460   6.576   3.333 -3.8017 -3.7858 -1.1161
   13SAPS  H13Y 1713   3.633   6.559   3.300  0.8281 -1.2875 -1.1810
   13SAPS  C314 1714   3.550   6.418   3.447  0.0628  1.0398 -0.2900
   13SAPS  H14X 1715   3.627   6.343   3.417 -2.9448 -1.1522 -3.2654
   13SAPS  H14Y 1716   3.463   6.352   3.466  0.5153  0.7200  0.7590
   13SAPS  C315 1717   3.581   6.493   3.573 -0.3663  0.2235 -0.1671
   13SAPS  H15X 1718   3.510   6.577   3.585  0.0718  0.4035  1.4911
   13SAPS  H15Y 1719   3.675   6.552   3.574 -0.9363  1.1604 -0.4499
   13SAPS  C316 1720   3.558   6.414   3.703  0.2603  0.1482 -0.6036
   13SAPS  H16X 1721   3.455   6.374   3.704  0.3520 -0.1430 -1.7483
   13SAPS  H16Y 1722   3.575   6.473   3.796  0.5199 -0.3602 -0.3239
   13SAPS  C317 1723   3.660   6.295   3.716 -0.2821 -0.4123 -0.4515
   13SAPS  H17X 1724   3.760   6.342   3.706 -1.1820  1.5038 -1.0402
   13SAPS  H17Y 1725   3.648   6.231   3.625 -0.0287 -1.2167  0.0708
   13SAPS  C318 1726   3.640   6.223   3.843  0.3163  0.3005  0.9380
   13SAPS  H18X 1727   3.698   6.129   3.853  1.0399  0.4283 -1.5531
   13SAPS  H18Y 1728   3.531   6.216   3.864 -0.0759  0.2522 -0.9674
   13SAPS  H18Z 1729   3.681   6.297   3.915  0.4506  1.2674 -0.1190
   14SAPS     N 1730   2.838   2.545   1.766 -0.1204 -0.0062  0.5376
   14SAPS   HN1 1731   2.751   2.492   1.787 -0.9726  0.8323 -0.7543
   14SAPS   HN2 1732   2.848   2.579   1.668  2.1458  2.4925  1.5227
   14SAPS   HN3 1733   2.920   2.482   1.778  0.7641  1.3392  1.9962
   14SAPS   C12 1734   2.847   2.656   1.861  0.1513 -0.5800 -0.2209
   14SAPS  H12A 1735   2.872   2.620   1.959  1.5808 -0.9796 -0.7172
   14SAPS   C13 1736   2.951   2.767   1.829 -0.2425  0.0063 -0.6355
   14SAPS  O13A 1737   3.029   2.741   1.735  0.3456 -0.2553 -0.1403
   14SAPS  O13B 1738   2.939   2.875   1.896 -0.0805 -0.1543  0.4781
   14SAPS   C11 1739   2.714   2.735   1.881  0.8719 -0.2481  0.1110
   14SAPS  H11A 1740   2.695   2.802   1.794 -0.7949 -1.9863 -0.9560
   14SAPS  H11B 1741   2.718   2.802   1.970  0.9218  0.2935 -0.2922
   14SAPS     P 1742   2.458   2.711   1.921  0.1038  0.1707 -0.3432
   14SAPS   O13 1743   2.474   2.858   1.924  0.3999 -0.5467  0.7120
   14SAPS   O14 1744   2.363   2.638   1.835 -0.0853  0.0894 -0.2937
   14SAPS   O12 1745   2.603   2.642   1.894 -0.4554 -0.5559 -0.0648
   14SAPS   O11 1746   2.426   2.669   2.068 -0.8940 -0.2167  0.2583
   14SAPS    C1 1747   2.532   2.636   2.158  0.9317 -0.8382  0.2516
   14SAPS    HA 1748   2.556   2.527   2.159  0.2089 -1.0968 -2.1620
   14SAPS    HB 1749   2.627   2.691   2.141 -0.5778  1.9250  0.2074
   14SAPS    C2 1750   2.481   2.663   2.305  0.1392 -0.3550  0.2265
   14SAPS    HS 1751   2.569   2.652   2.373  1.0787  2.7153 -0.3021
   14SAPS   O21 1752   2.378   2.579   2.354  0.2381  0.0730  0.2064
   14SAPS   C21 1753   2.408   2.464   2.407 -0.2187  0.1234 -0.2510
   14SAPS   O22 1754   2.516   2.428   2.441  0.2039 -0.2920 -0.5460
   14SAPS   C22 1755   2.272   2.397   2.435 -0.4313 -0.3718  0.3078
   14SAPS   H2R 1756   2.207   2.473   2.484 -0.9125 -1.4653  1.4231
   14SAPS   H2S 1757   2.218   2.372   2.341  0.9945  0.1758 -0.6925
   14SAPS    C3 1758   2.426   2.817   2.325 -0.2488 -0.0540 -0.5827
   14SAPS    HX 1759   2.358   2.834   2.238 -2.0402 -1.6079  0.4347
   14SAPS    HY 1760   2.511   2.888   2.323  0.2335 -0.6168 -1.8994
   14SAPS   O31 1761   2.344   2.833   2.440 -0.8586  0.5622  0.2725
   14SAPS   C31 1762   2.418   2.817   2.558  0.2867  0.2162  0.8425
   14SAPS   O32 1763   2.533   2.840   2.571 -0.3608  0.6824  0.4086
   14SAPS   C32 1764   2.322   2.795   2.670  0.1026 -0.1609  0.6581
   14SAPS   H2X 1765   2.255   2.711   2.640 -0.8765  0.8270  0.0133
   14SAPS   H2Y 1766   2.251   2.880   2.677  2.5119  1.8623  1.8488
   14SAPS   C23 1767   2.280   2.273   2.531 -0.5571  0.2705  0.8257
   14SAPS   H3R 1768   2.372   2.213   2.517  1.0533  3.1574 -2.6601
   14SAPS   H3S 1769   2.202   2.204   2.492  1.3346 -0.8424 -1.2415
   14SAPS   C24 1770   2.256   2.290   2.680  0.1296  0.3273 -0.3785
   14SAPS   H4R 1771   2.236   2.191   2.728  0.9889 -0.0441 -0.7611
   14SAPS   H4S 1772   2.174   2.362   2.700  1.1451  1.1544  0.9523
   14SAPS   C25 1773   2.382   2.343   2.750 -0.2662 -0.3410 -0.1769
   14SAPS   H5R 1774   2.444   2.404   2.684 -0.5989  1.9588  1.5093
   14SAPS   C26 1775   2.421   2.312   2.878  0.5574 -0.2512  0.7999
   14SAPS   H6R 1776   2.518   2.349   2.914  0.9529 -1.0070  0.5306
   14SAPS   C27 1777   2.346   2.218   2.971 -0.1371 -0.1547 -0.0718
   14SAPS   H7R 1778   2.239   2.208   2.944  0.6073  0.0967 -3.6465
   14SAPS   H7S 1779   2.349   2.254   3.076 -1.0374 -2.6912  0.8883
   14SAPS   C28 1780   2.406   2.078   2.965 -0.6624  0.5844 -0.0069
   14SAPS   H8R 1781   2.383   2.027   2.870 -0.9273  2.0368 -0.7375
   14SAPS   C29 1782   2.511   2.034   3.039  0.6657 -0.5432 -0.2338
   14SAPS   H9R 1783   2.563   1.937   3.029  2.5667  0.4539 -0.3634
   14SAPS  C210 1784   2.566   2.114   3.153  0.2878 -0.2495  0.5819
   14SAPS  H10R 1785   2.481   2.140   3.219  0.9850  2.5981  0.4878
   14SAPS  H10S 1786   2.604   2.213   3.121  1.2240 -0.5687  0.6727
   14SAPS  C211 1787   2.665   2.040   3.227  0.1924  0.3458  0.3044
   14SAPS  H11R 1788   2.765   2.040   3.181  0.6689  1.8280  1.2574
   14SAPS  C212 1789   2.644   1.978   3.340  0.3097  0.4627 -0.2858
   14SAPS  H12R 1790   2.732   1.929   3.383  0.6480  0.9592 -0.4040
   14SAPS  C213 1791   2.514   1.963   3.417 -0.5220  0.7520  0.3030
   14SAPS  H13R 1792   2.517   1.855   3.443 -2.3545 -0.1001 -2.5100
   14SAPS  H13S 1793   2.426   1.971   3.350  0.4835 -0.5519 -1.2606
   14SAPS  C214 1794   2.501   2.050   3.532 -0.3307 -0.2286 -0.9019
   14SAPS  H14R 1795   2.496   2.156   3.504 -1.0138 -0.4664 -1.7245
   14SAPS  C215 1796   2.486   2.008   3.663 -0.1587  0.1076  0.4287
   14SAPS  H15R 1797   2.508   2.086   3.737  0.3204  1.8200 -1.4177
   14SAPS  C216 1798   2.470   1.870   3.718  0.5976 -0.7658  0.1356
   14SAPS  H16R 1799   2.394   1.814   3.659 -1.8635  0.6857  1.7042
   14SAPS  H16S 1800   2.433   1.876   3.823  0.7078  0.4639  0.1147
   14SAPS  C217 1801   2.604   1.793   3.727  0.2592 -0.5355  0.1065
   14SAPS  H17R 1802   2.670   1.860   3.786 -1.1118 -0.4406  1.5889
   14SAPS  H17S 1803   2.640   1.775   3.623  2.1477 -1.1894  0.8387
   14SAPS  C218 1804   2.589   1.656   3.792  0.7402  0.3695 -0.1957
   14SAPS  H18R 1805   2.486   1.618   3.776  1.2429 -0.4557 -1.7123
   14SAPS  H18S 1806   2.605   1.680   3.899 -0.3518  1.8310 -0.3164
   14SAPS  C219 1807   2.690   1.552   3.739 -0.0072  0.1229  0.1619
   14SAPS  H19R 1808   2.675   1.538   3.629 -1.9089 -0.1408  0.4337
   14SAPS  H19S 1809   2.667   1.449   3.773 -0.7621  0.9468  2.2632
   14SAPS  C220 1810   2.837   1.582   3.770  0.2966 -0.0659  0.4773
   14SAPS  H20R 1811   2.843   1.597   3.880  0.0883 -0.7860  0.5898
   14SAPS  H20S 1812   2.882   1.662   3.707 -0.6576  0.0526 -0.0601
   14SAPS  H20T 1813   2.906   1.499   3.743  0.9616  0.8973 -0.9178
   14SAPS   C33 1814   2.380   2.758   2.816 -0.5118 -0.2441 -0.3060
   14SAPS   H3X 1815   2.403   2.857   2.861 -1.3328 -0.7727  1.3684
   14SAPS   H3Y 1816   2.473   2.696   2.820  0.2271  0.8395 -0.2023
   14SAPS   C34 1817   2.282   2.695   2.917  0.6145 -0.4035 -0.0980
   14SAPS   H4X 1818   2.237   2.602   2.876  1.6054 -1.3262  0.8424
   14SAPS   H4Y 1819   2.194   2.763   2.918  0.3479 -0.6053 -2.5083
   14SAPS   C35 1820   2.342   2.677   3.055 -0.2750  0.0748  0.5509
   14SAPS   H5X 1821   2.366   2.766   3.117 -2.8231  0.6428  0.8032
   14SAPS   H5Y 1822   2.433   2.615   3.042  0.4818  1.1724  0.4181
   14SAPS   C36 1823   2.258   2.593   3.139  0.5900 -0.1519 -0.7940
   14SAPS   H6X 1824   2.252   2.495   3.087 -1.6080  0.2790 -1.4493
   14SAPS   H6Y 1825   2.155   2.633   3.155  0.8867 -0.0599  1.2480
   14SAPS   C37 1826   2.315   2.544   3.274 -0.4150 -0.4065  0.7290
   14SAPS   H7X 1827   2.365   2.622   3.334  1.3451  0.3121 -1.5149
   14SAPS   H7Y 1828   2.395   2.470   3.253 -0.1046  0.7328 -2.7516
   14SAPS   C38 1829   2.212   2.460   3.358  1.0040 -0.4946 -0.0960
   14SAPS   H8X 1830   2.189   2.369   3.300 -2.3470 -1.4126  2.3664
   14SAPS   H8Y 1831   2.128   2.525   3.389  1.5444 -0.4059  1.2764
   14SAPS   C39 1832   2.266   2.411   3.498  0.0160 -0.1818  0.0694
   14SAPS   H9X 1833   2.298   2.501   3.554  0.2283 -1.2426  1.7298
   14SAPS   H9Y 1834   2.354   2.345   3.478 -1.2330 -1.7321 -0.5038
   14SAPS  C310 1835   2.160   2.332   3.580  0.4687 -0.1645  0.0150
   14SAPS  H10X 1836   2.124   2.253   3.510  1.0773 -0.1729 -0.3008
   14SAPS  H10Y 1837   2.079   2.404   3.603  1.9255  1.0730  1.5326
   14SAPS  C311 1838   2.209   2.281   3.715  0.3964  0.1649 -0.0851
   14SAPS  H11X 1839   2.239   2.368   3.777 -0.2980  0.3632 -0.0208
   14SAPS  H11Y 1840   2.294   2.211   3.702 -0.1604 -0.5377  0.0029
   14SAPS  C312 1841   2.094   2.210   3.788 -0.6195  0.5041 -0.9215
   14SAPS  H12X 1842   2.068   2.110   3.747 -0.2393 -0.9544  2.1380
   14SAPS  H12Y 1843   2.003   2.273   3.787  0.1405  1.6270 -1.4556
   14SAPS  C313 1844   2.124   2.185   3.937 -0.2220  0.0788  0.4501
   14SAPS  H13X 1845   2.144   2.284   3.983  0.0395  0.5845 -0.7138
   14SAPS  H13Y 1846   2.212   2.119   3.952 -0.5955 -0.1882  1.5672
   14SAPS  C314 1847   2.007   2.144   4.012  0.4406  0.7566  0.2767
   14SAPS  H14X 1848   1.975   2.050   3.963  0.7254  0.0356  1.4300
   14SAPS  H14Y 1849   1.933   2.227   4.005  1.0903  1.2897 -0.3844
   14SAPS  C315 1850   2.035   2.103   4.153 -0.4577 -0.0685 -0.0294
   14SAPS  H15X 1851   2.091   2.183   4.208  0.1852 -0.2663 -0.3912
   14SAPS  H15Y 1852   2.103   2.016   4.151  0.7654  0.7837  1.6328
   14SAPS  C316 1853   1.902   2.061   4.224 -0.4814  0.7130  0.5703
   14SAPS  H16X 1854   1.868   1.985   4.150  1.7770  1.1895 -1.0619
   14SAPS  H16Y 1855   1.827   2.143   4.228 -1.8147 -0.5099  1.8495
   14SAPS  C317 1856   1.930   1.996   4.358  0.1343  0.2509 -0.6353
   14SAPS  H17X 1857   2.027   1.943   4.345  0.9229  2.0743 -2.7831
   14SAPS  H17Y 1858   1.858   1.914   4.381 -0.4841 -0.3544 -4.2270
   14SAPS  C318 1859   1.943   2.084   4.478  0.1972  0.1787 -0.0990
   14SAPS  H18X 1860   1.859   2.156   4.480  1.4922  1.7246  2.1800
   14SAPS  H18Y 1861   2.042   2.134   4.468  0.7026 -0.6493  0.6041
   14SAPS  H18Z 1862   1.939   2.023   4.570  0.4681  0.7502  0.2922
   15SAPS     N 1863   2.968   2.820   1.486 -0.0983 -0.3537  0.0897
   15SAPS   HN1 1864   2.987   2.737   1.426 -0.3622 -2.7439  3.0829
   15SAPS   HN2 1865   3.040   2.893   1.468  0.8045 -0.6995  2.0362
   15SAPS   HN3 1866   2.988   2.793   1.585  1.5322  1.5242  0.3352
   15SAPS   C12 1867   2.825   2.868   1.477  0.1252 -0.4574 -0.5982
   15SAPS  H12A 1868   2.802   2.893   1.374  0.2424  0.1930 -0.4704
   15SAPS   C13 1869   2.722   2.761   1.506 -0.1418  0.4207 -0.0813
   15SAPS  O13A 1870   2.759   2.642   1.543  0.4542 -0.3950  0.3170
   15SAPS  O13B 1871   2.600   2.789   1.477 -0.0503 -0.2025  0.4291
   15SAPS   C11 1872   2.800   2.988   1.574 -0.9897 -0.6853 -0.7978
   15SAPS  H11A 1873   2.827   2.953   1.676 -2.8086 -0.5577 -0.2324
   15SAPS  H11B 1874   2.691   3.012   1.582 -0.8614  0.6651 -2.5000
   15SAPS     P 1875   3.018   3.138   1.613 -0.3010 -0.0144  0.4466
   15SAPS   O13 1876   3.114   3.023   1.583 -0.0153 -0.5597 -0.1926
   15SAPS   O14 1877   3.052   3.274   1.569  0.1612 -0.2266  0.2516
   15SAPS   O12 1878   2.875   3.111   1.553  0.4083  0.0671 -0.5620
   15SAPS   O11 1879   3.003   3.140   1.769 -0.2245 -0.1347 -0.0729
   15SAPS    C1 1880   2.896   3.218   1.825  1.0998 -0.3027  0.7842
   15SAPS    HA 1881   2.847   3.285   1.752  3.3286  0.6637  0.0953
   15SAPS    HB 1882   2.812   3.149   1.847 -0.2777  1.3793  1.0074
   15SAPS    C2 1883   2.944   3.302   1.946  0.1581 -0.1452  0.3203
   15SAPS    HS 1884   2.965   3.234   2.031 -1.4597  1.5973  2.2041
   15SAPS   O21 1885   2.829   3.386   1.975  0.3223  0.2909  0.1411
   15SAPS   C21 1886   2.812   3.409   2.102 -0.7303  0.0904 -1.0067
   15SAPS   O22 1887   2.881   3.368   2.196 -0.4054  0.0784 -0.1062
   15SAPS   C22 1888   2.688   3.491   2.114  0.7948  0.0589  0.8364
   15SAPS   H2R 1889   2.671   3.533   2.012  0.1089 -2.1176 -0.0155
   15SAPS   H2S 1890   2.601   3.423   2.129  0.6497 -0.9236 -3.2409
   15SAPS    C3 1891   3.059   3.389   1.899 -0.2979 -0.3423  0.2030
   15SAPS    HX 1892   3.029   3.441   1.805 -2.6484 -0.2650  0.9369
   15SAPS    HY 1893   3.142   3.332   1.852  0.5853  2.9963 -2.6900
   15SAPS   O31 1894   3.112   3.480   2.001 -0.3958 -0.2399 -0.2152
   15SAPS   C31 1895   3.061   3.605   2.013 -0.0979 -0.1087 -0.3744
   15SAPS   O32 1896   2.963   3.646   1.950 -0.8373 -0.7384  0.0533
   15SAPS   C32 1897   3.154   3.691   2.093  0.1367 -0.3914 -0.1608
   15SAPS   H2X 1898   3.194   3.758   2.014  0.2542  0.7002  0.8016
   15SAPS   H2Y 1899   3.239   3.630   2.130  0.1853  0.7296  1.6944
   15SAPS   C23 1900   2.700   3.608   2.220 -0.2493 -0.0587 -0.4052
   15SAPS   H3R 1901   2.793   3.665   2.199 -0.7359  1.1427  0.5372
   15SAPS   H3S 1902   2.705   3.548   2.313  1.1050 -3.0723 -2.2680
   15SAPS   C24 1903   2.589   3.718   2.221  0.0503 -0.4880 -0.5653
   15SAPS   H4R 1904   2.546   3.717   2.118  0.1372 -2.0408 -0.6157
   15SAPS   H4S 1905   2.631   3.819   2.243 -1.0875  0.3223 -1.9338
   15SAPS   C25 1906   2.487   3.687   2.322 -0.1585 -0.1563  0.4665
   15SAPS   H5R 1907   2.395   3.634   2.295 -1.8648  1.1322  3.2643
   15SAPS   C26 1908   2.472   3.745   2.443  0.3084 -0.2519  0.5199
   15SAPS   H6R 1909   2.391   3.704   2.505 -0.5514 -1.1773 -1.1409
   15SAPS   C27 1910   2.559   3.853   2.507  0.3733 -0.3798 -0.2818
   15SAPS   H7R 1911   2.573   3.942   2.441 -2.6127  1.6735  1.6015
   15SAPS   H7S 1912   2.653   3.799   2.532  0.5785 -0.5085 -1.2644
   15SAPS   C28 1913   2.491   3.909   2.631  0.4962  0.1120 -0.5883
   15SAPS   H8R 1914   2.410   3.979   2.605 -1.2328 -1.8963 -0.9083
   15SAPS   C29 1915   2.535   3.890   2.760  0.3289 -0.2128 -0.1871
   15SAPS   H9R 1916   2.490   3.943   2.845 -0.0341  0.4371 -0.7773
   15SAPS  C210 1917   2.642   3.788   2.794 -0.1385  0.6771 -0.1878
   15SAPS  H10R 1918   2.718   3.848   2.849 -0.0362  0.7807 -0.4427
   15SAPS  H10S 1919   2.697   3.744   2.709  2.5570  0.7410  1.4140
   15SAPS  C211 1920   2.590   3.669   2.873 -0.0433  0.9086  0.2560
   15SAPS  H11R 1921   2.549   3.583   2.818  1.7112 -0.9810  1.7507
   15SAPS  C212 1922   2.577   3.666   3.006 -0.3813  0.7696 -0.3299
   15SAPS  H12R 1923   2.542   3.574   3.056 -0.5118  0.7742 -0.4134
   15SAPS  C213 1924   2.604   3.777   3.096 -0.1273 -0.2248 -0.3079
   15SAPS  H13R 1925   2.647   3.873   3.061  0.8912 -0.0709  1.2494
   15SAPS  H13S 1926   2.676   3.738   3.171 -0.1856 -2.4560 -1.3250
   15SAPS  C214 1927   2.474   3.808   3.166 -0.6155  0.0410  0.7222
   15SAPS  H14R 1928   2.387   3.835   3.104 -1.8056 -1.3833  1.6745
   15SAPS  C215 1929   2.441   3.808   3.300 -0.6057  0.0710  0.4699
   15SAPS  H15R 1930   2.337   3.832   3.326 -0.8723  0.2728 -0.7265
   15SAPS  C216 1931   2.539   3.774   3.401  0.7529  0.5689 -0.1588
   15SAPS  H16R 1932   2.524   3.840   3.489  2.9826  2.2524 -0.9394
   15SAPS  H16S 1933   2.644   3.775   3.363  0.1282  0.1235 -2.0074
   15SAPS  C217 1934   2.520   3.630   3.461 -0.6927  0.7714  0.2844
   15SAPS  H17R 1935   2.420   3.635   3.509  0.9384  0.8381  3.9292
   15SAPS  H17S 1936   2.597   3.619   3.540  0.2907  1.3126 -0.5648
   15SAPS  C218 1937   2.530   3.504   3.363  0.4007 -0.5430 -1.1145
   15SAPS  H18R 1938   2.631   3.494   3.317  0.3607  0.8291 -1.5448
   15SAPS  H18S 1939   2.454   3.507   3.281 -0.3661 -0.2579 -0.4044
   15SAPS  C219 1940   2.501   3.392   3.453  0.2926  0.7484 -1.1422
   15SAPS  H19R 1941   2.422   3.428   3.523 -0.0563 -1.9208 -0.0529
   15SAPS  H19S 1942   2.602   3.371   3.494  0.6290  0.6388 -2.0149
   15SAPS  C220 1943   2.447   3.265   3.382  0.6383  0.1256  0.7442
   15SAPS  H20R 1944   2.375   3.223   3.455  1.0528  1.9890  2.3124
   15SAPS  H20S 1945   2.521   3.188   3.351 -0.6417 -0.5935 -0.6081
   15SAPS  H20T 1946   2.378   3.300   3.302  1.2756  1.1261  0.6231
   15SAPS   C33 1947   3.077   3.757   2.206  0.3050 -0.0355 -0.2340
   15SAPS   H3X 1948   2.981   3.800   2.171 -0.2113  0.0960  1.2929
   15SAPS   H3Y 1949   3.141   3.846   2.227  2.0734 -0.9923 -1.3328
   15SAPS   C34 1950   3.055   3.671   2.328  0.3210  0.2170 -0.2930
   15SAPS   H4X 1951   3.151   3.624   2.359  0.5665  1.7014  1.4251
   15SAPS   H4Y 1952   2.975   3.598   2.305 -2.9739  3.2033  0.7667
   15SAPS   C35 1953   3.016   3.768   2.445 -0.3630  0.5419 -0.7816
   15SAPS   H5X 1954   2.920   3.815   2.415 -0.6338  0.6931  0.2830
   15SAPS   H5Y 1955   3.093   3.846   2.466 -1.7354  1.4622  1.1421
   15SAPS   C36 1956   3.001   3.686   2.573  0.9370 -0.0512  0.0793
   15SAPS   H6X 1957   3.067   3.599   2.553 -0.1351 -0.7280 -0.5708
   15SAPS   H6Y 1958   2.901   3.641   2.588  1.3186 -0.8899  0.1296
   15SAPS   C37 1959   3.017   3.766   2.701  0.4493 -0.1320  0.0690
   15SAPS   H7X 1960   2.944   3.850   2.699 -0.0312 -0.5535 -0.5012
   15SAPS   H7Y 1961   3.118   3.814   2.700  0.7213 -0.6016 -2.5255
   15SAPS   C38 1962   3.007   3.671   2.830 -0.3357  0.3881  0.4385
   15SAPS   H8X 1963   3.080   3.587   2.828  0.5400  1.1380 -0.9020
   15SAPS   H8Y 1964   2.902   3.634   2.834 -0.6981  1.4521  1.1631
   15SAPS   C39 1965   3.030   3.745   2.966  0.6715 -0.0350  0.7097
   15SAPS   H9X 1966   2.972   3.840   2.955  0.7314 -0.0122  0.5864
   15SAPS   H9Y 1967   3.138   3.766   2.977  1.0498 -0.7580 -1.2329
   15SAPS  C310 1968   2.979   3.659   3.088 -0.0108 -0.6577  0.5458
   15SAPS  H10X 1969   3.040   3.569   3.113  1.2696  0.0130 -0.0651
   15SAPS  H10Y 1970   2.876   3.627   3.062  0.6615 -1.2843 -1.5004
   15SAPS  C311 1971   2.985   3.756   3.214  0.2204 -0.1717  0.2692
   15SAPS  H11X 1972   2.942   3.688   3.291 -1.9242  0.4566 -0.2981
   15SAPS  H11Y 1973   2.911   3.831   3.180  1.5578 -0.5054 -3.8778
   15SAPS  C312 1974   3.124   3.804   3.257  0.1868  0.2979 -0.4836
   15SAPS  H12X 1975   3.173   3.856   3.171  0.1574 -1.1759 -1.4228
   15SAPS  H12Y 1976   3.178   3.713   3.290  0.9808  1.0010  0.1970
   15SAPS  C313 1977   3.107   3.897   3.377  0.0250 -0.0608  0.1014
   15SAPS  H13X 1978   3.066   3.995   3.346  1.1372  0.2354 -0.5088
   15SAPS  H13Y 1979   3.211   3.921   3.409  0.4825  2.9317 -3.1024
   15SAPS  C314 1980   3.030   3.843   3.501 -0.3339 -0.2754  0.8410
   15SAPS  H14X 1981   3.058   3.740   3.530 -2.3183 -0.8119  0.9616
   15SAPS  H14Y 1982   2.920   3.845   3.484 -0.5935  1.5963  2.3395
   15SAPS  C315 1983   3.044   3.949   3.614  0.3182 -0.3560  0.3202
   15SAPS  H15X 1984   2.982   4.035   3.582  0.4625  0.4743  2.1625
   15SAPS  H15Y 1985   3.148   3.986   3.624  0.9023 -1.5394 -0.9735
   15SAPS  C316 1986   2.994   3.903   3.749 -0.5915 -0.5249  0.5172
   15SAPS  H16X 1987   3.067   3.828   3.786 -1.2864 -1.7470 -0.4683
   15SAPS  H16Y 1988   2.908   3.836   3.723 -0.3382 -0.7555  0.2668
   15SAPS  C317 1989   2.941   4.011   3.846  0.5812 -0.0917  0.4237
   15SAPS  H17X 1990   2.850   4.065   3.811 -0.9337 -0.5113  3.3784
   15SAPS  H17Y 1991   3.020   4.083   3.874  0.2619  0.7552 -0.7515
   15SAPS  C318 1992   2.893   3.946   3.972  0.4018 -0.2852 -0.2637
   15SAPS  H18X 1993   2.804   3.881   3.957 -2.7208  3.6047 -0.2980
   15SAPS  H18Y 1994   2.852   4.018   4.045  0.9397 -0.3076  0.0638
   15SAPS  H18Z 1995   2.969   3.889   4.029  1.6457  1.8783  0.3354
   16SAPS     N 1996   4.602   2.595   1.481  0.1890  0.3185 -0.1995
   16SAPS   HN1 1997   4.641   2.690   1.470  1.9927 -0.5536 -1.8243
   16SAPS   HN2 1998   4.656   2.520   1.433  2.2519  0.3932  1.8095
   16SAPS   HN3 1999   4.506   2.603   1.442  0.2130 -1.8999 -0.8667
   16SAPS   C12 2000   4.592   2.559   1.630  0.4929 -0.7684  0.6817
   16SAPS  H12A 2001   4.562   2.456   1.638  0.4609 -0.9012 -0.9022
   16SAPS   C13 2002   4.720   2.591   1.706 -0.5162  0.1340 -0.3627
   16SAPS  O13A 2003   4.814   2.641   1.643 -0.3556 -0.6172 -0.6669
   16SAPS  O13B 2004   4.727   2.536   1.819 -0.7719  0.2212 -0.2149
   16SAPS   C11 2005   4.477   2.646   1.692 -0.1172  0.1619 -0.0581
   16SAPS  H11A 2006   4.498   2.755   1.686  0.8417  0.0316  0.6718
   16SAPS  H11B 2007   4.480   2.636   1.803  0.8531  1.5494  0.0646
   16SAPS     P 2008   4.266   2.477   1.667  0.0790  0.0307 -0.1411
   16SAPS   O13 2009   4.118   2.487   1.635  0.2222  0.4401 -0.2389
   16SAPS   O14 2010   4.346   2.377   1.595  0.3223  0.6023 -0.9891
   16SAPS   O12 2011   4.340   2.620   1.641 -0.5613 -0.4535 -0.5531
   16SAPS   O11 2012   4.287   2.452   1.821  0.5480  0.7560  0.4844
   16SAPS    C1 2013   4.184   2.432   1.920  0.5483  0.6430 -0.3004
   16SAPS    HA 2014   4.090   2.399   1.872  0.5621  0.3094 -0.0975
   16SAPS    HB 2015   4.207   2.353   1.994 -1.6642 -1.5405 -1.8052
   16SAPS    C2 2016   4.148   2.562   1.996  0.2964  0.3799 -0.5915
   16SAPS    HS 2017   4.096   2.630   1.925 -1.2210 -0.9039 -0.7790
   16SAPS   O21 2018   4.270   2.620   2.046  0.2750  0.3073 -0.0134
   16SAPS   C21 2019   4.261   2.744   2.082 -0.8277  0.4824 -0.3318
   16SAPS   O22 2020   4.163   2.816   2.084 -0.2552  0.2552 -0.0500
   16SAPS   C22 2021   4.408   2.787   2.107  0.3470 -0.0755  0.1014
   16SAPS   H2R 2022   4.475   2.758   2.023  0.4908 -1.4658  0.6546
   16SAPS   H2S 2023   4.407   2.898   2.109  2.7428  0.1277 -2.7677
   16SAPS    C3 2024   4.033   2.538   2.105  0.6132  1.0381  0.8592
   16SAPS    HX 2025   3.940   2.498   2.058  3.1733 -2.7693 -1.5967
   16SAPS    HY 2026   3.992   2.637   2.132 -0.1973  1.5014 -1.7488
   16SAPS   O31 2027   4.084   2.456   2.209 -0.2603 -0.5920 -0.7463
   16SAPS   C31 2028   4.025   2.480   2.325 -0.5446  0.5244  0.1287
   16SAPS   O32 2029   3.934   2.553   2.350  0.0628  0.1500 -0.0548
   16SAPS   C32 2030   4.106   2.404   2.426  0.2300 -0.0853 -0.2196
   16SAPS   H2X 2031   4.167   2.472   2.490 -1.1114 -0.2958  1.3418
   16SAPS   H2Y 2032   4.167   2.327   2.373 -1.3611 -2.1270  0.7834
   16SAPS   C23 2033   4.461   2.725   2.232 -0.1373 -0.9264 -0.2085
   16SAPS   H3R 2034   4.549   2.785   2.263 -0.6604 -0.0152 -0.4481
   16SAPS   H3S 2035   4.492   2.620   2.211  1.2044 -0.3931 -1.0361
   16SAPS   C24 2036   4.364   2.726   2.345 -0.3781  0.8984 -0.1659
   16SAPS   H4R 2037   4.274   2.666   2.318  0.5146 -0.1443 -0.9272
   16SAPS   H4S 2038   4.338   2.828   2.380  2.1570  0.5842  3.1194
   16SAPS   C25 2039   4.424   2.647   2.460 -0.8988 -0.3020 -0.7804
   16SAPS   H5R 2040   4.476   2.555   2.433 -0.4216 -0.3926  0.4125
   16SAPS   C26 2041   4.419   2.681   2.593 -0.8992  0.1021  0.6004
   16SAPS   H6R 2042   4.470   2.616   2.666  0.4885 -1.3313 -1.5419
   16SAPS   C27 2043   4.340   2.796   2.655  0.1084 -0.5209 -0.3044
   16SAPS   H7R 2044   4.347   2.865   2.568  1.6283 -1.5057 -1.0017
   16SAPS   H7S 2045   4.400   2.842   2.736  2.2141 -0.7770 -1.6478
   16SAPS   C28 2046   4.194   2.760   2.680  0.2701  0.1014 -0.6972
   16SAPS   H8R 2047   4.125   2.751   2.595 -1.1456  1.4231  0.2527
   16SAPS   C29 2048   4.155   2.719   2.809  0.0795 -0.4675  0.4685
   16SAPS   H9R 2049   4.047   2.705   2.827 -0.1466  1.9467  1.2307
   16SAPS  C210 2050   4.253   2.690   2.919  0.6539  0.1637 -0.1738
   16SAPS  H10R 2051   4.299   2.786   2.950  0.1904  0.3894 -0.1846
   16SAPS  H10S 2052   4.330   2.611   2.903  1.7817  0.8518  1.6234
   16SAPS  C211 2053   4.172   2.639   3.036 -0.3171 -0.1027  0.0457
   16SAPS  H11R 2054   4.098   2.562   3.010  0.3463 -0.4274 -0.9392
   16SAPS  C212 2055   4.175   2.686   3.162 -0.3683  0.5057  0.9351
   16SAPS  H12R 2056   4.104   2.642   3.234  0.5122  0.1492  1.5986
   16SAPS  C213 2057   4.262   2.792   3.220 -0.4073  0.4561  0.4510
   16SAPS  H13R 2058   4.311   2.848   3.137  0.1374  0.9821  1.1117
   16SAPS  H13S 2059   4.345   2.746   3.276 -0.8771 -2.7937 -1.2944
   16SAPS  C214 2060   4.192   2.886   3.326  0.2710 -0.5228  0.1414
   16SAPS  H14R 2061   4.137   2.970   3.283  1.8508  0.4754 -0.0181
   16SAPS  C215 2062   4.201   2.868   3.461 -0.2380 -0.4041  0.5090
   16SAPS  H15R 2063   4.131   2.926   3.523 -0.0633  0.9964 -0.5509
   16SAPS  C216 2064   4.286   2.775   3.546  0.0396  0.5592 -0.1764
   16SAPS  H16R 2065   4.342   2.705   3.481 -0.6475 -0.7179  0.5607
   16SAPS  H16S 2066   4.214   2.705   3.594 -2.2334 -0.1177 -4.1288
   16SAPS  C217 2067   4.396   2.847   3.631  0.1012 -0.2825 -0.8479
   16SAPS  H17R 2068   4.443   2.913   3.555 -1.3623  1.9877  0.1194
   16SAPS  H17S 2069   4.479   2.791   3.680 -0.5568  1.3906  2.4253
   16SAPS  C218 2070   4.339   2.942   3.737  0.6695 -0.3464  0.0076
   16SAPS  H18R 2071   4.270   2.883   3.800 -2.8507  1.8283 -1.5017
   16SAPS  H18S 2072   4.264   3.017   3.705 -0.2630  0.1612  3.0823
   16SAPS  C219 2073   4.446   3.011   3.819 -0.0716  0.1653  0.1148
   16SAPS  H19R 2074   4.494   3.087   3.753 -2.6003  0.5852 -1.3843
   16SAPS  H19S 2075   4.521   2.933   3.839 -1.3368 -1.6960 -1.9170
   16SAPS  C220 2076   4.396   3.083   3.945 -0.1679 -0.6018 -0.6883
   16SAPS  H20R 2077   4.317   3.023   3.996  1.4677 -1.4612  0.9466
   16SAPS  H20S 2078   4.342   3.176   3.918  0.3455 -0.5986 -1.7464
   16SAPS  H20T 2079   4.482   3.101   4.013  0.1823 -2.3015 -0.6206
   16SAPS   C33 2080   4.010   2.333   2.530 -0.2785  0.3812 -0.3138
   16SAPS   H3X 2081   4.057   2.236   2.556 -0.0255  0.1370 -1.6082
   16SAPS   H3Y 2082   3.913   2.304   2.483  0.3352 -1.9103 -0.2840
   16SAPS   C34 2083   3.974   2.421   2.652  0.5394 -0.1936  0.6293
   16SAPS   H4X 2084   3.901   2.497   2.617  1.8475  1.0288  0.4647
   16SAPS   H4Y 2085   4.064   2.472   2.692 -0.2472  0.9839  0.9294
   16SAPS   C35 2086   3.911   2.338   2.759  0.2330 -1.4082  0.1663
   16SAPS   H5X 2087   3.989   2.289   2.821 -1.3005 -2.0415  1.6519
   16SAPS   H5Y 2088   3.848   2.260   2.711  0.6223 -1.1814 -0.7384
   16SAPS   C36 2089   3.821   2.426   2.846 -0.5154 -0.4118 -0.3383
   16SAPS   H6X 2090   3.751   2.493   2.793  0.1175  0.7969  0.3215
   16SAPS   H6Y 2091   3.893   2.493   2.896 -0.0867 -1.2868  0.2504
   16SAPS   C37 2092   3.729   2.349   2.940 -0.1378  0.3607 -0.2615
   16SAPS   H7X 2093   3.790   2.265   2.980  0.3666  0.1363 -1.4550
   16SAPS   H7Y 2094   3.640   2.312   2.884  0.7794  0.1478 -1.6343
   16SAPS   C38 2095   3.684   2.437   3.057 -0.4967 -0.6025  0.7784
   16SAPS   H8X 2096   3.608   2.507   3.015  0.2950  0.7729  1.5598
   16SAPS   H8Y 2097   3.768   2.503   3.087  0.2700 -1.4136  0.4404
   16SAPS   C39 2098   3.627   2.349   3.173 -0.6641 -0.7994  0.1631
   16SAPS   H9X 2099   3.690   2.257   3.175 -0.8978 -1.0604 -2.3545
   16SAPS   H9Y 2100   3.522   2.323   3.150 -1.0227  1.4371 -0.9497
   16SAPS  C310 2101   3.648   2.425   3.299 -0.4035 -0.0790  0.8117
   16SAPS  H10X 2102   3.610   2.530   3.299  0.0368  0.0836  0.5204
   16SAPS  H10Y 2103   3.758   2.435   3.311  0.1266 -1.4602 -2.0579
   16SAPS  C311 2104   3.585   2.365   3.427  0.1189 -0.0748  0.2647
   16SAPS  H11X 2105   3.617   2.260   3.445 -2.3485 -1.0974 -0.8755
   16SAPS  H11Y 2106   3.474   2.363   3.421  0.0777  1.1648  0.3598
   16SAPS  C312 2107   3.632   2.446   3.555  0.4610  0.2223 -0.5655
   16SAPS  H12X 2108   3.590   2.549   3.550  0.2099  0.2813  1.8188
   16SAPS  H12Y 2109   3.742   2.457   3.568  0.1857  0.8909  1.3958
   16SAPS  C313 2110   3.572   2.391   3.689  0.5502  0.4437 -0.4863
   16SAPS  H13X 2111   3.628   2.297   3.709 -1.5796 -0.7765  0.0037
   16SAPS  H13Y 2112   3.463   2.375   3.677  0.5163  0.0234  0.3291
   16SAPS  C314 2113   3.596   2.476   3.815  0.1256 -0.2754  0.0814
   16SAPS  H14X 2114   3.533   2.566   3.801 -0.6355 -0.9666 -1.0977
   16SAPS  H14Y 2115   3.702   2.505   3.831 -0.2019  0.5703  0.8199
   16SAPS  C315 2116   3.538   2.412   3.942 -0.1569 -0.3649 -0.2391
   16SAPS  H15X 2117   3.596   2.318   3.953  0.8906  0.1117 -1.5391
   16SAPS  H15Y 2118   3.435   2.382   3.912  0.8914 -3.5144 -1.0989
   16SAPS  C316 2119   3.539   2.498   4.070  0.4936 -0.1506  0.5773
   16SAPS  H16X 2120   3.478   2.440   4.141 -1.1038 -2.5536 -2.5184
   16SAPS  H16Y 2121   3.484   2.592   4.049 -0.6138 -1.5928 -4.1944
   16SAPS  C317 2122   3.676   2.516   4.127 -0.0735  0.2131 -0.0596
   16SAPS  H17X 2123   3.688   2.605   4.193  1.2386  0.1737 -0.2202
   16SAPS  H17Y 2124   3.751   2.511   4.045 -1.0316 -4.0159 -0.9107
   16SAPS  C318 2125   3.716   2.392   4.199 -0.3139 -0.5468  0.1337
   16SAPS  H18X 2126   3.814   2.413   4.246  1.4322  1.6909 -4.0227
   16SAPS  H18Y 2127   3.722   2.299   4.138 -1.6710 -0.0644 -0.7920
   16SAPS  H18Z 2128   3.651   2.375   4.287 -0.1662 -3.0268 -0.1702
   17SAPS     N 2129   4.837   2.307   1.880  0.4960 -0.2201 -0.7449
   17SAPS   HN1 2130   4.863   2.309   1.980 -0.9425 -0.8155 -0.3412
   17SAPS   HN2 2131   4.817   2.405   1.849  0.9527  0.0293 -0.2733
   17SAPS   HN3 2132   4.743   2.265   1.871  0.7874 -1.0138 -0.0944
   17SAPS   C12 2133   4.930   2.234   1.783  0.3155 -0.4445 -0.5815
   17SAPS  H12A 2134   4.971   2.143   1.825 -0.8452  0.1894  2.1115
   17SAPS   C13 2135   4.865   2.203   1.649  0.4408  0.5286 -0.0527
   17SAPS  O13A 2136   4.739   2.225   1.642 -0.1363  0.5217  0.8342
   17SAPS  O13B 2137   4.920   2.132   1.560 -0.5646  0.2472  0.8283
   17SAPS   C11 2138   5.047   2.337   1.760  0.2167  0.4351 -0.4237
   17SAPS  H11A 2139   4.991   2.431   1.742  0.3313  0.2701 -1.7322
   17SAPS  H11B 2140   5.108   2.311   1.670 -0.7678  1.0268 -1.2743
   17SAPS     P 2141   5.194   2.492   1.918  0.0469 -0.0186 -0.5891
   17SAPS   O13 2142   5.287   2.542   1.815  0.4413  0.0676 -0.3151
   17SAPS   O14 2143   5.083   2.586   1.955  0.1193 -0.1720 -0.0764
   17SAPS   O12 2144   5.126   2.355   1.879 -0.1408  0.3997  0.0431
   17SAPS   O11 2145   5.285   2.464   2.041  0.5832 -0.5828 -0.3961
   17SAPS    C1 2146   5.355   2.344   2.055  0.0812  0.0485 -0.1988
   17SAPS    HA 2147   5.358   2.284   1.961 -2.7547  1.0420 -0.9998
   17SAPS    HB 2148   5.461   2.367   2.080  0.7707 -2.0358 -0.9711
   17SAPS    C2 2149   5.289   2.253   2.156 -0.9629 -0.1643 -1.3631
   17SAPS    HS 2150   5.180   2.248   2.136 -1.6373 -0.1370  1.8154
   17SAPS   O21 2151   5.319   2.300   2.288  0.2302  0.5462  0.3174
   17SAPS   C21 2152   5.220   2.318   2.366  0.5835 -0.1588 -0.1461
   17SAPS   O22 2153   5.102   2.318   2.338 -0.0393  0.0414  0.4078
   17SAPS   C22 2154   5.270   2.362   2.503 -0.5410 -0.3617 -0.3913
   17SAPS   H2R 2155   5.337   2.285   2.547 -0.0918  1.1680  1.7653
   17SAPS   H2S 2156   5.339   2.447   2.484 -2.0481  0.7232 -1.2347
   17SAPS    C3 2157   5.349   2.110   2.149  0.6151 -0.4249 -0.7788
   17SAPS    HX 2158   5.453   2.118   2.186 -0.0814 -0.8010  1.4368
   17SAPS    HY 2159   5.334   2.078   2.043 -0.5914  0.8840 -1.0361
   17SAPS   O31 2160   5.263   2.038   2.245  0.3234 -0.3871 -0.1037
   17SAPS   C31 2161   5.309   1.913   2.260  0.4884  0.4207  0.2667
   17SAPS   O32 2162   5.407   1.867   2.211 -0.0322 -0.1149  0.3180
   17SAPS   C32 2163   5.212   1.852   2.372 -0.0169  0.4600 -0.6046
   17SAPS   H2X 2164   5.187   1.748   2.341 -0.8224  1.1461 -2.3663
   17SAPS   H2Y 2165   5.118   1.912   2.373 -0.2704  0.1668  1.9390
   17SAPS   C23 2166   5.167   2.398   2.618  0.2637 -0.6549  0.4528
   17SAPS   H3R 2167   5.113   2.304   2.644 -0.5966 -0.2468  0.1962
   17SAPS   H3S 2168   5.088   2.468   2.582 -0.5562 -1.2655  1.0239
   17SAPS   C24 2169   5.231   2.457   2.744 -0.1620 -0.1890 -0.4611
   17SAPS   H4R 2170   5.299   2.540   2.718  0.6980 -0.7852 -0.1592
   17SAPS   H4S 2171   5.282   2.365   2.781  0.5132  0.1122 -0.6371
   17SAPS   C25 2172   5.123   2.497   2.848 -0.3422  0.0652  0.1201
   17SAPS   H5R 2173   5.025   2.526   2.808  0.4728  3.4235  0.2435
   17SAPS   C26 2174   5.145   2.521   2.981  0.4419  0.6905 -0.2474
   17SAPS   H6R 2175   5.059   2.560   3.037  1.0642  0.8544  0.6223
   17SAPS   C27 2176   5.273   2.510   3.050  0.6154  0.4043  0.3484
   17SAPS   H7R 2177   5.336   2.435   2.998  0.5064 -0.7207  1.7421
   17SAPS   H7S 2178   5.255   2.460   3.148  1.1616 -0.7077 -0.1005
   17SAPS   C28 2179   5.361   2.630   3.062  0.5536 -0.4467 -0.0898
   17SAPS   H8R 2180   5.434   2.643   2.980 -0.1326  1.6868 -0.4280
   17SAPS   C29 2181   5.339   2.739   3.140 -0.0525 -0.1226  0.6132
   17SAPS   H9R 2182   5.423   2.810   3.136  0.7885 -1.1162  0.0276
   17SAPS  C210 2183   5.231   2.776   3.240 -0.0865  0.3689 -0.1572
   17SAPS  H10R 2184   5.148   2.815   3.177 -0.1446  0.4508 -0.0318
   17SAPS  H10S 2185   5.257   2.863   3.304 -1.6258 -0.0911  1.1733
   17SAPS  C211 2186   5.188   2.661   3.327 -0.2819 -0.2135  1.0886
   17SAPS  H11R 2187   5.082   2.636   3.309  0.0916 -2.3800  1.6286
   17SAPS  C212 2188   5.262   2.597   3.411  0.3393  1.3592 -0.2653
   17SAPS  H12R 2189   5.210   2.513   3.459 -1.5665  2.7002  0.1445
   17SAPS  C213 2190   5.403   2.629   3.466  0.8418 -0.1683 -0.2827
   17SAPS  H13R 2191   5.382   2.709   3.540  0.7004 -0.3440 -0.1302
   17SAPS  H13S 2192   5.465   2.678   3.388  2.5675 -1.9370 -0.1031
   17SAPS  C214 2193   5.480   2.506   3.518  0.2943  0.2023  0.8112
   17SAPS  H14R 2194   5.548   2.458   3.447 -0.7900  0.2628 -0.3094
   17SAPS  C215 2195   5.450   2.452   3.632  0.3661 -0.0395 -0.1411
   17SAPS  H15R 2196   5.503   2.365   3.673 -0.8087 -0.6518  0.1228
   17SAPS  C216 2197   5.338   2.495   3.726  0.1517  0.6253 -0.0380
   17SAPS  H16R 2198   5.285   2.585   3.689 -0.9744  0.4921  1.2013
   17SAPS  H16S 2199   5.386   2.530   3.820 -0.3051 -0.1658  0.4924
   17SAPS  C217 2200   5.244   2.384   3.757 -0.0705  1.0030 -0.1247
   17SAPS  H17R 2201   5.303   2.312   3.817 -0.5347  0.5687 -0.1898
   17SAPS  H17S 2202   5.214   2.333   3.663  2.6530  0.9345 -1.0568
   17SAPS  C218 2203   5.125   2.412   3.848  0.3832 -0.0832 -0.4894
   17SAPS  H18R 2204   5.059   2.467   3.778  1.4278  1.3907 -0.3729
   17SAPS  H18S 2205   5.151   2.478   3.934  0.6634 -0.5995 -0.1747
   17SAPS  C219 2206   5.068   2.283   3.913 -0.5122 -0.6052 -0.2252
   17SAPS  H19R 2207   4.998   2.315   3.993  1.3470  1.2419  0.7635
   17SAPS  H19S 2208   5.143   2.225   3.970 -1.4672 -1.6266  0.0288
   17SAPS  C220 2209   5.012   2.187   3.807  0.4654  0.0717  0.0692
   17SAPS  H20R 2210   4.976   2.093   3.855  3.1020 -0.6855  0.7303
   17SAPS  H20S 2211   5.098   2.160   3.742  1.4673 -1.5394  1.9283
   17SAPS  H20T 2212   4.928   2.230   3.748  0.1624 -0.7841 -0.1354
   17SAPS   C33 2213   5.280   1.854   2.518 -0.5701  0.1276  0.1936
   17SAPS   H3X 2214   5.383   1.816   2.501 -0.2813  1.5386 -1.4028
   17SAPS   H3Y 2215   5.223   1.794   2.593  0.1614 -1.1054 -0.2113
   17SAPS   C34 2216   5.281   1.999   2.574  0.2177  0.2168 -0.5724
   17SAPS   H4X 2217   5.217   2.064   2.511  1.0095  0.5038 -1.0996
   17SAPS   H4Y 2218   5.377   2.048   2.546 -1.2925  2.5359 -2.0107
   17SAPS   C35 2219   5.246   2.015   2.723 -0.1438 -0.3321 -0.6161
   17SAPS   H5X 2220   5.144   1.970   2.730  0.1918 -0.9145  0.7824
   17SAPS   H5Y 2221   5.250   2.119   2.762  1.4639 -0.1260 -1.2763
   17SAPS   C36 2222   5.338   1.937   2.817 -0.0517 -0.0637 -0.1965
   17SAPS   H6X 2223   5.439   1.981   2.807  0.0252 -0.1469  0.1796
   17SAPS   H6Y 2224   5.344   1.831   2.783  0.6714 -0.4960  1.1783
   17SAPS   C37 2225   5.290   1.932   2.966 -1.3370  0.3257 -0.4008
   17SAPS   H7X 2226   5.369   1.871   3.014 -0.9517 -1.6768 -3.3105
   17SAPS   H7Y 2227   5.187   1.889   2.963 -1.5551  0.8299 -0.2933
   17SAPS   C38 2228   5.297   2.065   3.040  0.4326  0.4830 -0.4685
   17SAPS   H8X 2229   5.236   2.146   2.996  0.7933  1.2747  0.4505
   17SAPS   H8Y 2230   5.402   2.103   3.044  1.3648 -1.8101 -1.4259
   17SAPS   C39 2231   5.255   2.043   3.187 -0.6422  0.0756  0.2860
   17SAPS   H9X 2232   5.292   1.944   3.220  0.2646 -0.5097 -2.2483
   17SAPS   H9Y 2233   5.145   2.027   3.193 -0.6064 -0.2405  0.1313
   17SAPS  C310 2234   5.309   2.147   3.293 -0.4643  0.4547 -0.4851
   17SAPS  H10X 2235   5.286   2.241   3.240 -0.5744 -0.7992 -2.8064
   17SAPS  H10Y 2236   5.415   2.141   3.327 -0.0618  0.1975 -1.7144
   17SAPS  C311 2237   5.226   2.149   3.426 -0.4700 -0.4435 -0.8890
   17SAPS  H11X 2238   5.129   2.195   3.394 -0.5962 -0.8006 -1.0206
   17SAPS  H11Y 2239   5.263   2.231   3.491 -2.3047 -0.3092  0.0511
   17SAPS  C312 2240   5.207   2.012   3.491  0.0193  0.4841  0.1102
   17SAPS  H12X 2241   5.169   1.942   3.414  0.0549 -0.0181  0.5482
   17SAPS  H12Y 2242   5.131   2.015   3.572 -1.5271 -0.5687 -1.2534
   17SAPS  C313 2243   5.344   1.954   3.533  0.5752  0.4748  0.4969
   17SAPS  H13X 2244   5.421   1.942   3.454  0.1962 -1.5597  0.3994
   17SAPS  H13Y 2245   5.315   1.855   3.573 -1.0892  0.4709 -0.6422
   17SAPS  C314 2246   5.401   2.040   3.647  0.0241 -0.3128  0.2225
   17SAPS  H14X 2247   5.326   2.050   3.729  1.8978 -1.7854  2.2022
   17SAPS  H14Y 2248   5.414   2.139   3.598 -2.2756 -0.7300 -1.4042
   17SAPS  C315 2249   5.520   1.978   3.717 -0.0576 -0.0963 -0.5590
   17SAPS  H15X 2250   5.571   2.036   3.798  0.1382  0.4874 -1.0921
   17SAPS  H15Y 2251   5.608   1.971   3.650  1.8690 -1.3405  1.9249
   17SAPS  C316 2252   5.490   1.832   3.767 -0.1841  0.1491  0.2077
   17SAPS  H16X 2253   5.467   1.764   3.682 -0.5303 -0.6735  0.9450
   17SAPS  H16Y 2254   5.413   1.812   3.844 -0.1772  0.4715  0.3002
   17SAPS  C317 2255   5.624   1.785   3.832  0.2219 -0.7204 -0.3813
   17SAPS  H17X 2256   5.644   1.841   3.927 -0.7588 -1.7810  0.4764
   17SAPS  H17Y 2257   5.711   1.828   3.778  0.9994  1.1971  2.1521
   17SAPS  C318 2258   5.646   1.638   3.853 -0.4616  0.9662 -0.2106
   17SAPS  H18X 2259   5.574   1.598   3.928 -0.6245  0.7271 -0.4924
   17SAPS  H18Y 2260   5.751   1.620   3.884 -1.2231 -1.9346  0.9680
   17SAPS  H18Z 2261   5.626   1.585   3.757 -0.6582 -2.6752  1.6621
   18SAPS     N 2262   5.679   6.216   6.849 -0.4560  0.4723  0.5183
   18SAPS   HN1 2263   5.680   6.157   6.934  2.5002 -1.1541 -0.5088
   18SAPS   HN2 2264   5.638   6.174   6.763 -0.0488  3.4055 -1.2414
   18SAPS   HN3 2265   5.776   6.242   6.823  0.0620 -1.6515  0.1587
   18SAPS   C12 2266   5.592   6.336   6.872  0.1773 -0.1816 -0.4805
   18SAPS  H12A 2267   5.489   6.320   6.845  0.0295 -1.3848  0.7409
   18SAPS   C13 2268   5.596   6.395   7.012  0.1929  0.2876 -0.2490
   18SAPS  O13A 2269   5.658   6.335   7.105  0.0677  0.2810  0.3102
   18SAPS  O13B 2270   5.518   6.484   7.039  0.4590  0.3285  0.2148
   18SAPS   C11 2271   5.655   6.434   6.763  0.2900  0.2685 -0.0594
   18SAPS  H11A 2272   5.765   6.443   6.776  0.4055 -1.5491  0.5020
   18SAPS  H11B 2273   5.618   6.537   6.783  2.6709  0.6901  2.8712
   18SAPS     P 2274   5.509   6.437   6.547  0.1322  0.4962  0.3432
   18SAPS   O13 2275   5.443   6.320   6.492  0.3306  0.0938  0.6882
   18SAPS   O14 2276   5.426   6.521   6.633  0.3137  0.5258 -0.0014
   18SAPS   O12 2277   5.627   6.382   6.629 -0.5033 -0.4508 -0.7601
   18SAPS   O11 2278   5.583   6.513   6.436 -0.1883  0.4986  0.3460
   18SAPS    C1 2279   5.648   6.442   6.324  0.0781  0.4574 -0.9076
   18SAPS    HA 2280   5.756   6.467   6.316 -0.0376  0.7191 -1.7084
   18SAPS    HB 2281   5.634   6.332   6.317  0.4471  0.2959  0.5820
   18SAPS    C2 2282   5.585   6.489   6.185  0.6859 -0.0995  0.3065
   18SAPS    HS 2283   5.547   6.593   6.200  0.9530  0.2111 -1.0453
   18SAPS   O21 2284   5.493   6.390   6.148  0.5204 -0.6761  0.2819
   18SAPS   C21 2285   5.376   6.440   6.100  0.2541  0.3663 -0.0413
   18SAPS   O22 2286   5.330   6.547   6.129  0.2082 -0.7607  0.0105
   18SAPS   C22 2287   5.315   6.335   6.004  0.2830 -0.1674  0.4180
   18SAPS   H2R 2288   5.385   6.319   5.919 -1.2683 -1.2140 -0.7458
   18SAPS   H2S 2289   5.308   6.235   6.051 -0.8676 -0.5273 -0.4424
   18SAPS    C3 2290   5.696   6.507   6.068 -0.2142 -0.8916  0.6193
   18SAPS    HX 2291   5.753   6.414   6.049 -0.9355 -1.0698 -0.7598
   18SAPS    HY 2292   5.774   6.578   6.103  0.2222 -2.2300  2.5648
   18SAPS   O31 2293   5.622   6.564   5.955  0.4248  0.0558 -0.0822
   18SAPS   C31 2294   5.614   6.495   5.845 -0.2791 -0.6108  0.3046
   18SAPS   O32 2295   5.663   6.383   5.824  0.2237 -0.0152 -0.2917
   18SAPS   C32 2296   5.528   6.570   5.741  0.6297  0.2967 -0.5245
   18SAPS   H2X 2297   5.580   6.660   5.703  0.5681  0.5438 -0.0274
   18SAPS   H2Y 2298   5.434   6.601   5.792  1.5153  1.2090  0.6102
   18SAPS   C23 2299   5.167   6.372   5.975 -0.6469  0.5959  0.1791
   18SAPS   H3R 2300   5.160   6.432   5.882 -3.5859 -0.0816 -0.1443
   18SAPS   H3S 2301   5.105   6.412   6.058  0.9349  0.4153  1.4967
   18SAPS   C24 2302   5.087   6.239   5.938 -0.4537 -0.4665 -0.2197
   18SAPS   H4R 2303   4.984   6.275   5.920 -0.9532 -2.0117 -0.6505
   18SAPS   H4S 2304   5.099   6.166   6.021  2.4054 -1.9218 -1.7238
   18SAPS   C25 2305   5.136   6.161   5.821  0.0927  0.9129  0.7825
   18SAPS   H5R 2306   5.216   6.090   5.846 -0.7123 -0.3460 -0.0712
   18SAPS   C26 2307   5.083   6.162   5.690  0.2744 -0.4335 -0.6091
   18SAPS   H6R 2308   5.126   6.098   5.612  0.5577 -0.7253 -0.2083
   18SAPS   C27 2309   4.969   6.242   5.638  0.2360 -0.2091 -0.2949
   18SAPS   H7R 2310   4.909   6.266   5.729  1.2604 -0.4916  0.4682
   18SAPS   H7S 2311   4.908   6.183   5.567 -0.6649 -0.8373  0.9547
   18SAPS   C28 2312   5.028   6.363   5.571  1.2061 -0.1784  0.0755
   18SAPS   H8R 2313   5.058   6.435   5.649  0.1537 -0.5539  0.8428
   18SAPS   C29 2314   5.045   6.377   5.438 -0.3185 -0.6179 -0.3279
   18SAPS   H9R 2315   5.078   6.477   5.407 -1.3705  0.4575  1.8339
   18SAPS  C210 2316   5.013   6.273   5.334 -0.1374  0.2553 -0.5869
   18SAPS  H10R 2317   4.985   6.179   5.386  4.0706 -1.0128 -0.2928
   18SAPS  H10S 2318   5.110   6.236   5.297 -0.0086 -1.0788  0.9910
   18SAPS  C211 2319   4.912   6.315   5.229  0.2670 -0.0053 -0.7779
   18SAPS  H11R 2320   4.815   6.346   5.271  0.2838 -0.9098 -0.0400
   18SAPS  C212 2321   4.903   6.291   5.098  0.7037  0.1385 -0.1320
   18SAPS  H12R 2322   4.824   6.322   5.029  1.7812  1.7475 -0.7007
   18SAPS  C213 2323   5.005   6.223   5.018 -0.5502  0.2199 -0.0125
   18SAPS  H13R 2324   5.105   6.230   5.066  0.2325  0.8059 -1.6485
   18SAPS  H13S 2325   5.021   6.291   4.932  1.2357  1.5383  1.2808
   18SAPS  C214 2326   4.979   6.087   4.971  0.3257 -0.0936 -0.5722
   18SAPS  H14R 2327   4.915   6.031   5.040  0.5585  0.4606  0.1052
   18SAPS  C215 2328   5.014   6.027   4.859  0.0651  0.6611  0.2376
   18SAPS  H15R 2329   4.991   5.920   4.843 -0.5388  0.8486 -0.1887
   18SAPS  C216 2330   5.090   6.087   4.746 -0.0180  0.4375 -0.0644
   18SAPS  H16R 2331   5.195   6.052   4.748  0.1811  0.9514  2.5176
   18SAPS  H16S 2332   5.090   6.198   4.755  1.3410  0.3774  1.0502
   18SAPS  C217 2333   5.036   6.059   4.602  0.2206 -0.0832  0.3331
   18SAPS  H17R 2334   5.089   6.125   4.531 -1.1060  1.4812  0.7193
   18SAPS  H17S 2335   4.926   6.074   4.598 -0.0741 -2.2374 -0.9688
   18SAPS  C218 2336   5.064   5.908   4.559  0.5149 -0.2430 -0.2697
   18SAPS  H18R 2337   5.027   5.844   4.642  2.5094  0.6640  1.4025
   18SAPS  H18S 2338   5.174   5.891   4.560  0.6394  0.5302 -0.1971
   18SAPS  C219 2339   5.002   5.856   4.431  0.7113  0.0617  0.2345
   18SAPS  H19R 2340   4.891   5.857   4.438  0.6438 -1.1652 -0.3718
   18SAPS  H19S 2341   5.028   5.751   4.406 -0.5728  0.2496 -2.2145
   18SAPS  C220 2342   5.043   5.946   4.307 -0.0644  0.7117 -0.0184
   18SAPS  H20R 2343   4.982   5.917   4.218 -1.5881 -1.3600  1.6073
   18SAPS  H20S 2344   5.150   5.949   4.279  0.0574  2.6854  0.5188
   18SAPS  H20T 2345   5.011   6.052   4.311  1.5542  1.2805 -1.2051
   18SAPS   C33 2346   5.506   6.490   5.608  0.1430  0.3179  0.2278
   18SAPS   H3X 2347   5.424   6.415   5.613 -1.4339  1.7339 -2.1552
   18SAPS   H3Y 2348   5.594   6.426   5.589  0.7227  0.6416  1.6757
   18SAPS   C34 2349   5.473   6.583   5.494  0.5703 -0.8524  0.0326
   18SAPS   H4X 2350   5.568   6.633   5.465 -1.4824  2.6962 -1.3686
   18SAPS   H4Y 2351   5.394   6.655   5.525 -1.2257 -2.5940 -0.2860
   18SAPS   C35 2352   5.412   6.500   5.378  0.3347  0.1189 -0.0790
   18SAPS   H5X 2353   5.311   6.467   5.412  1.1339 -0.4723  1.9010
   18SAPS   H5Y 2354   5.462   6.403   5.361 -1.2370 -0.7210 -0.1244
   18SAPS   C36 2355   5.397   6.557   5.236  0.4788 -0.3375 -0.1560
   18SAPS   H6X 2356   5.497   6.581   5.194  0.8979 -1.0334  0.4233
   18SAPS   H6Y 2357   5.339   6.651   5.239 -0.4920 -0.8640 -1.4188
   18SAPS   C37 2358   5.318   6.472   5.139  0.0845 -0.5749  0.1167
   18SAPS   H7X 2359   5.211   6.485   5.165  0.7406  4.0713  1.4589
   18SAPS   H7Y 2360   5.341   6.364   5.144 -0.6682 -0.7030  0.9795
   18SAPS   C38 2361   5.353   6.526   5.003 -0.2448  0.0147 -0.0574
   18SAPS   H8X 2362   5.461   6.501   4.992 -0.3354 -0.4857  0.1789
   18SAPS   H8Y 2363   5.342   6.636   4.990  2.6723  0.5146  0.9374
   18SAPS   C39 2364   5.283   6.454   4.882 -0.1444  0.3650 -0.3421
   18SAPS   H9X 2365   5.174   6.468   4.898 -0.5103 -3.3216  1.4770
   18SAPS   H9Y 2366   5.304   6.347   4.905  1.3082  1.0378  1.7493
   18SAPS  C310 2367   5.324   6.492   4.740 -0.2344  0.3130 -0.0789
   18SAPS  H10X 2368   5.418   6.440   4.710 -1.2303 -1.3329 -0.4674
   18SAPS  H10Y 2369   5.346   6.601   4.740  1.6610 -0.0320 -0.2848
   18SAPS  C311 2370   5.219   6.454   4.632  0.2391  0.1649  0.3822
   18SAPS  H11X 2371   5.125   6.513   4.631  0.1544  0.0386  0.7422
   18SAPS  H11Y 2372   5.201   6.346   4.645  0.5679 -0.2173 -1.8610
   18SAPS  C312 2373   5.272   6.478   4.493 -0.5936 -0.0029  0.3819
   18SAPS  H12X 2374   5.329   6.390   4.455  0.3764 -0.1997  2.1416
   18SAPS  H12Y 2375   5.338   6.567   4.486  0.8095 -1.1063 -1.5183
   18SAPS  C313 2376   5.161   6.487   4.384 -0.3209 -1.2118  0.5688
   18SAPS  H13X 2377   5.213   6.518   4.291  1.4956  1.4351  2.3031
   18SAPS  H13Y 2378   5.088   6.563   4.420  1.7653  0.9444  0.5006
   18SAPS  C314 2379   5.092   6.353   4.341  0.1664  0.6242  0.0882
   18SAPS  H14X 2380   5.053   6.310   4.436  2.8342 -1.2180  0.4531
   18SAPS  H14Y 2381   5.162   6.278   4.301  1.0592  1.4606  0.0387
   18SAPS  C315 2382   4.969   6.364   4.243 -0.9943  0.3030  0.0694
   18SAPS  H15X 2383   4.943   6.470   4.224  1.4292  0.5886 -2.3230
   18SAPS  H15Y 2384   4.884   6.302   4.278 -0.9160 -1.5100 -2.6675
   18SAPS  C316 2385   4.990   6.311   4.100 -0.5471  0.1511  0.1194
   18SAPS  H16X 2386   4.988   6.200   4.090 -0.6203  0.3294 -2.2019
   18SAPS  H16Y 2387   5.089   6.356   4.078 -0.3888  0.1534  0.7900
   18SAPS  C317 2388   4.877   6.359   4.008 -0.2741 -0.0831  0.0342
   18SAPS  H17X 2389   4.884   6.469   4.007 -0.4368 -0.0632  0.6057
   18SAPS  H17Y 2390   4.778   6.336   4.053 -0.5599  0.2459 -0.4174
   18SAPS  C318 2391   4.882   6.302   3.866 -0.4045 -0.0133  0.0349
   18SAPS  H18X 2392   4.811   6.217   3.859  0.5218 -0.6816 -2.0402
   18SAPS  H18Y 2393   4.985   6.285   3.827  0.2943  2.2391  0.7694
   18SAPS  H18Z 2394   4.833   6.378   3.801  0.6220  0.0577 -0.6853
   19SAPS     N 2395   2.999   5.761   1.232 -0.2901  0.3759 -0.6252
   19SAPS   HN1 2396   3.044   5.756   1.139 -2.9430  1.7330 -2.1031
   19SAPS   HN2 2397   3.049   5.840   1.278  1.1819 -0.7702 -0.1643
   19SAPS   HN3 2398   3.041   5.678   1.279  0.0154 -0.0879 -1.6813
   19SAPS   C12 2399   2.853   5.771   1.243  0.0772  0.4899  0.3418
   19SAPS  H12A 2400   2.817   5.860   1.193 -3.1410 -0.5985  0.4962
   19SAPS   C13 2401   2.773   5.660   1.168  0.1749  0.2895 -0.4065
   19SAPS  O13A 2402   2.831   5.565   1.112 -0.8678  0.2135 -0.3805
   19SAPS  O13B 2403   2.648   5.684   1.172 -0.0648  0.2083 -0.1998
   19SAPS   C11 2404   2.823   5.768   1.397 -0.0342 -0.8200  0.2299
   19SAPS  H11A 2405   2.712   5.768   1.391 -0.0493 -2.6407 -0.0815
   19SAPS  H11B 2406   2.866   5.857   1.447  1.6345 -0.1742 -2.1723
   19SAPS     P 2407   2.826   5.608   1.597 -0.2669 -0.0352 -0.1827
   19SAPS   O13 2408   2.871   5.468   1.626 -0.1312 -0.0833  0.2872
   19SAPS   O14 2409   2.863   5.710   1.696 -0.1253 -0.5412  0.3669
   19SAPS   O12 2410   2.874   5.644   1.457  0.0064 -0.4655  0.5669
   19SAPS   O11 2411   2.670   5.603   1.587 -0.4282  0.2628 -0.1155
   19SAPS    C1 2412   2.584   5.685   1.658 -0.3569 -0.2679  0.4408
   19SAPS    HA 2413   2.625   5.782   1.693  1.6850 -1.3754  1.2509
   19SAPS    HB 2414   2.499   5.697   1.587  1.2158 -1.0589 -1.6698
   19SAPS    C2 2415   2.524   5.606   1.779 -0.2904 -0.5776 -0.2173
   19SAPS    HS 2416   2.454   5.671   1.836  1.3772  0.7464  0.4237
   19SAPS   O21 2417   2.633   5.561   1.860 -0.6706 -0.6412  0.4984
   19SAPS   C21 2418   2.667   5.644   1.956  0.3782 -0.3466  0.3199
   19SAPS   O22 2419   2.611   5.753   1.973 -0.0146  0.0999  0.0374
   19SAPS   C22 2420   2.797   5.609   2.024 -0.1004  0.1852 -0.0977
   19SAPS   H2R 2421   2.802   5.503   2.056 -1.1225  0.2833  0.4050
   19SAPS   H2S 2422   2.861   5.627   1.934 -1.9894 -0.9130 -1.7475
   19SAPS    C3 2423   2.447   5.483   1.734 -0.2528  0.2186  0.0065
   19SAPS    HX 2424   2.514   5.409   1.684  1.9288 -0.2522  3.3071
   19SAPS    HY 2425   2.361   5.514   1.672  0.1701  0.7278 -0.3357
   19SAPS   O31 2426   2.410   5.395   1.843 -0.0639 -0.0678 -0.4518
   19SAPS   C31 2427   2.298   5.344   1.843  0.6552  0.2243  0.2885
   19SAPS   O32 2428   2.213   5.336   1.755 -0.0959  0.0482 -0.1888
   19SAPS   C32 2429   2.267   5.279   1.974  0.1266 -0.1082 -0.0062
   19SAPS   H2X 2430   2.287   5.351   2.057 -0.2101  1.1991 -1.0237
   19SAPS   H2Y 2431   2.344   5.200   1.988 -0.7156 -0.7813  1.0202
   19SAPS   C23 2432   2.828   5.694   2.147  0.0151 -0.8868 -0.0787
   19SAPS   H3R 2433   2.749   5.684   2.223 -0.8972  1.0734 -0.7118
   19SAPS   H3S 2434   2.821   5.799   2.112  1.3707 -0.6607  0.2733
   19SAPS   C24 2435   2.972   5.678   2.203  0.1269 -0.2650 -0.4057
   19SAPS   H4R 2436   2.987   5.756   2.280  0.2340 -0.8295  0.1481
   19SAPS   H4S 2437   3.047   5.701   2.124 -0.5559 -0.8230 -1.2384
   19SAPS   C25 2438   3.008   5.541   2.259  0.0201  0.0005  0.6678
   19SAPS   H5R 2439   3.031   5.468   2.181  1.4974 -0.2799  1.3411
   19SAPS   C26 2440   3.002   5.506   2.386  0.1343 -0.3668 -0.4540
   19SAPS   H6R 2441   2.994   5.400   2.412 -0.3936  0.1963  1.8743
   19SAPS   C27 2442   2.951   5.589   2.503 -0.4664 -0.2315 -0.2096
   19SAPS   H7R 2443   2.902   5.519   2.574 -1.7391 -1.3575 -2.1003
   19SAPS   H7S 2444   2.852   5.636   2.484 -0.1255  0.3816 -0.4967
   19SAPS   C28 2445   3.048   5.694   2.559  0.3482 -0.2532  0.4465
   19SAPS   H8R 2446   3.085   5.774   2.494 -0.3302  0.1746  0.5748
   19SAPS   C29 2447   3.092   5.696   2.690 -0.3278  0.1349  0.4203
   19SAPS   H9R 2448   3.167   5.769   2.723  0.6781 -0.8691  0.4060
   19SAPS  C210 2449   3.056   5.595   2.789  0.1088  0.1793 -0.0728
   19SAPS  H10R 2450   3.143   5.567   2.851 -1.1596 -0.3624  1.5426
   19SAPS  H10S 2451   3.032   5.496   2.744  1.6558 -0.6356  0.8376
   19SAPS  C211 2452   2.956   5.657   2.875  0.2897  0.0623 -0.5726
   19SAPS  H11R 2453   2.896   5.738   2.829  1.6064  2.2868  1.3687
   19SAPS  C212 2454   2.924   5.633   3.008  0.6528  1.1781 -0.5530
   19SAPS  H12R 2455   2.847   5.689   3.064  0.3938  1.0737 -0.8027
   19SAPS  C213 2456   2.997   5.534   3.100  0.0385  0.8450 -0.5147
   19SAPS  H13R 2457   3.077   5.477   3.049  0.5485  1.5325 -0.4940
   19SAPS  H13S 2458   2.929   5.471   3.161  1.3574 -0.1504 -0.0226
   19SAPS  C214 2459   3.061   5.624   3.197  0.1968 -0.0066 -0.4833
   19SAPS  H14R 2460   3.167   5.651   3.183  0.2709  1.5091  2.1742
   19SAPS  C215 2461   3.011   5.662   3.317 -0.1049  0.7215 -0.5132
   19SAPS  H15R 2462   3.076   5.722   3.382 -1.6253 -0.0975  1.9326
   19SAPS  C216 2463   2.875   5.630   3.380 -0.2678  0.5746  0.1544
   19SAPS  H16R 2464   2.822   5.536   3.354  0.4539  0.3158 -0.4179
   19SAPS  H16S 2465   2.812   5.716   3.348  1.5958  2.3051  0.8920
   19SAPS  C217 2466   2.892   5.627   3.533  0.2350 -1.0511  0.6171
   19SAPS  H17R 2467   2.990   5.586   3.567  0.6172 -0.3223  0.4239
   19SAPS  H17S 2468   2.810   5.577   3.589 -0.2884 -1.0605 -0.1368
   19SAPS  C218 2469   2.897   5.771   3.588  0.2686 -0.2424 -0.2477
   19SAPS  H18R 2470   2.811   5.834   3.558  0.9249  0.8390  0.0910
   19SAPS  H18S 2471   2.994   5.815   3.557  0.4795 -1.1308 -0.8684
   19SAPS  C219 2472   2.912   5.772   3.741 -0.3994 -0.7060 -0.2187
   19SAPS  H19R 2473   2.825   5.721   3.786 -0.9857 -0.4191 -0.9846
   19SAPS  H19S 2474   2.913   5.877   3.777  0.2218  0.0531 -2.2482
   19SAPS  C220 2475   3.035   5.702   3.796 -0.6025 -0.4033 -0.1767
   19SAPS  H20R 2476   3.128   5.729   3.742  0.7073 -2.8446  0.7197
   19SAPS  H20S 2477   3.041   5.592   3.785 -2.6900 -0.7011  0.9843
   19SAPS  H20T 2478   3.047   5.725   3.904 -2.3217 -1.7470  0.3460
   19SAPS   C33 2479   2.123   5.218   1.992  0.1846 -0.5881  0.4754
   19SAPS   H3X 2480   2.122   5.111   1.965  1.1814 -0.9341  1.7210
   19SAPS   H3Y 2481   2.053   5.281   1.931 -1.8765 -3.4072 -0.2711
   19SAPS   C34 2482   2.067   5.232   2.133 -0.3797  0.0930 -0.4898
   19SAPS   H4X 2483   1.963   5.193   2.137 -0.3436 -0.0666 -0.9795
   19SAPS   H4Y 2484   2.053   5.337   2.167 -3.0514 -0.6703  1.0778
   19SAPS   C35 2485   2.141   5.146   2.242 -0.7542 -0.2470 -0.0212
   19SAPS   H5X 2486   2.249   5.161   2.222 -0.6636  0.6337  1.0177
   19SAPS   H5Y 2487   2.121   5.038   2.224 -0.0694 -0.4112  0.1666
   19SAPS   C36 2488   2.098   5.186   2.384  0.1599 -0.5926  0.5872
   19SAPS   H6X 2489   1.991   5.215   2.397  0.6806  1.4689  0.6847
   19SAPS   H6Y 2490   2.145   5.281   2.416 -1.0184 -0.1336  1.0010
   19SAPS   C37 2491   2.127   5.078   2.493  0.3955 -0.5946  0.7581
   19SAPS   H7X 2492   2.234   5.054   2.476  0.9967  1.3435  1.5290
   19SAPS   H7Y 2493   2.061   4.990   2.476  0.4524 -0.3634 -0.8177
   19SAPS   C38 2494   2.106   5.126   2.637 -0.1746  0.1520  0.4995
   19SAPS   H8X 2495   2.004   5.167   2.649 -1.5179 -2.3103 -1.7401
   19SAPS   H8Y 2496   2.184   5.202   2.660 -1.1003  1.1525  0.4066
   19SAPS   C39 2497   2.126   5.007   2.735  1.3480 -0.4581  0.4521
   19SAPS   H9X 2498   2.231   4.975   2.722  1.8329  1.1862  0.0907
   19SAPS   H9Y 2499   2.051   4.930   2.707  1.1768  0.0659 -0.5900
   19SAPS  C310 2500   2.084   5.044   2.878  0.6033 -0.3733 -0.2066
   19SAPS  H10X 2501   1.975   5.058   2.890  0.3495 -1.8913 -0.6361
   19SAPS  H10Y 2502   2.128   5.142   2.908  2.0497 -0.5941 -1.4704
   19SAPS  C311 2503   2.122   4.940   2.972 -0.2409 -0.3462  0.2781
   19SAPS  H11X 2504   2.233   4.934   2.975 -0.1122  1.4286  0.1186
   19SAPS  H11Y 2505   2.089   4.835   2.953  1.1903 -1.4702  3.2655
   19SAPS  C312 2506   2.079   4.961   3.118 -0.4025  0.1967  0.7293
   19SAPS  H12X 2507   2.090   4.871   3.182  1.5511  1.8151  2.8258
   19SAPS  H12Y 2508   1.970   4.984   3.127 -0.0377  1.8648  1.3926
   19SAPS  C313 2509   2.150   5.085   3.193  0.0515  0.0960  0.6181
   19SAPS  H13X 2510   2.122   5.179   3.140  3.6599  0.7246 -0.4475
   19SAPS  H13Y 2511   2.261   5.084   3.183  0.0481  0.4779  0.5206
   19SAPS  C314 2512   2.100   5.095   3.334  0.9234 -0.1082  0.4055
   19SAPS  H14X 2513   2.130   5.005   3.391  0.1598 -0.0795  0.8622
   19SAPS  H14Y 2514   1.989   5.094   3.324  0.9123  3.0358 -0.9295
   19SAPS  C315 2515   2.137   5.234   3.392 -0.2187 -0.7787 -0.0679
   19SAPS  H15X 2516   2.115   5.317   3.322  0.6284 -0.1402  0.4072
   19SAPS  H15Y 2517   2.247   5.231   3.406  0.1967  0.9775 -2.3654
   19SAPS  C316 2518   2.081   5.260   3.533  0.7631 -0.4639 -0.3166
   19SAPS  H16X 2519   2.084   5.165   3.590  3.6538 -0.3022 -0.0290
   19SAPS  H16Y 2520   1.979   5.303   3.529  1.3882  0.9959 -2.7188
   19SAPS  C317 2521   2.178   5.357   3.612 -0.4146 -0.3360 -0.4635
   19SAPS  H17X 2522   2.283   5.325   3.596  0.4600  2.6247 -1.2887
   19SAPS  H17Y 2523   2.162   5.335   3.719 -0.9677  4.1142  0.5656
   19SAPS  C318 2524   2.147   5.505   3.591 -0.1208 -0.4353  0.2451
   19SAPS  H18X 2525   2.174   5.535   3.488  2.7031  1.1393  1.3178
   19SAPS  H18Y 2526   2.217   5.567   3.651 -1.3978  1.0407  0.2999
   19SAPS  H18Z 2527   2.043   5.539   3.613 -0.8235 -1.6410 -1.0148
   20SAPS     N 2528   5.614   3.591   1.427  0.4302  0.0462  0.3308
   20SAPS   HN1 2529   5.706   3.632   1.451  0.3709 -0.4925  1.5423
   20SAPS   HN2 2530   5.618   3.558   1.328 -0.6821  2.0101 -0.4312
   20SAPS   HN3 2531   5.542   3.665   1.423 -0.3346 -0.7250 -1.8004
   20SAPS   C12 2532   5.567   3.483   1.524 -0.0606  0.1224  0.3407
   20SAPS  H12A 2533   5.460   3.494   1.532 -0.3184 -2.4923  1.2278
   20SAPS   C13 2534   5.602   3.335   1.476 -0.0206 -0.0531  0.2289
   20SAPS  O13A 2535   5.652   3.320   1.361  0.1835 -0.0296 -0.5336
   20SAPS  O13B 2536   5.546   3.236   1.531 -0.2635 -0.1264 -0.3740
   20SAPS   C11 2537   5.627   3.518   1.661  0.2780  0.3674 -0.3230
   20SAPS  H11A 2538   5.590   3.448   1.740  0.9936 -1.4146 -1.4990
   20SAPS  H11B 2539   5.608   3.623   1.690  2.6996  0.7723  0.0109
   20SAPS     P 2540   5.861   3.466   1.770  0.2133 -0.0708  0.3409
   20SAPS   O13 2541   5.831   3.329   1.808  0.4514 -0.0689  0.0445
   20SAPS   O14 2542   5.999   3.519   1.758 -0.4949 -0.3355 -0.5236
   20SAPS   O12 2543   5.772   3.507   1.641 -0.4784  0.3489  0.0600
   20SAPS   O11 2544   5.793   3.556   1.878 -0.1050 -0.0639 -0.3481
   20SAPS    C1 2545   5.821   3.700   1.896 -0.2684  0.1094  0.2182
   20SAPS    HA 2546   5.873   3.739   1.805  1.1806 -0.3078  0.8451
   20SAPS    HB 2547   5.726   3.755   1.914  1.7291  3.2945  2.1760
   20SAPS    C2 2548   5.895   3.719   2.026 -0.1472 -1.1271 -0.2161
   20SAPS    HS 2549   5.994   3.679   1.992  1.4549  2.9530 -0.9272
   20SAPS   O21 2550   5.837   3.634   2.138  0.3880  0.3348  0.4214
   20SAPS   C21 2551   5.905   3.660   2.252 -0.3567 -0.2288 -0.4424
   20SAPS   O22 2552   6.014   3.713   2.262 -0.1721 -0.0082 -0.1992
   20SAPS   C22 2553   5.831   3.591   2.373  0.1572 -0.1934 -0.2079
   20SAPS   H2R 2554   5.733   3.642   2.372  1.4663  2.5137 -0.1900
   20SAPS   H2S 2555   5.810   3.490   2.333 -0.6075  0.3823 -1.3214
   20SAPS    C3 2556   5.914   3.871   2.049  0.0014  0.2636 -0.1783
   20SAPS    HX 2557   5.937   3.919   1.952 -1.4048  1.9095  0.2625
   20SAPS    HY 2558   6.002   3.899   2.110 -0.1503  0.2017  0.0723
   20SAPS   O31 2559   5.789   3.930   2.090 -0.4255 -0.4923  0.6511
   20SAPS   C31 2560   5.788   3.976   2.212  1.1872 -0.0380 -0.0105
   20SAPS   O32 2561   5.870   3.959   2.301 -0.4247 -0.3094  0.3533
   20SAPS   C32 2562   5.647   4.048   2.235  0.0521  0.8856 -0.3003
   20SAPS   H2X 2563   5.565   3.996   2.181 -1.5313  2.0616  0.9209
   20SAPS   H2Y 2564   5.648   4.149   2.189 -1.5206  0.9184 -0.3146
   20SAPS   C23 2565   5.907   3.596   2.507 -0.0580  0.0396 -0.3402
   20SAPS   H3R 2566   6.014   3.583   2.479  0.4837  1.1590  1.0832
   20SAPS   H3S 2567   5.879   3.509   2.571 -0.3994  0.8831  0.6818
   20SAPS   C24 2568   5.880   3.719   2.603 -0.3894  0.4240  0.3568
   20SAPS   H4R 2569   5.769   3.718   2.613 -1.3482  1.5892 -5.8431
   20SAPS   H4S 2570   5.903   3.816   2.553 -1.1598  0.9996  1.0835
   20SAPS   C25 2571   5.963   3.698   2.722 -0.3840  0.3323  0.3995
   20SAPS   H5R 2572   6.041   3.622   2.707 -0.6061 -0.3344  2.3228
   20SAPS   C26 2573   5.964   3.777   2.829  0.0618  0.1596 -0.2671
   20SAPS   H6R 2574   6.034   3.750   2.910  1.7931 -1.1194 -2.1002
   20SAPS   C27 2575   5.883   3.897   2.866  1.1206  0.3274  0.0196
   20SAPS   H7R 2576   5.783   3.856   2.894  1.4093 -1.5085 -1.4473
   20SAPS   H7S 2577   5.847   3.955   2.778 -0.3568  0.2698  0.5477
   20SAPS   C28 2578   5.933   3.984   2.978 -0.5073  0.3789 -0.8172
   20SAPS   H8R 2579   5.984   4.078   2.952 -0.8215  1.3672  1.8647
   20SAPS   C29 2580   5.904   3.971   3.112 -0.3109  0.2163 -0.1856
   20SAPS   H9R 2581   5.950   4.041   3.183 -1.1704 -0.9202  1.5662
   20SAPS  C210 2582   5.823   3.868   3.186 -0.5768 -0.2915  0.0007
   20SAPS  H10R 2583   5.716   3.875   3.155 -0.9890 -0.6971  1.2515
   20SAPS  H10S 2584   5.819   3.889   3.295  0.7613  2.0180 -0.3321
   20SAPS  C211 2585   5.881   3.727   3.178 -0.3604  0.3292  0.3180
   20SAPS  H11R 2586   5.867   3.670   3.085  1.2679 -0.7776  0.7039
   20SAPS  C212 2587   5.940   3.660   3.279 -0.3411 -0.4179  0.4168
   20SAPS  H12R 2588   5.996   3.568   3.257 -0.9348 -0.4278 -1.1313
   20SAPS  C213 2589   5.977   3.726   3.408 -0.5419  0.1418  0.1073
   20SAPS  H13R 2590   6.011   3.648   3.479 -3.0722 -2.2405 -1.1122
   20SAPS  H13S 2591   5.885   3.770   3.450 -0.5367 -0.8856  1.2501
   20SAPS  C214 2592   6.078   3.842   3.410 -0.6535 -0.4528 -0.0627
   20SAPS  H14R 2593   6.133   3.871   3.320  1.6002 -1.2173  0.9875
   20SAPS  C215 2594   6.096   3.925   3.512 -0.1182  0.0445  0.5152
   20SAPS  H15R 2595   6.165   4.007   3.489  2.4839 -2.1033  0.1527
   20SAPS  C216 2596   6.038   3.922   3.649  0.2359  0.3889  0.3793
   20SAPS  H16R 2597   6.117   3.935   3.727  0.7663  0.5653 -0.1759
   20SAPS  H16S 2598   5.992   3.825   3.677  0.6544 -0.2862 -1.1644
   20SAPS  C217 2599   5.937   4.032   3.670  0.1854 -0.9392  0.3023
   20SAPS  H17R 2600   5.856   4.034   3.593  0.8490 -2.5753 -0.4871
   20SAPS  H17S 2601   5.991   4.128   3.656 -1.5841 -0.1208 -1.3245
   20SAPS  C218 2602   5.876   4.029   3.811 -0.7680  0.0130 -0.2603
   20SAPS  H18R 2603   5.943   4.009   3.897 -3.1131 -0.3250  1.5874
   20SAPS  H18S 2604   5.812   3.938   3.809 -2.8106  1.3525  0.6458
   20SAPS  C219 2605   5.783   4.151   3.834 -0.2626  0.2368  0.2221
   20SAPS  H19R 2606   5.725   4.184   3.745 -0.7832 -0.3524  0.3337
   20SAPS  H19S 2607   5.847   4.237   3.864  0.4452  0.0491 -0.7152
   20SAPS  C220 2608   5.683   4.138   3.947  0.7499 -0.0243  0.1779
   20SAPS  H20R 2609   5.627   4.232   3.961 -0.4740 -0.9926  2.1022
   20SAPS  H20S 2610   5.715   4.112   4.050 -1.7464 -0.9929  0.7739
   20SAPS  H20T 2611   5.622   4.051   3.913  0.8032 -0.1703  0.4483
   20SAPS   C33 2612   5.599   4.064   2.384 -0.5472  0.3996  0.8610
   20SAPS   H3X 2613   5.489   4.080   2.386 -0.3946  3.1764 -2.5832
   20SAPS   H3Y 2614   5.639   4.159   2.427 -1.5708  2.3526 -2.2079
   20SAPS   C34 2615   5.608   3.946   2.479  0.2402  0.4805 -0.2471
   20SAPS   H4X 2616   5.715   3.940   2.510 -0.5818 -0.7923  2.6969
   20SAPS   H4Y 2617   5.585   3.850   2.428  2.1793  1.2270 -2.7238
   20SAPS   C35 2618   5.509   3.968   2.598  0.1867  0.2766  0.4829
   20SAPS   H5X 2619   5.410   3.965   2.548 -0.3630 -0.3039  1.5765
   20SAPS   H5Y 2620   5.514   4.071   2.640 -2.3562  0.8880 -0.5308
   20SAPS   C36 2621   5.507   3.855   2.700 -0.5097  0.0486 -0.3115
   20SAPS   H6X 2622   5.597   3.860   2.765  0.8793  1.9580 -2.2590
   20SAPS   H6Y 2623   5.510   3.755   2.650 -1.6536  0.6197 -1.5810
   20SAPS   C37 2624   5.387   3.851   2.796  0.4287  0.4113  0.5446
   20SAPS   H7X 2625   5.393   3.752   2.847 -0.9264  1.4385  2.8618
   20SAPS   H7Y 2626   5.301   3.840   2.727  0.2387  1.1419  0.6633
   20SAPS   C38 2627   5.383   3.973   2.884  0.3259 -0.5047 -0.0538
   20SAPS   H8X 2628   5.394   4.068   2.828  1.2633  0.0918  1.0960
   20SAPS   H8Y 2629   5.467   3.981   2.956  0.9462 -1.6980 -0.6026
   20SAPS   C39 2630   5.257   3.986   2.968  0.2057  0.7642  0.2972
   20SAPS   H9X 2631   5.176   3.994   2.892  1.5262  3.3833 -0.9819
   20SAPS   H9Y 2632   5.263   4.084   3.019 -2.3610  1.2723 -0.2447
   20SAPS  C310 2633   5.234   3.878   3.071 -0.7649  0.2813 -0.9488
   20SAPS  H10X 2634   5.223   3.778   3.022 -0.1923 -0.5956  0.6362
   20SAPS  H10Y 2635   5.138   3.897   3.124  0.3385  1.3884  0.7621
   20SAPS  C311 2636   5.341   3.850   3.179 -0.5549 -0.7550  0.2474
   20SAPS  H11X 2637   5.383   3.945   3.219 -0.0758 -0.9608  0.2392
   20SAPS  H11Y 2638   5.424   3.805   3.120 -0.9076 -0.3916 -0.5347
   20SAPS  C312 2639   5.299   3.758   3.289 -0.3565  0.2959 -0.5344
   20SAPS  H12X 2640   5.272   3.661   3.241  0.4869 -0.0128 -0.4005
   20SAPS  H12Y 2641   5.205   3.791   3.340  1.0529 -0.0394  2.5350
   20SAPS  C313 2642   5.413   3.719   3.392  0.4166 -0.1805 -0.8274
   20SAPS  H13X 2643   5.494   3.674   3.330  1.1608  0.2745 -0.2145
   20SAPS  H13Y 2644   5.366   3.636   3.449 -0.5438 -2.7983 -4.9762
   20SAPS  C314 2645   5.464   3.825   3.485 -0.3412  0.1982 -0.7291
   20SAPS  H14X 2646   5.380   3.876   3.536 -0.3968 -1.3451  0.8290
   20SAPS  H14Y 2647   5.512   3.897   3.416  0.3108  0.3658 -0.1109
   20SAPS  C315 2648   5.575   3.795   3.592 -0.4426  0.3816 -0.2943
   20SAPS  H15X 2649   5.540   3.843   3.685  0.2238 -0.6328  0.5009
   20SAPS  H15Y 2650   5.673   3.831   3.555  1.8719 -2.3294  2.6679
   20SAPS  C316 2651   5.593   3.635   3.623 -0.1582 -0.0220 -0.1101
   20SAPS  H16X 2652   5.617   3.577   3.532  1.2107  0.6920 -0.2314
   20SAPS  H16Y 2653   5.497   3.593   3.658 -0.8627  1.3127 -0.3594
   20SAPS  C317 2654   5.711   3.604   3.720  0.1398  0.0740  0.1049
   20SAPS  H17X 2655   5.689   3.647   3.820  1.3834 -1.4590  1.0629
   20SAPS  H17Y 2656   5.795   3.655   3.668 -0.6177  1.1596 -0.1028
   20SAPS  C318 2657   5.749   3.459   3.745 -0.2049  0.4103  0.2281
   20SAPS  H18X 2658   5.668   3.417   3.809  1.8851 -0.5767  2.3732
   20SAPS  H18Y 2659   5.844   3.455   3.803 -0.1117  1.3116  0.1545
   20SAPS  H18Z 2660   5.760   3.400   3.652 -3.4008  0.4523 -0.2876
   21CHL1    C3 2661   2.660   6.546   5.404 -0.0010  0.0914  0.2438
   21CHL1    H3 2662   2.759   6.566   5.359  0.3806  1.4411  1.5894
   21CHL1    O3 2663   2.658   6.593   5.533 -0.1295 -0.3510  0.0938
   21CHL1   H3' 2664   2.566   6.589   5.561 -0.2139  1.3598  0.1337
   21CHL1    C4 2665   2.557   6.621   5.311 -0.5043 -0.7476 -0.9752
   21CHL1   H4A 2666   2.458   6.607   5.360  0.2491  1.1576  1.3042
   21CHL1   H4B 2667   2.571   6.731   5.316  0.2900 -0.8966  1.5745
   21CHL1    C5 2668   2.553   6.566   5.169  0.2395  0.4845 -0.2361
   21CHL1    C6 2669   2.554   6.651   5.071 -0.1679  0.3717  0.7030
   21CHL1    H6 2670   2.549   6.759   5.092 -0.6104  0.5641 -0.3354
   21CHL1    C7 2671   2.551   6.607   4.926  0.3689 -0.0510 -0.0994
   21CHL1   H7A 2672   2.478   6.669   4.871  1.2062  0.4873 -0.6318
   21CHL1   H7B 2673   2.651   6.628   4.882  0.7810 -3.3418 -1.0669
   21CHL1    C8 2674   2.540   6.449   4.896 -0.2181 -0.1162 -0.2839
   21CHL1    H8 2675   2.432   6.425   4.898 -0.2993  0.2680  0.5572
   21CHL1   C14 2676   2.600   6.416   4.760 -0.3988 -0.1449  0.2746
   21CHL1   H14 2677   2.710   6.427   4.767 -0.5056  0.1638  1.6996
   21CHL1   C15 2678   2.550   6.486   4.634  0.2011 -0.2790 -0.1371
   21CHL1  H15A 2679   2.441   6.507   4.642  0.1270 -0.7966  0.2560
   21CHL1  H15B 2680   2.598   6.586   4.638  1.3247 -0.8166  0.3040
   21CHL1   C16 2681   2.582   6.389   4.525  0.2204  0.0167  1.0764
   21CHL1  H16A 2682   2.485   6.357   4.480  1.0439  2.2338 -2.7856
   21CHL1  H16B 2683   2.650   6.420   4.443  1.1522 -2.0922  0.9874
   21CHL1   C17 2684   2.644   6.260   4.590 -0.4309  0.8816 -0.1115
   21CHL1   H17 2685   2.752   6.287   4.583 -0.5353  0.8207 -3.3190
   21CHL1   C13 2686   2.598   6.267   4.733  0.4454  0.5352  0.0003
   21CHL1   C18 2687   2.453   6.207   4.731  0.6442 -0.6695  0.7727
   21CHL1  H18A 2688   2.388   6.264   4.661 -0.6811  0.1668  2.5945
   21CHL1  H18B 2689   2.451   6.097   4.721  1.1329 -0.8204  2.1232
   21CHL1  H18C 2690   2.405   6.224   4.829  2.0951  1.9352  1.1305
   21CHL1   C12 2691   2.680   6.192   4.846  0.4626 -0.2966  0.0917
   21CHL1  H12A 2692   2.685   6.081   4.834  0.9928 -0.1786 -0.9351
   21CHL1  H12B 2693   2.781   6.237   4.833 -0.2244  2.1052  2.3200
   21CHL1   C11 2694   2.625   6.229   4.979  1.2169 -0.7055  0.4640
   21CHL1  H11A 2695   2.530   6.175   4.995  0.8814 -1.6470 -3.5842
   21CHL1  H11B 2696   2.692   6.189   5.058 -0.2569  2.0413  3.3350
   21CHL1    C9 2697   2.614   6.376   5.013  0.1128 -0.6261 -0.1078
   21CHL1    H9 2698   2.718   6.415   5.017 -0.4216  0.8888 -0.2778
   21CHL1   C10 2699   2.563   6.416   5.154  0.2050  0.1718  0.3911
   21CHL1   C19 2700   2.418   6.366   5.166  0.1747  0.4742 -0.8079
   21CHL1  H19A 2701   2.369   6.403   5.258 -1.0061 -1.0144 -0.7898
   21CHL1  H19B 2702   2.357   6.398   5.079  1.1363  1.4767 -1.1487
   21CHL1  H19C 2703   2.411   6.255   5.167 -3.0035  0.5949 -1.5194
   21CHL1    C1 2704   2.640   6.350   5.263  0.0774  0.1557 -0.1978
   21CHL1   H1A 2705   2.637   6.239   5.271 -0.3302  0.2684  1.3415
   21CHL1   H1B 2706   2.745   6.371   5.233  0.8475 -2.7247  0.1553
   21CHL1    C2 2707   2.622   6.394   5.404  0.0630  0.6789 -0.3738
   21CHL1   H2A 2708   2.690   6.344   5.476 -1.3939 -0.3483  0.3411
   21CHL1   H2B 2709   2.522   6.379   5.449  0.2329 -0.9809 -0.4836
   21CHL1   C20 2710   2.626   6.137   4.500 -0.4149  0.4897  0.1106
   21CHL1   H20 2711   2.518   6.113   4.497 -0.6463  1.1806  1.9988
   21CHL1   C21 2712   2.713   6.026   4.568  0.5341 -0.1902 -0.1569
   21CHL1  H21A 2713   2.810   6.074   4.591  0.0186  0.7329  0.1669
   21CHL1  H21B 2714   2.727   5.936   4.504  0.4417  0.4602 -1.1101
   21CHL1  H21C 2715   2.664   5.982   4.658  1.0531 -0.9380 -0.2330
   21CHL1   C22 2716   2.676   6.150   4.348  0.2423 -0.3783 -0.4220
   21CHL1  H22A 2717   2.629   6.242   4.307 -1.3818 -0.0284  2.0160
   21CHL1  H22B 2718   2.785   6.167   4.351  0.1450  0.1456  0.5301
   21CHL1   C23 2719   2.625   6.047   4.247  0.2243  0.0518 -0.0453
   21CHL1  H23A 2720   2.662   5.949   4.283 -0.3698  0.0545  0.6008
   21CHL1  H23B 2721   2.523   6.025   4.284  0.1477 -0.2605 -0.4243
   21CHL1   C24 2722   2.628   6.067   4.097  0.1804  0.7882 -0.3826
   21CHL1  H24A 2723   2.542   6.131   4.069  0.1023  1.4211  1.2189
   21CHL1  H24B 2724   2.727   6.110   4.070  0.8662  1.0654  2.2983
   21CHL1   C25 2725   2.615   5.925   4.018 -0.1901 -0.0609  0.6799
   21CHL1   H25 2726   2.524   5.877   4.060 -1.5895  3.0794  1.5956
   21CHL1   C26 2727   2.596   5.945   3.870  0.1289  0.2270  0.1743
   21CHL1  H26A 2728   2.610   5.851   3.812  0.6374 -0.6793  1.7184
   21CHL1  H26B 2729   2.491   5.972   3.845  0.3938  0.7158 -0.4316
   21CHL1  H26C 2730   2.669   6.013   3.822 -0.6379  0.0506 -1.3161
   21CHL1   C27 2731   2.736   5.835   4.043 -0.0598  0.3896  0.1518
   21CHL1  H27A 2732   2.830   5.881   4.007 -0.7539  3.0137  1.4033
   21CHL1  H27B 2733   2.754   5.840   4.152  0.3370 -0.1490  0.1126
   21CHL1  H27C 2734   2.737   5.727   4.018  2.2063 -0.5116  3.4663
   22CHL1    C3 2735   2.710   4.037   5.767 -0.4564 -0.9445  0.1760
   22CHL1    H3 2736   2.603   4.024   5.740 -0.3817 -1.2814  0.0363
   22CHL1    O3 2737   2.706   4.069   5.905 -0.1748 -0.0686  0.0450
   22CHL1   H3' 2738   2.758   4.149   5.912 -0.3608  0.1976 -1.2854
   22CHL1    C4 2739   2.795   3.918   5.740 -0.0175  0.4161 -0.2809
   22CHL1   H4A 2740   2.896   3.944   5.780  0.0510  0.6891 -0.6218
   22CHL1   H4B 2741   2.757   3.838   5.807  1.0478 -0.7619 -1.0297
   22CHL1    C5 2742   2.791   3.877   5.595  0.0113 -0.0269 -0.1236
   22CHL1    C6 2743   2.750   3.755   5.556 -0.2758  0.0417  0.5726
   22CHL1    H6 2744   2.724   3.677   5.629 -0.4398 -0.8828 -0.4471
   22CHL1    C7 2745   2.751   3.716   5.413  0.1083  0.2363 -0.0704
   22CHL1   H7A 2746   2.787   3.611   5.405  1.3310  0.6644 -0.4204
   22CHL1   H7B 2747   2.648   3.701   5.375  0.8777 -1.7754 -1.6088
   22CHL1    C8 2748   2.819   3.815   5.312 -0.0778  0.4945  0.0138
   22CHL1    H8 2749   2.925   3.782   5.309  0.2568  1.1775  2.3100
   22CHL1   C14 2750   2.771   3.795   5.176  0.1465 -0.3794  0.4411
   22CHL1   H14 2751   2.663   3.820   5.176 -0.4164 -2.5841 -1.1108
   22CHL1   C15 2752   2.763   3.656   5.123 -0.3676  0.7800  0.8001
   22CHL1  H15A 2753   2.862   3.606   5.135 -0.9541 -1.3252 -2.0945
   22CHL1  H15B 2754   2.679   3.599   5.168 -0.0764  0.3165  0.7593
   22CHL1   C16 2755   2.748   3.684   4.975  0.9099 -0.0688 -0.0069
   22CHL1  H16A 2756   2.817   3.612   4.927  0.1865 -0.8207  0.0631
   22CHL1  H16B 2757   2.647   3.652   4.943  0.1164  0.5965  1.7341
   22CHL1   C17 2758   2.760   3.835   4.949 -0.2411 -0.0806 -0.1501
   22CHL1   H17 2759   2.656   3.876   4.956 -0.5397 -0.4986 -1.6050
   22CHL1   C13 2760   2.835   3.891   5.071  0.2284 -0.4600  0.2097
   22CHL1   C18 2761   2.988   3.866   5.059 -1.0655 -0.3015 -0.6150
   22CHL1  H18A 2762   3.054   3.895   5.144  0.1015 -1.6323 -1.0236
   22CHL1  H18B 2763   2.998   3.757   5.039 -1.4051 -0.7491  1.4110
   22CHL1  H18C 2764   3.025   3.932   4.977  0.3932  1.3406  1.2692
   22CHL1   C12 2765   2.813   4.042   5.108  0.5456  0.8077  0.2944
   22CHL1  H12A 2766   2.869   4.109   5.039  0.2023 -0.2029 -1.0156
   22CHL1  H12B 2767   2.704   4.059   5.103  0.4221 -0.1635 -0.5704
   22CHL1   C11 2768   2.842   4.066   5.257 -0.2113 -0.1180  0.0554
   22CHL1  H11A 2769   2.951   4.086   5.272 -0.4645 -0.8044  3.8725
   22CHL1  H11B 2770   2.781   4.159   5.262  0.8646  0.7252 -1.6003
   22CHL1    C9 2771   2.797   3.961   5.357  0.0774 -0.6644  1.6618
   22CHL1    H9 2772   2.686   3.961   5.361  0.1113 -1.5695  4.2704
   22CHL1   C10 2773   2.832   3.991   5.501  0.1215 -0.3420 -0.2816
   22CHL1   C19 2774   2.986   4.013   5.525 -0.3281 -0.2686  0.0219
   22CHL1  H19A 2775   3.022   4.106   5.477  2.2838 -0.6085  1.1242
   22CHL1  H19B 2776   3.007   4.032   5.632  3.6492  0.9280 -0.7886
   22CHL1  H19C 2777   3.049   3.933   5.479  1.0970  1.2157 -0.7011
   22CHL1    C1 2778   2.754   4.120   5.546 -0.3460  0.1226 -0.1774
   22CHL1   H1A 2779   2.806   4.203   5.494  0.3779  0.0420  0.3990
   22CHL1   H1B 2780   2.656   4.121   5.495 -0.4050  1.9960 -0.1010
   22CHL1    C2 2781   2.755   4.165   5.691  0.2417 -0.8094 -0.2423
   22CHL1   H2A 2782   2.690   4.254   5.706 -1.4435 -1.5125 -2.6939
   22CHL1   H2B 2783   2.861   4.193   5.708 -0.0074  2.3112 -2.8079
   22CHL1   C20 2784   2.827   3.870   4.812 -0.4422 -1.2542 -1.1022
   22CHL1   H20 2785   2.938   3.870   4.822 -0.4669 -4.0052  0.0754
   22CHL1   C21 2786   2.789   4.020   4.776 -0.0072  0.5083 -0.3510
   22CHL1  H21A 2787   2.681   4.029   4.799 -0.4818  0.3190 -2.3766
   22CHL1  H21B 2788   2.828   4.042   4.675 -1.2325 -1.2666 -1.2644
   22CHL1  H21C 2789   2.845   4.089   4.843 -0.7654  0.2138  0.6140
   22CHL1   C22 2790   2.785   3.784   4.696 -1.2463  0.2120  0.2333
   22CHL1  H22A 2791   2.702   3.726   4.740  0.6807 -1.0182  2.4883
   22CHL1  H22B 2792   2.743   3.839   4.610 -0.1209 -1.6812 -1.6037
   22CHL1   C23 2793   2.886   3.687   4.626 -0.6128 -0.2077  0.5085
   22CHL1  H23A 2794   2.938   3.625   4.702 -0.0378 -0.6237 -0.2086
   22CHL1  H23B 2795   2.821   3.621   4.565 -0.4943  1.1480 -1.1560
   22CHL1   C24 2796   2.992   3.750   4.537 -0.0140  0.1167 -0.4033
   22CHL1  H24A 2797   3.042   3.834   4.591 -1.7813  0.8602  0.1386
   22CHL1  H24B 2798   3.075   3.679   4.518  0.5802  0.9877 -1.1507
   22CHL1   C25 2799   2.933   3.792   4.395 -0.3220 -0.3046 -0.1625
   22CHL1   H25 2800   2.830   3.830   4.407 -0.5636 -0.9384 -0.1900
   22CHL1   C26 2801   3.008   3.918   4.347  0.7803 -0.0690  0.2018
   22CHL1  H26A 2802   3.013   3.939   4.238  0.7735  1.2630  0.4408
   22CHL1  H26B 2803   2.970   4.008   4.400 -0.3616 -0.3052 -0.1937
   22CHL1  H26C 2804   3.112   3.905   4.385  0.2117 -3.3093  0.9534
   22CHL1   C27 2805   2.943   3.672   4.301  0.1872 -0.2017  0.2499
   22CHL1  H27A 2806   2.871   3.671   4.216 -1.4757  0.9536  1.5847
   22CHL1  H27B 2807   3.048   3.663   4.264 -0.0251 -1.4811 -0.0776
   22CHL1  H27C 2808   2.918   3.584   4.364 -1.0353  0.5459  0.8524
   23CHL1    C3 2809   1.819   1.214   5.859 -1.3035  0.2517  0.2804
   23CHL1    H3 2810   1.802   1.108   5.889  0.4585 -0.2100 -0.2130
   23CHL1    O3 2811   1.806   1.296   5.974 -0.3502  0.4163 -0.0936
   23CHL1   H3' 2812   1.711   1.313   5.970 -0.7570 -1.8202 -2.3663
   23CHL1    C4 2813   1.957   1.233   5.803 -0.5210 -0.1464 -0.3897
   23CHL1   H4A 2814   1.968   1.342   5.786  0.7808 -0.2827 -0.4627
   23CHL1   H4B 2815   2.034   1.206   5.878  0.3737 -0.6270 -1.4444
   23CHL1    C5 2816   1.956   1.158   5.670  0.5165 -0.1026 -0.3257
   23CHL1    C6 2817   2.041   1.055   5.658  0.0357  0.0455  0.0057
   23CHL1    H6 2818   2.102   1.025   5.745  0.5378 -0.9024 -0.6539
   23CHL1    C7 2819   2.068   0.976   5.530 -0.6366 -0.0110  0.6010
   23CHL1   H7A 2820   2.174   0.947   5.515 -0.3852  1.1950 -0.0539
   23CHL1   H7B 2821   2.005   0.885   5.526  2.1731 -2.0263 -0.5656
   23CHL1    C8 2822   2.028   1.063   5.407  0.5349  0.7216 -0.2527
   23CHL1    H8 2823   2.100   1.146   5.395  0.9027  0.4373 -0.0343
   23CHL1   C14 2824   2.026   0.976   5.290  0.1656 -0.5432  0.8821
   23CHL1   H14 2825   1.962   0.888   5.316 -0.2798 -0.4893  0.0209
   23CHL1   C15 2826   2.155   0.904   5.237 -0.2189 -0.4843 -0.1783
   23CHL1  H15A 2827   2.241   0.972   5.255 -1.1766 -0.2569  4.6868
   23CHL1  H15B 2828   2.186   0.824   5.307  1.0869 -0.6872 -0.9522
   23CHL1   C16 2829   2.138   0.869   5.088  0.3627 -0.1684  0.0871
   23CHL1  H16A 2830   2.219   0.932   5.044  1.6229 -0.2672  2.0979
   23CHL1  H16B 2831   2.157   0.760   5.075 -0.6350 -0.6837  2.5474
   23CHL1   C17 2832   2.001   0.935   5.055  0.0247  0.4720  0.2871
   23CHL1   H17 2833   1.930   0.853   5.079 -2.4629  2.7267  1.0814
   23CHL1   C13 2834   1.977   1.045   5.161  0.5214  0.3754  0.0588
   23CHL1   C18 2835   2.046   1.182   5.128  0.0205 -0.7448  0.5666
   23CHL1  H18A 2836   2.034   1.259   5.207 -2.9973  1.2593 -1.6609
   23CHL1  H18B 2837   2.154   1.170   5.103 -0.3264  0.2942 -1.6567
   23CHL1  H18C 2838   1.994   1.230   5.043  1.4941  2.5618  1.3453
   23CHL1   C12 2839   1.822   1.071   5.190 -0.4758 -0.0963  0.5750
   23CHL1  H12A 2840   1.758   1.115   5.110 -2.0648 -1.5841  0.9894
   23CHL1  H12B 2841   1.782   0.976   5.229 -0.9636 -2.1259 -4.2194
   23CHL1   C11 2842   1.813   1.171   5.306 -0.3695 -0.6542  0.2805
   23CHL1  H11A 2843   1.850   1.271   5.276 -0.9759  0.8374  3.9091
   23CHL1  H11B 2844   1.704   1.181   5.327 -0.5594 -1.5388 -0.2258
   23CHL1    C9 2845   1.883   1.117   5.434  0.0559  0.3980 -0.3792
   23CHL1    H9 2846   1.831   1.026   5.471 -3.3182  3.4890  3.3459
   23CHL1   C10 2847   1.862   1.205   5.560 -0.3411 -0.0874  0.4426
   23CHL1   C19 2848   1.909   1.350   5.522 -0.4105 -0.2177 -0.1202
   23CHL1  H19A 2849   2.019   1.363   5.516 -0.4277  0.7431  1.1974
   23CHL1  H19B 2850   1.862   1.393   5.431 -0.1186 -2.0423 -1.1993
   23CHL1  H19C 2851   1.877   1.415   5.606  3.8102  1.6492  0.3168
   23CHL1    C1 2852   1.719   1.197   5.622 -0.4139  0.2582 -0.3241
   23CHL1   H1A 2853   1.640   1.235   5.554 -0.7208  0.5323  0.1813
   23CHL1   H1B 2854   1.692   1.090   5.626  0.6773 -0.0268 -0.3705
   23CHL1    C2 2855   1.712   1.252   5.766  0.0188 -0.1589 -0.5489
   23CHL1   H2A 2856   1.611   1.218   5.798  0.1061  0.7949  0.8186
   23CHL1   H2B 2857   1.703   1.361   5.749  0.7032  0.0670  0.4443
   23CHL1   C20 2858   1.972   0.975   4.906  0.5841 -0.1426  0.9856
   23CHL1   H20 2859   1.935   1.079   4.913 -1.2714 -0.7266  0.4440
   23CHL1   C21 2860   1.850   0.890   4.849 -0.8617 -0.2272 -0.5753
   23CHL1  H21A 2861   1.766   0.892   4.922  0.7528 -1.5080  1.4593
   23CHL1  H21B 2862   1.878   0.785   4.825  1.3409  0.6209 -2.0505
   23CHL1  H21C 2863   1.817   0.933   4.752  0.4142  0.4264 -0.7428
   23CHL1   C22 2864   2.099   0.973   4.811  0.9128 -0.3627  0.2277
   23CHL1  H22A 2865   2.175   1.043   4.852  0.4332 -0.3112  1.0534
   23CHL1  H22B 2866   2.144   0.872   4.803 -1.0250 -1.4915  2.5094
   23CHL1   C23 2867   2.062   1.018   4.665 -0.1159 -0.0945 -0.4285
   23CHL1  H23A 2868   2.004   0.931   4.626 -0.8627 -0.6497  1.7628
   23CHL1  H23B 2869   2.014   1.118   4.673 -0.4989 -0.4164  1.7918
   23CHL1   C24 2870   2.188   1.029   4.593  0.1234 -0.3583  0.0706
   23CHL1  H24A 2871   2.253   1.102   4.644  1.3944  1.3646 -3.6646
   23CHL1  H24B 2872   2.229   0.926   4.584 -0.8179 -0.6960 -0.5919
   23CHL1   C25 2873   2.175   1.098   4.451 -0.1524  0.8266 -0.0190
   23CHL1   H25 2874   2.281   1.124   4.430 -0.0228  0.7071  0.4680
   23CHL1   C26 2875   2.135   0.990   4.346 -0.5494 -0.1350 -0.1944
   23CHL1  H26A 2876   2.039   0.942   4.374 -0.6050  0.0397 -0.0890
   23CHL1  H26B 2877   2.119   1.035   4.246 -3.1638  0.8095  0.5589
   23CHL1  H26C 2878   2.210   0.909   4.353 -1.1397 -0.5303  2.6337
   23CHL1   C27 2879   2.079   1.218   4.445  0.3675  0.0272  0.3605
   23CHL1  H27A 2880   2.117   1.290   4.368  1.0837 -0.6275  0.0875
   23CHL1  H27B 2881   1.974   1.194   4.418  0.5269 -0.1313 -0.1238
   23CHL1  H27C 2882   2.067   1.271   4.542 -3.5478  1.5242 -0.7398
   24CHL1    C3 2883   3.067   4.976   5.343  0.0862  0.1660 -0.8795
   24CHL1    H3 2884   3.123   5.068   5.317  1.1470  0.4220  1.9388
   24CHL1    O3 2885   3.071   4.973   5.489 -0.5414 -0.2067 -0.0114
   24CHL1   H3' 2886   3.150   5.021   5.516 -0.7941  0.5781 -0.6277
   24CHL1    C4 2887   2.924   5.005   5.296 -0.4293  0.0563  0.5434
   24CHL1   H4A 2888   2.863   4.920   5.335 -4.4570  2.5314  0.2098
   24CHL1   H4B 2889   2.894   5.096   5.353 -1.3098 -0.1667  0.4534
   24CHL1    C5 2890   2.912   5.009   5.145  1.0574 -0.3919 -0.3638
   24CHL1    C6 2891   2.870   5.118   5.080 -0.1874 -0.2913  0.3829
   24CHL1    H6 2892   2.840   5.208   5.135 -0.5720  0.3393 -0.8200
   24CHL1    C7 2893   2.868   5.136   4.933 -0.0035  0.7908  0.1937
   24CHL1   H7A 2894   2.768   5.179   4.910 -0.1869  0.3320  0.1264
   24CHL1   H7B 2895   2.942   5.210   4.892 -0.9187  2.6215  1.6909
   24CHL1    C8 2896   2.879   5.002   4.857  0.1308  0.2275 -1.2853
   24CHL1    H8 2897   2.783   4.950   4.879 -0.1043  1.2808  0.2613
   24CHL1   C14 2898   2.893   5.020   4.710 -0.3202 -0.1691  0.1783
   24CHL1   H14 2899   2.997   5.052   4.690 -0.5295  0.8438  0.6499
   24CHL1   C15 2900   2.816   5.130   4.632  0.6654  0.7562 -0.4649
   24CHL1  H15A 2901   2.711   5.117   4.667  1.3583 -0.2114  1.3938
   24CHL1  H15B 2902   2.841   5.233   4.667  0.6516  0.3613  0.7390
   24CHL1   C16 2903   2.837   5.098   4.486  0.4077 -0.1675 -0.2156
   24CHL1  H16A 2904   2.742   5.088   4.429 -0.2107  1.0286  0.5646
   24CHL1  H16B 2905   2.895   5.168   4.423 -0.3804  0.8586  0.1654
   24CHL1   C17 2906   2.905   4.958   4.488  0.9836  0.8255 -0.4026
   24CHL1   H17 2907   3.015   4.974   4.479  0.8265  1.5378 -1.2083
   24CHL1   C13 2908   2.886   4.896   4.631 -0.1757  0.4374 -0.2426
   24CHL1   C18 2909   2.751   4.826   4.637 -0.1398 -1.3022  0.7011
   24CHL1  H18A 2910   2.742   4.795   4.743  0.2592  2.1836  1.9022
   24CHL1  H18B 2911   2.669   4.895   4.606  1.1744  0.3579  0.7959
   24CHL1  H18C 2912   2.752   4.735   4.574 -1.1670 -0.2011 -1.0114
   24CHL1   C12 2913   2.994   4.794   4.685 -0.7327  0.1386 -0.0853
   24CHL1  H12A 2914   3.010   4.698   4.632  1.2921  0.4222 -0.0460
   24CHL1  H12B 2915   3.090   4.845   4.662 -0.2686 -0.7104 -0.0701
   24CHL1   C11 2916   2.990   4.767   4.837  0.3704 -0.0377  0.1159
   24CHL1  H11A 2917   2.906   4.700   4.864 -0.1991  0.1494 -1.1387
   24CHL1  H11B 2918   3.081   4.710   4.865 -0.0601 -0.7799  0.0433
   24CHL1    C9 2919   2.983   4.900   4.917  0.2220 -0.0541 -0.4201
   24CHL1    H9 2920   3.082   4.947   4.897  1.0330 -1.4572  0.1457
   24CHL1   C10 2921   2.970   4.882   5.069 -0.6928 -0.4364 -0.0246
   24CHL1   C19 2922   2.888   4.759   5.109  0.3970 -0.2735 -0.5983
   24CHL1  H19A 2923   2.940   4.669   5.070 -2.9943 -2.6981  0.0016
   24CHL1  H19B 2924   2.862   4.742   5.216 -0.5857 -0.2979 -0.8281
   24CHL1  H19C 2925   2.787   4.755   5.063 -0.3169 -0.8724  0.9275
   24CHL1    C1 2926   3.111   4.869   5.125 -0.1123  0.3051  0.1524
   24CHL1   H1A 2927   3.157   4.777   5.083 -1.1664 -0.2282  0.1338
   24CHL1   H1B 2928   3.169   4.959   5.098  1.4783 -0.7510 -0.0885
   24CHL1    C2 2929   3.128   4.852   5.280 -0.4599  0.3527 -0.1944
   24CHL1   H2A 2930   3.234   4.826   5.296 -0.2319  0.3452 -1.5777
   24CHL1   H2B 2931   3.062   4.771   5.318  1.9502 -1.1524  0.9673
   24CHL1   C20 2932   2.872   4.872   4.364  0.3433 -1.0631 -0.1724
   24CHL1   H20 2933   2.764   4.846   4.365  0.0126  0.2335  1.1809
   24CHL1   C21 2934   2.940   4.726   4.359  0.3773 -0.6486  0.2597
   24CHL1  H21A 2935   3.049   4.735   4.337  0.7887 -0.4509  2.2600
   24CHL1  H21B 2936   2.900   4.669   4.272 -0.0320 -0.2948  0.2121
   24CHL1  H21C 2937   2.926   4.666   4.451  1.3114  0.6247  1.2767
   24CHL1   C22 2938   2.891   4.955   4.228 -0.5150  0.4979 -0.6424
   24CHL1  H22A 2939   2.842   5.054   4.222 -0.7649  0.5531  1.6842
   24CHL1  H22B 2940   3.002   4.966   4.218  0.4350 -1.6527  4.4663
   24CHL1   C23 2941   2.854   4.875   4.103 -0.1546 -0.3307  0.3199
   24CHL1  H23A 2942   2.902   4.924   4.016 -0.2982 -1.0002 -0.1421
   24CHL1  H23B 2943   2.904   4.777   4.088 -0.8321 -0.8804  1.5002
   24CHL1   C24 2944   2.706   4.866   4.060  0.5422 -0.4220  0.7497
   24CHL1  H24A 2945   2.648   4.814   4.139  0.4598  1.4529  2.0124
   24CHL1  H24B 2946   2.679   4.973   4.044  1.0633 -0.4854 -0.7300
   24CHL1   C25 2947   2.686   4.797   3.925  0.3281 -0.0680 -0.3071
   24CHL1   H25 2948   2.746   4.704   3.931  0.3715 -0.0110  0.3011
   24CHL1   C26 2949   2.540   4.749   3.903 -0.1032  0.1323  0.2691
   24CHL1  H26A 2950   2.524   4.663   3.972 -1.0953  1.3781  1.6612
   24CHL1  H26B 2951   2.459   4.823   3.920 -0.9505 -0.8576  0.6585
   24CHL1  H26C 2952   2.541   4.711   3.799 -1.4217 -1.6402  0.8616
   24CHL1   C27 2953   2.738   4.892   3.812 -0.3246 -0.1936 -0.4865
   24CHL1  H27A 2954   2.696   4.994   3.827  0.3253  0.2780 -1.7082
   24CHL1  H27B 2955   2.849   4.893   3.809 -0.3383  0.8209 -1.8794
   24CHL1  H27C 2956   2.690   4.855   3.718 -1.2728  1.7581 -0.8180
   25CHL1    C3 2957   2.261   3.976   5.575 -0.0561 -0.1937 -0.1538
   25CHL1    H3 2958   2.203   3.891   5.533 -0.9660  1.1388 -1.7430
   25CHL1    O3 2959   2.280   3.970   5.713 -0.2453  0.4492  0.1412
   25CHL1   H3' 2960   2.334   3.893   5.731 -1.0504  0.0946  1.1747
   25CHL1    C4 2961   2.389   3.982   5.496  0.9856 -0.4613  0.9552
   25CHL1   H4A 2962   2.439   4.071   5.540  0.2605  0.0316  0.8118
   25CHL1   H4B 2963   2.440   3.887   5.521  1.0614  0.0660  2.9949
   25CHL1    C5 2964   2.370   4.004   5.346  0.6244 -0.3147 -0.2447
   25CHL1    C6 2965   2.430   3.923   5.262  0.2950  0.0166  0.8383
   25CHL1    H6 2966   2.485   3.834   5.296  0.5048 -1.0029 -1.8813
   25CHL1    C7 2967   2.419   3.947   5.118  0.3480 -0.1941  0.1615
   25CHL1   H7A 2968   2.524   3.965   5.085  0.3106  1.1168  0.6766
   25CHL1   H7B 2969   2.388   3.854   5.067 -2.0526  1.1584 -1.0327
   25CHL1    C8 2970   2.333   4.063   5.075  0.5220 -0.7149  0.2099
   25CHL1    H8 2971   2.386   4.160   5.084 -0.1224 -0.3453  0.0879
   25CHL1   C14 2972   2.282   4.056   4.932 -0.1536 -0.4765 -0.6934
   25CHL1   H14 2973   2.204   3.976   4.929  0.3244 -1.0098  0.4399
   25CHL1   C15 2974   2.385   4.016   4.832 -0.4044 -0.5963  0.2028
   25CHL1  H15A 2975   2.481   4.068   4.857 -2.1109  1.9432  1.9775
   25CHL1  H15B 2976   2.408   3.909   4.815 -1.6331 -0.9843  0.9279
   25CHL1   C16 2977   2.333   4.068   4.701 -0.0703 -0.5996  0.3543
   25CHL1  H16A 2978   2.414   4.132   4.660 -1.0504 -1.4084 -3.2153
   25CHL1  H16B 2979   2.323   3.994   4.618 -0.5438  0.8774 -0.9542
   25CHL1   C17 2980   2.195   4.140   4.727 -0.6378  0.3579  0.0827
   25CHL1   H17 2981   2.124   4.054   4.728 -1.9563  1.3987  1.3617
   25CHL1   C13 2982   2.204   4.182   4.876 -0.5191  0.2155  0.4062
   25CHL1   C18 2983   2.290   4.312   4.874 -0.6594 -0.2421 -0.8968
   25CHL1  H18A 2984   2.225   4.403   4.873 -0.3944 -0.0546 -1.1940
   25CHL1  H18B 2985   2.349   4.323   4.967  0.4839 -1.0911 -1.4977
   25CHL1  H18C 2986   2.365   4.316   4.792  0.0720 -1.2926 -0.2996
   25CHL1   C12 2987   2.079   4.191   4.969  0.5182 -0.1381 -0.2418
   25CHL1  H12A 2988   2.009   4.272   4.938 -0.7408 -0.4937  1.5250
   25CHL1  H12B 2989   2.026   4.093   4.976  0.8466 -0.5505 -2.6126
   25CHL1   C11 2990   2.133   4.214   5.115 -0.3008 -0.2327 -0.0657
   25CHL1  H11A 2991   2.184   4.312   5.111 -0.7103 -0.0032  0.1969
   25CHL1  H11B 2992   2.047   4.223   5.185 -0.6688  0.7558 -0.6322
   25CHL1    C9 2993   2.222   4.097   5.168  0.1920 -0.3370  0.3781
   25CHL1    H9 2994   2.162   4.004   5.171  0.3035 -0.4081  0.4402
   25CHL1   C10 2995   2.272   4.115   5.312 -0.0296  0.7278 -0.1921
   25CHL1   C19 2996   2.341   4.255   5.333  0.8489 -0.0562 -0.2263
   25CHL1  H19A 2997   2.352   4.267   5.443 -3.7742  0.9647  0.3512
   25CHL1  H19B 2998   2.443   4.258   5.289  0.3941 -0.3479 -1.3524
   25CHL1  H19C 2999   2.274   4.339   5.305 -0.2811 -1.1362 -0.8680
   25CHL1    C1 3000   2.148   4.107   5.402 -0.0667  0.6929 -0.0921
   25CHL1   H1A 3001   2.082   4.194   5.382 -0.8700  0.0136 -0.4575
   25CHL1   H1B 3002   2.092   4.017   5.368 -0.4391  1.0636 -0.4771
   25CHL1    C2 3003   2.170   4.095   5.548 -0.4569 -0.3536 -0.0600
   25CHL1   H2A 3004   2.067   4.082   5.588 -2.2546  1.8568 -3.5001
   25CHL1   H2B 3005   2.208   4.196   5.574 -0.1420 -0.3401 -0.5513
   25CHL1   C20 3006   2.145   4.243   4.629  0.1633 -0.0260  0.1682
   25CHL1   H20 3007   2.193   4.343   4.638 -0.7486  0.8615 -3.2447
   25CHL1   C21 3008   1.999   4.270   4.651  0.0215 -0.1606 -0.4892
   25CHL1  H21A 3009   1.994   4.319   4.750  0.4408 -0.6004 -0.2489
   25CHL1  H21B 3010   1.935   4.179   4.657  0.8305 -0.7904 -1.0858
   25CHL1  H21C 3011   1.956   4.331   4.568  1.0763  0.1471 -0.8205
   25CHL1   C22 3012   2.173   4.200   4.483  0.2313 -0.3826 -0.3891
   25CHL1  H22A 3013   2.275   4.159   4.470  0.7729  1.0170 -0.7567
   25CHL1  H22B 3014   2.109   4.125   4.432  0.7025 -0.6626 -0.5738
   25CHL1   C23 3015   2.177   4.321   4.390  0.5171  0.0452  0.4668
   25CHL1  H23A 3016   2.083   4.380   4.398  0.9108  0.4078  3.2394
   25CHL1  H23B 3017   2.261   4.391   4.411  1.3927 -0.4980 -1.0367
   25CHL1   C24 3018   2.193   4.288   4.238 -0.2191 -0.5118 -0.1095
   25CHL1  H24A 3019   2.295   4.246   4.242 -0.3037 -0.8198 -0.9971
   25CHL1  H24B 3020   2.123   4.209   4.204  0.1933 -0.3732 -1.3517
   25CHL1   C25 3021   2.179   4.409   4.144  0.2582 -0.8130 -0.2453
   25CHL1   H25 3022   2.070   4.430   4.139  0.4295  0.1600 -0.0902
   25CHL1   C26 3023   2.269   4.529   4.183  0.0818 -0.5438 -0.2325
   25CHL1  H26A 3024   2.209   4.583   4.260  0.2597 -0.6871  0.0081
   25CHL1  H26B 3025   2.367   4.491   4.217  0.3755 -0.9152 -1.4544
   25CHL1  H26C 3026   2.287   4.589   4.091  1.8403  1.9742  1.6196
   25CHL1   C27 3027   2.218   4.366   3.999 -0.1210 -0.1873  0.2361
   25CHL1  H27A 3028   2.214   4.443   3.920  2.1081 -1.0202 -0.7813
   25CHL1  H27B 3029   2.325   4.336   4.000  0.2724  0.7859 -2.7333
   25CHL1  H27C 3030   2.161   4.275   3.969  1.2238 -0.3359 -2.1377
   26CHL1    C3 3031   4.509   5.181   5.613  0.0126 -0.0435  0.2688
   26CHL1    H3 3032   4.406   5.176   5.573  0.6768 -1.0425 -1.3945
   26CHL1    O3 3033   4.528   5.233   5.738  0.3500 -0.7198 -0.3822
   26CHL1   H3' 3034   4.473   5.311   5.743 -0.4826 -1.3339  0.1697
   26CHL1    C4 3035   4.554   5.031   5.604 -0.2690  0.0419  0.0388
   26CHL1   H4A 3036   4.650   5.006   5.655 -1.6688 -2.1684  1.7415
   26CHL1   H4B 3037   4.483   4.974   5.668  0.0514 -1.9000 -1.2763
   26CHL1    C5 3038   4.541   4.989   5.454  0.5472  0.3069 -0.0533
   26CHL1    C6 3039   4.458   4.886   5.412  0.4557  0.2582 -0.4865
   26CHL1    H6 3040   4.404   4.828   5.489  1.5808  0.0947  0.2095
   26CHL1    C7 3041   4.437   4.843   5.273 -0.2230  0.7763 -0.4066
   26CHL1   H7A 3042   4.436   4.732   5.271 -0.3934  0.7752 -0.2730
   26CHL1   H7B 3043   4.333   4.870   5.247 -0.8209 -1.9708 -1.1087
   26CHL1    C8 3044   4.549   4.881   5.178 -0.6088  0.3729 -0.0280
   26CHL1    H8 3045   4.643   4.823   5.190 -0.2484  1.2857  1.9801
   26CHL1   C14 3046   4.503   4.885   5.040  0.0704 -0.7636  0.5760
   26CHL1   H14 3047   4.422   4.958   5.018  1.6840  0.7582 -0.5762
   26CHL1   C15 3048   4.441   4.752   4.980  0.3266 -0.1423 -0.0318
   26CHL1  H15A 3049   4.510   4.666   4.987 -0.7320 -1.0101  0.0977
   26CHL1  H15B 3050   4.353   4.719   5.039  0.4272 -0.5180 -0.0869
   26CHL1   C16 3051   4.428   4.788   4.841  0.4169 -0.0668  0.4550
   26CHL1  H16A 3052   4.439   4.697   4.778  2.2579 -0.4853  1.3144
   26CHL1  H16B 3053   4.324   4.822   4.822  0.8502  0.7992 -0.4777
   26CHL1   C17 3054   4.527   4.901   4.807  0.3256  0.8662 -0.4418
   26CHL1   H17 3055   4.468   4.995   4.792 -1.2475 -0.3099 -1.9962
   26CHL1   C13 3056   4.603   4.925   4.932  0.4581  0.4326 -0.3586
   26CHL1   C18 3057   4.727   4.829   4.942  0.5080  0.1605  0.3554
   26CHL1  H18A 3058   4.777   4.835   5.040  2.0046  1.1955 -0.4335
   26CHL1  H18B 3059   4.699   4.724   4.917  0.3684 -0.1517  1.7570
   26CHL1  H18C 3060   4.808   4.847   4.868 -1.5452  1.4847 -1.7335
   26CHL1   C12 3061   4.648   5.064   4.963 -0.2350  0.0719 -0.1790
   26CHL1  H12A 3062   4.729   5.093   4.893  0.4833 -0.2920  0.4837
   26CHL1  H12B 3063   4.570   5.141   4.944  0.9707  1.7839  1.4778
   26CHL1   C11 3064   4.687   5.091   5.105 -0.3790 -0.6595 -0.0656
   26CHL1  H11A 3065   4.791   5.057   5.126 -0.4702 -0.1075  1.4682
   26CHL1  H11B 3066   4.688   5.202   5.115 -0.4579 -0.4855 -1.7212
   26CHL1    C9 3067   4.586   5.029   5.210 -0.2839 -0.0029  0.0558
   26CHL1    H9 3068   4.485   5.071   5.188 -0.9136 -2.3096 -1.8299
   26CHL1   C10 3069   4.622   5.071   5.352 -0.7363  0.4232  0.4147
   26CHL1   C19 3070   4.769   5.045   5.377 -0.2955  0.4578  0.0197
   26CHL1  H19A 3071   4.801   4.951   5.327 -0.9536 -0.6018  1.4806
   26CHL1  H19B 3072   4.839   5.121   5.337  2.1577 -2.4187 -1.5931
   26CHL1  H19C 3073   4.801   5.019   5.481  0.3053 -1.9968 -0.7014
   26CHL1    C1 3074   4.593   5.216   5.372 -0.3391 -0.3981  1.2100
   26CHL1   H1A 3075   4.663   5.279   5.312  1.1073 -1.5672  1.6028
   26CHL1   H1B 3076   4.489   5.229   5.335  0.1526  1.1034  0.2217
   26CHL1    C2 3077   4.603   5.263   5.519  0.1457  0.1786 -0.8483
   26CHL1   H2A 3078   4.561   5.365   5.517  0.0882  0.1782  0.0259
   26CHL1   H2B 3079   4.709   5.274   5.552  0.1830 -0.1579 -0.8445
   26CHL1   C20 3080   4.601   4.867   4.675 -0.0737 -0.4161  1.1038
   26CHL1   H20 3081   4.661   4.774   4.682  2.3778  1.0349  0.7001
   26CHL1   C21 3082   4.700   4.976   4.640 -0.3052 -0.1242  0.7803
   26CHL1  H21A 3083   4.753   4.953   4.545 -1.1854  0.7766  0.0584
   26CHL1  H21B 3084   4.788   4.994   4.706  1.7353  1.4826 -2.1559
   26CHL1  H21C 3085   4.643   5.071   4.637 -1.2625 -0.7017  0.0469
   26CHL1   C22 3086   4.495   4.859   4.559  0.5892 -0.1212  0.6184
   26CHL1  H22A 3087   4.419   4.780   4.579 -0.4134 -0.2557 -3.0005
   26CHL1  H22B 3088   4.442   4.957   4.558  0.4340 -0.1880  1.6289
   26CHL1   C23 3089   4.560   4.827   4.425  0.4965 -0.4889  0.2288
   26CHL1  H23A 3090   4.621   4.906   4.377 -1.2787 -1.0110 -3.2421
   26CHL1  H23B 3091   4.625   4.737   4.438  1.3667 -0.1116 -1.2162
   26CHL1   C24 3092   4.444   4.791   4.328  0.3550  0.2515 -0.3717
   26CHL1  H24A 3093   4.380   4.709   4.367  1.0765 -0.9268 -1.5861
   26CHL1  H24B 3094   4.383   4.884   4.322  0.4677  0.2633 -1.6410
   26CHL1   C25 3095   4.481   4.758   4.184 -0.0591  0.0020 -0.4183
   26CHL1   H25 3096   4.572   4.694   4.194 -0.1488 -0.0026  0.3685
   26CHL1   C26 3097   4.373   4.686   4.104 -0.3303  0.3413 -0.4387
   26CHL1  H26A 3098   4.348   4.590   4.155 -1.4852 -0.1818 -1.8949
   26CHL1  H26B 3099   4.286   4.755   4.097  0.1431  0.8143 -2.1152
   26CHL1  H26C 3100   4.406   4.663   4.000 -3.1857  0.6313 -1.4965
   26CHL1   C27 3101   4.514   4.888   4.107 -0.3832  0.6091 -0.6256
   26CHL1  H27A 3102   4.586   4.949   4.166 -2.0833  0.6261  1.5639
   26CHL1  H27B 3103   4.555   4.863   4.007 -1.4134 -0.8598 -0.7057
   26CHL1  H27C 3104   4.422   4.946   4.086 -0.2934  0.5399 -1.2062
   27CHL1    C3 3105   1.429   5.653   5.435 -0.1784  0.2146 -0.4799
   27CHL1    H3 3106   1.444   5.754   5.390 -2.3513  1.2553  0.9324
   27CHL1    O3 3107   1.380   5.681   5.563 -0.1245 -0.0490 -0.6507
   27CHL1   H3' 3108   1.287   5.702   5.549 -0.8779 -2.5358  0.1635
   27CHL1    C4 3109   1.336   5.580   5.351  0.1820 -0.5189 -0.0285
   27CHL1   H4A 3110   1.298   5.492   5.409  0.1249 -0.7138 -0.3571
   27CHL1   H4B 3111   1.241   5.636   5.337  0.2559 -0.2081  0.6822
   27CHL1    C5 3112   1.402   5.531   5.220 -0.5948  0.2066  0.4462
   27CHL1    C6 3113   1.346   5.563   5.108 -0.1499  0.2294  0.3622
   27CHL1    H6 3114   1.254   5.623   5.104 -0.1469  0.1814 -1.0530
   27CHL1    C7 3115   1.400   5.519   4.979  0.3603 -0.3815  0.3916
   27CHL1   H7A 3116   1.315   5.482   4.917 -0.3885 -1.4061  1.9893
   27CHL1   H7B 3117   1.451   5.603   4.926  0.1121 -0.7658 -0.4705
   27CHL1    C8 3118   1.491   5.390   4.981 -0.7367 -0.7451 -0.4020
   27CHL1    H8 3119   1.423   5.304   4.999 -0.0199 -0.8726  2.0556
   27CHL1   C14 3120   1.564   5.373   4.853  0.0224  0.2993  0.4249
   27CHL1   H14 3121   1.632   5.460   4.848 -1.0366  1.1956  1.0703
   27CHL1   C15 3122   1.487   5.362   4.720  0.1927  0.6385 -0.7817
   27CHL1  H15A 3123   1.399   5.295   4.722  0.9959 -0.6719 -3.5484
   27CHL1  H15B 3124   1.448   5.459   4.684 -2.3264  0.4769  1.2479
   27CHL1   C16 3125   1.585   5.306   4.613  0.1723  0.1579 -0.1322
   27CHL1  H16A 3126   1.535   5.222   4.562  0.0887  0.3416 -0.3550
   27CHL1  H16B 3127   1.616   5.382   4.538  1.7157 -0.0241  0.2926
   27CHL1   C17 3128   1.709   5.251   4.694  0.0397 -0.6675 -0.5240
   27CHL1   H17 3129   1.791   5.326   4.683 -0.9223  0.6081  0.5873
   27CHL1   C13 3130   1.661   5.246   4.842  0.0378  0.8492 -0.1166
   27CHL1   C18 3131   1.572   5.118   4.865  0.1937 -0.0068 -0.2157
   27CHL1  H18A 3132   1.506   5.120   4.955  1.2513 -1.3884  0.6383
   27CHL1  H18B 3133   1.512   5.091   4.775 -0.6429 -1.5143  0.7319
   27CHL1  H18C 3134   1.638   5.032   4.889  0.0117 -0.2511 -0.5723
   27CHL1   C12 3135   1.763   5.272   4.957  0.4937  0.3069  0.2369
   27CHL1  H12A 3136   1.836   5.189   4.969 -0.2105 -0.1798  1.2818
   27CHL1  H12B 3137   1.817   5.368   4.937 -1.6389  1.1935 -1.7077
   27CHL1   C11 3138   1.693   5.295   5.088 -0.2879 -0.5755 -0.2447
   27CHL1  H11A 3139   1.652   5.197   5.122 -1.2935 -0.2835 -0.5741
   27CHL1  H11B 3140   1.780   5.319   5.153 -0.1634 -1.2202 -0.1619
   27CHL1    C9 3141   1.593   5.406   5.095  0.2347  0.4899  0.0769
   27CHL1    H9 3142   1.653   5.494   5.065  0.3067  0.6819  0.7542
   27CHL1   C10 3143   1.534   5.449   5.237  0.4688 -0.5486  0.2874
   27CHL1   C19 3144   1.512   5.324   5.319  0.2211  0.0325  0.1914
   27CHL1  H19A 3145   1.459   5.355   5.412 -0.0202  0.6121 -0.1297
   27CHL1  H19B 3146   1.457   5.245   5.263  0.4727 -0.4538  0.6317
   27CHL1  H19C 3147   1.603   5.271   5.352 -0.5615 -1.4059  0.1336
   27CHL1    C1 3148   1.632   5.537   5.318  0.7282 -0.6899  0.4583
   27CHL1   H1A 3149   1.722   5.474   5.333 -0.3274 -2.6028 -0.8956
   27CHL1   H1B 3150   1.661   5.627   5.258 -1.2205  0.2910  0.9064
   27CHL1    C2 3151   1.575   5.588   5.454  1.0174  0.1477 -0.3739
   27CHL1   H2A 3152   1.653   5.646   5.509  0.0062  0.2762  0.9902
   27CHL1   H2B 3153   1.555   5.499   5.518 -1.1102  0.2268 -0.8449
   27CHL1   C20 3154   1.767   5.126   4.629 -0.7342 -0.3060  0.5885
   27CHL1   H20 3155   1.692   5.046   4.649 -0.4436 -1.1220 -1.3609
   27CHL1   C21 3156   1.904   5.089   4.680  0.8338 -0.2046  0.3623
   27CHL1  H21A 3157   1.886   5.093   4.790 -3.4341  1.3634 -0.2117
   27CHL1  H21B 3158   1.980   5.167   4.658  0.6331  0.5509  2.1773
   27CHL1  H21C 3159   1.939   4.989   4.647  1.9058  0.3780 -0.3002
   27CHL1   C22 3160   1.785   5.130   4.476 -0.1087  0.2724 -0.2177
   27CHL1  H22A 3161   1.846   5.039   4.462 -2.2078 -1.5058  1.4519
   27CHL1  H22B 3162   1.686   5.122   4.426  0.0059  0.3456 -0.4589
   27CHL1   C23 3163   1.869   5.251   4.433  0.1623  0.0155  0.7668
   27CHL1  H23A 3164   1.808   5.344   4.433 -0.4736 -0.3889  0.3456
   27CHL1  H23B 3165   1.958   5.277   4.494  1.1241  1.0708 -0.9971
   27CHL1   C24 3166   1.918   5.231   4.287 -0.0746  0.7125 -0.0566
   27CHL1  H24A 3167   1.965   5.131   4.295  0.0553  0.9310  2.6728
   27CHL1  H24B 3168   1.839   5.232   4.208  0.4838  3.4929 -0.6652
   27CHL1   C25 3169   2.024   5.339   4.244 -0.0169  0.2067  0.1306
   27CHL1   H25 3170   2.097   5.357   4.325  0.8961  2.0037 -1.0078
   27CHL1   C26 3171   2.108   5.304   4.114 -0.2176  0.5131 -0.6212
   27CHL1  H26A 3172   2.191   5.378   4.109 -1.1840  1.8027  1.1453
   27CHL1  H26B 3173   2.141   5.198   4.124 -1.3008  0.1732 -0.5832
   27CHL1  H26C 3174   2.043   5.308   4.025 -1.6107 -1.6683  0.2201
   27CHL1   C27 3175   1.962   5.480   4.218 -0.9718 -0.1444  0.4835
   27CHL1  H27A 3176   1.901   5.479   4.125 -1.4410 -1.9330  0.7559
   27CHL1  H27B 3177   2.046   5.552   4.211  0.7148 -1.9543  1.1562
   27CHL1  H27C 3178   1.896   5.518   4.299 -0.3090 -0.4462  1.1864
   28CHL1    C3 3179   5.045   5.604   5.629  0.0794 -0.4229 -0.2296
   28CHL1    H3 3180   5.152   5.580   5.610 -0.0466 -0.3674 -1.0327
   28CHL1    O3 3181   5.035   5.649   5.766  0.1067 -0.5284  0.2305
   28CHL1   H3' 3182   5.078   5.577   5.813 -0.0902 -2.6989 -2.6762
   28CHL1    C4 3183   5.005   5.711   5.532  0.0850 -0.6025  0.1939
   28CHL1   H4A 3184   4.898   5.737   5.548  0.1603  0.9775 -1.4369
   28CHL1   H4B 3185   5.050   5.809   5.557 -2.7559  1.4140 -1.8408
   28CHL1    C5 3186   5.034   5.670   5.389 -0.3454 -0.3813 -0.1724
   28CHL1    C6 3187   5.108   5.748   5.310 -0.4925 -0.1996  0.5624
   28CHL1    H6 3188   5.155   5.838   5.352 -2.2830  0.0822  2.1047
   28CHL1    C7 3189   5.131   5.718   5.161 -0.0764 -0.2666  0.0489
   28CHL1   H7A 3190   5.141   5.808   5.098  0.6719 -0.5403 -0.2379
   28CHL1   H7B 3191   5.219   5.652   5.147  0.3312  0.4905 -1.0303
   28CHL1    C8 3192   5.023   5.616   5.109  0.3189  0.1448 -0.8310
   28CHL1    H8 3193   4.927   5.670   5.093  1.5278  2.2390 -1.3156
   28CHL1   C14 3194   5.070   5.553   4.977  0.0694  0.0052 -0.0819
   28CHL1   H14 3195   5.174   5.519   4.997  0.3576  0.9122  0.0099
   28CHL1   C15 3196   5.092   5.653   4.864  0.0953 -0.3377  0.3005
   28CHL1  H15A 3197   5.006   5.724   4.859 -2.1432 -2.9133  0.4183
   28CHL1  H15B 3198   5.184   5.714   4.878  1.4158 -1.8766 -1.3098
   28CHL1   C16 3199   5.094   5.569   4.738  0.2200  0.0203 -0.2647
   28CHL1  H16A 3200   5.016   5.598   4.664 -0.4506 -1.1086 -0.0212
   28CHL1  H16B 3201   5.194   5.569   4.691  0.7697 -0.0293  0.8666
   28CHL1   C17 3202   5.066   5.425   4.786 -0.5047  0.2131 -0.0512
   28CHL1   H17 3203   5.161   5.385   4.827 -0.6969 -1.0569 -0.7996
   28CHL1   C13 3204   4.986   5.441   4.922  0.1505  0.2705 -0.0652
   28CHL1   C18 3205   4.839   5.475   4.890  0.3311 -0.1311 -0.4192
   28CHL1  H18A 3206   4.828   5.509   4.785  1.0390 -1.6522 -1.0064
   28CHL1  H18B 3207   4.776   5.384   4.888 -2.0880  1.4648 -1.7885
   28CHL1  H18C 3208   4.793   5.546   4.963 -0.5124 -0.4499 -0.6268
   28CHL1   C12 3209   4.984   5.320   5.014 -0.1262  0.3195 -0.1860
   28CHL1  H12A 3210   4.920   5.237   4.976  1.9723 -1.4443 -0.0738
   28CHL1  H12B 3211   5.091   5.291   5.023 -1.0711 -2.8967  2.7017
   28CHL1   C11 3212   4.926   5.365   5.150  0.2871  0.2543  0.0822
   28CHL1  H11A 3213   4.820   5.397   5.147 -0.1091 -0.8759  1.1923
   28CHL1  H11B 3214   4.939   5.277   5.217  1.0583  0.5080  0.2776
   28CHL1    C9 3215   5.006   5.491   5.210  0.8289  0.2227  0.9231
   28CHL1    H9 3216   5.108   5.447   5.210  0.2584 -1.1505 -0.5262
   28CHL1   C10 3217   4.964   5.534   5.349 -0.2066 -0.6033 -0.0331
   28CHL1   C19 3218   4.805   5.557   5.351 -0.1788  0.5621 -0.1801
   28CHL1  H19A 3219   4.772   5.614   5.441  1.3015 -0.3801  1.0088
   28CHL1  H19B 3220   4.765   5.611   5.263  0.6284  0.1221 -0.8212
   28CHL1  H19C 3221   4.765   5.453   5.349  2.7697 -0.6708 -1.7642
   28CHL1    C1 3222   4.985   5.423   5.460 -0.2279 -0.6414  0.2996
   28CHL1   H1A 3223   4.923   5.332   5.445  0.4326 -1.2535  1.1861
   28CHL1   H1B 3224   5.091   5.392   5.464 -0.3751 -1.0685  2.5121
   28CHL1    C2 3225   4.958   5.476   5.606  0.1938  0.1380 -0.1870
   28CHL1   H2A 3226   4.990   5.399   5.679 -0.2558 -1.1692 -1.3051
   28CHL1   H2B 3227   4.853   5.505   5.630 -0.1083  0.2578 -1.5481
   28CHL1   C20 3228   5.018   5.328   4.679  0.4905 -0.5203 -0.1428
   28CHL1   H20 3229   4.908   5.341   4.667  0.4415 -0.7860  0.0055
   28CHL1   C21 3230   5.058   5.181   4.707  0.2985  0.1073  0.2983
   28CHL1  H21A 3231   5.005   5.133   4.792  0.5438 -2.7576 -1.0311
   28CHL1  H21B 3232   5.167   5.177   4.732 -0.2740 -1.0001  2.9507
   28CHL1  H21C 3233   5.037   5.113   4.621 -1.7323  0.0805  0.7811
   28CHL1   C22 3234   5.070   5.357   4.535  0.8353  0.3624  0.2138
   28CHL1  H22A 3235   5.086   5.457   4.489  0.7157  0.3090  0.0537
   28CHL1  H22B 3236   5.171   5.310   4.535  1.1780  1.0826  0.9863
   28CHL1   C23 3237   4.991   5.272   4.432 -0.2725  0.1187 -0.5121
   28CHL1  H23A 3238   4.993   5.162   4.451  0.3961  0.3521  0.8451
   28CHL1  H23B 3239   4.885   5.305   4.435  0.0498  1.1709 -0.4179
   28CHL1   C24 3240   5.048   5.297   4.294  0.3121 -0.3846  0.4794
   28CHL1  H24A 3241   5.035   5.404   4.265  0.4561 -0.3444  0.5606
   28CHL1  H24B 3242   5.157   5.278   4.285  0.2644 -1.1772  1.4941
   28CHL1   C25 3243   4.976   5.196   4.196  0.1890 -0.1519  1.0166
   28CHL1   H25 3244   4.985   5.095   4.240  1.5366 -0.5236 -0.0287
   28CHL1   C26 3245   4.828   5.221   4.163  0.1660 -0.7719  0.4675
   28CHL1  H26A 3246   4.825   5.299   4.084 -1.8257 -1.2590  0.0164
   28CHL1  H26B 3247   4.787   5.127   4.120  3.5633 -1.8882 -0.7209
   28CHL1  H26C 3248   4.766   5.258   4.247 -0.5521  0.0776 -0.4109
   28CHL1   C27 3249   5.056   5.183   4.061  0.0931 -0.6054 -0.2260
   28CHL1  H27A 3250   5.062   5.287   4.024  0.8898 -0.5530  0.0426
   28CHL1  H27B 3251   5.158   5.140   4.065  0.8232  0.9900 -1.0343
   28CHL1  H27C 3252   4.999   5.125   3.985 -0.6261  3.1548 -2.8079
   29CHL1    C3 3253   0.787   1.387   5.690 -0.2193 -0.3443  0.1997
   29CHL1    H3 3254   0.871   1.315   5.686 -0.0031 -0.0661 -0.4419
   29CHL1    O3 3255   0.743   1.407   5.821  0.0295  0.1588  0.3674
   29CHL1   H3' 3256   0.650   1.433   5.823 -0.8082 -2.1719 -1.8998
   29CHL1    C4 3257   0.832   1.521   5.631 -0.2088 -0.4878 -0.9073
   29CHL1   H4A 3258   0.744   1.590   5.636  1.0002  1.0558  1.2428
   29CHL1   H4B 3259   0.909   1.561   5.700  1.6093 -0.9142 -2.6202
   29CHL1    C5 3260   0.881   1.520   5.487 -0.2394 -0.1040 -0.2833
   29CHL1    C6 3261   1.006   1.558   5.454 -0.6701 -0.5704  0.2654
   29CHL1    H6 3262   1.075   1.591   5.533 -0.3737 -1.5167  0.4107
   29CHL1    C7 3263   1.051   1.556   5.313 -1.1632 -0.4084 -0.4060
   29CHL1   H7A 3264   1.101   1.652   5.289 -0.6165 -0.6620 -0.2919
   29CHL1   H7B 3265   1.127   1.475   5.317 -0.1715  0.5296  0.1556
   29CHL1    C8 3266   0.940   1.535   5.205  0.2726 -0.1385 -0.0460
   29CHL1    H8 3267   0.893   1.634   5.185  1.4343  0.3730 -0.3140
   29CHL1   C14 3268   1.006   1.486   5.072  0.2098 -0.4086 -0.1663
   29CHL1   H14 3269   1.050   1.389   5.103  1.5443  0.7373  1.6458
   29CHL1   C15 3270   1.128   1.560   5.019 -0.0549  0.1683  1.5941
   29CHL1  H15A 3271   1.111   1.669   5.015  2.8199  0.6776 -0.3446
   29CHL1  H15B 3272   1.216   1.549   5.086 -0.2114 -0.5781  1.6892
   29CHL1   C16 3273   1.130   1.517   4.872  0.3941  0.0522  0.1050
   29CHL1  H16A 3274   1.107   1.613   4.822  0.4969  0.0293  0.0114
   29CHL1  H16B 3275   1.231   1.481   4.843 -0.4011 -1.7449 -0.5730
   29CHL1   C17 3276   1.001   1.434   4.845  0.1762 -0.5902 -0.4864
   29CHL1   H17 3277   1.027   1.330   4.874 -0.7635 -0.3617  1.2592
   29CHL1   C13 3278   0.904   1.468   4.963 -0.3019  0.1470  0.1938
   29CHL1   C18 3279   0.831   1.597   4.928 -0.4309 -0.4801 -0.2211
   29CHL1  H18A 3280   0.781   1.603   4.829  0.8230 -0.0470 -0.8536
   29CHL1  H18B 3281   0.754   1.625   5.003 -1.4882  0.4104 -1.5853
   29CHL1  H18C 3282   0.903   1.681   4.919 -2.1330  1.6415  3.6586
   29CHL1   C12 3283   0.803   1.353   5.003  0.3410 -0.4057 -0.2981
   29CHL1  H12A 3284   0.724   1.361   4.926  0.0198 -0.5730  0.0165
   29CHL1  H12B 3285   0.863   1.260   4.999  0.3672 -0.5708  2.2418
   29CHL1   C11 3286   0.744   1.383   5.139 -1.3600 -0.3613  0.2761
   29CHL1  H11A 3287   0.663   1.459   5.141  0.6777  1.8887  1.0740
   29CHL1  H11B 3288   0.702   1.288   5.178  0.0567 -0.9382  0.4536
   29CHL1    C9 3289   0.841   1.430   5.250  0.1210  0.1284 -0.2897
   29CHL1    H9 3290   0.905   1.342   5.270 -0.4741 -0.8970 -2.5615
   29CHL1   C10 3291   0.777   1.467   5.389 -0.3782 -0.3218 -0.2681
   29CHL1   C19 3292   0.668   1.579   5.373  0.3411  0.3040  0.0325
   29CHL1  H19A 3293   0.708   1.674   5.332 -0.0285 -0.7408 -3.0717
   29CHL1  H19B 3294   0.576   1.549   5.318 -1.8184  0.8344  3.0755
   29CHL1  H19C 3295   0.621   1.596   5.472 -0.9461 -2.5650  0.0069
   29CHL1    C1 3296   0.714   1.338   5.450  0.1871 -0.3616  0.1895
   29CHL1   H1A 3297   0.620   1.308   5.400  0.1111 -0.5493  0.4425
   29CHL1   H1B 3298   0.795   1.263   5.433  1.2320  0.9109 -0.6837
   29CHL1    C2 3299   0.676   1.341   5.602  0.3864  0.1888  0.2582
   29CHL1   H2A 3300   0.643   1.241   5.638 -0.4730  0.2045 -0.4591
   29CHL1   H2B 3301   0.585   1.402   5.616 -0.7432 -1.0183 -1.4673
   29CHL1   C20 3302   0.961   1.432   4.696  0.0586  0.3631 -0.8517
   29CHL1   H20 3303   0.938   1.534   4.659  0.2422  1.2331  1.3034
   29CHL1   C21 3304   0.825   1.355   4.674 -0.1339  0.4321  0.0413
   29CHL1  H21A 3305   0.835   1.251   4.711 -3.0017  0.3469  0.8215
   29CHL1  H21B 3306   0.805   1.336   4.567  1.5854 -1.7655  0.0419
   29CHL1  H21C 3307   0.739   1.409   4.719  0.2675  1.5790 -0.5388
   29CHL1   C22 3308   1.081   1.374   4.615 -0.5580 -0.1556 -1.2279
   29CHL1  H22A 3309   1.174   1.434   4.624 -0.0577 -1.0879  0.2163
   29CHL1  H22B 3310   1.099   1.270   4.648  0.3122 -0.3895 -2.3841
   29CHL1   C23 3311   1.058   1.382   4.463  0.1771  0.1650 -0.3038
   29CHL1  H23A 3312   0.985   1.300   4.442 -0.9205  1.0674 -0.0853
   29CHL1  H23B 3313   1.025   1.483   4.430 -2.9089 -0.6358  0.0245
   29CHL1   C24 3314   1.192   1.342   4.389  0.2062 -0.1839  0.4575
   29CHL1  H24A 3315   1.263   1.419   4.426 -0.1975  1.5620 -2.1552
   29CHL1  H24B 3316   1.220   1.240   4.424 -1.4984 -1.1970 -0.9525
   29CHL1   C25 3317   1.185   1.342   4.229  0.2472 -0.5227 -0.5305
   29CHL1   H25 3318   1.097   1.278   4.210  0.2044 -0.0769 -1.9816
   29CHL1   C26 3319   1.140   1.485   4.173 -0.4868 -0.0217  0.1041
   29CHL1  H26A 3320   1.056   1.527   4.233 -1.8808  3.4565 -3.8364
   29CHL1  H26B 3321   1.228   1.552   4.179 -1.7342  1.5945  1.1976
   29CHL1  H26C 3322   1.111   1.479   4.066 -1.3568  1.0115  0.2713
   29CHL1   C27 3323   1.311   1.285   4.156  0.0816  0.0254  0.1654
   29CHL1  H27A 3324   1.294   1.243   4.055 -1.9914 -2.8211  1.5760
   29CHL1  H27B 3325   1.392   1.362   4.155  0.7364 -0.6430  0.7371
   29CHL1  H27C 3326   1.349   1.199   4.215  1.6873 -0.4879 -1.5142
   30CHL1    C3 3327   3.137   0.002   5.487 -0.4326 -0.1440  0.1617
   30CHL1    H3 3328   3.238  -0.043   5.483 -0.3796 -0.7467  4.1973
   30CHL1    O3 3329   3.118   0.051   5.622 -0.1865  0.1813  0.8279
   30CHL1   H3' 3330   3.072  -0.021   5.665 -1.0785 -0.1128 -0.5727
   30CHL1    C4 3331   3.116   0.113   5.383  0.1374  0.7187  0.4852
   30CHL1   H4A 3332   3.016   0.159   5.391  0.1207  0.6789  0.5038
   30CHL1   H4B 3333   3.183   0.199   5.406  0.4908  1.1754 -2.0141
   30CHL1    C5 3334   3.134   0.066   5.240  0.5106 -0.2087 -0.7406
   30CHL1    C6 3335   3.229   0.118   5.162  0.1452 -0.1454 -0.0786
   30CHL1    H6 3336   3.305   0.188   5.200  0.6578  0.3708 -1.9482
   30CHL1    C7 3337   3.249   0.074   5.021 -0.0361  0.2517 -0.0593
   30CHL1   H7A 3338   3.268   0.167   4.962  0.5486  0.1871  0.0183
   30CHL1   H7B 3339   3.346   0.021   5.010 -0.2709  0.0983 -1.6812
   30CHL1    C8 3340   3.128  -0.000   4.970  0.0288 -0.0188  0.5689
   30CHL1    H8 3341   3.045   0.067   4.939  0.5546 -0.4936 -2.1804
   30CHL1   C14 3342   3.163  -0.074   4.843 -0.5035 -0.7358 -0.2543
   30CHL1   H14 3343   3.237  -0.152   4.873 -0.4062 -1.9203 -3.2380
   30CHL1   C15 3344   3.232   0.015   4.733 -0.4166 -0.2536  0.4498
   30CHL1  H15A 3345   3.190   0.118   4.734  0.2410  0.0096  1.1632
   30CHL1  H15B 3346   3.342   0.027   4.737 -0.4226  0.7950 -1.2997
   30CHL1   C16 3347   3.204  -0.069   4.605  0.1594  0.2939  0.4205
   30CHL1  H16A 3348   3.136  -0.008   4.542  1.7662  1.4872 -0.2461
   30CHL1  H16B 3349   3.297  -0.094   4.550  0.4925 -2.4638  2.0660
   30CHL1   C17 3350   3.143  -0.208   4.653 -0.2780 -0.4627 -0.3646
   30CHL1   H17 3351   3.227  -0.272   4.687  0.0167  0.4722  0.7592
   30CHL1   C13 3352   3.062  -0.163   4.776  0.0047 -0.9360 -0.4423
   30CHL1   C18 3353   2.933  -0.081   4.739 -0.1100  0.9834  0.6098
   30CHL1  H18A 3354   2.849  -0.133   4.688 -1.0171  3.2025 -0.2756
   30CHL1  H18B 3355   2.882  -0.058   4.835  0.8328  0.3635  1.2812
   30CHL1  H18C 3356   2.959   0.015   4.690  3.1741  1.2087  2.4734
   30CHL1   C12 3357   3.020  -0.277   4.874  0.1292 -0.0214  0.0262
   30CHL1  H12A 3358   2.938  -0.328   4.819 -2.4308  1.9833  1.6986
   30CHL1  H12B 3359   3.104  -0.348   4.889  2.4117  2.0337 -2.1398
   30CHL1   C11 3360   2.975  -0.220   5.012 -0.8277 -0.6821 -0.6744
   30CHL1  H11A 3361   2.870  -0.182   5.006 -0.1302  1.2527 -1.4078
   30CHL1  H11B 3362   2.976  -0.300   5.090 -0.5463  1.8999  2.1457
   30CHL1    C9 3363   3.078  -0.113   5.067  0.1624 -0.7288  0.5796
   30CHL1    H9 3364   3.174  -0.168   5.077  0.3680 -0.6462 -0.7340
   30CHL1   C10 3365   3.037  -0.052   5.198 -0.2888 -0.0948  0.1680
   30CHL1   C19 3366   2.889  -0.001   5.191  0.2806  0.1940 -0.6176
   30CHL1  H19A 3367   2.880   0.083   5.118 -2.7366  0.2152 -0.3477
   30CHL1  H19B 3368   2.816  -0.080   5.164 -0.1315  0.4362 -0.2305
   30CHL1  H19C 3369   2.853   0.044   5.286 -1.6287  0.9472 -1.6413
   30CHL1    C1 3370   3.041  -0.160   5.303  0.2144 -0.6868 -0.9318
   30CHL1   H1A 3371   2.962  -0.237   5.289  0.8942 -1.0462 -3.1689
   30CHL1   H1B 3372   3.136  -0.215   5.291 -2.1352 -4.9375 -2.2101
   30CHL1    C2 3373   3.040  -0.110   5.453 -0.1668  0.3755  0.1500
   30CHL1   H2A 3374   3.063  -0.195   5.521  1.0557 -2.0212 -3.0147
   30CHL1   H2B 3375   2.935  -0.078   5.473  0.4113  0.9970  2.6082
   30CHL1   C20 3376   3.056  -0.289   4.553 -0.2284  0.3119 -0.0178
   30CHL1   H20 3377   2.950  -0.292   4.587 -1.0812  1.9642 -2.3145
   30CHL1   C21 3378   3.122  -0.434   4.560 -0.3047 -0.8930  0.5533
   30CHL1  H21A 3379   3.067  -0.508   4.499  1.9927 -1.8467 -0.4445
   30CHL1  H21B 3380   3.114  -0.480   4.661 -0.4251 -3.8403 -0.7165
   30CHL1  H21C 3381   3.229  -0.442   4.534  0.5132 -1.3634  3.6099
   30CHL1   C22 3382   3.040  -0.236   4.410  0.1092 -0.0042  0.1869
   30CHL1  H22A 3383   3.124  -0.171   4.376 -0.6478  2.0313  1.9740
   30CHL1  H22B 3384   3.027  -0.324   4.343  1.1479  0.5259 -0.7460
   30CHL1   C23 3385   2.906  -0.159   4.384  0.5014 -1.0349 -0.0366
   30CHL1  H23A 3386   2.822  -0.222   4.419  0.0502  0.5018  1.7952
   30CHL1  H23B 3387   2.915  -0.067   4.446  0.5472 -0.2809 -1.1305
   30CHL1   C24 3388   2.885  -0.118   4.236 -0.9172 -0.0816  0.3276
   30CHL1  H24A 3389   2.786  -0.068   4.239 -0.3939  1.0486 -0.6884
   30CHL1  H24B 3390   2.961  -0.039   4.220  0.2497 -1.3104 -0.4185
   30CHL1   C25 3391   2.894  -0.221   4.123  0.6965 -0.2225 -0.6157
   30CHL1   H25 3392   2.995  -0.264   4.109  0.5455 -0.1973 -1.9800
   30CHL1   C26 3393   2.800  -0.339   4.151 -0.4818 -0.1275 -0.2539
   30CHL1  H26A 3394   2.702  -0.287   4.148  1.5489  4.0522 -0.3534
   30CHL1  H26B 3395   2.815  -0.417   4.073 -0.8134 -0.4065 -0.0432
   30CHL1  H26C 3396   2.820  -0.386   4.250  2.1880 -0.0277 -0.6806
   30CHL1   C27 3397   2.850  -0.165   3.985  0.0781 -0.3478 -0.0084
   30CHL1  H27A 3398   2.744  -0.129   3.981  0.0916 -0.0470  1.7237
   30CHL1  H27B 3399   2.922  -0.083   3.967 -0.7714  0.6108  0.8409
   30CHL1  H27C 3400   2.859  -0.252   3.917 -1.1309  0.3852 -1.1655
   31CHL1    C3 3401   3.006   6.055   5.536  0.4184  0.2268 -1.1759
   31CHL1    H3 3402   2.976   5.952   5.564 -0.9276  1.2353  1.6089
   31CHL1    O3 3403   2.996   6.134   5.656  0.6580 -0.4316  0.6543
   31CHL1   H3' 3404   3.033   6.216   5.624  0.4139  0.4598  2.5333
   31CHL1    C4 3405   3.151   6.062   5.498 -0.1824  0.3811  0.0971
   31CHL1   H4A 3406   3.183   6.168   5.502  1.1758 -0.0100  0.3677
   31CHL1   H4B 3407   3.210   6.011   5.577  0.5758  0.1655 -0.5933
   31CHL1    C5 3408   3.170   6.008   5.357 -0.4573 -0.3602  0.0335
   31CHL1    C6 3409   3.249   5.902   5.334 -0.2217 -0.7000 -0.1072
   31CHL1    H6 3410   3.307   5.852   5.413  2.1738  0.9965 -0.6630
   31CHL1    C7 3411   3.281   5.845   5.199  0.3422  0.2760  0.3030
   31CHL1   H7A 3412   3.389   5.818   5.191  0.4610  0.9577 -0.6391
   31CHL1   H7B 3413   3.226   5.750   5.185  2.3211 -0.5655 -2.8756
   31CHL1    C8 3414   3.237   5.946   5.084  0.4267  0.0164 -0.1647
   31CHL1    H8 3415   3.304   6.033   5.075  0.7007 -0.0924  0.7019
   31CHL1   C14 3416   3.239   5.873   4.954  0.8001 -0.1435  0.3833
   31CHL1   H14 3417   3.171   5.785   4.965 -0.9324  0.8298 -1.6533
   31CHL1   C15 3418   3.378   5.815   4.909  0.1116 -0.3397  0.0622
   31CHL1  H15A 3419   3.459   5.890   4.927 -0.5909  0.5759 -0.5092
   31CHL1  H15B 3420   3.394   5.720   4.965  1.0859 -0.7763 -0.9080
   31CHL1   C16 3421   3.373   5.798   4.758 -0.5384 -0.4554  0.0589
   31CHL1  H16A 3422   3.453   5.850   4.701 -1.2202  0.4306 -0.1191
   31CHL1  H16B 3423   3.364   5.692   4.726 -1.8411 -0.4237  0.2544
   31CHL1   C17 3424   3.237   5.864   4.716 -0.1332  0.0305 -0.0610
   31CHL1   H17 3425   3.165   5.780   4.720 -0.4833  0.3687  2.7201
   31CHL1   C13 3426   3.194   5.954   4.837  0.4527  0.2761 -0.1806
   31CHL1   C18 3427   3.279   6.076   4.822  0.4619 -0.1963 -0.4915
   31CHL1  H18A 3428   3.277   6.114   4.718 -2.8173  1.0866 -0.0951
   31CHL1  H18B 3429   3.244   6.165   4.879  1.6229  0.4825 -0.7969
   31CHL1  H18C 3430   3.382   6.053   4.857 -0.5816 -1.4569  2.0777
   31CHL1   C12 3431   3.043   5.987   4.860  0.1189 -0.1286 -0.2309
   31CHL1  H12A 3432   2.996   6.052   4.783  2.1865  0.4923 -1.0463
   31CHL1  H12B 3433   2.990   5.889   4.851 -2.1175  1.1399 -1.8019
   31CHL1   C11 3434   3.021   6.061   4.990 -0.1324 -0.0670  0.2324
   31CHL1  H11A 3435   3.070   6.161   4.980  2.9794 -1.6823 -3.5849
   31CHL1  H11B 3436   2.911   6.069   5.000 -0.2825  0.3961 -1.5226
   31CHL1    C9 3437   3.091   5.995   5.111 -0.4647 -0.0439  0.1348
   31CHL1    H9 3438   3.040   5.898   5.128 -2.0745  0.8899  0.9030
   31CHL1   C10 3439   3.079   6.069   5.244  0.2500 -0.3857 -0.5294
   31CHL1   C19 3440   3.113   6.211   5.219 -0.4929 -0.3673  0.0545
   31CHL1  H19A 3441   3.045   6.261   5.147  0.8702 -0.4822 -1.3809
   31CHL1  H19B 3442   3.119   6.268   5.314 -1.8930 -1.5246  0.8683
   31CHL1  H19C 3443   3.216   6.216   5.178 -0.3484  0.7679  0.5437
   31CHL1    C1 3444   2.932   6.052   5.294  0.6703 -0.3102  0.7117
   31CHL1   H1A 3445   2.866   6.100   5.218 -1.7056  0.4453  3.1105
   31CHL1   H1B 3446   2.904   5.945   5.300 -2.3337  0.4351  2.1089
   31CHL1    C2 3447   2.904   6.112   5.429 -0.2611 -0.0270  0.1988
   31CHL1   H2A 3448   2.799   6.097   5.460 -1.2616  1.2510 -2.3119
   31CHL1   H2B 3449   2.917   6.222   5.415 -1.4402 -0.1348 -2.1020
   31CHL1   C20 3450   3.235   5.919   4.566  0.3267  0.2200  0.1028
   31CHL1   H20 3451   3.309   6.002   4.573  0.9107 -0.3286  0.5344
   31CHL1   C21 3452   3.092   5.970   4.520 -0.1018 -0.1633  0.1638
   31CHL1  H21A 3453   3.048   6.041   4.594 -2.6699  0.2753 -1.6568
   31CHL1  H21B 3454   3.015   5.891   4.532 -0.1458  0.1653  2.7530
   31CHL1  H21C 3455   3.093   6.030   4.427  0.1360  3.7901  2.4721
   31CHL1   C22 3456   3.285   5.806   4.471  0.2257  0.9399 -0.9233
   31CHL1  H22A 3457   3.384   5.784   4.515 -0.0800  0.6190 -0.3842
   31CHL1  H22B 3458   3.213   5.721   4.468  0.7246  0.4579  0.2104
   31CHL1   C23 3459   3.302   5.855   4.328 -0.0353  0.5479  0.7030
   31CHL1  H23A 3460   3.208   5.901   4.292  0.2018  0.8217  0.4287
   31CHL1  H23B 3461   3.382   5.932   4.330  1.1318 -0.6166  2.6429
   31CHL1   C24 3462   3.334   5.742   4.222 -0.4448  0.2430  0.8390
   31CHL1  H24A 3463   3.424   5.686   4.255 -0.2618 -1.0986 -1.7029
   31CHL1  H24B 3464   3.251   5.668   4.216 -0.6355  0.5199 -0.1735
   31CHL1   C25 3465   3.343   5.804   4.080  0.3416 -1.1143 -0.7603
   31CHL1   H25 3466   3.246   5.857   4.066  0.8014 -0.2804 -0.8700
   31CHL1   C26 3467   3.460   5.901   4.060  0.5620  0.1548 -0.1795
   31CHL1  H26A 3468   3.562   5.874   4.094  0.2100 -0.8683  0.0964
   31CHL1  H26B 3469   3.473   5.928   3.953 -0.5754 -1.5427 -0.7964
   31CHL1  H26C 3470   3.430   5.994   4.113 -1.6309 -0.6485  0.1235
   31CHL1   C27 3471   3.356   5.695   3.971 -0.7112  0.2112 -0.2155
   31CHL1  H27A 3472   3.262   5.636   3.968 -2.6460  2.9743  0.9187
   31CHL1  H27B 3473   3.378   5.751   3.878 -1.6187  0.9583 -0.0023
   31CHL1  H27C 3474   3.436   5.622   3.990  1.4727  2.7386  0.9633
   32CHL1    C3 3475   3.091   3.468   5.846  0.5134 -0.1800  0.2844
   32CHL1    H3 3476   2.998   3.413   5.817  1.3224 -2.0252  1.0675
   32CHL1    O3 3477   3.099   3.504   5.982  0.4056  0.1185 -0.0942
   32CHL1   H3' 3478   3.149   3.430   6.018  0.3384  1.1084  2.1772
   32CHL1    C4 3479   3.213   3.394   5.797  0.2391  0.2824  0.1704
   32CHL1   H4A 3480   3.305   3.447   5.831  0.4038  0.7591 -0.9681
   32CHL1   H4B 3481   3.219   3.296   5.848  2.6594  0.4812  0.3856
   32CHL1    C5 3482   3.199   3.378   5.647 -0.4289  0.3928 -0.2378
   32CHL1    C6 3483   3.185   3.257   5.587  0.0241  0.5705  0.1476
   32CHL1    H6 3484   3.180   3.164   5.646 -1.9323  1.0189  0.7419
   32CHL1    C7 3485   3.197   3.244   5.436 -0.6302 -0.3437 -0.3832
   32CHL1   H7A 3486   3.267   3.164   5.403 -1.2245 -1.1089  0.1772
   32CHL1   H7B 3487   3.096   3.212   5.404  0.5273 -2.9899 -1.7762
   32CHL1    C8 3488   3.247   3.368   5.361 -0.0335  0.4657 -0.4822
   32CHL1    H8 3489   3.356   3.380   5.378 -0.2981  1.1847  0.8723
   32CHL1   C14 3490   3.206   3.350   5.214  0.5135 -0.4593  0.7847
   32CHL1   H14 3491   3.095   3.351   5.206  0.5385 -3.1412 -1.7864
   32CHL1   C15 3492   3.245   3.225   5.135 -0.9217 -0.2857  0.8388
   32CHL1  H15A 3493   3.349   3.191   5.157 -0.5529 -2.5125 -3.2153
   32CHL1  H15B 3494   3.180   3.137   5.154 -0.1140 -0.4943  2.8118
   32CHL1   C16 3495   3.229   3.262   4.985  0.4334  0.8775 -0.0936
   32CHL1  H16A 3496   3.323   3.240   4.929  1.9512 -1.5182  3.0568
   32CHL1  H16B 3497   3.152   3.206   4.929 -0.9992  1.5486  1.1496
   32CHL1   C17 3498   3.201   3.420   4.986  0.2526 -0.2128 -0.2931
   32CHL1   H17 3499   3.091   3.422   4.997  0.2952 -0.6158  0.2402
   32CHL1   C13 3500   3.247   3.468   5.120 -0.4244 -0.7009 -0.5298
   32CHL1   C18 3501   3.403   3.477   5.103 -0.2677  0.6661 -0.2299
   32CHL1  H18A 3502   3.446   3.404   5.031 -1.4597 -0.8675  0.5503
   32CHL1  H18B 3503   3.418   3.579   5.061 -1.6676  0.8213 -0.3936
   32CHL1  H18C 3504   3.447   3.459   5.203 -0.2096  1.1337 -0.1668
   32CHL1   C12 3505   3.180   3.598   5.180 -0.8026  1.1148 -0.0470
   32CHL1  H12A 3506   3.196   3.698   5.133 -0.0253  2.1991  2.4009
   32CHL1  H12B 3507   3.071   3.577   5.172 -1.1004  3.0594 -2.1726
   32CHL1   C11 3508   3.221   3.617   5.328 -0.4434  0.2581  0.2613
   32CHL1  H11A 3509   3.331   3.623   5.340 -0.4261  1.5699 -0.3496
   32CHL1  H11B 3510   3.175   3.710   5.366  0.3031  0.0625  1.7247
   32CHL1    C9 3511   3.180   3.491   5.409  0.4940  0.3377  0.8096
   32CHL1    H9 3512   3.071   3.488   5.388  0.5002  1.9315  0.3633
   32CHL1   C10 3513   3.193   3.514   5.564  0.4468  0.8121  0.5754
   32CHL1   C19 3514   3.320   3.582   5.592  0.1347  0.3304 -0.3275
   32CHL1  H19A 3515   3.324   3.678   5.536 -1.8426  0.9554  0.4976
   32CHL1  H19B 3516   3.342   3.607   5.698  0.8858  0.8935 -0.6133
   32CHL1  H19C 3517   3.406   3.522   5.557  1.4522  1.9498 -0.0406
   32CHL1    C1 3518   3.068   3.580   5.624  0.7017  0.3889  0.5076
   32CHL1   H1A 3519   3.063   3.679   5.574 -2.2810 -0.4334 -1.0197
   32CHL1   H1B 3520   2.966   3.541   5.603  0.5427  0.8365  0.4304
   32CHL1    C2 3521   3.068   3.604   5.778 -0.7513  0.2008 -0.2544
   32CHL1   H2A 3522   2.969   3.643   5.809  0.0315  0.7446  1.7213
   32CHL1   H2B 3523   3.148   3.679   5.793 -1.2353  0.5318  0.7942
   32CHL1   C20 3524   3.257   3.494   4.855  0.1868 -0.0199  0.2592
   32CHL1   H20 3525   3.365   3.468   4.853  0.0386 -0.9439  2.1293
   32CHL1   C21 3526   3.245   3.647   4.861 -0.0375 -0.0910 -0.3911
   32CHL1  H21A 3527   3.260   3.683   4.757 -0.3804 -0.6363 -0.6355
   32CHL1  H21B 3528   3.321   3.698   4.924 -0.6051  0.2777 -0.0015
   32CHL1  H21C 3529   3.143   3.665   4.901  0.1773  0.3785 -0.0516
   32CHL1   C22 3530   3.189   3.447   4.720 -0.3555  0.2261  0.0938
   32CHL1  H22A 3531   3.111   3.370   4.735 -0.2575  0.1986  0.4780
   32CHL1  H22B 3532   3.138   3.536   4.678  0.3148  2.5054  3.6084
   32CHL1   C23 3533   3.288   3.400   4.622 -0.6051  0.0771  0.2163
   32CHL1  H23A 3534   3.379   3.463   4.635 -0.2273 -0.4957  0.4011
   32CHL1  H23B 3535   3.320   3.300   4.657  0.0699  1.2526  3.3235
   32CHL1   C24 3536   3.243   3.389   4.479 -0.9629 -0.3073  0.9719
   32CHL1  H24A 3537   3.164   3.310   4.473 -0.5557 -0.6529  0.0249
   32CHL1  H24B 3538   3.192   3.483   4.450  0.7336  0.2174 -0.4298
   32CHL1   C25 3539   3.360   3.357   4.381 -1.0038 -0.2335 -0.0327
   32CHL1   H25 3540   3.439   3.429   4.413 -0.4875 -1.1315  0.7756
   32CHL1   C26 3541   3.408   3.207   4.380 -0.2642 -0.3330  0.3274
   32CHL1  H26A 3542   3.494   3.198   4.310  1.0568  0.4229  1.8007
   32CHL1  H26B 3543   3.444   3.171   4.478  1.4140 -1.0195 -0.5054
   32CHL1  H26C 3544   3.324   3.144   4.342 -0.1505 -0.2365 -0.0895
   32CHL1   C27 3545   3.322   3.394   4.236 -0.6462 -0.0925  0.4630
   32CHL1  H27A 3546   3.421   3.404   4.185  0.6859 -0.6831  2.7661
   32CHL1  H27B 3547   3.251   3.324   4.188  1.1109 -0.7028 -1.4403
   32CHL1  H27C 3548   3.289   3.500   4.228  2.4058  0.9981  0.7949
   33CHL1    C3 3549   0.937   5.229   5.571  0.2959 -0.0097  0.1709
   33CHL1    H3 3550   0.914   5.120   5.559  0.2441  0.1205 -1.0759
   33CHL1    O3 3551   0.947   5.270   5.707  0.0788 -0.6889  0.5477
   33CHL1   H3' 3552   0.976   5.361   5.705 -0.7978 -0.3853  1.1589
   33CHL1    C4 3553   1.070   5.265   5.499  0.7791 -0.2126  0.2833
   33CHL1   H4A 3554   1.087   5.369   5.533 -1.4303 -0.0773  1.1963
   33CHL1   H4B 3555   1.137   5.194   5.553 -0.3483 -1.3121  0.2978
   33CHL1    C5 3556   1.071   5.254   5.348 -1.3005 -0.3064  0.1167
   33CHL1    C6 3557   1.168   5.174   5.297 -0.3614 -0.2657  0.8528
   33CHL1    H6 3558   1.237   5.134   5.372 -1.1517 -0.1457  1.6701
   33CHL1    C7 3559   1.174   5.139   5.153 -0.0030  0.0755 -0.9374
   33CHL1   H7A 3560   1.275   5.160   5.112 -0.0120 -1.4430 -1.7881
   33CHL1   H7B 3561   1.154   5.030   5.146 -3.6930  0.3724  1.9308
   33CHL1    C8 3562   1.069   5.215   5.067 -0.6236  0.1373  0.0568
   33CHL1    H8 3563   1.119   5.307   5.030  0.0107 -0.2100  0.0356
   33CHL1   C14 3564   1.032   5.130   4.941 -0.3126  0.1919  0.0996
   33CHL1   H14 3565   0.981   5.037   4.975  0.9768 -0.7621 -0.4507
   33CHL1   C15 3566   1.153   5.079   4.858 -0.1990  0.7830  0.7634
   33CHL1  H15A 3567   1.239   5.150   4.861  0.8669 -0.3789 -0.6562
   33CHL1  H15B 3568   1.190   4.982   4.899 -1.0336 -0.2916 -0.9413
   33CHL1   C16 3569   1.090   5.052   4.717  0.0823  0.6195 -0.1160
   33CHL1  H16A 3570   1.154   5.113   4.650  0.2455  0.3554 -0.2001
   33CHL1  H16B 3571   1.097   4.948   4.679 -0.9176  0.3502  0.4096
   33CHL1   C17 3572   0.943   5.100   4.722  0.5212  0.2164 -0.0675
   33CHL1   H17 3573   0.878   5.017   4.760 -0.0080  0.7123  0.1306
   33CHL1   C13 3574   0.944   5.203   4.841  0.1402 -0.2555 -0.0538
   33CHL1   C18 3575   1.013   5.330   4.792 -0.6461 -0.0915  0.2315
   33CHL1  H18A 3576   1.110   5.308   4.744 -0.7288  1.1790 -0.5839
   33CHL1  H18B 3577   0.946   5.380   4.718 -0.9315  1.0506  1.2362
   33CHL1  H18C 3578   1.033   5.395   4.879  2.4179  0.5110 -0.8112
   33CHL1   C12 3579   0.820   5.232   4.921 -0.1484  0.1348 -0.2159
   33CHL1  H12A 3580   0.744   5.289   4.863 -0.3314  0.5017  0.3729
   33CHL1  H12B 3581   0.782   5.133   4.953  0.0397  0.8371  2.5132
   33CHL1   C11 3582   0.843   5.311   5.049 -0.3711  0.2610 -0.5575
   33CHL1  H11A 3583   0.883   5.409   5.017 -2.3584  1.0958 -0.6320
   33CHL1  H11B 3584   0.749   5.329   5.106  0.7177 -0.4616  1.5880
   33CHL1    C9 3585   0.940   5.241   5.140  1.1953 -0.4699  0.3467
   33CHL1    H9 3586   0.896   5.140   5.154  1.3945 -0.7340 -0.8334
   33CHL1   C10 3587   0.948   5.311   5.278 -0.0134 -0.0737 -0.0447
   33CHL1   C19 3588   0.967   5.466   5.260  0.1568  0.1811  0.3483
   33CHL1  H19A 3589   1.070   5.495   5.230 -1.3352  4.3808 -1.6583
   33CHL1  H19B 3590   0.898   5.530   5.199 -1.4435 -0.1905  1.7021
   33CHL1  H19C 3591   0.965   5.508   5.363  0.6363  1.5349 -0.1683
   33CHL1    C1 3592   0.818   5.278   5.357 -0.1991  0.0318  0.3328
   33CHL1   H1A 3593   0.725   5.320   5.313 -0.1404 -0.3678 -0.1880
   33CHL1   H1B 3594   0.807   5.168   5.361  1.4192 -0.2044 -0.5359
   33CHL1    C2 3595   0.824   5.313   5.504 -0.1735  0.1956 -0.4464
   33CHL1   H2A 3596   0.728   5.287   5.552  0.1387  0.8808  0.5974
   33CHL1   H2B 3597   0.862   5.416   5.521  1.3711 -0.1220 -1.6611
   33CHL1   C20 3598   0.890   5.148   4.578 -0.2051 -0.1135  0.2396
   33CHL1   H20 3599   0.914   5.254   4.555 -1.6565  0.9176  3.0537
   33CHL1   C21 3600   0.740   5.146   4.584  0.1083 -0.7982 -0.2243
   33CHL1  H21A 3601   0.695   5.172   4.486  0.2243  1.4391  0.2822
   33CHL1  H21B 3602   0.696   5.215   4.658 -2.3385 -1.8652 -0.5713
   33CHL1  H21C 3603   0.709   5.043   4.612 -0.3596 -0.6022 -0.0183
   33CHL1   C22 3604   0.943   5.065   4.462 -0.6366  0.8429  0.1722
   33CHL1  H22A 3605   1.054   5.072   4.462 -0.3036 -2.5236 -1.0321
   33CHL1  H22B 3606   0.921   4.959   4.490  2.6921 -0.3105 -0.9861
   33CHL1   C23 3607   0.888   5.081   4.318  0.2941 -0.2136  0.2122
   33CHL1  H23A 3608   0.778   5.077   4.327  0.3299  0.6880  1.1934
   33CHL1  H23B 3609   0.918   5.183   4.286 -0.9874 -0.0636 -0.5683
   33CHL1   C24 3610   0.932   4.972   4.220  0.1413  0.4697  0.9231
   33CHL1  H24A 3611   1.036   4.953   4.253  0.6901  1.0123 -0.4343
   33CHL1  H24B 3612   0.872   4.880   4.237  0.1253  0.3426  0.2200
   33CHL1   C25 3613   0.921   5.012   4.069  0.5180  0.1551 -0.2493
   33CHL1   H25 3614   1.001   5.084   4.040  0.8864 -0.0007  0.3545
   33CHL1   C26 3615   0.934   4.887   3.981 -0.0820 -0.0253 -0.4085
   33CHL1  H26A 3616   0.849   4.820   4.006  0.3200 -0.6668 -0.7349
   33CHL1  H26B 3617   0.924   4.913   3.874 -1.3511  2.4428  0.2303
   33CHL1  H26C 3618   1.027   4.830   4.004 -1.4103 -2.2547 -0.2654
   33CHL1   C27 3619   0.787   5.085   4.038 -0.1086  0.1194 -0.6302
   33CHL1  H27A 3620   0.799   5.110   3.930 -0.7655 -0.5633 -0.8711
   33CHL1  H27B 3621   0.699   5.020   4.061 -0.1177  0.9039  1.8689
   33CHL1  H27C 3622   0.782   5.185   4.086 -2.4029  0.2949 -1.0972
   34CHL1    C3 3623   2.645   0.856   5.586  0.7117 -0.5097  1.0073
   34CHL1    H3 3624   2.740   0.913   5.583  0.7293 -0.5580 -1.0125
   34CHL1    O3 3625   2.615   0.840   5.723 -0.2865 -0.7702 -1.0360
   34CHL1   H3' 3626   2.521   0.821   5.716 -0.6039  0.0975  0.3801
   34CHL1    C4 3627   2.533   0.942   5.518 -0.2378  0.5244  0.4619
   34CHL1   H4A 3628   2.435   0.895   5.541  0.4164 -0.0696  2.2403
   34CHL1   H4B 3629   2.526   1.039   5.571 -1.5851  0.1514  1.0091
   34CHL1    C5 3630   2.561   0.953   5.368 -0.4972  0.0745  0.2906
   34CHL1    C6 3631   2.568   1.071   5.306  0.3471  0.5626 -0.7715
   34CHL1    H6 3632   2.544   1.167   5.356  0.5417  1.2204 -1.9113
   34CHL1    C7 3633   2.599   1.088   5.167 -0.5084 -0.6391  0.5311
   34CHL1   H7A 3634   2.541   1.169   5.119  1.1496  1.1499  1.4200
   34CHL1   H7B 3635   2.707   1.114   5.161 -0.4762 -0.2920  2.2525
   34CHL1    C8 3636   2.574   0.959   5.085 -0.2466  0.2822 -0.2682
   34CHL1    H8 3637   2.465   0.940   5.077 -0.2387 -0.1383  0.5158
   34CHL1   C14 3638   2.626   0.963   4.939  0.0066 -0.5701  0.1938
   34CHL1   H14 3639   2.735   0.980   4.949  0.1475 -0.4577 -1.2536
   34CHL1   C15 3640   2.579   1.089   4.853  0.5943  0.1087  0.4038
   34CHL1  H15A 3641   2.471   1.078   4.874  0.3267  1.1286 -0.4044
   34CHL1  H15B 3642   2.614   1.188   4.889  0.0464 -0.0898  1.5282
   34CHL1   C16 3643   2.625   1.049   4.712 -0.6764  0.8351  0.3699
   34CHL1  H16A 3644   2.535   1.060   4.647 -1.5628  2.5288  1.8084
   34CHL1  H16B 3645   2.712   1.108   4.678  2.0793 -2.5925  0.8605
   34CHL1   C17 3646   2.677   0.896   4.723  0.0506 -0.3636 -0.1631
   34CHL1   H17 3647   2.786   0.906   4.738  0.0235 -0.1582 -0.0900
   34CHL1   C13 3648   2.610   0.838   4.855  1.1497 -0.3437  0.2136
   34CHL1   C18 3649   2.461   0.813   4.827  0.0559  0.2206  0.5131
   34CHL1  H18A 3650   2.424   0.890   4.756 -1.8280  0.4116  1.6333
   34CHL1  H18B 3651   2.439   0.717   4.776 -2.7168  0.3435  1.3457
   34CHL1  H18C 3652   2.406   0.810   4.923  0.2673 -3.6316  0.6608
   34CHL1   C12 3653   2.674   0.718   4.924 -0.5587  0.2519 -0.7545
   34CHL1  H12A 3654   2.664   0.622   4.869  0.6120 -0.3660  0.0697
   34CHL1  H12B 3655   2.783   0.737   4.934 -1.0551  3.0579  0.3201
   34CHL1   C11 3656   2.624   0.706   5.066 -0.1712 -0.1683  0.1668
   34CHL1  H11A 3657   2.524   0.658   5.064 -1.3948  2.2760 -1.4876
   34CHL1  H11B 3658   2.680   0.628   5.122 -0.9620 -2.3077 -1.8524
   34CHL1    C9 3659   2.638   0.833   5.153 -0.4754 -0.0337  0.1765
   34CHL1    H9 3660   2.747   0.853   5.154 -0.5297  0.2856  1.1862
   34CHL1   C10 3661   2.594   0.820   5.299  0.1778 -0.9186  0.4280
   34CHL1   C19 3662   2.463   0.739   5.294 -0.2529  0.2865  0.2684
   34CHL1  H19A 3663   2.412   0.738   5.393  1.6184  0.7825  1.2960
   34CHL1  H19B 3664   2.393   0.786   5.221 -0.2794  0.5678  0.4695
   34CHL1  H19C 3665   2.473   0.631   5.273 -2.6779 -0.0477  0.5615
   34CHL1    C1 3666   2.700   0.739   5.374 -0.0835 -0.0737 -0.1992
   34CHL1   H1A 3667   2.717   0.640   5.326  2.9391  0.4444 -0.4029
   34CHL1   H1B 3668   2.798   0.791   5.370 -0.1380  0.0938  0.5969
   34CHL1    C2 3669   2.663   0.722   5.520  0.3497  0.2206  0.2581
   34CHL1   H2A 3670   2.756   0.679   5.562 -0.8063 -1.1050  1.5720
   34CHL1   H2B 3671   2.573   0.657   5.532  1.6461 -1.3203  2.2198
   34CHL1   C20 3672   2.660   0.821   4.594 -0.6304  0.5807  0.4101
   34CHL1   H20 3673   2.553   0.793   4.579 -1.0359  0.9126  2.3299
   34CHL1   C21 3674   2.733   0.682   4.601  0.2831 -0.0411 -0.4462
   34CHL1  H21A 3675   2.667   0.626   4.670  0.9110  0.3928  0.5135
   34CHL1  H21B 3676   2.835   0.705   4.636  1.1995 -0.5221 -2.6082
   34CHL1  H21C 3677   2.723   0.628   4.504 -0.3859 -1.2413  0.2743
   34CHL1   C22 3678   2.701   0.912   4.481  0.3759 -0.3018 -0.2849
   34CHL1  H22A 3679   2.639   1.004   4.472  0.8524 -0.1289 -2.3982
   34CHL1  H22B 3680   2.807   0.944   4.491  0.8967 -1.2308 -2.3772
   34CHL1   C23 3681   2.701   0.857   4.331  0.0278  1.3747 -0.8117
   34CHL1  H23A 3682   2.762   0.930   4.273  0.0762  2.0052  0.0182
   34CHL1  H23B 3683   2.751   0.757   4.329  1.6553  2.0898  0.8162
   34CHL1   C24 3684   2.564   0.851   4.271 -0.2327 -0.0335  0.3948
   34CHL1  H24A 3685   2.500   0.784   4.333 -0.4566 -0.0730  0.1236
   34CHL1  H24B 3686   2.522   0.952   4.254 -0.6949 -0.3290 -0.2428
   34CHL1   C25 3687   2.558   0.800   4.123  0.7230 -0.5110 -0.4076
   34CHL1   H25 3688   2.621   0.709   4.111  1.3569 -0.5217  2.3570
   34CHL1   C26 3689   2.416   0.787   4.077  0.2242  0.4554  0.0572
   34CHL1  H26A 3690   2.402   0.783   3.967 -0.0903  1.0540  0.0722
   34CHL1  H26B 3691   2.364   0.700   4.122  0.2699 -0.3429 -1.3572
   34CHL1  H26C 3692   2.365   0.882   4.103  0.4328  0.1989  1.4781
   34CHL1   C27 3693   2.625   0.903   4.030 -0.5842 -0.1634  0.6210
   34CHL1  H27A 3694   2.592   1.008   4.039  2.0930  0.8085  0.1532
   34CHL1  H27B 3695   2.734   0.907   4.053 -0.5362 -3.0337  1.3147
   34CHL1  H27C 3696   2.616   0.889   3.920 -1.6895  0.3638  0.6331
   35CHL1    C3 3697   2.287   3.012   5.811  0.0729  0.6213 -0.1511
   35CHL1    H3 3698   2.201   3.081   5.802 -0.2641  0.6754  2.7816
   35CHL1    O3 3699   2.312   2.997   5.949  0.8048  0.4205  0.0481
   35CHL1   H3' 3700   2.407   2.988   5.954  0.7371 -0.4525 -0.0542
   35CHL1    C4 3701   2.247   2.876   5.752 -0.1286 -0.0719  0.1328
   35CHL1   H4A 3702   2.320   2.793   5.756  0.2582  0.2611  0.0048
   35CHL1   H4B 3703   2.163   2.832   5.811 -0.7356 -0.3645 -0.9281
   35CHL1    C5 3704   2.217   2.897   5.605 -0.1234  0.4386  0.1443
   35CHL1    C6 3705   2.090   2.868   5.555 -0.4184  0.8093 -0.0796
   35CHL1    H6 3706   2.008   2.841   5.623 -0.8158  0.7330 -0.5878
   35CHL1    C7 3707   2.063   2.873   5.404  0.3085 -0.1914  0.0274
   35CHL1   H7A 3708   2.012   2.782   5.365  1.8309 -1.5572  1.0828
   35CHL1   H7B 3709   2.017   2.971   5.381  1.3928  0.5397  0.8815
   35CHL1    C8 3710   2.189   2.886   5.322 -0.4840  0.1202 -0.2182
   35CHL1    H8 3711   2.247   2.792   5.320  0.7069  0.8314 -2.6944
   35CHL1   C14 3712   2.158   2.924   5.184 -0.6092  0.3395  0.4050
   35CHL1   H14 3713   2.119   3.028   5.181 -1.3146  0.0711  0.1577
   35CHL1   C15 3714   2.062   2.834   5.113  0.0123  0.0747  0.1567
   35CHL1  H15A 3715   2.071   2.731   5.153 -1.8241  0.5020  1.7989
   35CHL1  H15B 3716   1.956   2.858   5.136 -0.2015  0.8714 -1.5633
   35CHL1   C16 3717   2.092   2.848   4.967  0.2470  0.7269 -1.3029
   35CHL1  H16A 3718   2.135   2.753   4.927 -0.6134 -0.1081 -0.3085
   35CHL1  H16B 3719   2.003   2.879   4.909 -1.2779  2.6840  1.7879
   35CHL1   C17 3720   2.207   2.964   4.954  0.1374 -0.0358 -0.7949
   35CHL1   H17 3721   2.152   3.060   4.955 -1.0316 -0.6227 -2.7760
   35CHL1   C13 3722   2.282   2.941   5.089 -0.5224 -0.4841  0.1243
   35CHL1   C18 3723   2.368   2.810   5.099  0.1596  0.0151 -0.3873
   35CHL1  H18A 3724   2.438   2.825   5.014 -0.9555  1.3546 -1.1341
   35CHL1  H18B 3725   2.427   2.813   5.192 -1.6817  2.2881  0.8196
   35CHL1  H18C 3726   2.318   2.710   5.098 -0.5237  0.3425  0.3086
   35CHL1   C12 3727   2.351   3.059   5.136 -0.0748 -0.2821  0.7299
   35CHL1  H12A 3728   2.445   3.088   5.084 -1.0580  0.2903 -0.7719
   35CHL1  H12B 3729   2.286   3.148   5.130 -1.0276 -0.9848  0.4041
   35CHL1   C11 3730   2.391   3.047   5.285 -0.9140  0.7235  0.1863
   35CHL1  H11A 3731   2.469   2.969   5.284 -1.6184 -0.0165 -2.1731
   35CHL1  H11B 3732   2.435   3.140   5.327 -0.7236  0.3190  0.9136
   35CHL1    C9 3733   2.275   2.993   5.380 -0.1021  0.3815 -0.7490
   35CHL1    H9 3734   2.219   3.086   5.403  0.8967  0.6805  0.6226
   35CHL1   C10 3735   2.335   2.949   5.518 -0.8321  0.5731 -1.0328
   35CHL1   C19 3736   2.442   2.840   5.518  0.2408  0.2236  0.6142
   35CHL1  H19A 3737   2.478   2.818   5.620  2.3161  0.8703  0.0634
   35CHL1  H19B 3738   2.403   2.750   5.466  0.8060  0.9355 -1.1437
   35CHL1  H19C 3739   2.533   2.863   5.458 -0.3366  0.3352 -0.2401
   35CHL1    C1 3740   2.399   3.075   5.581  0.5979 -0.2810 -0.0511
   35CHL1   H1A 3741   2.487   3.102   5.519 -1.7826  0.6269 -3.2744
   35CHL1   H1B 3742   2.323   3.155   5.567  0.3353 -0.7403 -1.3657
   35CHL1    C2 3743   2.410   3.069   5.739  0.1726 -0.8754  0.2476
   35CHL1   H2A 3744   2.433   3.172   5.774 -0.3951 -0.3912 -0.7638
   35CHL1   H2B 3745   2.496   3.002   5.760  1.5848  0.8697  0.2584
   35CHL1   C20 3746   2.286   2.963   4.822 -0.1576 -0.0984 -0.2745
   35CHL1   H20 3747   2.363   2.882   4.820  0.0253  0.0712 -0.0856
   35CHL1   C21 3748   2.360   3.098   4.789 -0.4274 -0.3406 -0.4703
   35CHL1  H21A 3749   2.283   3.178   4.797  0.3357  0.4333 -0.7572
   35CHL1  H21B 3750   2.415   3.095   4.693  1.4499 -0.0277  0.5560
   35CHL1  H21C 3751   2.440   3.113   4.864 -1.1575  0.4632  0.1722
   35CHL1   C22 3752   2.193   2.922   4.695  0.1129  0.2991  0.6985
   35CHL1  H22A 3753   2.136   2.828   4.713 -0.6965  0.2787 -1.6571
   35CHL1  H22B 3754   2.119   3.004   4.685 -0.5541 -0.3514  0.1196
   35CHL1   C23 3755   2.275   2.897   4.565 -0.2853 -0.5216  0.5647
   35CHL1  H23A 3756   2.381   2.872   4.590  1.2922  3.1923 -1.5079
   35CHL1  H23B 3757   2.232   2.801   4.529  0.2993 -0.2170 -1.0499
   35CHL1   C24 3758   2.257   3.004   4.460  1.0011 -0.4235 -0.3333
   35CHL1  H24A 3759   2.159   3.000   4.409  1.3854  0.3569 -1.1713
   35CHL1  H24B 3760   2.291   3.101   4.503 -0.1970 -0.1518  0.0281
   35CHL1   C25 3761   2.361   2.985   4.348 -0.3051 -0.4390 -0.2819
   35CHL1   H25 3762   2.459   2.972   4.400 -0.8954 -0.0359  0.9612
   35CHL1   C26 3763   2.339   2.848   4.269  0.4775  0.2216 -0.2074
   35CHL1  H26A 3764   2.422   2.828   4.198  3.3828 -2.5357  3.4959
   35CHL1  H26B 3765   2.344   2.764   4.342  1.4085 -0.5709 -1.1553
   35CHL1  H26C 3766   2.245   2.848   4.211  0.8405 -0.4392 -0.8066
   35CHL1   C27 3767   2.349   3.100   4.250  0.1314 -0.1296 -0.1623
   35CHL1  H27A 3768   2.246   3.112   4.210  0.2631  2.1441  0.0480
   35CHL1  H27B 3769   2.388   3.194   4.292 -0.1750 -0.0191 -0.1216
   35CHL1  H27C 3770   2.402   3.082   4.154 -0.8463 -0.5134 -0.6435
   36CHL1    C3 3771   6.251   0.720   5.108 -0.4441 -0.1268 -0.0309
   36CHL1    H3 3772   6.144   0.705   5.081 -0.9811  1.9668  0.7363
   36CHL1    O3 3773   6.255   0.766   5.242  0.3907 -0.2146  0.3541
   36CHL1   H3' 3774   6.343   0.805   5.252 -0.3888  1.5486  0.7125
   36CHL1    C4 3775   6.350   0.609   5.090  0.4206  0.4925 -0.4384
   36CHL1   H4A 3776   6.444   0.661   5.119  0.7295  0.9162 -2.0684
   36CHL1   H4B 3777   6.327   0.526   5.159  0.5050  0.3665 -0.5605
   36CHL1    C5 3778   6.351   0.559   4.947 -0.0766  0.3773 -0.0012
   36CHL1    C6 3779   6.344   0.424   4.923 -0.4065 -0.3512 -0.1455
   36CHL1    H6 3780   6.327   0.355   5.007  1.0353  0.3598  0.7626
   36CHL1    C7 3781   6.357   0.365   4.782 -0.5433 -0.4681  0.2613
   36CHL1   H7A 3782   6.435   0.286   4.782  0.0137  0.0676  1.1060
   36CHL1   H7B 3783   6.261   0.318   4.750  0.3178 -1.5850 -0.7682
   36CHL1    C8 3784   6.395   0.462   4.668  0.7467 -0.3826  0.6233
   36CHL1    H8 3785   6.504   0.482   4.676  0.7051 -0.6628  2.1759
   36CHL1   C14 3786   6.363   0.404   4.532 -0.5680 -0.4660  0.3162
   36CHL1   H14 3787   6.258   0.368   4.538 -0.9054 -0.9294 -4.5613
   36CHL1   C15 3788   6.428   0.273   4.484 -0.6059  0.6259 -0.2436
   36CHL1  H15A 3789   6.538   0.274   4.499 -0.2028  0.5753 -2.6805
   36CHL1  H15B 3790   6.400   0.184   4.543 -0.2271  1.2424  0.8859
   36CHL1   C16 3791   6.393   0.269   4.333  0.1240 -1.1785 -1.3375
   36CHL1  H16A 3792   6.487   0.242   4.279  2.9423  2.1698  1.3775
   36CHL1  H16B 3793   6.315   0.191   4.321 -0.4019 -1.1128  1.0913
   36CHL1   C17 3794   6.345   0.411   4.292 -0.0386  0.4177  0.1787
   36CHL1   H17 3795   6.235   0.400   4.302 -0.0396  1.8604  2.6407
   36CHL1   C13 3796   6.384   0.503   4.415 -0.2310  0.1146  0.3644
   36CHL1   C18 3797   6.534   0.546   4.393  0.7797  0.7978 -0.4275
   36CHL1  H18A 3798   6.546   0.635   4.327  0.7379  1.7949  0.8789
   36CHL1  H18B 3799   6.587   0.569   4.487  0.8149  1.3622 -0.5817
   36CHL1  H18C 3800   6.593   0.459   4.357  1.0681  1.0072 -0.4598
   36CHL1   C12 3801   6.301   0.632   4.441 -0.0601  1.4397  0.1784
   36CHL1  H12A 3802   6.305   0.706   4.358  0.5296 -0.9020 -1.9937
   36CHL1  H12B 3803   6.196   0.596   4.442  0.3229  0.1073 -1.8277
   36CHL1   C11 3804   6.347   0.698   4.571 -0.2740  0.2158 -0.6993
   36CHL1  H11A 3805   6.448   0.745   4.568 -1.7581  3.7860 -0.1566
   36CHL1  H11B 3806   6.272   0.779   4.587 -2.6273 -2.0066  0.1757
   36CHL1    C9 3807   6.330   0.599   4.692  0.3505 -0.5543  0.0899
   36CHL1    H9 3808   6.221   0.579   4.689 -0.0588  1.5174 -1.0047
   36CHL1   C10 3809   6.369   0.661   4.832 -0.4497  0.1172  0.2498
   36CHL1   C19 3810   6.518   0.696   4.839 -0.4317 -0.1132 -0.3937
   36CHL1  H19A 3811   6.583   0.608   4.820  0.2534  0.7226 -2.2202
   36CHL1  H19B 3812   6.538   0.781   4.770  1.3954  0.9184  1.2983
   36CHL1  H19C 3813   6.555   0.733   4.937 -0.6613  1.5517 -0.9103
   36CHL1    C1 3814   6.276   0.784   4.870  0.0295  0.6725  0.2411
   36CHL1   H1A 3815   6.274   0.862   4.791 -0.6105 -0.8560 -1.3294
   36CHL1   H1B 3816   6.171   0.751   4.859  0.1230  0.9064 -1.8707
   36CHL1    C2 3817   6.287   0.834   5.010 -0.3936 -0.0145  0.0500
   36CHL1   H2A 3818   6.221   0.913   5.050  0.1674  0.6681 -0.3400
   36CHL1   H2B 3819   6.389   0.874   5.030 -1.5939  1.8172  3.0926
   36CHL1   C20 3820   6.394   0.440   4.150  0.7867 -0.1705  1.0095
   36CHL1   H20 3821   6.501   0.465   4.161  1.0596 -0.6222 -0.4275
   36CHL1   C21 3822   6.313   0.556   4.098 -0.2479 -0.5300 -0.6102
   36CHL1  H21A 3823   6.345   0.590   3.997 -0.9487  1.0408 -0.3433
   36CHL1  H21B 3824   6.342   0.650   4.151 -1.0526 -0.7963  0.3228
   36CHL1  H21C 3825   6.202   0.549   4.102 -0.3078  0.9493  1.8176
   36CHL1   C22 3826   6.381   0.325   4.043 -0.4504  0.8413 -0.0700
   36CHL1  H22A 3827   6.435   0.235   4.078 -0.7274  0.4908 -0.5340
   36CHL1  H22B 3828   6.272   0.315   4.024 -0.6804 -1.7173  2.0945
   36CHL1   C23 3829   6.457   0.359   3.908  0.0750  0.8500  0.0955
   36CHL1  H23A 3830   6.406   0.441   3.853 -0.4935 -0.6222 -1.6935
   36CHL1  H23B 3831   6.563   0.385   3.930 -0.5996  2.1595  2.0403
   36CHL1   C24 3832   6.452   0.243   3.807  0.1628  0.0308 -0.7081
   36CHL1  H24A 3833   6.496   0.155   3.859 -2.4548  0.3424  2.2841
   36CHL1  H24B 3834   6.348   0.214   3.783  0.0950 -0.0398 -0.3359
   36CHL1   C25 3835   6.511   0.261   3.676  0.5097 -0.1624  0.2947
   36CHL1   H25 3836   6.492   0.170   3.615  2.3662 -1.6999  1.8872
   36CHL1   C26 3837   6.452   0.369   3.582 -0.0805  0.0863  0.0633
   36CHL1  H26A 3838   6.487   0.344   3.479  1.3415 -3.1873  1.1990
   36CHL1  H26B 3839   6.341   0.378   3.582 -0.2069 -1.2172 -0.2676
   36CHL1  H26C 3840   6.491   0.468   3.612  1.1645 -0.1276 -0.7427
   36CHL1   C27 3841   6.667   0.267   3.691 -0.6729  0.0072 -0.1624
   36CHL1  H27A 3842   6.689   0.370   3.726  3.5675  0.2217 -2.8098
   36CHL1  H27B 3843   6.704   0.187   3.759 -0.7325  0.4528  0.4012
   36CHL1  H27C 3844   6.711   0.251   3.591  0.0397 -1.0230  0.2932
   37CHL1    C3 3845   1.437   3.475   5.374 -0.4704  0.2637  0.2296
   37CHL1    H3 3846   1.543   3.447   5.393 -0.7463 -0.8456  0.1757
   37CHL1    O3 3847   1.376   3.503   5.502 -0.1258  0.2156  0.6047
   37CHL1   H3' 3848   1.325   3.424   5.523  0.0506 -0.7329 -2.2180
   37CHL1    C4 3849   1.416   3.593   5.280  0.4011 -0.4290  0.8671
   37CHL1   H4A 3850   1.307   3.610   5.275  0.2312 -1.4087  1.0121
   37CHL1   H4B 3851   1.473   3.681   5.317 -1.4572  0.6707  1.1907
   37CHL1    C5 3852   1.463   3.563   5.138 -0.2384  0.1483 -0.0485
   37CHL1    C6 3853   1.558   3.628   5.068  0.2990 -0.3918  1.3302
   37CHL1    H6 3854   1.616   3.706   5.121  1.4445  1.4236 -2.2870
   37CHL1    C7 3855   1.595   3.607   4.923 -0.1968 -0.1587  0.0982
   37CHL1   H7A 3856   1.608   3.701   4.863  0.8059  1.7273  3.0581
   37CHL1   H7B 3857   1.696   3.561   4.918 -0.6981 -1.4579  1.4301
   37CHL1    C8 3858   1.492   3.519   4.848  0.3394  0.0001 -0.3340
   37CHL1    H8 3859   1.400   3.582   4.844  1.3560  1.4717 -1.6648
   37CHL1   C14 3860   1.547   3.487   4.713  0.3157  0.9246  0.1199
   37CHL1   H14 3861   1.626   3.410   4.729 -2.0608 -1.6966  0.1045
   37CHL1   C15 3862   1.612   3.592   4.619 -0.1638  0.0916 -0.0348
   37CHL1  H15A 3863   1.560   3.690   4.618 -2.5306 -1.0928 -1.2588
   37CHL1  H15B 3864   1.713   3.615   4.661 -0.3794  0.5433  0.2444
   37CHL1   C16 3865   1.601   3.535   4.471 -0.2623 -0.1651 -0.0257
   37CHL1  H16A 3866   1.543   3.612   4.417 -0.2579 -0.6227 -0.6852
   37CHL1  H16B 3867   1.703   3.514   4.432 -0.1276 -0.4504  0.4582
   37CHL1   C17 3868   1.529   3.401   4.492  0.0665 -0.6568  0.1085
   37CHL1   H17 3869   1.615   3.338   4.524  0.0963 -0.1408  1.1050
   37CHL1   C13 3870   1.450   3.411   4.624  0.1042  0.7322  0.0775
   37CHL1   C18 3871   1.320   3.490   4.597 -0.7382 -0.4799 -0.0305
   37CHL1  H18A 3872   1.338   3.578   4.532 -2.9023 -0.1527 -0.2595
   37CHL1  H18B 3873   1.257   3.432   4.526 -0.9579 -0.2688 -0.0081
   37CHL1  H18C 3874   1.263   3.527   4.685  1.4844  0.2691  1.1807
   37CHL1   C12 3875   1.427   3.280   4.696  0.2062  0.9561  0.4039
   37CHL1  H12A 3876   1.353   3.218   4.641 -0.2011  1.4955  0.3350
   37CHL1  H12B 3877   1.519   3.222   4.718  0.8950  1.8483 -0.0605
   37CHL1   C11 3878   1.374   3.299   4.845 -0.5706  0.6161 -0.1158
   37CHL1  H11A 3879   1.276   3.346   4.825 -1.6012 -1.5066 -0.3159
   37CHL1  H11B 3880   1.362   3.194   4.881 -0.6903  1.4221  2.3315
   37CHL1    C9 3881   1.449   3.400   4.934  0.0733  0.4114  0.0864
   37CHL1    H9 3882   1.542   3.341   4.947 -0.4220 -0.2958  0.5295
   37CHL1   C10 3883   1.388   3.443   5.070  0.0707 -0.0095 -0.6519
   37CHL1   C19 3884   1.237   3.473   5.058  0.4996  0.2342 -0.0916
   37CHL1  H19A 3885   1.180   3.491   5.152  1.7819  0.1940  0.7216
   37CHL1  H19B 3886   1.230   3.569   5.003 -1.5380  0.3823  0.3693
   37CHL1  H19C 3887   1.177   3.397   5.005 -0.3485 -1.0819  2.5490
   37CHL1    C1 3888   1.419   3.323   5.170  0.1630  0.1711 -0.2682
   37CHL1   H1A 3889   1.361   3.233   5.138 -1.8977  1.7295 -1.1821
   37CHL1   H1B 3890   1.528   3.300   5.167  0.2097  0.3062 -3.7725
   37CHL1    C2 3891   1.370   3.346   5.317 -0.0370  0.1331 -0.1282
   37CHL1   H2A 3892   1.390   3.262   5.387 -0.3073  0.9194  0.9207
   37CHL1   H2B 3893   1.259   3.344   5.309  0.0917 -0.7186 -2.7473
   37CHL1   C20 3894   1.472   3.343   4.359 -0.2970  0.2651  0.2814
   37CHL1   H20 3895   1.414   3.251   4.381  0.9166 -1.1026 -1.9206
   37CHL1   C21 3896   1.592   3.292   4.272  0.3252 -0.0370 -0.0981
   37CHL1  H21A 3897   1.668   3.233   4.327  1.5171  0.0520 -1.5926
   37CHL1  H21B 3898   1.635   3.380   4.219 -1.0076  1.8469  1.7668
   37CHL1  H21C 3899   1.556   3.224   4.192 -0.2942  0.3517 -0.1572
   37CHL1   C22 3900   1.390   3.436   4.268  0.4743 -0.1095  0.5560
   37CHL1  H22A 3901   1.321   3.493   4.334  1.8506  0.5066  1.4997
   37CHL1  H22B 3902   1.442   3.521   4.217  2.1473  0.0123  2.3633
   37CHL1   C23 3903   1.292   3.361   4.174 -0.4030 -1.0615 -0.0716
   37CHL1  H23A 3904   1.343   3.265   4.150 -0.4762 -1.5559  1.6586
   37CHL1  H23B 3905   1.194   3.344   4.222 -0.8524  0.5392 -0.3474
   37CHL1   C24 3906   1.269   3.441   4.041 -0.3348 -0.1145 -0.2532
   37CHL1  H24A 3907   1.203   3.524   4.071 -1.6767 -1.1732 -0.1859
   37CHL1  H24B 3908   1.366   3.470   3.995 -0.4284 -1.0243 -1.0795
   37CHL1   C25 3909   1.199   3.366   3.926 -0.5501 -0.0645 -0.5370
   37CHL1   H25 3910   1.269   3.281   3.909 -2.1421 -1.2990 -1.2353
   37CHL1   C26 3911   1.059   3.322   3.974  0.1839  0.1874 -0.1028
   37CHL1  H26A 3912   0.982   3.400   3.990 -0.5585 -0.7582  1.1082
   37CHL1  H26B 3913   1.023   3.244   3.903  0.0540 -0.3574  0.5487
   37CHL1  H26C 3914   1.072   3.268   4.070 -1.2416  0.5298  0.2975
   37CHL1   C27 3915   1.180   3.450   3.800 -0.6508 -0.5491  0.0177
   37CHL1  H27A 3916   1.276   3.505   3.785 -0.3446 -0.4421  2.1024
   37CHL1  H27B 3917   1.152   3.387   3.713 -1.8853 -0.9625  0.7002
   37CHL1  H27C 3918   1.099   3.524   3.813 -0.2426 -0.0484 -0.2302
   38CHL1    C3 3919   1.873   1.765   5.847  0.6533 -0.5708 -0.1369
   38CHL1    H3 3920   1.784   1.709   5.812 -0.4394 -0.0193  1.6600
   38CHL1    O3 3921   1.891   1.746   5.985 -0.1977  0.2165 -0.1343
   38CHL1   H3' 3922   1.958   1.813   6.004  0.8235 -0.6557 -0.5212
   38CHL1    C4 3923   2.002   1.718   5.778 -0.2446  0.1390  0.5789
   38CHL1   H4A 3924   2.088   1.759   5.835  1.1124  0.2969 -1.4498
   38CHL1   H4B 3925   1.997   1.607   5.778 -1.8607  0.1767 -0.9287
   38CHL1    C5 3926   2.011   1.761   5.634  0.2186  0.3333 -0.5121
   38CHL1    C6 3927   2.045   1.676   5.536 -0.2591  0.6625  0.1731
   38CHL1    H6 3928   2.061   1.570   5.560 -0.9206  0.4886 -0.1201
   38CHL1    C7 3929   2.053   1.707   5.390 -0.9752 -0.1279  0.6881
   38CHL1   H7A 3930   2.150   1.668   5.354 -1.3000  0.0760 -0.4437
   38CHL1   H7B 3931   1.973   1.649   5.339  0.7791 -0.9415 -1.2948
   38CHL1    C8 3932   2.045   1.856   5.349  0.2283 -0.1601  0.6677
   38CHL1    H8 3933   2.149   1.893   5.348 -0.4879  2.0804 -1.5751
   38CHL1   C14 3934   1.983   1.867   5.206 -0.1243  0.3214 -0.1672
   38CHL1   H14 3935   1.876   1.837   5.218 -0.3101 -0.1487 -2.4795
   38CHL1   C15 3936   2.037   1.784   5.086 -0.1752  0.0610 -0.6153
   38CHL1  H15A 3937   2.147   1.795   5.090  0.0553 -0.8544 -2.7777
   38CHL1  H15B 3938   2.015   1.675   5.091  0.9621 -0.1271  2.7761
   38CHL1   C16 3939   1.980   1.862   4.969 -0.0555 -0.5284  0.1179
   38CHL1  H16A 3940   2.066   1.864   4.898  0.4218 -1.4457  0.6541
   38CHL1  H16B 3941   1.900   1.801   4.924 -0.7163  2.1549 -2.7164
   38CHL1   C17 3942   1.919   1.992   5.028 -0.5536 -0.5597 -0.2531
   38CHL1   H17 3943   1.814   1.963   5.047 -1.2088  0.9487 -1.4292
   38CHL1   C13 3944   1.976   2.015   5.170 -0.1423  0.5586  0.0803
   38CHL1   C18 3945   2.114   2.078   5.167  0.3108  0.1037  0.1430
   38CHL1  H18A 3946   2.103   2.186   5.140 -1.8019 -0.2586 -0.6326
   38CHL1  H18B 3947   2.171   2.069   5.262  1.9582  0.9979 -0.7028
   38CHL1  H18C 3948   2.172   2.029   5.086  0.1271 -1.2317  0.7977
   38CHL1   C12 3949   1.882   2.085   5.265 -0.1660  0.0067 -0.1699
   38CHL1  H12A 3950   1.874   2.193   5.239  0.3513  0.4091  1.2741
   38CHL1  H12B 3951   1.778   2.047   5.260 -1.0567  2.4027 -2.0838
   38CHL1   C11 3952   1.929   2.072   5.414 -0.4676 -0.3065 -0.4176
   38CHL1  H11A 3953   2.025   2.127   5.421 -1.1754  1.1536 -1.7074
   38CHL1  H11B 3954   1.854   2.116   5.483 -0.9500 -2.8154  0.7907
   38CHL1    C9 3955   1.949   1.927   5.450 -0.4884  0.4740  0.6212
   38CHL1    H9 3956   1.847   1.884   5.443 -0.7754  1.3030 -0.6134
   38CHL1   C10 3957   1.982   1.907   5.602  0.2174  0.3500  0.3779
   38CHL1   C19 3958   2.105   1.988   5.647 -0.7206 -0.0326 -0.2785
   38CHL1  H19A 3959   2.144   1.967   5.749 -0.4114 -0.7635 -0.5425
   38CHL1  H19B 3960   2.194   1.992   5.581  0.8144 -0.2707  1.7083
   38CHL1  H19C 3961   2.074   2.095   5.651  0.6051  0.4246 -1.5984
   38CHL1    C1 3962   1.854   1.955   5.686 -0.1875  0.1023 -0.1981
   38CHL1   H1A 3963   1.860   2.066   5.686  0.7673  0.0600  0.2023
   38CHL1   H1B 3964   1.759   1.913   5.646  0.2564  0.1270 -1.2955
   38CHL1    C2 3965   1.853   1.914   5.837 -0.8381 -0.0687 -0.1929
   38CHL1   H2A 3966   1.762   1.960   5.883 -0.0768  0.7905  0.4750
   38CHL1   H2B 3967   1.934   1.967   5.891 -0.5466 -0.6556 -0.0453
   38CHL1   C20 3968   1.908   2.108   4.934  0.5084  0.2006  0.5550
   38CHL1   H20 3969   1.887   2.195   4.999 -0.8024  0.3620 -0.0412
   38CHL1   C21 3970   1.773   2.088   4.850  0.3855 -0.0819  0.2901
   38CHL1  H21A 3971   1.680   2.094   4.910 -0.8468 -1.2735 -1.4216
   38CHL1  H21B 3972   1.777   1.996   4.788  0.0406 -0.1224  0.3294
   38CHL1  H21C 3973   1.765   2.180   4.787  0.0059  0.1589  0.6860
   38CHL1   C22 3974   2.026   2.143   4.842  0.3898 -0.2800  0.8502
   38CHL1  H22A 3975   2.127   2.132   4.886  2.3263  1.0665 -2.8408
   38CHL1  H22B 3976   2.018   2.071   4.758 -0.7219  1.5441 -0.7205
   38CHL1   C23 3977   2.028   2.286   4.780 -0.0886  0.8961  0.4767
   38CHL1  H23A 3978   1.944   2.305   4.709  0.1515  2.6826  0.6165
   38CHL1  H23B 3979   2.020   2.364   4.859 -0.2759 -0.5360  1.9204
   38CHL1   C24 3980   2.157   2.310   4.701  0.6316  0.2071  0.1023
   38CHL1  H24A 3981   2.250   2.293   4.759  0.6346  0.2840  0.1198
   38CHL1  H24B 3982   2.166   2.238   4.617  1.0325  0.3040  0.0622
   38CHL1   C25 3983   2.172   2.455   4.658 -0.4150 -0.3088 -0.3412
   38CHL1   H25 3984   2.156   2.524   4.743 -2.3112 -2.1056  0.8571
   38CHL1   C26 3985   2.314   2.476   4.587 -0.0946  0.9909  0.4132
   38CHL1  H26A 3986   2.330   2.402   4.505  0.2657  0.0624  1.2944
   38CHL1  H26B 3987   2.334   2.583   4.568  0.5537  0.6215 -1.1260
   38CHL1  H26C 3988   2.389   2.444   4.663  0.3041  0.5109 -0.1683
   38CHL1   C27 3989   2.065   2.466   4.551 -0.3850 -0.3859 -0.4111
   38CHL1  H27A 3990   2.059   2.567   4.506  0.0705  0.0045  0.3675
   38CHL1  H27B 3991   2.086   2.406   4.460  0.0532 -0.4302 -0.2882
   38CHL1  H27C 3992   1.962   2.451   4.590  0.0592 -1.4249  0.4196
   39CHL1    C3 3993   6.783   2.400   5.757 -0.3439 -0.6542  0.1137
   39CHL1    H3 3994   6.700   2.463   5.795 -1.5011 -2.5607  0.9526
   39CHL1    O3 3995   6.834   2.343   5.877 -0.7564 -0.4792 -0.3582
   39CHL1   H3' 3996   6.887   2.271   5.843  3.5835  2.9351 -1.8976
   39CHL1    C4 3997   6.714   2.285   5.682  0.0784 -0.0958  0.1948
   39CHL1   H4A 3998   6.783   2.198   5.672 -2.1572 -2.0651  0.8397
   39CHL1   H4B 3999   6.628   2.253   5.745 -0.7163 -0.0813 -0.8502
   39CHL1    C5 4000   6.668   2.321   5.544 -0.1389 -0.0863  0.2265
   39CHL1    C6 4001   6.536   2.303   5.512  0.0536  0.0045  0.4237
   39CHL1    H6 4002   6.474   2.244   5.581  0.8114 -2.4003 -0.8203
   39CHL1    C7 4003   6.465   2.342   5.380 -0.2428  0.0195 -0.0596
   39CHL1   H7A 4004   6.407   2.254   5.345  1.4578 -0.1710 -2.7198
   39CHL1   H7B 4005   6.393   2.424   5.400  0.4909  1.0314 -1.4310
   39CHL1    C8 4006   6.572   2.384   5.273 -0.1140 -0.1455 -0.4770
   39CHL1    H8 4007   6.608   2.293   5.220 -2.4806 -0.5734 -1.4421
   39CHL1   C14 4008   6.496   2.457   5.168 -0.6767 -0.1300 -0.2005
   39CHL1   H14 4009   6.450   2.542   5.222  0.2319  0.1891  0.0798
   39CHL1   C15 4010   6.380   2.385   5.090  0.0131 -0.1260  0.0071
   39CHL1  H15A 4011   6.417   2.282   5.068  0.2532 -0.1122  0.3388
   39CHL1  H15B 4012   6.292   2.376   5.156  1.3215  0.6972  1.9601
   39CHL1   C16 4013   6.349   2.468   4.969  0.1996 -0.1709  0.3812
   39CHL1  H16A 4014   6.339   2.398   4.883  0.1698  0.8892 -0.4957
   39CHL1  H16B 4015   6.265   2.538   4.985 -0.2908 -0.6666 -0.0135
   39CHL1   C17 4016   6.476   2.564   4.965  0.3453 -0.4220  0.3681
   39CHL1   H17 4017   6.451   2.657   5.020  1.7374  1.4497 -2.0173
   39CHL1   C13 4018   6.583   2.509   5.060 -0.0091  0.3099 -0.3036
   39CHL1   C18 4019   6.666   2.392   4.983 -0.1173  0.0599  0.0620
   39CHL1  H18A 4020   6.718   2.436   4.894 -1.0003 -2.3473 -1.7561
   39CHL1  H18B 4021   6.737   2.352   5.058 -1.2815  1.2738  1.8964
   39CHL1  H18C 4022   6.601   2.308   4.950  0.1087 -0.3143  0.5654
   39CHL1   C12 4023   6.688   2.609   5.114 -0.1204 -0.1940  0.2881
   39CHL1  H12A 4024   6.757   2.646   5.036 -1.1193  1.3302  0.0707
   39CHL1  H12B 4025   6.628   2.698   5.145 -0.7522  0.6926 -3.0871
   39CHL1   C11 4026   6.770   2.537   5.229 -0.0940  0.1517 -0.4782
   39CHL1  H11A 4027   6.842   2.460   5.192 -0.9192 -1.8469  1.8006
   39CHL1  H11B 4028   6.834   2.614   5.275  0.4237 -0.2827 -0.4638
   39CHL1    C9 4029   6.683   2.472   5.338 -0.0431 -0.2714 -0.4762
   39CHL1    H9 4030   6.626   2.555   5.385 -0.5565 -0.7549 -0.2394
   39CHL1   C10 4031   6.763   2.413   5.458 -0.6009  0.6847 -0.0031
   39CHL1   C19 4032   6.877   2.316   5.412 -0.6496  0.1076 -0.0139
   39CHL1  H19A 4033   6.962   2.361   5.358 -0.4595 -0.9490 -0.6246
   39CHL1  H19B 4034   6.911   2.248   5.493  0.1883 -0.2479 -0.6515
   39CHL1  H19C 4035   6.827   2.250   5.337 -0.6798 -1.0013  0.9424
   39CHL1    C1 4036   6.845   2.521   5.547  0.9535  0.3103  0.5635
   39CHL1   H1A 4037   6.922   2.565   5.480 -0.5362  0.9533 -0.7565
   39CHL1   H1B 4038   6.769   2.599   5.570  0.5147 -0.4377  1.7600
   39CHL1    C2 4039   6.891   2.476   5.685 -0.3615 -0.7915  0.7207
   39CHL1   H2A 4040   6.926   2.563   5.744  0.7761 -2.0849  2.0545
   39CHL1   H2B 4041   6.977   2.406   5.674 -0.4165 -0.7443 -0.0502
   39CHL1   C20 4042   6.523   2.606   4.829  0.3077  0.0698  0.3336
   39CHL1   H20 4043   6.631   2.588   4.806  0.7595  0.8004  1.7523
   39CHL1   C21 4044   6.493   2.759   4.815  0.0547  0.2665 -0.2908
   39CHL1  H21A 4045   6.386   2.778   4.837  0.4021  1.8144  0.2148
   39CHL1  H21B 4046   6.537   2.806   4.725  1.9556 -0.5933  0.1400
   39CHL1  H21C 4047   6.551   2.809   4.896 -0.2862  0.3111 -0.0709
   39CHL1   C22 4048   6.456   2.539   4.710 -0.7028  0.0460  0.1982
   39CHL1  H22A 4049   6.471   2.431   4.731  1.7118  0.6754  2.2844
   39CHL1  H22B 4050   6.350   2.570   4.706 -0.4076  1.3864  1.6370
   39CHL1   C23 4051   6.521   2.571   4.575 -0.0714  0.1459 -0.6246
   39CHL1  H23A 4052   6.522   2.682   4.563  0.6528  0.0270 -1.9409
   39CHL1  H23B 4053   6.626   2.533   4.578 -0.0688  0.0734 -1.2969
   39CHL1   C24 4054   6.463   2.495   4.457 -0.1115  0.2419 -0.3765
   39CHL1  H24A 4055   6.478   2.387   4.481 -0.1204  0.5125  0.9603
   39CHL1  H24B 4056   6.352   2.505   4.451 -0.2566 -1.2454 -0.6009
   39CHL1   C25 4057   6.515   2.520   4.316 -1.0594 -0.2731  0.1245
   39CHL1   H25 4058   6.530   2.628   4.292  0.4064 -0.7233 -1.0838
   39CHL1   C26 4059   6.655   2.454   4.304 -0.2139  0.4148  0.5657
   39CHL1  H26A 4060   6.628   2.347   4.292  0.0289  0.2045  1.7163
   39CHL1  H26B 4061   6.712   2.503   4.223  1.2863 -0.1413  1.2566
   39CHL1  H26C 4062   6.718   2.453   4.395  0.2274  0.6774  0.2639
   39CHL1   C27 4063   6.436   2.469   4.199  0.3143 -0.6783 -0.6971
   39CHL1  H27A 4064   6.329   2.502   4.201 -0.3489 -2.7088 -0.2542
   39CHL1  H27B 4065   6.480   2.505   4.103  0.8371  2.0826  0.4734
   39CHL1  H27C 4066   6.442   2.358   4.195  0.8002 -0.7771  1.4243
   40CHL1    C3 4067   3.704   5.785   5.382 -0.4690  0.9086 -0.4065
   40CHL1    H3 4068   3.599   5.754   5.361 -0.4228 -0.9246  1.7631
   40CHL1    O3 4069   3.698   5.828   5.513  0.2638  0.2586  0.8304
   40CHL1   H3' 4070   3.789   5.838   5.542  0.1313 -1.1984  1.8495
   40CHL1    C4 4071   3.803   5.667   5.362  0.1078 -0.2289 -0.8585
   40CHL1   H4A 4072   3.906   5.705   5.382  0.1578 -0.5417 -0.5143
   40CHL1   H4B 4073   3.781   5.601   5.448  2.3806  1.1543  0.9140
   40CHL1    C5 4074   3.805   5.608   5.225 -0.2019  0.5432 -0.2281
   40CHL1    C6 4075   3.776   5.478   5.206  0.0093  0.2786 -0.0765
   40CHL1    H6 4076   3.774   5.410   5.293  0.3045 -3.5689 -2.8379
   40CHL1    C7 4077   3.783   5.419   5.071  0.1072 -0.3502  0.0140
   40CHL1   H7A 4078   3.847   5.329   5.060 -1.1026 -1.2957  0.3798
   40CHL1   H7B 4079   3.679   5.385   5.050 -1.3110  3.5621  0.0034
   40CHL1    C8 4080   3.823   5.506   4.953  0.2527 -1.1981  0.6149
   40CHL1    H8 4081   3.934   5.507   4.949  0.2200 -0.0567 -0.7761
   40CHL1   C14 4082   3.764   5.450   4.817  0.5980 -0.5818  0.6734
   40CHL1   H14 4083   3.654   5.459   4.831  0.9429  1.1353  2.7904
   40CHL1   C15 4084   3.811   5.310   4.785  0.0392 -0.5734  0.3685
   40CHL1  H15A 4085   3.918   5.298   4.812  0.1370 -2.4792 -0.6630
   40CHL1  H15B 4086   3.753   5.230   4.835  1.1946 -1.6605  0.0375
   40CHL1   C16 4087   3.791   5.305   4.632  0.3767  0.2591 -0.5038
   40CHL1  H16A 4088   3.874   5.255   4.577  1.2295 -0.7037  1.5640
   40CHL1  H16B 4089   3.709   5.235   4.608  2.1713 -1.9362 -0.5300
   40CHL1   C17 4090   3.755   5.448   4.583  1.0540  0.5804 -0.2423
   40CHL1   H17 4091   3.644   5.459   4.585  1.0336  0.4831 -0.7933
   40CHL1   C13 4092   3.807   5.541   4.698  0.6884  0.0090 -1.1061
   40CHL1   C18 4093   3.956   5.540   4.691 -0.1609 -0.3869  0.8548
   40CHL1  H18A 4094   4.019   5.589   4.768 -1.0049  0.4024  1.0493
   40CHL1  H18B 4095   3.997   5.436   4.697 -0.0136 -0.2810  1.7450
   40CHL1  H18C 4096   3.985   5.586   4.594 -0.8141 -0.1589  0.7660
   40CHL1   C12 4097   3.740   5.680   4.719 -0.3591  0.1276  0.7886
   40CHL1  H12A 4098   3.770   5.745   4.634 -1.4763 -1.4535 -0.9088
   40CHL1  H12B 4099   3.632   5.654   4.721  0.1717 -2.4437 -0.1695
   40CHL1   C11 4100   3.777   5.742   4.852  0.1337 -0.1160  0.1888
   40CHL1  H11A 4101   3.872   5.799   4.844 -0.5392  0.9469 -0.5265
   40CHL1  H11B 4102   3.698   5.816   4.877  0.6053  0.1042  1.0749
   40CHL1    C9 4103   3.765   5.644   4.976 -0.1246  0.0002 -0.2038
   40CHL1    H9 4104   3.657   5.624   4.987 -0.2708  0.9599  0.1464
   40CHL1   C10 4105   3.804   5.712   5.105  0.1456  0.8591 -0.7520
   40CHL1   C19 4106   3.940   5.765   5.095 -0.3387  0.6293 -0.4515
   40CHL1  H19A 4107   3.974   5.818   5.186 -1.1666  0.7475 -0.1963
   40CHL1  H19B 4108   4.011   5.684   5.067 -2.1398 -1.6166  1.0379
   40CHL1  H19C 4109   3.949   5.857   5.034 -2.0834  2.8596  2.4009
   40CHL1    C1 4110   3.705   5.831   5.135 -0.2553  0.2763 -0.1659
   40CHL1   H1A 4111   3.728   5.909   5.059  0.5001 -0.1485 -0.3870
   40CHL1   H1B 4112   3.601   5.793   5.138 -0.2385  0.2732  1.7065
   40CHL1    C2 4113   3.725   5.890   5.283 -1.0118 -0.6782 -0.8007
   40CHL1   H2A 4114   3.649   5.965   5.313 -0.0087 -1.1785  3.6821
   40CHL1   H2B 4115   3.824   5.937   5.298  0.1665 -3.3636  0.4407
   40CHL1   C20 4116   3.792   5.467   4.440  0.2895  0.5538 -0.4667
   40CHL1   H20 4117   3.898   5.442   4.422  0.3496  1.3508 -1.3040
   40CHL1   C21 4118   3.748   5.609   4.396 -0.5475  0.3354  0.5159
   40CHL1  H21A 4119   3.751   5.619   4.285  4.4047 -0.2394  0.3713
   40CHL1  H21B 4120   3.808   5.693   4.438 -1.5813  0.2184  2.3211
   40CHL1  H21C 4121   3.641   5.622   4.424 -1.8481 -2.0880 -2.6769
   40CHL1   C22 4122   3.719   5.358   4.352  0.4697 -0.0630 -0.2861
   40CHL1  H22A 4123   3.719   5.253   4.387 -3.2142 -0.6303 -1.5093
   40CHL1  H22B 4124   3.613   5.392   4.358  0.7424  0.9258 -0.7736
   40CHL1   C23 4125   3.764   5.360   4.208 -0.3745 -0.5611 -1.6077
   40CHL1  H23A 4126   3.728   5.447   4.148 -0.2535  0.2933 -0.4779
   40CHL1  H23B 4127   3.875   5.369   4.203 -0.3385  0.6464  0.3865
   40CHL1   C24 4128   3.725   5.226   4.141 -0.1424  0.3888 -0.2805
   40CHL1  H24A 4129   3.776   5.145   4.198  1.2630  0.0762 -1.9156
   40CHL1  H24B 4130   3.615   5.223   4.161 -0.2311  4.2975  0.6355
   40CHL1   C25 4131   3.727   5.208   3.985  0.3507 -0.6955  0.1116
   40CHL1   H25 4132   3.834   5.206   3.954  0.0704 -1.7799 -0.8465
   40CHL1   C26 4133   3.677   5.063   3.944 -0.1201  0.1839 -0.2387
   40CHL1  H26A 4134   3.566   5.058   3.933 -0.0692 -2.6009 -0.2902
   40CHL1  H26B 4135   3.717   5.040   3.843  1.5786  1.5104  0.0974
   40CHL1  H26C 4136   3.713   4.991   4.020 -2.5258 -0.8379  0.0412
   40CHL1   C27 4137   3.638   5.315   3.918  0.2251 -0.2487 -0.0415
   40CHL1  H27A 4138   3.621   5.287   3.812  1.2045 -0.2959 -0.1957
   40CHL1  H27B 4139   3.539   5.334   3.964  0.0451 -3.0857  0.9291
   40CHL1  H27C 4140   3.690   5.412   3.901 -0.3415  0.0245 -0.2210
   41CHL1    C3 4141   6.423   5.568   5.829 -0.2632 -0.6587  0.2556
   41CHL1    H3 4142   6.314   5.544   5.836 -0.1846 -1.0513  0.1684
   41CHL1    O3 4143   6.480   5.538   5.951 -0.0928 -0.1458  0.6088
   41CHL1   H3' 4144   6.479   5.442   5.961  1.2824 -0.3376 -0.6562
   41CHL1    C4 4145   6.489   5.471   5.725 -0.1240  0.8523  0.3956
   41CHL1   H4A 4146   6.598   5.496   5.733  0.1711 -0.6745  1.7113
   41CHL1   H4B 4147   6.480   5.366   5.761  0.5845  0.2954 -0.9920
   41CHL1    C5 4148   6.436   5.500   5.595  0.3444 -0.3685  0.4710
   41CHL1    C6 4149   6.367   5.403   5.528 -0.3056 -0.3830  0.0634
   41CHL1    H6 4150   6.366   5.307   5.581  2.4298 -0.6246 -0.1682
   41CHL1    C7 4151   6.320   5.417   5.388  0.5286 -0.1283  0.2086
   41CHL1   H7A 4152   6.344   5.322   5.335  0.8564 -0.1604  0.4069
   41CHL1   H7B 4153   6.211   5.434   5.389  0.9518  3.9660 -1.2436
   41CHL1    C8 4154   6.381   5.541   5.314  0.2383 -0.6027 -1.1642
   41CHL1    H8 4155   6.485   5.514   5.285  0.2847 -0.9140 -0.7059
   41CHL1   C14 4156   6.311   5.567   5.182  0.3842  0.9611  0.2584
   41CHL1   H14 4157   6.206   5.594   5.206 -0.0550 -2.0585  2.3270
   41CHL1   C15 4158   6.295   5.453   5.079  0.6076 -0.1429 -0.5286
   41CHL1  H15A 4159   6.395   5.403   5.083 -0.5492 -2.6165 -0.8045
   41CHL1  H15B 4160   6.216   5.380   5.107 -0.0816  0.1111 -1.7244
   41CHL1   C16 4161   6.277   5.513   4.944 -0.1539 -0.5680 -0.3633
   41CHL1  H16A 4162   6.362   5.480   4.880 -0.0792  0.6175 -0.9223
   41CHL1  H16B 4163   6.182   5.504   4.886  1.1577 -0.8350 -2.6008
   41CHL1   C17 4164   6.298   5.671   4.969  0.4761  0.5539  0.2375
   41CHL1   H17 4165   6.200   5.718   4.995 -0.7563 -1.0716 -1.2394
   41CHL1   C13 4166   6.374   5.678   5.101 -0.0248  0.3736  0.1513
   41CHL1   C18 4167   6.519   5.646   5.082 -0.4139 -0.1320 -0.4306
   41CHL1  H18A 4168   6.572   5.690   5.169 -1.0420 -1.6009  0.7367
   41CHL1  H18B 4169   6.542   5.537   5.081 -0.8976 -0.2305 -0.7852
   41CHL1  H18C 4170   6.582   5.692   5.003  0.7444 -0.0675  0.4993
   41CHL1   C12 4171   6.352   5.807   5.183 -0.1091  0.4304 -0.2896
   41CHL1  H12A 4172   6.407   5.895   5.143  0.0065  0.4544 -0.0779
   41CHL1  H12B 4173   6.242   5.828   5.184 -0.6970 -2.2222 -1.6279
   41CHL1   C11 4174   6.398   5.800   5.331  0.5023 -0.0342  0.1521
   41CHL1  H11A 4175   6.507   5.825   5.330  0.8988 -1.4096 -2.9091
   41CHL1  H11B 4176   6.347   5.881   5.387  1.5356 -0.5041  1.8525
   41CHL1    C9 4177   6.376   5.665   5.398 -0.3221 -0.6577  0.1102
   41CHL1    H9 4178   6.268   5.677   5.421  0.0730  2.1272  0.7999
   41CHL1   C10 4179   6.454   5.640   5.537 -0.0975 -0.4208  0.5264
   41CHL1   C19 4180   6.607   5.658   5.503 -0.4720  0.5890  0.5772
   41CHL1  H19A 4181   6.646   5.585   5.428  1.3099  0.3963  1.6370
   41CHL1  H19B 4182   6.628   5.764   5.479 -1.3138  0.4500 -0.9060
   41CHL1  H19C 4183   6.675   5.649   5.590 -0.1544  2.8895  0.6188
   41CHL1    C1 4184   6.405   5.740   5.644 -0.3504 -0.7880 -0.1541
   41CHL1   H1A 4185   6.433   5.842   5.610 -3.5306  0.5651  0.8887
   41CHL1   H1B 4186   6.294   5.741   5.642 -0.3590 -0.1195  0.2970
   41CHL1    C2 4187   6.448   5.714   5.792 -0.0822 -0.0754 -0.5385
   41CHL1   H2A 4188   6.390   5.793   5.845  1.3290  2.2401 -2.2176
   41CHL1   H2B 4189   6.558   5.722   5.788 -0.1203  0.3616 -0.7182
   41CHL1   C20 4190   6.355   5.739   4.839  0.1615 -0.0406 -0.1158
   41CHL1   H20 4191   6.457   5.708   4.807 -0.0705  2.3283 -3.7848
   41CHL1   C21 4192   6.356   5.887   4.864  0.1691 -0.6153 -0.8715
   41CHL1  H21A 4193   6.414   5.917   4.954  0.5079  0.1420 -1.3307
   41CHL1  H21B 4194   6.252   5.925   4.867  1.2070  2.5357 -1.4579
   41CHL1  H21C 4195   6.398   5.945   4.779  1.3898  0.4424  0.4143
   41CHL1   C22 4196   6.275   5.707   4.716 -0.2636 -0.4158  0.8915
   41CHL1  H22A 4197   6.266   5.599   4.691  0.3290 -0.3275  0.2729
   41CHL1  H22B 4198   6.172   5.741   4.737 -0.3274  0.3081 -0.5163
   41CHL1   C23 4199   6.338   5.763   4.592 -0.0295 -0.8312  0.0726
   41CHL1  H23A 4200   6.336   5.873   4.600  1.7177 -0.4705 -2.8562
   41CHL1  H23B 4201   6.443   5.735   4.571 -0.5003 -3.2802  0.6896
   41CHL1   C24 4202   6.260   5.734   4.464  0.0169  0.5836 -0.0907
   41CHL1  H24A 4203   6.251   5.624   4.450  2.4924  0.2877  0.1007
   41CHL1  H24B 4204   6.155   5.768   4.454 -0.4574 -1.2344 -2.1596
   41CHL1   C25 4205   6.329   5.796   4.339  0.8623 -0.2660  0.7375
   41CHL1   H25 4206   6.360   5.898   4.366 -0.6566 -0.3421  3.0991
   41CHL1   C26 4207   6.444   5.707   4.305 -0.4258 -0.2902 -0.5127
   41CHL1  H26A 4208   6.505   5.678   4.393 -0.9527  1.0364  0.3205
   41CHL1  H26B 4209   6.405   5.607   4.274 -2.4406 -0.2067  1.4085
   41CHL1  H26C 4210   6.514   5.749   4.231  1.8540 -2.9487 -0.0559
   41CHL1   C27 4211   6.216   5.809   4.232  0.0365 -0.3961 -0.5593
   41CHL1  H27A 4212   6.175   5.706   4.233  1.1192 -0.8590 -1.7285
   41CHL1  H27B 4213   6.134   5.881   4.254  0.7091 -0.4052  2.4186
   41CHL1  H27C 4214   6.266   5.829   4.135  1.2932 -1.3015 -0.1226
   42CHL1    C3 4215   5.482   4.075   5.720  0.1680 -0.8958  0.2512
   42CHL1    H3 4216   5.577   4.019   5.709 -0.1275 -1.2087 -0.8972
   42CHL1    O3 4217   5.451   4.084   5.854  0.0428  0.4184  0.1630
   42CHL1   H3' 4218   5.370   4.137   5.854 -0.1782  0.0864  0.3538
   42CHL1    C4 4219   5.511   4.221   5.662  0.1129  0.0724  0.1083
   42CHL1   H4A 4220   5.426   4.284   5.699 -1.8178 -1.4731 -1.4484
   42CHL1   H4B 4221   5.605   4.257   5.709  1.1826 -0.0403 -1.8466
   42CHL1    C5 4222   5.510   4.214   5.510  0.9200  0.3236  0.3924
   42CHL1    C6 4223   5.612   4.269   5.444  1.0100  0.1937 -0.3868
   42CHL1    H6 4224   5.697   4.302   5.506 -0.9220  2.6392  1.1641
   42CHL1    C7 4225   5.617   4.283   5.295  0.2688  0.5158  0.1232
   42CHL1   H7A 4226   5.661   4.379   5.264  0.5860 -0.3294 -2.2330
   42CHL1   H7B 4227   5.675   4.201   5.247  0.1908 -0.1255  1.1045
   42CHL1    C8 4228   5.477   4.278   5.244  0.4941  0.0145 -0.1522
   42CHL1    H8 4229   5.423   4.368   5.278  1.5339  0.6234 -0.0678
   42CHL1   C14 4230   5.481   4.280   5.088 -0.6383  0.2506 -0.8316
   42CHL1   H14 4231   5.541   4.190   5.062 -3.6143 -2.1872  0.1185
   42CHL1   C15 4232   5.553   4.398   5.025 -0.0022  0.5073 -0.1680
   42CHL1  H15A 4233   5.530   4.492   5.078  2.6728  1.5520 -0.6852
   42CHL1  H15B 4234   5.662   4.387   5.006 -0.6111 -1.1167 -3.5235
   42CHL1   C16 4235   5.490   4.400   4.888 -0.3385  0.2541 -0.6876
   42CHL1  H16A 4236   5.432   4.494   4.900  0.5283  0.8944 -1.3896
   42CHL1  H16B 4237   5.560   4.420   4.804  1.4538  0.1019  0.7287
   42CHL1   C17 4238   5.390   4.286   4.870 -0.4752 -0.0604 -0.1658
   42CHL1   H17 4239   5.451   4.200   4.834 -1.2671 -0.7261  0.0524
   42CHL1   C13 4240   5.351   4.260   5.017  0.6937  0.1815  0.3355
   42CHL1   C18 4241   5.243   4.375   5.059  0.2823  0.6605  0.0953
   42CHL1  H18A 4242   5.238   4.393   5.169 -0.5918 -0.6820  0.3035
   42CHL1  H18B 4243   5.258   4.468   5.000  0.7574  0.1136 -0.6572
   42CHL1  H18C 4244   5.137   4.347   5.040  0.5705 -0.5067  0.1364
   42CHL1   C12 4245   5.289   4.129   5.062  0.6976  0.0539 -0.5533
   42CHL1  H12A 4246   5.189   4.114   5.015  0.8529 -1.0503 -0.5698
   42CHL1  H12B 4247   5.356   4.045   5.032 -0.5278 -1.5145  0.8543
   42CHL1   C11 4248   5.271   4.127   5.216 -0.4743  0.3292  0.2380
   42CHL1  H11A 4249   5.185   4.192   5.243  1.0210  1.4869  2.5501
   42CHL1  H11B 4250   5.234   4.027   5.248 -0.2665  0.5323  1.1362
   42CHL1    C9 4251   5.398   4.151   5.294  0.4409 -0.8062 -0.7314
   42CHL1    H9 4252   5.464   4.070   5.258  0.7562 -0.3250 -1.2397
   42CHL1   C10 4253   5.386   4.153   5.445  0.0319 -0.0369  0.5447
   42CHL1   C19 4254   5.260   4.226   5.490  0.5910 -0.1454  0.6907
   42CHL1  H19A 4255   5.272   4.331   5.456 -2.9546  0.6246  1.3204
   42CHL1  H19B 4256   5.164   4.191   5.445  1.2357  0.6831 -1.4251
   42CHL1  H19C 4257   5.239   4.222   5.599 -2.4472 -1.5178  0.1739
   42CHL1    C1 4258   5.391   4.005   5.504 -0.2616 -0.2250  0.6375
   42CHL1   H1A 4259   5.307   3.954   5.453  1.0009  0.8776 -2.8666
   42CHL1   H1B 4260   5.485   3.958   5.467 -1.4858  0.3724 -3.8639
   42CHL1    C2 4261   5.368   3.996   5.652 -0.1505 -0.0806 -0.4110
   42CHL1   H2A 4262   5.367   3.889   5.683  1.0828 -0.1000 -0.3860
   42CHL1   H2B 4263   5.267   4.041   5.666  0.0191 -0.0476  0.8050
   42CHL1   C20 4264   5.278   4.325   4.770  0.4599  0.3714  0.2665
   42CHL1   H20 4265   5.220   4.407   4.817  1.6073 -0.3604  3.1923
   42CHL1   C21 4266   5.189   4.203   4.738  0.6564  0.3952  0.4700
   42CHL1  H21A 4267   5.264   4.131   4.698  0.2515 -0.3539  1.0309
   42CHL1  H21B 4268   5.112   4.233   4.664 -0.0017  0.1588  1.0555
   42CHL1  H21C 4269   5.147   4.162   4.832 -2.3217 -1.4922 -1.5380
   42CHL1   C22 4270   5.325   4.384   4.635  1.0410 -0.1048  0.2112
   42CHL1  H22A 4271   5.239   4.409   4.569  2.2322  0.7946 -1.0688
   42CHL1  H22B 4272   5.368   4.482   4.666  1.8859 -0.0456 -1.0816
   42CHL1   C23 4273   5.427   4.304   4.556 -0.0723  0.0435  0.4855
   42CHL1  H23A 4274   5.523   4.310   4.612  0.1510 -1.2344  0.2711
   42CHL1  H23B 4275   5.390   4.200   4.547 -3.1730  1.0249  0.7583
   42CHL1   C24 4276   5.464   4.380   4.432  0.0563 -0.0949  0.1975
   42CHL1  H24A 4277   5.369   4.397   4.377 -0.7887 -3.0312  0.5444
   42CHL1  H24B 4278   5.489   4.484   4.459 -2.2209  0.7530 -0.7281
   42CHL1   C25 4279   5.572   4.325   4.338  0.2740  0.1960  0.5149
   42CHL1   H25 4280   5.535   4.232   4.289  0.8757  0.9265 -1.4078
   42CHL1   C26 4281   5.596   4.430   4.232  0.8191 -0.2300  0.4520
   42CHL1  H26A 4282   5.620   4.529   4.275 -3.1849  1.3865 -0.5561
   42CHL1  H26B 4283   5.677   4.387   4.170 -0.1345 -0.8895 -0.3835
   42CHL1  H26C 4284   5.505   4.437   4.167  0.9030 -0.9560  0.2481
   42CHL1   C27 4285   5.703   4.281   4.409  1.0450  0.4253  1.0196
   42CHL1  H27A 4286   5.760   4.373   4.437  2.5640 -0.7330  1.8865
   42CHL1  H27B 4287   5.679   4.219   4.498 -0.7108 -1.6112 -0.7702
   42CHL1  H27C 4288   5.764   4.219   4.341  1.3679  0.7924  0.9710
   43CHL1    C3 4289   6.526   4.678   5.722 -0.0829  0.3042  0.2858
   43CHL1    H3 4290   6.632   4.692   5.691 -0.1861 -0.3051 -0.3681
   43CHL1    O3 4291   6.511   4.627   5.858  0.3047 -0.2765  0.1597
   43CHL1   H3' 4292   6.576   4.557   5.871  1.3933  0.9725  1.8759
   43CHL1    C4 4293   6.448   4.812   5.706 -0.2601  0.7357 -0.6535
   43CHL1   H4A 4294   6.346   4.815   5.749  0.0619  1.3874  0.0872
   43CHL1   H4B 4295   6.512   4.882   5.764 -2.0830  0.6445  1.5871
   43CHL1    C5 4296   6.438   4.845   5.555  0.1675 -0.3330  0.8337
   43CHL1    C6 4297   6.486   4.964   5.509  0.4316 -1.1707  0.1986
   43CHL1    H6 4298   6.545   5.038   5.565 -0.7695  0.8634 -1.0906
   43CHL1    C7 4299   6.463   5.011   5.363  0.3059 -0.2312  0.2359
   43CHL1   H7A 4300   6.434   5.119   5.364 -0.4716 -0.4305 -0.1010
   43CHL1   H7B 4301   6.564   5.000   5.319  0.5955  1.4579  0.3979
   43CHL1    C8 4302   6.359   4.931   5.274  0.4615 -0.8427  0.7860
   43CHL1    H8 4303   6.261   4.966   5.313 -0.3513 -4.2244  2.1219
   43CHL1   C14 4304   6.382   4.951   5.122  0.3497 -0.2266  0.0488
   43CHL1   H14 4305   6.483   4.914   5.097  1.0462  0.2342  1.9915
   43CHL1   C15 4306   6.364   5.095   5.064  0.2911 -0.4432  0.6407
   43CHL1  H15A 4307   6.278   5.147   5.110  0.9339  0.0085  1.3543
   43CHL1  H15B 4308   6.454   5.160   5.072  1.2739 -1.8607  1.5473
   43CHL1   C16 4309   6.350   5.078   4.913 -0.1924 -0.2426 -0.1726
   43CHL1  H16A 4310   6.268   5.140   4.870  0.0722 -2.1687 -3.8309
   43CHL1  H16B 4311   6.434   5.115   4.850 -1.3074 -0.3977 -1.8048
   43CHL1   C17 4312   6.317   4.930   4.900  0.0112  0.4034  0.3636
   43CHL1   H17 4313   6.416   4.888   4.869  0.5571  1.5070  0.5658
   43CHL1   C13 4314   6.282   4.879   5.035 -0.2140  0.3936 -0.2859
   43CHL1   C18 4315   6.139   4.924   5.077  0.2897  0.3124 -0.1745
   43CHL1  H18A 4316   6.113   4.909   5.184 -0.1066  0.6484 -0.2217
   43CHL1  H18B 4317   6.118   5.030   5.052  1.4338  0.8576  1.0341
   43CHL1  H18C 4318   6.056   4.864   5.034  0.4563  1.7445 -2.6937
   43CHL1   C12 4319   6.306   4.728   5.062  0.0193  0.0160 -0.0697
   43CHL1  H12A 4320   6.245   4.656   5.003  2.3035 -1.0296 -1.2838
   43CHL1  H12B 4321   6.412   4.707   5.035 -0.0549  0.0248 -0.3732
   43CHL1   C11 4322   6.290   4.693   5.208  0.8714  0.1699 -0.0541
   43CHL1  H11A 4323   6.184   4.699   5.241  0.9562  1.2116  0.0862
   43CHL1  H11B 4324   6.316   4.586   5.216  0.5324 -0.1527 -2.4865
   43CHL1    C9 4325   6.372   4.783   5.309  0.0155  0.2222 -0.1051
   43CHL1    H9 4326   6.477   4.755   5.288 -0.6405 -4.4910  1.6890
   43CHL1   C10 4327   6.367   4.749   5.461  0.9740 -0.0468  0.0580
   43CHL1   C19 4328   6.210   4.742   5.500  0.2078 -0.7434 -0.4790
   43CHL1  H19A 4329   6.151   4.662   5.450 -1.2713  0.2486 -0.3627
   43CHL1  H19B 4330   6.197   4.727   5.610 -0.2684 -0.2359 -0.4655
   43CHL1  H19C 4331   6.164   4.841   5.481 -0.0133 -0.6560  0.4551
   43CHL1    C1 4332   6.445   4.615   5.485  0.1372  0.8397 -0.6200
   43CHL1   H1A 4333   6.400   4.534   5.422 -1.2787 -0.6909  2.1732
   43CHL1   H1B 4334   6.544   4.640   5.442  0.3199  1.7444  0.2941
   43CHL1    C2 4335   6.460   4.575   5.638 -0.0201  0.0225 -0.7091
   43CHL1   H2A 4336   6.525   4.485   5.644  4.9028  3.2293  0.1465
   43CHL1   H2B 4337   6.360   4.543   5.675 -0.3166 -0.4506 -1.8554
   43CHL1   C20 4338   6.220   4.908   4.783 -0.0689  0.0990 -0.4172
   43CHL1   H20 4339   6.118   4.943   4.812 -0.4490 -2.2473  1.3649
   43CHL1   C21 4340   6.202   4.761   4.763 -0.0190 -0.1775  0.3084
   43CHL1  H21A 4341   6.139   4.740   4.674  2.0002  2.1399 -1.8352
   43CHL1  H21B 4342   6.134   4.724   4.842 -1.0788  1.5052  0.2406
   43CHL1  H21C 4343   6.305   4.721   4.753  0.5862  0.5916  2.8275
   43CHL1   C22 4344   6.269   4.981   4.652 -0.9144  0.2512 -0.5924
   43CHL1  H22A 4345   6.193   4.964   4.572 -0.0189  0.5015 -1.5139
   43CHL1  H22B 4346   6.273   5.090   4.674 -1.4198  0.1474  0.0577
   43CHL1   C23 4347   6.416   4.939   4.601  0.4472 -0.7170 -0.3504
   43CHL1  H23A 4348   6.493   4.976   4.673  0.7456 -1.0977 -0.4756
   43CHL1  H23B 4349   6.419   4.829   4.594 -1.7417 -0.8209 -0.1877
   43CHL1   C24 4350   6.461   5.017   4.472  0.0315 -0.2935 -0.2428
   43CHL1  H24A 4351   6.385   5.010   4.391  3.0499  0.5195 -3.3799
   43CHL1  H24B 4352   6.459   5.125   4.497  0.7143  0.6078 -3.6476
   43CHL1   C25 4353   6.607   4.979   4.429 -0.0079  0.3225 -0.5168
   43CHL1   H25 4354   6.669   4.972   4.520 -0.7762  0.4739  0.0340
   43CHL1   C26 4355   6.608   4.847   4.360 -0.1045  0.4581 -0.0432
   43CHL1  H26A 4356   6.559   4.764   4.417  2.7089 -1.0435  0.3802
   43CHL1  H26B 4357   6.559   4.854   4.261  0.0181 -0.6240 -0.1890
   43CHL1  H26C 4358   6.713   4.813   4.350 -1.0482 -2.5678 -0.7528
   43CHL1   C27 4359   6.666   5.090   4.335  0.0538 -0.4992  1.0644
   43CHL1  H27A 4360   6.680   5.177   4.403 -1.2130  0.2903  0.3383
   43CHL1  H27B 4361   6.769   5.063   4.302  0.1402  1.3720 -0.3616
   43CHL1  H27C 4362   6.603   5.110   4.246  3.0974  2.3606 -0.6786
   44CHL1    C3 4363   6.747   6.044   5.677  0.3368 -0.3498  1.2158
   44CHL1    H3 4364   6.711   5.939   5.682 -0.7451 -0.1631 -1.1864
   44CHL1    O3 4365   6.746   6.092   5.809 -0.0225  0.0048  0.5891
   44CHL1   H3' 4366   6.733   6.187   5.802  1.0724  0.0589 -1.9985
   44CHL1    C4 4367   6.886   6.053   5.613  0.3941  0.3035 -0.4810
   44CHL1   H4A 4368   6.916   6.160   5.621  0.4859  0.2450 -0.0148
   44CHL1   H4B 4369   6.957   5.999   5.680 -0.1757  0.3961  0.2195
   44CHL1    C5 4370   6.881   6.012   5.469 -0.3781 -0.4838 -0.0570
   44CHL1    C6 4371   6.963   5.916   5.423  0.8542  0.2234  0.3774
   44CHL1    H6 4372   7.021   5.876   5.508 -1.4212 -3.9083  0.2434
   44CHL1    C7 4373   6.971   5.852   5.289  0.6261 -0.2450 -0.2105
   44CHL1   H7A 4374   7.074   5.843   5.249  0.5543  1.7187 -0.9692
   44CHL1   H7B 4375   6.928   5.750   5.286  0.4350 -0.2293  1.0985
   44CHL1    C8 4376   6.889   5.942   5.192  0.2592  0.0061 -0.5423
   44CHL1    H8 4377   6.965   6.021   5.170 -0.2345  1.7170  3.0650
   44CHL1   C14 4378   6.861   5.863   5.073 -0.3439 -0.7443 -0.0072
   44CHL1   H14 4379   6.779   5.792   5.097 -0.3887 -0.6216  0.2034
   44CHL1   C15 4380   6.980   5.776   5.016 -0.1499 -0.1027  0.4316
   44CHL1  H15A 4381   7.071   5.839   5.027 -1.1908  1.9210 -1.7028
   44CHL1  H15B 4382   6.982   5.687   5.083 -0.6605  0.1497  0.7880
   44CHL1   C16 4383   6.949   5.757   4.864 -0.1711  0.2783 -0.6557
   44CHL1  H16A 4384   7.024   5.817   4.809 -0.8656  2.7808  0.9783
   44CHL1  H16B 4385   6.955   5.649   4.836  2.8970  0.0209  0.6197
   44CHL1   C17 4386   6.818   5.835   4.842  0.3857 -0.2183 -0.1025
   44CHL1   H17 4387   6.746   5.760   4.881 -0.0355 -0.2877 -0.9910
   44CHL1   C13 4388   6.810   5.941   4.952 -0.6279 -0.4419  0.6526
   44CHL1   C18 4389   6.908   6.052   4.902  0.1885  0.2980  0.3452
   44CHL1  H18A 4390   6.917   6.123   4.987 -3.0750 -1.2092  2.1478
   44CHL1  H18B 4391   7.006   6.006   4.880  0.0886  1.0897 -2.0527
   44CHL1  H18C 4392   6.869   6.096   4.808 -0.1723 -1.1200 -0.1880
   44CHL1   C12 4393   6.673   6.002   4.989 -0.0776  0.0920 -0.3029
   44CHL1  H12A 4394   6.641   6.064   4.903  0.7657  0.9525 -0.0219
   44CHL1  H12B 4395   6.609   5.912   5.002  0.1558  0.0468  0.5822
   44CHL1   C11 4396   6.676   6.069   5.127 -0.4552 -0.3254  0.0302
   44CHL1  H11A 4397   6.719   6.169   5.107  2.3209 -1.5901 -0.9162
   44CHL1  H11B 4398   6.575   6.094   5.164  0.5559  1.2164  1.8994
   44CHL1    C9 4399   6.759   6.000   5.243 -0.5146 -0.1688 -0.2700
   44CHL1    H9 4400   6.691   5.915   5.267 -0.1571 -0.0196  1.4016
   44CHL1   C10 4401   6.770   6.077   5.383 -0.6758  0.1647  0.0059
   44CHL1   C19 4402   6.820   6.221   5.361  0.7203  0.0565  0.4315
   44CHL1  H19A 4403   6.735   6.276   5.313 -0.2001 -2.4190 -0.9259
   44CHL1  H19B 4404   6.848   6.291   5.443  0.5857  0.0007  0.5246
   44CHL1  H19C 4405   6.896   6.215   5.281  1.0313 -4.2483  0.8467
   44CHL1    C1 4406   6.632   6.082   5.460  0.7559  0.5231 -0.2894
   44CHL1   H1A 4407   6.573   6.141   5.387  1.0975 -1.7153 -2.5279
   44CHL1   H1B 4408   6.596   5.978   5.447 -0.3125  1.2121 -4.0687
   44CHL1    C2 4409   6.638   6.126   5.602 -0.9501  0.0397 -0.2123
   44CHL1   H2A 4410   6.537   6.130   5.649 -0.3523  0.0345  1.1392
   44CHL1   H2B 4411   6.678   6.229   5.610  1.1900 -0.6275 -1.5168
   44CHL1   C20 4412   6.777   5.866   4.698 -0.1050  0.2056  0.2461
   44CHL1   H20 4413   6.686   5.930   4.697 -1.2567 -1.3766 -0.9023
   44CHL1   C21 4414   6.724   5.730   4.645 -0.5229 -0.4760  0.5628
   44CHL1  H21A 4415   6.809   5.662   4.626 -0.3470  0.2048 -1.3538
   44CHL1  H21B 4416   6.673   5.745   4.547  0.1043 -1.9745 -0.0179
   44CHL1  H21C 4417   6.652   5.681   4.714 -2.3433  0.2334 -0.7615
   44CHL1   C22 4418   6.885   5.915   4.605 -0.0711 -0.3543  0.2529
   44CHL1  H22A 4419   6.951   5.989   4.654 -1.1009 -0.4291  1.8494
   44CHL1  H22B 4420   6.941   5.825   4.571 -2.3007 -1.4195 -0.8152
   44CHL1   C23 4421   6.839   5.973   4.468  0.3653  0.4552  0.1232
   44CHL1  H23A 4422   6.921   5.974   4.393  0.0121 -0.1163 -0.2792
   44CHL1  H23B 4423   6.756   5.911   4.427  1.1856 -0.2272 -0.5505
   44CHL1   C24 4424   6.801   6.121   4.483 -0.5536  0.7171 -0.1637
   44CHL1  H24A 4425   6.722   6.133   4.560 -0.0276  1.1494  0.3095
   44CHL1  H24B 4426   6.881   6.176   4.537 -1.4891 -0.5274  2.6647
   44CHL1   C25 4427   6.752   6.186   4.356  0.2480  0.1758  1.0376
   44CHL1   H25 4428   6.744   6.295   4.375  2.1592  1.8716 -5.4820
   44CHL1   C26 4429   6.847   6.165   4.230  0.3573 -0.4348 -0.2617
   44CHL1  H26A 4430   6.950   6.199   4.256  0.8297 -1.4173 -0.8025
   44CHL1  H26B 4431   6.867   6.062   4.196 -0.5105 -1.4896  2.1973
   44CHL1  H26C 4432   6.816   6.228   4.143  1.8762 -0.2618 -0.7147
   44CHL1   C27 4433   6.614   6.143   4.322  0.0949 -0.5720  0.5438
   44CHL1  H27A 4434   6.612   6.034   4.299 -0.1165 -0.4111 -0.2344
   44CHL1  H27B 4435   6.542   6.156   4.406 -0.5476 -0.9727  0.0686
   44CHL1  H27C 4436   6.572   6.193   4.232  0.5998 -0.2672  0.4721
   45CHL1    C3 4437   0.123   0.106   5.447  0.0194  0.6141 -0.1830
   45CHL1    H3 4438   0.039   0.131   5.378 -0.4272 -0.2283  0.0383
   45CHL1    O3 4439   0.090   0.147   5.578 -0.3454 -0.6584  0.4864
   45CHL1   H3' 4440   0.168   0.130   5.632  0.3334  2.0201  0.5182
   45CHL1    C4 4441   0.140  -0.046   5.454 -0.1789 -0.8887  0.2933
   45CHL1   H4A 4442   0.227  -0.073   5.517 -0.9010  0.1582  1.7885
   45CHL1   H4B 4443   0.048  -0.090   5.498 -1.9109  0.1187 -2.0859
   45CHL1    C5 4444   0.154  -0.110   5.317 -0.4448  0.2371 -0.1558
   45CHL1    C6 4445   0.071  -0.209   5.273  0.8102 -0.2910  0.3179
   45CHL1    H6 4446  -0.013  -0.242   5.336  1.3933 -2.2103  0.1592
   45CHL1    C7 4447   0.087  -0.266   5.138  0.3159 -0.2219  0.0635
   45CHL1   H7A 4448   0.098  -0.376   5.138  0.5245 -0.2035  0.4485
   45CHL1   H7B 4449  -0.003  -0.228   5.087 -0.2296 -1.4192  0.1056
   45CHL1    C8 4450   0.218  -0.222   5.061  0.3392  0.5045  0.5984
   45CHL1    H8 4451   0.302  -0.286   5.095 -1.0671 -1.5504  0.4180
   45CHL1   C14 4452   0.196  -0.231   4.913 -0.5367 -0.0398  0.7476
   45CHL1   H14 4453   0.117  -0.155   4.896  0.5369  1.5929  2.5990
   45CHL1   C15 4454   0.142  -0.367   4.857  0.4560 -0.2068 -0.4027
   45CHL1  H15A 4455   0.208  -0.450   4.891  0.0394 -0.4819 -0.2565
   45CHL1  H15B 4456   0.037  -0.386   4.886  1.3382 -0.8001  2.7933
   45CHL1   C16 4457   0.150  -0.345   4.705 -0.4653 -0.1342  0.8734
   45CHL1  H16A 4458   0.225  -0.418   4.668 -0.9194  0.1788 -0.7058
   45CHL1  H16B 4459   0.047  -0.336   4.663 -1.5644 -1.2735  3.1218
   45CHL1   C17 4460   0.233  -0.218   4.681 -0.4400 -0.5726  0.1573
   45CHL1   H17 4461   0.153  -0.141   4.671 -0.2777 -0.3348  0.6603
   45CHL1   C13 4462   0.307  -0.188   4.814 -0.2077  0.0738 -0.1458
   45CHL1   C18 4463   0.442  -0.260   4.833 -0.4085 -0.2317 -0.6234
   45CHL1  H18A 4464   0.458  -0.287   4.940 -1.1536  2.6499  0.3181
   45CHL1  H18B 4465   0.447  -0.349   4.767 -1.5098 -2.3628  1.9703
   45CHL1  H18C 4466   0.520  -0.194   4.790 -1.3015  0.9894 -0.4184
   45CHL1   C12 4467   0.335  -0.039   4.843 -0.2738  0.0320 -0.3383
   45CHL1  H12A 4468   0.422   0.007   4.791  0.2818  0.8742  1.2792
   45CHL1  H12B 4469   0.249   0.028   4.822  1.5571  3.0760  1.1541
   45CHL1   C11 4470   0.364  -0.017   4.995  0.1363 -0.0186  0.1460
   45CHL1  H11A 4471   0.457  -0.068   5.026  0.4374  0.8487  0.7167
   45CHL1  H11B 4472   0.370   0.092   5.014 -0.2289  0.1126 -0.4553
   45CHL1    C9 4473   0.249  -0.072   5.085  0.5413  0.2712  0.2252
   45CHL1    H9 4474   0.152  -0.026   5.058  0.2600 -0.4786 -0.0878
   45CHL1   C10 4475   0.260  -0.046   5.230 -0.8343  0.0925 -0.3268
   45CHL1   C19 4476   0.399  -0.096   5.274  0.1689  1.3394 -0.4762
   45CHL1  H19A 4477   0.421  -0.198   5.236 -1.5196  0.9391 -0.4640
   45CHL1  H19B 4478   0.484  -0.030   5.245  0.8182  0.1316 -1.4336
   45CHL1  H19C 4479   0.415  -0.104   5.384  2.0309 -1.3054 -0.8592
   45CHL1    C1 4480   0.254   0.114   5.246 -0.1243 -0.0009  0.9100
   45CHL1   H1A 4481   0.343   0.163   5.202  0.6881  1.1874  3.6790
   45CHL1   H1B 4482   0.164   0.148   5.191 -0.8459  0.2654  2.2256
   45CHL1    C2 4483   0.254   0.162   5.387  0.2282  0.8467 -0.3096
   45CHL1   H2A 4484   0.260   0.273   5.396 -1.0378  0.9902 -1.0376
   45CHL1   H2B 4485   0.345   0.129   5.442 -0.4435 -2.0159 -0.7740
   45CHL1   C20 4486   0.311  -0.208   4.549 -0.1686 -0.7565 -0.5571
   45CHL1   H20 4487   0.401  -0.272   4.560 -0.8003 -1.5303  0.2526
   45CHL1   C21 4488   0.368  -0.063   4.532 -0.4198  1.0669 -0.3309
   45CHL1  H21A 4489   0.284   0.004   4.559 -0.6416  0.6922 -0.0825
   45CHL1  H21B 4490   0.401  -0.044   4.428  1.2757 -0.5562 -0.1354
   45CHL1  H21C 4491   0.456  -0.038   4.596 -0.2624 -2.4082  1.0439
   45CHL1   C22 4492   0.240  -0.262   4.421  0.2494 -0.6699  0.5234
   45CHL1  H22A 4493   0.228  -0.371   4.438  1.3172 -0.4610  2.9627
   45CHL1  H22B 4494   0.146  -0.203   4.423  0.4791 -0.2024 -0.9918
   45CHL1   C23 4495   0.305  -0.231   4.289  0.0072  0.0860 -0.1837
   45CHL1  H23A 4496   0.240  -0.284   4.216  2.1748 -2.7795 -0.2312
   45CHL1  H23B 4497   0.311  -0.122   4.267 -0.5264  0.5406  1.7235
   45CHL1   C24 4498   0.442  -0.299   4.284  0.5845  0.8988  0.8286
   45CHL1  H24A 4499   0.507  -0.237   4.349  1.6244 -1.0626  1.7243
   45CHL1  H24B 4500   0.418  -0.392   4.339 -1.6567 -0.0766 -1.5699
   45CHL1   C25 4501   0.483  -0.335   4.143  0.0842 -0.4163 -0.4022
   45CHL1   H25 4502   0.399  -0.354   4.072 -0.1477  0.1653 -0.2911
   45CHL1   C26 4503   0.546  -0.207   4.089 -0.0216 -0.2655 -0.1742
   45CHL1  H26A 4504   0.589  -0.221   3.987  0.1689 -0.7602 -0.0300
   45CHL1  H26B 4505   0.473  -0.124   4.098 -0.0970 -0.3029 -0.4305
   45CHL1  H26C 4506   0.631  -0.171   4.151 -1.6507  0.9321  1.4542
   45CHL1   C27 4507   0.589  -0.451   4.143  0.4939  0.0929 -0.1234
   45CHL1  H27A 4508   0.661  -0.433   4.226 -1.0570 -0.6893  1.4534
   45CHL1  H27B 4509   0.541  -0.547   4.173 -2.8167  1.3919 -0.8970
   45CHL1  H27C 4510   0.633  -0.465   4.042 -1.2986 -0.8615 -0.8282
   46CHL1    C3 4511   4.349   0.210   2.559 -0.0033  0.4582 -0.6641
   46CHL1    H3 4512   4.247   0.174   2.584  0.0062 -0.6920 -2.1507
   46CHL1    O3 4513   4.357   0.237   2.423 -0.1033 -0.0587 -0.5884
   46CHL1   H3' 4514   4.444   0.273   2.406 -0.1581 -0.7696 -2.6741
   46CHL1    C4 4515   4.406   0.333   2.642 -0.0246 -0.3684  0.4004
   46CHL1   H4A 4516   4.510   0.353   2.608  0.4669 -1.5483  1.1426
   46CHL1   H4B 4517   4.350   0.421   2.603 -0.0150 -0.7009 -0.3791
   46CHL1    C5 4518   4.404   0.307   2.790 -0.1608 -0.2983 -0.1074
   46CHL1    C6 4519   4.339   0.383   2.876 -0.6422 -0.6731 -0.4632
   46CHL1    H6 4520   4.296   0.478   2.840  0.1840 -0.7489 -1.7265
   46CHL1    C7 4521   4.349   0.369   3.027 -0.0829 -0.6013  0.1112
   46CHL1   H7A 4522   4.390   0.462   3.072  0.6082 -0.0399 -1.5877
   46CHL1   H7B 4523   4.254   0.348   3.080 -0.6994  0.4970 -0.5128
   46CHL1    C8 4524   4.450   0.266   3.076 -0.3185  0.7464  0.4839
   46CHL1    H8 4525   4.548   0.319   3.065  0.2958 -0.6169 -1.0661
   46CHL1   C14 4526   4.435   0.225   3.224  0.5247 -0.0664  0.3213
   46CHL1   H14 4527   4.330   0.190   3.230  0.3438  0.5392  0.7371
   46CHL1   C15 4528   4.451   0.343   3.323 -0.3373 -0.1168 -0.1339
   46CHL1  H15A 4529   4.552   0.384   3.300 -0.1811 -1.0787 -1.2681
   46CHL1  H15B 4530   4.369   0.416   3.307 -0.7217 -0.9970 -2.7220
   46CHL1   C16 4531   4.446   0.262   3.452 -0.7853  0.3521 -0.0819
   46CHL1  H16A 4532   4.526   0.303   3.518 -0.1206  0.4751 -0.9541
   46CHL1  H16B 4533   4.342   0.262   3.492 -1.8041 -0.4857 -2.5322
   46CHL1   C17 4534   4.469   0.111   3.417  0.5676  0.3928 -1.0356
   46CHL1   H17 4535   4.371   0.061   3.410  0.3706 -0.2470  3.6263
   46CHL1   C13 4536   4.528   0.120   3.278 -0.5377  0.2895  0.1954
   46CHL1   C18 4537   4.684   0.151   3.288  0.2305  0.7902  0.3852
   46CHL1  H18A 4538   4.742   0.057   3.297 -0.4552  0.4528  1.4036
   46CHL1  H18B 4539   4.733   0.186   3.194  0.0003  0.0080 -0.0360
   46CHL1  H18C 4540   4.712   0.234   3.357  0.3319  2.0921 -1.1446
   46CHL1   C12 4541   4.502   0.005   3.191 -0.0497  1.0321  1.0782
   46CHL1  H12A 4542   4.571  -0.080   3.209  0.1907  0.5016 -1.8939
   46CHL1  H12B 4543   4.396  -0.030   3.193  0.7801 -2.1039 -1.4106
   46CHL1   C11 4544   4.535   0.035   3.039 -0.5184 -0.2169  0.0137
   46CHL1  H11A 4545   4.639   0.072   3.039 -0.5423  0.0435  2.4334
   46CHL1  H11B 4546   4.536  -0.053   2.971 -1.1887  1.5257 -2.3821
   46CHL1    C9 4547   4.448   0.145   2.983 -0.2691 -0.1355  0.3071
   46CHL1    H9 4548   4.341   0.119   2.996  0.4209 -3.3186  0.4330
   46CHL1   C10 4549   4.482   0.183   2.838  0.0575 -0.0805 -0.5471
   46CHL1   C19 4550   4.628   0.209   2.821 -0.6850 -0.5416 -0.1573
   46CHL1  H19A 4551   4.663   0.294   2.884  1.1200  0.0245 -1.8593
   46CHL1  H19B 4552   4.684   0.116   2.842  0.1190 -0.6446 -2.5106
   46CHL1  H19C 4553   4.640   0.244   2.716 -0.0543  0.2823  0.1794
   46CHL1    C1 4554   4.441   0.061   2.743 -0.1096 -0.7611  0.0902
   46CHL1   H1A 4555   4.514  -0.020   2.766 -0.0788 -0.8671 -0.3849
   46CHL1   H1B 4556   4.341   0.026   2.776 -0.5282 -0.6537 -1.0324
   46CHL1    C2 4557   4.445   0.093   2.592 -0.0363 -0.0302 -0.1686
   46CHL1   H2A 4558   4.416   0.002   2.536  0.3735 -1.9123  2.4653
   46CHL1   H2B 4559   4.546   0.119   2.555 -0.3552  1.3254 -0.1737
   46CHL1   C20 4560   4.553   0.042   3.525 -0.1676 -0.2930 -0.2952
   46CHL1   H20 4561   4.654   0.089   3.521 -0.2564 -0.0880 -0.1646
   46CHL1   C21 4562   4.567  -0.112   3.501  0.5221  0.3376  0.4220
   46CHL1  H21A 4563   4.612  -0.163   3.588 -0.2180  2.9415  2.4790
   46CHL1  H21B 4564   4.631  -0.130   3.412 -0.6840  2.3843 -0.9563
   46CHL1  H21C 4565   4.471  -0.164   3.483 -0.6673  2.1588  1.1973
   46CHL1   C22 4566   4.499   0.079   3.667  0.1448  0.5101 -0.2432
   46CHL1  H22A 4567   4.482   0.186   3.690 -1.6469  0.0613  0.7388
   46CHL1  H22B 4568   4.403   0.027   3.690 -1.5029  3.3279 -0.3982
   46CHL1   C23 4569   4.594   0.033   3.782  0.4650 -0.1648  0.2950
   46CHL1  H23A 4570   4.617  -0.075   3.768  0.8015 -0.4623  2.7326
   46CHL1  H23B 4571   4.685   0.093   3.757 -1.3273  1.6761 -2.3222
   46CHL1   C24 4572   4.561   0.063   3.932  0.5476  0.2340  0.2934
   46CHL1  H24A 4573   4.468   0.003   3.948 -0.8053  2.0174 -0.4806
   46CHL1  H24B 4574   4.649   0.032   3.991  0.7668  2.0952  0.9999
   46CHL1   C25 4575   4.530   0.212   3.966 -0.0926  0.8092  0.3184
   46CHL1   H25 4576   4.450   0.254   3.902 -0.1376 -0.3135 -0.3897
   46CHL1   C26 4577   4.508   0.213   4.119 -1.3372 -0.2988 -0.2069
   46CHL1  H26A 4578   4.445   0.129   4.155  0.7805 -1.2452  1.4696
   46CHL1  H26B 4579   4.606   0.191   4.166 -1.5088 -1.7293 -0.4718
   46CHL1  H26C 4580   4.471   0.315   4.144  0.5771  0.3577  0.1277
   46CHL1   C27 4581   4.653   0.300   3.956  0.3812 -0.3820 -0.5383
   46CHL1  H27A 4582   4.747   0.252   3.990 -0.2456 -0.8828  0.5305
   46CHL1  H27B 4583   4.660   0.316   3.846 -0.5684 -2.8625 -1.0165
   46CHL1  H27C 4584   4.636   0.397   4.008 -0.3828 -0.7020 -0.1838
   47CHL1    C3 4585   4.945   2.124   5.454 -0.2900  0.0941  0.3978
   47CHL1    H3 4586   4.896   2.025   5.460 -0.7512  0.3186  0.4288
   47CHL1    O3 4587   4.930   2.191   5.582 -1.3937 -0.2877 -0.2604
   47CHL1   H3' 4588   5.002   2.153   5.632 -0.4644 -1.1449 -2.1389
   47CHL1    C4 4589   5.090   2.093   5.416  0.1680  0.5275 -0.7218
   47CHL1   H4A 4590   5.156   2.182   5.423 -0.2817  0.8794 -0.8870
   47CHL1   H4B 4591   5.136   2.027   5.493  1.1232  2.3352  0.3301
   47CHL1    C5 4592   5.102   2.042   5.280  0.1230  0.5175  0.8017
   47CHL1    C6 4593   5.165   1.923   5.259 -0.4032  0.0069 -0.0035
   47CHL1    H6 4594   5.214   1.876   5.346  0.8147  0.1981 -0.5768
   47CHL1    C7 4595   5.197   1.863   5.122  0.0745  0.6997  0.0823
   47CHL1   H7A 4596   5.301   1.827   5.131  0.0184  0.5712  0.2318
   47CHL1   H7B 4597   5.132   1.777   5.096  0.2280  0.3911  0.6827
   47CHL1    C8 4598   5.178   1.966   5.008  0.0483 -0.0573 -0.5747
   47CHL1    H8 4599   5.256   2.043   5.026  0.5651 -1.0604  1.7751
   47CHL1   C14 4600   5.181   1.899   4.872 -0.4348  0.5913 -0.7580
   47CHL1   H14 4601   5.100   1.823   4.872  0.1687 -0.0793  0.0564
   47CHL1   C15 4602   5.304   1.820   4.841 -0.1281 -1.3736 -0.5618
   47CHL1  H15A 4603   5.382   1.891   4.874 -1.8032  0.9110 -1.1984
   47CHL1  H15B 4604   5.303   1.736   4.913 -0.5255 -2.0287 -1.3059
   47CHL1   C16 4605   5.309   1.811   4.686  0.0620 -0.0904 -0.5842
   47CHL1  H16A 4606   5.414   1.828   4.652  0.1619 -0.8639 -0.6720
   47CHL1  H16B 4607   5.275   1.714   4.645  0.2141  1.8068 -6.0325
   47CHL1   C17 4608   5.206   1.912   4.630  0.0781  0.2622  0.3178
   47CHL1   H17 4609   5.110   1.857   4.618  0.5671 -1.3055  2.8332
   47CHL1   C13 4610   5.166   1.995   4.756  0.8456  0.0135  0.1495
   47CHL1   C18 4611   5.274   2.102   4.766 -0.3455  0.5807 -0.4485
   47CHL1  H18A 4612   5.373   2.055   4.748  0.1593  1.0813  0.9067
   47CHL1  H18B 4613   5.248   2.177   4.689 -0.1348  2.2399  1.0382
   47CHL1  H18C 4614   5.267   2.158   4.862 -2.3768  0.9629 -0.7690
   47CHL1   C12 4615   5.024   2.054   4.772 -0.4823 -0.1432 -0.1580
   47CHL1  H12A 4616   4.996   2.116   4.685  0.9462 -2.6757 -2.5562
   47CHL1  H12B 4617   4.953   1.968   4.780  0.0664 -0.4704  1.7437
   47CHL1   C11 4618   4.994   2.126   4.898 -0.7494 -0.0809 -0.5486
   47CHL1  H11A 4619   5.039   2.227   4.886 -1.0388 -0.0211 -1.1326
   47CHL1  H11B 4620   4.885   2.144   4.901 -1.2642 -2.8172 -0.8612
   47CHL1    C9 4621   5.043   2.046   5.028 -0.5264 -0.0758 -0.0643
   47CHL1    H9 4622   4.970   1.962   5.020  0.5310 -0.9924 -0.2840
   47CHL1   C10 4623   5.043   2.120   5.166 -0.2907 -0.0486  0.2538
   47CHL1   C19 4624   5.126   2.255   5.151  0.3605  0.0708  0.5151
   47CHL1  H19A 4625   5.142   2.303   5.250 -0.0396 -2.3128  1.7969
   47CHL1  H19B 4626   5.219   2.234   5.094  0.4010  0.4662  0.4337
   47CHL1  H19C 4627   5.067   2.330   5.094  1.0890  0.4603  0.2493
   47CHL1    C1 4628   4.893   2.148   5.199 -0.3691 -0.4089 -0.1239
   47CHL1   H1A 4629   4.840   2.208   5.122 -0.8720 -0.4691  0.1731
   47CHL1   H1B 4630   4.837   2.052   5.203  0.4247 -0.8369  2.3512
   47CHL1    C2 4631   4.883   2.218   5.340 -0.0031  0.8188 -0.0994
   47CHL1   H2A 4632   4.776   2.242   5.354 -0.2058  0.4822 -1.0286
   47CHL1   H2B 4633   4.947   2.309   5.338  0.9883  0.1427 -0.1259
   47CHL1   C20 4634   5.249   1.970   4.499 -0.1401 -0.1510 -0.0912
   47CHL1   H20 4635   5.341   2.029   4.517 -0.8612  0.9426  0.1124
   47CHL1   C21 4636   5.151   2.070   4.438 -0.0191 -0.0305 -0.1100
   47CHL1  H21A 4637   5.122   2.150   4.509 -1.6233  0.8067 -1.6520
   47CHL1  H21B 4638   5.064   2.017   4.394  0.3446  1.2843 -2.5492
   47CHL1  H21C 4639   5.191   2.113   4.344 -0.7730 -1.1282 -0.9658
   47CHL1   C22 4640   5.301   1.867   4.394 -0.1016 -0.1291  0.1313
   47CHL1  H22A 4641   5.324   1.928   4.304 -4.0152  0.5131 -0.6444
   47CHL1  H22B 4642   5.393   1.814   4.425 -0.3912 -0.9736 -0.3949
   47CHL1   C23 4643   5.184   1.773   4.351 -0.2359  0.0448  0.6482
   47CHL1  H23A 4644   5.193   1.687   4.421  1.4177 -0.2017  0.1768
   47CHL1  H23B 4645   5.083   1.820   4.353  0.1333  1.0134 -0.9556
   47CHL1   C24 4646   5.194   1.705   4.206 -0.1032 -0.2204  0.7247
   47CHL1  H24A 4647   5.301   1.696   4.178 -0.3396 -1.7614  0.2676
   47CHL1  H24B 4648   5.146   1.605   4.206 -1.6910  0.3380  4.7601
   47CHL1   C25 4649   5.121   1.785   4.091 -0.0674  0.5651  0.1128
   47CHL1   H25 4650   5.015   1.787   4.122 -0.0445  0.8382  0.1781
   47CHL1   C26 4651   5.157   1.933   4.071 -0.1961  0.9250  0.0892
   47CHL1  H26A 4652   5.149   1.991   4.165 -3.1836  2.1469 -0.7937
   47CHL1  H26B 4653   5.266   1.938   4.055  0.0371  1.0754  1.6425
   47CHL1  H26C 4654   5.105   1.993   3.993  1.3112  2.8695  0.5327
   47CHL1   C27 4655   5.133   1.712   3.957 -0.2495  0.6360 -0.0001
   47CHL1  H27A 4656   5.238   1.718   3.921 -0.6652  2.7837 -1.0187
   47CHL1  H27B 4657   5.079   1.615   3.962 -1.4070  1.3075  1.5929
   47CHL1  H27C 4658   5.071   1.768   3.884 -1.1321  1.7008  1.5103
   48CHL1    C3 4659   4.891   3.828   5.364  0.5612  0.0250  0.1858
   48CHL1    H3 4660   4.911   3.937   5.357 -1.8236  0.4200 -2.8308
   48CHL1    O3 4661   4.837   3.796   5.490 -0.0940 -0.0952 -0.8333
   48CHL1   H3' 4662   4.881   3.713   5.512  0.3695  0.3668  0.0004
   48CHL1    C4 4663   4.776   3.811   5.256  0.0805 -0.1302 -0.1312
   48CHL1   H4A 4664   4.745   3.705   5.258 -0.6102  0.0582 -0.6179
   48CHL1   H4B 4665   4.698   3.883   5.289  0.0080 -0.3740  0.2256
   48CHL1    C5 4666   4.816   3.836   5.111 -0.5157  0.9460 -1.0322
   48CHL1    C6 4667   4.745   3.922   5.038 -0.2808  0.5724 -0.6475
   48CHL1    H6 4668   4.657   3.972   5.082 -1.3506 -0.7750 -1.1861
   48CHL1    C7 4669   4.780   3.958   4.899  0.2718 -0.8670  0.6772
   48CHL1   H7A 4670   4.694   3.969   4.829  0.4048 -2.9958  0.1229
   48CHL1   H7B 4671   4.820   4.061   4.910 -0.0859 -0.3364 -2.2456
   48CHL1    C8 4672   4.881   3.858   4.830  0.0059 -0.0955 -0.4328
   48CHL1    H8 4673   4.827   3.765   4.804 -1.0135 -0.3956  2.3365
   48CHL1   C14 4674   4.943   3.911   4.707  0.9897 -0.3736  0.5314
   48CHL1   H14 4675   5.002   4.002   4.729  0.6623  0.8021 -2.8263
   48CHL1   C15 4676   4.846   3.960   4.588 -0.4897 -0.2199 -0.1553
   48CHL1  H15A 4677   4.748   3.908   4.583  0.1602 -2.0368  3.1877
   48CHL1  H15B 4678   4.816   4.062   4.620  0.7871  0.3129 -0.5944
   48CHL1   C16 4679   4.933   3.955   4.468 -0.3440  0.0731 -0.1248
   48CHL1  H16A 4680   4.894   3.870   4.407 -0.8518  0.1315  0.1169
   48CHL1  H16B 4681   4.934   4.046   4.404 -0.3766 -1.0295 -1.7491
   48CHL1   C17 4682   5.078   3.921   4.512 -0.6258  0.0362 -0.1673
   48CHL1   H17 4683   5.137   4.006   4.552 -0.0800 -0.3619 -0.1073
   48CHL1   C13 4684   5.054   3.829   4.639  0.3207  0.8956  0.0414
   48CHL1   C18 4685   5.009   3.692   4.592 -0.9795 -0.4711  0.8492
   48CHL1  H18A 4686   4.977   3.627   4.676 -1.0940  0.8988  1.8933
   48CHL1  H18B 4687   4.932   3.689   4.511 -0.4928 -0.3632  0.3736
   48CHL1  H18C 4688   5.095   3.644   4.540 -2.1176  0.6290 -2.2661
   48CHL1   C12 4689   5.174   3.823   4.738  0.5216 -0.5724 -0.2985
   48CHL1  H12A 4690   5.256   3.757   4.701  1.3811 -0.4561  1.2821
   48CHL1  H12B 4691   5.220   3.923   4.754  3.3273 -1.8471  0.2997
   48CHL1   C11 4692   5.124   3.760   4.873  0.3513 -0.0423  0.3188
   48CHL1  H11A 4693   5.088   3.659   4.846  0.9003 -0.5821  1.5444
   48CHL1  H11B 4694   5.205   3.754   4.949  1.4244  1.4510 -0.6552
   48CHL1    C9 4695   4.995   3.838   4.934 -0.1553 -0.1122 -0.1715
   48CHL1    H9 4696   5.031   3.935   4.974 -0.8778 -1.1560  3.2937
   48CHL1   C10 4697   4.947   3.774   5.069 -0.3012 -0.3690  0.1413
   48CHL1   C19 4698   4.913   3.627   5.049  0.5309  0.0360  0.3620
   48CHL1  H19A 4699   4.865   3.576   5.135  0.6857  1.0959  1.1022
   48CHL1  H19B 4700   4.847   3.620   4.960 -0.2716 -0.0365  0.9526
   48CHL1  H19C 4701   4.998   3.560   5.024 -1.0830 -2.8151  2.0352
   48CHL1    C1 4702   5.053   3.779   5.180 -0.7643  0.6124  0.0431
   48CHL1   H1A 4703   5.136   3.711   5.152 -0.8634  0.8858 -0.9587
   48CHL1   H1B 4704   5.096   3.881   5.176  3.6539 -1.0382 -0.4166
   48CHL1    C2 4705   5.000   3.737   5.319 -0.5889 -0.3545  0.0178
   48CHL1   H2A 4706   5.079   3.749   5.396  0.4705 -1.4873 -0.8504
   48CHL1   H2B 4707   4.957   3.636   5.332  0.1191 -0.4301  2.1557
   48CHL1   C20 4708   5.167   3.870   4.395 -0.3543 -0.3031  0.0005
   48CHL1   H20 4709   5.133   3.768   4.367  0.5353 -0.8981  1.0096
   48CHL1   C21 4710   5.310   3.860   4.444 -0.3029  0.4622 -0.0161
   48CHL1  H21A 4711   5.329   3.774   4.511 -2.3051 -1.1151 -1.3488
   48CHL1  H21B 4712   5.383   3.841   4.362  0.8958  2.2962  0.5494
   48CHL1  H21C 4713   5.341   3.960   4.484  0.4005  0.0640  0.4583
   48CHL1   C22 4714   5.173   3.949   4.261  0.4306  0.5541  0.2673
   48CHL1  H22A 4715   5.237   3.885   4.197  0.3169 -0.3263  1.0229
   48CHL1  H22B 4716   5.069   3.945   4.221  0.0720  2.3824  0.9178
   48CHL1   C23 4717   5.211   4.093   4.260  0.1095  0.6391  0.2108
   48CHL1  H23A 4718   5.141   4.149   4.327  0.4769  0.5315  0.6901
   48CHL1  H23B 4719   5.318   4.097   4.289  0.0621  0.8261  0.3652
   48CHL1   C24 4720   5.188   4.164   4.124 -0.1667  0.4001 -0.0435
   48CHL1  H24A 4721   5.260   4.126   4.049 -1.3018 -0.1987 -0.8461
   48CHL1  H24B 4722   5.089   4.141   4.079  1.1098 -3.2052 -1.3753
   48CHL1   C25 4723   5.215   4.316   4.123  0.2977 -0.0587 -0.1618
   48CHL1   H25 4724   5.317   4.344   4.156  0.5236  2.1020 -2.4308
   48CHL1   C26 4725   5.185   4.369   3.978 -0.0505 -0.2710 -1.0077
   48CHL1  H26A 4726   5.094   4.324   3.931  0.1374 -0.1145 -1.5306
   48CHL1  H26B 4727   5.170   4.478   3.993 -0.1187 -0.4310  0.1656
   48CHL1  H26C 4728   5.271   4.362   3.909  0.0680 -2.6338 -0.7272
   48CHL1   C27 4729   5.114   4.383   4.224 -0.0774  0.7182  0.2271
   48CHL1  H27A 4730   5.135   4.491   4.207 -1.4099  0.7997 -1.1480
   48CHL1  H27B 4731   5.007   4.371   4.194 -0.2940  1.4340  0.6728
   48CHL1  H27C 4732   5.126   4.354   4.331  0.0435  1.9611  0.5735
   49CHL1    C3 4733   1.652   5.561   2.273 -0.1687 -0.6133 -0.1433
   49CHL1    H3 4734   1.691   5.664   2.292  1.1620 -0.7486 -1.8522
   49CHL1    O3 4735   1.635   5.543   2.135 -0.2588  0.2359  0.3302
   49CHL1   H3' 4736   1.585   5.464   2.112  3.3085 -1.6502 -1.8921
   49CHL1    C4 4737   1.755   5.462   2.318  0.4906  0.0457  0.1187
   49CHL1   H4A 4738   1.727   5.357   2.291  0.2524 -0.4403  2.0775
   49CHL1   H4B 4739   1.848   5.493   2.266 -0.3575 -0.4793 -1.8237
   49CHL1    C5 4740   1.768   5.455   2.467  0.0305 -1.4145 -0.6338
   49CHL1    C6 4741   1.879   5.491   2.534 -0.2318 -0.3121 -0.3149
   49CHL1    H6 4742   1.966   5.525   2.475 -0.6377  0.7447 -0.3362
   49CHL1    C7 4743   1.906   5.484   2.682  0.2356  0.3433  0.2572
   49CHL1   H7A 4744   2.002   5.431   2.704 -0.1860 -0.1314  1.0226
   49CHL1   H7B 4745   1.919   5.587   2.721  0.1231  0.8323 -0.9726
   49CHL1    C8 4746   1.782   5.431   2.763 -1.4239 -0.3441 -0.1859
   49CHL1    H8 4747   1.792   5.320   2.762 -0.2204 -0.2513 -0.9146
   49CHL1   C14 4748   1.775   5.485   2.905 -0.1987  0.1333  0.5615
   49CHL1   H14 4749   1.726   5.584   2.897 -2.6287 -0.9629  1.0594
   49CHL1   C15 4750   1.895   5.500   2.992 -0.9475  0.7444 -0.4047
   49CHL1  H15A 4751   1.972   5.422   2.973 -0.3778  1.0537  0.5592
   49CHL1  H15B 4752   1.946   5.595   2.965  0.9074  0.2146  0.9970
   49CHL1   C16 4753   1.854   5.501   3.140  0.4225 -0.0039  0.4846
   49CHL1  H16A 4754   1.903   5.420   3.197  0.9884 -1.4843 -1.9511
   49CHL1  H16B 4755   1.879   5.602   3.180  0.6340  0.9103 -1.8119
   49CHL1   C17 4756   1.704   5.475   3.132  0.3670  0.1865  0.5280
   49CHL1   H17 4757   1.650   5.572   3.136 -0.3816 -0.1535 -0.6829
   49CHL1   C13 4758   1.676   5.412   2.990 -0.2337  0.8049 -0.5102
   49CHL1   C18 4759   1.709   5.255   3.001 -0.2470 -0.6490 -0.2064
   49CHL1  H18A 4760   1.639   5.194   3.061  0.0325 -0.1828  0.6198
   49CHL1  H18B 4761   1.725   5.194   2.910  1.8567 -0.4707 -0.0103
   49CHL1  H18C 4762   1.808   5.246   3.051 -0.9128 -0.0891  1.2593
   49CHL1   C12 4763   1.537   5.434   2.931  0.6170 -0.0239 -0.6917
   49CHL1  H12A 4764   1.453   5.376   2.976 -0.0347  1.2495 -0.2112
   49CHL1  H12B 4765   1.511   5.542   2.932 -1.6189 -0.4981  0.2441
   49CHL1   C11 4766   1.540   5.374   2.785  0.3788 -0.6325 -0.0610
   49CHL1  H11A 4767   1.570   5.268   2.774  2.1872 -0.0425 -1.2786
   49CHL1  H11B 4768   1.443   5.379   2.733 -0.1275 -4.1724  0.3155
   49CHL1    C9 4769   1.645   5.452   2.698  0.0843 -0.5140  0.6199
   49CHL1    H9 4770   1.624   5.560   2.714  0.7289 -0.5809  2.1324
   49CHL1   C10 4771   1.632   5.433   2.543 -0.2638  0.1839 -0.0773
   49CHL1   C19 4772   1.576   5.291   2.505  0.6207 -0.0224 -0.0684
   49CHL1  H19A 4773   1.573   5.271   2.395 -0.9420 -0.8502  0.0983
   49CHL1  H19B 4774   1.632   5.209   2.554  3.2985  1.3625 -0.6250
   49CHL1  H19C 4775   1.469   5.280   2.535  0.0450  0.4532 -1.8123
   49CHL1    C1 4776   1.523   5.535   2.485  0.2166 -0.1525  0.0793
   49CHL1   H1A 4777   1.425   5.507   2.529 -0.4932  0.7985 -0.8446
   49CHL1   H1B 4778   1.538   5.638   2.523  1.3037  0.1604 -1.1111
   49CHL1    C2 4779   1.511   5.537   2.333 -0.1869 -0.6197  0.4205
   49CHL1   H2A 4780   1.444   5.624   2.314 -2.0967 -1.9316  0.8833
   49CHL1   H2B 4781   1.469   5.442   2.294  1.3545 -1.3252  0.3983
   49CHL1   C20 4782   1.655   5.406   3.258 -0.8999  0.4852  0.7075
   49CHL1   H20 4783   1.694   5.302   3.259  1.3538  1.2360 -0.9361
   49CHL1   C21 4784   1.502   5.398   3.259 -0.0095 -0.0920  0.5405
   49CHL1  H21A 4785   1.454   5.356   3.351 -1.1068 -0.0423  0.0121
   49CHL1  H21B 4786   1.468   5.341   3.170  0.5222  3.5326 -2.2011
   49CHL1  H21C 4787   1.463   5.502   3.248  0.8044  0.2782  1.0538
   49CHL1   C22 4788   1.689   5.488   3.382  0.0355 -0.2373  0.1454
   49CHL1  H22A 4789   1.800   5.483   3.389  0.0342  0.5956  0.9649
   49CHL1  H22B 4790   1.657   5.593   3.368 -0.2909 -0.5763 -1.8209
   49CHL1   C23 4791   1.635   5.421   3.509  0.7908  0.3512 -0.0464
   49CHL1  H23A 4792   1.529   5.454   3.510  0.0031 -1.9558  1.1410
   49CHL1  H23B 4793   1.646   5.310   3.507  0.0612  0.2309  1.3322
   49CHL1   C24 4794   1.702   5.481   3.633 -0.6054 -0.4874 -0.0935
   49CHL1  H24A 4795   1.812   5.465   3.623 -0.2386  2.6320 -2.1633
   49CHL1  H24B 4796   1.681   5.589   3.622 -2.5032 -0.7580  0.4753
   49CHL1   C25 4797   1.661   5.427   3.765  0.3054  0.7715  0.3567
   49CHL1   H25 4798   1.679   5.318   3.761 -1.4668  0.4739 -0.4650
   49CHL1   C26 4799   1.750   5.485   3.882  1.1087 -0.1129  0.2609
   49CHL1  H26A 4800   1.859   5.493   3.861  1.1808  1.1661  1.0752
   49CHL1  H26B 4801   1.720   5.590   3.901  1.3276 -0.3865  2.2560
   49CHL1  H26C 4802   1.726   5.415   3.964 -0.1669 -1.2460 -1.0138
   49CHL1   C27 4803   1.506   5.438   3.783  0.2548 -1.0735 -0.9126
   49CHL1  H27A 4804   1.442   5.450   3.693 -1.7075  1.2163  0.6451
   49CHL1  H27B 4805   1.468   5.346   3.832  1.7459 -1.2813 -0.0792
   49CHL1  H27C 4806   1.484   5.527   3.846 -1.3612 -2.8972  1.2719
   50CHL1    C3 4807   2.039   1.329   2.186 -0.9105 -0.3886 -0.3120
   50CHL1    H3 4808   2.040   1.223   2.216  1.3719 -0.1216  0.7685
   50CHL1    O3 4809   2.083   1.345   2.050 -0.2408 -0.4883  0.0821
   50CHL1   H3' 4810   2.007   1.382   2.004 -0.8497 -0.4751  1.0555
   50CHL1    C4 4811   1.897   1.386   2.200  0.8216  0.0074 -0.2511
   50CHL1   H4A 4812   1.895   1.490   2.163  1.8040 -0.2890 -1.2138
   50CHL1   H4B 4813   1.824   1.326   2.141  0.5292 -0.8470  0.9442
   50CHL1    C5 4814   1.846   1.376   2.344  0.6143  0.0360 -0.0545
   50CHL1    C6 4815   1.737   1.311   2.371 -0.0669  0.9501 -0.0990
   50CHL1    H6 4816   1.683   1.248   2.299 -0.5394 -0.1329  1.1571
   50CHL1    C7 4817   1.679   1.310   2.505  0.7013  0.1295 -0.0701
   50CHL1   H7A 4818   1.569   1.313   2.489  0.8002  0.8459 -0.6510
   50CHL1   H7B 4819   1.700   1.210   2.549 -0.8305 -0.2037 -0.0408
   50CHL1    C8 4820   1.725   1.424   2.594 -0.6413 -0.5413 -0.0913
   50CHL1    H8 4821   1.682   1.517   2.552 -0.3965 -1.4046 -2.3971
   50CHL1   C14 4822   1.690   1.407   2.740  0.6622 -0.6615 -0.5306
   50CHL1   H14 4823   1.735   1.312   2.777 -2.6287 -2.7344 -1.4134
   50CHL1   C15 4824   1.541   1.389   2.773 -0.0038  0.1874 -0.6814
   50CHL1  H15A 4825   1.473   1.463   2.727 -1.4537 -0.2336  0.6702
   50CHL1  H15B 4826   1.497   1.289   2.750 -2.1150  1.0093 -0.4425
   50CHL1   C16 4827   1.543   1.401   2.929  0.0663  0.1534  0.3976
   50CHL1  H16A 4828   1.455   1.460   2.963 -1.5027 -1.5712 -0.5025
   50CHL1  H16B 4829   1.539   1.299   2.973 -0.3416 -0.2034 -0.4540
   50CHL1   C17 4830   1.677   1.473   2.968 -0.7024 -0.1210  0.0857
   50CHL1   H17 4831   1.741   1.388   2.999 -0.8722 -1.0104 -1.8318
   50CHL1   C13 4832   1.743   1.520   2.832  0.6368  0.3274 -0.6107
   50CHL1   C18 4833   1.679   1.656   2.803  0.0503  0.2844  0.1688
   50CHL1  H18A 4834   1.569   1.666   2.812 -0.4466 -3.4884 -0.3019
   50CHL1  H18B 4835   1.729   1.734   2.865  3.2746 -1.8544  0.4641
   50CHL1  H18C 4836   1.701   1.685   2.698 -1.7577  1.1166 -0.0075
   50CHL1   C12 4837   1.892   1.516   2.836  0.2128  0.3639 -0.2486
   50CHL1  H12A 4838   1.926   1.603   2.895  3.0249 -0.0960 -1.0666
   50CHL1  H12B 4839   1.936   1.426   2.884  0.2629  0.9712  0.8670
   50CHL1   C11 4840   1.936   1.533   2.690  0.5669 -0.2277 -0.5953
   50CHL1  H11A 4841   1.908   1.639   2.672 -1.6766 -0.0786  2.9447
   50CHL1  H11B 4842   2.047   1.539   2.690  0.6774 -1.8481 -0.0027
   50CHL1    C9 4843   1.880   1.432   2.587  0.2754 -0.2789 -0.0779
   50CHL1    H9 4844   1.920   1.335   2.623  0.5839  0.0690  0.5352
   50CHL1   C10 4845   1.928   1.454   2.443 -0.7715  0.3373  0.6883
   50CHL1   C19 4846   1.910   1.605   2.404 -0.5826 -0.5483 -0.2946
   50CHL1  H19A 4847   1.803   1.636   2.408 -0.4738 -0.1225 -0.6289
   50CHL1  H19B 4848   1.979   1.670   2.462 -0.6163  0.7602 -1.6606
   50CHL1  H19C 4849   1.922   1.630   2.296 -2.2099  1.1083 -0.1445
   50CHL1    C1 4850   2.078   1.407   2.430  0.5140  0.8882 -0.9284
   50CHL1   H1A 4851   2.139   1.481   2.486  0.3553 -0.7068  1.5223
   50CHL1   H1B 4852   2.099   1.308   2.475 -0.0229  1.3163  0.3248
   50CHL1    C2 4853   2.132   1.404   2.286 -0.1687 -0.2380  0.4646
   50CHL1   H2A 4854   2.236   1.365   2.297 -0.0547  0.3882  1.8108
   50CHL1   H2B 4855   2.141   1.508   2.248 -1.3983  0.7314  2.6459
   50CHL1   C20 4856   1.668   1.567   3.086 -0.3788  0.4488 -0.2551
   50CHL1   H20 4857   1.606   1.654   3.055  1.0491  1.4854 -0.2821
   50CHL1   C21 4858   1.808   1.605   3.131 -0.0326 -0.7560 -0.6864
   50CHL1  H21A 4859   1.789   1.659   3.227 -1.9176  1.7987 -2.3656
   50CHL1  H21B 4860   1.866   1.676   3.068 -0.9506  2.0073  1.3648
   50CHL1  H21C 4861   1.875   1.521   3.159 -0.3780 -1.2514 -1.3298
   50CHL1   C22 4862   1.585   1.492   3.202 -0.6898  0.1002  0.9134
   50CHL1  H22A 4863   1.477   1.495   3.176 -0.9394  0.4233  1.9308
   50CHL1  H22B 4864   1.623   1.388   3.210  0.8503  0.5322 -0.3957
   50CHL1   C23 4865   1.595   1.565   3.333 -0.1555  0.7059 -0.3543
   50CHL1  H23A 4866   1.696   1.565   3.379  0.6735 -1.3548 -2.0576
   50CHL1  H23B 4867   1.567   1.671   3.315  0.6225  1.0358  0.3019
   50CHL1   C24 4868   1.506   1.509   3.451  0.1253  0.9864  0.3543
   50CHL1  H24A 4869   1.400   1.509   3.416  0.6662  0.2179 -1.3842
   50CHL1  H24B 4870   1.524   1.405   3.486 -1.7141  0.3621 -0.4148
   50CHL1   C25 4871   1.497   1.592   3.578 -0.5830 -0.2964 -0.4792
   50CHL1   H25 4872   1.596   1.605   3.628 -0.2174  0.3072 -1.3372
   50CHL1   C26 4873   1.452   1.732   3.548  0.1973  0.9832  0.0893
   50CHL1  H26A 4874   1.538   1.793   3.512 -0.0904  1.6062  0.4425
   50CHL1  H26B 4875   1.369   1.741   3.475  0.3458  2.1868  0.0511
   50CHL1  H26C 4876   1.428   1.793   3.638  3.3041  0.7669  1.1669
   50CHL1   C27 4877   1.402   1.524   3.676 -0.2185  0.7935 -0.1667
   50CHL1  H27A 4878   1.422   1.547   3.783  0.4717 -0.5533  0.0141
   50CHL1  H27B 4879   1.296   1.545   3.652 -0.7913  1.4684  2.5555
   50CHL1  H27C 4880   1.406   1.413   3.677 -0.8398  0.7500  1.5971
   51CHL1    C3 4881   3.035   3.174   2.415 -0.0199 -0.0200  0.0253
   51CHL1    H3 4882   3.095   3.084   2.438  0.0592  0.0369  0.0430
   51CHL1    O3 4883   3.051   3.205   2.276  0.3465  0.2546 -0.1361
   51CHL1   H3' 4884   2.979   3.266   2.259  2.1535  2.5177 -0.1530
   51CHL1    C4 4885   2.890   3.149   2.446 -0.3559 -0.4217  0.4333
   51CHL1   H4A 4886   2.815   3.225   2.414 -1.2602 -1.1730  0.7304
   51CHL1   H4B 4887   2.879   3.061   2.378  2.4952 -0.1978 -0.4474
   51CHL1    C5 4888   2.877   3.121   2.597 -0.1148 -0.0985 -0.4255
   51CHL1    C6 4889   2.811   3.006   2.643 -0.5262 -0.3194  0.1273
   51CHL1    H6 4890   2.776   2.936   2.566 -1.5264 -0.2006  0.4612
   51CHL1    C7 4891   2.789   2.974   2.791 -0.5627  1.3477 -0.3444
   51CHL1   H7A 4892   2.685   2.939   2.807 -0.2678  0.7693  0.3982
   51CHL1   H7B 4893   2.855   2.886   2.810 -2.0520  1.0002  4.5435
   51CHL1    C8 4894   2.830   3.090   2.885  0.1205  0.2684 -0.4469
   51CHL1    H8 4895   2.748   3.164   2.888  0.9315  1.1793  2.6091
   51CHL1   C14 4896   2.844   3.031   3.020  0.0770 -0.2367  0.2412
   51CHL1   H14 4897   2.926   2.956   3.014  0.2745  0.0314 -0.6398
   51CHL1   C15 4898   2.722   2.952   3.067  0.4890  0.2562  0.2218
   51CHL1  H15A 4899   2.637   3.024   3.063  1.0007  1.1954  3.2774
   51CHL1  H15B 4900   2.699   2.852   3.025 -1.1708 -0.1420  1.9060
   51CHL1   C16 4901   2.752   2.943   3.217  1.2140  0.6388  0.7462
   51CHL1  H16A 4902   2.667   2.995   3.266 -0.7730 -0.3169 -1.4771
   51CHL1  H16B 4903   2.759   2.844   3.266  1.2966  0.5436  0.5402
   51CHL1   C17 4904   2.876   3.031   3.256 -0.5662 -0.0332  0.5385
   51CHL1   H17 4905   2.961   2.960   3.252  0.7993  1.6063 -2.4267
   51CHL1   C13 4906   2.878   3.127   3.135  0.1601  0.2583  0.7255
   51CHL1   C18 4907   2.770   3.231   3.153 -0.0999  0.3790  0.6047
   51CHL1  H18A 4908   2.670   3.194   3.186 -0.1496 -1.8999 -1.7883
   51CHL1  H18B 4909   2.807   3.302   3.231  2.6149 -2.2785  1.9360
   51CHL1  H18C 4910   2.759   3.294   3.062  0.9216  1.0504  0.9280
   51CHL1   C12 4911   3.013   3.184   3.101  0.3613 -0.7503  0.8632
   51CHL1  H12A 4912   3.045   3.264   3.170 -2.6415  0.8864  0.5527
   51CHL1  H12B 4913   3.086   3.101   3.101 -0.0067 -1.0810  0.3924
   51CHL1   C11 4914   3.024   3.244   2.957 -0.0718 -0.0830 -0.9963
   51CHL1  H11A 4915   2.975   3.343   2.954 -1.3574 -0.6162  0.9568
   51CHL1  H11B 4916   3.131   3.252   2.925  0.6061 -2.6554  0.3716
   51CHL1    C9 4917   2.960   3.156   2.845  0.6765  0.3577 -0.8894
   51CHL1    H9 4918   3.037   3.078   2.828  0.1628  0.0986 -2.0540
   51CHL1   C10 4919   2.946   3.218   2.698  0.3504 -0.7581 -0.7483
   51CHL1   C19 4920   2.855   3.344   2.717  0.1713  0.2625  0.3640
   51CHL1  H19A 4921   2.888   3.423   2.645 -2.6332 -0.5785 -2.0164
   51CHL1  H19B 4922   2.752   3.307   2.700  0.6403 -1.6488  1.4353
   51CHL1  H19C 4923   2.851   3.396   2.815  0.2068 -0.6047  0.8338
   51CHL1    C1 4924   3.083   3.258   2.641 -0.2843 -0.2238  0.9206
   51CHL1   H1A 4925   3.124   3.344   2.698  2.2895 -1.0776  0.4952
   51CHL1   H1B 4926   3.154   3.172   2.651  1.0139  0.7263  0.2283
   51CHL1    C2 4927   3.085   3.298   2.491 -0.1737  0.6163  0.2416
   51CHL1   H2A 4928   3.188   3.325   2.457  0.9479  1.4197  3.8899
   51CHL1   H2B 4929   3.011   3.372   2.455 -1.1555 -0.1723  0.6053
   51CHL1   C20 4930   2.861   3.083   3.402  0.4749 -0.8175 -0.1149
   51CHL1   H20 4931   2.773   3.150   3.405  0.9324 -0.2376  0.8227
   51CHL1   C21 4932   2.998   3.145   3.436 -0.4611  0.3081  0.5671
   51CHL1  H21A 4933   3.075   3.079   3.391 -0.4296  0.3280  0.5925
   51CHL1  H21B 4934   3.014   3.174   3.542  0.9009 -1.6281  0.9525
   51CHL1  H21C 4935   3.018   3.233   3.372 -1.2583  1.1766  1.4808
   51CHL1   C22 4936   2.826   2.975   3.510  0.2111  0.0314  0.2025
   51CHL1  H22A 4937   2.721   2.940   3.496  0.4727 -1.2851  1.3463
   51CHL1  H22B 4938   2.896   2.889   3.504  0.4189  0.0990  1.4761
   51CHL1   C23 4939   2.820   3.040   3.657 -0.2653 -0.6098  0.3287
   51CHL1  H23A 4940   2.927   3.064   3.673 -0.0426  1.0990 -2.8462
   51CHL1  H23B 4941   2.758   3.132   3.650  2.3093  1.2755  0.9240
   51CHL1   C24 4942   2.759   2.934   3.747  0.6334  0.3240 -0.2839
   51CHL1  H24A 4943   2.659   2.902   3.710 -0.1003  1.7975  0.3584
   51CHL1  H24B 4944   2.820   2.841   3.744 -1.5754 -1.2576  1.0423
   51CHL1   C25 4945   2.752   2.974   3.893  0.0890 -0.4335  0.5550
   51CHL1   H25 4946   2.708   3.075   3.903 -0.5064 -0.3775 -1.8492
   51CHL1   C26 4947   2.671   2.870   3.968  0.7652  0.5497  0.3242
   51CHL1  H26A 4948   2.571   2.856   3.922  1.1983  0.6183 -0.6490
   51CHL1  H26B 4949   2.727   2.775   3.965 -0.5594 -0.2750  0.6336
   51CHL1  H26C 4950   2.660   2.904   4.073  0.8835  1.5692  0.0164
   51CHL1   C27 4951   2.889   2.985   3.965 -0.8250  0.4509 -0.6166
   51CHL1  H27A 4952   2.868   3.017   4.069 -0.5927 -0.9525 -0.1263
   51CHL1  H27B 4953   2.948   2.891   3.972 -1.4713  0.1582  1.7027
   51CHL1  H27C 4954   2.954   3.048   3.899  3.4421 -2.0944  0.7577
   52CHL1    C3 4955   6.226   0.742   2.239 -0.2535 -0.0640 -0.1159
   52CHL1    H3 4956   6.119   0.750   2.270 -0.6367  2.3073 -1.7787
   52CHL1    O3 4957   6.235   0.738   2.101 -0.3831 -0.6126 -1.0225
   52CHL1   H3' 4958   6.184   0.811   2.064  0.4467  0.7312  0.3489
   52CHL1    C4 4959   6.300   0.868   2.300 -0.4694 -0.4135  0.2682
   52CHL1   H4A 4960   6.409   0.860   2.279 -0.5360 -0.0635 -0.2383
   52CHL1   H4B 4961   6.265   0.969   2.270 -0.4041 -0.2664  0.6839
   52CHL1    C5 4962   6.289   0.869   2.451  0.0460  0.3108 -0.2471
   52CHL1    C6 4963   6.253   0.970   2.527 -0.2850 -0.0935  0.0241
   52CHL1    H6 4964   6.220   1.062   2.476  0.3361  0.4999  0.6692
   52CHL1    C7 4965   6.252   0.971   2.679  0.0485  0.5798 -0.2297
   52CHL1   H7A 4966   6.285   1.070   2.719  3.3712 -0.7323  0.5868
   52CHL1   H7B 4967   6.144   0.955   2.701 -0.2497 -1.5274 -2.7682
   52CHL1    C8 4968   6.341   0.865   2.743  0.3304 -0.2606 -0.6357
   52CHL1    H8 4969   6.449   0.874   2.719  0.5534 -0.2165  0.3417
   52CHL1   C14 4970   6.312   0.857   2.896  0.2095 -0.0387  0.5708
   52CHL1   H14 4971   6.203   0.836   2.898  0.2140  0.0052  1.2835
   52CHL1   C15 4972   6.318   0.977   2.986 -0.2991  0.1001  0.2479
   52CHL1  H15A 4973   6.419   1.023   2.976  0.1769 -1.1297 -0.9800
   52CHL1  H15B 4974   6.247   1.062   2.977  1.0353  1.1219 -0.9759
   52CHL1   C16 4975   6.311   0.914   3.126 -0.3801  0.0253 -0.3388
   52CHL1  H16A 4976   6.396   0.954   3.186 -0.4206 -0.1969 -0.1321
   52CHL1  H16B 4977   6.220   0.928   3.188  0.5343  2.2103  0.6234
   52CHL1   C17 4978   6.341   0.758   3.115  0.0511  0.0800  0.4173
   52CHL1   H17 4979   6.243   0.706   3.120  0.3159 -0.3378  1.4409
   52CHL1   C13 4980   6.382   0.743   2.972 -0.1753  0.3941  0.4039
   52CHL1   C18 4981   6.532   0.770   2.965 -0.8097 -0.2160  0.2347
   52CHL1  H18A 4982   6.571   0.797   2.865  0.0233 -2.9178 -0.2674
   52CHL1  H18B 4983   6.554   0.854   3.034  1.3976 -0.0863 -0.5620
   52CHL1  H18C 4984   6.582   0.676   2.998 -0.8940 -1.3156 -2.5640
   52CHL1   C12 4985   6.331   0.617   2.901 -0.0912  0.2963  0.0451
   52CHL1  H12A 4986   6.383   0.528   2.942  1.5954  0.3515 -1.8124
   52CHL1  H12B 4987   6.221   0.602   2.911  0.1716 -1.4603  0.6335
   52CHL1   C11 4988   6.360   0.615   2.749 -0.5160 -0.1780  0.3032
   52CHL1  H11A 4989   6.471   0.611   2.750 -0.3117  2.4979 -1.5998
   52CHL1  H11B 4990   6.316   0.518   2.716 -0.0154 -0.2327 -0.2182
   52CHL1    C9 4991   6.303   0.735   2.676  0.4314 -0.4174  0.6108
   52CHL1    H9 4992   6.193   0.737   2.684  0.3594  0.3096 -0.3058
   52CHL1   C10 4993   6.337   0.738   2.520  0.5538  0.1134 -0.4368
   52CHL1   C19 4994   6.491   0.734   2.503 -0.2568  0.4347 -0.1060
   52CHL1  H19A 4995   6.541   0.641   2.537  2.4182  0.1069 -4.1889
   52CHL1  H19B 4996   6.502   0.744   2.392 -3.9096  0.1111 -0.5950
   52CHL1  H19C 4997   6.547   0.818   2.550  0.1379  0.0616  0.0971
   52CHL1    C1 4998   6.273   0.611   2.455  0.2436  0.1958  0.0899
   52CHL1   H1A 4999   6.328   0.518   2.479  2.1145  1.4275  0.8001
   52CHL1   H1B 5000   6.166   0.604   2.484  0.5720 -1.0879  1.0562
   52CHL1    C2 5001   6.284   0.608   2.296  0.3660 -0.4477 -0.1355
   52CHL1   H2A 5002   6.225   0.527   2.250  0.8381  0.5318 -2.6149
   52CHL1   H2B 5003   6.388   0.602   2.256  0.2824 -0.3508 -0.3676
   52CHL1   C20 5004   6.428   0.709   3.229 -0.5531 -0.2339 -0.6190
   52CHL1   H20 5005   6.529   0.755   3.223 -0.8298  0.2181 -2.4285
   52CHL1   C21 5006   6.446   0.554   3.224  1.4750  0.1648 -0.0291
   52CHL1  H21A 5007   6.354   0.495   3.204  1.2531 -0.1385  1.6782
   52CHL1  H21B 5008   6.482   0.515   3.322  2.4223  1.7115  0.2635
   52CHL1  H21C 5009   6.520   0.530   3.145  0.8453 -1.4552 -0.1684
   52CHL1   C22 5010   6.374   0.744   3.371  0.1246  0.3292 -0.0209
   52CHL1  H22A 5011   6.344   0.851   3.369  0.1295  0.3218 -0.6421
   52CHL1  H22B 5012   6.288   0.676   3.389  1.1006 -0.9069  0.0566
   52CHL1   C23 5013   6.477   0.744   3.487  0.5242 -0.1479  0.3690
   52CHL1  H23A 5014   6.424   0.737   3.584 -2.1540 -3.7078 -1.1295
   52CHL1  H23B 5015   6.525   0.644   3.484 -1.8265 -1.3154 -1.1277
   52CHL1   C24 5016   6.573   0.867   3.476 -0.0082  0.0033  0.0787
   52CHL1  H24A 5017   6.606   0.876   3.370 -2.5362 -0.5691 -0.8304
   52CHL1  H24B 5018   6.523   0.963   3.499  0.6312 -0.1147  2.1083
   52CHL1   C25 5019   6.694   0.857   3.576  0.3246  0.4759  0.4288
   52CHL1   H25 5020   6.654   0.863   3.680  1.3601 -1.3122  0.9633
   52CHL1   C26 5021   6.778   0.731   3.562 -0.6171 -0.0395 -0.0942
   52CHL1  H26A 5022   6.727   0.642   3.605  1.5126 -0.9834  0.6076
   52CHL1  H26B 5023   6.798   0.692   3.460  0.2860 -1.6724  0.6647
   52CHL1  H26C 5024   6.876   0.746   3.612 -0.2591  0.7778 -1.0203
   52CHL1   C27 5025   6.777   0.992   3.563  0.1699  0.6298  0.1651
   52CHL1  H27A 5026   6.868   0.977   3.626  0.8298 -2.1635 -1.2742
   52CHL1  H27B 5027   6.799   1.004   3.455 -1.3149  1.0628 -0.1131
   52CHL1  H27C 5028   6.721   1.086   3.584 -0.4045  0.4921 -0.7047
   53CHL1    C3 5029   4.666   2.151   2.435 -0.0558  0.0448 -0.7162
   53CHL1    H3 5030   4.596   2.066   2.451  0.2920 -0.2011 -0.4906
   53CHL1    O3 5031   4.691   2.152   2.301 -0.0280 -0.4703  0.4535
   53CHL1   H3' 5032   4.610   2.176   2.256 -0.9917 -2.8679  0.7201
   53CHL1    C4 5033   4.605   2.288   2.470 -0.3766 -0.3857 -0.2651
   53CHL1   H4A 5034   4.673   2.366   2.429  0.6722 -1.2288 -0.1688
   53CHL1   H4B 5035   4.509   2.303   2.416 -0.3565 -2.7243 -1.0349
   53CHL1    C5 5036   4.590   2.295   2.622  0.0171 -0.0946  0.4485
   53CHL1    C6 5037   4.466   2.312   2.675 -0.1554 -0.7635  0.1879
   53CHL1    H6 5038   4.375   2.317   2.612 -0.3032 -1.6813  0.3072
   53CHL1    C7 5039   4.448   2.316   2.821  1.0704 -0.0014 -0.4181
   53CHL1   H7A 5040   4.373   2.395   2.841 -0.1665 -0.6990 -2.0053
   53CHL1   H7B 5041   4.398   2.227   2.866 -1.1017  0.6273 -1.4205
   53CHL1    C8 5042   4.572   2.358   2.898 -0.5022 -0.2458 -0.0848
   53CHL1    H8 5043   4.598   2.462   2.869 -1.6926  0.6411  1.8247
   53CHL1   C14 5044   4.553   2.337   3.048 -0.0990 -0.1741  0.1018
   53CHL1   H14 5045   4.537   2.228   3.064 -0.0014  0.0517  1.8255
   53CHL1   C15 5046   4.434   2.403   3.115  0.3798 -0.4978 -1.0312
   53CHL1  H15A 5047   4.427   2.507   3.076  0.8370 -0.6931 -1.6583
   53CHL1  H15B 5048   4.338   2.353   3.091 -1.1161  1.1215  1.2282
   53CHL1   C16 5049   4.467   2.388   3.263 -0.1408 -0.9904  0.9663
   53CHL1  H16A 5050   4.434   2.480   3.315 -0.1103  0.3288 -1.2258
   53CHL1  H16B 5051   4.417   2.297   3.300 -0.5080 -1.6883 -1.0883
   53CHL1   C17 5052   4.617   2.358   3.272 -0.1514  0.2324 -0.0717
   53CHL1   H17 5053   4.629   2.248   3.283 -0.4375  0.4030  2.8572
   53CHL1   C13 5054   4.678   2.379   3.134 -0.2580 -0.9678  0.1977
   53CHL1   C18 5055   4.694   2.536   3.121  0.3335  0.5986 -0.2953
   53CHL1  H18A 5056   4.602   2.593   3.148 -0.1530 -1.4041  2.8184
   53CHL1  H18B 5057   4.768   2.566   3.199  0.2350 -0.9780  0.4299
   53CHL1  H18C 5058   4.729   2.554   3.018 -0.1526 -0.4862 -0.6621
   53CHL1   C12 5059   4.800   2.296   3.087 -0.8627  0.0589 -0.1115
   53CHL1  H12A 5060   4.894   2.325   3.139  0.0616 -3.9277  0.7691
   53CHL1  H12B 5061   4.796   2.191   3.123  0.9421 -0.4365 -1.2719
   53CHL1   C11 5062   4.820   2.299   2.935 -0.1708  0.7723 -0.5050
   53CHL1  H11A 5063   4.854   2.405   2.932 -1.8519  1.4037  0.8105
   53CHL1  H11B 5064   4.906   2.238   2.901  0.3490  2.3826 -2.2917
   53CHL1    C9 5065   4.696   2.273   2.853 -0.0153 -0.6023 -0.1823
   53CHL1    H9 5066   4.675   2.171   2.892 -0.2484  0.6302  3.2353
   53CHL1   C10 5067   4.721   2.279   2.693  0.1603 -0.2458  0.3363
   53CHL1   C19 5068   4.820   2.395   2.675  0.0652  0.1844 -0.7628
   53CHL1  H19A 5069   4.785   2.482   2.735  0.2023 -1.3412  1.6439
   53CHL1  H19B 5070   4.919   2.363   2.712 -0.2619 -0.1957 -0.2011
   53CHL1  H19C 5071   4.841   2.428   2.571  1.5900  1.4917 -0.0822
   53CHL1    C1 5072   4.779   2.139   2.658 -0.0096 -0.9965  0.1045
   53CHL1   H1A 5073   4.876   2.121   2.709  0.4161  0.3596 -0.2143
   53CHL1   H1B 5074   4.716   2.053   2.692  0.2436 -1.3620 -0.3512
   53CHL1    C2 5075   4.800   2.128   2.507 -0.1755  0.2021  0.5286
   53CHL1   H2A 5076   4.845   2.037   2.463  0.7575  1.7905 -1.9969
   53CHL1   H2B 5077   4.871   2.205   2.470  0.2373 -0.5640 -0.3131
   53CHL1   C20 5078   4.682   2.421   3.396 -0.3442  0.0805 -0.2396
   53CHL1   H20 5079   4.663   2.528   3.372 -1.0589 -0.1141 -0.5541
   53CHL1   C21 5080   4.835   2.410   3.406 -0.1633  0.4005 -0.0289
   53CHL1  H21A 5081   4.878   2.316   3.447  0.1908  0.8874  0.7343
   53CHL1  H21B 5082   4.875   2.486   3.476 -0.4927 -0.3929  1.0518
   53CHL1  H21C 5083   4.892   2.430   3.313  0.7737 -1.2637  0.1359
   53CHL1   C22 5084   4.613   2.390   3.529  0.5517 -0.4548 -0.0402
   53CHL1  H22A 5085   4.644   2.468   3.601  4.8159  0.3077 -2.3920
   53CHL1  H22B 5086   4.503   2.409   3.531  0.6606  1.0821 -2.9247
   53CHL1   C23 5087   4.650   2.256   3.593 -0.6155  0.1480 -0.0061
   53CHL1  H23A 5088   4.686   2.183   3.518  1.2950 -2.4175  3.0986
   53CHL1  H23B 5089   4.733   2.265   3.667  1.5858 -0.5649 -2.2703
   53CHL1   C24 5090   4.532   2.182   3.661  0.1219  0.5805 -0.0924
   53CHL1  H24A 5091   4.485   2.248   3.737 -2.6218 -0.0718 -1.1232
   53CHL1  H24B 5092   4.449   2.161   3.591  0.4969 -0.0310 -0.3646
   53CHL1   C25 5093   4.575   2.034   3.689  0.7490 -0.8649  0.0932
   53CHL1   H25 5094   4.677   2.024   3.647  0.6722  3.1803 -1.4795
   53CHL1   C26 5095   4.573   1.989   3.832 -0.0216  0.1208 -0.3560
   53CHL1  H26A 5096   4.639   2.049   3.898  0.8200 -1.4930  0.3325
   53CHL1  H26B 5097   4.472   1.984   3.879  0.1478 -2.2098 -0.1122
   53CHL1  H26C 5098   4.618   1.887   3.841  1.0833  0.4949 -1.3850
   53CHL1   C27 5099   4.486   1.945   3.603 -0.7213 -0.3582  0.0217
   53CHL1  H27A 5100   4.515   1.838   3.615 -0.3428 -0.2805 -0.1868
   53CHL1  H27B 5101   4.376   1.947   3.616 -1.0215 -1.3703 -2.0599
   53CHL1  H27C 5102   4.492   1.966   3.494  0.4289 -2.1458 -0.3096
   54CHL1    C3 5103   6.515   3.708   2.364  0.1975 -0.1627  0.5932
   54CHL1    H3 5104   6.473   3.614   2.405 -0.6657 -0.6018 -1.1877
   54CHL1    O3 5105   6.530   3.704   2.225  0.7137 -0.1548  0.1506
   54CHL1   H3' 5106   6.440   3.705   2.192  0.6568 -0.2048  0.3041
   54CHL1    C4 5107   6.426   3.832   2.405 -0.7399  0.5886  0.2473
   54CHL1   H4A 5108   6.464   3.916   2.341  0.6379  1.0777  1.6353
   54CHL1   H4B 5109   6.327   3.801   2.365  0.4793  0.1420 -2.7614
   54CHL1    C5 5110   6.425   3.862   2.548  1.3358  0.3043 -0.2945
   54CHL1    C6 5111   6.311   3.870   2.623 -0.6029 -0.8152  0.2508
   54CHL1    H6 5112   6.214   3.865   2.571 -0.7562  0.2982  0.4103
   54CHL1    C7 5113   6.301   3.909   2.769  0.1692 -0.0510  0.1079
   54CHL1   H7A 5114   6.219   3.982   2.784 -0.8716 -0.6626 -2.1034
   54CHL1   H7B 5115   6.283   3.819   2.831 -0.6067  1.2059  1.7887
   54CHL1    C8 5116   6.438   3.973   2.818 -0.1880  0.0168 -0.3096
   54CHL1    H8 5117   6.452   4.080   2.789  1.1068 -0.2489 -0.7168
   54CHL1   C14 5118   6.449   3.970   2.974  0.3054  0.4780  0.0126
   54CHL1   H14 5119   6.445   3.859   2.986 -0.8592  0.3653 -1.1972
   54CHL1   C15 5120   6.330   4.021   3.054 -0.5397  0.5849 -0.3946
   54CHL1  H15A 5121   6.286   4.116   3.017 -1.1214 -0.2299 -1.8397
   54CHL1  H15B 5122   6.248   3.947   3.057 -1.5994  1.7596  0.8804
   54CHL1   C16 5123   6.384   4.050   3.194  0.2929  0.6403 -0.0366
   54CHL1  H16A 5124   6.355   4.155   3.214 -0.5961  0.6796 -1.3672
   54CHL1  H16B 5125   6.330   3.980   3.262  0.9777 -1.2026 -1.3049
   54CHL1   C17 5126   6.542   4.024   3.177 -0.1181 -0.0997 -0.3286
   54CHL1   H17 5127   6.564   3.917   3.199  0.4993  0.5738  2.8105
   54CHL1   C13 5128   6.575   4.027   3.024 -0.1276  0.2236  0.8872
   54CHL1   C18 5129   6.581   4.176   2.986 -0.4297 -0.5253  0.0719
   54CHL1  H18A 5130   6.489   4.220   3.031  0.5471  1.7760 -0.0837
   54CHL1  H18B 5131   6.660   4.238   3.033  0.9477 -0.7689 -1.8408
   54CHL1  H18C 5132   6.591   4.188   2.876  1.6946  0.5819  0.3453
   54CHL1   C12 5133   6.700   3.949   2.974 -0.8425  0.7736  0.3485
   54CHL1  H12A 5134   6.792   3.996   3.014 -2.0605  1.1522  2.9340
   54CHL1  H12B 5135   6.685   3.843   3.003  0.2208 -0.3661 -2.8204
   54CHL1   C11 5136   6.693   3.948   2.822  0.2225  0.2319 -0.1150
   54CHL1  H11A 5137   6.722   4.045   2.775  2.0867 -2.0325 -4.1142
   54CHL1  H11B 5138   6.771   3.878   2.786 -0.5769  0.3440 -2.2184
   54CHL1    C9 5139   6.560   3.894   2.764  0.2673 -0.8894 -0.7116
   54CHL1    H9 5140   6.544   3.794   2.810 -0.6864 -1.2629 -1.8256
   54CHL1   C10 5141   6.562   3.886   2.609 -0.0539 -0.1587 -0.0224
   54CHL1   C19 5142   6.615   4.019   2.536 -0.2099  0.6991 -0.9162
   54CHL1  H19A 5143   6.546   4.102   2.563 -0.5968 -0.1358  0.8455
   54CHL1  H19B 5144   6.714   4.057   2.572 -1.2397  2.0554  0.6762
   54CHL1  H19C 5145   6.641   4.020   2.428  1.6927 -1.5281 -0.5548
   54CHL1    C1 5146   6.652   3.764   2.577 -0.1794 -0.3059  0.2117
   54CHL1   H1A 5147   6.758   3.782   2.604 -0.3654  0.1676  0.6474
   54CHL1   H1B 5148   6.617   3.684   2.647  0.9277  0.1797  1.3587
   54CHL1    C2 5149   6.657   3.727   2.427  0.1843  0.4464  0.1132
   54CHL1   H2A 5150   6.724   3.640   2.411  1.8936  1.9703 -1.5659
   54CHL1   H2B 5151   6.719   3.802   2.374  1.5861 -1.7242 -1.4961
   54CHL1   C20 5152   6.626   4.100   3.282  0.3133 -0.7329 -0.6119
   54CHL1   H20 5153   6.625   4.209   3.260  1.4352 -0.7014 -0.5871
   54CHL1   C21 5154   6.772   4.046   3.272 -0.6059 -0.6448  0.2434
   54CHL1  H21A 5155   6.840   4.081   3.352  0.4106 -1.6655 -0.1337
   54CHL1  H21B 5156   6.811   4.094   3.180 -0.9259  1.0964  0.9862
   54CHL1  H21C 5157   6.769   3.935   3.282 -1.5305 -0.5458  1.1939
   54CHL1   C22 5158   6.590   4.074   3.430  0.7056 -0.6513 -0.3804
   54CHL1  H22A 5159   6.537   3.977   3.433 -0.0064 -0.2457  0.5613
   54CHL1  H22B 5160   6.679   4.065   3.495  0.3499  0.8389  0.3640
   54CHL1   C23 5161   6.491   4.178   3.497 -0.7220 -0.1695  0.5473
   54CHL1  H23A 5162   6.539   4.277   3.505  0.2260 -0.7194  2.0539
   54CHL1  H23B 5163   6.405   4.187   3.427 -0.0661 -1.6484 -0.5182
   54CHL1   C24 5164   6.445   4.126   3.629  0.3167 -0.1355 -0.0459
   54CHL1  H24A 5165   6.419   4.018   3.619  0.1047  0.0932 -2.6439
   54CHL1  H24B 5166   6.531   4.119   3.699 -1.2665  0.2905  2.0356
   54CHL1   C25 5167   6.337   4.215   3.692 -0.1724  0.5415 -0.1891
   54CHL1   H25 5168   6.255   4.219   3.617  1.4659 -0.9490 -2.1756
   54CHL1   C26 5169   6.287   4.155   3.829  0.0626 -0.3552  0.7243
   54CHL1  H26A 5170   6.193   4.205   3.861  0.8369  0.0457  2.4473
   54CHL1  H26B 5171   6.255   4.050   3.812 -0.5282 -0.2491  1.1810
   54CHL1  H26C 5172   6.362   4.159   3.910 -1.2066 -0.2436  1.9207
   54CHL1   C27 5173   6.385   4.362   3.701  0.0643  0.8161 -0.0647
   54CHL1  H27A 5174   6.390   4.405   3.598 -4.0459 -0.0007 -0.7764
   54CHL1  H27B 5175   6.313   4.420   3.762 -2.9681 -0.2401 -2.3898
   54CHL1  H27C 5176   6.484   4.373   3.750 -0.4145  2.0687  0.6609
   55CHL1    C3 5177   2.738   6.428   1.942 -0.2357  0.1650  0.0443
   55CHL1    H3 5178   2.715   6.522   1.996 -0.5745 -0.4913  1.0594
   55CHL1    O3 5179   2.753   6.446   1.802 -0.1711  0.1111 -0.0176
   55CHL1   H3' 5180   2.756   6.354   1.774  0.2445 -0.1267  0.7491
   55CHL1    C4 5181   2.867   6.366   2.004 -0.4536 -0.2731  0.0345
   55CHL1   H4A 5182   2.890   6.277   1.942  0.1116 -0.0487 -0.0861
   55CHL1   H4B 5183   2.956   6.432   1.989 -1.8949  1.8798  0.5091
   55CHL1    C5 5184   2.858   6.316   2.145  0.9738 -0.7027 -0.0530
   55CHL1    C6 5185   2.932   6.366   2.241  0.1725 -0.3428 -0.2886
   55CHL1    H6 5186   3.006   6.442   2.212  2.2907 -1.0907  2.6336
   55CHL1    C7 5187   2.915   6.345   2.389  0.7966 -0.7148  0.5477
   55CHL1   H7A 5188   3.016   6.340   2.435  1.1390 -0.3408 -0.1484
   55CHL1   H7B 5189   2.865   6.431   2.440  1.2023 -0.2926  0.2443
   55CHL1    C8 5190   2.834   6.220   2.419 -0.8452  0.3886  0.9390
   55CHL1    H8 5191   2.897   6.133   2.390 -1.3874  0.5826 -0.9490
   55CHL1   C14 5192   2.796   6.213   2.557  0.3984 -0.2859 -0.1320
   55CHL1   H14 5193   2.738   6.302   2.589 -2.2690 -1.6320 -0.9655
   55CHL1   C15 5194   2.909   6.210   2.661  0.2962 -0.0739 -0.3842
   55CHL1  H15A 5195   2.999   6.157   2.625  1.5119  2.1867 -0.8517
   55CHL1  H15B 5196   2.939   6.314   2.686  0.1674 -0.1726  0.1884
   55CHL1   C16 5197   2.852   6.149   2.791 -0.2497 -0.3662 -0.5760
   55CHL1  H16A 5198   2.908   6.064   2.835  1.1830  0.2123 -1.2381
   55CHL1  H16B 5199   2.836   6.229   2.866  0.3320 -1.3745  0.6529
   55CHL1   C17 5200   2.710   6.106   2.758  0.4950 -0.2292 -0.5768
   55CHL1   H17 5201   2.636   6.187   2.776 -0.6583 -1.3410 -0.1910
   55CHL1   C13 5202   2.700   6.100   2.608 -0.0381  0.2626  0.3873
   55CHL1   C18 5203   2.768   5.969   2.562  0.7721  0.1704 -1.1067
   55CHL1  H18A 5204   2.709   5.877   2.585  0.1243  0.8658  0.0808
   55CHL1  H18B 5205   2.785   5.964   2.452 -0.1977  2.3026 -1.3974
   55CHL1  H18C 5206   2.868   5.948   2.606 -0.1632 -3.0825 -0.1972
   55CHL1   C12 5207   2.575   6.126   2.533  0.5325  0.5690 -0.5801
   55CHL1  H12A 5208   2.507   6.043   2.561 -0.1209  1.2221 -0.1774
   55CHL1  H12B 5209   2.522   6.221   2.555  0.2992  0.4148 -0.4728
   55CHL1   C11 5210   2.591   6.121   2.378  0.0415 -0.0645 -0.3396
   55CHL1  H11A 5211   2.620   6.018   2.350  1.5591  0.6099 -1.4025
   55CHL1  H11B 5212   2.499   6.159   2.329  0.5576  0.6573 -0.7665
   55CHL1    C9 5213   2.705   6.214   2.326  0.3105 -1.2317 -0.3377
   55CHL1    H9 5214   2.670   6.316   2.351  0.9347 -0.9206 -0.6998
   55CHL1   C10 5215   2.728   6.225   2.182 -0.9997 -0.0920  0.7779
   55CHL1   C19 5216   2.748   6.076   2.139 -0.1900 -0.6423 -0.1045
   55CHL1  H19A 5217   2.650   6.030   2.160 -0.3641 -0.5233 -0.6421
   55CHL1  H19B 5218   2.773   6.066   2.031 -0.3682 -3.2241  0.0345
   55CHL1  H19C 5219   2.824   6.030   2.206 -0.9281 -0.9356  0.5354
   55CHL1    C1 5220   2.594   6.276   2.112 -0.1740 -0.7872  0.3767
   55CHL1   H1A 5221   2.514   6.200   2.103 -0.3748 -0.7011  1.3208
   55CHL1   H1B 5222   2.547   6.358   2.171 -3.0223 -1.9888 -0.1025
   55CHL1    C2 5223   2.617   6.333   1.965 -0.3979 -0.2127  0.1128
   55CHL1   H2A 5224   2.524   6.388   1.938  0.0604 -0.4118 -2.0387
   55CHL1   H2B 5225   2.632   6.248   1.896 -0.5004  0.5566 -0.8785
   55CHL1   C20 5226   2.657   5.985   2.843 -0.1061  0.1754 -0.1802
   55CHL1   H20 5227   2.706   5.891   2.810 -0.4512  0.1415 -0.6158
   55CHL1   C21 5228   2.505   5.956   2.819  1.2261 -0.3602  0.3805
   55CHL1  H21A 5229   2.476   5.897   2.729 -1.8873  1.1942  0.2191
   55CHL1  H21B 5230   2.451   6.053   2.812  0.2408 -0.9687 -0.7639
   55CHL1  H21C 5231   2.468   5.895   2.905  0.7018 -1.6552 -0.7394
   55CHL1   C22 5232   2.684   5.996   2.993 -0.4349  0.5559 -0.6292
   55CHL1  H22A 5233   2.649   5.904   3.044  2.7645 -0.8674 -0.7250
   55CHL1  H22B 5234   2.794   5.990   3.013 -0.4487 -0.9938 -0.8600
   55CHL1   C23 5235   2.620   6.113   3.069  0.0233 -1.1977 -0.1935
   55CHL1  H23A 5236   2.671   6.209   3.043 -0.5234 -0.5995  0.8427
   55CHL1  H23B 5237   2.513   6.123   3.040 -0.0704  0.0646  0.4940
   55CHL1   C24 5238   2.619   6.105   3.222 -0.5847 -0.2859  0.1172
   55CHL1  H24A 5239   2.555   6.185   3.263 -0.5688 -1.3535  2.4028
   55CHL1  H24B 5240   2.575   6.005   3.242 -2.4479  0.2235 -1.2061
   55CHL1   C25 5241   2.757   6.116   3.288  0.0828 -0.3359  0.4466
   55CHL1   H25 5242   2.819   6.053   3.220  0.2687 -1.2236  1.4119
   55CHL1   C26 5243   2.807   6.258   3.292 -0.7701  0.4405  0.1152
   55CHL1  H26A 5244   2.901   6.254   3.351 -0.6500  0.9014 -0.0411
   55CHL1  H26B 5245   2.844   6.304   3.198  1.4977 -2.0844 -0.3449
   55CHL1  H26C 5246   2.735   6.331   3.335 -2.1523  0.8133 -2.5846
   55CHL1   C27 5247   2.747   6.060   3.429 -0.3709  0.4021  0.4806
   55CHL1  H27A 5248   2.841   6.079   3.486  0.6920  1.6519 -1.5952
   55CHL1  H27B 5249   2.658   6.099   3.483 -0.8334 -2.7068  2.2212
   55CHL1  H27C 5250   2.726   5.952   3.415 -2.6771  0.4109  2.9177
   56CHL1    C3 5251   4.293   6.436   2.146  0.9331  0.5121  0.2871
   56CHL1    H3 5252   4.378   6.369   2.117  0.3125 -0.6799  1.1409
   56CHL1    O3 5253   4.229   6.479   2.027 -0.3403  0.0718 -0.1027
   56CHL1   H3' 5254   4.136   6.462   2.047 -0.6694  2.2261  0.4144
   56CHL1    C4 5255   4.190   6.355   2.232  0.7060  0.5813  0.2647
   56CHL1   H4A 5256   4.109   6.431   2.240  0.3671  0.5524 -2.0261
   56CHL1   H4B 5257   4.150   6.272   2.170  0.4286  2.1546 -1.7706
   56CHL1    C5 5258   4.236   6.307   2.369 -0.3978  0.5698  0.4286
   56CHL1    C6 5259   4.216   6.183   2.416  0.5921 -0.6878 -0.1155
   56CHL1    H6 5260   4.158   6.116   2.351 -0.0012  1.2615 -1.6896
   56CHL1    C7 5261   4.257   6.141   2.554 -0.5010 -0.7788 -0.2741
   56CHL1   H7A 5262   4.182   6.065   2.583  1.1014 -2.9534 -1.4791
   56CHL1   H7B 5263   4.356   6.091   2.544  0.6649  1.5003 -0.9179
   56CHL1    C8 5264   4.292   6.251   2.649 -0.1090 -0.2872 -0.4836
   56CHL1    H8 5265   4.195   6.298   2.679 -0.8295 -0.7442 -1.9926
   56CHL1   C14 5266   4.370   6.202   2.771 -0.7852 -0.0736  0.1410
   56CHL1   H14 5267   4.470   6.184   2.726 -1.7852  0.0087 -2.2434
   56CHL1   C15 5268   4.326   6.070   2.846 -0.7878 -0.0763 -0.5276
   56CHL1  H15A 5269   4.216   6.077   2.865 -0.6736 -3.7905  2.8051
   56CHL1  H15B 5270   4.366   5.970   2.821 -0.8766  0.4005 -2.7073
   56CHL1   C16 5271   4.380   6.087   2.990  0.1286 -0.4735 -0.2316
   56CHL1  H16A 5272   4.305   6.093   3.072  2.3548  2.9255  1.8286
   56CHL1  H16B 5273   4.449   6.006   3.019 -0.8054 -1.1227  0.2500
   56CHL1   C17 5274   4.452   6.225   2.984  0.8200  1.4387  0.0203
   56CHL1   H17 5275   4.555   6.210   2.945  0.9365 -0.4039  0.9611
   56CHL1   C13 5276   4.386   6.311   2.875  0.5511 -0.3558 -0.8814
   56CHL1   C18 5277   4.253   6.366   2.929 -0.4176 -0.0408 -0.4166
   56CHL1  H18A 5278   4.198   6.412   2.844  2.2305 -0.6638 -2.6262
   56CHL1  H18B 5279   4.186   6.293   2.978  0.0798 -1.3704 -1.6432
   56CHL1  H18C 5280   4.277   6.451   2.996  0.3780  1.7821 -2.8683
   56CHL1   C12 5281   4.464   6.430   2.813 -0.6529 -0.0919 -1.1400
   56CHL1  H12A 5282   4.487   6.516   2.880  1.4200 -0.5260 -1.2349
   56CHL1  H12B 5283   4.566   6.393   2.788  2.0599  4.2541  2.1351
   56CHL1   C11 5284   4.412   6.476   2.684  0.7016 -0.8065  0.6127
   56CHL1  H11A 5285   4.322   6.538   2.706  0.0043 -0.1637 -3.3075
   56CHL1  H11B 5286   4.478   6.544   2.627  2.0949 -1.8460  0.9303
   56CHL1    C9 5287   4.371   6.366   2.585 -0.0817 -0.0793 -0.3071
   56CHL1    H9 5288   4.467   6.323   2.548  1.3767  0.8469  2.1425
   56CHL1   C10 5289   4.298   6.420   2.451 -0.4445 -0.2823 -0.0216
   56CHL1   C19 5290   4.192   6.519   2.498  0.0054  0.3299  0.6367
   56CHL1  H19A 5291   4.125   6.545   2.413  0.9953  0.6882 -0.0385
   56CHL1  H19B 5292   4.133   6.475   2.582  1.3000 -0.5441  1.1138
   56CHL1  H19C 5293   4.227   6.619   2.531 -0.6759  1.2913 -1.3747
   56CHL1    C1 5294   4.400   6.489   2.358 -0.1712 -0.4521  0.1001
   56CHL1   H1A 5295   4.442   6.567   2.426  1.9302 -2.0119  0.6924
   56CHL1   H1B 5296   4.483   6.419   2.333  0.1347 -0.5766  1.4149
   56CHL1    C2 5297   4.342   6.551   2.232 -0.3496  0.5658  0.8919
   56CHL1   H2A 5298   4.424   6.606   2.180 -0.9831  2.1641  1.5189
   56CHL1   H2B 5299   4.265   6.626   2.260 -1.0685  0.2058 -0.0426
   56CHL1   C20 5300   4.465   6.297   3.120  0.0934  0.0872 -0.1165
   56CHL1   H20 5301   4.369   6.336   3.159  0.4911  0.7025  0.2667
   56CHL1   C21 5302   4.582   6.400   3.107 -0.2407 -0.0510  0.1662
   56CHL1  H21A 5303   4.615   6.441   3.205  0.0712 -1.7650  0.8144
   56CHL1  H21B 5304   4.565   6.492   3.046 -1.3369  1.1662  2.1818
   56CHL1  H21C 5305   4.670   6.342   3.073 -1.6451 -2.6019  0.6328
   56CHL1   C22 5306   4.510   6.196   3.235  0.0744  0.0331 -0.2212
   56CHL1  H22A 5307   4.458   6.098   3.239 -2.2879  1.2023  3.4689
   56CHL1  H22B 5308   4.613   6.166   3.210 -0.2023 -0.5421 -0.6934
   56CHL1   C23 5309   4.503   6.254   3.378 -0.2488 -0.2568  0.5000
   56CHL1  H23A 5310   4.570   6.342   3.393  1.2841 -0.7482 -2.5740
   56CHL1  H23B 5311   4.404   6.299   3.399  0.3755  1.6013 -0.2775
   56CHL1   C24 5312   4.548   6.146   3.475  0.0379  0.3928  0.7853
   56CHL1  H24A 5313   4.476   6.062   3.464  0.2215  0.0784  1.8417
   56CHL1  H24B 5314   4.650   6.113   3.447  0.8289  2.0578  1.5749
   56CHL1   C25 5315   4.553   6.180   3.626 -0.1477  0.1662 -0.0700
   56CHL1   H25 5316   4.450   6.172   3.668  0.4736 -2.2509  1.2042
   56CHL1   C26 5317   4.619   6.072   3.706 -0.1278  1.1911 -0.4466
   56CHL1  H26A 5318   4.571   5.972   3.697  0.7527  0.5572  1.3734
   56CHL1  H26B 5319   4.724   6.061   3.671  0.0145  0.6215  0.1427
   56CHL1  H26C 5320   4.622   6.089   3.816 -0.2923  2.0145 -0.5584
   56CHL1   C27 5321   4.599   6.318   3.658 -0.3857 -0.4630 -0.0647
   56CHL1  H27A 5322   4.544   6.405   3.615 -1.4373 -0.1631  1.7949
   56CHL1  H27B 5323   4.610   6.334   3.767 -0.9931 -0.5906  0.0177
   56CHL1  H27C 5324   4.706   6.321   3.630 -0.2399  1.1511  0.5241
   57CHL1    C3 5325   3.733   6.046   2.210 -0.7278 -0.0042  1.1646
   57CHL1    H3 5326   3.644   6.110   2.224 -1.3425 -0.7504  0.7829
   57CHL1    O3 5327   3.756   6.044   2.066  0.2980 -0.3356  0.1809
   57CHL1   H3' 5328   3.792   5.955   2.056  2.4324  0.3177  1.3449
   57CHL1    C4 5329   3.853   6.099   2.285  0.0804 -0.1874  0.3874
   57CHL1   H4A 5330   3.939   6.036   2.254 -1.9969 -2.4088 -1.2035
   57CHL1   H4B 5331   3.876   6.201   2.248 -1.0874  0.1664  0.5885
   57CHL1    C5 5332   3.828   6.097   2.435  0.2968 -0.3854  0.6493
   57CHL1    C6 5333   3.813   6.210   2.507 -0.1793  0.4037 -0.2595
   57CHL1    H6 5334   3.804   6.302   2.447  0.1496 -0.1892 -1.2439
   57CHL1    C7 5335   3.810   6.209   2.658 -0.7172  0.1753 -0.5837
   57CHL1   H7A 5336   3.898   6.270   2.690  0.2827 -1.8228  0.6710
   57CHL1   H7B 5337   3.717   6.251   2.701  0.7053  0.3567  2.5274
   57CHL1    C8 5338   3.838   6.066   2.716 -0.0254 -0.6305 -0.4251
   57CHL1    H8 5339   3.947   6.052   2.701  0.0901  0.1274 -0.3635
   57CHL1   C14 5340   3.807   6.063   2.866  0.3059 -0.9567  0.1292
   57CHL1   H14 5341   3.699   6.087   2.876  0.6237  1.2210 -1.0930
   57CHL1   C15 5342   3.873   6.167   2.953 -0.9708 -0.1699  0.4532
   57CHL1  H15A 5343   3.980   6.185   2.928 -0.5646 -2.8301 -0.0524
   57CHL1  H15B 5344   3.829   6.269   2.943  0.9492  0.7191  0.6684
   57CHL1   C16 5345   3.857   6.114   3.098  0.0854  0.3595  0.2077
   57CHL1  H16A 5346   3.951   6.101   3.156  0.6739 -0.6068 -0.9285
   57CHL1  H16B 5347   3.788   6.194   3.135 -0.8034 -0.7912  1.1187
   57CHL1   C17 5348   3.792   5.975   3.085  0.5859  0.1632 -0.9783
   57CHL1   H17 5349   3.683   5.990   3.097  0.7639  0.0944  0.9902
   57CHL1   C13 5350   3.820   5.930   2.941 -0.2357  0.2263 -0.1184
   57CHL1   C18 5351   3.972   5.897   2.926 -0.6214 -0.1317  0.8186
   57CHL1  H18A 5352   4.038   5.963   2.988 -1.0705 -0.3414  1.5366
   57CHL1  H18B 5353   3.970   5.794   2.968 -3.3094 -0.0982  0.9674
   57CHL1  H18C 5354   4.008   5.894   2.821  3.0310 -0.9205  1.9443
   57CHL1   C12 5355   3.726   5.837   2.866  0.2258 -0.2166 -0.1762
   57CHL1  H12A 5356   3.724   5.741   2.921  2.1091  1.1849  2.5822
   57CHL1  H12B 5357   3.621   5.872   2.862  0.9671  2.1400 -3.4168
   57CHL1   C11 5358   3.765   5.818   2.718  0.1409 -0.3568 -0.1018
   57CHL1  H11A 5359   3.863   5.764   2.718  1.3192  1.6611 -0.4775
   57CHL1  H11B 5360   3.687   5.757   2.668  1.4967  0.8982 -4.1839
   57CHL1    C9 5361   3.764   5.954   2.640  0.1834 -0.1147 -0.0239
   57CHL1    H9 5362   3.659   5.990   2.639 -0.2084 -1.1854  0.8172
   57CHL1   C10 5363   3.811   5.956   2.493 -1.3774  0.8619 -0.0707
   57CHL1   C19 5364   3.943   5.875   2.486 -0.7360  0.4258 -0.3684
   57CHL1  H19A 5365   3.911   5.769   2.492 -2.3515  0.9757  1.4932
   57CHL1  H19B 5366   4.005   5.882   2.394  0.8176  0.4985  0.6519
   57CHL1  H19C 5367   4.005   5.895   2.576 -0.7393  0.1802 -0.3113
   57CHL1    C1 5368   3.703   5.892   2.404 -0.3013 -0.0089 -0.7650
   57CHL1   H1A 5369   3.711   5.783   2.424 -1.4950  0.2724  1.5929
   57CHL1   H1B 5370   3.600   5.926   2.426 -0.6456 -2.0514  1.1151
   57CHL1    C2 5371   3.719   5.899   2.248 -0.5597  0.5461 -0.7858
   57CHL1   H2A 5372   3.639   5.848   2.191  0.5518 -0.5402 -1.4107
   57CHL1   H2B 5373   3.813   5.841   2.238 -0.7016 -0.8397  3.6144
   57CHL1   C20 5374   3.835   5.884   3.206 -0.1043 -0.3542  0.0564
   57CHL1   H20 5375   3.946   5.880   3.212 -0.0964  0.0298  0.1950
   57CHL1   C21 5376   3.789   5.744   3.179  0.0173  0.8204  0.3347
   57CHL1  H21A 5377   3.679   5.748   3.164  0.0132  1.4862  0.5078
   57CHL1  H21B 5378   3.808   5.675   3.264 -2.2757 -0.1453  0.1278
   57CHL1  H21C 5379   3.840   5.709   3.087 -2.7839 -0.2542 -0.9003
   57CHL1   C22 5380   3.781   5.932   3.347  0.2358 -0.0192 -0.1672
   57CHL1  H22A 5381   3.786   6.043   3.350 -0.5898 -0.0003  1.3983
   57CHL1  H22B 5382   3.673   5.904   3.355 -0.0301 -0.3906 -3.3596
   57CHL1   C23 5383   3.848   5.871   3.462 -0.0886  0.3687 -0.1332
   57CHL1  H23A 5384   3.805   5.901   3.560  1.0655 -4.1288  2.0136
   57CHL1  H23B 5385   3.843   5.760   3.460  1.7648  0.1959  1.7578
   57CHL1   C24 5386   3.995   5.906   3.481  0.3999  0.0088  0.0982
   57CHL1  H24A 5387   4.016   5.872   3.585 -0.9617  0.1632  0.4438
   57CHL1  H24B 5388   4.053   5.855   3.402 -0.7123 -0.2275 -0.5844
   57CHL1   C25 5389   4.040   6.060   3.481  0.0833  0.5499  0.3879
   57CHL1   H25 5390   4.010   6.098   3.381 -0.9806 -1.4072 -0.0923
   57CHL1   C26 5391   3.967   6.140   3.592 -0.4889  0.4137  0.5095
   57CHL1  H26A 5392   3.989   6.249   3.593  1.7509  0.1216 -2.5491
   57CHL1  H26B 5393   3.857   6.131   3.583 -0.3283 -0.5863 -0.7646
   57CHL1  H26C 5394   3.991   6.086   3.686 -1.8436 -1.4397 -0.1544
   57CHL1   C27 5395   4.192   6.070   3.509 -1.2944 -0.4052 -0.1886
   57CHL1  H27A 5396   4.225   6.171   3.478  1.3490 -0.5930  1.6604
   57CHL1  H27B 5397   4.220   6.055   3.615  1.3877  3.3189 -0.1926
   57CHL1  H27C 5398   4.246   5.999   3.443 -1.0871 -0.2223 -0.2151
   58CHL1    C3 5399   3.903   0.343   2.575 -0.3932  0.6780 -0.3141
   58CHL1    H3 5400   3.825   0.422   2.570 -0.0951  0.9232 -1.2393
   58CHL1    O3 5401   3.942   0.309   2.445  0.4817  0.0393  0.5452
   58CHL1   H3' 5402   3.855   0.288   2.412 -0.5702  1.0302  2.5090
   58CHL1    C4 5403   4.028   0.389   2.654 -0.0906 -0.1914  0.1699
   58CHL1   H4A 5404   4.098   0.302   2.645  0.3198  0.1455  0.0744
   58CHL1   H4B 5405   4.079   0.473   2.603  0.1802  0.2886  1.1971
   58CHL1    C5 5406   3.981   0.404   2.799  0.1314 -0.8574  0.1100
   58CHL1    C6 5407   3.991   0.528   2.849  0.3214  0.6794  0.3113
   58CHL1    H6 5408   4.039   0.603   2.785 -0.3352  0.9313  0.1091
   58CHL1    C7 5409   3.963   0.558   2.997  0.1775 -0.1895  0.6636
   58CHL1   H7A 5410   4.035   0.633   3.037 -0.6643  0.0842  1.7095
   58CHL1   H7B 5411   3.864   0.606   3.009  0.4550 -0.1077  3.2658
   58CHL1    C8 5412   3.965   0.438   3.089  0.8436  0.1736 -0.0640
   58CHL1    H8 5413   4.071   0.407   3.098 -0.0365 -3.0818  0.5276
   58CHL1   C14 5414   3.906   0.472   3.226  0.1406 -0.4028  0.3308
   58CHL1   H14 5415   3.800   0.505   3.222  0.2486 -0.1732 -1.1628
   58CHL1   C15 5416   3.967   0.593   3.304  0.1408  0.2589  0.3074
   58CHL1  H15A 5417   4.078   0.588   3.298  0.1160  1.0055 -1.3088
   58CHL1  H15B 5418   3.933   0.693   3.267 -1.3778 -0.2370  0.2856
   58CHL1   C16 5419   3.934   0.564   3.451  0.6491 -0.3394  0.0928
   58CHL1  H16A 5420   4.025   0.561   3.514  0.0030  1.3598  1.2067
   58CHL1  H16B 5421   3.871   0.646   3.493 -0.2316 -0.9670  0.0171
   58CHL1   C17 5422   3.862   0.433   3.455  0.6254  0.1348 -0.2578
   58CHL1   H17 5423   3.757   0.463   3.436  1.3522  3.3796  0.3077
   58CHL1   C13 5424   3.909   0.355   3.326  0.2583 -0.3841  0.2839
   58CHL1   C18 5425   4.048   0.305   3.360 -0.5918  0.4822  0.2090
   58CHL1  H18A 5426   4.117   0.300   3.273 -0.1360  2.7573  0.3924
   58CHL1  H18B 5427   4.100   0.376   3.428  0.7897 -0.8942  0.6638
   58CHL1  H18C 5428   4.059   0.206   3.411 -2.0536  0.6346  0.8595
   58CHL1   C12 5429   3.812   0.250   3.266 -0.1370  0.7001 -0.2486
   58CHL1  H12A 5430   3.817   0.159   3.329  3.2793  0.5163 -0.5613
   58CHL1  H12B 5431   3.708   0.288   3.257 -0.8172 -1.0873 -0.3384
   58CHL1   C11 5432   3.863   0.200   3.123  0.2313 -0.9594  0.1380
   58CHL1  H11A 5433   3.964   0.155   3.139  0.6332  0.1513  0.8880
   58CHL1  H11B 5434   3.794   0.129   3.074  2.0068 -1.6812 -1.4632
   58CHL1    C9 5435   3.883   0.326   3.022  0.6066  0.2577 -1.3357
   58CHL1    H9 5436   3.777   0.357   3.012  0.5465  0.3950 -0.4003
   58CHL1   C10 5437   3.933   0.288   2.880  0.2738  0.2736  0.2477
   58CHL1   C19 5438   4.044   0.182   2.886 -0.2484  0.1012  0.3307
   58CHL1  H19A 5439   4.081   0.149   2.787 -0.2739 -0.0368  0.3677
   58CHL1  H19B 5440   4.136   0.215   2.938  1.2424 -0.6551 -1.7090
   58CHL1  H19C 5441   4.012   0.086   2.931  0.6915 -0.3341  0.0859
   58CHL1    C1 5442   3.813   0.240   2.787  0.9462  0.1637  0.2151
   58CHL1   H1A 5443   3.748   0.158   2.825 -1.0980 -0.0877 -3.3279
   58CHL1   H1B 5444   3.732   0.316   2.783 -0.4937 -1.3125 -0.0878
   58CHL1    C2 5445   3.846   0.214   2.634  0.2542  0.0640 -0.4225
   58CHL1   H2A 5446   3.753   0.187   2.579 -1.3845  3.3049  0.5493
   58CHL1   H2B 5447   3.927   0.138   2.632  0.7794  0.4872  2.0853
   58CHL1   C20 5448   3.856   0.363   3.601 -0.5064  0.3532 -0.2548
   58CHL1   H20 5449   3.956   0.325   3.633 -1.6387 -1.3624  1.4008
   58CHL1   C21 5450   3.763   0.236   3.595 -0.1978 -0.1578  1.1990
   58CHL1  H21A 5451   3.833   0.170   3.540  0.5147  2.2004 -0.9214
   58CHL1  H21B 5452   3.675   0.254   3.529 -0.2243 -1.0545  0.9806
   58CHL1  H21C 5453   3.735   0.217   3.701 -2.1156  0.2319  0.7932
   58CHL1   C22 5454   3.801   0.452   3.714 -0.4336 -0.0763  0.2719
   58CHL1  H22A 5455   3.802   0.387   3.805 -1.3760 -1.0219 -0.3745
   58CHL1  H22B 5456   3.867   0.536   3.743  0.0781 -0.9497  1.7675
   58CHL1   C23 5457   3.663   0.517   3.701 -0.1397  0.3236 -0.3500
   58CHL1  H23A 5458   3.675   0.611   3.643  2.3727  1.1896  1.3790
   58CHL1  H23B 5459   3.593   0.444   3.655 -0.4201  0.5893 -0.3494
   58CHL1   C24 5460   3.613   0.551   3.846  0.0729 -0.1599  0.4149
   58CHL1  H24A 5461   3.628   0.474   3.924  1.7510 -1.3737 -1.0310
   58CHL1  H24B 5462   3.688   0.632   3.858  0.7406 -0.3096 -2.0791
   58CHL1   C25 5463   3.460   0.598   3.855  0.2877  0.0151 -0.8023
   58CHL1   H25 5464   3.449   0.673   3.774  0.2204  1.1061  0.1859
   58CHL1   C26 5465   3.368   0.468   3.849  0.2833  0.2768 -0.0252
   58CHL1  H26A 5466   3.262   0.490   3.874  0.5607 -1.0073  2.6776
   58CHL1  H26B 5467   3.382   0.431   3.745 -0.6289 -0.4468  0.0933
   58CHL1  H26C 5468   3.399   0.391   3.924  1.9142  1.7186  0.8760
   58CHL1   C27 5469   3.429   0.672   3.994  0.7651  0.7470 -0.0509
   58CHL1  H27A 5470   3.450   0.592   4.069  0.6993 -1.7038 -2.4568
   58CHL1  H27B 5471   3.481   0.768   4.014  1.6563  0.4660 -0.9012
   58CHL1  H27C 5472   3.322   0.699   3.995 -0.3313 -2.8483 -1.8225
   59CHL1    C3 5473   1.802   6.463   2.353 -0.1437 -0.6804  0.9796
   59CHL1    H3 5474   1.886   6.394   2.375 -1.6642 -1.7215  4.2625
   59CHL1    O3 5475   1.786   6.465   2.212 -0.2372 -0.0428  0.3684
   59CHL1   H3' 5476   1.875   6.485   2.181  0.3935 -1.7506  0.9982
   59CHL1    C4 5477   1.670   6.416   2.405 -0.6880  0.4254 -0.4234
   59CHL1   H4A 5478   1.586   6.478   2.367 -1.2315 -0.9975 -1.6572
   59CHL1   H4B 5479   1.657   6.312   2.368 -0.1923 -0.1138  0.8580
   59CHL1    C5 5480   1.672   6.405   2.553 -0.6109 -0.3249 -0.3087
   59CHL1    C6 5481   1.662   6.293   2.621 -0.1528  0.7856  0.5249
   59CHL1    H6 5482   1.645   6.205   2.556  1.6084  0.5292  0.3626
   59CHL1    C7 5483   1.657   6.275   2.773 -0.4957 -0.1460  0.4147
   59CHL1   H7A 5484   1.559   6.230   2.801 -0.6317  0.7676  1.4722
   59CHL1   H7B 5485   1.741   6.216   2.817 -1.4992 -1.0964  1.1126
   59CHL1    C8 5486   1.656   6.406   2.851 -0.0835 -0.7177 -0.5309
   59CHL1    H8 5487   1.549   6.438   2.850  1.2540  4.9540  0.4153
   59CHL1   C14 5488   1.716   6.386   2.992 -0.0550  0.3651  0.2980
   59CHL1   H14 5489   1.821   6.360   2.969  0.1076  0.0484  1.3709
   59CHL1   C15 5490   1.653   6.272   3.080  0.4985  0.4499  0.2929
   59CHL1  H15A 5491   1.544   6.281   3.058  0.2614  0.7966  1.5150
   59CHL1  H15B 5492   1.681   6.168   3.051 -0.6170 -0.5795  2.5462
   59CHL1   C16 5493   1.689   6.310   3.219 -0.6536 -0.1437 -0.1789
   59CHL1  H16A 5494   1.598   6.319   3.281 -1.9719 -0.9076 -1.9287
   59CHL1  H16B 5495   1.751   6.232   3.268 -0.1526  0.5981  0.3899
   59CHL1   C17 5496   1.767   6.450   3.216 -0.4234 -0.1215  0.1125
   59CHL1   H17 5497   1.873   6.419   3.206 -0.4874 -0.0656 -0.8704
   59CHL1   C13 5498   1.725   6.517   3.075  0.1257  0.1650 -0.2349
   59CHL1   C18 5499   1.580   6.565   3.089 -0.3406 -0.4862 -0.6034
   59CHL1  H18A 5500   1.505   6.502   3.143 -0.0084 -0.2973  0.0906
   59CHL1  H18B 5501   1.574   6.658   3.150  1.3652 -0.9683  0.3491
   59CHL1  H18C 5502   1.538   6.586   2.988 -0.4043 -0.0958 -0.4970
   59CHL1   C12 5503   1.818   6.610   3.005  0.3221 -0.3310  0.1587
   59CHL1  H12A 5504   1.821   6.710   3.054  0.4791 -0.4358  0.3653
   59CHL1  H12B 5505   1.925   6.581   3.006  0.1842 -0.9357  1.7222
   59CHL1   C11 5506   1.766   6.633   2.862 -0.2160 -0.5684  0.3828
   59CHL1  H11A 5507   1.682   6.705   2.868  0.3688  0.0582  1.4083
   59CHL1  H11B 5508   1.849   6.688   2.812 -0.1787 -2.3269 -1.6472
   59CHL1    C9 5509   1.744   6.511   2.774  0.2840  0.5236  0.5774
   59CHL1    H9 5510   1.837   6.451   2.766 -2.0960 -3.6341  1.5822
   59CHL1   C10 5511   1.709   6.540   2.621  0.1791 -0.6488 -0.1525
   59CHL1   C19 5512   1.587   6.631   2.615 -0.7833  0.2032 -0.0716
   59CHL1  H19A 5513   1.570   6.649   2.506  0.2065  2.7687  0.1337
   59CHL1  H19B 5514   1.500   6.586   2.667 -0.3448 -2.4756 -1.4403
   59CHL1  H19C 5515   1.613   6.728   2.662 -0.0484 -0.4088  0.8065
   59CHL1    C1 5516   1.829   6.601   2.551 -0.5893 -0.0269  0.0864
   59CHL1   H1A 5517   1.847   6.705   2.586 -2.4686 -0.3421  2.2143
   59CHL1   H1B 5518   1.918   6.542   2.580 -1.4375 -0.5845  1.6994
   59CHL1    C2 5519   1.825   6.605   2.397  0.2508 -0.1501 -0.4135
   59CHL1   H2A 5520   1.924   6.646   2.367  0.4487 -0.5413 -0.3102
   59CHL1   H2B 5521   1.743   6.673   2.365 -0.0049  1.0650  2.4853
   59CHL1   C20 5522   1.758   6.538   3.341  0.6216 -0.2684 -0.6287
   59CHL1   H20 5523   1.653   6.564   3.367  1.1051 -0.3406  1.5635
   59CHL1   C21 5524   1.833   6.670   3.327  0.6639  0.5622 -0.1744
   59CHL1  H21A 5525   1.942   6.665   3.309  0.3756  1.9208 -2.7709
   59CHL1  H21B 5526   1.815   6.740   3.412  2.3727  2.6894 -1.4631
   59CHL1  H21C 5527   1.793   6.732   3.244  0.9267 -0.3926 -1.0294
   59CHL1   C22 5528   1.812   6.459   3.465  0.5916  0.7138  0.0331
   59CHL1  H22A 5529   1.755   6.364   3.469  0.4239  0.7491 -1.2319
   59CHL1  H22B 5530   1.914   6.418   3.446  1.3695  2.6565 -0.1410
   59CHL1   C23 5531   1.815   6.530   3.603  0.6928  0.3182 -0.1159
   59CHL1  H23A 5532   1.886   6.614   3.584  0.8982  0.5778  1.6465
   59CHL1  H23B 5533   1.715   6.574   3.623 -0.5070 -2.0974 -0.3661
   59CHL1   C24 5534   1.857   6.428   3.704 -0.3323  0.0473 -0.0607
   59CHL1  H24A 5535   1.784   6.344   3.706  0.7358 -0.9208 -0.6642
   59CHL1  H24B 5536   1.952   6.385   3.666  0.1782 -0.4297  1.6484
   59CHL1   C25 5537   1.871   6.478   3.848  0.5734 -0.0180 -0.0236
   59CHL1   H25 5538   1.948   6.557   3.839  1.5291 -0.7029  1.7098
   59CHL1   C26 5539   1.748   6.540   3.907  0.0587 -0.0387 -0.3588
   59CHL1  H26A 5540   1.668   6.464   3.915 -1.7014  1.8178  0.3058
   59CHL1  H26B 5541   1.766   6.573   4.012 -0.0127  1.5720 -0.8401
   59CHL1  H26C 5542   1.713   6.625   3.846 -1.3809 -1.6451 -1.8753
   59CHL1   C27 5543   1.917   6.365   3.944 -0.3005 -0.1209 -0.0060
   59CHL1  H27A 5544   1.925   6.404   4.048 -4.8712 -0.9242  0.8645
   59CHL1  H27B 5545   1.848   6.279   3.959  0.0064 -0.1352  1.5401
   59CHL1  H27C 5546   2.012   6.326   3.903  1.0151  3.0088 -0.2156
   60CHL1    C3 5547   2.739   4.110   2.113 -0.0788  0.2096  0.2039
   60CHL1    H3 5548   2.656   4.039   2.131  0.8181 -1.0871 -0.5443
   60CHL1    O3 5549   2.756   4.122   1.974 -0.3287 -0.4246  0.4782
   60CHL1   H3' 5550   2.808   4.044   1.953 -0.6124 -0.6495  0.6095
   60CHL1    C4 5551   2.691   4.242   2.166 -0.0646 -0.4468  0.0437
   60CHL1   H4A 5552   2.749   4.326   2.122 -1.1840  0.0949 -0.4316
   60CHL1   H4B 5553   2.586   4.264   2.136 -1.5632 -1.2679  4.0795
   60CHL1    C5 5554   2.685   4.244   2.319 -0.6307 -0.0047 -0.5530
   60CHL1    C6 5555   2.572   4.262   2.388  0.5050 -0.6794 -0.8226
   60CHL1    H6 5556   2.480   4.288   2.334 -0.7508 -1.5736  0.7775
   60CHL1    C7 5557   2.561   4.275   2.534  0.0295  0.0707 -0.4073
   60CHL1   H7A 5558   2.495   4.358   2.567  2.5419  2.0186 -0.0175
   60CHL1   H7B 5559   2.521   4.175   2.566  1.4751 -1.4171 -2.9476
   60CHL1    C8 5560   2.697   4.290   2.609 -0.2840  0.2726 -0.0143
   60CHL1    H8 5561   2.747   4.387   2.590  0.5320  0.3537  2.3152
   60CHL1   C14 5562   2.690   4.257   2.760 -0.4507  0.9613  0.1334
   60CHL1   H14 5563   2.638   4.159   2.758 -3.0630  2.2388 -1.3775
   60CHL1   C15 5564   2.585   4.337   2.829 -0.3461 -0.1147  0.0606
   60CHL1  H15A 5565   2.593   4.448   2.821  3.6149 -0.3741 -2.1313
   60CHL1  H15B 5566   2.483   4.300   2.806  0.1009 -0.1844 -1.9409
   60CHL1   C16 5567   2.613   4.306   2.984 -0.3252  0.3989  0.5178
   60CHL1  H16A 5568   2.628   4.396   3.047 -0.4381  1.3824 -0.8024
   60CHL1  H16B 5569   2.528   4.253   3.033  0.1804  0.6512  1.6985
   60CHL1   C17 5570   2.744   4.215   2.982 -0.0478 -0.1598 -0.1680
   60CHL1   H17 5571   2.704   4.111   2.976  1.4028 -0.9049  1.8578
   60CHL1   C13 5572   2.813   4.250   2.849 -0.5937 -0.6242  0.4191
   60CHL1   C18 5573   2.880   4.395   2.845  0.2377  0.0681 -0.6715
   60CHL1  H18A 5574   2.918   4.410   2.742 -2.6959 -2.2750 -2.2538
   60CHL1  H18B 5575   2.812   4.478   2.871 -0.3557 -0.3463 -0.8829
   60CHL1  H18C 5576   2.976   4.401   2.902 -0.6815  1.5423  0.7931
   60CHL1   C12 5577   2.909   4.150   2.781 -0.1520  0.6000  0.1130
   60CHL1  H12A 5578   3.017   4.154   2.809 -0.0279  0.5335 -0.3471
   60CHL1  H12B 5579   2.875   4.048   2.808  1.4983 -0.6662 -2.2898
   60CHL1   C11 5580   2.918   4.171   2.629 -0.6008  0.2360  0.1572
   60CHL1  H11A 5581   2.966   4.272   2.627 -0.0603 -0.0264 -0.4767
   60CHL1  H11B 5582   2.987   4.096   2.585 -0.6839 -0.5291  1.2848
   60CHL1    C9 5583   2.790   4.182   2.543  0.2415  0.3217  0.0745
   60CHL1    H9 5584   2.733   4.088   2.554 -1.4202  1.1919 -0.6054
   60CHL1   C10 5585   2.817   4.211   2.395 -0.0710  0.1098 -0.4082
   60CHL1   C19 5586   2.925   4.319   2.371 -1.1298 -0.8580  0.0115
   60CHL1  H19A 5587   2.975   4.333   2.273  1.2515  1.8235  1.4548
   60CHL1  H19B 5588   2.883   4.414   2.408  0.7420 -0.0919  0.3003
   60CHL1  H19C 5589   3.011   4.291   2.436 -1.3015 -0.0630  0.5898
   60CHL1    C1 5590   2.870   4.075   2.334  0.9621  0.1556 -0.4660
   60CHL1   H1A 5591   2.970   4.046   2.372 -0.1296 -2.1470  0.8978
   60CHL1   H1B 5592   2.796   3.995   2.357 -0.0001  0.8193 -1.1905
   60CHL1    C2 5593   2.875   4.073   2.180  0.2930  0.4034 -0.1940
   60CHL1   H2A 5594   2.893   3.971   2.140  1.2977 -0.1688  1.6453
   60CHL1   H2B 5595   2.968   4.122   2.145  1.5434 -1.6843  0.1055
   60CHL1   C20 5596   2.828   4.220   3.115 -0.1451 -0.2470 -0.2817
   60CHL1   H20 5597   2.888   4.313   3.104  0.8450 -0.8170  0.1769
   60CHL1   C21 5598   2.919   4.094   3.119  0.0760 -0.8914  0.2788
   60CHL1  H21A 5599   2.966   4.098   3.220  1.8381  2.5063 -0.5029
   60CHL1  H21B 5600   2.980   4.090   3.026  0.4589  0.0367  0.4726
   60CHL1  H21C 5601   2.849   4.008   3.126 -2.0212  0.7973  1.2378
   60CHL1   C22 5602   2.759   4.243   3.255 -0.4525  0.2231 -0.5637
   60CHL1  H22A 5603   2.685   4.325   3.249  0.3254  0.9214 -0.8803
   60CHL1  H22B 5604   2.712   4.147   3.286 -0.3862  0.4021  0.1093
   60CHL1   C23 5605   2.850   4.276   3.378  0.3717  0.3353 -0.4280
   60CHL1  H23A 5606   2.909   4.186   3.405  1.2028  0.8806 -0.4191
   60CHL1  H23B 5607   2.907   4.369   3.360  0.3090  0.6249  0.8150
   60CHL1   C24 5608   2.759   4.303   3.502  0.0115  0.9042  0.7399
   60CHL1  H24A 5609   2.664   4.347   3.465  0.3493  1.7750  0.8993
   60CHL1  H24B 5610   2.733   4.206   3.551 -4.1084  1.3902 -0.0739
   60CHL1   C25 5611   2.828   4.402   3.602  0.1627 -0.4940 -0.4527
   60CHL1   H25 5612   2.842   4.497   3.547  0.7404 -0.3709 -0.1039
   60CHL1   C26 5613   2.741   4.453   3.719 -0.5297 -0.2083 -0.2361
   60CHL1  H26A 5614   2.796   4.529   3.779  2.2006 -2.0637 -0.1977
   60CHL1  H26B 5615   2.640   4.489   3.689  0.5432  2.6088 -0.8218
   60CHL1  H26C 5616   2.728   4.365   3.785 -1.8991 -0.8211 -1.2858
   60CHL1   C27 5617   2.961   4.351   3.656  0.6085  0.3247 -0.5201
   60CHL1  H27A 5618   3.030   4.303   3.583  0.6394 -1.0815  0.4040
   60CHL1  H27B 5619   3.020   4.433   3.702  1.6164 -0.1878 -0.8629
   60CHL1  H27C 5620   2.932   4.278   3.734  1.2386 -0.6531 -1.1698
   61CHL1    C3 5621   4.456   5.372   2.257  0.0430 -0.7277  0.1171
   61CHL1    H3 5622   4.448   5.476   2.296 -0.4739 -1.0041  0.7620
   61CHL1    O3 5623   4.453   5.376   2.117  0.5652 -0.0442  0.0737
   61CHL1   H3' 5624   4.514   5.445   2.089 -0.2602 -0.1110 -2.0300
   61CHL1    C4 5625   4.599   5.338   2.306 -0.0882 -0.0821  0.3758
   61CHL1   H4A 5626   4.628   5.242   2.258  0.2175 -0.5570  1.4878
   61CHL1   H4B 5627   4.673   5.406   2.257  0.3083 -1.0493 -0.4120
   61CHL1    C5 5628   4.610   5.323   2.458 -0.3019 -0.2219  0.2018
   61CHL1    C6 5629   4.721   5.362   2.522 -0.5987  0.0207 -0.6519
   61CHL1    H6 5630   4.798   5.427   2.478 -1.6742  0.6817 -1.5993
   61CHL1    C7 5631   4.735   5.338   2.670 -0.2568  0.3442  0.3107
   61CHL1   H7A 5632   4.836   5.293   2.679 -0.2813 -0.2508 -1.8110
   61CHL1   H7B 5633   4.726   5.429   2.732  1.5985 -0.5020  1.9158
   61CHL1    C8 5634   4.639   5.232   2.729 -0.0492  0.5465 -0.1380
   61CHL1    H8 5635   4.688   5.136   2.700 -0.1319  0.6080 -0.4825
   61CHL1   C14 5636   4.644   5.236   2.882  0.3758  0.2245 -0.0452
   61CHL1   H14 5637   4.611   5.335   2.919  0.0168 -0.1656  0.6964
   61CHL1   C15 5638   4.778   5.216   2.942 -0.9013  0.2058 -0.0148
   61CHL1  H15A 5639   4.814   5.118   2.904 -3.7466 -0.6262 -0.8509
   61CHL1  H15B 5640   4.850   5.296   2.918  0.0540  0.2150  2.5478
   61CHL1   C16 5641   4.745   5.207   3.089  0.1211  1.0006  0.0614
   61CHL1  H16A 5642   4.790   5.128   3.153 -0.3572  3.4182  3.7294
   61CHL1  H16B 5643   4.771   5.303   3.139 -1.0157  2.2859 -1.6598
   61CHL1   C17 5644   4.582   5.180   3.096 -0.2474  0.0947  0.0871
   61CHL1   H17 5645   4.538   5.281   3.115  0.5666  0.2896  1.0257
   61CHL1   C13 5646   4.548   5.144   2.945 -0.0021  0.2291 -0.1757
   61CHL1   C18 5647   4.586   4.991   2.921  1.0213 -0.3270  0.3264
   61CHL1  H18A 5648   4.581   4.977   2.810 -1.2790  0.1398  0.3298
   61CHL1  H18B 5649   4.687   4.972   2.965  1.0109  0.2699  0.6228
   61CHL1  H18C 5650   4.515   4.930   2.980 -0.2031  0.9001  0.1615
   61CHL1   C12 5651   4.398   5.172   2.890 -0.4572  0.1771 -0.4821
   61CHL1  H12A 5652   4.320   5.119   2.949  0.8139  0.1165  1.2231
   61CHL1  H12B 5653   4.381   5.281   2.903 -1.9211 -0.2196  1.4252
   61CHL1   C11 5654   4.391   5.147   2.744  0.0499  0.1285 -0.0484
   61CHL1  H11A 5655   4.426   5.044   2.719  0.8375 -0.0708  1.7249
   61CHL1  H11B 5656   4.286   5.153   2.709 -1.0191  0.7069  3.0078
   61CHL1    C9 5657   4.494   5.236   2.674  0.2534 -1.2594  1.0965
   61CHL1    H9 5658   4.455   5.338   2.696  1.5418 -1.1130  2.9433
   61CHL1   C10 5659   4.501   5.233   2.514  0.2984  0.0552 -0.4880
   61CHL1   C19 5660   4.534   5.087   2.465  0.4828 -1.0170  0.1123
   61CHL1  H19A 5661   4.554   5.090   2.356 -2.0888  1.4816 -0.4187
   61CHL1  H19B 5662   4.627   5.054   2.517  0.4176  1.5009  2.0586
   61CHL1  H19C 5663   4.448   5.022   2.491 -1.7280  1.4323 -0.6581
   61CHL1    C1 5664   4.359   5.271   2.463 -0.5121 -0.1774  0.3004
   61CHL1   H1A 5665   4.278   5.204   2.500 -0.6008  0.0181  0.4610
   61CHL1   H1B 5666   4.334   5.377   2.485 -0.5016 -0.0664 -0.2295
   61CHL1    C2 5667   4.347   5.278   2.303 -0.0820  0.4498 -0.5221
   61CHL1   H2A 5668   4.248   5.323   2.281  0.6588  1.0944 -2.7604
   61CHL1   H2B 5669   4.371   5.177   2.264  1.3313  0.6276 -0.1699
   61CHL1   C20 5670   4.550   5.084   3.212 -0.6450  0.2529 -0.0147
   61CHL1   H20 5671   4.586   4.981   3.189  0.3739  0.9027 -1.4533
   61CHL1   C21 5672   4.393   5.089   3.224  0.2627 -0.3346  0.3175
   61CHL1  H21A 5673   4.371   5.013   3.303  0.4376 -0.0193  0.6683
   61CHL1  H21B 5674   4.346   5.071   3.125  1.5220  1.9712 -0.7734
   61CHL1  H21C 5675   4.361   5.187   3.264 -1.3127 -0.4725 -0.5342
   61CHL1   C22 5676   4.617   5.138   3.348  0.9617  0.1509 -0.3965
   61CHL1  H22A 5677   4.727   5.124   3.347  1.1584  0.7125  2.7823
   61CHL1  H22B 5678   4.595   5.247   3.350 -1.3461 -0.2587 -0.0872
   61CHL1   C23 5679   4.561   5.077   3.477  0.5115  0.1855 -0.2340
   61CHL1  H23A 5680   4.452   5.096   3.489  1.0715  2.3217  2.5858
   61CHL1  H23B 5681   4.569   4.966   3.469  2.6345  0.0588  2.3065
   61CHL1   C24 5682   4.625   5.139   3.603  0.6820  0.5950  0.2775
   61CHL1  H24A 5683   4.736   5.129   3.602  0.6141 -0.4893  1.1133
   61CHL1  H24B 5684   4.593   5.245   3.610 -1.1864  0.1709 -1.1682
   61CHL1   C25 5685   4.576   5.059   3.728  0.0203 -0.1977 -0.0134
   61CHL1   H25 5686   4.609   4.953   3.721 -0.3010 -0.4311  1.5836
   61CHL1   C26 5687   4.645   5.117   3.862 -0.1658  0.0763  0.3429
   61CHL1  H26A 5688   4.613   5.057   3.951 -0.9447  3.1252  2.2848
   61CHL1  H26B 5689   4.755   5.113   3.848 -0.4792 -1.9450 -2.4013
   61CHL1  H26C 5690   4.602   5.219   3.874 -1.1665 -0.1417 -1.1075
   61CHL1   C27 5691   4.423   5.053   3.748  0.5929  0.0310 -0.4426
   61CHL1  H27A 5692   4.384   4.999   3.659 -0.2263 -1.2831  0.6726
   61CHL1  H27B 5693   4.396   4.993   3.837  0.6895 -1.1838 -1.2087
   61CHL1  H27C 5694   4.383   5.157   3.749  1.0767  0.2521 -1.9287
   62CHL1    C3 5695   0.008   6.700   2.240  0.3332  0.3612  0.6023
   62CHL1    H3 5696   0.105   6.755   2.238  1.2039 -1.1377 -1.1522
   62CHL1    O3 5697  -0.047   6.686   2.116  0.3237 -0.2791 -0.2794
   62CHL1   H3' 5698  -0.002   6.611   2.077 -0.2533 -1.3887  1.0825
   62CHL1    C4 5699   0.032   6.562   2.298 -0.3085  0.2333  0.7849
   62CHL1   H4A 5700  -0.063   6.505   2.290  0.6466 -1.1762 -1.9801
   62CHL1   H4B 5701   0.108   6.514   2.232 -1.8561 -0.1176 -0.8105
   62CHL1    C5 5702   0.076   6.568   2.440 -0.0974 -0.0521 -0.0572
   62CHL1    C6 5703   0.193   6.512   2.480  0.1284 -0.3912 -0.7688
   62CHL1    H6 5704   0.261   6.454   2.415  2.4665 -0.3821  1.5343
   62CHL1    C7 5705   0.223   6.510   2.628 -0.0300  0.6785 -0.1534
   62CHL1   H7A 5706   0.264   6.414   2.665 -0.0864  0.6254 -0.2281
   62CHL1   H7B 5707   0.302   6.586   2.644 -0.3528  0.8502  0.6805
   62CHL1    C8 5708   0.100   6.532   2.711  0.4969 -0.3176 -0.5504
   62CHL1    H8 5709   0.024   6.451   2.707  0.3111 -0.1849  0.1297
   62CHL1   C14 5710   0.130   6.528   2.864  0.5584  0.5649 -1.1046
   62CHL1   H14 5711   0.215   6.600   2.872 -0.6467  1.9720 -0.4743
   62CHL1   C15 5712   0.178   6.391   2.921 -0.1056  0.1425  0.4169
   62CHL1  H15A 5713   0.104   6.311   2.901 -0.5440  0.6849 -0.1672
   62CHL1  H15B 5714   0.279   6.354   2.890 -0.2027 -0.2161  0.5258
   62CHL1   C16 5715   0.173   6.410   3.069  0.9779  0.2619  0.2147
   62CHL1  H16A 5716   0.125   6.322   3.116 -0.5287  0.2015 -1.3558
   62CHL1  H16B 5717   0.277   6.410   3.108  0.8669 -2.2318  0.6536
   62CHL1   C17 5718   0.097   6.543   3.097 -0.0057 -0.9625  0.6972
   62CHL1   H17 5719   0.165   6.629   3.115 -1.4464  0.0214  1.5902
   62CHL1   C13 5720   0.024   6.573   2.964  0.4916 -0.7840 -0.1372
   62CHL1   C18 5721  -0.106   6.482   2.953  0.0216 -0.4215 -0.5448
   62CHL1  H18A 5722  -0.181   6.530   3.020  1.5776  1.8225 -0.2910
   62CHL1  H18B 5723  -0.135   6.462   2.847  1.3724  2.1588 -1.4881
   62CHL1  H18C 5724  -0.080   6.385   3.001  2.1970  0.2556 -0.2527
   62CHL1   C12 5725  -0.011   6.713   2.926 -0.0397 -0.1507 -0.1047
   62CHL1  H12A 5726  -0.081   6.775   2.986  1.7696  2.0996 -0.1601
   62CHL1  H12B 5727   0.077   6.780   2.937 -1.0426  1.1191  0.4678
   62CHL1   C11 5728  -0.067   6.718   2.782 -1.0648  0.1776  0.4986
   62CHL1  H11A 5729  -0.162   6.662   2.781  0.3119 -2.3039 -0.1275
   62CHL1  H11B 5730  -0.097   6.818   2.745  0.8218  0.5690 -0.1151
   62CHL1    C9 5731   0.031   6.660   2.676  0.4217  0.7191 -0.3241
   62CHL1    H9 5732   0.111   6.737   2.673  1.3471 -0.0911  1.8785
   62CHL1   C10 5733  -0.028   6.647   2.530 -1.1057  0.0727 -0.4667
   62CHL1   C19 5734  -0.165   6.585   2.540 -0.1169  0.6057 -0.2542
   62CHL1  H19A 5735  -0.196   6.533   2.447 -0.8885  1.2070 -0.3492
   62CHL1  H19B 5736  -0.153   6.505   2.617  1.8089  0.4209 -0.7013
   62CHL1  H19C 5737  -0.243   6.658   2.572 -0.7424 -0.9928  2.1799
   62CHL1    C1 5738  -0.059   6.785   2.474  0.5632  0.6795 -0.1110
   62CHL1   H1A 5739  -0.141   6.836   2.529  0.2085 -0.2857  0.2741
   62CHL1   H1B 5740   0.037   6.842   2.474  0.9258  0.0781 -0.1960
   62CHL1    C2 5741  -0.095   6.777   2.321 -0.3968 -0.4040 -0.1574
   62CHL1   H2A 5742  -0.100   6.881   2.281  0.8299 -1.0976 -2.3076
   62CHL1   H2B 5743  -0.193   6.727   2.314  0.5756 -2.3863 -0.3735
   62CHL1   C20 5744   0.021   6.539   3.231  0.0662 -0.2110  0.9620
   62CHL1   H20 5745  -0.056   6.461   3.219  1.9230 -1.9865  0.0299
   62CHL1   C21 5746  -0.053   6.671   3.242 -0.2354  0.3805  0.6308
   62CHL1  H21A 5747  -0.133   6.671   3.165 -0.2756 -2.3785  0.5628
   62CHL1  H21B 5748   0.020   6.754   3.238  0.8722 -0.5601  0.6062
   62CHL1  H21C 5749  -0.118   6.674   3.332 -2.0017 -1.2379 -0.4912
   62CHL1   C22 5750   0.114   6.512   3.350  0.3226  0.7882 -0.0179
   62CHL1  H22A 5751   0.195   6.446   3.311 -1.4559 -1.1615 -0.6183
   62CHL1  H22B 5752   0.142   6.616   3.376 -2.2085  2.1720 -2.3287
   62CHL1   C23 5753   0.040   6.448   3.472  0.4248  0.4574 -0.2201
   62CHL1  H23A 5754  -0.040   6.516   3.508 -0.1635  1.7402 -3.5864
   62CHL1  H23B 5755  -0.019   6.357   3.446  0.5809 -0.1099  1.2779
   62CHL1   C24 5756   0.138   6.421   3.587  0.2718 -0.1397  1.1240
   62CHL1  H24A 5757   0.218   6.364   3.536 -0.7660  0.1055 -0.8722
   62CHL1  H24B 5758   0.177   6.522   3.613 -2.3647  1.3602 -0.3420
   62CHL1   C25 5759   0.083   6.347   3.709  0.9671 -0.1106  0.2254
   62CHL1   H25 5760  -0.012   6.400   3.728  0.0270 -1.6509  0.0383
   62CHL1   C26 5761   0.042   6.206   3.688  0.1470 -0.2576 -0.2448
   62CHL1  H26A 5762   0.129   6.144   3.659 -1.1674 -1.4809 -1.8541
   62CHL1  H26B 5763  -0.004   6.165   3.780  2.4686 -0.3280  0.9322
   62CHL1  H26C 5764  -0.041   6.209   3.613 -0.8302  0.1341  0.8097
   62CHL1   C27 5765   0.178   6.369   3.826 -0.2505 -0.1406 -0.0284
   62CHL1  H27A 5766   0.185   6.475   3.858 -0.5140 -0.5110  1.2793
   62CHL1  H27B 5767   0.135   6.306   3.906 -2.1898  0.6335 -0.3923
   62CHL1  H27C 5768   0.279   6.334   3.798 -0.3273  0.7900 -1.6048
   63CHL1    C3 5769   3.627   2.253   2.316  0.1238  0.0535 -0.3743
   63CHL1    H3 5770   3.702   2.182   2.357 -1.2660 -2.3009 -1.7076
   63CHL1    O3 5771   3.684   2.279   2.188 -0.4584 -0.4080  0.1451
   63CHL1   H3' 5772   3.632   2.345   2.142  0.3293 -0.0744 -0.2955
   63CHL1    C4 5773   3.495   2.188   2.292  0.3239 -0.4714  0.2529
   63CHL1   H4A 5774   3.424   2.253   2.236 -0.5444 -0.4796  1.3168
   63CHL1   H4B 5775   3.506   2.098   2.228  1.4882  0.1996 -0.5273
   63CHL1    C5 5776   3.435   2.150   2.426  1.1597 -0.3521 -0.2836
   63CHL1    C6 5777   3.416   2.020   2.460 -0.5455  0.5132  0.4758
   63CHL1    H6 5778   3.443   1.943   2.386 -1.7638 -0.4642  1.0201
   63CHL1    C7 5779   3.349   1.984   2.588 -0.4095 -0.1794  1.1529
   63CHL1   H7A 5780   3.278   1.898   2.589 -1.6777  0.7572 -0.9376
   63CHL1   H7B 5781   3.432   1.954   2.655 -0.1366  1.6070  1.6640
   63CHL1    C8 5782   3.286   2.100   2.661  0.1691 -0.2084  0.2471
   63CHL1    H8 5783   3.188   2.126   2.616  1.4316  1.4673 -1.7287
   63CHL1   C14 5784   3.261   2.065   2.805 -0.3165 -0.7298  0.0804
   63CHL1   H14 5785   3.364   2.052   2.844  0.2847  0.6678 -0.9705
   63CHL1   C15 5786   3.176   1.946   2.832 -0.3323 -0.4364  0.5804
   63CHL1  H15A 5787   3.079   1.954   2.780 -0.9055 -1.8160  1.3925
   63CHL1  H15B 5788   3.222   1.852   2.795  1.2674  0.3555  0.4484
   63CHL1   C16 5789   3.154   1.950   2.981  0.2612  1.1302  0.6391
   63CHL1  H16A 5790   3.053   1.907   2.998  0.1110  1.2524  0.0846
   63CHL1  H16B 5791   3.228   1.878   3.020 -1.2858  0.3176  2.2003
   63CHL1   C17 5792   3.205   2.090   3.036  0.8719 -0.2216 -0.5216
   63CHL1   H17 5793   3.306   2.081   3.081  0.7277 -2.6257 -0.5353
   63CHL1   C13 5794   3.210   2.174   2.904  0.1404 -0.1308  0.8097
   63CHL1   C18 5795   3.062   2.210   2.865 -0.0754 -0.2620 -0.5013
   63CHL1  H18A 5796   3.044   2.251   2.764 -0.9732 -0.1845 -0.3194
   63CHL1  H18B 5797   2.991   2.125   2.875  1.2263 -1.4820 -1.2694
   63CHL1  H18C 5798   3.026   2.283   2.941  2.8774 -0.1169  0.8984
   63CHL1   C12 5799   3.294   2.303   2.898  0.1256  0.3011 -0.8148
   63CHL1  H12A 5800   3.237   2.387   2.944 -0.3084 -0.4725  0.0952
   63CHL1  H12B 5801   3.393   2.292   2.948 -0.2123 -3.9153 -0.7180
   63CHL1   C11 5802   3.320   2.343   2.754  0.4490 -0.9429  0.0112
   63CHL1  H11A 5803   3.225   2.379   2.709  1.9280  0.6026 -2.0077
   63CHL1  H11B 5804   3.386   2.432   2.745 -1.6360  0.6661 -0.1031
   63CHL1    C9 5805   3.368   2.226   2.662 -0.8165  0.0616 -0.2651
   63CHL1    H9 5806   3.458   2.188   2.714 -1.3310 -0.3640  0.3329
   63CHL1   C10 5807   3.409   2.269   2.522 -0.0782  0.6563 -0.1918
   63CHL1   C19 5808   3.302   2.362   2.468  0.4714  0.0823 -1.2060
   63CHL1  H19A 5809   3.271   2.452   2.526 -2.2345 -0.5760 -1.5027
   63CHL1  H19B 5810   3.343   2.400   2.372  3.2071  1.1119  0.2568
   63CHL1  H19C 5811   3.203   2.314   2.454  1.6462 -3.8289  1.9010
   63CHL1    C1 5812   3.551   2.348   2.533  0.1870  0.0104  0.4891
   63CHL1   H1A 5813   3.543   2.440   2.594  0.7466  1.6863 -1.8524
   63CHL1   H1B 5814   3.610   2.271   2.588  0.4107 -0.0138  0.2154
   63CHL1    C2 5815   3.623   2.383   2.402  0.3054 -0.3288  0.0641
   63CHL1   H2A 5816   3.728   2.419   2.415  0.6488 -1.2408 -0.0920
   63CHL1   H2B 5817   3.578   2.465   2.341  1.6116  0.6593  0.3756
   63CHL1   C20 5818   3.112   2.124   3.156 -1.0713  0.3123  0.2538
   63CHL1   H20 5819   3.004   2.120   3.128 -0.7723 -1.8014 -0.8069
   63CHL1   C21 5820   3.154   2.268   3.202  0.9546 -0.0135 -0.0162
   63CHL1  H21A 5821   3.262   2.280   3.226  0.9848 -3.3327  2.2092
   63CHL1  H21B 5822   3.086   2.294   3.285  0.2781 -0.2863 -0.4791
   63CHL1  H21C 5823   3.133   2.347   3.128  0.0386  0.1474  0.3988
   63CHL1   C22 5824   3.128   2.025   3.269 -0.0192  0.1385  0.0924
   63CHL1  H22A 5825   3.100   1.927   3.226 -4.9460  0.6757  1.4702
   63CHL1  H22B 5826   3.228   2.028   3.318  0.4647  0.5009 -0.9030
   63CHL1   C23 5827   3.021   2.053   3.372  0.1569 -0.4573 -0.1481
   63CHL1  H23A 5828   3.028   2.157   3.409 -0.6465 -0.4316 -0.0363
   63CHL1  H23B 5829   2.917   2.057   3.331 -0.9314 -1.3032  2.3357
   63CHL1   C24 5830   3.008   1.953   3.483 -0.5507 -0.2293 -0.0926
   63CHL1  H24A 5831   2.931   1.999   3.550  0.7797  2.3910 -0.2400
   63CHL1  H24B 5832   2.970   1.856   3.446 -1.9481  0.6378 -1.0212
   63CHL1   C25 5833   3.135   1.934   3.568  0.7727 -0.1496 -0.3592
   63CHL1   H25 5834   3.215   1.886   3.507  1.8324  0.5043  0.4631
   63CHL1   C26 5835   3.174   2.071   3.628 -0.3873  0.0906  0.1389
   63CHL1  H26A 5836   3.235   2.136   3.562  0.0298  0.3015  0.7324
   63CHL1  H26B 5837   3.087   2.128   3.668  0.8014  0.8171  1.7766
   63CHL1  H26C 5838   3.241   2.059   3.715 -0.7111 -3.1364  0.0646
   63CHL1   C27 5839   3.104   1.841   3.685  0.4027 -0.6544  0.2143
   63CHL1  H27A 5840   3.082   1.736   3.656  2.9630 -1.4688  0.9237
   63CHL1  H27B 5841   3.181   1.847   3.766  1.6386 -0.5172 -0.9377
   63CHL1  H27C 5842   3.014   1.883   3.734 -0.0921 -0.9854 -0.3970
   64CHL1    C3 5843   0.105   2.915   2.585  0.7360  0.0447 -0.6389
   64CHL1    H3 5844   0.041   2.840   2.637  0.9718  0.9064  0.9809
   64CHL1    O3 5845   0.171   2.868   2.471 -0.9882  0.4346 -0.4015
   64CHL1   H3' 5846   0.265   2.870   2.489 -1.0236 -2.7609  0.6421
   64CHL1    C4 5847   0.011   3.036   2.544 -0.5838 -0.6695  0.4108
   64CHL1   H4A 5848   0.073   3.109   2.489 -0.7001 -1.1377 -0.3631
   64CHL1   H4B 5849  -0.059   3.000   2.466  0.8850  1.7336 -2.1890
   64CHL1    C5 5850  -0.057   3.100   2.663 -0.4990 -0.1436  0.3148
   64CHL1    C6 5851  -0.187   3.121   2.676 -0.6514  0.3312  0.8070
   64CHL1    H6 5852  -0.251   3.087   2.593  0.4880 -0.5139  0.2666
   64CHL1    C7 5853  -0.248   3.198   2.793 -0.3123 -0.2363  1.2427
   64CHL1   H7A 5854  -0.331   3.269   2.770  2.0568  2.0392 -1.1242
   64CHL1   H7B 5855  -0.304   3.125   2.855 -0.9821 -1.5019 -0.7303
   64CHL1    C8 5856  -0.149   3.282   2.872 -0.2925 -0.9441  0.2630
   64CHL1    H8 5857  -0.116   3.364   2.805 -3.7312  0.0225 -0.4184
   64CHL1   C14 5858  -0.202   3.336   3.004  0.2890 -0.4279 -0.0896
   64CHL1   H14 5859  -0.240   3.249   3.061 -0.3535  1.5708  2.7598
   64CHL1   C15 5860  -0.326   3.424   2.981 -0.1252 -0.7748  0.0273
   64CHL1  H15A 5861  -0.324   3.491   2.893 -0.9097  0.5737  1.0117
   64CHL1  H15B 5862  -0.423   3.374   2.962 -0.0774 -1.2127  0.8594
   64CHL1   C16 5863  -0.337   3.505   3.112 -0.0518 -0.8662 -0.7767
   64CHL1  H16A 5864  -0.311   3.611   3.088 -1.7529  0.3316  2.1183
   64CHL1  H16B 5865  -0.430   3.492   3.171 -0.7475 -2.2109 -2.1075
   64CHL1   C17 5866  -0.211   3.456   3.193  0.9212 -0.2242 -0.1018
   64CHL1   H17 5867  -0.252   3.367   3.246  0.5374  1.4395  2.5706
   64CHL1   C13 5868  -0.106   3.417   3.091  0.0306  1.2845 -0.3084
   64CHL1   C18 5869  -0.049   3.544   3.033 -0.6026  0.6502 -0.3027
   64CHL1  H18A 5870   0.005   3.530   2.936  4.0196 -0.1879  2.1202
   64CHL1  H18B 5871  -0.120   3.629   3.020 -0.0843  1.0548 -0.5180
   64CHL1  H18C 5872   0.024   3.575   3.110 -0.5601  0.6836 -0.3569
   64CHL1   C12 5873   0.006   3.325   3.132  0.0909  0.4126  0.1160
   64CHL1  H12A 5874   0.086   3.385   3.181  0.4745  2.4027 -2.7408
   64CHL1  H12B 5875  -0.022   3.244   3.203  0.6874  1.3547  1.4917
   64CHL1   C11 5876   0.070   3.268   3.001  0.1267  0.5710  0.1976
   64CHL1  H11A 5877   0.104   3.358   2.946  0.1956 -0.9902 -2.4784
   64CHL1  H11B 5878   0.150   3.199   3.035 -0.8839 -1.4847 -1.3785
   64CHL1    C9 5879  -0.030   3.194   2.909 -0.2344 -0.3052 -0.4504
   64CHL1    H9 5880  -0.071   3.109   2.966  0.2410 -0.2175  0.0346
   64CHL1   C10 5881   0.041   3.139   2.773 -0.3567 -0.0957 -0.4743
   64CHL1   C19 5882   0.132   3.254   2.721 -0.3203 -0.1026  0.1549
   64CHL1  H19A 5883   0.079   3.352   2.714  1.4910  0.8009 -4.5837
   64CHL1  H19B 5884   0.221   3.274   2.784  1.9284  1.8688 -3.3319
   64CHL1  H19C 5885   0.171   3.233   2.619  0.4092  0.0613  0.3961
   64CHL1    C1 5886   0.125   3.024   2.816  0.2578  0.2690  0.0603
   64CHL1   H1A 5887   0.206   3.067   2.878 -0.5020  1.7909  0.0424
   64CHL1   H1B 5888   0.061   2.957   2.879  1.3413 -1.4609 -0.6035
   64CHL1    C2 5889   0.197   2.953   2.701  0.3334 -0.0544  0.4784
   64CHL1   H2A 5890   0.247   2.865   2.746 -1.4397 -0.9460  0.7932
   64CHL1   H2B 5891   0.270   3.025   2.660  0.1384  0.0960  0.3928
   64CHL1   C20 5892  -0.178   3.566   3.302  0.0921 -0.0829  0.8054
   64CHL1   H20 5893  -0.143   3.654   3.245 -1.0949 -1.1267 -1.7067
   64CHL1   C21 5894  -0.070   3.510   3.389  1.0687 -0.0785  0.4772
   64CHL1  H21A 5895  -0.095   3.421   3.451  2.4612  0.4867  1.8903
   64CHL1  H21B 5896  -0.041   3.592   3.458  0.5947 -0.9140  1.7031
   64CHL1  H21C 5897   0.025   3.489   3.336  1.9029  0.6272  1.6549
   64CHL1   C22 5898  -0.300   3.612   3.387  0.1102  0.3478 -1.2169
   64CHL1  H22A 5899  -0.255   3.687   3.455  1.6818 -1.2860 -0.3391
   64CHL1  H22B 5900  -0.379   3.665   3.330 -1.6845  1.6320  2.1744
   64CHL1   C23 5901  -0.385   3.505   3.456  0.4458  0.6259 -0.3693
   64CHL1  H23A 5902  -0.446   3.448   3.383 -1.0406  0.8991  0.6124
   64CHL1  H23B 5903  -0.313   3.436   3.505  0.5149  1.6815  1.0643
   64CHL1   C24 5904  -0.485   3.566   3.557 -0.3822 -0.6080  0.0307
   64CHL1  H24A 5905  -0.428   3.629   3.629  0.8584 -1.8205  0.1348
   64CHL1  H24B 5906  -0.569   3.617   3.506 -1.4862 -0.4372  1.8957
   64CHL1   C25 5907  -0.556   3.464   3.639  0.5817  0.1496  0.4456
   64CHL1   H25 5908  -0.481   3.387   3.668  0.5319  0.2850  0.9410
   64CHL1   C26 5909  -0.611   3.529   3.766 -0.6158 -0.3952  0.4286
   64CHL1  H26A 5910  -0.681   3.614   3.752 -1.9401 -1.2235  1.8711
   64CHL1  H26B 5911  -0.663   3.464   3.838  0.6038 -0.2055  1.5257
   64CHL1  H26C 5912  -0.524   3.566   3.825  1.2255 -1.2667 -1.5966
   64CHL1   C27 5913  -0.673   3.395   3.565 -0.5349  0.5121  0.9395
   64CHL1  H27A 5914  -0.760   3.463   3.558 -1.5873 -0.8086  0.8906
   64CHL1  H27B 5915  -0.642   3.368   3.462 -0.0367  2.1484  0.6289
   64CHL1  H27C 5916  -0.703   3.301   3.618  0.1160 -0.0184  0.3849
   65CHL1    C3 5917   3.096   0.695   2.262  0.0395 -0.5628 -0.3340
   65CHL1    H3 5918   3.191   0.640   2.282 -0.7712 -1.4492  1.2327
   65CHL1    O3 5919   3.074   0.722   2.122  0.3161  0.3699 -0.5892
   65CHL1   H3' 5920   3.093   0.641   2.075 -1.4300  1.5791 -3.6507
   65CHL1    C4 5921   2.981   0.598   2.308 -0.0807 -0.3805  0.0044
   65CHL1   H4A 5922   2.881   0.645   2.295  0.1424  0.3414  0.7913
   65CHL1   H4B 5923   2.978   0.498   2.260  1.6849 -0.3619 -0.2034
   65CHL1    C5 5924   2.997   0.578   2.455 -0.6158 -0.2657 -0.4160
   65CHL1    C6 5925   3.014   0.455   2.507  0.2204  0.3325 -0.2283
   65CHL1    H6 5926   3.006   0.370   2.439  0.2993  1.3421 -1.5309
   65CHL1    C7 5927   3.023   0.409   2.649  0.5413  0.1606 -0.0956
   65CHL1   H7A 5928   2.946   0.329   2.660  2.5724 -1.9596 -0.4308
   65CHL1   H7B 5929   3.118   0.360   2.679  0.5044  0.4827  0.5606
   65CHL1    C8 5930   2.987   0.530   2.746  0.2688  0.3912  0.2766
   65CHL1    H8 5931   2.876   0.527   2.747  0.2693 -2.1278 -0.1677
   65CHL1   C14 5932   3.062   0.509   2.879 -0.0697  0.5017  0.1488
   65CHL1   H14 5933   3.170   0.522   2.858 -0.5489  2.3826 -1.5105
   65CHL1   C15 5934   3.043   0.372   2.944  0.5516  0.7829 -0.5357
   65CHL1  H15A 5935   2.939   0.342   2.921  0.9651  0.0910 -1.5779
   65CHL1  H15B 5936   3.116   0.293   2.915  0.8696  0.8601  0.0375
   65CHL1   C16 5937   3.072   0.392   3.097 -0.1544  0.1420  0.5365
   65CHL1  H16A 5938   2.990   0.341   3.150  1.6022 -0.1623  3.1529
   65CHL1  H16B 5939   3.171   0.344   3.117  0.8602  1.3474 -1.3093
   65CHL1   C17 5940   3.081   0.548   3.113 -0.2917  0.5906 -0.4367
   65CHL1   H17 5941   3.188   0.579   3.116 -0.0212 -0.2257 -1.2200
   65CHL1   C13 5942   3.028   0.609   2.988 -0.4181 -0.3515  1.0852
   65CHL1   C18 5943   2.868   0.629   3.004  0.1586  0.1418  0.5714
   65CHL1  H18A 5944   2.830   0.534   3.049  0.7586 -0.1059  0.5640
   65CHL1  H18B 5945   2.842   0.714   3.070 -1.2360 -1.1851  1.8377
   65CHL1  H18C 5946   2.810   0.654   2.913 -0.8593  1.7087  1.6055
   65CHL1   C12 5947   3.076   0.749   2.937 -0.0694  0.5504 -0.7362
   65CHL1  H12A 5948   3.044   0.829   3.007  0.2707 -0.0242  0.0955
   65CHL1  H12B 5949   3.185   0.751   2.916  0.2948  0.1259  0.9491
   65CHL1   C11 5950   3.015   0.783   2.802 -0.3717  0.7551  0.1329
   65CHL1  H11A 5951   2.906   0.804   2.810 -0.5544 -0.2625  0.5282
   65CHL1  H11B 5952   3.069   0.871   2.762 -2.2316  1.0720 -1.8829
   65CHL1    C9 5953   3.034   0.665   2.699  0.0521  0.3657  0.5878
   65CHL1    H9 5954   3.144   0.650   2.706 -0.2518 -2.0571  0.7717
   65CHL1   C10 5955   3.003   0.701   2.549  0.2263  0.1179  0.0198
   65CHL1   C19 5956   2.860   0.760   2.541 -0.3291 -0.6070  0.4434
   65CHL1  H19A 5957   2.832   0.834   2.619 -0.5139 -0.3867  0.1697
   65CHL1  H19B 5958   2.836   0.803   2.442 -0.7986 -0.2159  0.7268
   65CHL1  H19C 5959   2.787   0.677   2.547  1.6909 -2.6279 -0.9592
   65CHL1    C1 5960   3.097   0.807   2.491  0.1183 -0.0661 -0.7258
   65CHL1   H1A 5961   3.081   0.902   2.546  1.5759 -0.7576  0.9935
   65CHL1   H1B 5962   3.203   0.788   2.517 -0.2602  0.7432  1.7118
   65CHL1    C2 5963   3.091   0.827   2.340  0.7592  0.2361  0.3339
   65CHL1   H2A 5964   3.182   0.886   2.313 -1.4150  2.6638 -2.4220
   65CHL1   H2B 5965   3.002   0.886   2.307  1.3192  0.2975 -1.1494
   65CHL1   C20 5966   3.033   0.589   3.253 -0.6229  0.0075 -0.8669
   65CHL1   H20 5967   2.923   0.594   3.263 -0.6958  1.3112 -2.0548
   65CHL1   C21 5968   3.108   0.724   3.282  0.6547 -0.5346 -0.1368
   65CHL1  H21A 5969   3.059   0.770   3.371 -2.2058  2.0899 -2.8429
   65CHL1  H21B 5970   3.092   0.792   3.196  1.6058 -4.0285 -3.3156
   65CHL1  H21C 5971   3.218   0.715   3.300  0.5903  0.4709  0.8929
   65CHL1   C22 5972   3.079   0.489   3.360 -0.0607  0.6446 -0.1377
   65CHL1  H22A 5973   3.052   0.384   3.335 -1.8536  0.2881  2.9051
   65CHL1  H22B 5974   3.190   0.490   3.360  0.0388 -2.0189  0.1015
   65CHL1   C23 5975   3.015   0.504   3.498 -0.5698  0.3807  0.1099
   65CHL1  H23A 5976   3.082   0.570   3.556  1.4156 -1.8229  0.4775
   65CHL1  H23B 5977   2.921   0.562   3.485  0.0066  2.4147  3.6770
   65CHL1   C24 5978   3.007   0.364   3.577  0.6655 -0.1344  0.3130
   65CHL1  H24A 5979   2.958   0.286   3.516 -0.4283  0.6123  0.2133
   65CHL1  H24B 5980   3.111   0.328   3.596 -0.2414 -2.8532  0.5536
   65CHL1   C25 5981   2.949   0.373   3.723 -0.5931  0.1259 -0.5182
   65CHL1   H25 5982   3.014   0.432   3.792  0.4173 -1.3825 -0.1488
   65CHL1   C26 5983   2.813   0.452   3.728  0.3733 -0.2637 -0.3885
   65CHL1  H26A 5984   2.822   0.553   3.684  0.7888  1.0237  2.4181
   65CHL1  H26B 5985   2.738   0.392   3.672 -1.4289 -0.4805  2.0933
   65CHL1  H26C 5986   2.769   0.452   3.830 -2.6681  2.3762 -1.5486
   65CHL1   C27 5987   2.926   0.231   3.777 -0.0548 -0.0511  0.3742
   65CHL1  H27A 5988   3.018   0.169   3.790  1.8150  2.3297 -0.7215
   65CHL1  H27B 5989   2.878   0.224   3.877  0.3937  0.3134  0.6138
   65CHL1  H27C 5990   2.852   0.178   3.713 -0.9565 -0.6533  1.8642
   66CHL1    C3 5991   5.341   2.689   2.282  0.2133 -0.0128  0.2053
   66CHL1    H3 5992   5.318   2.593   2.332 -2.7523  0.8053  0.6225
   66CHL1    O3 5993   5.412   2.675   2.158 -0.3151 -0.0075 -0.2203
   66CHL1   H3' 5994   5.373   2.598   2.115  1.5141 -0.2745 -1.5405
   66CHL1    C4 5995   5.204   2.743   2.246 -0.0155 -0.0466  0.3699
   66CHL1   H4A 5996   5.223   2.838   2.192 -1.4858  0.0850  0.0497
   66CHL1   H4B 5997   5.152   2.686   2.167 -0.7791  0.0318  0.8084
   66CHL1    C5 5998   5.114   2.778   2.363  0.1262 -0.0768 -0.7610
   66CHL1    C6 5999   4.986   2.721   2.377  0.3248 -0.2709  0.3203
   66CHL1    H6 6000   4.950   2.670   2.286  2.4354 -0.0902 -0.6745
   66CHL1    C7 6001   4.895   2.738   2.495  0.2852 -0.2825 -0.5135
   66CHL1   H7A 6002   4.787   2.752   2.476 -0.0037 -2.5925 -0.9166
   66CHL1   H7B 6003   4.890   2.640   2.547 -2.0082  0.4387  0.7612
   66CHL1    C8 6004   4.947   2.842   2.591 -0.3078  1.3207 -0.2578
   66CHL1    H8 6005   4.929   2.940   2.541  1.4275  1.2467 -1.0928
   66CHL1   C14 6006   4.871   2.838   2.725  1.2374 -0.2722 -0.7605
   66CHL1   H14 6007   4.885   2.734   2.760  0.3852  0.4547  1.9128
   66CHL1   C15 6008   4.720   2.844   2.718  0.3466 -0.2600 -0.9404
   66CHL1  H15A 6009   4.684   2.925   2.651 -1.6804  1.2403  1.7429
   66CHL1  H15B 6010   4.683   2.742   2.694  0.8755 -0.5463 -0.5578
   66CHL1   C16 6011   4.677   2.872   2.863 -0.2759 -0.2547 -0.4750
   66CHL1  H16A 6012   4.620   2.968   2.867 -0.4477 -0.2937 -1.6905
   66CHL1  H16B 6013   4.625   2.790   2.916 -0.8771  0.9491  0.8691
   66CHL1   C17 6014   4.813   2.903   2.943 -0.2674 -0.0625  0.4329
   66CHL1   H17 6015   4.843   2.807   2.990  0.5336 -0.6591 -1.1909
   66CHL1   C13 6016   4.917   2.934   2.837 -0.1503  0.6401 -0.0130
   66CHL1   C18 6017   4.906   3.084   2.779 -0.3939  0.0131 -0.4967
   66CHL1  H18A 6018   4.802   3.099   2.743  0.2834 -0.8204 -3.0770
   66CHL1  H18B 6019   4.929   3.155   2.862 -0.7413 -0.0598 -0.3403
   66CHL1  H18C 6020   4.981   3.111   2.700  0.0514 -0.4172 -0.2264
   66CHL1   C12 6021   5.060   2.891   2.862 -0.5196 -0.3652 -0.0853
   66CHL1  H12A 6022   5.111   2.960   2.933  1.4410 -0.5004 -1.2884
   66CHL1  H12B 6023   5.073   2.792   2.909  2.3313  0.9190  2.1322
   66CHL1   C11 6024   5.154   2.898   2.745 -0.3662 -0.9328 -0.1248
   66CHL1  H11A 6025   5.171   3.004   2.715 -2.7011 -0.1238  1.1530
   66CHL1  H11B 6026   5.254   2.863   2.778 -0.5269  0.9537  2.7101
   66CHL1    C9 6027   5.102   2.818   2.613  0.1601 -0.9753 -0.3398
   66CHL1    H9 6028   5.118   2.711   2.638  1.8620 -0.9257 -1.1218
   66CHL1   C10 6029   5.193   2.844   2.489  0.9435  0.1718 -0.0417
   66CHL1   C19 6030   5.204   2.993   2.452 -0.5448 -0.0002  0.5762
   66CHL1  H19A 6031   5.255   3.059   2.526 -2.6330  3.6040 -0.9136
   66CHL1  H19B 6032   5.256   3.010   2.356 -0.0465 -1.4103  0.5806
   66CHL1  H19C 6033   5.105   3.044   2.440 -0.2037  1.1718  2.3329
   66CHL1    C1 6034   5.343   2.802   2.517 -0.3414  0.5916 -0.1115
   66CHL1   H1A 6035   5.407   2.876   2.569 -0.6371  1.8090 -1.4415
   66CHL1   H1B 6036   5.357   2.710   2.577  0.1911 -0.8310 -2.2996
   66CHL1    C2 6037   5.415   2.785   2.384 -0.1933 -0.5327  0.9955
   66CHL1   H2A 6038   5.521   2.752   2.392  0.7193  1.7210 -0.5477
   66CHL1   H2B 6039   5.420   2.886   2.336  3.3143 -1.3778 -0.7595
   66CHL1   C20 6040   4.792   3.010   3.052  0.2647 -0.3777 -0.0469
   66CHL1   H20 6041   4.790   3.111   3.008 -1.6139 -0.9681 -1.3937
   66CHL1   C21 6042   4.910   2.992   3.160  0.4009 -0.4862  0.3288
   66CHL1  H21A 6043   5.006   3.003   3.105 -0.0015  2.5041  0.0842
   66CHL1  H21B 6044   4.896   2.887   3.195  0.1052 -0.3996  0.4652
   66CHL1  H21C 6045   4.912   3.068   3.240  0.0438 -0.0807 -0.0468
   66CHL1   C22 6046   4.657   2.978   3.135  0.9316 -0.1675 -0.0482
   66CHL1  H22A 6047   4.573   2.976   3.062 -0.4312 -1.6648  1.4969
   66CHL1  H22B 6048   4.671   2.877   3.179  1.6147  0.0316  0.1977
   66CHL1   C23 6049   4.627   3.074   3.250  0.6517 -0.4833 -0.3730
   66CHL1  H23A 6050   4.685   3.046   3.341  0.7446 -0.1663 -0.3318
   66CHL1  H23B 6051   4.644   3.182   3.226 -2.2469 -0.0606 -0.8545
   66CHL1   C24 6052   4.470   3.076   3.277  0.1377  0.4049  0.0986
   66CHL1  H24A 6053   4.410   3.056   3.186 -1.7033  0.6276  1.2176
   66CHL1  H24B 6054   4.442   3.004   3.358  0.9608 -1.3669 -1.1199
   66CHL1   C25 6055   4.430   3.222   3.321  0.4660  0.3936  0.0046
   66CHL1   H25 6056   4.485   3.296   3.259  0.9499  2.7716  3.0134
   66CHL1   C26 6057   4.278   3.228   3.324 -0.3531  0.6685 -0.0330
   66CHL1  H26A 6058   4.237   3.186   3.230 -2.3864 -0.7848  1.4230
   66CHL1  H26B 6059   4.238   3.171   3.411  0.5456  1.0395  0.6454
   66CHL1  H26C 6060   4.249   3.334   3.343 -1.0579  0.5049 -0.1619
   66CHL1   C27 6061   4.487   3.250   3.459 -0.0160 -0.5769  0.2621
   66CHL1  H27A 6062   4.447   3.339   3.513 -0.3478 -1.0572  0.8159
   66CHL1  H27B 6063   4.597   3.267   3.458 -0.0930  0.2259  1.8371
   66CHL1  H27C 6064   4.460   3.166   3.526  2.2250 -0.7620  1.0289
   67CHL1    C3 6065   3.612   3.504   2.324  0.3977  0.5513 -0.1884
   67CHL1    H3 6066   3.518   3.495   2.267 -0.7979 -0.6626  1.8601
   67CHL1    O3 6067   3.708   3.541   2.228  0.5300  0.0326 -0.3830
   67CHL1   H3' 6068   3.789   3.551   2.278  0.6897 -1.3211 -0.3188
   67CHL1    C4 6069   3.612   3.608   2.431 -0.5201  0.2681 -0.1431
   67CHL1   H4A 6070   3.719   3.628   2.452 -1.0012  1.8314  1.0188
   67CHL1   H4B 6071   3.574   3.701   2.383  0.2360  0.2801 -0.7269
   67CHL1    C5 6072   3.544   3.555   2.554 -0.5963  0.7109  0.1563
   67CHL1    C6 6073   3.451   3.632   2.610 -0.5393  0.1396  0.3592
   67CHL1    H6 6074   3.411   3.722   2.561 -0.5229  0.0635  0.2040
   67CHL1    C7 6075   3.386   3.598   2.741  0.0197  0.4097 -0.3662
   67CHL1   H7A 6076   3.370   3.679   2.814 -0.3840 -0.0439  0.0605
   67CHL1   H7B 6077   3.289   3.545   2.727  1.5212 -2.6473 -0.1878
   67CHL1    C8 6078   3.473   3.502   2.824  0.2570  0.2201  0.4009
   67CHL1    H8 6079   3.562   3.563   2.853  2.2115 -2.3511  0.2068
   67CHL1   C14 6080   3.398   3.453   2.943  0.3052 -0.3313  0.7973
   67CHL1   H14 6081   3.318   3.390   2.899 -0.3759  0.4736  0.8757
   67CHL1   C15 6082   3.325   3.547   3.033  0.4795 -0.3851 -0.0772
   67CHL1  H15A 6083   3.386   3.640   3.042 -2.2918  1.5694 -0.0631
   67CHL1  H15B 6084   3.230   3.582   2.988  0.4402 -0.9435 -0.4395
   67CHL1   C16 6085   3.308   3.476   3.164  0.4140  0.2686 -0.7166
   67CHL1  H16A 6086   3.374   3.520   3.242  1.9006 -3.8582  0.6156
   67CHL1  H16B 6087   3.205   3.460   3.201  0.9433 -1.2076  0.2361
   67CHL1   C17 6088   3.362   3.333   3.140 -0.2030 -0.3276 -0.3827
   67CHL1   H17 6089   3.273   3.279   3.102  0.0549  0.0689 -1.6171
   67CHL1   C13 6090   3.465   3.349   3.029 -0.0788  0.1863 -0.4806
   67CHL1   C18 6091   3.601   3.416   3.074  0.4631 -0.3673  0.3694
   67CHL1  H18A 6092   3.671   3.439   2.990  0.3489 -1.8415 -0.1709
   67CHL1  H18B 6093   3.579   3.512   3.124  1.8961  0.5428 -0.6757
   67CHL1  H18C 6094   3.647   3.342   3.142  0.4232  1.5795  2.6029
   67CHL1   C12 6095   3.494   3.226   2.942  0.8258 -0.0663 -0.5945
   67CHL1  H12A 6096   3.541   3.153   3.010 -1.1246  1.1555  2.2843
   67CHL1  H12B 6097   3.391   3.192   2.919  0.9324  0.0850 -1.3177
   67CHL1   C11 6098   3.569   3.259   2.813 -0.8107 -0.1856 -1.2964
   67CHL1  H11A 6099   3.675   3.278   2.840 -1.1648  0.8679 -0.5855
   67CHL1  H11B 6100   3.569   3.166   2.753 -0.6320 -2.5022  1.9841
   67CHL1    C9 6101   3.511   3.381   2.742 -0.3089  0.1453  1.1049
   67CHL1    H9 6102   3.416   3.343   2.699  0.1015 -0.9358  1.1388
   67CHL1   C10 6103   3.600   3.424   2.621  0.4364 -0.2622 -0.0328
   67CHL1   C19 6104   3.750   3.437   2.665  0.4356  0.4341 -0.6679
   67CHL1  H19A 6105   3.764   3.523   2.733 -0.9953  1.4460 -1.6061
   67CHL1  H19B 6106   3.791   3.339   2.700 -0.8289 -0.6208 -2.0164
   67CHL1  H19C 6107   3.812   3.477   2.582  2.0077 -0.4229  0.0451
   67CHL1    C1 6108   3.579   3.325   2.505 -0.1673  0.4287 -0.5194
   67CHL1   H1A 6109   3.620   3.223   2.526  1.4245  0.7584 -1.8616
   67CHL1   H1B 6110   3.469   3.325   2.488 -0.5769  1.5920  1.7237
   67CHL1    C2 6111   3.658   3.369   2.380  0.5388 -0.5505 -0.4637
   67CHL1   H2A 6112   3.640   3.295   2.299  0.1636  0.7434 -1.6167
   67CHL1   H2B 6113   3.768   3.356   2.389  0.4422  0.1802  2.8760
   67CHL1   C20 6114   3.408   3.257   3.265 -0.2606  0.4995  0.4635
   67CHL1   H20 6115   3.515   3.274   3.287 -0.4836  0.5529  1.5916
   67CHL1   C21 6116   3.389   3.103   3.249 -0.2586 -0.2574 -0.2736
   67CHL1  H21A 6117   3.452   3.038   3.313  0.5433  0.9065  0.1309
   67CHL1  H21B 6118   3.417   3.071   3.146  2.5733 -1.4275  0.7688
   67CHL1  H21C 6119   3.281   3.076   3.259 -0.7478 -0.1345 -3.7432
   67CHL1   C22 6120   3.336   3.293   3.402 -0.7557 -0.2110 -0.1348
   67CHL1  H22A 6121   3.311   3.401   3.411  0.9649  0.1063  1.9687
   67CHL1  H22B 6122   3.253   3.221   3.413 -0.1029 -0.9432  0.1511
   67CHL1   C23 6123   3.430   3.273   3.522 -0.0704 -0.2444  0.3568
   67CHL1  H23A 6124   3.496   3.185   3.509  2.4049  1.5372  0.0366
   67CHL1  H23B 6125   3.505   3.352   3.544  1.1223 -0.9232 -1.1455
   67CHL1   C24 6126   3.343   3.257   3.646 -0.2702  0.2135  0.3310
   67CHL1  H24A 6127   3.279   3.347   3.654 -2.1073 -1.0606  0.4579
   67CHL1  H24B 6128   3.284   3.163   3.641  1.1827 -0.7066 -0.1616
   67CHL1   C25 6129   3.427   3.255   3.776 -0.7341 -0.2485 -0.3333
   67CHL1   H25 6130   3.467   3.358   3.784  1.2885 -1.1470  2.9571
   67CHL1   C26 6131   3.335   3.235   3.895 -0.4380 -1.0303 -0.2339
   67CHL1  H26A 6132   3.288   3.135   3.907 -0.8542 -0.6504  1.7284
   67CHL1  H26B 6133   3.398   3.250   3.986 -1.1411 -0.2631  0.1484
   67CHL1  H26C 6134   3.257   3.315   3.896  0.0892 -0.5041 -0.7446
   67CHL1   C27 6135   3.545   3.151   3.781 -0.3856  0.7954 -0.0728
   67CHL1  H27A 6136   3.623   3.184   3.710 -0.8509  0.4354 -0.7652
   67CHL1  H27B 6137   3.589   3.143   3.883  0.8859 -1.8207 -0.7637
   67CHL1  H27C 6138   3.507   3.051   3.750  0.8548 -0.1761  1.3817
   68CHL1    C3 6139   1.568   0.476   2.258  0.1176  0.5034  0.6875
   68CHL1    H3 6140   1.561   0.582   2.290 -3.1358  0.4902  0.3285
   68CHL1    O3 6141   1.576   0.445   2.117  0.3835  0.4600  0.4269
   68CHL1   H3' 6142   1.566   0.350   2.117  1.2941  0.3383  1.5545
   68CHL1    C4 6143   1.695   0.412   2.312  0.9362 -0.0823 -0.7771
   68CHL1   H4A 6144   1.690   0.303   2.292  0.6818 -0.4066  0.9197
   68CHL1   H4B 6145   1.782   0.463   2.265  1.6236  2.9528  3.2082
   68CHL1    C5 6146   1.700   0.422   2.463 -0.2859  0.9038  0.4839
   68CHL1    C6 6147   1.812   0.462   2.519  0.6521  0.3682  0.0471
   68CHL1    H6 6148   1.898   0.497   2.460  1.7183 -2.9947 -0.6081
   68CHL1    C7 6149   1.811   0.461   2.671  0.2649  0.4420 -0.4286
   68CHL1   H7A 6150   1.905   0.419   2.712 -0.3407  0.1208  0.6579
   68CHL1   H7B 6151   1.793   0.565   2.707  0.3451  1.0385 -2.0220
   68CHL1    C8 6152   1.703   0.370   2.740  0.8983  0.6661 -0.6789
   68CHL1    H8 6153   1.741   0.267   2.724  0.6938  0.7777 -1.9596
   68CHL1   C14 6154   1.706   0.403   2.887 -0.0187 -0.5296  0.5165
   68CHL1   H14 6155   1.686   0.512   2.897 -1.5029 -0.9028  2.2852
   68CHL1   C15 6156   1.844   0.377   2.952  0.1421 -0.0607  0.4309
   68CHL1  H15A 6157   1.862   0.269   2.934 -0.7340 -0.4191  1.5913
   68CHL1  H15B 6158   1.932   0.443   2.933 -1.3480  1.7988 -0.3124
   68CHL1   C16 6159   1.810   0.378   3.096 -0.3637 -0.5991 -0.5888
   68CHL1  H16A 6160   1.878   0.303   3.143  2.4840  1.1024 -1.7350
   68CHL1  H16B 6161   1.840   0.477   3.139  3.4045 -2.1074  0.7009
   68CHL1   C17 6162   1.654   0.359   3.117 -0.5095  0.1919 -0.1834
   68CHL1   H17 6163   1.610   0.459   3.138  1.0480  1.7093 -3.4816
   68CHL1   C13 6164   1.603   0.329   2.970 -0.5118  0.0923  0.3342
   68CHL1   C18 6165   1.608   0.174   2.942  0.3931  0.8298  0.8724
   68CHL1  H18A 6166   1.512   0.139   2.985  1.4325 -2.2839  0.9128
   68CHL1  H18B 6167   1.607   0.141   2.835  0.9178  1.2370  0.7389
   68CHL1  H18C 6168   1.684   0.123   3.006 -0.2531 -2.1375 -0.5399
   68CHL1   C12 6169   1.470   0.385   2.923  0.3346 -0.1528 -0.5238
   68CHL1  H12A 6170   1.384   0.336   2.974 -1.5875  1.4852 -2.0259
   68CHL1  H12B 6171   1.454   0.493   2.945  0.3179 -0.4590  1.0942
   68CHL1   C11 6172   1.448   0.366   2.773  0.6449  0.7269 -0.6125
   68CHL1  H11A 6173   1.428   0.257   2.763 -0.1213  0.7315  0.6904
   68CHL1  H11B 6174   1.365   0.428   2.734  3.1662  3.3859 -2.1796
   68CHL1    C9 6175   1.569   0.404   2.680  1.2976  0.0365  0.7919
   68CHL1    H9 6176   1.563   0.515   2.678 -0.6862 -0.0427 -0.3230
   68CHL1   C10 6177   1.564   0.370   2.532 -0.1913  0.5474 -0.7494
   68CHL1   C19 6178   1.566   0.215   2.516 -0.7790 -0.0517  0.4063
   68CHL1  H19A 6179   1.564   0.177   2.412 -0.9930 -0.4448  0.5495
   68CHL1  H19B 6180   1.645   0.162   2.573 -2.0468  0.1760  2.5283
   68CHL1  H19C 6181   1.473   0.176   2.565 -0.3783 -0.9106  0.4936
   68CHL1    C1 6182   1.442   0.435   2.466  0.1745 -0.9360  0.2859
   68CHL1   H1A 6183   1.355   0.378   2.505  0.9504 -2.5163 -0.2009
   68CHL1   H1B 6184   1.434   0.541   2.497  4.1456 -0.5848  0.5543
   68CHL1    C2 6185   1.444   0.422   2.314  0.5290  0.4955  0.1024
   68CHL1   H2A 6186   1.352   0.469   2.271  1.1834 -0.1584 -2.1241
   68CHL1   H2B 6187   1.436   0.313   2.293  0.9602  0.7464 -1.4645
   68CHL1   C20 6188   1.613   0.263   3.230 -0.1339  0.1702  0.2085
   68CHL1   H20 6189   1.614   0.156   3.199 -0.0211  0.0334  0.6723
   68CHL1   C21 6190   1.465   0.290   3.257 -1.0107 -0.7067  0.1367
   68CHL1  H21A 6191   1.433   0.207   3.324 -0.7112 -1.2789 -0.4175
   68CHL1  H21B 6192   1.399   0.295   3.168 -0.1936  1.5372 -0.3939
   68CHL1  H21C 6193   1.451   0.388   3.307  3.1325  0.2973 -0.3021
   68CHL1   C22 6194   1.707   0.285   3.354  0.0679  0.0465  0.4006
   68CHL1  H22A 6195   1.804   0.232   3.355  0.2941  0.4205 -0.5102
   68CHL1  H22B 6196   1.738   0.392   3.357  2.0026 -0.4878  0.9694
   68CHL1   C23 6197   1.639   0.253   3.488  0.0705 -0.1958 -0.9064
   68CHL1  H23A 6198   1.553   0.323   3.498  0.8895  1.1774 -2.8060
   68CHL1  H23B 6199   1.600   0.150   3.497  0.7587 -0.4815 -1.0801
   68CHL1   C24 6200   1.726   0.275   3.619 -0.3112 -0.5419  0.4346
   68CHL1  H24A 6201   1.814   0.208   3.629  0.7642  0.7819  0.1305
   68CHL1  H24B 6202   1.780   0.372   3.632 -0.0143 -0.8535  1.6913
   68CHL1   C25 6203   1.644   0.262   3.755  0.7050 -0.2887 -0.0900
   68CHL1   H25 6204   1.542   0.304   3.742  0.9552  0.7528  1.0599
   68CHL1   C26 6205   1.623   0.113   3.798 -0.1649  0.5577 -0.7527
   68CHL1  H26A 6206   1.559   0.070   3.718  0.1757 -0.0361 -0.7134
   68CHL1  H26B 6207   1.722   0.066   3.779  0.6556  2.0448 -0.2959
   68CHL1  H26C 6208   1.577   0.103   3.898 -1.7685  1.0095 -1.4233
   68CHL1   C27 6209   1.710   0.349   3.861 -0.1786  0.2412 -0.0906
   68CHL1  H27A 6210   1.816   0.317   3.864  0.7612  2.3076 -4.5624
   68CHL1  H27B 6211   1.707   0.457   3.836  2.0033  0.5685  0.7959
   68CHL1  H27C 6212   1.657   0.333   3.958 -1.0112  3.9624  0.1953
   69CHL1    C3 6213   6.774   0.677   5.302  0.1754 -0.2717  0.7286
   69CHL1    H3 6214   6.681   0.712   5.253 -0.7350 -1.2240  1.7182
   69CHL1    O3 6215   6.770   0.723   5.433  0.2176 -0.1511  0.4196
   69CHL1   H3' 6216   6.706   0.659   5.467 -0.1404 -1.4190 -2.3725
   69CHL1    C4 6217   6.796   0.527   5.279  0.4117 -0.2929 -0.2254
   69CHL1   H4A 6218   6.884   0.498   5.339 -0.0667 -2.1026 -0.3451
   69CHL1   H4B 6219   6.700   0.488   5.321 -0.3382  1.6762  0.0431
   69CHL1    C5 6220   6.807   0.486   5.137  0.6767  0.6316 -0.1922
   69CHL1    C6 6221   6.717   0.398   5.086  0.1140  0.8171 -0.2000
   69CHL1    H6 6222   6.639   0.359   5.154  2.3919 -0.8312  1.6145
   69CHL1    C7 6223   6.717   0.350   4.943 -0.3015  0.6723 -0.4502
   69CHL1   H7A 6224   6.696   0.242   4.927 -0.7293  0.1380  3.0436
   69CHL1   H7B 6225   6.634   0.403   4.891 -0.1345  0.2855 -1.1345
   69CHL1    C8 6226   6.855   0.384   4.871 -0.5987  0.1389  0.3497
   69CHL1    H8 6227   6.934   0.321   4.917  0.4514  3.3212  3.4170
   69CHL1   C14 6228   6.830   0.372   4.724 -0.7011 -0.4610 -0.2071
   69CHL1   H14 6229   6.745   0.437   4.693 -1.3508 -1.3410 -0.3139
   69CHL1   C15 6230   6.788   0.230   4.680 -0.2985 -0.2738 -1.0518
   69CHL1  H15A 6231   6.849   0.158   4.739 -0.9155  1.2340  1.6189
   69CHL1  H15B 6232   6.680   0.214   4.704  0.3483  1.0012  3.7617
   69CHL1   C16 6233   6.818   0.216   4.531  0.2590  0.3055  0.6012
   69CHL1  H16A 6234   6.888   0.131   4.512  0.5894  0.9978 -1.4942
   69CHL1  H16B 6235   6.726   0.195   4.473  1.0713 -1.1629 -0.2374
   69CHL1   C17 6236   6.886   0.361   4.494  0.6098 -0.3438 -0.4214
   69CHL1   H17 6237   6.795   0.423   4.478 -0.3979 -0.9692  2.3654
   69CHL1   C13 6238   6.949   0.405   4.632 -0.2530 -0.4173 -0.3472
   69CHL1   C18 6239   7.079   0.319   4.654 -0.0425  0.7616  0.2472
   69CHL1  H18A 6240   7.061   0.211   4.631 -1.6623  0.9406  0.6035
   69CHL1  H18B 6241   7.158   0.347   4.580  1.0608  0.5394  1.3086
   69CHL1  H18C 6242   7.121   0.323   4.756 -1.3655  0.2041  0.8271
   69CHL1   C12 6243   6.972   0.560   4.662 -0.0629  0.0702 -0.2859
   69CHL1  H12A 6244   7.062   0.590   4.604  0.2595 -1.7008 -0.7648
   69CHL1  H12B 6245   6.879   0.614   4.636  0.0418 -0.0449 -0.8970
   69CHL1   C11 6246   7.002   0.589   4.810 -0.1321  0.4930  0.3145
   69CHL1  H11A 6247   7.099   0.537   4.827 -0.1794  0.1160 -0.4995
   69CHL1  H11B 6248   7.004   0.699   4.823 -2.8927  0.8722 -1.5126
   69CHL1    C9 6249   6.897   0.529   4.904 -0.1979  0.5198 -0.4146
   69CHL1    H9 6250   6.805   0.583   4.873 -0.4474  1.3489  1.6185
   69CHL1   C10 6251   6.914   0.564   5.051  1.2460  0.4288 -0.1650
   69CHL1   C19 6252   7.058   0.512   5.095 -0.3909 -0.0265  0.0872
   69CHL1  H19A 6253   7.133   0.566   5.033 -1.1146  1.1643  0.2209
   69CHL1  H19B 6254   7.081   0.528   5.202 -1.0053 -0.1308  0.2381
   69CHL1  H19C 6255   7.047   0.402   5.084 -3.1344 -0.0643  2.3548
   69CHL1    C1 6256   6.900   0.713   5.080 -0.1797  0.2293  0.3918
   69CHL1   H1A 6257   6.985   0.772   5.040 -0.3375  0.8168  0.9030
   69CHL1   H1B 6258   6.806   0.743   5.029  0.2932  4.0366  1.4769
   69CHL1    C2 6259   6.893   0.748   5.233  0.4190 -0.1928 -0.2438
   69CHL1   H2A 6260   6.892   0.857   5.250  2.0115 -0.3481  0.9902
   69CHL1   H2B 6261   6.985   0.714   5.283  1.2072 -2.4762 -2.9617
   69CHL1   C20 6262   6.975   0.359   4.370 -0.5371 -0.1524 -0.0559
   69CHL1   H20 6263   7.058   0.290   4.398 -1.1599 -1.2908 -0.9153
   69CHL1   C21 6264   7.020   0.502   4.328 -0.5054 -0.0691  0.2053
   69CHL1  H21A 6265   7.085   0.541   4.408  1.6341 -0.1756 -1.3936
   69CHL1  H21B 6266   6.946   0.583   4.312  1.4361  2.7148  3.8733
   69CHL1  H21C 6267   7.091   0.491   4.243 -0.1707 -0.5518  0.5410
   69CHL1   C22 6268   6.908   0.295   4.249 -1.0522  0.5099  0.5089
   69CHL1  H22A 6269   6.862   0.199   4.283  0.2292 -1.4426 -2.7649
   69CHL1  H22B 6270   6.836   0.364   4.200  0.9545  1.1652 -1.6867
   69CHL1   C23 6271   6.997   0.262   4.129 -0.8205 -0.2453  0.4992
   69CHL1  H23A 6272   7.042   0.352   4.082  1.2389 -1.2552  0.4236
   69CHL1  H23B 6273   7.080   0.200   4.169  0.4036  1.0850  0.1314
   69CHL1   C24 6274   6.926   0.179   4.017 -0.9707  0.7461  0.8071
   69CHL1  H24A 6275   6.880   0.087   4.060  0.4392  0.4432  1.7303
   69CHL1  H24B 6276   6.852   0.246   3.969 -0.3308  3.4283  3.2783
   69CHL1   C25 6277   7.016   0.107   3.902 -0.1020 -0.3190  0.1095
   69CHL1   H25 6278   7.089   0.053   3.967  0.4055  1.2323  0.8898
   69CHL1   C26 6279   6.952   0.006   3.808 -0.2645 -0.6442 -0.3436
   69CHL1  H26A 6280   7.013  -0.028   3.722 -0.6828  1.2644 -1.4620
   69CHL1  H26B 6281   6.916  -0.083   3.865 -2.1341 -0.6426 -1.4424
   69CHL1  H26C 6282   6.855   0.050   3.775 -0.3928  0.2753  1.1846
   69CHL1   C27 6283   7.100   0.205   3.818  0.7171  0.5940 -0.3363
   69CHL1  H27A 6284   7.141   0.287   3.881  0.9420 -1.8105  2.9193
   69CHL1  H27B 6285   7.185   0.142   3.785 -0.5643 -1.8967  0.7728
   69CHL1  H27C 6286   7.055   0.239   3.723  2.3649  0.2391 -1.2752
   70CHL1    C3 6287   6.102   6.295   2.198 -0.7904  0.0871 -0.4839
   70CHL1    H3 6288   6.073   6.402   2.198 -2.0657 -0.2322 -1.9990
   70CHL1    O3 6289   6.116   6.250   2.066 -0.6194  0.3728 -0.3524
   70CHL1   H3' 6290   6.190   6.189   2.066  0.5148  1.6276  1.4835
   70CHL1    C4 6291   6.240   6.282   2.267 -0.2012  0.3341 -0.5076
   70CHL1   H4A 6292   6.276   6.178   2.263  2.9463  1.3146 -0.1156
   70CHL1   H4B 6293   6.303   6.345   2.201 -0.8165  0.1002 -1.3286
   70CHL1    C5 6294   6.241   6.315   2.418 -0.2289 -0.2403 -0.2777
   70CHL1    C6 6295   6.325   6.405   2.467 -0.1253 -0.1467  0.3561
   70CHL1    H6 6296   6.393   6.455   2.397 -0.0423 -0.7671 -0.0164
   70CHL1    C7 6297   6.327   6.451   2.608  0.3406  0.3519 -0.7630
   70CHL1   H7A 6298   6.432   6.437   2.640  0.9410  2.4743 -1.6294
   70CHL1   H7B 6299   6.309   6.561   2.606  0.1402  0.3331 -0.1187
   70CHL1    C8 6300   6.234   6.377   2.706  0.0963  0.1619  0.4798
   70CHL1    H8 6301   6.288   6.282   2.729 -0.0338  0.2577  1.2087
   70CHL1   C14 6302   6.214   6.449   2.839  0.5868 -0.0866 -0.3288
   70CHL1   H14 6303   6.156   6.540   2.813  2.0069  0.5767 -1.3635
   70CHL1   C15 6304   6.329   6.501   2.914 -0.4386 -0.0859 -0.4919
   70CHL1  H15A 6305   6.408   6.424   2.913 -0.7873 -0.4667  0.4557
   70CHL1  H15B 6306   6.368   6.588   2.856 -0.1740 -1.2371 -2.0911
   70CHL1   C16 6307   6.271   6.529   3.052  0.3687 -0.0021  0.0330
   70CHL1  H16A 6308   6.329   6.489   3.137  0.9381 -2.8080 -1.5355
   70CHL1  H16B 6309   6.258   6.636   3.076 -2.7087 -0.1632 -0.5220
   70CHL1   C17 6310   6.128   6.472   3.055 -0.0218  0.2426  0.8831
   70CHL1   H17 6311   6.055   6.552   3.029  1.0958  1.1985  0.6396
   70CHL1   C13 6312   6.128   6.369   2.933  0.1252 -0.8069 -0.5542
   70CHL1   C18 6313   6.192   6.237   2.975 -0.0534 -0.4115 -0.4115
   70CHL1  H18A 6314   6.133   6.181   3.051  0.2395  0.8596  0.7930
   70CHL1  H18B 6315   6.207   6.181   2.880 -0.6270  0.6340 -1.1454
   70CHL1  H18C 6316   6.291   6.263   3.018 -1.4205  2.0136  1.5600
   70CHL1   C12 6317   5.986   6.346   2.870  0.1260  0.1484 -0.5512
   70CHL1  H12A 6318   5.928   6.278   2.935  0.9598 -0.2279 -0.1812
   70CHL1  H12B 6319   5.935   6.444   2.858 -1.1124 -0.2816  0.8878
   70CHL1   C11 6320   6.013   6.278   2.737  1.1646 -1.0451 -0.7110
   70CHL1  H11A 6321   6.043   6.174   2.762  0.6970 -0.5166  2.4023
   70CHL1  H11B 6322   5.912   6.271   2.692  1.7055  0.4763 -2.3081
   70CHL1    C9 6323   6.105   6.339   2.633 -0.2799 -0.5758  0.1380
   70CHL1    H9 6324   6.052   6.436   2.618 -0.7783 -0.7945  0.4198
   70CHL1   C10 6325   6.118   6.253   2.498 -0.1737 -0.6347 -0.3595
   70CHL1   C19 6326   6.131   6.102   2.520 -0.6257  0.5575  0.1647
   70CHL1  H19A 6327   6.218   6.083   2.587 -1.5839  2.1537  1.9480
   70CHL1  H19B 6328   6.043   6.067   2.579  0.0401 -0.5860  0.5135
   70CHL1  H19C 6329   6.129   6.045   2.425  1.9464  0.7222 -0.0678
   70CHL1    C1 6330   5.987   6.275   2.416 -0.1280  0.3554  0.0909
   70CHL1   H1A 6331   5.904   6.219   2.464 -0.9920  0.5940 -1.0725
   70CHL1   H1B 6332   5.951   6.380   2.413 -1.9209 -0.2457 -2.5469
   70CHL1    C2 6333   5.997   6.224   2.274  0.0359 -0.0808 -0.5706
   70CHL1   H2A 6334   5.901   6.244   2.223 -2.0689 -1.0086  2.7181
   70CHL1   H2B 6335   6.012   6.114   2.276  1.6788  0.1165 -0.4374
   70CHL1   C20 6336   6.089   6.421   3.194 -0.2090  0.1953  0.4253
   70CHL1   H20 6337   6.148   6.333   3.225 -1.0550 -0.6952 -0.4265
   70CHL1   C21 6338   5.940   6.384   3.183  1.1089  1.0989 -0.1934
   70CHL1  H21A 6339   5.883   6.459   3.125 -2.9819 -0.2860  1.6829
   70CHL1  H21B 6340   5.889   6.361   3.279  0.9151 -1.3242 -0.7946
   70CHL1  H21C 6341   5.940   6.285   3.133  1.9582 -0.1528  2.0994
   70CHL1   C22 6342   6.113   6.536   3.296 -0.2814 -0.1079 -0.3165
   70CHL1  H22A 6343   6.219   6.569   3.292  0.0261 -1.1550 -3.0312
   70CHL1  H22B 6344   6.055   6.625   3.265  1.0221 -0.0635 -2.9339
   70CHL1   C23 6345   6.065   6.494   3.436  0.0558 -0.2938  0.9399
   70CHL1  H23A 6346   5.955   6.479   3.441  0.1556 -1.0073  1.1101
   70CHL1  H23B 6347   6.101   6.392   3.461  0.2206 -0.7758 -1.1200
   70CHL1   C24 6348   6.090   6.601   3.550 -0.6443  0.6076  0.7917
   70CHL1  H24A 6349   6.181   6.660   3.527 -1.7640  1.2493 -2.5918
   70CHL1  H24B 6350   6.009   6.677   3.556  0.2637  1.5163  2.3921
   70CHL1   C25 6351   6.100   6.547   3.693  0.5174 -0.6874  0.5366
   70CHL1   H25 6352   6.191   6.483   3.698  1.3911  0.3459 -1.4018
   70CHL1   C26 6353   6.115   6.660   3.791 -0.6046  1.0270  0.0130
   70CHL1  H26A 6354   6.022   6.720   3.794 -0.5252  1.1030  1.9152
   70CHL1  H26B 6355   6.131   6.619   3.893  0.8346  0.9748 -0.2073
   70CHL1  H26C 6356   6.192   6.729   3.748  0.3470 -1.2690 -2.2393
   70CHL1   C27 6357   5.980   6.472   3.734 -0.3684  0.2371 -0.3460
   70CHL1  H27A 6358   5.998   6.435   3.838 -2.2331 -1.3676 -0.5400
   70CHL1  H27B 6359   5.884   6.528   3.745 -1.5415 -1.5207 -1.0798
   70CHL1  H27C 6360   5.964   6.385   3.666  1.6750  1.0247 -1.9068
   71CHL1    C3 6361   5.551   5.823   2.361  0.6000  0.2555  0.1464
   71CHL1    H3 6362   5.462   5.889   2.374 -0.0249 -0.5379 -0.0597
   71CHL1    O3 6363   5.565   5.817   2.215 -1.0025 -0.5083 -0.2989
   71CHL1   H3' 6364   5.551   5.904   2.176  1.5810  0.6662  1.1502
   71CHL1    C4 6365   5.684   5.876   2.419  0.5490  0.3298 -0.0885
   71CHL1   H4A 6366   5.763   5.809   2.378  1.1555  1.3191 -0.5598
   71CHL1   H4B 6367   5.696   5.978   2.378 -1.8836  0.2280 -1.2582
   71CHL1    C5 6368   5.680   5.874   2.567 -0.4622  0.4322 -0.0954
   71CHL1    C6 6369   5.720   5.980   2.635  0.2924 -0.6891  0.4564
   71CHL1    H6 6370   5.752   6.065   2.574  1.1477 -2.3213 -1.4921
   71CHL1    C7 6371   5.723   5.986   2.783 -0.0937 -0.2793 -0.3196
   71CHL1   H7A 6372   5.806   6.052   2.817 -0.7990  0.2639  0.3777
   71CHL1   H7B 6373   5.630   6.039   2.811  0.8238  1.0784  0.2762
   71CHL1    C8 6374   5.734   5.843   2.849 -1.1839  0.4795 -0.4825
   71CHL1    H8 6375   5.830   5.805   2.808 -2.5441 -1.3910 -2.1466
   71CHL1   C14 6376   5.731   5.848   3.000  0.6972 -0.4372 -0.0866
   71CHL1   H14 6377   5.631   5.893   3.018 -0.3099  0.1868 -5.4519
   71CHL1   C15 6378   5.826   5.937   3.074 -0.6465  0.0118  0.6088
   71CHL1  H15A 6379   5.930   5.929   3.035 -1.2383  2.5461 -1.8433
   71CHL1  H15B 6380   5.802   6.044   3.054  1.0831  0.3036 -0.0866
   71CHL1   C16 6381   5.825   5.883   3.225  0.3186  0.3363  0.1562
   71CHL1  H16A 6382   5.929   5.851   3.248  0.9334  1.0113 -1.5132
   71CHL1  H16B 6383   5.781   5.954   3.297  0.7041  1.5228 -0.7485
   71CHL1   C17 6384   5.732   5.751   3.233 -0.0178  0.0289  0.2595
   71CHL1   H17 6385   5.629   5.778   3.267 -1.0202 -3.0438 -0.0784
   71CHL1   C13 6386   5.725   5.714   3.083 -0.0233 -0.1076 -0.4001
   71CHL1   C18 6387   5.852   5.634   3.048  0.0245 -0.2446 -0.0415
   71CHL1  H18A 6388   5.837   5.527   3.076 -0.6197 -0.9358 -2.7662
   71CHL1  H18B 6389   5.875   5.633   2.939 -0.0147 -3.6899 -0.1512
   71CHL1  H18C 6390   5.936   5.683   3.101  0.6928 -2.2953  0.9386
   71CHL1   C12 6391   5.603   5.642   3.021  0.7902 -0.2915  0.4119
   71CHL1  H12A 6392   5.599   5.537   3.058  2.1167 -0.5663 -0.1522
   71CHL1  H12B 6393   5.508   5.694   3.047  0.2275  0.6440 -3.0315
   71CHL1   C11 6394   5.608   5.623   2.870  0.5765  1.0122  0.2371
   71CHL1  H11A 6395   5.698   5.564   2.845 -1.4728 -1.7086 -1.2197
   71CHL1  H11B 6396   5.528   5.554   2.837  1.4211  0.8515 -1.6165
   71CHL1    C9 6397   5.626   5.756   2.789  0.5024  0.8001  0.5773
   71CHL1    H9 6398   5.534   5.811   2.817  1.4954  1.5798  2.4919
   71CHL1   C10 6399   5.633   5.748   2.635  0.3669  0.6403  0.1699
   71CHL1   C19 6400   5.733   5.636   2.603 -0.5335 -0.4080 -0.3535
   71CHL1  H19A 6401   5.825   5.665   2.659 -0.8690  2.5839 -1.1410
   71CHL1  H19B 6402   5.698   5.537   2.639 -0.1005  0.4200  2.6824
   71CHL1  H19C 6403   5.752   5.633   2.494 -1.4472  1.2743 -0.6047
   71CHL1    C1 6404   5.499   5.698   2.570 -0.4763  0.3935 -0.0878
   71CHL1   H1A 6405   5.476   5.600   2.616 -2.2318 -0.3655 -2.4480
   71CHL1   H1B 6406   5.426   5.779   2.590 -1.9682 -1.0105  0.3644
   71CHL1    C2 6407   5.499   5.688   2.420 -0.3003  0.1794  0.4478
   71CHL1   H2A 6408   5.399   5.656   2.382  0.1273 -3.2959  1.8837
   71CHL1   H2B 6409   5.563   5.605   2.383 -1.1387 -0.6906  0.8787
   71CHL1   C20 6410   5.787   5.647   3.335  0.1099  0.3350 -0.2872
   71CHL1   H20 6411   5.882   5.607   3.294 -0.2752  0.6293 -1.4877
   71CHL1   C21 6412   5.683   5.528   3.331 -0.1147  0.1100 -0.2527
   71CHL1  H21A 6413   5.697   5.450   3.409  0.0235 -2.5256 -2.7530
   71CHL1  H21B 6414   5.697   5.468   3.239 -3.4976  0.7639 -1.3141
   71CHL1  H21C 6415   5.577   5.559   3.323 -0.1603  0.9249  2.4940
   71CHL1   C22 6416   5.799   5.700   3.481  0.5824  0.1810 -0.3172
   71CHL1  H22A 6417   5.848   5.798   3.462 -2.8642  1.7584 -1.9427
   71CHL1  H22B 6418   5.696   5.730   3.509  0.1856 -1.4846  0.1018
   71CHL1   C23 6419   5.878   5.621   3.585 -0.8865 -0.0019 -0.8224
   71CHL1  H23A 6420   5.835   5.519   3.595  0.2985 -0.5067 -0.7855
   71CHL1  H23B 6421   5.980   5.604   3.547 -0.3060 -0.5174  0.8625
   71CHL1   C24 6422   5.885   5.691   3.727 -0.1175 -0.3362  0.5453
   71CHL1  H24A 6423   5.915   5.798   3.715 -1.5295 -0.0505 -0.6443
   71CHL1  H24B 6424   5.782   5.698   3.767  0.2783 -1.1720  1.7843
   71CHL1   C25 6425   5.977   5.628   3.829 -0.5269 -0.0388 -0.0265
   71CHL1   H25 6426   6.080   5.632   3.788  0.0200 -2.2514  0.9976
   71CHL1   C26 6427   5.981   5.705   3.958 -0.0850 -0.1885 -0.3619
   71CHL1  H26A 6428   6.045   5.793   3.935 -1.5014  0.2637 -2.9315
   71CHL1  H26B 6429   5.880   5.742   3.988  0.7274  1.4072  0.5546
   71CHL1  H26C 6430   6.030   5.641   4.034  2.1754 -0.0549 -1.6072
   71CHL1   C27 6431   5.960   5.480   3.857  0.1727  0.0539  0.3122
   71CHL1  H27A 6432   6.055   5.448   3.904  0.5691  2.2213  1.1393
   71CHL1  H27B 6433   5.882   5.461   3.934 -2.1296 -0.9583 -2.1039
   71CHL1  H27C 6434   5.933   5.426   3.764  1.7904 -1.6324  0.7789
   72CHL1    C3 6435   5.685   1.217   2.213  0.1132  0.8873 -0.9444
   72CHL1    H3 6436   5.764   1.295   2.221 -0.3687  1.4665 -1.6317
   72CHL1    O3 6437   5.645   1.192   2.082 -0.1751 -0.1195 -0.3306
   72CHL1   H3' 6438   5.601   1.273   2.053 -2.7193 -1.0414  0.6052
   72CHL1    C4 6439   5.739   1.081   2.262 -0.5767 -0.0574 -0.0110
   72CHL1   H4A 6440   5.678   0.993   2.234  0.0259 -1.0650  1.7042
   72CHL1   H4B 6441   5.837   1.075   2.210 -0.6363  3.3640 -0.7643
   72CHL1    C5 6442   5.757   1.079   2.418  0.3260  0.3512 -0.7807
   72CHL1    C6 6443   5.870   1.041   2.477 -0.8979  0.7279 -0.1042
   72CHL1    H6 6444   5.954   1.005   2.416 -1.7815 -1.0607 -0.3198
   72CHL1    C7 6445   5.885   1.013   2.628 -0.1411  0.2407  0.4886
   72CHL1   H7A 6446   5.909   0.905   2.628 -1.7434 -0.1501 -0.8391
   72CHL1   H7B 6447   5.977   1.061   2.669 -0.2519 -0.1222  1.1563
   72CHL1    C8 6448   5.758   1.039   2.711  1.0116  0.7611 -0.0867
   72CHL1    H8 6449   5.688   0.953   2.706 -0.2573  1.8076 -1.2414
   72CHL1   C14 6450   5.784   1.075   2.856 -0.5798  0.2814 -0.3756
   72CHL1   H14 6451   5.839   1.172   2.854  0.2951 -0.2131 -1.3674
   72CHL1   C15 6452   5.881   0.974   2.922 -0.8011 -0.4528  0.3441
   72CHL1  H15A 6453   5.868   0.867   2.894  1.3122 -0.4618 -0.7893
   72CHL1  H15B 6454   5.990   0.981   2.904 -0.3632 -0.0117  2.8405
   72CHL1   C16 6455   5.848   1.002   3.076  0.3073 -0.6469  0.6419
   72CHL1  H16A 6456   5.815   0.905   3.118 -1.1063 -0.6908 -0.4584
   72CHL1  H16B 6457   5.938   1.047   3.123  2.3917 -3.3922 -0.4513
   72CHL1   C17 6458   5.733   1.109   3.082 -0.5768  0.5820 -0.4179
   72CHL1   H17 6459   5.779   1.210   3.081 -0.1409  0.4233  1.1053
   72CHL1   C13 6460   5.664   1.092   2.950  0.0937 -0.2401 -0.1128
   72CHL1   C18 6461   5.573   0.970   2.952 -0.1579 -0.0718 -0.5298
   72CHL1  H18A 6462   5.478   0.984   3.008 -0.2077 -1.5616 -0.2220
   72CHL1  H18B 6463   5.541   0.960   2.846  0.2101  4.5936 -1.2945
   72CHL1  H18C 6464   5.627   0.877   2.977  0.6435 -0.3055 -2.8274
   72CHL1   C12 6465   5.592   1.224   2.893  0.3666 -0.2409 -0.4735
   72CHL1  H12A 6466   5.496   1.232   2.949  0.9416  1.5606  0.3131
   72CHL1  H12B 6467   5.660   1.310   2.911  1.7422 -1.5178  0.7876
   72CHL1   C11 6468   5.552   1.203   2.744  0.3410 -0.1954  0.7154
   72CHL1  H11A 6469   5.471   1.127   2.736 -0.4542  0.7432 -0.4298
   72CHL1  H11B 6470   5.506   1.299   2.713  1.4736 -0.8895 -3.7936
   72CHL1    C9 6471   5.669   1.157   2.648 -0.2991  0.8406  0.1003
   72CHL1    H9 6472   5.741   1.242   2.651  0.9440 -0.2078  1.8804
   72CHL1   C10 6473   5.630   1.130   2.501 -0.5841 -0.4966 -0.2834
   72CHL1   C19 6474   5.525   1.021   2.497 -0.8393 -0.5915 -0.0925
   72CHL1  H19A 6475   5.425   1.067   2.478 -1.5719 -1.9832  0.2596
   72CHL1  H19B 6476   5.544   0.949   2.415  3.0505  1.7436 -1.5030
   72CHL1  H19C 6477   5.527   0.960   2.590  1.4263 -3.3240 -1.7716
   72CHL1    C1 6478   5.590   1.269   2.441  0.1337  0.2139 -0.0278
   72CHL1   H1A 6479   5.498   1.300   2.495 -0.0785 -2.9308  1.6874
   72CHL1   H1B 6480   5.671   1.343   2.455  1.5944 -1.2043 -0.5585
   72CHL1    C2 6481   5.556   1.259   2.292 -0.1955  0.6111  0.2168
   72CHL1   H2A 6482   5.534   1.361   2.256  0.8785  0.2870 -1.4568
   72CHL1   H2B 6483   5.470   1.197   2.258  1.5775 -0.5777 -2.4483
   72CHL1   C20 6484   5.652   1.101   3.215 -0.3112 -0.3151 -0.4051
   72CHL1   H20 6485   5.609   0.998   3.220  0.6548 -0.7167 -0.0387
   72CHL1   C21 6486   5.548   1.215   3.226 -0.1793 -0.7626  0.0915
   72CHL1  H21A 6487   5.599   1.308   3.194 -0.9025  0.0580  1.2850
   72CHL1  H21B 6488   5.508   1.220   3.329 -2.3903  2.9316 -0.7747
   72CHL1  H21C 6489   5.460   1.202   3.160  0.2696  0.2080 -0.7241
   72CHL1   C22 6490   5.746   1.128   3.336  0.0877  0.4655 -0.7958
   72CHL1  H22A 6491   5.847   1.081   3.334  0.6643  1.6882 -1.1218
   72CHL1  H22B 6492   5.766   1.236   3.346  1.0393  0.6927 -4.0143
   72CHL1   C23 6493   5.682   1.082   3.472 -0.2389  0.1973  0.4621
   72CHL1  H23A 6494   5.651   1.179   3.516  0.7239  0.5134  0.4666
   72CHL1  H23B 6495   5.598   1.013   3.452  1.2016 -1.1119 -1.4227
   72CHL1   C24 6496   5.793   1.038   3.567 -0.0315 -0.0705 -0.4422
   72CHL1  H24A 6497   5.842   0.957   3.510 -1.5311 -2.1672  1.0627
   72CHL1  H24B 6498   5.862   1.123   3.579 -1.5256  1.1714 -0.3401
   72CHL1   C25 6499   5.744   1.003   3.709 -0.6292  0.5582  0.4011
   72CHL1   H25 6500   5.697   1.091   3.758 -1.6954  0.6660 -0.7729
   72CHL1   C26 6501   5.642   0.882   3.697  0.7500  0.1155 -0.3450
   72CHL1  H26A 6502   5.695   0.792   3.658  1.4154  0.2764  0.1755
   72CHL1  H26B 6503   5.607   0.869   3.802  0.9385  1.1840 -0.1371
   72CHL1  H26C 6504   5.554   0.900   3.632  0.0238 -0.3842  0.4642
   72CHL1   C27 6505   5.868   0.960   3.793  0.3905 -0.0798 -0.3216
   72CHL1  H27A 6506   5.829   0.929   3.893  0.6114  0.9030  0.0901
   72CHL1  H27B 6507   5.925   0.879   3.744  0.2211  0.5983 -1.6871
   72CHL1  H27C 6508   5.943   1.041   3.804  2.0166 -1.5783  0.1423
   73CHL1    C3 6509   1.025   0.012   2.361 -0.1874 -0.1335 -0.5789
   73CHL1    H3 6510   1.008  -0.097   2.378 -0.2603 -0.3597 -1.9827
   73CHL1    O3 6511   1.022   0.041   2.218  0.1347  0.2109  0.1997
   73CHL1   H3' 6512   1.000  -0.043   2.177 -1.5486  0.9301 -0.4974
   73CHL1    C4 6513   0.927   0.089   2.431  0.0581  0.0956  0.1143
   73CHL1   H4A 6514   0.948   0.196   2.414 -0.3173  0.4719  1.8430
   73CHL1   H4B 6515   0.830   0.058   2.387 -0.0248 -0.7294  0.8438
   73CHL1    C5 6516   0.943   0.069   2.579  0.6575 -0.3475  0.4258
   73CHL1    C6 6517   0.839   0.032   2.651 -0.7649 -0.4406 -0.8327
   73CHL1    H6 6518   0.747   0.011   2.595 -0.3413 -1.4578 -1.1534
   73CHL1    C7 6519   0.830   0.010   2.809 -0.6654 -0.4280 -0.4184
   73CHL1   H7A 6520   0.743   0.061   2.858  0.6616  2.2968 -0.7194
   73CHL1   H7B 6521   0.806  -0.095   2.836  1.1377 -0.5673  0.7832
   73CHL1    C8 6522   0.961   0.060   2.866 -0.2566 -0.1093 -0.5749
   73CHL1    H8 6523   0.960   0.170   2.882  1.1409 -0.0824 -0.5616
   73CHL1   C14 6524   0.981  -0.005   3.007 -0.0203  0.1788  0.1178
   73CHL1   H14 6525   0.992  -0.114   2.992  0.6440  0.1248  0.8803
   73CHL1   C15 6526   0.864   0.008   3.106 -0.3586  0.2848 -0.8818
   73CHL1  H15A 6527   0.820   0.109   3.115  0.9797  0.9368 -1.3295
   73CHL1  H15B 6528   0.783  -0.064   3.084 -1.9756  1.3334  1.2745
   73CHL1   C16 6529   0.927  -0.034   3.242  0.3395 -0.2433 -0.2793
   73CHL1  H16A 6530   0.908   0.047   3.315 -0.4318 -0.2658 -0.4469
   73CHL1  H16B 6531   0.897  -0.128   3.293  0.5362 -1.0876 -1.6759
   73CHL1   C17 6532   1.084  -0.052   3.215  0.1401  0.1354  0.2807
   73CHL1   H17 6533   1.101  -0.157   3.185  0.2681 -0.4816  2.3168
   73CHL1   C13 6534   1.109   0.041   3.088  0.1126 -0.0332  0.6110
   73CHL1   C18 6535   1.099   0.189   3.117 -0.5461  0.3082  0.1814
   73CHL1  H18A 6536   1.096   0.254   3.027  0.4766  0.7124  0.4228
   73CHL1  H18B 6537   1.007   0.210   3.176 -1.8126  0.8358 -1.8986
   73CHL1  H18C 6538   1.190   0.225   3.171  0.3999 -0.0690 -1.1025
   73CHL1   C12 6539   1.234   0.005   3.005  0.4900 -0.8209  0.4068
   73CHL1  H12A 6540   1.322   0.049   3.056 -0.5078 -0.0498  1.5468
   73CHL1  H12B 6541   1.249  -0.105   3.003 -0.0864 -0.9041  0.4447
   73CHL1   C11 6542   1.224   0.060   2.863 -0.2308  0.7144  0.0668
   73CHL1  H11A 6543   1.225   0.171   2.868  0.6185  0.7657 -0.9705
   73CHL1  H11B 6544   1.312   0.026   2.806  1.4119  3.4221  0.8013
   73CHL1    C9 6545   1.091   0.021   2.787  0.3979 -0.6207  0.4313
   73CHL1    H9 6546   1.076  -0.089   2.780 -2.1563 -0.3381  0.5019
   73CHL1   C10 6547   1.079   0.075   2.643 -0.1299 -0.3541  0.7394
   73CHL1   C19 6548   1.099   0.230   2.653  0.0679  0.0413 -0.0678
   73CHL1  H19A 6549   1.032   0.289   2.719 -0.8761 -2.0866  0.9667
   73CHL1  H19B 6550   1.200   0.243   2.697 -0.0428  1.0834 -0.1037
   73CHL1  H19C 6551   1.105   0.286   2.557  1.6516 -1.5599 -0.9747
   73CHL1    C1 6552   1.191   0.012   2.565 -0.4516  0.2516  0.8178
   73CHL1   H1A 6553   1.294   0.051   2.583  0.7067 -2.6978  1.2725
   73CHL1   H1B 6554   1.188  -0.098   2.584  3.6100 -0.2640 -0.4474
   73CHL1    C2 6555   1.174   0.047   2.413  0.6254 -0.0329  0.0563
   73CHL1   H2A 6556   1.256  -0.007   2.362  0.8562 -0.3482  0.7546
   73CHL1   H2B 6557   1.201   0.150   2.381  1.8262  0.2981  1.9727
   73CHL1   C20 6558   1.167  -0.040   3.337 -0.0787  0.3085 -0.5568
   73CHL1   H20 6559   1.146   0.054   3.392  2.9555  0.5265  0.4477
   73CHL1   C21 6560   1.322  -0.042   3.320  0.3798 -0.0784  0.6665
   73CHL1  H21A 6561   1.371  -0.027   3.418  1.5779  0.8660 -0.0579
   73CHL1  H21B 6562   1.363   0.034   3.250 -0.2080  1.3619  1.8169
   73CHL1  H21C 6563   1.352  -0.141   3.281 -0.9263 -0.4386  0.5061
   73CHL1   C22 6564   1.141  -0.150   3.451 -0.0777  0.4049  0.3520
   73CHL1  H22A 6565   1.074  -0.224   3.404 -0.4278  0.7642  0.2774
   73CHL1  H22B 6566   1.235  -0.200   3.483  0.6477  0.9537 -0.8529
   73CHL1   C23 6567   1.072  -0.093   3.571 -0.4771 -0.1551  0.0219
   73CHL1  H23A 6568   1.154  -0.050   3.632 -0.8345  1.0812 -0.3487
   73CHL1  H23B 6569   1.008  -0.005   3.554  0.4765  0.5700  0.1095
   73CHL1   C24 6570   1.002  -0.201   3.656 -0.1083  0.4484 -0.4129
   73CHL1  H24A 6571   0.922  -0.248   3.594 -0.7119 -2.5130  2.3597
   73CHL1  H24B 6572   1.070  -0.287   3.674  1.2874  1.0465 -2.4290
   73CHL1   C25 6573   0.940  -0.158   3.784  0.5764 -0.0024 -0.3311
   73CHL1   H25 6574   1.005  -0.093   3.846 -1.4477  0.5204  1.3810
   73CHL1   C26 6575   0.821  -0.064   3.767 -0.3916  0.6743 -0.2440
   73CHL1  H26A 6576   0.792  -0.026   3.867 -1.4884 -0.9012  0.0839
   73CHL1  H26B 6577   0.839   0.020   3.697 -0.8438  0.9065 -0.0822
   73CHL1  H26C 6578   0.742  -0.130   3.724  1.2463 -0.5546 -1.5090
   73CHL1   C27 6579   0.914  -0.273   3.882 -0.5608 -0.7710  0.6303
   73CHL1  H27A 6580   1.007  -0.328   3.905 -0.0009 -0.2343 -0.2786
   73CHL1  H27B 6581   0.867  -0.229   3.972  1.2624 -0.3605  1.4189
   73CHL1  H27C 6582   0.838  -0.332   3.826 -0.5514  0.5207 -0.8276
   74CHL1    C3 6583   5.373   3.514   2.512  0.2079 -0.1368  0.1208
   74CHL1    H3 6584   5.326   3.602   2.560  1.7991  0.5504  0.4594
   74CHL1    O3 6585   5.386   3.532   2.369 -0.2240  0.2402 -0.3934
   74CHL1   H3' 6586   5.434   3.458   2.331 -0.5915 -0.9304  1.3084
   74CHL1    C4 6587   5.507   3.479   2.574 -0.4807 -0.2471 -0.4268
   74CHL1   H4A 6588   5.552   3.391   2.522  0.3014  1.3301 -2.5793
   74CHL1   H4B 6589   5.577   3.563   2.554 -0.6718  0.3036  1.1019
   74CHL1    C5 6590   5.494   3.451   2.722 -0.9170  0.4374  0.6364
   74CHL1    C6 6591   5.575   3.517   2.815  0.2228  0.4123  0.3088
   74CHL1    H6 6592   5.650   3.583   2.770 -0.1765 -0.2498 -1.3684
   74CHL1    C7 6593   5.581   3.489   2.960  0.3420  0.2575  0.2158
   74CHL1   H7A 6594   5.687   3.486   2.991  0.7103 -0.5376 -1.0641
   74CHL1   H7B 6595   5.516   3.560   3.016 -0.0429 -1.0245  1.4505
   74CHL1    C8 6596   5.509   3.354   2.997 -0.0554  0.2880  0.1758
   74CHL1    H8 6597   5.578   3.270   2.974 -0.5487 -0.3288  0.9184
   74CHL1   C14 6598   5.476   3.356   3.152  0.2768 -0.0961  0.7608
   74CHL1   H14 6599   5.410   3.444   3.166 -1.3535 -1.0609 -0.4973
   74CHL1   C15 6600   5.580   3.383   3.256  0.7242  0.4998 -0.7588
   74CHL1  H15A 6601   5.674   3.324   3.250  0.8144  0.2441  1.9943
   74CHL1  H15B 6602   5.614   3.488   3.268  2.6907 -0.2827  1.0667
   74CHL1   C16 6603   5.506   3.335   3.380  0.2306 -0.4170 -0.0311
   74CHL1  H16A 6604   5.565   3.258   3.436  0.8309 -0.6482 -0.9503
   74CHL1  H16B 6605   5.491   3.416   3.454  1.3442 -1.7902  1.7982
   74CHL1   C17 6606   5.369   3.272   3.344  0.0339 -0.6046 -0.1054
   74CHL1   H17 6607   5.294   3.354   3.344  0.9278  0.2149  0.5077
   74CHL1   C13 6608   5.387   3.240   3.198 -0.4089  0.1605 -0.2201
   74CHL1   C18 6609   5.461   3.112   3.184  0.0908 -0.1195  0.5956
   74CHL1  H18A 6610   5.504   3.104   3.081  0.6088 -1.7855  0.9044
   74CHL1  H18B 6611   5.551   3.091   3.247  0.8939 -0.9764 -0.7628
   74CHL1  H18C 6612   5.392   3.029   3.212  0.7140 -0.9525 -0.2603
   74CHL1   C12 6613   5.254   3.232   3.112 -0.4866 -1.0254 -0.5665
   74CHL1  H12A 6614   5.187   3.154   3.154  1.2863 -1.3729  1.8199
   74CHL1  H12B 6615   5.193   3.325   3.105 -1.2043 -1.5241 -1.1185
   74CHL1   C11 6616   5.284   3.225   2.956  0.4348  0.4772 -0.2154
   74CHL1  H11A 6617   5.343   3.131   2.948 -2.1386 -1.1494 -1.0976
   74CHL1  H11B 6618   5.192   3.217   2.894  0.2971 -1.9957  0.2107
   74CHL1    C9 6619   5.378   3.343   2.912  0.0834  0.4739 -0.0101
   74CHL1    H9 6620   5.321   3.433   2.943  0.3630  0.6363  0.0324
   74CHL1   C10 6621   5.398   3.341   2.760  0.3212  0.3309  0.2582
   74CHL1   C19 6622   5.459   3.212   2.711 -0.3059  0.2064  0.1835
   74CHL1  H19A 6623   5.566   3.205   2.739 -0.5473 -0.1002  1.0897
   74CHL1  H19B 6624   5.403   3.124   2.748 -1.7057  1.2652  0.6796
   74CHL1  H19C 6625   5.456   3.206   2.601  0.9172  0.0465  0.1458
   74CHL1    C1 6626   5.260   3.371   2.689 -0.4437  0.6278 -0.0299
   74CHL1   H1A 6627   5.200   3.278   2.698  3.5430 -2.6292 -3.0978
   74CHL1   H1B 6628   5.193   3.440   2.746 -2.1873 -1.1375  0.1678
   74CHL1    C2 6629   5.262   3.401   2.540  0.2360  0.3461  0.5150
   74CHL1   H2A 6630   5.163   3.436   2.504 -1.5096  0.6342  4.9759
   74CHL1   H2B 6631   5.296   3.312   2.483  1.5494  0.7660  0.6013
   74CHL1   C20 6632   5.322   3.167   3.440  0.3103 -0.1830 -0.0530
   74CHL1   H20 6633   5.384   3.076   3.436  0.3078 -0.4632  3.3652
   74CHL1   C21 6634   5.180   3.125   3.415 -0.3039  0.0450  0.7395
   74CHL1  H21A 6635   5.163   3.075   3.318 -0.7417  0.4839  0.5824
   74CHL1  H21B 6636   5.104   3.206   3.412  0.1728  0.6496  2.9170
   74CHL1  H21C 6637   5.145   3.048   3.487 -0.8480  1.1644  1.7097
   74CHL1   C22 6638   5.334   3.214   3.593  0.1671 -0.7750 -0.2599
   74CHL1  H22A 6639   5.429   3.263   3.627  0.5288 -0.6341 -1.4325
   74CHL1  H22B 6640   5.254   3.290   3.603 -1.6231 -2.7267  0.9986
   74CHL1   C23 6641   5.308   3.114   3.708  0.2377  0.0784 -0.1195
   74CHL1  H23A 6642   5.293   3.175   3.800  2.1321  0.6967 -0.1658
   74CHL1  H23B 6643   5.213   3.062   3.684  1.0107 -0.8771 -1.2018
   74CHL1   C24 6644   5.424   3.013   3.730  0.2385 -0.2758 -0.3558
   74CHL1  H24A 6645   5.444   2.959   3.635 -1.3668  0.3175 -1.0780
   74CHL1  H24B 6646   5.511   3.075   3.759  1.0080 -1.1037 -0.8540
   74CHL1   C25 6647   5.419   2.923   3.861 -0.2541  0.5232  0.5655
   74CHL1   H25 6648   5.423   2.994   3.946  5.9675 -0.1005  1.2407
   74CHL1   C26 6649   5.297   2.836   3.866  0.0358 -0.4826 -0.6606
   74CHL1  H26A 6650   5.297   2.770   3.776  1.8919 -0.8681 -0.4318
   74CHL1  H26B 6651   5.287   2.783   3.963 -0.7797  0.4616 -0.2212
   74CHL1  H26C 6652   5.210   2.904   3.860 -0.2458 -0.8311 -0.5260
   74CHL1   C27 6653   5.536   2.824   3.874  0.9085 -0.1645  0.0563
   74CHL1  H27A 6654   5.635   2.876   3.870  0.1147  1.3126 -2.5993
   74CHL1  H27B 6655   5.520   2.768   3.969  0.2467  1.5260  0.9772
   74CHL1  H27C 6656   5.541   2.753   3.788  1.9348  0.2721 -0.2714
   75CHL1    C3 6657   5.764   2.327   2.374  0.2372  0.6576 -0.0381
   75CHL1    H3 6658   5.858   2.268   2.371 -0.0944  0.1548 -0.8097
   75CHL1    O3 6659   5.708   2.345   2.246  0.3605  0.2440 -0.4813
   75CHL1   H3' 6660   5.722   2.259   2.205  1.2489  0.1238  0.0398
   75CHL1    C4 6661   5.669   2.233   2.444 -0.4620 -0.2812 -0.1558
   75CHL1   H4A 6662   5.565   2.273   2.443 -0.9185 -1.4202 -2.1739
   75CHL1   H4B 6663   5.657   2.141   2.384 -0.4404 -0.3061 -0.1219
   75CHL1    C5 6664   5.705   2.207   2.587 -0.0656 -0.0378  0.1654
   75CHL1    C6 6665   5.710   2.086   2.643  0.9039 -0.5620  0.1555
   75CHL1    H6 6666   5.687   1.994   2.587  1.3901 -1.3853  1.2746
   75CHL1    C7 6667   5.745   2.054   2.787  0.5730 -0.2409  0.4391
   75CHL1   H7A 6668   5.680   1.968   2.815 -0.5049  0.3279 -0.2492
   75CHL1   H7B 6669   5.849   2.017   2.799 -0.0804 -1.9914  1.0383
   75CHL1    C8 6670   5.723   2.174   2.879 -0.2989 -0.0967 -0.5971
   75CHL1    H8 6671   5.614   2.190   2.890 -0.5088 -0.0076 -2.4816
   75CHL1   C14 6672   5.792   2.143   3.007 -0.1719 -0.8412 -0.4633
   75CHL1   H14 6673   5.901   2.138   2.986  0.4349  0.2732  2.0090
   75CHL1   C15 6674   5.740   2.020   3.072 -0.0149  0.7650  0.1106
   75CHL1  H15A 6675   5.631   2.013   3.050  0.0647 -2.5774  0.3217
   75CHL1  H15B 6676   5.793   1.932   3.030 -2.1534 -0.5107 -0.0621
   75CHL1   C16 6677   5.767   2.031   3.226 -0.5842  0.5057  0.1991
   75CHL1  H16A 6678   5.670   2.028   3.280 -0.8593  0.4931 -0.2967
   75CHL1  H16B 6679   5.833   1.950   3.265  0.5547 -0.0850 -2.6848
   75CHL1   C17 6680   5.825   2.173   3.239 -0.1177  0.8331 -0.2151
   75CHL1   H17 6681   5.935   2.164   3.222 -0.3030 -1.1561 -0.7170
   75CHL1   C13 6682   5.780   2.253   3.116 -0.6422 -0.4389  0.2987
   75CHL1   C18 6683   5.631   2.291   3.132  0.4983  0.0881  0.0022
   75CHL1  H18A 6684   5.577   2.206   3.180  1.0049  0.2999  0.9771
   75CHL1  H18B 6685   5.639   2.381   3.196  2.6728  0.7592 -1.1044
   75CHL1  H18C 6686   5.575   2.323   3.042 -1.3397  0.9053  1.3870
   75CHL1   C12 6687   5.860   2.381   3.066  0.0799 -0.3643  0.6000
   75CHL1  H12A 6688   5.847   2.473   3.126 -0.2923 -0.5175  0.7590
   75CHL1  H12B 6689   5.968   2.357   3.056 -0.3535 -1.4973 -2.4802
   75CHL1   C11 6690   5.801   2.421   2.920 -0.3121  0.3672  0.5020
   75CHL1  H11A 6691   5.699   2.455   2.949  0.0736  1.7464  0.3214
   75CHL1  H11B 6692   5.844   2.507   2.865  0.7012 -0.2536  0.2969
   75CHL1    C9 6693   5.786   2.302   2.820 -0.6789 -0.3117  0.1149
   75CHL1    H9 6694   5.894   2.283   2.801 -0.0758  2.3801  0.4769
   75CHL1   C10 6695   5.725   2.335   2.669  0.7905 -0.0921  0.3158
   75CHL1   C19 6696   5.585   2.403   2.695  0.2659 -0.1165  0.8813
   75CHL1  H19A 6697   5.514   2.327   2.735 -2.4354  2.3373  1.1587
   75CHL1  H19B 6698   5.598   2.488   2.766 -0.9756 -0.7311  1.8999
   75CHL1  H19C 6699   5.541   2.441   2.600 -0.6472 -1.1698  0.8637
   75CHL1    C1 6700   5.805   2.437   2.598  0.0910 -0.5532  0.1017
   75CHL1   H1A 6701   5.803   2.538   2.644  1.5959 -0.0378 -0.8776
   75CHL1   H1B 6702   5.913   2.409   2.591 -0.2897 -1.7085 -2.4594
   75CHL1    C2 6703   5.768   2.462   2.449  0.6419  0.0354  0.0653
   75CHL1   H2A 6704   5.841   2.534   2.405 -0.8232  1.8136  0.4268
   75CHL1   H2B 6705   5.667   2.507   2.441  0.4107 -0.7856 -3.1676
   75CHL1   C20 6706   5.797   2.234   3.382  0.6290  0.4538  0.1361
   75CHL1   H20 6707   5.688   2.250   3.394  0.7068  1.3308 -0.2641
   75CHL1   C21 6708   5.865   2.372   3.415 -0.0574  0.8408 -0.0873
   75CHL1  H21A 6709   5.974   2.365   3.400  0.3527  1.3074  2.2809
   75CHL1  H21B 6710   5.832   2.410   3.515 -0.0448  1.0284 -0.1542
   75CHL1  H21C 6711   5.830   2.449   3.343  1.0172  0.8933 -0.5632
   75CHL1   C22 6712   5.828   2.131   3.493 -0.3340 -0.0046  0.1925
   75CHL1  H22A 6713   5.809   2.181   3.590 -0.3672  1.3600 -0.4889
   75CHL1  H22B 6714   5.767   2.039   3.484  0.9891 -1.0606  1.4334
   75CHL1   C23 6715   5.978   2.071   3.481  1.4650  0.0555 -0.4103
   75CHL1  H23A 6716   5.996   2.033   3.378  2.2473  0.9451 -0.6149
   75CHL1  H23B 6717   6.036   2.164   3.495 -0.4353  1.2320 -0.0392
   75CHL1   C24 6718   6.006   1.981   3.604  0.0236 -0.3815 -0.0690
   75CHL1  H24A 6719   5.924   1.906   3.608 -1.1787  0.7651 -1.9222
   75CHL1  H24B 6720   6.096   1.916   3.596  0.0531 -0.2723 -0.7184
   75CHL1   C25 6721   6.031   2.046   3.748  0.7513 -0.1491  0.9477
   75CHL1   H25 6722   5.975   2.140   3.772  0.4089 -0.0007 -0.3714
   75CHL1   C26 6723   5.993   1.945   3.857  0.2123 -1.3873 -0.2377
   75CHL1  H26A 6724   6.050   1.850   3.849 -0.6843 -1.9489 -0.1426
   75CHL1  H26B 6725   6.020   1.999   3.951 -0.4935 -1.5154  0.0538
   75CHL1  H26C 6726   5.884   1.922   3.859 -1.2433  4.0009  2.9894
   75CHL1   C27 6727   6.178   2.085   3.759  0.0296  0.0145 -0.3647
   75CHL1  H27A 6728   6.184   2.134   3.859 -3.6601  2.6487 -1.2411
   75CHL1  H27B 6729   6.246   1.997   3.756  0.4825  0.3826 -1.1898
   75CHL1  H27C 6730   6.199   2.159   3.678 -0.5654  0.2316 -0.3235
   76CHL1    C3 6731   4.138   5.003   2.072 -0.4017  0.7005  0.7110
   76CHL1    H3 6732   4.232   5.063   2.073  1.2076 -1.5610 -1.3238
   76CHL1    O3 6733   4.086   5.019   1.939  0.5973  0.6191  0.5957
   76CHL1   H3' 6734   4.114   4.937   1.898  0.5418 -0.3556  2.3981
   76CHL1    C4 6735   4.164   4.854   2.098  0.0968 -0.6072  1.1376
   76CHL1   H4A 6736   4.080   4.791   2.061 -0.5172  2.3014 -3.0610
   76CHL1   H4B 6737   4.250   4.819   2.037 -1.1169  1.5299 -2.0696
   76CHL1    C5 6738   4.200   4.831   2.245  0.0816 -0.1307 -0.0744
   76CHL1    C6 6739   4.316   4.766   2.284  0.4483 -0.1525  0.7114
   76CHL1    H6 6740   4.375   4.724   2.202  1.6403  2.0710  0.3454
   76CHL1    C7 6741   4.339   4.714   2.425  0.7313 -0.0758 -0.6464
   76CHL1   H7A 6742   4.348   4.604   2.414  0.2988 -0.2269  0.4039
   76CHL1   H7B 6743   4.434   4.757   2.465  0.2602  2.1352 -1.7492
   76CHL1    C8 6744   4.220   4.746   2.526  0.5227  0.7171  0.6181
   76CHL1    H8 6745   4.142   4.668   2.510  1.5511 -0.9748  3.0920
   76CHL1   C14 6746   4.267   4.747   2.669  0.0793  0.2190  0.4079
   76CHL1   H14 6747   4.328   4.838   2.687  1.7608 -0.9236  0.7755
   76CHL1   C15 6748   4.349   4.623   2.719 -0.1358 -0.0565  0.9787
   76CHL1  H15A 6749   4.296   4.533   2.682 -0.6300  0.6329 -0.0473
   76CHL1  H15B 6750   4.441   4.626   2.658  0.0082  0.6011  1.2176
   76CHL1   C16 6751   4.347   4.637   2.867  0.7095 -0.0705 -0.6062
   76CHL1  H16A 6752   4.325   4.538   2.912 -0.4282  1.1533  1.7081
   76CHL1  H16B 6753   4.450   4.667   2.899  0.5555  0.7377 -0.8452
   76CHL1   C17 6754   4.249   4.748   2.903 -0.1917  0.4261  0.5508
   76CHL1   H17 6755   4.301   4.847   2.910 -0.0961  0.4544 -0.4614
   76CHL1   C13 6756   4.163   4.766   2.775  0.1623 -0.2615 -0.1576
   76CHL1   C18 6757   4.062   4.650   2.762  0.1653 -0.4843 -0.1960
   76CHL1  H18A 6758   4.021   4.642   2.659  2.5228 -0.0234 -1.2393
   76CHL1  H18B 6759   4.108   4.554   2.794 -0.9264 -0.0735  2.8298
   76CHL1  H18C 6760   3.979   4.653   2.835  0.8813 -1.0642  0.6708
   76CHL1   C12 6761   4.096   4.907   2.749  0.3311 -0.4381 -0.4419
   76CHL1  H12A 6762   4.018   4.917   2.827  2.0308 -0.1699  1.2790
   76CHL1  H12B 6763   4.169   4.988   2.768  0.0338 -0.6734  2.0376
   76CHL1   C11 6764   4.049   4.915   2.607  0.3323  0.0956  0.2332
   76CHL1  H11A 6765   3.973   4.836   2.589 -2.1318  2.5292 -0.7811
   76CHL1  H11B 6766   3.998   5.012   2.589 -1.0820 -0.8616 -1.1919
   76CHL1    C9 6767   4.158   4.884   2.504 -0.5131 -0.5513 -0.1031
   76CHL1    H9 6768   4.240   4.959   2.511 -1.0106  0.2128 -2.0358
   76CHL1   C10 6769   4.108   4.888   2.355 -0.0267  0.3264 -0.5021
   76CHL1   C19 6770   3.976   4.806   2.337 -0.3290 -0.0955 -0.6102
   76CHL1  H19A 6771   3.974   4.712   2.398  0.8864  0.9238  1.1042
   76CHL1  H19B 6772   3.893   4.875   2.365  1.6302  1.3595  2.0630
   76CHL1  H19C 6773   3.946   4.783   2.233  2.3609 -1.2420 -1.2240
   76CHL1    C1 6774   4.083   5.033   2.319  0.5306  0.3078 -0.4667
   76CHL1   H1A 6775   4.007   5.083   2.383  0.7241 -0.0797  0.0719
   76CHL1   H1B 6776   4.167   5.102   2.342  0.9432 -0.3986  0.1768
   76CHL1    C2 6777   4.037   5.059   2.171  0.5442  0.4218  0.4159
   76CHL1   H2A 6778   4.020   5.167   2.152  1.8646  0.6128  0.2618
   76CHL1   H2B 6779   3.936   5.020   2.145  1.6340 -1.1769 -1.8349
   76CHL1   C20 6780   4.180   4.724   3.045 -0.1116  0.4402 -0.2037
   76CHL1   H20 6781   4.123   4.629   3.047 -0.7566  0.8049  1.6271
   76CHL1   C21 6782   4.074   4.834   3.077 -0.5651  0.2390  0.9069
   76CHL1  H21A 6783   4.030   4.808   3.175  2.0992 -1.2188  1.8070
   76CHL1  H21B 6784   3.990   4.839   3.004  0.2302 -0.8628 -0.1438
   76CHL1  H21C 6785   4.122   4.934   3.077 -1.6757  1.0148 -3.4862
   76CHL1   C22 6786   4.287   4.722   3.155  0.4905 -0.1334  0.1821
   76CHL1  H22A 6787   4.375   4.662   3.123 -0.3776 -2.2294  1.4996
   76CHL1  H22B 6788   4.318   4.828   3.166 -0.0841  0.2124 -1.1940
   76CHL1   C23 6789   4.250   4.652   3.286 -0.1048  0.7984  0.1504
   76CHL1  H23A 6790   4.150   4.684   3.322 -0.8178 -1.1664  0.0422
   76CHL1  H23B 6791   4.246   4.544   3.261  2.3539  0.1665  2.0421
   76CHL1   C24 6792   4.363   4.676   3.382 -0.0345 -0.3153 -0.4649
   76CHL1  H24A 6793   4.459   4.623   3.363  0.3737  0.7177 -1.3867
   76CHL1  H24B 6794   4.388   4.783   3.364  2.6900 -0.4012  1.9711
   76CHL1   C25 6795   4.326   4.661   3.532  0.4616  1.6497 -0.0201
   76CHL1   H25 6796   4.239   4.726   3.554 -0.8863 -0.1443  0.1474
   76CHL1   C26 6797   4.284   4.516   3.569 -0.2103 -0.1721 -0.0276
   76CHL1  H26A 6798   4.256   4.507   3.677 -0.7731  0.1239 -0.1475
   76CHL1  H26B 6799   4.200   4.487   3.502 -0.9631  3.0231 -0.6377
   76CHL1  H26C 6800   4.373   4.455   3.543 -0.3299 -1.6581  2.6378
   76CHL1   C27 6801   4.431   4.706   3.630  0.3265 -0.7230  0.7066
   76CHL1  H27A 6802   4.380   4.730   3.726 -1.4949  0.2376 -0.4573
   76CHL1  H27B 6803   4.517   4.635   3.644  0.4002 -0.8093 -0.1590
   76CHL1  H27C 6804   4.470   4.805   3.600  1.6073 -1.6699 -0.9568
   77SOPE     N 6805   4.427   4.993   5.921  0.2388  0.2295  0.9386
   77SOPE   HN1 6806   4.465   5.085   5.891  0.5172 -0.4887 -1.0709
   77SOPE   HN2 6807   4.487   4.918   5.882  2.0024  0.8424  2.3396
   77SOPE   HN3 6808   4.335   4.982   5.874  0.2135  0.2542  0.9825
   77SOPE   C12 6809   4.394   4.964   6.065 -0.2196 -0.2719  0.3690
   77SOPE  H12A 6810   4.488   4.922   6.107  0.2919  0.0887 -0.3881
   77SOPE  H12B 6811   4.310   4.892   6.077 -0.4428 -0.0349  0.2260
   77SOPE   C11 6812   4.371   5.095   6.153 -0.1645  0.3664  0.2552
   77SOPE  H11A 6813   4.471   5.114   6.200  0.3396  0.6591 -0.8979
   77SOPE  H11B 6814   4.298   5.077   6.235 -0.2887 -0.4899 -0.0374
   77SOPE     P 6815   4.270   5.348   6.149 -0.0141 -0.1524 -0.0807
   77SOPE   O13 6816   4.384   5.439   6.167 -0.6247  0.6233  0.3169
   77SOPE   O14 6817   4.201   5.315   6.279  0.4918 -0.3193  0.3957
   77SOPE   O12 6818   4.314   5.209   6.086  0.0020 -0.1657  0.3310
   77SOPE   O11 6819   4.171   5.415   6.054  0.2097  0.4903  0.0983
   77SOPE    C1 6820   4.080   5.348   5.963 -0.2394 -0.6330  0.1160
   77SOPE    HA 6821   3.973   5.378   5.970  0.3312  1.1541  3.0854
   77SOPE    HB 6822   4.084   5.239   5.982  0.9882 -0.2358  2.5505
   77SOPE    C2 6823   4.132   5.381   5.819 -0.5974  0.6341  0.7768
   77SOPE    HS 6824   4.226   5.320   5.819 -0.7575  0.3195  2.8770
   77SOPE   O21 6825   4.154   5.522   5.802  0.2201 -0.4282  0.1814
   77SOPE   C21 6826   4.263   5.543   5.720 -0.2128 -0.8026  0.4703
   77SOPE   O22 6827   4.342   5.452   5.687  0.4637 -0.3384  0.1961
   77SOPE   C22 6828   4.283   5.683   5.672  0.0767  0.1921 -0.1859
   77SOPE   H2R 6829   4.389   5.714   5.678  0.5269 -1.4178  0.8817
   77SOPE   H2S 6830   4.227   5.750   5.740  0.9251 -1.4172  2.2258
   77SOPE    C3 6831   4.028   5.344   5.713  0.1233  0.5463  0.1248
   77SOPE    HX 6832   3.942   5.413   5.721 -0.5036 -0.3797  2.1003
   77SOPE    HY 6833   3.991   5.241   5.732  1.8908  0.1197  1.5864
   77SOPE   O31 6834   4.079   5.366   5.581 -0.2540 -0.0135 -0.1657
   77SOPE   C31 6835   4.133   5.255   5.535 -1.0258 -0.6037 -0.6509
   77SOPE   O32 6836   4.152   5.153   5.602 -0.7392  0.2576 -0.2238
   77SOPE   C32 6837   4.167   5.269   5.386 -0.1859  0.1986 -0.3312
   77SOPE   H2X 6838   4.270   5.311   5.378 -0.1737  0.8325  2.2062
   77SOPE   H2Y 6839   4.092   5.340   5.345 -1.5654  1.0194  3.2592
   77SOPE   C23 6840   4.238   5.714   5.524  1.0609  0.1556 -0.9796
   77SOPE   H3R 6841   4.236   5.824   5.505  1.4851  0.2544 -0.4699
   77SOPE   H3S 6842   4.128   5.704   5.517  0.3051  3.3638  2.9294
   77SOPE   C24 6843   4.316   5.637   5.416  0.0376 -0.1346 -0.3659
   77SOPE   H4R 6844   4.420   5.673   5.430 -0.1694  0.3112  0.0422
   77SOPE   H4S 6845   4.326   5.528   5.435  1.4800 -0.3506 -2.0873
   77SOPE   C25 6846   4.276   5.682   5.277  0.3999  0.2250 -0.3883
   77SOPE   H5R 6847   4.172   5.650   5.252  0.8002 -1.8200  0.3407
   77SOPE   H5S 6848   4.275   5.793   5.268 -0.5544  0.1388 -1.6078
   77SOPE   C26 6849   4.363   5.615   5.171 -1.1433 -0.0612  0.8080
   77SOPE   H6R 6850   4.467   5.652   5.183 -0.6425 -0.9453 -0.5350
   77SOPE   H6S 6851   4.354   5.504   5.175  0.0434 -0.3563 -2.3111
   77SOPE   C27 6852   4.326   5.646   5.030  0.0109 -0.7563  0.2400
   77SOPE   H7R 6853   4.222   5.607   5.021  0.3539 -1.7494  0.4892
   77SOPE   H7S 6854   4.336   5.753   5.001  0.0756 -0.9922 -0.6351
   77SOPE   C28 6855   4.404   5.555   4.925 -0.2512 -0.0478 -0.1447
   77SOPE   H8R 6856   4.413   5.616   4.832 -1.5682  0.8272  0.2738
   77SOPE   H8S 6857   4.510   5.555   4.958  0.1021 -0.5496 -1.2607
   77SOPE   C29 6858   4.343   5.420   4.903 -0.3147  0.2570 -0.1575
   77SOPE   H91 6859   4.274   5.380   4.978  0.6755 -1.0871  0.0589
   77SOPE  C210 6860   4.367   5.340   4.796 -0.3814 -0.7424  0.1688
   77SOPE  H101 6861   4.301   5.253   4.782 -1.0437 -1.0389  3.9451
   77SOPE  C211 6862   4.462   5.359   4.676 -0.2801 -0.0263 -0.0301
   77SOPE  H11R 6863   4.553   5.295   4.678  1.9296  2.9638  0.4400
   77SOPE  H11S 6864   4.499   5.463   4.672  0.4757 -0.1262  2.5093
   77SOPE  C212 6865   4.390   5.328   4.538  0.1341 -0.1100 -0.2519
   77SOPE  H12R 6866   4.300   5.392   4.530  1.5085  2.0738  0.6180
   77SOPE  H12S 6867   4.354   5.223   4.547  2.9975 -1.2316 -0.7249
   77SOPE  C213 6868   4.486   5.334   4.416  0.4575  0.2543  0.3435
   77SOPE  H13R 6869   4.584   5.296   4.451  0.2133 -1.0438 -0.3251
   77SOPE  H13S 6870   4.493   5.433   4.368  1.1347 -0.4459 -1.0617
   77SOPE  C214 6871   4.438   5.236   4.307  0.1144  0.6642 -0.0367
   77SOPE  H14R 6872   4.434   5.132   4.346  1.6606  0.6659  0.1904
   77SOPE  H14S 6873   4.514   5.237   4.226  0.9963 -0.3953  0.7415
   77SOPE  C215 6874   4.312   5.288   4.235  0.1481 -0.7357 -0.7404
   77SOPE  H15R 6875   4.338   5.389   4.195 -1.1448 -0.8723 -2.0091
   77SOPE  H15S 6876   4.222   5.300   4.299  1.9805  0.2871  1.8449
   77SOPE  C216 6877   4.266   5.199   4.124 -0.0984 -0.1571  0.0957
   77SOPE  H16R 6878   4.244   5.097   4.162 -1.2323 -0.1135 -0.4166
   77SOPE  H16S 6879   4.365   5.185   4.074  0.3958  0.1564  0.9661
   77SOPE  C217 6880   4.158   5.258   4.033 -0.3029 -0.3231 -0.2701
   77SOPE  H17R 6881   4.069   5.281   4.095  0.2542 -1.0168  0.8156
   77SOPE  H17S 6882   4.128   5.177   3.963 -0.7525 -0.0781 -0.3683
   77SOPE  C218 6883   4.210   5.380   3.955  0.3330 -0.6814  0.2649
   77SOPE  H18R 6884   4.133   5.425   3.888  1.3879  1.8744  0.6510
   77SOPE  H18S 6885   4.301   5.348   3.900 -0.5818  2.0184 -3.1931
   77SOPE  H18T 6886   4.227   5.469   4.020  0.6605 -1.4971  1.3203
   77SOPE   C33 6887   4.174   5.138   5.310  0.6610  0.1503  0.4737
   77SOPE   H3X 6888   4.086   5.082   5.348 -0.0515  1.9481  1.5918
   77SOPE   H3Y 6889   4.268   5.080   5.322  0.3653 -0.4008  0.2014
   77SOPE   C34 6890   4.142   5.152   5.157 -0.3247 -0.1875  0.4594
   77SOPE   H4X 6891   4.226   5.212   5.117  0.4642 -0.6710  1.3605
   77SOPE   H4Y 6892   4.046   5.208   5.160 -1.5655 -2.0821 -0.8101
   77SOPE   C35 6893   4.121   5.024   5.077 -0.0019  0.0057  0.6855
   77SOPE   H5X 6894   4.037   4.963   5.116  0.9891 -0.9888  1.3365
   77SOPE   H5Y 6895   4.207   4.955   5.088  0.4495  0.2254 -1.1842
   77SOPE   C36 6896   4.083   5.056   4.932 -0.1900  0.6379 -0.0496
   77SOPE   H6X 6897   4.159   5.104   4.868 -0.8511 -1.0193 -2.1734
   77SOPE   H6Y 6898   4.002   5.130   4.950  1.1391  1.8944  0.9794
   77SOPE   C37 6899   4.036   4.931   4.856  0.9009 -0.0847 -0.2941
   77SOPE   H7X 6900   3.969   4.867   4.918 -0.7605  1.1364 -0.7563
   77SOPE   H7Y 6901   4.119   4.859   4.840 -0.0861 -0.9813 -1.5934
   77SOPE   C38 6902   3.985   4.957   4.711 -0.4447 -0.8606  0.1129
   77SOPE   H8X 6903   3.926   5.051   4.704  1.6831  0.4655 -0.6589
   77SOPE   H8Y 6904   3.922   4.867   4.694 -1.1520 -0.3823  0.1660
   77SOPE   C39 6905   4.099   4.976   4.612  0.2008  0.0323 -0.2685
   77SOPE   H9X 6906   4.155   4.881   4.608  0.3837  0.0814  0.8760
   77SOPE   H9Y 6907   4.158   5.062   4.651 -1.3092  0.5070  1.0858
   77SOPE  C310 6908   4.064   5.006   4.462  0.5421 -0.4641  0.3706
   77SOPE  H10X 6909   4.164   5.002   4.415  0.7226 -0.6943  0.7725
   77SOPE  H10Y 6910   4.030   5.112   4.459 -2.0364 -1.2337 -1.9648
   77SOPE  C311 6911   3.973   4.903   4.391 -0.1985  0.4249  0.3389
   77SOPE  H11X 6912   3.876   4.954   4.370 -0.3739 -0.6703 -1.7506
   77SOPE  H11Y 6913   3.955   4.820   4.463 -0.3617  0.4343  0.3091
   77SOPE  C312 6914   4.038   4.840   4.264  0.5705  0.3190  0.3477
   77SOPE  H12X 6915   4.132   4.788   4.291  0.7179 -2.3405 -4.2412
   77SOPE  H12Y 6916   4.073   4.926   4.204 -0.5829  1.8463  1.7887
   77SOPE  C313 6917   3.937   4.749   4.197 -0.0071 -0.1801  0.0794
   77SOPE  H13X 6918   3.847   4.808   4.170 -0.7280 -0.9480  0.7439
   77SOPE  H13Y 6919   3.903   4.677   4.274 -0.4196 -0.3680 -0.2759
   77SOPE  C314 6920   3.995   4.684   4.073 -0.4158  0.4370  0.2386
   77SOPE  H14X 6921   4.094   4.646   4.108 -1.1260 -0.9331  0.8532
   77SOPE  H14Y 6922   4.023   4.753   3.991  0.4960  1.6730  1.5514
   77SOPE  C315 6923   3.914   4.565   4.014 -0.6862  0.2332 -0.1703
   77SOPE  H15X 6924   3.906   4.487   4.093 -1.8384  2.1394  1.6866
   77SOPE  H15Y 6925   3.958   4.527   3.919 -1.5324 -0.1848 -0.4134
   77SOPE  C316 6926   3.770   4.616   3.980 -0.4288 -0.0830  0.4475
   77SOPE  H16X 6927   3.774   4.704   3.913 -1.1493  0.4233  1.0603
   77SOPE  H16Y 6928   3.721   4.647   4.075 -2.6067  0.3677 -0.7471
   77SOPE  C317 6929   3.676   4.506   3.924 -0.9829 -0.0463  0.7440
   77SOPE  H17X 6930   3.701   4.406   3.964 -0.7379 -0.2473  0.0984
   77SOPE  H17Y 6931   3.684   4.500   3.814 -0.4846 -2.4807  0.8564
   77SOPE  C318 6932   3.525   4.537   3.955 -0.9718  0.3592  0.4671
   77SOPE  H18X 6933   3.514   4.537   4.065  0.4846 -1.0714  0.6488
   77SOPE  H18Y 6934   3.471   4.450   3.913 -1.3249  1.9038 -2.5759
   77SOPE  H18Z 6935   3.478   4.626   3.908  0.2211 -0.6279 -2.9108
   78SOPE     N 6936   4.111   5.662   6.035  0.0822  0.4640 -0.1264
   78SOPE   HN1 6937   4.204   5.708   6.040  0.0562  0.3954  2.3285
   78SOPE   HN2 6938   4.124   5.559   6.030 -1.2792  0.2352  0.4410
   78SOPE   HN3 6939   4.057   5.694   5.952 -1.4491 -0.4580  0.4676
   78SOPE   C12 6940   4.035   5.703   6.152 -0.4629  1.2430 -0.1123
   78SOPE  H12A 6941   4.035   5.813   6.165  1.3690  1.1216  1.3218
   78SOPE  H12B 6942   4.080   5.653   6.240  0.2519  1.7534 -0.1845
   78SOPE   C11 6943   3.891   5.648   6.143  0.3677 -0.0990 -0.2182
   78SOPE  H11A 6944   3.849   5.644   6.246  1.1730  2.4749  0.2938
   78SOPE  H11B 6945   3.890   5.543   6.108 -1.5415 -0.7302  1.4994
   78SOPE     P 6946   3.801   5.737   5.910 -0.1794 -0.0727  0.0560
   78SOPE   O13 6947   3.935   5.787   5.859 -0.0849  0.4288 -0.1537
   78SOPE   O14 6948   3.682   5.811   5.871  0.3780 -0.1531  0.1610
   78SOPE   O12 6949   3.795   5.735   6.068 -0.2962  0.0218 -0.0013
   78SOPE   O11 6950   3.795   5.585   5.881 -0.4386 -0.2322  0.8971
   78SOPE    C1 6951   3.671   5.521   5.897  1.0408 -0.2336 -0.4477
   78SOPE    HA 6952   3.583   5.572   5.941  1.6340  0.3627  0.0551
   78SOPE    HB 6953   3.690   5.431   5.960  4.4290  0.9442  0.4129
   78SOPE    C2 6954   3.615   5.459   5.765  0.6482  0.3380  0.1891
   78SOPE    HS 6955   3.513   5.421   5.788 -0.9975  1.7951 -3.8083
   78SOPE   O21 6956   3.702   5.357   5.715  0.2147 -0.0710 -0.5076
   78SOPE   C21 6957   3.643   5.271   5.629  0.2393  0.5748  0.1945
   78SOPE   O22 6958   3.528   5.253   5.605 -0.0531  0.0565 -0.1989
   78SOPE   C22 6959   3.751   5.196   5.545 -0.7922 -0.3401  0.9998
   78SOPE   H2R 6960   3.793   5.118   5.612 -2.7839 -0.0561  2.6918
   78SOPE   H2S 6961   3.829   5.274   5.536 -1.3943  0.3157  1.3559
   78SOPE    C3 6962   3.597   5.579   5.662 -0.7346  0.4795 -0.2974
   78SOPE    HX 6963   3.700   5.610   5.634  0.2352  1.2130  3.4663
   78SOPE    HY 6964   3.541   5.658   5.717  0.2652  0.9377  0.0916
   78SOPE   O31 6965   3.532   5.538   5.548  0.0365  0.2723 -0.4586
   78SOPE   C31 6966   3.401   5.522   5.554  0.1522 -0.1743  0.6770
   78SOPE   O32 6967   3.330   5.547   5.654 -0.0192  0.0541 -0.4380
   78SOPE   C32 6968   3.351   5.474   5.418 -0.1886 -0.8207  0.6119
   78SOPE   H2X 6969   3.268   5.543   5.392  1.9588  1.6168 -0.3542
   78SOPE   H2Y 6970   3.310   5.371   5.420 -0.4935 -0.7200 -0.1429
   78SOPE   C23 6971   3.708   5.161   5.400 -0.4946 -0.2335 -0.4703
   78SOPE   H3R 6972   3.796   5.149   5.333 -1.0535  1.1166 -1.5001
   78SOPE   H3S 6973   3.646   5.241   5.354 -1.7674 -0.9646 -0.1012
   78SOPE   C24 6974   3.625   5.025   5.394  0.0483 -0.3457  0.4344
   78SOPE   H4R 6975   3.639   4.965   5.487  0.7806 -0.0518  0.5202
   78SOPE   H4S 6976   3.517   5.047   5.382  0.1578 -0.0344 -0.0058
   78SOPE   C25 6977   3.667   4.963   5.264  0.1918  0.0029 -0.7851
   78SOPE   H5R 6978   3.656   5.037   5.182  0.9813  1.2114  0.1694
   78SOPE   H5S 6979   3.773   4.929   5.260 -0.1864 -1.1792 -1.0304
   78SOPE   C26 6980   3.580   4.835   5.232  0.2061 -0.2842 -0.3829
   78SOPE   H6R 6981   3.586   4.780   5.328 -1.5113  0.4413  0.1763
   78SOPE   H6S 6982   3.473   4.858   5.213  0.0252 -0.8020 -0.0068
   78SOPE   C27 6983   3.632   4.745   5.122 -0.4690 -0.2023  0.4023
   78SOPE   H7R 6984   3.740   4.719   5.128  0.1107  0.9559 -2.8141
   78SOPE   H7S 6985   3.585   4.645   5.107  0.2471 -0.4943  0.0469
   78SOPE   C28 6986   3.642   4.819   4.976 -0.7370  0.6961 -0.5119
   78SOPE   H8R 6987   3.707   4.909   4.986 -0.8328  0.7016  0.0620
   78SOPE   H8S 6988   3.681   4.748   4.900 -3.0497 -1.3291  0.0796
   78SOPE   C29 6989   3.503   4.852   4.934 -0.8837  0.4353  0.5465
   78SOPE   H91 6990   3.440   4.890   5.016 -2.2246  0.1967 -0.3443
   78SOPE  C210 6991   3.444   4.839   4.814 -0.4836 -0.0299  0.1223
   78SOPE  H101 6992   3.344   4.881   4.801 -0.3771 -0.1105 -1.0531
   78SOPE  C211 6993   3.510   4.776   4.691 -0.1212  0.0669 -0.1997
   78SOPE  H11R 6994   3.433   4.741   4.619 -0.8085  0.7383  0.1946
   78SOPE  H11S 6995   3.569   4.683   4.704  1.9868  1.0621 -1.9937
   78SOPE  C212 6996   3.591   4.877   4.601 -0.1133  0.2703 -0.5318
   78SOPE  H12R 6997   3.659   4.818   4.537 -0.2999  1.7848 -2.1793
   78SOPE  H12S 6998   3.662   4.927   4.670 -0.9718 -0.0600  0.6471
   78SOPE  C213 6999   3.514   4.984   4.515  0.6251 -0.2304 -0.3185
   78SOPE  H13R 7000   3.589   5.055   4.474  1.6071 -0.9768  0.1569
   78SOPE  H13S 7001   3.462   5.037   4.598 -1.1513 -1.1677 -0.7898
   78SOPE  C214 7002   3.417   4.923   4.418 -0.3761 -0.6559 -0.4681
   78SOPE  H14R 7003   3.367   5.013   4.377  1.1362  0.0563 -0.8333
   78SOPE  H14S 7004   3.351   4.859   4.480  2.1583 -1.9380  1.0316
   78SOPE  C215 7005   3.480   4.839   4.306 -0.3970  0.4221  0.3650
   78SOPE  H15R 7006   3.524   4.752   4.359 -0.7486  0.0899  0.1274
   78SOPE  H15S 7007   3.558   4.903   4.260 -0.2652 -1.5300 -2.3670
   78SOPE  C216 7008   3.400   4.798   4.185 -0.6993 -0.0849 -0.0129
   78SOPE  H16R 7009   3.342   4.704   4.192 -0.4484 -0.5568 -2.8655
   78SOPE  H16S 7010   3.462   4.784   4.094  1.3751 -0.4425  1.3973
   78SOPE  C217 7011   3.299   4.903   4.131 -1.3414  0.5731 -0.6172
   78SOPE  H17R 7012   3.370   4.989   4.135  0.5062 -0.9190  1.1520
   78SOPE  H17S 7013   3.220   4.921   4.207 -1.3652 -1.3779 -0.1258
   78SOPE  C218 7014   3.239   4.881   3.991  0.1694 -0.2935  0.1294
   78SOPE  H18R 7015   3.187   4.974   3.962 -1.4419 -0.6206  1.7577
   78SOPE  H18S 7016   3.167   4.796   3.996 -0.4118  0.2741  2.1573
   78SOPE  H18T 7017   3.320   4.862   3.918 -1.5447  0.6704 -2.1453
   78SOPE   C33 7018   3.445   5.500   5.302  0.1881  0.6965 -0.3109
   78SOPE   H3X 7019   3.533   5.437   5.327 -0.3930  0.4818  1.3072
   78SOPE   H3Y 7020   3.479   5.606   5.297  3.2336 -0.2021 -0.4359
   78SOPE   C34 7021   3.385   5.455   5.169 -0.5196 -0.3072  0.1404
   78SOPE   H4X 7022   3.416   5.512   5.079 -2.0312 -0.0672 -0.2626
   78SOPE   H4Y 7023   3.278   5.485   5.171  0.3208  3.0885 -0.4685
   78SOPE   C35 7024   3.414   5.309   5.145 -0.0335  0.7028  0.3216
   78SOPE   H5X 7025   3.400   5.245   5.235  0.8539  1.0452  0.7214
   78SOPE   H5Y 7026   3.519   5.303   5.109 -0.4706  2.3609 -1.3739
   78SOPE   C36 7027   3.333   5.242   5.030  0.2944 -0.2726 -1.0905
   78SOPE   H6X 7028   3.226   5.214   5.042  0.0773 -0.0172 -2.3333
   78SOPE   H6Y 7029   3.394   5.151   5.011 -0.2323 -0.5260 -1.5852
   78SOPE   C37 7030   3.341   5.335   4.908  0.0391  0.4855  0.3726
   78SOPE   H7X 7031   3.447   5.342   4.877  0.7701  0.3689  2.6593
   78SOPE   H7Y 7032   3.301   5.438   4.922  0.0183  0.4985  0.2209
   78SOPE   C38 7033   3.276   5.268   4.787  0.3788 -0.4879 -0.2087
   78SOPE   H8X 7034   3.165   5.274   4.792  0.4489  1.8292 -0.1650
   78SOPE   H8Y 7035   3.296   5.160   4.776  2.0132 -0.5154  2.1868
   78SOPE   C39 7036   3.316   5.338   4.654  0.3612 -0.4004 -0.1770
   78SOPE   H9X 7037   3.414   5.304   4.615  0.8853  0.2369  0.5714
   78SOPE   H9Y 7038   3.328   5.446   4.675 -0.1170 -0.5313  0.8514
   78SOPE  C310 7039   3.214   5.317   4.543  0.7412 -0.2001  0.3411
   78SOPE  H10X 7040   3.125   5.378   4.570  1.0249  0.5031 -0.2650
   78SOPE  H10Y 7041   3.182   5.211   4.536 -0.8536  0.3660 -1.8272
   78SOPE  C311 7042   3.262   5.356   4.403  0.5984 -0.1781 -0.6617
   78SOPE  H11X 7043   3.357   5.305   4.378  0.8281 -0.1279  0.0815
   78SOPE  H11Y 7044   3.287   5.464   4.406  2.3668 -0.4886  4.1886
   78SOPE  C312 7045   3.164   5.338   4.286 -0.7000  0.1153  0.5045
   78SOPE  H12X 7046   3.069   5.395   4.301 -1.3465 -0.5009 -0.9954
   78SOPE  H12Y 7047   3.137   5.231   4.296  3.1316 -0.8974  1.5495
   78SOPE  C313 7048   3.226   5.355   4.150  0.2031 -0.6263 -0.3268
   78SOPE  H13X 7049   3.323   5.301   4.145  0.2701 -0.6697  1.0896
   78SOPE  H13Y 7050   3.251   5.463   4.143  1.3150 -0.8379  0.1264
   78SOPE  C314 7051   3.137   5.309   4.028  0.2421 -0.5964 -0.5391
   78SOPE  H14X 7052   3.041   5.362   4.043 -0.0662 -1.7228  2.0367
   78SOPE  H14Y 7053   3.109   5.203   4.046  0.2953 -0.7632 -1.4044
   78SOPE  C315 7054   3.204   5.324   3.891 -0.2619 -0.2002  0.0123
   78SOPE  H15X 7055   3.300   5.270   3.905 -0.2029  0.0553  0.6436
   78SOPE  H15Y 7056   3.229   5.429   3.863  3.3965 -1.2635 -1.2728
   78SOPE  C316 7057   3.126   5.256   3.771  0.2537  0.3607  0.5053
   78SOPE  H16X 7058   3.035   5.313   3.742 -0.6695 -1.8529 -1.3199
   78SOPE  H16Y 7059   3.100   5.151   3.799 -0.5182  0.4653  0.2132
   78SOPE  C317 7060   3.218   5.256   3.646 -0.3265  0.0522  0.5509
   78SOPE  H17X 7061   3.241   5.362   3.623 -0.9268 -0.2910 -1.9597
   78SOPE  H17Y 7062   3.151   5.232   3.560  0.6635  2.0586 -0.8405
   78SOPE  C318 7063   3.347   5.174   3.654 -0.2285  0.1495 -0.7451
   78SOPE  H18X 7064   3.416   5.215   3.731  0.8993 -1.0148 -1.1026
   78SOPE  H18Y 7065   3.402   5.184   3.558  3.5143  1.8697  1.3610
   78SOPE  H18Z 7066   3.337   5.066   3.680 -0.6910  0.4844  0.5250
   79SOPE     N 7067   3.446   2.656   6.120  0.3324  0.4110  0.1676
   79SOPE   HN1 7068   3.424   2.563   6.162 -1.5559  0.2643 -1.0359
   79SOPE   HN2 7069   3.447   2.650   6.016  0.3957 -1.0008  0.2349
   79SOPE   HN3 7070   3.538   2.691   6.154 -0.2190 -0.3918  2.7548
   79SOPE   C12 7071   3.354   2.757   6.190  0.1693  0.5538  0.1013
   79SOPE  H12A 7072   3.380   2.758   6.298  1.1455 -0.5927 -0.0966
   79SOPE  H12B 7073   3.249   2.721   6.180  0.0344  1.2720 -1.3175
   79SOPE   C11 7074   3.344   2.896   6.121 -0.1706  1.1250  0.1539
   79SOPE  H11A 7075   3.333   2.884   6.011  1.9568 -3.0296  0.2007
   79SOPE  H11B 7076   3.449   2.930   6.134 -0.3379  1.9030 -0.4493
   79SOPE     P 7077   3.099   2.970   6.155  0.2043  0.0349  0.0897
   79SOPE   O13 7078   3.025   3.089   6.204 -0.2750 -0.1965 -0.1834
   79SOPE   O14 7079   3.035   2.843   6.197 -0.3166 -0.4945  0.5560
   79SOPE   O12 7080   3.252   2.979   6.183 -0.0469 -0.0343 -0.5000
   79SOPE   O11 7081   3.095   2.974   5.994 -0.3664 -0.2163  0.3636
   79SOPE    C1 7082   3.010   3.073   5.930 -0.1135  0.3113 -0.0114
   79SOPE    HA 7083   3.055   3.111   5.836  0.3010 -1.9005 -0.7684
   79SOPE    HB 7084   2.993   3.172   5.978 -1.8450 -0.8759  1.9958
   79SOPE    C2 7085   2.875   3.013   5.888 -0.7800 -0.7360 -0.3818
   79SOPE    HS 7086   2.828   2.974   5.981 -2.3476  1.9424  0.0368
   79SOPE   O21 7087   2.888   2.907   5.793  0.0108  0.1357 -0.3524
   79SOPE   C21 7088   2.777   2.830   5.781  0.1871 -0.7827 -0.0494
   79SOPE   O22 7089   2.679   2.828   5.849  0.2603 -0.9404 -0.0967
   79SOPE   C22 7090   2.781   2.746   5.651  0.1534  0.4662 -0.5368
   79SOPE   H2R 7091   2.687   2.690   5.634 -0.7768  2.2358 -1.4895
   79SOPE   H2S 7092   2.862   2.673   5.672 -0.8690 -0.0848  1.9109
   79SOPE    C3 7093   2.773   3.126   5.835  0.1355  0.4908 -0.8395
   79SOPE    HX 7094   2.786   3.223   5.888 -1.1762  1.8319 -2.8232
   79SOPE    HY 7095   2.670   3.085   5.846 -0.0653  1.2048  0.0535
   79SOPE   O31 7096   2.801   3.157   5.698  0.8207 -0.3279  0.2622
   79SOPE   C31 7097   2.748   3.270   5.642  0.1421 -0.5489 -0.4321
   79SOPE   O32 7098   2.669   3.346   5.700 -0.0399  0.3333  0.7962
   79SOPE   C32 7099   2.811   3.289   5.501  0.0532 -0.0673  0.5954
   79SOPE   H2X 7100   2.898   3.219   5.500  1.9366  2.1230 -0.8181
   79SOPE   H2Y 7101   2.850   3.392   5.488  0.2635  0.3212  3.6093
   79SOPE   C23 7102   2.808   2.837   5.538 -0.4018  0.0326 -0.5316
   79SOPE   H3R 7103   2.898   2.902   5.541  1.1467 -1.9491 -1.6043
   79SOPE   H3S 7104   2.726   2.912   5.541  2.3032  3.2435 -1.4838
   79SOPE   C24 7105   2.801   2.761   5.407 -0.4080 -0.8442  0.9832
   79SOPE   H4R 7106   2.868   2.673   5.416 -1.0657 -1.4389  0.2843
   79SOPE   H4S 7107   2.700   2.718   5.390 -0.6201 -0.0157  0.0116
   79SOPE   C25 7108   2.842   2.846   5.285  0.0699  0.0889  0.9830
   79SOPE   H5R 7109   2.785   2.940   5.299  0.7164  0.9688 -1.5982
   79SOPE   H5S 7110   2.952   2.858   5.282  0.5152 -2.8963  2.2557
   79SOPE   C26 7111   2.799   2.780   5.150  0.3970  0.2032 -0.1116
   79SOPE   H6R 7112   2.856   2.687   5.129 -1.4350 -0.2705 -3.6742
   79SOPE   H6S 7113   2.690   2.760   5.146  0.6869 -1.3390 -0.5597
   79SOPE   C27 7114   2.830   2.872   5.037 -0.0923 -0.3167 -0.1308
   79SOPE   H7R 7115   2.752   2.945   5.009  0.9320  0.6019 -0.6686
   79SOPE   H7S 7116   2.913   2.937   5.072  0.4291 -1.4332  0.7943
   79SOPE   C28 7117   2.880   2.794   4.912  0.6275 -0.4092  0.0372
   79SOPE   H8R 7118   2.964   2.728   4.943  1.1697 -0.4174 -1.3420
   79SOPE   H8S 7119   2.813   2.708   4.889 -0.7985  0.7527 -0.2776
   79SOPE   C29 7120   2.912   2.889   4.802 -0.1132  0.1253  0.3598
   79SOPE   H91 7121   3.016   2.924   4.810 -0.4737  1.1768  0.5581
   79SOPE  C210 7122   2.838   2.908   4.685  0.1172  0.2993  0.0806
   79SOPE  H101 7123   2.872   2.991   4.622 -2.5293  1.0047 -0.5600
   79SOPE  C211 7124   2.705   2.844   4.637 -0.7551 -0.9831  0.1849
   79SOPE  H11R 7125   2.631   2.922   4.606  1.1484  0.8106 -0.0557
   79SOPE  H11S 7126   2.666   2.796   4.729  2.7756  1.2286  3.1160
   79SOPE  C212 7127   2.711   2.742   4.526 -0.0326 -0.0598 -0.5536
   79SOPE  H12R 7128   2.609   2.714   4.493  0.3688 -1.0637 -0.9656
   79SOPE  H12S 7129   2.760   2.649   4.560  0.7547  0.1337 -1.1389
   79SOPE  C213 7130   2.785   2.788   4.400 -0.9782 -0.2886  0.2831
   79SOPE  H13R 7131   2.885   2.829   4.427 -0.0230 -0.4916 -2.5011
   79SOPE  H13S 7132   2.728   2.870   4.352  1.9308  1.1679 -0.9294
   79SOPE  C214 7133   2.782   2.683   4.287 -0.5291 -0.1137  0.1370
   79SOPE  H14R 7134   2.841   2.731   4.206  3.1305  0.4039  2.8658
   79SOPE  H14S 7135   2.682   2.652   4.250 -1.1267  0.2547  1.3849
   79SOPE  C215 7136   2.862   2.558   4.314  0.3735 -0.2568 -0.4363
   79SOPE  H15R 7137   2.879   2.518   4.211  0.2113  0.7868 -0.8825
   79SOPE  H15S 7138   2.804   2.485   4.375 -0.4539  0.0170 -0.8713
   79SOPE  C216 7139   3.013   2.578   4.370 -0.2297  0.2995 -1.1783
   79SOPE  H16R 7140   3.005   2.617   4.474  1.8362 -0.5540 -0.6527
   79SOPE  H16S 7141   3.075   2.638   4.301  0.3923 -0.5146 -1.3378
   79SOPE  C217 7142   3.085   2.438   4.386  0.4531  0.2115 -0.2516
   79SOPE  H17R 7143   3.063   2.386   4.290 -1.6510 -0.8142  0.7246
   79SOPE  H17S 7144   3.039   2.373   4.464  0.4333 -1.4332 -1.5730
   79SOPE  C218 7145   3.227   2.435   4.421 -0.3214  0.0844 -0.0379
   79SOPE  H18R 7146   3.243   2.448   4.530  1.2442 -0.8144 -0.1367
   79SOPE  H18S 7147   3.289   2.507   4.364 -0.8079  0.1442 -0.5002
   79SOPE  H18T 7148   3.272   2.336   4.403  0.4780  0.2449  1.0183
   79SOPE   C33 7149   2.710   3.262   5.389  0.2184  0.1102 -0.2749
   79SOPE   H3X 7150   2.641   3.349   5.377  0.2653  0.2613  0.4800
   79SOPE   H3Y 7151   2.654   3.167   5.404  0.1490 -0.4122 -3.2965
   79SOPE   C34 7152   2.799   3.257   5.265 -0.1929 -0.1006  0.7641
   79SOPE   H4X 7153   2.858   3.163   5.276  1.3250  0.6218 -0.6944
   79SOPE   H4Y 7154   2.864   3.347   5.261 -1.4552  0.7915 -0.4416
   79SOPE   C35 7155   2.724   3.263   5.130  0.2443  0.3048 -0.4336
   79SOPE   H5X 7156   2.664   3.356   5.131  1.0246  0.8098  0.2218
   79SOPE   H5Y 7157   2.649   3.181   5.130  1.9876 -1.3701  0.6800
   79SOPE   C36 7158   2.830   3.262   5.017  0.1230  0.1309  1.0678
   79SOPE   H6X 7159   2.911   3.191   5.045 -0.2426 -0.6930  0.0802
   79SOPE   H6Y 7160   2.880   3.361   5.016 -1.5100  0.9902  0.2332
   79SOPE   C37 7161   2.770   3.239   4.878  0.2481  0.2877 -0.9666
   79SOPE   H7X 7162   2.684   3.305   4.855 -0.1151 -0.2339 -1.1297
   79SOPE   H7Y 7163   2.714   3.143   4.872 -1.5508  1.3096 -1.2835
   79SOPE   C38 7164   2.874   3.261   4.767  0.2676  0.5729  0.2781
   79SOPE   H8X 7165   2.956   3.186   4.776  0.5843  1.1493  3.0042
   79SOPE   H8Y 7166   2.919   3.362   4.778  1.1676  0.4137 -1.4758
   79SOPE   C39 7167   2.804   3.267   4.630 -0.1547  0.4256  0.0460
   79SOPE   H9X 7168   2.729   3.350   4.639  1.2765  1.6130  1.8707
   79SOPE   H9Y 7169   2.742   3.176   4.620  0.2886 -0.5035  3.9613
   79SOPE  C310 7170   2.905   3.284   4.518  0.2891  0.4989  0.2421
   79SOPE  H10X 7171   2.956   3.186   4.517 -3.1050 -1.4449  0.3989
   79SOPE  H10Y 7172   2.975   3.367   4.538  0.3379 -0.3552  4.4300
   79SOPE  C311 7173   2.847   3.314   4.378  0.0315 -0.3109 -0.7938
   79SOPE  H11X 7174   2.795   3.412   4.380  1.6442  0.5734 -0.0528
   79SOPE  H11Y 7175   2.762   3.245   4.358 -0.8953  0.0643  1.6008
   79SOPE  C312 7176   2.945   3.296   4.272 -0.2654  0.1452 -0.5290
   79SOPE  H12X 7177   2.989   3.195   4.260  0.2725  0.3901 -0.6665
   79SOPE  H12Y 7178   3.028   3.367   4.295 -0.7063  0.8064 -0.9218
   79SOPE  C313 7179   2.882   3.347   4.141  0.4003 -0.5101  0.4311
   79SOPE  H13X 7180   2.858   3.455   4.153  0.9315 -0.3214 -0.1431
   79SOPE  H13Y 7181   2.789   3.289   4.124 -0.5058  0.5010  1.7294
   79SOPE  C314 7182   2.974   3.340   4.015  0.3078  0.3325  1.0481
   79SOPE  H14X 7183   3.002   3.234   3.994 -0.7228  0.1294  0.6892
   79SOPE  H14Y 7184   3.068   3.394   4.040  0.9058 -0.9745  1.7709
   79SOPE  C315 7185   2.912   3.416   3.888  0.2450 -0.1959 -0.0300
   79SOPE  H15X 7186   2.917   3.524   3.912 -2.8700 -0.2970  1.6496
   79SOPE  H15Y 7187   2.803   3.394   3.887  0.3562 -0.7677 -0.7511
   79SOPE  C316 7188   2.984   3.394   3.758 -0.9009  0.6094 -0.4005
   79SOPE  H16X 7189   2.961   3.292   3.722 -1.1663 -0.3597  2.2676
   79SOPE  H16Y 7190   3.090   3.400   3.792  0.1146  2.3285 -3.4906
   79SOPE  C317 7191   2.965   3.501   3.652 -0.4829  0.3486 -0.6918
   79SOPE  H17X 7192   3.056   3.495   3.589  1.0717 -0.6548  1.5315
   79SOPE  H17Y 7193   2.954   3.598   3.705 -0.6685 -0.5995  1.0687
   79SOPE  C318 7194   2.835   3.481   3.574 -0.1031 -0.8061  0.5512
   79SOPE  H18X 7195   2.747   3.473   3.642  0.0277  0.7023  0.9366
   79SOPE  H18Y 7196   2.835   3.393   3.507 -0.6048 -2.4263  2.5730
   79SOPE  H18Z 7197   2.810   3.570   3.512 -1.9130  0.6828  3.2104
   80SOPE     N 7198   2.756   6.655   6.152  0.5205  0.2163  0.2750
   80SOPE   HN1 7199   2.776   6.741   6.207 -0.5089  0.8074 -0.2443
   80SOPE   HN2 7200   2.773   6.576   6.218 -1.9508  0.6266  1.5254
   80SOPE   HN3 7201   2.822   6.651   6.072 -1.1005 -0.3331 -1.0869
   80SOPE   C12 7202   2.606   6.659   6.116 -0.3274 -0.2938  0.3672
   80SOPE  H12A 7203   2.578   6.764   6.093  3.0081  0.6120 -0.0093
   80SOPE  H12B 7204   2.550   6.612   6.200  1.7286 -0.8645  1.4870
   80SOPE   C11 7205   2.584   6.566   6.002  0.5646 -0.1552 -0.3717
   80SOPE  H11A 7206   2.633   6.607   5.911 -0.8735  0.1579 -1.0382
   80SOPE  H11B 7207   2.475   6.560   5.983  0.5240  0.8872 -0.5673
   80SOPE     P 7208   2.555   6.319   6.076 -0.2670  0.2964 -0.2291
   80SOPE   O13 7209   2.507   6.341   6.213  0.3607 -0.0434  0.3679
   80SOPE   O14 7210   2.635   6.200   6.052 -0.2022  0.0874 -0.5667
   80SOPE   O12 7211   2.641   6.437   6.025 -0.5238  0.6473  0.0956
   80SOPE   O11 7212   2.440   6.324   5.970 -0.4119 -0.5091  0.1826
   80SOPE    C1 7213   2.466   6.304   5.827 -0.2891  0.1643 -0.0286
   80SOPE    HA 7214   2.499   6.200   5.806  0.5053 -0.1456  2.4089
   80SOPE    HB 7215   2.548   6.366   5.786 -1.0121  0.7199 -0.6563
   80SOPE    C2 7216   2.339   6.317   5.736  0.7208  0.2601 -0.4895
   80SOPE    HS 7217   2.357   6.307   5.627 -0.6651 -0.3630 -0.6753
   80SOPE   O21 7218   2.278   6.445   5.763  0.2304  0.0983  0.3314
   80SOPE   C21 7219   2.320   6.546   5.686  0.0662  0.0343  0.5105
   80SOPE   O22 7220   2.416   6.547   5.609  0.5026 -0.1215  0.1728
   80SOPE   C22 7221   2.232   6.668   5.717  0.6438 -0.2247 -0.1441
   80SOPE   H2R 7222   2.303   6.742   5.761  3.3763 -1.2008 -2.5331
   80SOPE   H2S 7223   2.157   6.631   5.789  2.1302 -0.5537  1.2816
   80SOPE    C3 7224   2.234   6.201   5.755 -0.0292 -0.3400 -0.0439
   80SOPE    HX 7225   2.199   6.212   5.859 -0.3978 -0.3826 -0.1604
   80SOPE    HY 7226   2.293   6.107   5.743  0.0343 -0.1019 -2.0187
   80SOPE   O31 7227   2.129   6.205   5.652 -0.0407  0.8873  0.1871
   80SOPE   C31 7228   2.019   6.263   5.688 -0.0231 -0.0806  0.6640
   80SOPE   O32 7229   2.004   6.338   5.780  0.0027 -0.0851  0.4987
   80SOPE   C32 7230   1.912   6.238   5.584  0.2384 -0.6908 -0.4884
   80SOPE   H2X 7231   1.828   6.298   5.625  2.5292  3.4592 -1.3985
   80SOPE   H2Y 7232   1.894   6.129   5.576 -2.8041 -0.3135  0.0469
   80SOPE   C23 7233   2.164   6.741   5.597  0.1721  0.4279 -0.3896
   80SOPE   H3R 7234   2.085   6.805   5.643 -0.0109 -0.3660  0.4275
   80SOPE   H3S 7235   2.110   6.667   5.535 -0.0590 -1.0129  1.4418
   80SOPE   C24 7236   2.259   6.825   5.505  0.0854 -0.0100 -0.5443
   80SOPE   H4R 7237   2.317   6.899   5.565 -0.8743 -2.3921  3.7807
   80SOPE   H4S 7238   2.343   6.759   5.474  1.1920  1.9717 -1.9785
   80SOPE   C25 7239   2.189   6.881   5.379 -0.9821 -0.3209  0.0315
   80SOPE   H5R 7240   2.098   6.939   5.405 -1.3574 -1.6745  1.8697
   80SOPE   H5S 7241   2.252   6.964   5.340 -0.5532 -1.0398 -0.8635
   80SOPE   C26 7242   2.161   6.772   5.264  0.2777  1.4763  0.2187
   80SOPE   H6R 7243   2.256   6.720   5.239 -1.4288 -2.8024  1.6959
   80SOPE   H6S 7244   2.099   6.685   5.293 -1.0212  1.8859 -1.2400
   80SOPE   C27 7245   2.110   6.837   5.132  0.4394 -0.1458 -0.6280
   80SOPE   H7R 7246   1.999   6.838   5.128  0.4287  1.6259 -0.8849
   80SOPE   H7S 7247   2.133   6.945   5.146 -2.0509  0.3808 -0.1561
   80SOPE   C28 7248   2.179   6.782   5.009 -0.4350  0.2407 -0.4208
   80SOPE   H8R 7249   2.146   6.832   4.915  0.1294  0.1672 -0.6648
   80SOPE   H8S 7250   2.289   6.789   4.998 -0.3958 -1.6334 -1.7824
   80SOPE   C29 7251   2.148   6.635   4.994 -0.5053 -0.4627 -0.3304
   80SOPE   H91 7252   2.173   6.572   5.081 -1.5261  0.4602  0.6664
   80SOPE  C210 7253   2.112   6.571   4.880  0.0345 -0.2553  0.0541
   80SOPE  H101 7254   2.086   6.464   4.884  0.3814 -0.3323  0.3405
   80SOPE  C211 7255   2.068   6.639   4.754  0.6704  0.5397 -0.6282
   80SOPE  H11R 7256   1.994   6.721   4.766 -0.7394 -0.7193 -0.3142
   80SOPE  H11S 7257   2.010   6.557   4.706 -0.4896  0.4132  0.9088
   80SOPE  C212 7258   2.169   6.671   4.641 -0.8128  1.0888  0.0711
   80SOPE  H12R 7259   2.256   6.603   4.649 -0.3132  1.5035 -1.4421
   80SOPE  H12S 7260   2.215   6.772   4.654 -0.6442  1.2568 -1.6586
   80SOPE  C213 7261   2.113   6.667   4.499  0.5505  0.1517 -0.3785
   80SOPE  H13R 7262   2.063   6.570   4.479  1.9680 -0.5700 -0.5399
   80SOPE  H13S 7263   2.205   6.675   4.437  1.1812  1.0109  0.6192
   80SOPE  C214 7264   2.017   6.786   4.464  0.3654 -0.0115 -0.1695
   80SOPE  H14R 7265   2.050   6.889   4.490 -2.4045  0.9952 -0.2794
   80SOPE  H14S 7266   1.922   6.759   4.513  1.7691 -0.3779  2.5330
   80SOPE  C215 7267   1.982   6.793   4.313 -0.2883 -0.0062 -0.1449
   80SOPE  H15R 7268   1.892   6.856   4.299 -1.5275 -1.7010 -0.2027
   80SOPE  H15S 7269   1.957   6.692   4.273 -2.4798  0.7071 -0.7220
   80SOPE  C216 7270   2.101   6.833   4.225 -0.9451 -0.3013  0.4768
   80SOPE  H16R 7271   2.196   6.793   4.267 -1.0197  0.9968  1.9809
   80SOPE  H16S 7272   2.101   6.944   4.238  0.1090 -0.1494 -0.6011
   80SOPE  C217 7273   2.075   6.799   4.075 -0.3610 -0.2927 -0.1804
   80SOPE  H17R 7274   2.089   6.694   4.042 -1.0582 -0.4047 -0.1314
   80SOPE  H17S 7275   2.165   6.841   4.024  0.7662 -0.4329  1.5854
   80SOPE  C218 7276   1.941   6.864   4.020  0.2933 -0.3035 -0.0365
   80SOPE  H18R 7277   1.860   6.792   4.044 -1.5688  1.2820 -1.2125
   80SOPE  H18S 7278   1.955   6.881   3.911  1.6455 -0.5369  0.0777
   80SOPE  H18T 7279   1.924   6.962   4.068 -0.4373 -0.8928  0.9415
   80SOPE   C33 7280   1.956   6.296   5.456  0.0000 -0.3260 -0.2588
   80SOPE   H3X 7281   2.007   6.394   5.463  1.9601 -1.4199  3.8037
   80SOPE   H3Y 7282   1.868   6.312   5.390  0.9886  1.8054 -1.1755
   80SOPE   C34 7283   2.034   6.198   5.359  0.0998 -1.1990 -0.7920
   80SOPE   H4X 7284   1.988   6.097   5.364 -1.7460 -0.3670 -0.0223
   80SOPE   H4Y 7285   2.137   6.186   5.397 -0.6422 -1.0864  1.4005
   80SOPE   C35 7286   2.031   6.237   5.215 -0.1359  0.4771  0.2309
   80SOPE   H5X 7287   2.079   6.337   5.224  0.3711  0.1702  1.0160
   80SOPE   H5Y 7288   1.931   6.250   5.169  0.7285 -0.3831 -2.0380
   80SOPE   C36 7289   2.110   6.134   5.129  0.4869 -0.1704  0.4206
   80SOPE   H6X 7290   2.062   6.035   5.116  2.2626 -0.8153 -1.8510
   80SOPE   H6Y 7291   2.200   6.110   5.190  1.0851  0.0162 -0.3725
   80SOPE   C37 7292   2.140   6.196   4.993 -0.4115 -0.2260 -0.0205
   80SOPE   H7X 7293   2.230   6.147   4.951  0.8317  1.1286  0.9754
   80SOPE   H7Y 7294   2.166   6.304   4.993 -2.6528  0.3801 -0.6078
   80SOPE   C38 7295   2.032   6.162   4.884  0.2155  0.2939  0.5793
   80SOPE   H8X 7296   1.938   6.218   4.904  1.1821  1.5743  1.8213
   80SOPE   H8Y 7297   2.010   6.055   4.898 -1.5530  0.9499  3.9359
   80SOPE   C39 7298   2.078   6.188   4.738 -0.8858  0.0427  0.1742
   80SOPE   H9X 7299   2.173   6.132   4.726  0.0654  1.1642  2.0175
   80SOPE   H9Y 7300   2.107   6.292   4.710  3.4745 -1.2456 -0.8795
   80SOPE  C310 7301   1.978   6.141   4.630 -0.2403 -0.3367  0.4780
   80SOPE  H10X 7302   1.888   6.204   4.645 -1.0041 -1.4860  0.9005
   80SOPE  H10Y 7303   1.941   6.038   4.650  1.3134 -0.7708  1.2610
   80SOPE  C311 7304   2.026   6.163   4.488  0.1320  0.5758 -0.7883
   80SOPE  H11X 7305   2.118   6.101   4.487 -0.6166 -0.8418  2.8836
   80SOPE  H11Y 7306   2.050   6.271   4.471 -1.2448  1.1725  0.7508
   80SOPE  C312 7307   1.935   6.111   4.375  0.6359  0.2383 -0.5673
   80SOPE  H12X 7308   1.838   6.162   4.392  1.0503  1.1150 -0.7851
   80SOPE  H12Y 7309   1.928   6.002   4.397 -0.6115  0.5833  0.9278
   80SOPE  C313 7310   1.982   6.141   4.234  0.3064  0.0771 -0.1542
   80SOPE  H13X 7311   2.092   6.123   4.225  0.0219 -2.0068 -0.0157
   80SOPE  H13Y 7312   1.949   6.246   4.218  3.4171  2.2080  4.8955
   80SOPE  C314 7313   1.915   6.039   4.140  0.5300  0.2982  0.2205
   80SOPE  H14X 7314   1.930   5.931   4.164 -0.6353  0.2388  0.7547
   80SOPE  H14Y 7315   1.964   6.050   4.041  0.9956  2.5504  0.6516
   80SOPE  C315 7316   1.761   6.074   4.125 -1.3821  0.9324 -0.6446
   80SOPE  H15X 7317   1.746   6.181   4.098  0.2893  0.8161 -2.1619
   80SOPE  H15Y 7318   1.711   6.058   4.223 -0.3979  0.0781 -0.2636
   80SOPE  C316 7319   1.696   5.983   4.018  0.3729 -0.1312  0.2817
   80SOPE  H16X 7320   1.714   5.875   4.037 -0.1605 -0.5518 -1.4341
   80SOPE  H16Y 7321   1.750   6.002   3.923 -0.7564 -0.3588 -0.4252
   80SOPE  C317 7322   1.547   6.005   3.989  0.3978 -0.1933 -0.0636
   80SOPE  H17X 7323   1.525   6.114   3.978  1.5869  0.2578  1.6349
   80SOPE  H17Y 7324   1.496   5.973   4.082 -0.1426  0.1195 -0.2482
   80SOPE  C318 7325   1.494   5.936   3.863 -0.0909  0.4146  0.5493
   80SOPE  H18X 7326   1.513   5.827   3.868  1.0754  0.6444  1.9507
   80SOPE  H18Y 7327   1.554   5.974   3.777 -1.0360  0.2583 -0.1925
   80SOPE  H18Z 7328   1.389   5.972   3.860  0.5625  2.5472  1.5223
   81SOPE     N 7329   3.214   1.987   6.498 -0.2753  0.8256 -0.5703
   81SOPE   HN1 7330   3.305   2.001   6.547 -0.7440  0.4285  0.4404
   81SOPE   HN2 7331   3.143   2.049   6.543  0.0935  0.3702  0.6784
   81SOPE   HN3 7332   3.191   1.886   6.500  0.2202  0.6937  1.8420
   81SOPE   C12 7333   3.221   2.011   6.352 -0.5359 -0.6892  0.1388
   81SOPE  H12A 7334   3.124   1.977   6.310 -0.0070 -2.3783  0.2318
   81SOPE  H12B 7335   3.289   1.935   6.307 -2.2046 -1.8863 -0.4268
   81SOPE   C11 7336   3.262   2.154   6.324  0.0819  0.4984 -0.2167
   81SOPE  H11A 7337   3.314   2.152   6.226  0.3275 -0.8427 -0.0803
   81SOPE  H11B 7338   3.343   2.194   6.390 -0.5728  0.5565  0.5615
   81SOPE     P 7339   3.156   2.367   6.216 -0.2369 -0.2217  0.0217
   81SOPE   O13 7340   3.280   2.448   6.255  0.5097 -0.3002 -0.0728
   81SOPE   O14 7341   3.025   2.442   6.220 -0.5284 -0.1589 -1.3432
   81SOPE   O12 7342   3.153   2.251   6.325 -0.2929 -0.8768  0.4713
   81SOPE   O11 7343   3.177   2.296   6.076 -0.2505 -0.1144 -0.3786
   81SOPE    C1 7344   3.059   2.231   6.025 -0.5846 -0.0862 -0.5528
   81SOPE    HA 7345   2.973   2.302   6.028 -1.4307 -1.1016  0.4728
   81SOPE    HB 7346   3.027   2.141   6.081  2.3382 -0.2523  1.0295
   81SOPE    C2 7347   3.056   2.196   5.870 -0.2044 -0.4887  0.5167
   81SOPE    HS 7348   2.948   2.184   5.848  0.0338 -0.6796 -0.6498
   81SOPE   O21 7349   3.135   2.084   5.849 -0.4359  0.4479 -0.4079
   81SOPE   C21 7350   3.078   1.996   5.754  0.8652  0.4095 -0.5383
   81SOPE   O22 7351   2.972   2.014   5.700  0.0581 -0.2771  0.1535
   81SOPE   C22 7352   3.176   1.885   5.734  0.1204 -0.1908 -0.1085
   81SOPE   H2R 7353   3.207   1.826   5.823 -0.5298 -0.7082 -0.2138
   81SOPE   H2S 7354   3.270   1.930   5.696 -0.3300  0.9399  0.0801
   81SOPE    C3 7355   3.112   2.312   5.780 -0.1896  0.0000  0.2172
   81SOPE    HX 7356   3.207   2.345   5.827 -1.1551  1.5645  1.1720
   81SOPE    HY 7357   3.039   2.396   5.780 -2.4364 -1.8637  0.0544
   81SOPE   O31 7358   3.128   2.253   5.647 -0.1241  0.1722  0.1833
   81SOPE   C31 7359   3.232   2.303   5.579 -0.6799  0.3608  0.1324
   81SOPE   O32 7360   3.296   2.406   5.605  0.7809  0.0230  0.5922
   81SOPE   C32 7361   3.276   2.197   5.471 -0.0574 -1.3795 -0.0305
   81SOPE   H2X 7362   3.189   2.167   5.408  0.8382 -0.7505 -1.6232
   81SOPE   H2Y 7363   3.328   2.112   5.521  1.6654 -0.4082 -0.1092
   81SOPE   C23 7364   3.123   1.785   5.634  0.4713  0.3845  0.0009
   81SOPE   H3R 7365   3.022   1.746   5.660 -0.6838  2.6265 -0.8242
   81SOPE   H3S 7366   3.201   1.706   5.637  1.7033  1.5299 -0.5261
   81SOPE   C24 7367   3.114   1.836   5.491  0.4515  0.4923 -0.0844
   81SOPE   H4R 7368   3.045   1.923   5.498 -0.4074 -0.2082  0.3480
   81SOPE   H4S 7369   3.210   1.879   5.455  0.8420 -0.3713 -0.1187
   81SOPE   C25 7370   3.055   1.743   5.383 -0.3628 -0.2185  0.1279
   81SOPE   H5R 7371   3.124   1.658   5.364  1.3353  0.6361  2.0950
   81SOPE   H5S 7372   2.959   1.704   5.422  1.3029 -2.6264  2.1856
   81SOPE   C26 7373   3.044   1.810   5.248 -0.5105  0.0117 -0.4883
   81SOPE   H6R 7374   2.993   1.740   5.180  0.5926  1.1913 -2.6239
   81SOPE   H6S 7375   2.973   1.895   5.248 -2.4783 -1.5620 -0.7219
   81SOPE   C27 7376   3.182   1.834   5.185  0.0136 -0.8313  0.7143
   81SOPE   H7R 7377   3.253   1.894   5.246  1.7230 -2.4568  0.4080
   81SOPE   H7S 7378   3.222   1.731   5.192  0.6580 -0.6278  0.0748
   81SOPE   C28 7379   3.176   1.870   5.037  0.4159 -0.2085 -0.5877
   81SOPE   H8R 7380   3.088   1.937   5.020 -0.9285 -1.8283 -0.1954
   81SOPE   H8S 7381   3.268   1.919   4.997 -0.0986  0.9865 -0.3722
   81SOPE   C29 7382   3.145   1.751   4.949 -0.0130  0.0669  0.1111
   81SOPE   H91 7383   3.043   1.728   4.915  0.0318 -1.0178  0.6751
   81SOPE  C210 7384   3.233   1.673   4.892 -0.2670  0.2230  0.6719
   81SOPE  H101 7385   3.193   1.588   4.835 -1.3145 -0.0091  1.7237
   81SOPE  C211 7386   3.386   1.675   4.903  0.5308  0.1429 -0.4066
   81SOPE  H11R 7387   3.424   1.575   4.933 -0.1869 -0.5619 -1.7495
   81SOPE  H11S 7388   3.411   1.754   4.977 -0.9972 -1.0636  1.4861
   81SOPE  C212 7389   3.441   1.714   4.762 -0.2022  0.1360  0.7113
   81SOPE  H12R 7390   3.550   1.732   4.765 -0.3444  1.4704 -0.7943
   81SOPE  H12S 7391   3.402   1.816   4.741 -0.9470 -0.1666  0.5768
   81SOPE  C213 7392   3.414   1.615   4.648  0.3563 -0.1304  0.0509
   81SOPE  H13R 7393   3.305   1.616   4.626  0.4079 -0.2089 -0.2178
   81SOPE  H13S 7394   3.433   1.512   4.684 -3.4604 -0.7852  0.6000
   81SOPE  C214 7395   3.511   1.641   4.533  0.2315 -0.1783  0.1059
   81SOPE  H14R 7396   3.607   1.590   4.552  0.4233  0.1966  0.1520
   81SOPE  H14S 7397   3.532   1.750   4.526  1.4376 -0.4823 -1.6650
   81SOPE  C215 7398   3.461   1.607   4.395 -0.1870 -0.2978  1.2143
   81SOPE  H15R 7399   3.367   1.663   4.376  0.9232  0.6361 -2.4767
   81SOPE  H15S 7400   3.446   1.497   4.393  0.5860 -0.3975  0.2275
   81SOPE  C216 7401   3.542   1.655   4.277 -0.2075 -0.9629  0.1010
   81SOPE  H16R 7402   3.523   1.764   4.265  1.5181 -0.6844 -0.5184
   81SOPE  H16S 7403   3.503   1.614   4.181 -0.4911 -3.0203  1.0524
   81SOPE  C217 7404   3.691   1.642   4.306 -0.3886 -0.2293  0.4755
   81SOPE  H17R 7405   3.729   1.713   4.383  1.1569  0.0142 -0.4764
   81SOPE  H17S 7406   3.739   1.671   4.210 -1.1627 -0.6043 -0.0314
   81SOPE  C218 7407   3.732   1.494   4.339 -0.2944 -0.6739 -0.6017
   81SOPE  H18R 7408   3.710   1.463   4.444  1.4081 -2.5003 -0.7027
   81SOPE  H18S 7409   3.843   1.488   4.335 -0.1991  1.3548 -2.8181
   81SOPE  H18T 7410   3.680   1.419   4.275  0.4886 -0.7729 -1.1436
   81SOPE   C33 7411   3.369   2.261   5.366  0.0506  0.3447 -0.9760
   81SOPE   H3X 7412   3.443   2.323   5.421 -0.6001 -0.2102  0.6082
   81SOPE   H3Y 7413   3.320   2.341   5.306  2.5425  0.1013 -3.5327
   81SOPE   C34 7414   3.438   2.164   5.262 -0.4190 -0.2210 -0.2445
   81SOPE   H4X 7415   3.370   2.077   5.245 -0.2520 -0.3026 -0.5079
   81SOPE   H4Y 7416   3.538   2.130   5.297 -0.5655 -1.7377 -1.2084
   81SOPE   C35 7417   3.472   2.236   5.127 -0.3018 -0.1510  0.0087
   81SOPE   H5X 7418   3.378   2.258   5.074 -1.4437  1.9386  2.6612
   81SOPE   H5Y 7419   3.519   2.160   5.062  0.9961  2.1394 -1.8522
   81SOPE   C36 7420   3.575   2.352   5.153 -0.3057 -0.3807 -0.4118
   81SOPE   H6X 7421   3.675   2.320   5.191 -0.0890  2.0055  1.2820
   81SOPE   H6Y 7422   3.533   2.423   5.228 -0.9796 -2.1923  0.9919
   81SOPE   C37 7423   3.607   2.419   5.023 -0.0120 -0.4326 -0.5582
   81SOPE   H7X 7424   3.660   2.513   5.050 -1.2792 -0.3053  1.7000
   81SOPE   H7Y 7425   3.515   2.444   4.967 -0.4722  1.3918  0.9043
   81SOPE   C38 7426   3.717   2.343   4.951  0.2579  0.1285  0.0562
   81SOPE   H8X 7427   3.703   2.233   4.955 -1.6604  0.3677  1.0688
   81SOPE   H8Y 7428   3.816   2.357   5.000  0.8021  0.1377 -1.0198
   81SOPE   C39 7429   3.742   2.374   4.807 -0.3156 -0.1279  0.1113
   81SOPE   H9X 7430   3.706   2.477   4.785 -2.3423 -0.6375  0.7602
   81SOPE   H9Y 7431   3.671   2.302   4.760  0.7988 -0.2148 -1.5237
   81SOPE  C310 7432   3.883   2.345   4.761 -0.7033 -1.5631  1.2869
   81SOPE  H10X 7433   3.897   2.248   4.814 -1.5054 -0.7250  3.1545
   81SOPE  H10Y 7434   3.954   2.424   4.796  0.4579 -1.6317 -0.7546
   81SOPE  C311 7435   3.906   2.324   4.616 -0.4691  0.2868  0.4066
   81SOPE  H11X 7436   3.876   2.410   4.553 -2.5868 -0.8501 -0.2443
   81SOPE  H11Y 7437   3.840   2.239   4.588 -0.4105 -0.3901  2.1537
   81SOPE  C312 7438   4.053   2.282   4.590  0.2379 -0.0396  0.1020
   81SOPE  H12X 7439   4.062   2.184   4.641 -2.6614 -0.1009  0.6895
   81SOPE  H12Y 7440   4.114   2.355   4.648 -0.8191  1.2770 -0.3803
   81SOPE  C313 7441   4.085   2.267   4.448  0.3563  0.8304 -0.4764
   81SOPE  H13X 7442   4.068   2.364   4.398 -1.4432  0.4255 -0.6966
   81SOPE  H13Y 7443   4.023   2.195   4.391  0.6556 -0.9830  1.3403
   81SOPE  C314 7444   4.236   2.223   4.430  0.3006 -0.3070  0.2879
   81SOPE  H14X 7445   4.293   2.313   4.463  0.3982  0.4641 -1.8211
   81SOPE  H14Y 7446   4.259   2.226   4.322  0.2153  2.0833  0.2678
   81SOPE  C315 7447   4.282   2.098   4.496  0.6383  0.0531 -0.1857
   81SOPE  H15X 7448   4.191   2.037   4.515  1.1239 -0.6621 -0.1303
   81SOPE  H15Y 7449   4.313   2.128   4.598  1.5038  0.2841 -0.5109
   81SOPE  C316 7450   4.400   2.033   4.421  0.2637 -0.0174 -0.0624
   81SOPE  H16X 7451   4.481   2.108   4.419 -0.4000  0.7015 -1.1883
   81SOPE  H16Y 7452   4.367   2.013   4.317  0.1044 -0.6028  0.0965
   81SOPE  C317 7453   4.433   1.899   4.493  0.0247 -0.7208  0.0815
   81SOPE  H17X 7454   4.341   1.837   4.484 -0.4419 -0.2004  1.0268
   81SOPE  H17Y 7455   4.459   1.914   4.600  0.2118  1.8769 -0.2675
   81SOPE  C318 7456   4.553   1.823   4.434 -0.3160 -0.6608  0.4462
   81SOPE  H18X 7457   4.584   1.744   4.506 -1.8132 -1.8504 -0.1622
   81SOPE  H18Y 7458   4.637   1.896   4.428  0.5423 -1.6262  0.2447
   81SOPE  H18Z 7459   4.547   1.781   4.331  0.0963  0.5486 -0.0882
   82SOPE     N 7460   1.802   1.473   6.868 -0.3141  0.2059  0.2684
   82SOPE   HN1 7461   1.836   1.381   6.903  0.1636  0.0302 -0.6383
   82SOPE   HN2 7462   1.884   1.535   6.860  0.7340 -1.1539  0.1390
   82SOPE   HN3 7463   1.730   1.505   6.937 -1.4700 -0.0045 -0.7944
   82SOPE   C12 7464   1.737   1.451   6.735  0.0996 -0.2222  0.3079
   82SOPE  H12A 7465   1.706   1.345   6.739  0.9820 -0.5038  0.1064
   82SOPE  H12B 7466   1.812   1.468   6.654  1.2859  0.2804  1.4713
   82SOPE   C11 7467   1.626   1.557   6.711 -0.0674  0.2688  0.2498
   82SOPE  H11A 7468   1.593   1.565   6.605  1.1052 -0.8684 -0.2366
   82SOPE  H11B 7469   1.678   1.653   6.733  0.2302  0.4000 -0.9414
   82SOPE     P 7470   1.395   1.446   6.763  0.3312 -0.0129 -0.3808
   82SOPE   O13 7471   1.287   1.478   6.850  0.1120 -0.2086 -0.4389
   82SOPE   O14 7472   1.443   1.310   6.772 -0.1755  0.8006  0.6073
   82SOPE   O12 7473   1.515   1.545   6.802  0.2104  0.4597 -0.0672
   82SOPE   O11 7474   1.361   1.494   6.616 -0.8434  0.7827 -0.2491
   82SOPE    C1 7475   1.376   1.394   6.511 -0.1731  0.1235 -0.1535
   82SOPE    HA 7476   1.323   1.300   6.536  0.7472 -0.4474 -0.3264
   82SOPE    HB 7477   1.483   1.367   6.499 -0.2123  0.6726 -2.1228
   82SOPE    C2 7478   1.330   1.444   6.370 -0.5364 -0.4468  0.3511
   82SOPE    HS 7479   1.357   1.369   6.293 -1.5192  1.1538 -1.6520
   82SOPE   O21 7480   1.385   1.572   6.338  0.4586 -0.4931  0.3146
   82SOPE   C21 7481   1.505   1.565   6.279 -0.5002  0.4606  0.0895
   82SOPE   O22 7482   1.574   1.467   6.260  0.1182 -0.4235 -0.0452
   82SOPE   C22 7483   1.554   1.703   6.238  0.4834 -0.4662  0.4767
   82SOPE   H2R 7484   1.664   1.696   6.249  0.5838  1.7604  1.4660
   82SOPE   H2S 7485   1.507   1.786   6.297 -0.2823  0.8771 -1.8997
   82SOPE    C3 7486   1.176   1.455   6.369  0.0740 -0.6059 -0.3622
   82SOPE    HX 7487   1.142   1.498   6.465 -0.1780 -0.9914 -0.2766
   82SOPE    HY 7488   1.137   1.351   6.368 -1.3752 -0.0826 -1.5595
   82SOPE   O31 7489   1.132   1.517   6.252  0.2222 -0.1932 -0.0883
   82SOPE   C31 7490   1.028   1.605   6.256 -0.3952  0.2000 -0.4168
   82SOPE   O32 7491   0.955   1.623   6.352  0.4960 -0.1462  0.1672
   82SOPE   C32 7492   1.015   1.682   6.118  0.5861 -0.3409  0.1682
   82SOPE   H2X 7493   1.095   1.642   6.052  3.7480  4.1573  0.7711
   82SOPE   H2Y 7494   1.045   1.786   6.142 -0.8611 -0.1637  1.3619
   82SOPE   C23 7495   1.522   1.730   6.092  0.0017  0.1330  0.3511
   82SOPE   H3R 7496   1.588   1.818   6.077  2.1531 -0.9900  2.5387
   82SOPE   H3S 7497   1.417   1.765   6.088  0.2769  1.0765  1.0928
   82SOPE   C24 7498   1.547   1.621   5.989  0.0316 -0.3002 -0.1803
   82SOPE   H4R 7499   1.653   1.589   5.991 -0.1432 -0.9084 -0.4796
   82SOPE   H4S 7500   1.488   1.530   6.015 -0.4548 -0.2517 -1.0772
   82SOPE   C25 7501   1.515   1.676   5.851  0.8566 -1.1621  0.5100
   82SOPE   H5R 7502   1.412   1.717   5.851  1.8446  1.6794 -1.8167
   82SOPE   H5S 7503   1.587   1.759   5.833 -1.0862  1.0229  2.2073
   82SOPE   C26 7504   1.547   1.582   5.732  0.2355 -0.8092 -0.0358
   82SOPE   H6R 7505   1.657   1.567   5.732  0.3582 -0.0175 -0.5371
   82SOPE   H6S 7506   1.509   1.479   5.746  0.2859 -0.7032  0.9448
   82SOPE   C27 7507   1.509   1.637   5.599  0.2433  0.3074 -0.7391
   82SOPE   H7R 7508   1.405   1.619   5.564  0.4270 -0.1627 -1.0382
   82SOPE   H7S 7509   1.526   1.747   5.599  1.7345  0.0961 -0.3189
   82SOPE   C28 7510   1.591   1.578   5.479 -0.5862  0.5770 -0.0175
   82SOPE   H8R 7511   1.697   1.589   5.511 -1.6991  2.2758  3.5644
   82SOPE   H8S 7512   1.566   1.470   5.472 -0.9490  0.5859  0.9750
   82SOPE   C29 7513   1.574   1.666   5.354  0.6401 -0.2125  0.3823
   82SOPE   H91 7514   1.546   1.769   5.378 -1.8702 -0.8022  0.2339
   82SOPE  C210 7515   1.571   1.619   5.227  0.1909 -0.3308 -0.5210
   82SOPE  H101 7516   1.584   1.697   5.151  1.3121 -0.2971 -0.3079
   82SOPE  C211 7517   1.603   1.477   5.180 -0.1622 -0.4117 -1.1292
   82SOPE  H11R 7518   1.515   1.437   5.125 -1.1581  0.0504  0.0570
   82SOPE  H11S 7519   1.600   1.406   5.265 -2.8816 -0.0999 -0.8707
   82SOPE  C212 7520   1.735   1.461   5.101  0.3831 -0.4637 -0.6303
   82SOPE  H12R 7521   1.751   1.353   5.080  0.4301  0.0727 -3.8986
   82SOPE  H12S 7522   1.820   1.504   5.158 -1.7737  1.0116  1.6989
   82SOPE  C213 7523   1.731   1.523   4.964  0.8682  0.2634  0.3543
   82SOPE  H13R 7524   1.733   1.634   4.964  1.7284  0.2852  2.1018
   82SOPE  H13S 7525   1.638   1.495   4.909 -0.2228  0.8201  1.8245
   82SOPE  C214 7526   1.854   1.484   4.875 -0.2942  0.3913 -0.0277
   82SOPE  H14R 7527   1.859   1.376   4.849  0.0990  0.6054 -0.8501
   82SOPE  H14S 7528   1.946   1.501   4.936  0.6561  1.4431 -1.6789
   82SOPE  C215 7529   1.856   1.557   4.747 -0.4756  0.3224 -0.1214
   82SOPE  H15R 7530   1.838   1.665   4.766  1.0850  0.4746  0.7102
   82SOPE  H15S 7531   1.773   1.513   4.688 -0.2048  1.2389 -1.2365
   82SOPE  C216 7532   1.985   1.539   4.666  0.1782 -0.3119  0.3090
   82SOPE  H16R 7533   2.009   1.431   4.651  1.2896 -0.1144  0.5783
   82SOPE  H16S 7534   2.069   1.585   4.721 -0.6654  1.0029  0.5383
   82SOPE  C217 7535   1.975   1.611   4.526  0.2550  0.3037  0.0682
   82SOPE  H17R 7536   1.953   1.720   4.523 -0.4379  0.1608 -2.9546
   82SOPE  H17S 7537   1.898   1.559   4.466 -0.4288  2.2546 -0.8021
   82SOPE  C218 7538   2.112   1.592   4.454  0.3074 -0.5378  0.2229
   82SOPE  H18R 7539   2.190   1.655   4.503 -1.7348  2.1237  0.3079
   82SOPE  H18S 7540   2.094   1.638   4.354 -1.2584 -1.0626  0.2430
   82SOPE  H18T 7541   2.130   1.483   4.440  0.4906 -0.2105 -3.0423
   82SOPE   C33 7542   0.872   1.697   6.065  0.3333 -0.4954 -0.0692
   82SOPE   H3X 7543   0.797   1.745   6.131  0.0141 -0.9682 -0.0810
   82SOPE   H3Y 7544   0.832   1.595   6.043  1.0697 -1.0923  1.2119
   82SOPE   C34 7545   0.856   1.761   5.932 -0.1468 -0.8715  0.8916
   82SOPE   H4X 7546   0.750   1.756   5.899  0.1020 -3.1941  0.2676
   82SOPE   H4Y 7547   0.922   1.710   5.858 -0.4670  1.3263 -1.0168
   82SOPE   C35 7548   0.902   1.904   5.917 -0.5505 -0.1151 -0.2325
   82SOPE   H5X 7549   1.008   1.908   5.884 -1.2444  3.0425 -2.5554
   82SOPE   H5Y 7550   0.897   1.955   6.015  1.1161  0.5251 -0.4451
   82SOPE   C36 7551   0.829   1.981   5.807 -0.4915  0.3141  0.3439
   82SOPE   H6X 7552   0.836   2.091   5.822  0.1157  0.3741 -0.2875
   82SOPE   H6Y 7553   0.720   1.967   5.820 -0.5214  1.3362  1.4513
   82SOPE   C37 7554   0.870   1.929   5.669 -0.2570  0.5200 -0.8615
   82SOPE   H7X 7555   0.837   1.824   5.653  2.3157 -0.9824  2.3693
   82SOPE   H7Y 7556   0.979   1.932   5.649  0.0669  2.6678  0.8178
   82SOPE   C38 7557   0.806   2.009   5.554  0.4625 -0.2844  1.2569
   82SOPE   H8X 7558   0.829   2.116   5.571  0.0073 -0.0136  0.1992
   82SOPE   H8Y 7559   0.697   1.995   5.564  0.5961 -1.0339  1.7859
   82SOPE   C39 7560   0.841   1.972   5.409  0.2199  0.0621 -0.3522
   82SOPE   H9X 7561   0.828   1.861   5.407  0.8036 -0.1082  2.0771
   82SOPE   H9Y 7562   0.949   1.996   5.401  0.7358 -1.5210  1.1276
   82SOPE  C310 7563   0.768   2.037   5.295  0.7607  0.3027  0.5011
   82SOPE  H10X 7564   0.771   2.146   5.313 -0.3197  0.4929 -0.3742
   82SOPE  H10Y 7565   0.668   1.996   5.322  0.9911 -0.6229  0.0052
   82SOPE  C311 7566   0.805   1.995   5.153  0.0208  0.0811 -0.2285
   82SOPE  H11X 7567   0.716   1.995   5.087 -0.0178 -0.4894 -0.1854
   82SOPE  H11Y 7568   0.831   1.887   5.142 -0.9041 -0.1177 -0.5629
   82SOPE  C312 7569   0.918   2.080   5.086  0.2088 -0.3193 -0.4012
   82SOPE  H12X 7570   0.980   2.111   5.173 -0.4036  1.7433 -0.6451
   82SOPE  H12Y 7571   0.879   2.176   5.047  1.1158  0.4002  0.4130
   82SOPE  C313 7572   1.005   2.020   4.971 -0.3102  0.1381 -0.0206
   82SOPE  H13X 7573   1.045   1.919   4.995  0.2838 -0.4707 -3.0666
   82SOPE  H13Y 7574   1.088   2.091   4.948  1.1810 -0.9115  1.8392
   82SOPE  C314 7575   0.938   2.018   4.836 -0.4385  0.3059 -0.1086
   82SOPE  H14X 7576   0.913   2.119   4.796 -3.6671 -0.8111 -1.2495
   82SOPE  H14Y 7577   0.847   1.956   4.846  1.1673 -1.9918  1.2121
   82SOPE  C315 7578   1.024   1.955   4.721 -0.0328  0.2325 -0.8983
   82SOPE  H15X 7579   1.065   1.858   4.756  0.7298  0.5418 -0.9152
   82SOPE  H15Y 7580   1.114   2.017   4.700  0.0463  0.0344 -1.1505
   82SOPE  C316 7581   0.936   1.919   4.597  0.5347 -0.5143  0.2744
   82SOPE  H16X 7582   0.931   2.014   4.539  2.7407  0.0934  0.9537
   82SOPE  H16Y 7583   0.834   1.886   4.624  0.8898  0.3681  3.0536
   82SOPE  C317 7584   0.994   1.815   4.505 -0.5036  0.3747  0.5091
   82SOPE  H17X 7585   0.973   1.719   4.555  0.7628 -0.2909 -0.1588
   82SOPE  H17Y 7586   1.102   1.817   4.479 -1.0060 -0.3682 -1.8944
   82SOPE  C318 7587   0.914   1.810   4.371 -0.2213 -0.3375 -0.0664
   82SOPE  H18X 7588   0.961   1.731   4.310 -0.5602  1.3023 -2.6061
   82SOPE  H18Y 7589   0.895   1.911   4.328  0.2898 -0.6657 -1.0835
   82SOPE  H18Z 7590   0.814   1.766   4.391 -1.0270  1.2781 -0.2880
   83SOPE     N 7591   5.904   3.212   1.460  0.3038 -0.3494  0.4196
   83SOPE   HN1 7592   5.957   3.205   1.371 -0.0370  1.5648  0.0104
   83SOPE   HN2 7593   5.810   3.252   1.441  1.2323  2.0647  0.4705
   83SOPE   HN3 7594   5.966   3.281   1.508  0.6945  0.8342 -1.6396
   83SOPE   C12 7595   5.900   3.085   1.546  0.8184 -0.2508 -0.6754
   83SOPE  H12A 7596   5.872   2.995   1.488 -1.4883 -0.5431  0.7719
   83SOPE  H12B 7597   5.832   3.098   1.633  2.3729 -1.1724  0.7510
   83SOPE   C11 7598   6.037   3.059   1.607  0.0226  0.2937 -0.2192
   83SOPE  H11A 7599   6.113   3.049   1.526 -0.2841  0.2897 -0.5112
   83SOPE  H11B 7600   6.033   2.958   1.653 -0.1662  0.5036  0.2190
   83SOPE     P 7601   6.210   3.132   1.791 -0.5780 -0.0550  0.2928
   83SOPE   O13 7602   6.283   3.261   1.806  0.1686 -0.2334 -0.0391
   83SOPE   O14 7603   6.287   3.022   1.723 -0.0877  0.8038  0.3353
   83SOPE   O12 7604   6.078   3.153   1.708 -0.4062 -0.1721 -0.1448
   83SOPE   O11 7605   6.170   3.084   1.933 -0.9424 -0.0694  0.3828
   83SOPE    C1 7606   6.039   3.092   1.982  0.3036  0.2849 -0.1742
   83SOPE    HA 7607   6.011   2.998   2.036 -1.1274  1.4196  1.1440
   83SOPE    HB 7608   5.959   3.109   1.906  0.6675 -1.0578 -0.8883
   83SOPE    C2 7609   6.028   3.218   2.077 -0.6276 -0.0892 -0.0071
   83SOPE    HS 7610   6.032   3.306   2.010 -0.8744  0.0345  0.1410
   83SOPE   O21 7611   6.141   3.212   2.160 -0.0105  0.4551 -0.0654
   83SOPE   C21 7612   6.158   3.321   2.234  0.7586 -0.1414 -0.0464
   83SOPE   O22 7613   6.096   3.426   2.222  0.6500 -0.2212 -0.7905
   83SOPE   C22 7614   6.266   3.305   2.339 -0.1808  0.0812  1.0232
   83SOPE   H2R 7615   6.338   3.385   2.309  0.0108 -0.6316 -0.5279
   83SOPE   H2S 7616   6.316   3.207   2.325 -3.1035 -1.3484 -0.1010
   83SOPE    C3 7617   5.898   3.206   2.159 -0.1412 -0.1486  0.3444
   83SOPE    HX 7618   5.817   3.202   2.084 -1.4113 -1.3750  1.7196
   83SOPE    HY 7619   5.881   3.297   2.220 -1.3787 -0.3697  0.3436
   83SOPE   O31 7620   5.902   3.095   2.248  0.2235 -0.0362 -0.4646
   83SOPE   C31 7621   5.780   3.080   2.306  0.7272 -0.3675  0.1574
   83SOPE   O32 7622   5.685   3.156   2.294 -0.0644 -0.6858 -0.0230
   83SOPE   C32 7623   5.796   2.960   2.402  0.2950 -0.1123 -0.0847
   83SOPE   H2X 7624   5.903   2.942   2.425  0.0570 -1.5787 -0.0545
   83SOPE   H2Y 7625   5.762   2.869   2.350  1.9714 -0.9245  0.1561
   83SOPE   C23 7626   6.215   3.319   2.483 -0.0703  0.0862 -0.2267
   83SOPE   H3R 7627   6.130   3.390   2.489 -0.6565 -0.4597 -1.6102
   83SOPE   H3S 7628   6.303   3.362   2.536  1.0311 -0.7962 -1.2770
   83SOPE   C24 7629   6.186   3.187   2.561  0.3118 -0.5262 -0.4518
   83SOPE   H4R 7630   6.107   3.131   2.506 -0.1585 -1.2442  0.8993
   83SOPE   H4S 7631   6.278   3.126   2.574 -1.0718 -1.9704  4.5905
   83SOPE   C25 7632   6.144   3.205   2.701  0.2475 -0.3480  0.0623
   83SOPE   H5R 7633   6.163   3.106   2.748  0.2559 -0.3844 -0.0160
   83SOPE   H5S 7634   6.208   3.285   2.745 -0.0043  0.4043 -0.8947
   83SOPE   C26 7635   5.994   3.230   2.710  0.3417 -0.3038  0.0309
   83SOPE   H6R 7636   5.976   3.328   2.661  3.2387  0.8398  1.0255
   83SOPE   H6S 7637   5.935   3.149   2.663 -0.1203  0.7719 -1.3047
   83SOPE   C27 7638   5.939   3.230   2.853  0.4606 -0.4075  0.2211
   83SOPE   H7R 7639   5.830   3.244   2.835  0.5051 -0.2651  0.0650
   83SOPE   H7S 7640   5.952   3.128   2.896  2.0901  0.6465  2.4137
   83SOPE   C28 7641   5.997   3.334   2.940  0.1152 -0.3861  0.4672
   83SOPE   H8R 7642   6.108   3.333   2.939  0.1273 -0.4095 -1.3090
   83SOPE   H8S 7643   5.976   3.433   2.893  0.9143 -1.0599 -1.3822
   83SOPE   C29 7644   5.942   3.338   3.078  0.1462  0.2897 -0.1372
   83SOPE   H91 7645   5.835   3.360   3.085 -0.8435 -3.9805  0.2820
   83SOPE  C210 7646   5.997   3.309   3.196 -0.4203 -0.5664 -0.3615
   83SOPE  H101 7647   5.936   3.319   3.287  0.6018  0.9097  0.2005
   83SOPE  C211 7648   6.132   3.245   3.211 -1.0098 -0.5916 -0.4911
   83SOPE  H11R 7649   6.190   3.313   3.276 -3.4149  1.2499 -0.0970
   83SOPE  H11S 7650   6.189   3.230   3.116 -2.4168  1.3078 -1.7145
   83SOPE  C212 7651   6.120   3.105   3.273 -0.0971  0.2015  0.4623
   83SOPE  H12R 7652   6.077   3.046   3.189  0.7657 -1.9797  1.4765
   83SOPE  H12S 7653   6.050   3.102   3.359  1.8541 -0.1602  2.1164
   83SOPE  C213 7654   6.259   3.046   3.313 -0.1404  0.0470  0.2826
   83SOPE  H13R 7655   6.336   3.059   3.234  0.6783  2.5248  1.4035
   83SOPE  H13S 7656   6.257   2.935   3.325  0.5448 -0.1155 -0.9369
   83SOPE  C214 7657   6.321   3.105   3.439 -0.0596 -0.2103  1.2361
   83SOPE  H14R 7658   6.243   3.100   3.518 -1.5203 -2.4652 -0.2164
   83SOPE  H14S 7659   6.340   3.212   3.416 -2.6237  0.1840  0.7185
   83SOPE  C215 7660   6.446   3.029   3.498 -1.0722  0.0882  0.3161
   83SOPE  H15R 7661   6.420   2.921   3.491 -1.7017  0.3433 -3.5011
   83SOPE  H15S 7662   6.456   3.077   3.598 -0.5060  0.8835 -0.1137
   83SOPE  C216 7663   6.585   3.045   3.429 -0.1099  0.4679  0.6249
   83SOPE  H16R 7664   6.633   3.145   3.438  0.4797  0.1905  0.6252
   83SOPE  H16S 7665   6.568   3.013   3.324  2.0670 -3.0760  1.1760
   83SOPE  C217 7666   6.686   2.934   3.472  0.3389  0.4866 -0.7338
   83SOPE  H17R 7667   6.776   2.950   3.409  0.4716  4.3969  0.2195
   83SOPE  H17S 7668   6.636   2.835   3.465 -0.1132  0.3605  2.6065
   83SOPE  C218 7669   6.726   2.928   3.620  0.3337 -0.1362  0.5078
   83SOPE  H18R 7670   6.642   2.918   3.691 -3.5027 -1.0881 -3.6725
   83SOPE  H18S 7671   6.788   3.014   3.653  2.1310 -1.8703  1.8787
   83SOPE  H18T 7672   6.785   2.836   3.638 -0.1224 -0.5907 -0.2302
   83SOPE   C33 7673   5.718   2.987   2.533 -0.1365 -0.1949 -0.9917
   83SOPE   H3X 7674   5.612   2.956   2.519 -0.2095 -0.0135 -0.8498
   83SOPE   H3Y 7675   5.705   3.096   2.546  0.1221 -0.0459 -1.9085
   83SOPE   C34 7676   5.771   2.905   2.653  0.1583  0.4233  0.3747
   83SOPE   H4X 7677   5.881   2.924   2.649  0.2287 -0.1671 -1.2442
   83SOPE   H4Y 7678   5.764   2.796   2.629 -0.6107  0.6883 -0.6892
   83SOPE   C35 7679   5.709   2.945   2.790  0.4376  0.2146  0.0393
   83SOPE   H5X 7680   5.600   2.926   2.777  0.5721 -0.6528  0.1467
   83SOPE   H5Y 7681   5.728   3.052   2.813  0.2049  0.0751  0.8987
   83SOPE   C36 7682   5.766   2.857   2.902 -0.2661 -0.0154  0.1855
   83SOPE   H6X 7683   5.875   2.872   2.908 -0.3689  1.7361 -1.5223
   83SOPE   H6Y 7684   5.738   2.750   2.885  0.5513 -0.0426 -1.0975
   83SOPE   C37 7685   5.703   2.897   3.037  0.0701  0.2469 -0.1987
   83SOPE   H7X 7686   5.594   2.904   3.015 -0.1639  0.9419  1.0715
   83SOPE   H7Y 7687   5.736   3.001   3.059 -1.7014  1.2209 -1.8120
   83SOPE   C38 7688   5.728   2.786   3.149 -0.1588 -1.0420 -0.0566
   83SOPE   H8X 7689   5.835   2.764   3.135 -0.0533 -0.1900 -0.7046
   83SOPE   H8Y 7690   5.667   2.698   3.119 -3.4951  0.6969  1.1219
   83SOPE   C39 7691   5.687   2.837   3.290 -0.8361  0.2076 -0.1585
   83SOPE   H9X 7692   5.684   2.751   3.361  0.5261 -0.4753 -0.8826
   83SOPE   H9Y 7693   5.586   2.883   3.282 -0.8947  0.3041  1.0568
   83SOPE  C310 7694   5.786   2.934   3.357  0.0829  0.0271  0.2498
   83SOPE  H10X 7695   5.800   3.016   3.283 -0.3591 -0.3990 -0.3148
   83SOPE  H10Y 7696   5.885   2.887   3.377  0.0066  0.3790  1.5781
   83SOPE  C311 7697   5.736   2.987   3.492 -0.3259 -0.5019  0.0441
   83SOPE  H11X 7698   5.639   3.040   3.479  0.4891  0.6170 -1.8645
   83SOPE  H11Y 7699   5.808   3.064   3.527  0.7050  0.1082 -3.1032
   83SOPE  C312 7700   5.733   2.878   3.594  0.5748  0.1173 -0.5076
   83SOPE  H12X 7701   5.656   2.800   3.574 -0.7101  1.2257 -0.0136
   83SOPE  H12Y 7702   5.701   2.915   3.694 -2.6437 -1.7227 -0.7117
   83SOPE  C313 7703   5.871   2.806   3.632  0.1624  0.7517  0.2108
   83SOPE  H13X 7704   5.949   2.884   3.646  0.2460  0.5490  0.9159
   83SOPE  H13Y 7705   5.876   2.740   3.543 -5.2989  0.9981 -0.6301
   83SOPE  C314 7706   5.854   2.711   3.748 -0.4546 -0.3449 -1.0916
   83SOPE  H14X 7707   5.760   2.653   3.758  0.1544 -1.1069  0.5678
   83SOPE  H14Y 7708   5.839   2.783   3.832  0.9873 -0.5242 -0.6548
   83SOPE  C315 7709   5.969   2.612   3.758  0.5394  0.8374 -0.6570
   83SOPE  H15X 7710   6.064   2.664   3.781  0.6316  2.0532 -3.3528
   83SOPE  H15Y 7711   5.974   2.573   3.654  0.0465  2.3149 -1.2766
   83SOPE  C316 7712   5.937   2.501   3.861 -0.7052  0.4598 -0.5936
   83SOPE  H16X 7713   5.860   2.429   3.827 -0.6512  0.1855 -0.1440
   83SOPE  H16Y 7714   5.903   2.553   3.953  0.8420  0.9528 -0.2719
   83SOPE  C317 7715   6.064   2.424   3.900 -0.4363  0.4573 -0.3503
   83SOPE  H17X 7716   6.136   2.501   3.935  0.0522 -0.0526 -0.2119
   83SOPE  H17Y 7717   6.113   2.362   3.822 -0.0871 -0.9511  0.9354
   83SOPE  C318 7718   6.036   2.344   4.027 -0.3456  0.4074 -0.3485
   83SOPE  H18X 7719   6.119   2.276   4.058  0.2375  0.9281 -0.7563
   83SOPE  H18Y 7720   5.951   2.273   4.017 -0.7922  0.5836  1.6828
   83SOPE  H18Z 7721   6.009   2.420   4.104 -1.6249  0.9144 -1.2786
   84SOPE     N 7722   0.434   2.120   2.012 -0.3213  0.1600 -0.2123
   84SOPE   HN1 7723   0.513   2.137   2.077  0.8791  0.3433 -1.6691
   84SOPE   HN2 7724   0.440   2.017   1.994  0.8155  0.0723  0.5208
   84SOPE   HN3 7725   0.474   2.149   1.921  1.6162 -0.6476  0.3358
   84SOPE   C12 7726   0.306   2.188   2.029 -0.3681 -0.0210 -0.0894
   84SOPE  H12A 7727   0.256   2.157   2.123  0.4652 -2.7871 -0.4886
   84SOPE  H12B 7728   0.236   2.163   1.946 -1.0748  1.5692 -0.0140
   84SOPE   C11 7729   0.320   2.342   2.021 -1.1896 -0.0918 -0.3222
   84SOPE  H11A 7730   0.398   2.365   2.097  0.3585 -2.6743 -1.0037
   84SOPE  H11B 7731   0.219   2.385   2.037 -0.7803  0.4083  1.0431
   84SOPE     P 7732   0.374   2.509   1.822  0.0845  0.4433  0.2926
   84SOPE   O13 7733   0.259   2.589   1.870 -0.3577  0.2316 -0.6272
   84SOPE   O14 7734   0.377   2.486   1.678  0.3518 -0.0098  0.5627
   84SOPE   O12 7735   0.376   2.369   1.890  0.3423 -1.0422 -0.2938
   84SOPE   O11 7736   0.506   2.579   1.876 -0.1306  0.3205  0.0424
   84SOPE    C1 7737   0.628   2.523   1.837 -0.4462 -0.4494  0.6065
   84SOPE    HA 7738   0.699   2.608   1.825 -2.1871  1.0556  0.4274
   84SOPE    HB 7739   0.617   2.488   1.732 -0.4546  2.9462 -0.6469
   84SOPE    C2 7740   0.688   2.411   1.919  0.1399  0.6043  0.1610
   84SOPE    HS 7741   0.630   2.318   1.898  0.8300  0.1508  0.2357
   84SOPE   O21 7742   0.690   2.450   2.050  0.4661 -0.1019  0.2806
   84SOPE   C21 7743   0.687   2.357   2.144 -0.3061 -0.7336 -0.3752
   84SOPE   O22 7744   0.648   2.244   2.134 -0.1263 -0.2455 -0.0747
   84SOPE   C22 7745   0.741   2.425   2.274  0.3708 -0.0011 -0.0619
   84SOPE   H2R 7746   0.737   2.535   2.262 -0.0874  0.1485  1.3777
   84SOPE   H2S 7747   0.847   2.395   2.292  0.4614  1.3677  1.9035
   84SOPE    C3 7748   0.827   2.370   1.875  0.5623  0.1210  0.4618
   84SOPE    HX 7749   0.813   2.350   1.767 -0.3837  0.3503  0.5312
   84SOPE    HY 7750   0.864   2.271   1.909 -1.8897 -0.8901  0.3536
   84SOPE   O31 7751   0.923   2.471   1.897  0.5216  0.2217  0.3432
   84SOPE   C31 7752   1.001   2.459   2.005  0.0975 -0.6729 -1.4152
   84SOPE   O32 7753   0.984   2.371   2.088 -0.6112 -0.0319  0.3028
   84SOPE   C32 7754   1.092   2.578   2.008  0.3119 -1.0961  0.0713
   84SOPE   H2X 7755   1.037   2.664   2.052 -1.5277 -2.3219  0.2896
   84SOPE   H2Y 7756   1.121   2.606   1.904  0.3018 -0.8662  0.1304
   84SOPE   C23 7757   0.656   2.394   2.397  0.7615  0.0763  0.3549
   84SOPE   H3R 7758   0.690   2.305   2.455 -2.2558 -0.7973  0.9640
   84SOPE   H3S 7759   0.550   2.371   2.372  0.9647  0.0379 -0.4691
   84SOPE   C24 7760   0.636   2.513   2.494 -0.3986 -0.2628  0.2460
   84SOPE   H4R 7761   0.733   2.552   2.531 -1.1710  1.5580  0.4754
   84SOPE   H4S 7762   0.587   2.591   2.432 -1.8460  0.2216  1.9205
   84SOPE   C25 7763   0.565   2.469   2.625 -0.1846  0.8099 -0.5952
   84SOPE   H5R 7764   0.627   2.395   2.680  0.9535  2.0691 -0.1502
   84SOPE   H5S 7765   0.534   2.551   2.693  2.3943  0.4166  1.2036
   84SOPE   C26 7766   0.432   2.387   2.599  0.1844 -0.1976 -0.4500
   84SOPE   H6R 7767   0.447   2.303   2.528 -1.2125  0.6680 -1.8227
   84SOPE   H6S 7768   0.412   2.347   2.701  2.8687 -0.8873 -0.1052
   84SOPE   C27 7769   0.313   2.480   2.547 -0.6812  0.0661 -0.8099
   84SOPE   H7R 7770   0.360   2.541   2.466 -0.8937  2.5428  0.8330
   84SOPE   H7S 7771   0.234   2.422   2.493 -0.2482  0.2915 -1.7145
   84SOPE   C28 7772   0.244   2.570   2.645  0.4144  0.5530 -0.3877
   84SOPE   H8R 7773   0.312   2.637   2.702 -1.1348  1.1662  0.8090
   84SOPE   H8S 7774   0.166   2.633   2.598 -1.4729  1.0271  3.0583
   84SOPE   C29 7775   0.178   2.476   2.743  0.3771 -0.3471 -0.1945
   84SOPE   H91 7776   0.094   2.419   2.700 -0.0682 -0.6419  1.0356
   84SOPE  C210 7777   0.213   2.440   2.870 -0.2884  0.3383 -1.0275
   84SOPE  H101 7778   0.149   2.372   2.928  0.5754 -0.0245 -0.4698
   84SOPE  C211 7779   0.340   2.498   2.934  0.8257 -0.0561 -0.6793
   84SOPE  H11R 7780   0.336   2.609   2.935  0.1894 -0.0158  2.1825
   84SOPE  H11S 7781   0.435   2.484   2.877  1.5904 -1.0091  0.7554
   84SOPE  C212 7782   0.362   2.466   3.082 -0.1080 -0.3496  0.0963
   84SOPE  H12R 7783   0.263   2.479   3.131 -0.8834 -2.4863 -0.7962
   84SOPE  H12S 7784   0.442   2.533   3.121  0.9998 -0.6089 -1.6337
   84SOPE  C213 7785   0.421   2.330   3.119  0.0325 -0.7020  0.2780
   84SOPE  H13R 7786   0.472   2.289   3.029 -2.6041 -0.0575 -1.6428
   84SOPE  H13S 7787   0.340   2.254   3.118 -1.0086  0.3855 -0.5464
   84SOPE  C214 7788   0.499   2.328   3.252  0.1067 -0.3557  0.1414
   84SOPE  H14R 7789   0.437   2.365   3.336 -0.3348  2.3698 -1.2620
   84SOPE  H14S 7790   0.575   2.408   3.235  0.2275 -0.4100  0.4265
   84SOPE  C215 7791   0.565   2.189   3.277 -1.2942  0.4620 -0.2327
   84SOPE  H15R 7792   0.628   2.167   3.187 -0.9901 -0.3985  0.1881
   84SOPE  H15S 7793   0.486   2.118   3.305 -0.6047  0.0745  0.7751
   84SOPE  C216 7794   0.662   2.189   3.393  0.6549 -0.2494 -0.1468
   84SOPE  H16R 7795   0.610   2.238   3.478  2.9843 -0.4976  1.5245
   84SOPE  H16S 7796   0.736   2.268   3.366 -1.5927  1.8687 -0.5166
   84SOPE  C217 7797   0.719   2.054   3.424 -0.1890 -0.4195  0.2169
   84SOPE  H17R 7798   0.641   1.977   3.439 -1.6724  0.3952 -2.6039
   84SOPE  H17S 7799   0.771   2.071   3.521 -0.2041  0.1936  0.1223
   84SOPE  C218 7800   0.821   2.003   3.320  0.0112 -0.4518 -0.6295
   84SOPE  H18R 7801   0.902   2.079   3.314  1.5199 -1.9868 -0.6466
   84SOPE  H18S 7802   0.777   1.996   3.218 -0.5538  1.9750 -0.5965
   84SOPE  H18T 7803   0.869   1.909   3.357  0.2256  0.0369  0.3501
   84SOPE   C33 7804   1.222   2.547   2.091 -0.1311 -0.2078  0.2061
   84SOPE   H3X 7805   1.274   2.455   2.061 -0.3787 -0.7243  1.2949
   84SOPE   H3Y 7806   1.178   2.518   2.189  0.4864  0.6185  0.7395
   84SOPE   C34 7807   1.315   2.674   2.105 -0.2334  0.5795 -0.8710
   84SOPE   H4X 7808   1.238   2.752   2.127 -0.3447 -0.3024  2.3871
   84SOPE   H4Y 7809   1.347   2.690   2.000  1.9934  0.3530 -0.2698
   84SOPE   C35 7810   1.426   2.655   2.217 -0.3936  0.2698 -0.3226
   84SOPE   H5X 7811   1.506   2.726   2.186 -0.4704  0.8973  0.8239
   84SOPE   H5Y 7812   1.474   2.556   2.216 -0.0123  0.3716  1.8021
   84SOPE   C36 7813   1.383   2.686   2.363 -0.2031 -0.6347  0.2956
   84SOPE   H6X 7814   1.329   2.594   2.395  2.3612 -1.5243  2.4416
   84SOPE   H6Y 7815   1.320   2.778   2.358  2.1174  1.1117  1.5357
   84SOPE   C37 7816   1.504   2.711   2.449 -0.2577 -0.3911 -0.0609
   84SOPE   H7X 7817   1.560   2.796   2.403 -2.8531  2.0827  1.0820
   84SOPE   H7Y 7818   1.572   2.623   2.445  1.0213  0.5979 -0.9596
   84SOPE   C38 7819   1.454   2.748   2.589 -0.3623 -0.7528 -0.9300
   84SOPE   H8X 7820   1.376   2.822   2.560 -0.7658 -1.1555 -0.8817
   84SOPE   H8Y 7821   1.547   2.782   2.638  0.5509 -2.8465 -1.1030
   84SOPE   C39 7822   1.404   2.625   2.661 -0.5287  0.7765 -0.4113
   84SOPE   H9X 7823   1.469   2.536   2.671 -1.0169  0.7098  4.1470
   84SOPE   H9Y 7824   1.305   2.585   2.629 -0.2763 -0.2327  0.0305
   84SOPE  C310 7825   1.377   2.669   2.801  0.2304 -0.4523  0.2591
   84SOPE  H10X 7826   1.284   2.729   2.809 -0.1389 -1.2033  2.0990
   84SOPE  H10Y 7827   1.457   2.737   2.835 -1.1786  1.7970 -0.6468
   84SOPE  C311 7828   1.370   2.563   2.913 -0.3615 -0.2169  0.2448
   84SOPE  H11X 7829   1.471   2.520   2.926  0.2128  1.1780  0.6298
   84SOPE  H11Y 7830   1.299   2.481   2.887  1.1305 -1.7441  0.8556
   84SOPE  C312 7831   1.355   2.636   3.046  0.0952 -0.0575  0.4183
   84SOPE  H12X 7832   1.259   2.691   3.049 -0.3987 -0.6473 -2.3645
   84SOPE  H12Y 7833   1.436   2.711   3.062 -1.7679  2.0956  0.2118
   84SOPE  C313 7834   1.365   2.532   3.170  0.1521  0.3715 -0.0337
   84SOPE  H13X 7835   1.454   2.466   3.166 -0.5686 -0.7639  1.9255
   84SOPE  H13Y 7836   1.269   2.476   3.176  1.1978 -2.0456 -3.0990
   84SOPE  C314 7837   1.372   2.606   3.300 -0.2483  0.2903  0.6602
   84SOPE  H14X 7838   1.293   2.681   3.280 -1.4488 -1.4512 -1.5634
   84SOPE  H14Y 7839   1.459   2.676   3.307  0.1491 -0.3010  1.8173
   84SOPE  C315 7840   1.335   2.525   3.416  0.6919 -0.0237 -0.7630
   84SOPE  H15X 7841   1.410   2.454   3.458 -1.5627 -0.6376  2.6462
   84SOPE  H15Y 7842   1.247   2.465   3.384  1.0226 -0.7232 -0.4060
   84SOPE  C316 7843   1.301   2.610   3.539 -0.8991 -0.2689 -0.1519
   84SOPE  H16X 7844   1.199   2.653   3.524 -0.2227  1.5033  0.0937
   84SOPE  H16Y 7845   1.377   2.689   3.551  1.1897 -2.1247 -0.6077
   84SOPE  C317 7846   1.290   2.528   3.673 -1.1618  0.1779 -0.1150
   84SOPE  H17X 7847   1.208   2.454   3.677  0.3249 -1.5707 -0.5064
   84SOPE  H17Y 7848   1.259   2.603   3.749 -2.5957 -1.2256  0.7552
   84SOPE  C318 7849   1.424   2.465   3.714 -0.8840  0.2694 -0.3356
   84SOPE  H18X 7850   1.508   2.535   3.694  0.9190 -2.3273 -2.6655
   84SOPE  H18Y 7851   1.455   2.383   3.645  0.3108  0.2386  0.2087
   84SOPE  H18Z 7852   1.415   2.423   3.816 -0.0401 -1.6148 -0.9848
   85SOPE     N 7853   3.480   4.651   1.553 -0.3893  0.2284  0.0154
   85SOPE   HN1 7854   3.438   4.702   1.473  0.5386  0.1793 -0.5173
   85SOPE   HN2 7855   3.582   4.649   1.530 -0.2037 -0.9838  0.8280
   85SOPE   HN3 7856   3.439   4.556   1.561 -1.9862  0.7664 -1.2871
   85SOPE   C12 7857   3.463   4.739   1.679  0.1592  0.9064  0.2448
   85SOPE  H12A 7858   3.543   4.713   1.752  1.7143  3.7477 -0.3175
   85SOPE  H12B 7859   3.367   4.710   1.727  0.0888  2.5894  1.2010
   85SOPE   C11 7860   3.471   4.886   1.640  0.3550 -0.0756  0.6161
   85SOPE  H11A 7861   3.443   4.945   1.730  1.7103  0.3455  0.7866
   85SOPE  H11B 7862   3.386   4.899   1.568 -0.7424 -1.9424  1.5074
   85SOPE     P 7863   3.632   5.078   1.570 -0.1309  0.0547  0.0877
   85SOPE   O13 7864   3.507   5.157   1.572  0.0747  0.0321 -0.6623
   85SOPE   O14 7865   3.729   5.104   1.468  0.1235  0.1587 -0.1352
   85SOPE   O12 7866   3.598   4.923   1.586 -0.4916 -0.2120  0.1309
   85SOPE   O11 7867   3.688   5.105   1.714  0.4337  0.0883  0.3741
   85SOPE    C1 7868   3.782   5.028   1.787  0.5073 -0.0434  0.4722
   85SOPE    HA 7869   3.868   5.090   1.819 -0.9720  1.2645  2.1286
   85SOPE    HB 7870   3.827   4.949   1.723 -1.3894 -1.6004  0.9483
   85SOPE    C2 7871   3.714   4.964   1.907 -0.9110 -0.1003  0.0965
   85SOPE    HS 7872   3.611   4.932   1.880 -0.3539 -1.1042 -0.9412
   85SOPE   O21 7873   3.715   5.066   2.013  0.1401 -0.4886  0.2580
   85SOPE   C21 7874   3.601   5.064   2.087 -0.0513  0.6618 -1.1914
   85SOPE   O22 7875   3.507   4.992   2.069 -0.4570  0.1130  0.0044
   85SOPE   C22 7876   3.618   5.138   2.219  0.4778  0.6082  0.7964
   85SOPE   H2R 7877   3.561   5.233   2.209 -1.4651 -0.5813 -0.2132
   85SOPE   H2S 7878   3.728   5.150   2.229  0.3325  2.8870  0.1613
   85SOPE    C3 7879   3.785   4.835   1.957 -0.0292  0.7076  0.1738
   85SOPE    HX 7880   3.892   4.861   1.970  0.1755  0.7766 -1.4441
   85SOPE    HY 7881   3.783   4.768   1.868 -1.0721  0.9793 -0.0192
   85SOPE   O31 7882   3.719   4.783   2.077 -0.5649  0.0293  0.5748
   85SOPE   C31 7883   3.655   4.671   2.053  0.2381 -0.0736 -0.7413
   85SOPE   O32 7884   3.634   4.609   1.949 -0.5535  0.1191 -0.6622
   85SOPE   C32 7885   3.593   4.619   2.193 -0.0472 -0.4628  0.6691
   85SOPE   H2X 7886   3.511   4.544   2.180  0.5981 -1.0647 -0.0258
   85SOPE   H2Y 7887   3.540   4.705   2.239  0.7621  0.9791 -0.9914
   85SOPE   C23 7888   3.550   5.066   2.341  0.2814 -0.7022 -0.0485
   85SOPE   H3R 7889   3.459   5.009   2.314  0.5492 -1.1863  0.0623
   85SOPE   H3S 7890   3.511   5.153   2.398 -1.0837 -1.3877  0.0921
   85SOPE   C24 7891   3.643   4.975   2.418  0.0479  0.4052  0.3777
   85SOPE   H4R 7892   3.683   4.910   2.337  1.3279  0.3062  1.0605
   85SOPE   H4S 7893   3.734   5.029   2.452  1.1384 -1.0379 -0.1199
   85SOPE   C25 7894   3.564   4.898   2.522  1.0519 -0.6792  0.0471
   85SOPE   H5R 7895   3.480   4.962   2.556  1.4211 -0.5523  0.7422
   85SOPE   H5S 7896   3.521   4.806   2.477  1.8786 -1.1003  0.1008
   85SOPE   C26 7897   3.645   4.856   2.647  0.1072  0.1101 -0.1371
   85SOPE   H6R 7898   3.710   4.774   2.610  0.6016  1.1650 -1.6839
   85SOPE   H6S 7899   3.712   4.939   2.680  0.9693 -1.1319  1.3988
   85SOPE   C27 7900   3.551   4.805   2.760  0.4557  0.2771 -0.1038
   85SOPE   H7R 7901   3.485   4.884   2.800  0.2978  0.6266 -1.0220
   85SOPE   H7S 7902   3.490   4.724   2.713 -1.2666  2.4738 -1.9042
   85SOPE   C28 7903   3.630   4.747   2.878 -1.0836  0.3327  0.1906
   85SOPE   H8R 7904   3.554   4.692   2.938  0.0064 -1.3880  0.0564
   85SOPE   H8S 7905   3.698   4.668   2.839  0.5770  2.1029 -0.6596
   85SOPE   C29 7906   3.714   4.836   2.954 -0.0224 -0.8103 -0.1209
   85SOPE   H91 7907   3.814   4.822   2.910 -0.1785  0.3497 -0.8691
   85SOPE  C210 7908   3.692   4.918   3.064 -0.0212 -0.0577  0.3670
   85SOPE  H101 7909   3.773   4.966   3.121  0.6043  1.2540 -1.5201
   85SOPE  C211 7910   3.553   4.923   3.122  0.3990 -0.4082 -0.4339
   85SOPE  H11R 7911   3.471   4.894   3.052 -1.1185 -2.2920  1.9401
   85SOPE  H11S 7912   3.529   5.026   3.155 -2.0265 -0.8241 -0.7087
   85SOPE  C212 7913   3.535   4.829   3.245  0.0257  0.2515 -0.0720
   85SOPE  H12R 7914   3.533   4.723   3.213  0.6282  0.4541 -0.8228
   85SOPE  H12S 7915   3.434   4.851   3.286  0.5979 -0.7852  2.0316
   85SOPE  C213 7916   3.627   4.848   3.363  0.5799  0.0739  0.5292
   85SOPE  H13R 7917   3.622   4.947   3.414  2.2201 -0.3610  1.6432
   85SOPE  H13S 7918   3.735   4.834   3.338  0.9614  1.4588  1.2665
   85SOPE  C214 7919   3.590   4.739   3.474 -0.5813  0.3391 -0.6070
   85SOPE  H14R 7920   3.668   4.725   3.552 -2.4256  1.6813  1.5813
   85SOPE  H14S 7921   3.580   4.643   3.418  2.9285 -0.2329 -0.5127
   85SOPE  C215 7922   3.464   4.774   3.559 -1.1218 -0.5598 -0.7068
   85SOPE  H15R 7923   3.387   4.833   3.505 -1.7378 -0.8967 -0.2107
   85SOPE  H15S 7924   3.497   4.829   3.650  0.8213 -2.4227 -0.2028
   85SOPE  C216 7925   3.397   4.651   3.634  0.8918 -0.1640 -0.0559
   85SOPE  H16R 7926   3.367   4.682   3.736  0.8241 -0.5149  0.0328
   85SOPE  H16S 7927   3.470   4.567   3.640  1.3258  0.0482 -1.7804
   85SOPE  C217 7928   3.266   4.586   3.562 -0.7491  0.2630 -0.4580
   85SOPE  H17R 7929   3.230   4.502   3.625  0.3291  0.8076  0.9285
   85SOPE  H17S 7930   3.291   4.543   3.463  0.0113  2.3866 -1.2501
   85SOPE  C218 7931   3.150   4.684   3.538 -0.1144  0.2297  0.8521
   85SOPE  H18R 7932   3.112   4.727   3.634  0.7497 -0.1982  1.3982
   85SOPE  H18S 7933   3.065   4.626   3.496  0.3567 -0.0814  0.3255
   85SOPE  H18T 7934   3.182   4.768   3.472 -0.0453  0.5566  1.2960
   85SOPE   C33 7935   3.697   4.549   2.276  0.2142 -0.1948  0.3283
   85SOPE   H3X 7936   3.781   4.615   2.306  0.0275  0.1934 -0.0016
   85SOPE   H3Y 7937   3.737   4.458   2.227 -0.2078 -0.1046 -0.1897
   85SOPE   C34 7938   3.651   4.489   2.415 -0.5486 -0.4608 -0.2604
   85SOPE   H4X 7939   3.571   4.412   2.406 -1.7136  0.4928  1.3043
   85SOPE   H4Y 7940   3.603   4.571   2.472 -0.8107 -1.1716  0.5614
   85SOPE   C35 7941   3.761   4.410   2.493 -0.0008 -0.8372 -0.1963
   85SOPE   H5X 7942   3.828   4.491   2.530 -3.1640  2.6679 -1.4690
   85SOPE   H5Y 7943   3.821   4.349   2.423  1.1719  0.1231 -0.0734
   85SOPE   C36 7944   3.711   4.340   2.618 -0.4654 -0.3396 -0.0191
   85SOPE   H6X 7945   3.694   4.238   2.577  0.6171 -0.9477  1.0012
   85SOPE   H6Y 7946   3.616   4.388   2.650 -0.0834 -0.6006  1.5472
   85SOPE   C37 7947   3.801   4.345   2.743 -0.2632  0.1376 -0.1966
   85SOPE   H7X 7948   3.834   4.451   2.756  0.0291  0.2424 -1.6421
   85SOPE   H7Y 7949   3.888   4.281   2.717  0.8184  1.6874 -0.5691
   85SOPE   C38 7950   3.745   4.296   2.874  0.3835  0.9451 -0.2770
   85SOPE   H8X 7951   3.714   4.189   2.870 -0.5551  1.1896  0.1788
   85SOPE   H8Y 7952   3.653   4.356   2.892 -0.6030 -0.5562 -0.0788
   85SOPE   C39 7953   3.841   4.331   2.995  0.0068  0.3176 -0.2481
   85SOPE   H9X 7954   3.901   4.424   2.982 -0.9111  1.0762  0.8104
   85SOPE   H9Y 7955   3.926   4.260   3.002  1.1708  1.7650  1.1364
   85SOPE  C310 7956   3.756   4.338   3.122  0.3460  0.1121  0.1279
   85SOPE  H10X 7957   3.697   4.244   3.127 -2.5145  1.8451  1.5875
   85SOPE  H10Y 7958   3.680   4.419   3.113  1.4377  1.6771  3.3409
   85SOPE  C311 7959   3.840   4.350   3.253  0.5659  0.0031 -0.0338
   85SOPE  H11X 7960   3.818   4.448   3.300 -0.0799 -0.8913  1.6350
   85SOPE  H11Y 7961   3.945   4.349   3.217  0.7811 -0.6818  0.5887
   85SOPE  C312 7962   3.813   4.240   3.353 -0.4361 -0.1040  0.3805
   85SOPE  H12X 7963   3.860   4.153   3.303  0.9008 -0.4494  2.1602
   85SOPE  H12Y 7964   3.704   4.221   3.362 -0.1984 -2.0284 -0.4117
   85SOPE  C313 7965   3.869   4.276   3.489  0.3037  0.3819  0.3532
   85SOPE  H13X 7966   3.810   4.354   3.542 -0.3889 -0.5888  1.0490
   85SOPE  H13Y 7967   3.971   4.311   3.464  0.2399  0.5058  0.2662
   85SOPE  C314 7968   3.882   4.155   3.589  0.2255  0.1624 -0.5774
   85SOPE  H14X 7969   3.958   4.084   3.549 -0.3233  0.3976 -2.0881
   85SOPE  H14Y 7970   3.781   4.111   3.601 -0.7345  2.2865 -0.3947
   85SOPE  C315 7971   3.928   4.192   3.733 -0.3315 -0.3468 -0.1280
   85SOPE  H15X 7972   3.959   4.105   3.795  2.1998  1.1470  0.8590
   85SOPE  H15Y 7973   3.843   4.241   3.783 -1.1168 -1.2801 -0.5065
   85SOPE  C316 7974   4.051   4.285   3.741 -0.3834  0.6859  0.1703
   85SOPE  H16X 7975   4.030   4.384   3.694 -0.5388 -0.0171 -1.3082
   85SOPE  H16Y 7976   4.124   4.232   3.676  1.3367 -1.1657  3.3663
   85SOPE  C317 7977   4.122   4.295   3.877  0.1566  0.4201  0.4255
   85SOPE  H17X 7978   4.051   4.332   3.954 -1.3102 -0.7546 -0.3179
   85SOPE  H17Y 7979   4.200   4.375   3.877 -0.6772  1.2597  0.9737
   85SOPE  C318 7980   4.176   4.164   3.937 -0.2606  0.0039  0.6841
   85SOPE  H18X 7981   4.248   4.119   3.866 -0.1242  1.8317 -0.3989
   85SOPE  H18Y 7982   4.085   4.104   3.953 -1.6724  1.9822  0.4371
   85SOPE  H18Z 7983   4.226   4.184   4.035  1.9076  0.4224 -0.4443
   86SOPE     N 7984   4.268   6.546   1.467 -0.7725  0.1113 -0.0204
   86SOPE   HN1 7985   4.347   6.496   1.513 -0.8932  1.4582  1.7871
   86SOPE   HN2 7986   4.284   6.545   1.365 -1.3189  2.0292 -0.1606
   86SOPE   HN3 7987   4.270   6.647   1.494  0.0406  1.1372 -3.4237
   86SOPE   C12 7988   4.133   6.472   1.494  0.1407  0.5819  0.7613
   86SOPE  H12A 7989   4.106   6.466   1.602 -2.9853 -0.0156  0.0296
   86SOPE  H12B 7990   4.135   6.370   1.453 -0.0132  0.5413  0.8542
   86SOPE   C11 7991   4.025   6.547   1.426 -0.1129 -0.0236  0.0587
   86SOPE  H11A 7992   3.936   6.483   1.446 -0.1802  0.5139  1.6112
   86SOPE  H11B 7993   4.051   6.552   1.318  0.0652  2.5639  0.1597
   86SOPE     P 7994   3.857   6.740   1.511 -0.2446  0.1416 -0.1035
   86SOPE   O13 7995   3.757   6.664   1.430  0.1321  0.2485 -0.2715
   86SOPE   O14 7996   3.881   6.888   1.479 -0.1671  0.5769 -0.2179
   86SOPE   O12 7997   4.005   6.680   1.483  0.0461  0.6134  0.1258
   86SOPE   O11 7998   3.842   6.719   1.661  0.4934  0.6518 -0.1716
   86SOPE    C1 7999   3.939   6.742   1.765  0.0868  0.4514  0.1949
   86SOPE    HA 8000   3.933   6.848   1.797 -0.1623  0.0188  1.6857
   86SOPE    HB 8001   4.044   6.722   1.736  0.6280  1.3327  1.4570
   86SOPE    C2 8002   3.900   6.651   1.884  0.1787  0.1364  0.2337
   86SOPE    HS 8003   3.976   6.664   1.964 -0.5431 -0.5200  1.0403
   86SOPE   O21 8004   3.906   6.519   1.834 -0.1092  0.0083 -0.3948
   86SOPE   C21 8005   3.910   6.422   1.924 -0.1005 -0.5482 -0.1152
   86SOPE   O22 8006   3.948   6.442   2.039  0.1447 -0.3363 -0.1065
   86SOPE   C22 8007   3.874   6.294   1.857 -0.6331 -0.0013 -0.3433
   86SOPE   H2R 8008   3.868   6.309   1.747 -3.7249  2.1673 -0.0206
   86SOPE   H2S 8009   3.778   6.254   1.896  0.7262 -0.1549  3.2215
   86SOPE    C3 8010   3.763   6.677   1.950  0.4692  0.0970 -0.4222
   86SOPE    HX 8011   3.683   6.655   1.876 -0.9691  3.4772 -0.0671
   86SOPE    HY 8012   3.762   6.788   1.957  0.7804  0.3632 -3.4509
   86SOPE   O31 8013   3.751   6.615   2.079  0.1493  0.3462 -0.2860
   86SOPE   C31 8014   3.821   6.664   2.180 -0.0561  0.4366  0.4850
   86SOPE   O32 8015   3.889   6.765   2.183 -0.4370  0.0846  0.3663
   86SOPE   C32 8016   3.809   6.581   2.301  0.4558  0.5784  0.0591
   86SOPE   H2X 8017   3.889   6.505   2.307  1.0871  1.1617 -0.6682
   86SOPE   H2Y 8018   3.714   6.524   2.293  1.4974 -1.1923 -0.0435
   86SOPE   C23 8019   3.974   6.181   1.892 -0.1383  0.4964 -0.1088
   86SOPE   H3R 8020   3.936   6.085   1.852  2.0179  0.4936 -2.3939
   86SOPE   H3S 8021   3.985   6.152   1.999 -0.0773 -1.6701 -0.6575
   86SOPE   C24 8022   4.116   6.200   1.841 -1.1588  0.2882  0.2575
   86SOPE   H4R 8023   4.107   6.245   1.740 -0.2742  2.4563  1.0858
   86SOPE   H4S 8024   4.177   6.276   1.896 -0.3969 -0.4180  0.4057
   86SOPE   C25 8025   4.190   6.072   1.828  0.0518  0.1942 -0.2250
   86SOPE   H5R 8026   4.137   5.993   1.769 -1.5243 -0.4456  1.9210
   86SOPE   H5S 8027   4.290   6.091   1.783  0.6264  0.7481  1.2530
   86SOPE   C26 8028   4.218   5.998   1.959 -0.3935 -0.2159 -0.0943
   86SOPE   H6R 8029   4.268   6.068   2.028  0.9164 -0.5304 -0.7007
   86SOPE   H6S 8030   4.127   5.963   2.014  0.4970 -1.2803  0.7386
   86SOPE   C27 8031   4.311   5.877   1.943  0.3639 -0.0426 -0.5781
   86SOPE   H7R 8032   4.253   5.810   1.877  1.4958  0.1173 -1.7852
   86SOPE   H7S 8033   4.410   5.904   1.900  1.7317  0.1123  2.4073
   86SOPE   C28 8034   4.343   5.821   2.084  0.8384 -0.1187  0.4178
   86SOPE   H8R 8035   4.244   5.829   2.134  0.7126  0.5095  0.0723
   86SOPE   H8S 8036   4.355   5.710   2.081 -2.2822 -0.5585 -1.6813
   86SOPE   C29 8037   4.445   5.888   2.165  0.7172  0.7497  0.5415
   86SOPE   H91 8038   4.526   5.932   2.105 -1.1577  2.0735 -1.1747
   86SOPE  C210 8039   4.423   5.909   2.293 -0.7863  0.5808 -0.1927
   86SOPE  H101 8040   4.492   5.976   2.347  0.0963 -1.7366  1.7480
   86SOPE  C211 8041   4.330   5.836   2.389  0.7197 -0.0231  0.2338
   86SOPE  H11R 8042   4.260   5.762   2.346  0.7111 -0.4310  0.9361
   86SOPE  H11S 8043   4.259   5.914   2.424  0.5350  0.1198 -0.4490
   86SOPE  C212 8044   4.408   5.757   2.503  0.6823  0.1246  0.3951
   86SOPE  H12R 8045   4.496   5.809   2.545  1.0845  1.1866 -1.6648
   86SOPE  H12S 8046   4.442   5.667   2.449 -1.1622  0.1029 -0.8228
   86SOPE  C213 8047   4.313   5.710   2.618  0.3986  0.4185 -0.0034
   86SOPE  H13R 8048   4.254   5.619   2.593  0.7435 -0.0995  1.0100
   86SOPE  H13S 8049   4.234   5.786   2.634  0.4338  0.1906  1.3743
   86SOPE  C214 8050   4.401   5.678   2.739  0.4728  0.5021 -0.2424
   86SOPE  H14R 8051   4.449   5.774   2.768 -1.4464  1.3633  0.2501
   86SOPE  H14S 8052   4.476   5.599   2.722  0.4492 -0.6084  3.7227
   86SOPE  C215 8053   4.330   5.637   2.865 -0.4289  0.8233 -0.4160
   86SOPE  H15R 8054   4.293   5.532   2.859 -0.3129  0.7374  0.2699
   86SOPE  H15S 8055   4.249   5.711   2.885 -0.5000 -0.3418  5.1087
   86SOPE  C216 8056   4.414   5.648   2.989  0.3791  0.1889 -0.1972
   86SOPE  H16R 8057   4.417   5.748   3.038 -0.0145 -0.5367  1.3860
   86SOPE  H16S 8058   4.512   5.614   2.949 -0.2486 -0.6690 -1.0609
   86SOPE  C217 8059   4.362   5.560   3.109  0.0719 -0.2461 -0.3048
   86SOPE  H17R 8060   4.445   5.527   3.175 -0.5788  0.9682  1.1869
   86SOPE  H17S 8061   4.318   5.464   3.076 -0.2466 -1.1642  2.5522
   86SOPE  C218 8062   4.257   5.638   3.197  0.0703 -0.1689 -0.3033
   86SOPE  H18R 8063   4.248   5.584   3.294  0.0108 -1.4257 -0.9829
   86SOPE  H18S 8064   4.162   5.631   3.139  0.0904 -1.2518 -0.2266
   86SOPE  H18T 8065   4.283   5.745   3.209 -2.7685  0.4668  1.0141
   86SOPE   C33 8066   3.819   6.661   2.430 -0.0785  0.1778 -1.0647
   86SOPE   H3X 8067   3.735   6.727   2.462  0.8348  0.3307  1.1993
   86SOPE   H3Y 8068   3.902   6.734   2.422 -0.6858  0.7717 -2.4615
   86SOPE   C34 8069   3.821   6.566   2.551 -0.7435  0.1554  0.4427
   86SOPE   H4X 8070   3.905   6.495   2.538 -0.7762 -0.1283  1.6173
   86SOPE   H4Y 8071   3.731   6.501   2.554  0.5769 -1.7628 -0.0203
   86SOPE   C35 8072   3.856   6.632   2.688  0.0293  0.1968  0.4802
   86SOPE   H5X 8073   3.781   6.713   2.703  0.7453  1.1690 -0.9677
   86SOPE   H5Y 8074   3.960   6.669   2.691  0.3530 -0.5397 -0.9168
   86SOPE   C36 8075   3.839   6.539   2.812 -0.2446 -0.0066 -0.6793
   86SOPE   H6X 8076   3.912   6.455   2.809  0.1779  0.3139  0.2997
   86SOPE   H6Y 8077   3.739   6.490   2.817 -1.6071  2.5552 -1.1853
   86SOPE   C37 8078   3.872   6.613   2.940 -0.5293  0.7958 -0.2485
   86SOPE   H7X 8079   3.787   6.682   2.954  0.1231  1.8240 -1.1914
   86SOPE   H7Y 8080   3.964   6.672   2.916  0.9887  0.6056  4.1809
   86SOPE   C38 8081   3.906   6.528   3.068  0.1930  0.6108  0.4414
   86SOPE   H8X 8082   3.964   6.438   3.035  0.9027 -0.2872  3.7621
   86SOPE   H8Y 8083   3.811   6.496   3.114  0.5131 -1.6696 -0.3680
   86SOPE   C39 8084   3.974   6.607   3.173  1.1975  0.1213 -0.3786
   86SOPE   H9X 8085   3.910   6.686   3.217  1.0341  0.0406 -0.4728
   86SOPE   H9Y 8086   4.073   6.641   3.135  0.2186  3.1239 -0.5051
   86SOPE  C310 8087   4.002   6.502   3.288  0.3263 -0.2895  0.0167
   86SOPE  H10X 8088   4.028   6.400   3.252  1.1282  0.1394 -0.6671
   86SOPE  H10Y 8089   3.904   6.494   3.339  0.3154  0.8465  0.2173
   86SOPE  C311 8090   4.111   6.544   3.387  0.2091 -0.2957  0.0507
   86SOPE  H11X 8091   4.204   6.537   3.326 -0.9320 -1.7783 -1.6015
   86SOPE  H11Y 8092   4.115   6.469   3.469  1.1729 -0.4113 -0.0855
   86SOPE  C312 8093   4.085   6.686   3.457  0.3350 -0.3348  0.0539
   86SOPE  H12X 8094   3.976   6.691   3.480  0.0607 -0.6274 -1.0908
   86SOPE  H12Y 8095   4.109   6.762   3.380  0.9756 -0.8822 -0.3005
   86SOPE  C313 8096   4.154   6.701   3.594 -0.0300  0.1042 -0.1524
   86SOPE  H13X 8097   4.265   6.704   3.591 -0.0567  0.9248 -0.5322
   86SOPE  H13Y 8098   4.149   6.604   3.648  2.7628  0.8232  1.5879
   86SOPE  C314 8099   4.092   6.815   3.681 -0.3202  0.0235  0.3771
   86SOPE  H14X 8100   3.982   6.798   3.679 -0.3714  0.2449  1.0759
   86SOPE  H14Y 8101   4.107   6.920   3.647  0.3999 -0.4743 -0.8964
   86SOPE  C315 8102   4.160   6.816   3.818  0.5149  0.7523 -0.7566
   86SOPE  H15X 8103   4.256   6.761   3.813 -0.3358 -0.7670 -1.0286
   86SOPE  H15Y 8104   4.088   6.752   3.874 -0.1630 -0.2201 -2.6716
   86SOPE  C316 8105   4.176   6.951   3.893  0.7443 -0.1171 -0.5762
   86SOPE  H16X 8106   4.234   7.022   3.831 -1.3245 -0.5578 -3.1770
   86SOPE  H16Y 8107   4.209   6.944   3.999 -1.7535 -1.9748  0.1745
   86SOPE  C317 8108   4.041   7.021   3.912  0.0662 -0.7042  0.1242
   86SOPE  H17X 8109   3.980   6.952   3.974 -1.3068  0.0923 -0.2923
   86SOPE  H17Y 8110   3.993   7.032   3.812 -0.0940 -1.4192  0.1154
   86SOPE  C318 8111   4.064   7.152   3.993 -0.3383  0.0457  0.1572
   86SOPE  H18X 8112   4.135   7.220   3.940  0.5686 -0.0680  1.1884
   86SOPE  H18Y 8113   4.110   7.135   4.093 -1.0117  0.3963  0.5354
   86SOPE  H18Z 8114   3.968   7.209   3.992  0.3547  1.5665 -4.2984
   87SOPE     N 8115   5.535   4.607   1.650 -0.0809 -0.9785  0.1826
   87SOPE   HN1 8116   5.612   4.568   1.708  0.9718 -0.7812 -1.0375
   87SOPE   HN2 8117   5.442   4.580   1.687 -0.7656  0.8446 -0.1292
   87SOPE   HN3 8118   5.536   4.563   1.555  1.5979 -1.7559  0.5144
   87SOPE   C12 8119   5.566   4.755   1.632 -0.5297 -0.8471  0.1986
   87SOPE  H12A 8120   5.650   4.748   1.560 -0.0918 -3.6726  0.8433
   87SOPE  H12B 8121   5.608   4.796   1.727 -2.2242  4.4622 -1.0199
   87SOPE   C11 8122   5.435   4.824   1.592  0.8236 -0.5533 -0.1515
   87SOPE  H11A 8123   5.408   4.794   1.488 -1.1010  0.2835  0.0622
   87SOPE  H11B 8124   5.439   4.935   1.591 -0.4368 -0.4896 -0.3740
   87SOPE     P 8125   5.177   4.799   1.639 -0.2280  0.1607 -0.2014
   87SOPE   O13 8126   5.100   4.678   1.668 -0.0902  0.8551  0.2493
   87SOPE   O14 8127   5.178   4.857   1.502  0.7448 -0.8026 -0.1232
   87SOPE   O12 8128   5.329   4.784   1.689  0.3400  0.4905  0.2201
   87SOPE   O11 8129   5.119   4.913   1.737  0.1061 -0.6344  0.1418
   87SOPE    C1 8130   5.210   5.021   1.785  0.4739 -0.3420  0.2686
   87SOPE    HA 8131   5.143   5.108   1.803 -0.4990 -0.9844 -0.1613
   87SOPE    HB 8132   5.284   5.058   1.710  0.8081 -0.2677  0.6336
   87SOPE    C2 8133   5.278   4.983   1.916  0.1970 -0.3819 -0.7714
   87SOPE    HS 8134   5.353   4.902   1.900  1.3821 -0.0604  2.3921
   87SOPE   O21 8135   5.181   4.948   2.020 -0.0751 -0.0635  0.1795
   87SOPE   C21 8136   5.197   4.831   2.068 -0.4839 -0.0920 -0.3118
   87SOPE   O22 8137   5.265   4.742   2.023 -0.1762 -0.3723 -0.1715
   87SOPE   C22 8138   5.133   4.814   2.210 -0.0037 -0.4144 -0.5302
   87SOPE   H2R 8139   5.115   4.708   2.234 -1.6269  0.2853  1.6609
   87SOPE   H2S 8140   5.040   4.875   2.219 -0.2492  0.0399 -4.3595
   87SOPE    C3 8141   5.354   5.112   1.966 -0.6860  0.0868 -0.4466
   87SOPE    HX 8142   5.277   5.185   1.997 -0.8121 -0.0920 -0.3373
   87SOPE    HY 8143   5.414   5.150   1.881  1.9998 -0.2140  1.1720
   87SOPE   O31 8144   5.432   5.077   2.091 -0.3201  0.2848  0.0527
   87SOPE   C31 8145   5.553   5.136   2.095 -0.2074  0.8545  0.4987
   87SOPE   O32 8146   5.603   5.208   2.011  0.0045  0.2022 -0.1449
   87SOPE   C32 8147   5.618   5.115   2.230  0.0777  0.2079  0.0096
   87SOPE   H2X 8148   5.723   5.149   2.221 -0.3252  1.4195 -0.2647
   87SOPE   H2Y 8149   5.618   5.006   2.251  1.9677  0.4246  1.3917
   87SOPE   C23 8150   5.227   4.862   2.331  0.3710 -0.0997  1.0142
   87SOPE   H3R 8151   5.268   4.962   2.304  1.8840 -1.1757 -1.0098
   87SOPE   H3S 8152   5.317   4.798   2.342 -0.4276 -1.3473  0.4923
   87SOPE   C24 8153   5.154   4.842   2.459  0.2984 -1.0191 -0.9295
   87SOPE   H4R 8154   5.050   4.879   2.447  1.3595  1.6538 -3.1474
   87SOPE   H4S 8155   5.159   4.733   2.478  0.6837 -0.5515  2.0613
   87SOPE   C25 8156   5.229   4.912   2.578 -0.7526 -0.6948  0.4576
   87SOPE   H5R 8157   5.320   4.851   2.597 -0.0582  0.8388  2.3202
   87SOPE   H5S 8158   5.265   5.013   2.548  0.7983 -1.8244 -1.7488
   87SOPE   C26 8159   5.144   4.915   2.706  0.1747  0.3287 -0.4750
   87SOPE   H6R 8160   5.049   4.972   2.692  1.3410  2.6777  0.5552
   87SOPE   H6S 8161   5.124   4.814   2.746 -0.4101  0.8983  0.7149
   87SOPE   C27 8162   5.232   4.981   2.817  0.4696  0.4716 -0.0683
   87SOPE   H7R 8163   5.338   4.950   2.810  0.2685 -0.1526 -0.4393
   87SOPE   H7S 8164   5.241   5.092   2.807 -1.3139  0.9811  2.7081
   87SOPE   C28 8165   5.177   4.934   2.956 -0.9912  0.4552 -0.6860
   87SOPE   H8R 8166   5.143   4.828   2.946 -0.4447  0.2601 -0.5292
   87SOPE   H8S 8167   5.270   4.929   3.018 -0.4620 -1.5172 -1.5637
   87SOPE   C29 8168   5.072   5.016   3.022  0.9763 -0.0846  0.7865
   87SOPE   H91 8169   4.982   5.032   2.960  1.1855  1.0862  0.7672
   87SOPE  C210 8170   5.078   5.084   3.132 -0.0797  0.1696  0.2931
   87SOPE  H101 8171   4.989   5.141   3.163  1.1789  2.6740 -0.4666
   87SOPE  C211 8172   5.185   5.088   3.238  0.3461 -0.1171 -0.4308
   87SOPE  H11R 8173   5.208   5.191   3.271 -0.2365 -0.7441  2.1281
   87SOPE  H11S 8174   5.286   5.047   3.217  0.6672  0.4536  0.0096
   87SOPE  C212 8175   5.126   5.004   3.350  0.1069  0.3273 -0.3813
   87SOPE  H12R 8176   5.113   4.898   3.320 -1.4592 -0.3985  2.5317
   87SOPE  H12S 8177   5.023   5.035   3.377  0.5919  2.2281 -0.5758
   87SOPE  C213 8178   5.196   5.009   3.486 -0.3612  0.3564  0.1542
   87SOPE  H13R 8179   5.298   4.964   3.481 -0.5971 -0.0874 -0.8550
   87SOPE  H13S 8180   5.132   4.953   3.556  1.2271 -2.0456 -0.2093
   87SOPE  C214 8181   5.237   5.152   3.538 -0.1229 -0.0553  0.1114
   87SOPE  H14R 8182   5.149   5.218   3.525  0.4518  0.6183 -0.4315
   87SOPE  H14S 8183   5.315   5.194   3.471 -1.2122  1.8486 -0.0413
   87SOPE  C215 8184   5.289   5.158   3.686  0.8153  0.3155  0.2352
   87SOPE  H15R 8185   5.372   5.085   3.696 -1.7510 -3.3911 -2.4611
   87SOPE  H15S 8186   5.202   5.129   3.749  2.1044  0.7665  2.2839
   87SOPE  C216 8187   5.351   5.295   3.722 -0.4100 -0.6863  0.4505
   87SOPE  H16R 8188   5.413   5.280   3.813  2.0423  0.3045 -0.9618
   87SOPE  H16S 8189   5.274   5.368   3.757 -2.1542 -2.6933  1.0674
   87SOPE  C217 8190   5.453   5.361   3.622  0.4792 -0.0421 -0.5340
   87SOPE  H17R 8191   5.413   5.380   3.520 -0.1110  0.1543 -0.2711
   87SOPE  H17S 8192   5.529   5.282   3.604  0.4750 -0.7927  2.2949
   87SOPE  C218 8193   5.505   5.495   3.685 -0.0398  0.2463 -0.1792
   87SOPE  H18R 8194   5.535   5.485   3.791  0.6915  1.3527 -0.2698
   87SOPE  H18S 8195   5.425   5.568   3.661 -2.0477 -1.8166 -0.1367
   87SOPE  H18T 8196   5.595   5.526   3.628 -0.2595  1.5730  0.1696
   87SOPE   C33 8197   5.547   5.185   2.346  1.2084  0.3265  0.1189
   87SOPE   H3X 8198   5.445   5.142   2.362  0.9052  0.7426 -0.6431
   87SOPE   H3Y 8199   5.532   5.291   2.319 -1.7837 -0.0645 -0.1079
   87SOPE   C34 8200   5.624   5.159   2.476  0.1726  0.4052 -0.3991
   87SOPE   H4X 8201   5.721   5.213   2.475  0.8457 -0.7609  0.4279
   87SOPE   H4Y 8202   5.649   5.052   2.493 -0.8168  0.6298  3.5980
   87SOPE   C35 8203   5.547   5.210   2.602 -0.0272 -0.3946  0.3824
   87SOPE   H5X 8204   5.447   5.162   2.587 -0.4826  1.0719 -1.7485
   87SOPE   H5Y 8205   5.523   5.318   2.600 -1.6719 -0.7315 -0.2873
   87SOPE   C36 8206   5.622   5.171   2.733 -0.2667 -0.1644 -0.0927
   87SOPE   H6X 8207   5.727   5.208   2.730  0.6215 -2.5423 -1.0194
   87SOPE   H6Y 8208   5.636   5.061   2.723  0.4086 -0.1544  0.6547
   87SOPE   C37 8209   5.552   5.215   2.857 -0.1214  0.5993  1.0871
   87SOPE   H7X 8210   5.452   5.168   2.848  0.9761 -1.3697 -3.3824
   87SOPE   H7Y 8211   5.530   5.324   2.856 -0.4487  0.5678  2.4928
   87SOPE   C38 8212   5.609   5.161   2.986  0.6396  0.3828  0.0971
   87SOPE   H8X 8213   5.559   5.210   3.072  0.9448 -0.5309  0.8160
   87SOPE   H8Y 8214   5.714   5.198   2.986  0.4780  0.9112 -1.0540
   87SOPE   C39 8215   5.619   5.014   3.002  0.0931  0.4022  0.0650
   87SOPE   H9X 8216   5.714   4.983   2.955 -0.7308 -0.1719 -1.2652
   87SOPE   H9Y 8217   5.534   4.974   2.943 -1.0866  2.4179  0.2918
   87SOPE  C310 8218   5.620   4.971   3.143  0.0455 -0.4483 -0.4342
   87SOPE  H10X 8219   5.531   5.019   3.189 -1.0735 -1.0355 -1.9350
   87SOPE  H10Y 8220   5.714   4.999   3.197  0.2145 -0.8599 -0.5171
   87SOPE  C311 8221   5.602   4.829   3.159 -0.1137  0.4201 -0.0940
   87SOPE  H11X 8222   5.692   4.784   3.112 -0.9273 -1.0979 -0.2454
   87SOPE  H11Y 8223   5.519   4.789   3.098 -0.1781  0.7372 -0.2171
   87SOPE  C312 8224   5.588   4.775   3.307  0.0491  0.1347  0.4509
   87SOPE  H12X 8225   5.604   4.665   3.311  1.8360  0.3767  0.6638
   87SOPE  H12Y 8226   5.484   4.787   3.344 -0.4954 -1.0590 -0.6329
   87SOPE  C313 8227   5.693   4.821   3.409  0.1252 -0.5784  0.1284
   87SOPE  H13X 8228   5.676   4.928   3.432 -1.6137 -0.6879 -0.4854
   87SOPE  H13Y 8229   5.793   4.799   3.364 -0.5602 -1.7463 -0.9161
   87SOPE  C314 8230   5.692   4.743   3.541  0.6840 -0.4916 -0.1264
   87SOPE  H14X 8231   5.779   4.782   3.597  0.0375  0.3049  0.3446
   87SOPE  H14Y 8232   5.717   4.639   3.511  0.0458 -0.4320 -0.9196
   87SOPE  C315 8233   5.562   4.744   3.612  0.3265  0.7771 -0.4926
   87SOPE  H15X 8234   5.490   4.683   3.552 -0.5389  1.6631 -0.3915
   87SOPE  H15Y 8235   5.527   4.848   3.624  0.5728  0.6395  1.8274
   87SOPE  C316 8236   5.553   4.688   3.756  0.6597 -0.0454 -0.6996
   87SOPE  H16X 8237   5.630   4.740   3.817 -0.8828 -0.8855  2.2097
   87SOPE  H16Y 8238   5.568   4.579   3.746 -1.3991 -0.4908  0.3189
   87SOPE  C317 8239   5.413   4.713   3.825  0.3598  0.5986  0.5199
   87SOPE  H17X 8240   5.380   4.818   3.814 -2.8988 -0.4976 -1.3086
   87SOPE  H17Y 8241   5.423   4.678   3.930  1.6555 -1.2821 -0.1623
   87SOPE  C318 8242   5.316   4.612   3.762  0.1721  0.3459 -0.6199
   87SOPE  H18X 8243   5.370   4.515   3.768 -1.9784 -0.9073 -0.7436
   87SOPE  H18Y 8244   5.311   4.628   3.652 -0.6604 -0.8432 -0.7691
   87SOPE  H18Z 8245   5.214   4.608   3.804  0.9138 -1.1661  1.1947
   88SOPE     N 8246   5.894   6.623   1.523  0.4582 -0.0559 -0.7923
   88SOPE   HN1 8247   5.947   6.552   1.467 -1.7768 -1.3110 -1.4466
   88SOPE   HN2 8248   5.816   6.648   1.459  1.8695 -0.6942 -2.8573
   88SOPE   HN3 8249   5.951   6.709   1.535 -1.9890  1.4739  0.5451
   88SOPE   C12 8250   5.840   6.571   1.651 -0.0264  0.5073  0.6159
   88SOPE  H12A 8251   5.922   6.552   1.724  0.8346 -1.4768 -0.7585
   88SOPE  H12B 8252   5.794   6.475   1.618  0.3821  0.9197 -1.2516
   88SOPE   C11 8253   5.734   6.666   1.707 -0.2706 -0.0002  0.3657
   88SOPE  H11A 8254   5.776   6.762   1.742  0.5836 -0.1431 -0.2434
   88SOPE  H11B 8255   5.689   6.630   1.802 -2.0552  0.3105 -0.3356
   88SOPE     P 8256   5.528   6.809   1.644 -0.2411 -0.0306 -0.0935
   88SOPE   O13 8257   5.433   6.789   1.536  0.3759 -0.2721 -0.1878
   88SOPE   O14 8258   5.608   6.932   1.640  0.0379  0.3393  0.1173
   88SOPE   O12 8259   5.623   6.681   1.622 -0.9223  0.5549 -0.1704
   88SOPE   O11 8260   5.458   6.788   1.779  0.3780  0.5849 -0.5213
   88SOPE    C1 8261   5.415   6.660   1.825  0.2869 -0.0715  0.1745
   88SOPE    HA 8262   5.495   6.584   1.818  0.3738  0.1612 -5.3255
   88SOPE    HB 8263   5.327   6.620   1.769 -0.9906  0.9428  1.3805
   88SOPE    C2 8264   5.369   6.675   1.978  0.4561  0.0674  0.9699
   88SOPE    HS 8265   5.307   6.767   1.987 -0.1361 -0.1807 -0.3954
   88SOPE   O21 8266   5.490   6.689   2.051 -0.4199 -0.1067  0.2090
   88SOPE   C21 8267   5.537   6.810   2.060  0.4672 -0.3741 -0.1623
   88SOPE   O22 8268   5.488   6.918   2.028  0.0845 -0.3775 -0.0740
   88SOPE   C22 8269   5.681   6.798   2.101 -0.3836 -0.1503  0.2187
   88SOPE   H2R 8270   5.731   6.896   2.117  0.0351 -0.3277  0.0223
   88SOPE   H2S 8271   5.745   6.764   2.016 -0.8656  1.2409 -0.7388
   88SOPE    C3 8272   5.296   6.547   2.029 -0.6439  0.1000  0.3387
   88SOPE    HX 8273   5.371   6.466   2.014 -0.7061 -0.2716  1.8339
   88SOPE    HY 8274   5.208   6.522   1.966 -1.0304  0.5872  0.6703
   88SOPE   O31 8275   5.261   6.557   2.170 -0.3150  0.2412 -0.1717
   88SOPE   C31 8276   5.142   6.601   2.190  0.5173 -1.1386  0.6417
   88SOPE   O32 8277   5.052   6.614   2.102 -0.7663 -0.1734 -0.0320
   88SOPE   C32 8278   5.109   6.625   2.335 -0.3541 -0.1560 -0.5068
   88SOPE   H2X 8279   5.205   6.604   2.387  0.8740  2.7805 -1.4092
   88SOPE   H2Y 8280   5.022   6.565   2.371  0.1275  0.0985  1.1720
   88SOPE   C23 8281   5.709   6.710   2.218  0.3865  0.9393 -0.3411
   88SOPE   H3R 8282   5.676   6.604   2.214 -1.0361  1.3293  0.4975
   88SOPE   H3S 8283   5.664   6.743   2.314 -2.0871  0.5325 -1.2883
   88SOPE   C24 8284   5.862   6.712   2.244 -0.9071  0.0733  0.2104
   88SOPE   H4R 8285   5.909   6.636   2.177 -1.3087 -0.7540  0.8478
   88SOPE   H4S 8286   5.902   6.813   2.220  0.5006 -0.7140 -0.9302
   88SOPE   C25 8287   5.899   6.672   2.384 -0.6786  0.1821 -0.3722
   88SOPE   H5R 8288   5.834   6.585   2.405 -1.4484 -0.0311 -3.2288
   88SOPE   H5S 8289   6.006   6.642   2.388 -0.0639  2.3477  1.0310
   88SOPE   C26 8290   5.876   6.776   2.498  0.1519  0.0395 -0.1571
   88SOPE   H6R 8291   5.920   6.874   2.469  2.1486 -0.6636  0.3496
   88SOPE   H6S 8292   5.765   6.779   2.509  0.0606  1.5580 -1.2083
   88SOPE   C27 8293   5.946   6.742   2.630 -0.5868  0.0856 -0.1589
   88SOPE   H7R 8294   5.929   6.640   2.670 -0.4312 -0.6709 -1.9438
   88SOPE   H7S 8295   6.056   6.747   2.622 -0.3506 -1.6097  1.4257
   88SOPE   C28 8296   5.911   6.843   2.739  0.6116  0.1080 -0.2269
   88SOPE   H8R 8297   5.957   6.938   2.704 -2.7178  2.5168  1.4474
   88SOPE   H8S 8298   5.802   6.859   2.754 -0.0753 -0.9861 -3.3889
   88SOPE   C29 8299   5.973   6.805   2.872 -0.2669 -0.5938  0.8866
   88SOPE   H91 8300   6.080   6.778   2.866 -0.4663 -1.2199 -0.1429
   88SOPE  C210 8301   5.916   6.811   2.991  0.1605  0.9417  0.2103
   88SOPE  H101 8302   5.978   6.779   3.075 -2.0560  0.3032  1.6937
   88SOPE  C211 8303   5.773   6.838   3.022 -0.8300 -0.0482 -0.0557
   88SOPE  H11R 8304   5.698   6.773   2.973 -0.7749 -1.5406  1.7497
   88SOPE  H11S 8305   5.754   6.942   2.987 -1.6395 -0.0664  0.2991
   88SOPE  C212 8306   5.741   6.834   3.175  0.1452  0.4046  0.2361
   88SOPE  H12R 8307   5.791   6.747   3.222  0.6652  0.7155  0.2674
   88SOPE  H12S 8308   5.630   6.827   3.183 -0.0230  1.6399 -0.6126
   88SOPE  C213 8309   5.771   6.969   3.247  0.0853 -0.2579 -0.4967
   88SOPE  H13R 8310   5.780   7.046   3.168 -0.2098 -0.2470 -0.5226
   88SOPE  H13S 8311   5.871   6.980   3.293 -0.1722 -0.0915  0.0377
   88SOPE  C214 8312   5.667   7.013   3.356 -0.1875 -0.6015  0.4131
   88SOPE  H14R 8313   5.569   6.991   3.308  0.6382 -1.0675 -1.1441
   88SOPE  H14S 8314   5.675   7.124   3.359 -1.5999 -0.3772 -1.6874
   88SOPE  C215 8315   5.701   6.951   3.492 -0.3196  0.3197 -0.6043
   88SOPE  H15R 8316   5.805   6.975   3.522 -0.3021 -1.3472  0.7754
   88SOPE  H15S 8317   5.692   6.841   3.490 -0.3608  0.3089 -3.0145
   88SOPE  C216 8318   5.611   6.991   3.605  0.7148  0.3042 -0.3731
   88SOPE  H16R 8319   5.516   7.026   3.560  2.2191  2.5010 -2.0509
   88SOPE  H16S 8320   5.652   7.072   3.668  2.8910 -0.7902 -0.2908
   88SOPE  C217 8321   5.587   6.871   3.704  0.2831 -0.0885  0.0679
   88SOPE  H17R 8322   5.551   6.786   3.643  0.1190  0.2020 -0.2367
   88SOPE  H17S 8323   5.503   6.903   3.770  1.0913 -0.9576  1.5910
   88SOPE  C218 8324   5.695   6.814   3.793 -0.0252 -0.4595 -0.4668
   88SOPE  H18R 8325   5.769   6.750   3.741  0.3098  0.1071 -0.6998
   88SOPE  H18S 8326   5.660   6.758   3.882  1.1615  0.8147  0.8788
   88SOPE  H18T 8327   5.735   6.906   3.842 -1.9145 -0.9555  2.2050
   88SOPE   C33 8328   5.075   6.778   2.365  0.1162  0.4290 -0.0170
   88SOPE   H3X 8329   5.034   6.793   2.468 -1.2009  0.8132 -0.5802
   88SOPE   H3Y 8330   4.988   6.804   2.302 -1.0541 -1.9396  0.5137
   88SOPE   C34 8331   5.193   6.867   2.332  0.1835 -0.2200 -0.2055
   88SOPE   H4X 8332   5.172   6.976   2.343  0.3583  0.1048 -2.5293
   88SOPE   H4Y 8333   5.224   6.867   2.225  1.2082 -1.3385  0.0622
   88SOPE   C35 8334   5.324   6.835   2.409  0.7433  0.1501  0.3659
   88SOPE   H5X 8335   5.374   6.750   2.359 -0.2270 -0.0744 -0.2472
   88SOPE   H5Y 8336   5.291   6.796   2.507 -1.1858  0.8031  0.0118
   88SOPE   C36 8337   5.428   6.946   2.430  0.0644  0.5765  0.0758
   88SOPE   H6X 8338   5.453   6.983   2.328  0.8363 -1.7067 -0.6454
   88SOPE   H6Y 8339   5.518   6.904   2.481 -0.9722 -1.1123  0.6032
   88SOPE   C37 8340   5.379   7.060   2.523  0.5550  0.2813 -0.4896
   88SOPE   H7X 8341   5.293   7.101   2.465  1.1852  2.3871 -0.0196
   88SOPE   H7Y 8342   5.456   7.140   2.529 -0.0612  1.0060 -1.8435
   88SOPE   C38 8343   5.303   7.030   2.651 -1.2205  0.6149 -0.4698
   88SOPE   H8X 8344   5.204   6.981   2.642 -1.1306  0.5285 -1.0124
   88SOPE   H8Y 8345   5.284   7.138   2.672 -1.0279  0.8959 -1.6637
   88SOPE   C39 8346   5.384   6.941   2.750 -0.4048 -0.1398  0.2384
   88SOPE   H9X 8347   5.489   6.974   2.741  0.6408 -2.3170  2.9841
   88SOPE   H9Y 8348   5.368   6.835   2.721 -1.7490  0.1037  0.0084
   88SOPE  C310 8349   5.334   6.957   2.899 -0.2775  0.1098  0.1251
   88SOPE  H10X 8350   5.303   7.064   2.902 -1.8354 -0.2288 -1.8514
   88SOPE  H10Y 8351   5.423   6.938   2.963 -0.8092 -2.6490  0.1773
   88SOPE  C311 8352   5.215   6.878   2.946 -0.4138 -0.1316 -0.0205
   88SOPE  H11X 8353   5.232   6.770   2.926 -0.5641 -0.7087  2.6115
   88SOPE  H11Y 8354   5.119   6.895   2.892 -0.3481 -1.6181 -0.6710
   88SOPE  C312 8355   5.196   6.887   3.101  0.3832  0.0369 -0.3982
   88SOPE  H12X 8356   5.300   6.873   3.138  1.0233 -1.8882 -2.6720
   88SOPE  H12Y 8357   5.147   6.798   3.146  0.7546 -0.2632 -0.5706
   88SOPE  C313 8358   5.119   7.011   3.148 -0.2427  0.8887 -0.3025
   88SOPE  H13X 8359   5.008   6.998   3.142 -0.0853 -0.4259 -0.6550
   88SOPE  H13Y 8360   5.140   7.106   3.095 -4.3582  1.6173 -0.9720
   88SOPE  C314 8361   5.163   7.063   3.292 -0.9652 -0.7988 -0.1190
   88SOPE  H14X 8362   5.092   7.144   3.322  0.0255 -0.0847  0.3457
   88SOPE  H14Y 8363   5.261   7.113   3.279 -0.3171 -1.7388  0.9252
   88SOPE  C315 8364   5.180   6.959   3.399 -0.2754  0.6119  0.5066
   88SOPE  H15X 8365   5.200   7.008   3.496  0.1718 -0.1137  0.7836
   88SOPE  H15Y 8366   5.267   6.892   3.386  0.8126  2.1399 -0.4822
   88SOPE  C316 8367   5.047   6.869   3.422  0.1326  0.0726  0.6996
   88SOPE  H16X 8368   5.012   6.810   3.334  0.7308  1.8048 -0.7645
   88SOPE  H16Y 8369   4.967   6.945   3.438 -1.2705 -1.1934 -0.0179
   88SOPE  C317 8370   5.063   6.776   3.543  0.3671 -0.0693  0.2094
   88SOPE  H17X 8371   5.118   6.835   3.619  1.0650  1.6884 -1.5872
   88SOPE  H17Y 8372   5.129   6.692   3.512 -0.8687 -1.4296  1.1067
   88SOPE  C318 8373   4.930   6.714   3.591  0.4216 -0.3216 -0.6717
   88SOPE  H18X 8374   4.863   6.794   3.629  1.5443 -0.8093  2.7715
   88SOPE  H18Y 8375   4.940   6.655   3.686 -1.9353 -0.5980 -0.5439
   88SOPE  H18Z 8376   4.870   6.654   3.519 -2.0404 -0.3551  1.2600
   89SAPC     N 8377   3.790   6.537   6.250 -1.2347  0.0109 -0.3708
   89SAPC   C12 8378   3.785   6.648   6.148  0.0182  0.4107 -0.3134
   89SAPC  H12A 8379   3.680   6.668   6.133 -0.1789  0.0139  0.5105
   89SAPC  H12B 8380   3.833   6.600   6.064 -0.7670  0.6904 -0.9374
   89SAPC   C13 8381   3.693   6.435   6.218  1.0057  0.8899  0.0602
   89SAPC  H13A 8382   3.594   6.477   6.221  1.4380  2.1756 -1.7336
   89SAPC  H13B 8383   3.717   6.398   6.119  0.0879 -0.5986  0.3574
   89SAPC  H13C 8384   3.698   6.351   6.286  1.7009  0.5049 -0.4453
   89SAPC   C14 8385   3.929   6.482   6.261  0.4934  0.3609 -0.2414
   89SAPC  H14A 8386   3.956   6.421   6.176  0.5929 -0.0485  0.0807
   89SAPC  H14B 8387   3.995   6.567   6.271 -0.0628  1.0139 -1.8433
   89SAPC  H14C 8388   3.936   6.411   6.342  2.0258  0.0325 -0.6366
   89SAPC   C15 8389   3.753   6.596   6.384  0.4731  0.1264  0.1437
   89SAPC  H15A 8390   3.661   6.652   6.381 -0.8889 -2.0463 -1.3113
   89SAPC  H15B 8391   3.740   6.533   6.472 -0.8920  1.0958  0.6651
   89SAPC  H15C 8392   3.824   6.672   6.413 -1.3717  1.1867  2.1545
   89SAPC   C11 8393   3.855   6.785   6.175  0.0552 -0.6535 -0.4528
   89SAPC  H11A 8394   3.792   6.842   6.247 -0.1907  0.5869 -1.6192
   89SAPC  H11B 8395   3.851   6.839   6.078 -1.7591  0.5036  0.2168
   89SAPC     P 8396   4.082   6.873   6.279 -0.0970 -0.1414  0.0239
   89SAPC   O13 8397   4.003   6.960   6.368 -0.0144  0.2686 -0.3168
   89SAPC   O14 8398   4.201   6.808   6.337 -0.3194 -0.3323  0.2833
   89SAPC   O12 8399   3.991   6.763   6.216 -0.5253 -0.0049  0.5021
   89SAPC   O11 8400   4.128   6.955   6.156 -0.0237  0.0773 -0.2883
   89SAPC    C1 8401   4.225   6.904   6.061  0.5347 -0.5712  0.4000
   89SAPC    HA 8402   4.275   6.810   6.092  1.5708 -0.3192 -0.4419
   89SAPC    HB 8403   4.183   6.889   5.960  1.6143  1.2720 -0.3715
   89SAPC    C2 8404   4.336   7.010   6.049  1.0358 -0.3020 -0.3048
   89SAPC    HS 8405   4.395   7.006   6.143  0.4899 -0.6076  0.0377
   89SAPC   O21 8406   4.278   7.140   6.023  0.2317  0.2594 -0.1193
   89SAPC   C21 8407   4.269   7.220   6.131 -0.4680  0.4366  0.2630
   89SAPC   O22 8408   4.301   7.182   6.243 -0.6894  0.3239 -0.1529
   89SAPC   C22 8409   4.240   7.362   6.079 -0.1174  1.0928 -0.2822
   89SAPC   H2R 8410   4.172   7.412   6.151  1.1172  1.9272  0.3527
   89SAPC   H2S 8411   4.336   7.418   6.088 -0.2728  1.6145 -1.6569
   89SAPC    C3 8412   4.426   6.975   5.930  0.3825 -0.3939 -0.3327
   89SAPC    HX 8413   4.463   6.870   5.934  0.2757 -0.4124  0.1973
   89SAPC    HY 8414   4.516   7.039   5.931  0.9148 -1.1018 -1.4605
   89SAPC   O31 8415   4.338   6.996   5.814 -0.6789  0.2707 -0.7269
   89SAPC   C31 8416   4.381   6.932   5.715  0.1125  0.0975 -0.2168
   89SAPC   O32 8417   4.491   6.888   5.697 -0.3508  0.2558  0.2492
   89SAPC   C32 8418   4.277   6.937   5.603 -0.5061  0.5931  0.5268
   89SAPC   H2X 8419   4.314   7.008   5.526 -0.3112  0.4631  0.4987
   89SAPC   H2Y 8420   4.180   6.964   5.649 -0.2651 -1.0526  2.1187
   89SAPC   C23 8421   4.180   7.384   5.948 -0.3596  0.9282 -0.7430
   89SAPC   H3R 8422   4.102   7.307   5.931  0.3725  0.1655 -0.7364
   89SAPC   H3S 8423   4.263   7.368   5.876 -0.4479 -0.6213 -0.5288
   89SAPC   C24 8424   4.133   7.526   5.936  0.2488  0.0717 -0.2697
   89SAPC   H4R 8425   4.066   7.542   6.023 -1.4336 -0.4830 -1.3999
   89SAPC   H4S 8426   4.066   7.525   5.847  1.1339 -0.3860 -0.9396
   89SAPC   C25 8427   4.224   7.639   5.917 -0.4422 -0.8678  0.1401
   89SAPC   H5R 8428   4.263   7.688   6.007 -2.1556  2.8104 -0.9204
   89SAPC   C26 8429   4.268   7.697   5.800 -0.2026 -0.2116 -0.0336
   89SAPC   H6R 8430   4.335   7.785   5.812  0.0133 -0.2009 -1.2358
   89SAPC   C27 8431   4.239   7.653   5.659 -0.5846 -0.1038  0.9166
   89SAPC   H7R 8432   4.217   7.741   5.594  0.3449  0.4062  1.2666
   89SAPC   H7S 8433   4.158   7.578   5.660  0.5369 -1.4123 -0.4408
   89SAPC   C28 8434   4.366   7.580   5.606  0.9213  0.4072 -0.2248
   89SAPC   H8R 8435   4.439   7.548   5.682 -0.7819 -1.6221  0.6523
   89SAPC   C29 8436   4.397   7.572   5.474 -0.1778 -0.3570  0.1766
   89SAPC   H9R 8437   4.489   7.521   5.441  1.5685  2.1671  0.8241
   89SAPC  C210 8438   4.306   7.612   5.363  0.6904  0.3316 -0.5667
   89SAPC  H10R 8439   4.210   7.657   5.395  0.2252  1.3705 -3.2442
   89SAPC  H10S 8440   4.277   7.518   5.312  1.9255 -0.2214 -0.3080
   89SAPC  C211 8441   4.365   7.703   5.260 -0.8391 -0.1039  0.6674
   89SAPC  H11R 8442   4.404   7.798   5.300  0.0848 -0.5192  0.7733
   89SAPC  C212 8443   4.380   7.678   5.125 -0.2555  0.7997  0.2396
   89SAPC  H12R 8444   4.414   7.760   5.059  1.2760 -1.4663 -1.9883
   89SAPC  C213 8445   4.351   7.552   5.042  0.0222 -0.1561  1.4943
   89SAPC  H13R 8446   4.255   7.567   4.990  0.8082 -0.0290  0.0384
   89SAPC  H13S 8447   4.319   7.461   5.097  1.4292 -1.7044 -0.1215
   89SAPC  C214 8448   4.462   7.514   4.945  0.0511  0.0664  0.4466
   89SAPC  H14R 8449   4.562   7.524   4.989  0.5707  0.2183 -0.7342
   89SAPC  C215 8450   4.447   7.450   4.822 -0.3825 -0.9699  0.4078
   89SAPC  H15R 8451   4.536   7.430   4.760  0.6538 -0.5426  1.6998
   89SAPC  C216 8452   4.322   7.421   4.752  0.1191  1.1742 -1.0340
   89SAPC  H16R 8453   4.240   7.486   4.790  2.6260  2.9507  1.7778
   89SAPC  H16S 8454   4.297   7.317   4.781  1.9603  1.0587  0.2410
   89SAPC  C217 8455   4.310   7.428   4.596  0.3523  0.1230 -0.0494
   89SAPC  H17R 8456   4.401   7.375   4.562 -0.8534 -1.2539 -1.2679
   89SAPC  H17S 8457   4.330   7.533   4.564 -0.1254  0.0006 -0.7747
   89SAPC  C218 8458   4.186   7.363   4.532 -0.4457  0.2503  0.4841
   89SAPC  H18R 8459   4.096   7.423   4.557 -0.8019 -0.7124  1.5713
   89SAPC  H18S 8460   4.166   7.263   4.577 -2.4755 -0.8594 -2.5536
   89SAPC  C219 8461   4.188   7.345   4.375  0.1097 -0.0311  0.5478
   89SAPC  H19R 8462   4.204   7.447   4.333 -2.1481  0.2907  0.3379
   89SAPC  H19S 8463   4.087   7.306   4.354 -0.0053 -0.2054  1.4031
   89SAPC  C220 8464   4.303   7.264   4.318  0.3818 -0.2201  0.6426
   89SAPC  H20R 8465   4.304   7.259   4.207 -1.9337  2.3775  0.3949
   89SAPC  H20S 8466   4.311   7.164   4.366 -0.1645 -0.2702  0.6361
   89SAPC  H20T 8467   4.399   7.311   4.347 -0.0708 -0.0113  1.8940
   89SAPC   C33 8468   4.264   6.806   5.523  0.2224  0.6912  0.0621
   89SAPC   H3X 8469   4.217   6.732   5.591  0.2058  0.1135 -0.5692
   89SAPC   H3Y 8470   4.364   6.781   5.482 -0.4845 -1.0337 -0.6816
   89SAPC   C34 8471   4.162   6.831   5.411 -0.4300 -0.3180  0.1315
   89SAPC   H4X 8472   4.191   6.926   5.362 -1.5860  0.6391  1.2269
   89SAPC   H4Y 8473   4.063   6.848   5.459 -1.0518  1.1276 -1.5467
   89SAPC   C35 8474   4.173   6.717   5.306  0.4638 -0.3820 -0.4905
   89SAPC   H5X 8475   4.174   6.618   5.356 -0.6888  1.1232  2.8181
   89SAPC   H5Y 8476   4.270   6.720   5.253  0.6297 -0.7361 -0.2089
   89SAPC   C36 8477   4.056   6.718   5.204  0.0283  0.1670  0.1078
   89SAPC   H6X 8478   4.045   6.817   5.154  1.3046  0.5962  0.6306
   89SAPC   H6Y 8479   3.966   6.670   5.247  0.5075 -0.7507  0.1011
   89SAPC   C37 8480   4.106   6.634   5.080  0.0180 -0.4366 -0.4900
   89SAPC   H7X 8481   4.136   6.533   5.116 -0.6136  0.2478  2.1632
   89SAPC   H7Y 8482   4.195   6.687   5.041 -1.9939  2.8872 -1.0040
   89SAPC   C38 8483   4.001   6.645   4.965 -0.1260  0.3978  0.1711
   89SAPC   H8X 8484   3.986   6.741   4.912 -3.5372 -0.6809 -1.0539
   89SAPC   H8Y 8485   3.897   6.622   4.998 -0.4188  0.0760 -0.9520
   89SAPC   C39 8486   4.029   6.534   4.859 -0.0750 -0.4656 -0.1865
   89SAPC   H9X 8487   3.936   6.488   4.820 -1.0457  1.8154 -0.7666
   89SAPC   H9Y 8488   4.081   6.451   4.910  1.5584  0.8188  0.3328
   89SAPC  C310 8489   4.102   6.585   4.735 -0.0898  0.7169  0.9580
   89SAPC  H10X 8490   4.176   6.659   4.771  2.4839 -2.0221  1.7009
   89SAPC  H10Y 8491   4.031   6.635   4.666  0.7058 -0.4524 -0.7804
   89SAPC  C311 8492   4.183   6.469   4.673 -0.3337  0.2834 -0.8679
   89SAPC  H11X 8493   4.182   6.388   4.749 -0.1439  0.0532 -1.1102
   89SAPC  H11Y 8494   4.287   6.508   4.667  0.0041 -0.2722  0.8380
   89SAPC  C312 8495   4.128   6.421   4.538  0.7880  0.7384  0.2385
   89SAPC  H12X 8496   4.104   6.505   4.469 -1.9758  1.0077  1.4054
   89SAPC  H12Y 8497   4.028   6.373   4.545  1.0499  0.1080 -0.2088
   89SAPC  C313 8498   4.221   6.322   4.467 -0.5036 -0.6994  0.0802
   89SAPC  H13X 8499   4.242   6.245   4.544 -0.7537  1.3976  2.3651
   89SAPC  H13Y 8500   4.317   6.372   4.445 -0.8191 -1.4490 -3.5718
   89SAPC  C314 8501   4.169   6.251   4.348 -0.3900 -0.8045  0.4258
   89SAPC  H14X 8502   4.081   6.186   4.366 -2.8559  1.6795 -1.7037
   89SAPC  H14Y 8503   4.253   6.182   4.327 -2.3040 -3.8405  1.9704
   89SAPC  C315 8504   4.150   6.340   4.223  0.0027  0.2183 -0.2391
   89SAPC  H15X 8505   4.225   6.422   4.215 -0.7467  0.7548 -2.3738
   89SAPC  H15Y 8506   4.050   6.386   4.230 -1.2248 -2.2558 -0.4727
   89SAPC  C316 8507   4.161   6.267   4.088  0.6469  0.8602  0.5892
   89SAPC  H16X 8508   4.080   6.194   4.069 -1.2067  3.0490 -0.3922
   89SAPC  H16Y 8509   4.245   6.194   4.084 -0.8043 -0.9425 -3.8927
   89SAPC  C317 8510   4.173   6.347   3.960  0.0423  0.1942 -0.2889
   89SAPC  H17X 8511   4.089   6.420   3.953 -0.8591 -0.9506 -2.2403
   89SAPC  H17Y 8512   4.173   6.280   3.871  1.9762  2.3502 -2.0585
   89SAPC  C318 8513   4.303   6.429   3.937  0.4862 -0.5528  0.2845
   89SAPC  H18X 8514   4.320   6.464   3.833  0.4164  0.8740  0.7310
   89SAPC  H18Y 8515   4.373   6.345   3.960  1.5931  0.3180  0.1725
   89SAPC  H18Z 8516   4.300   6.525   3.993 -3.0975 -0.9659  1.0205
   90SAPC     N 8517   2.721   4.609   6.425 -0.5071  0.3159  0.0867
   90SAPC   C12 8518   2.668   4.524   6.538  0.4027 -0.2510 -0.1797
   90SAPC  H12A 8519   2.572   4.559   6.573  0.9180 -1.6571  2.9926
   90SAPC  H12B 8520   2.735   4.523   6.623 -1.8147  0.7410  1.6652
   90SAPC   C13 8521   2.839   4.538   6.362  0.0299 -0.2041 -0.4712
   90SAPC  H13A 8522   2.914   4.526   6.438 -0.8942  1.8245  0.8569
   90SAPC  H13B 8523   2.809   4.439   6.332 -2.0637  0.1816  0.1262
   90SAPC  H13C 8524   2.882   4.600   6.285 -1.1473  2.9756  1.2243
   90SAPC   C14 8525   2.615   4.643   6.336  1.0475  0.0772  0.3668
   90SAPC  H14A 8526   2.566   4.558   6.292 -0.3809  1.0891 -0.1061
   90SAPC  H14B 8527   2.535   4.686   6.396  2.4331  2.6347  0.5098
   90SAPC  H14C 8528   2.646   4.698   6.248 -0.3205  0.6814  0.2282
   90SAPC   C15 8529   2.778   4.738   6.476  0.4373  0.5312  0.1504
   90SAPC  H15A 8530   2.802   4.786   6.382  0.4642  0.7284  0.2569
   90SAPC  H15B 8531   2.704   4.795   6.530 -0.8435 -0.8971 -0.0574
   90SAPC  H15C 8532   2.873   4.734   6.527  0.1384 -2.3334  0.6172
   90SAPC   C11 8533   2.640   4.369   6.501  0.2558 -0.1400  1.0773
   90SAPC  H11A 8534   2.593   4.312   6.585 -1.0660 -2.0878 -0.8553
   90SAPC  H11B 8535   2.741   4.329   6.478 -0.3366 -1.3867  0.5391
   90SAPC     P 8536   2.481   4.215   6.369  0.0999 -0.0552  0.5239
   90SAPC   O13 8537   2.566   4.115   6.437 -0.1853 -0.3255  0.1680
   90SAPC   O14 8538   2.338   4.216   6.402 -0.4066 -0.4641 -0.1865
   90SAPC   O12 8539   2.543   4.358   6.391 -0.1273 -0.1393  0.8580
   90SAPC   O11 8540   2.497   4.186   6.217  0.1649 -0.1138  0.2038
   90SAPC    C1 8541   2.538   4.290   6.124 -0.2161 -0.0723  0.3407
   90SAPC    HA 8542   2.607   4.363   6.171  0.5501 -0.6544  0.1600
   90SAPC    HB 8543   2.588   4.236   6.040  2.4562 -1.2983  2.5800
   90SAPC    C2 8544   2.412   4.376   6.079 -0.4177 -0.2470  0.3562
   90SAPC    HS 8545   2.355   4.400   6.171  0.8278  1.1852  0.7930
   90SAPC   O21 8546   2.335   4.282   6.003 -0.2518 -0.2920  0.2396
   90SAPC   C21 8547   2.210   4.330   6.001  0.1900 -0.7675  0.7275
   90SAPC   O22 8548   2.174   4.440   6.043 -0.0381 -0.1050  0.0089
   90SAPC   C22 8549   2.121   4.231   5.928  0.1255 -0.1878 -0.2578
   90SAPC   H2R 8550   2.161   4.222   5.825 -0.0137 -2.0586 -0.1815
   90SAPC   H2S 8551   2.128   4.131   5.975  0.8273  0.1609  0.4038
   90SAPC    C3 8552   2.458   4.500   5.993  0.7728 -0.6383 -0.6445
   90SAPC    HX 8553   2.541   4.535   6.058 -0.6197 -0.2989  1.0333
   90SAPC    HY 8554   2.383   4.581   5.980  1.3603  0.1928  0.9535
   90SAPC   O31 8555   2.516   4.460   5.874 -0.1920  0.2898  0.2988
   90SAPC   C31 8556   2.549   4.564   5.797  0.9788  0.8170 -0.1362
   90SAPC   O32 8557   2.545   4.678   5.831  0.5429 -0.9903 -0.0402
   90SAPC   C32 8558   2.573   4.521   5.654 -0.1046 -0.0250 -0.3355
   90SAPC   H2X 8559   2.484   4.467   5.614  0.4682 -1.5656  0.3906
   90SAPC   H2Y 8560   2.659   4.451   5.653  0.3986  0.5333 -2.3848
   90SAPC   C23 8561   1.970   4.263   5.944  0.2317 -0.7151 -0.7467
   90SAPC   H3R 8562   1.941   4.360   5.898 -0.5581  0.3727  1.8394
   90SAPC   H3S 8563   1.957   4.272   6.054  0.5921 -0.0010 -0.7536
   90SAPC   C24 8564   1.881   4.146   5.886 -0.1705 -0.4775 -0.2138
   90SAPC   H4R 8565   1.903   4.054   5.944 -0.2527  0.0298  0.6464
   90SAPC   H4S 8566   1.911   4.132   5.781  1.1834  0.8999 -0.0370
   90SAPC   C25 8567   1.732   4.172   5.894 -0.0200 -0.3475  0.1564
   90SAPC   H5R 8568   1.677   4.186   5.988 -0.5292  1.8878 -0.4308
   90SAPC   C26 8569   1.658   4.182   5.788  1.1542 -0.3470  0.0579
   90SAPC   H6R 8570   1.554   4.214   5.802  2.1807  2.7737  1.4981
   90SAPC   C27 8571   1.694   4.181   5.644  0.2803  0.9727 -0.7474
   90SAPC   H7R 8572   1.604   4.178   5.578 -1.6831 -0.8233  1.7997
   90SAPC   H7S 8573   1.742   4.086   5.614  1.6894  1.9770 -1.8045
   90SAPC   C28 8574   1.769   4.307   5.603  0.4278 -0.1868  0.0248
   90SAPC   H8R 8575   1.800   4.373   5.685 -1.7343 -0.2547  0.9640
   90SAPC   C29 8576   1.795   4.344   5.477 -0.5002  0.1271  0.0509
   90SAPC   H9R 8577   1.834   4.446   5.464  3.9334 -1.6835 -3.4874
   90SAPC  C210 8578   1.764   4.270   5.350  0.9298  0.2523  0.3749
   90SAPC  H10R 8579   1.659   4.234   5.359  1.8168 -2.9763 -0.9172
   90SAPC  H10S 8580   1.820   4.175   5.355  2.1910  0.9332 -0.2231
   90SAPC  C211 8581   1.776   4.358   5.223 -0.2023 -0.8107  0.9952
   90SAPC  H11R 8582   1.788   4.467   5.236 -2.7223 -0.6267  2.3897
   90SAPC  C212 8583   1.776   4.306   5.098  0.2789  0.1074 -0.2730
   90SAPC  H12R 8584   1.799   4.377   5.017 -0.0316 -0.7852 -1.1630
   90SAPC  C213 8585   1.752   4.159   5.073 -0.3557 -0.0404  0.2051
   90SAPC  H13R 8586   1.792   4.100   5.157 -2.0931  1.4723  2.2348
   90SAPC  H13S 8587   1.810   4.118   4.988 -0.3099 -2.8495  1.4828
   90SAPC  C214 8588   1.606   4.126   5.066  0.5604 -0.8743  0.1869
   90SAPC  H14R 8589   1.545   4.161   5.150 -2.5106 -1.1223 -1.8111
   90SAPC  C215 8590   1.534   4.077   4.961  0.1653  0.5115  0.4636
   90SAPC  H15R 8591   1.425   4.061   4.972 -0.1121  0.9749 -1.3775
   90SAPC  C216 8592   1.583   4.040   4.825 -0.1877 -0.2941  0.5519
   90SAPC  H16R 8593   1.548   3.943   4.784  1.9388 -0.2117 -1.7004
   90SAPC  H16S 8594   1.694   4.039   4.823 -0.1909 -0.0032  0.1889
   90SAPC  C217 8595   1.549   4.144   4.718 -0.2632  0.4833  0.1999
   90SAPC  H17R 8596   1.560   4.252   4.742 -1.1594  0.5773  0.2206
   90SAPC  H17S 8597   1.440   4.122   4.707 -0.1672  0.3921 -0.5924
   90SAPC  C218 8598   1.623   4.131   4.586 -0.3126  0.1093  0.8752
   90SAPC  H18R 8599   1.619   4.025   4.552 -1.5600  1.1019 -2.4523
   90SAPC  H18S 8600   1.731   4.144   4.606 -0.1802 -0.8663  0.8390
   90SAPC  C219 8601   1.585   4.225   4.466  0.1257 -1.2144  0.4352
   90SAPC  H19R 8602   1.639   4.179   4.381 -0.4505 -1.2596  0.0945
   90SAPC  H19S 8603   1.620   4.327   4.493  2.7072 -2.3671  1.8150
   90SAPC  C220 8604   1.437   4.239   4.420  1.1073 -0.1588  0.1820
   90SAPC  H20R 8605   1.403   4.142   4.380  0.9467  0.5237 -1.3933
   90SAPC  H20S 8606   1.432   4.317   4.341 -2.2526  0.7495  1.1194
   90SAPC  H20T 8607   1.381   4.287   4.504  0.0515  0.1101 -0.6537
   90SAPC   C33 8608   2.600   4.647   5.565 -1.1081  0.2405 -0.5537
   90SAPC   H3X 8609   2.665   4.717   5.620  0.0671 -0.4135 -1.0709
   90SAPC   H3Y 8610   2.508   4.705   5.543  0.3240  3.2492  0.8320
   90SAPC   C34 8611   2.665   4.627   5.433  0.0971 -0.5621 -0.4211
   90SAPC   H4X 8612   2.766   4.587   5.454  0.7913  2.2293  2.2431
   90SAPC   H4Y 8613   2.691   4.724   5.384 -1.9842  0.3748  0.2359
   90SAPC   C35 8614   2.584   4.526   5.347 -0.5834 -0.3416 -0.2831
   90SAPC   H5X 8615   2.483   4.571   5.346 -0.4973 -0.1262 -1.5087
   90SAPC   H5Y 8616   2.587   4.438   5.415  1.7059  0.9878  1.4850
   90SAPC   C36 8617   2.649   4.509   5.214 -0.6267  0.0714 -0.7659
   90SAPC   H6X 8618   2.760   4.514   5.212 -0.5897 -0.2036  0.1698
   90SAPC   H6Y 8619   2.606   4.586   5.146  0.0882  0.6839 -0.5303
   90SAPC   C37 8620   2.605   4.381   5.142 -0.8886  0.4581  0.1926
   90SAPC   H7X 8621   2.495   4.383   5.125 -0.8301  0.1512 -0.2298
   90SAPC   H7Y 8622   2.629   4.295   5.208 -0.8156  2.7199  3.3604
   90SAPC   C38 8623   2.679   4.363   5.006  0.1124 -0.6905  0.2308
   90SAPC   H8X 8624   2.653   4.261   4.969  4.4611 -2.4492  1.3502
   90SAPC   H8Y 8625   2.788   4.371   5.027 -0.1376 -1.4174  2.0287
   90SAPC   C39 8626   2.627   4.468   4.901  0.0409 -0.2143 -0.1835
   90SAPC   H9X 8627   2.689   4.560   4.910  0.3061 -0.4325  0.2960
   90SAPC   H9Y 8628   2.519   4.494   4.911 -0.1098 -1.0025  0.3791
   90SAPC  C310 8629   2.648   4.415   4.755 -0.3073 -0.5092 -0.5723
   90SAPC  H10X 8630   2.590   4.320   4.759 -1.9726  0.4723 -0.4629
   90SAPC  H10Y 8631   2.757   4.397   4.746  0.1523  1.1573  1.0254
   90SAPC  C311 8632   2.599   4.506   4.647  0.3040  0.2808  0.3997
   90SAPC  H11X 8633   2.635   4.605   4.683 -0.7988  0.7885  0.1550
   90SAPC  H11Y 8634   2.489   4.519   4.636  0.2251 -1.4489 -1.2916
   90SAPC  C312 8635   2.655   4.490   4.508  0.5735  0.7628  0.1941
   90SAPC  H12X 8636   2.762   4.466   4.519  0.5260  0.8790  0.9312
   90SAPC  H12Y 8637   2.644   4.585   4.451 -0.8594  0.0101 -0.8651
   90SAPC  C313 8638   2.605   4.372   4.421  0.2399  0.4923  0.3888
   90SAPC  H13X 8639   2.494   4.380   4.420  0.2895  1.2603 -0.3210
   90SAPC  H13Y 8640   2.621   4.279   4.480 -2.2600 -0.7079 -0.6724
   90SAPC  C314 8641   2.676   4.368   4.284 -0.4179  0.0445  0.1747
   90SAPC  H14X 8642   2.784   4.350   4.304  0.0475  0.8557 -1.4848
   90SAPC  H14Y 8643   2.667   4.464   4.229 -2.0679 -0.6974 -0.9052
   90SAPC  C315 8644   2.616   4.262   4.196  0.4845 -0.1214  0.1622
   90SAPC  H15X 8645   2.652   4.285   4.093  1.8715 -1.2148  0.3801
   90SAPC  H15Y 8646   2.506   4.281   4.197  0.7060  2.2088 -3.0108
   90SAPC  C316 8647   2.648   4.120   4.236  0.0168  0.3668  0.3822
   90SAPC  H16X 8648   2.729   4.115   4.311  1.0387  0.4117 -0.6898
   90SAPC  H16Y 8649   2.670   4.060   4.145 -1.6379  0.6554 -0.2460
   90SAPC  C317 8650   2.529   4.049   4.296  0.1095 -0.0152 -0.1451
   90SAPC  H17X 8651   2.455   4.039   4.214 -0.2304 -0.8095  0.2455
   90SAPC  H17Y 8652   2.479   4.116   4.369 -1.0633 -0.6549 -0.3449
   90SAPC  C318 8653   2.545   3.910   4.354  0.3766  1.0147 -1.1411
   90SAPC  H18X 8654   2.447   3.861   4.369  0.8747 -0.6984 -3.0164
   90SAPC  H18Y 8655   2.609   3.913   4.445 -1.4069  0.9224  0.1710
   90SAPC  H18Z 8656   2.587   3.836   4.283  0.3698  0.8973 -1.0235
   91SAPC     N 8657   3.678   3.821   6.228 -0.3558  0.3576 -0.1443
   91SAPC   C12 8658   3.759   3.951   6.200  0.7323  0.1573  0.0715
   91SAPC  H12A 8659   3.866   3.942   6.210  0.8306 -0.1291 -1.0642
   91SAPC  H12B 8660   3.733   4.014   6.284  1.1119 -0.3227  0.5557
   91SAPC   C13 8661   3.712   3.725   6.117  0.0234 -0.8923  0.4185
   91SAPC  H13A 8662   3.817   3.703   6.103  0.4654  0.7966  0.8084
   91SAPC  H13B 8663   3.673   3.627   6.141  1.4423 -1.4326  0.6293
   91SAPC  H13C 8664   3.678   3.765   6.022 -0.8584 -1.4737  0.4712
   91SAPC   C14 8665   3.737   3.765   6.353 -0.5428  0.4584  0.0204
   91SAPC  H14A 8666   3.717   3.834   6.434  1.1894  1.6061 -0.4712
   91SAPC  H14B 8667   3.711   3.666   6.388  1.5014 -0.0831  0.1428
   91SAPC  H14C 8668   3.843   3.748   6.351 -0.3669  0.5596  3.3828
   91SAPC   C15 8669   3.532   3.847   6.236  0.6385  0.6665  0.1806
   91SAPC  H15A 8670   3.506   3.912   6.318 -2.4624 -0.1872 -0.0018
   91SAPC  H15B 8671   3.491   3.868   6.138 -3.2835  0.3609  1.6128
   91SAPC  H15C 8672   3.479   3.753   6.248 -0.0907  0.4649 -3.3127
   91SAPC   C11 8673   3.735   4.026   6.069  0.2621  1.1333  0.4280
   91SAPC  H11A 8674   3.771   4.130   6.056 -0.3529  1.4205  0.9674
   91SAPC  H11B 8675   3.626   4.041   6.052  0.5663  1.9069 -1.0518
   91SAPC     P 8676   3.953   3.921   5.962  0.4105  0.2425 -0.0309
   91SAPC   O13 8677   4.025   3.982   6.075  0.4496 -1.0934 -0.7478
   91SAPC   O14 8678   3.959   3.773   5.951  0.2777 -0.0614 -0.4571
   91SAPC   O12 8679   3.797   3.955   5.964  0.8198  0.3060  0.1753
   91SAPC   O11 8680   3.995   3.984   5.829 -0.4019 -0.3621  0.2340
   91SAPC    C1 8681   4.103   3.936   5.745  0.6073  0.4953  0.2353
   91SAPC    HA 8682   4.162   4.018   5.699 -1.1480  0.9724 -1.3368
   91SAPC    HB 8683   4.181   3.877   5.798 -0.7076 -1.0972  0.4837
   91SAPC    C2 8684   4.044   3.845   5.632  0.2018 -0.1706 -0.4548
   91SAPC    HS 8685   4.023   3.751   5.687 -0.0728  0.5162  0.6492
   91SAPC   O21 8686   4.144   3.832   5.529 -0.3103 -0.0520 -0.1317
   91SAPC   C21 8687   4.155   3.713   5.477  1.0027 -0.2540 -0.0051
   91SAPC   O22 8688   4.109   3.613   5.528 -0.3113  0.1416 -0.1823
   91SAPC   C22 8689   4.222   3.713   5.341  0.1054 -0.3527  0.3712
   91SAPC   H2R 8690   4.301   3.634   5.347  0.4806 -0.2154 -1.9231
   91SAPC   H2S 8691   4.153   3.670   5.266  1.5695 -1.4358 -0.4226
   91SAPC    C3 8692   3.914   3.904   5.559 -0.1152  0.8833  0.8071
   91SAPC    HX 8693   3.952   4.003   5.526  1.1837  1.4992  3.8071
   91SAPC    HY 8694   3.831   3.926   5.630 -0.4185  1.9303  0.1452
   91SAPC   O31 8695   3.857   3.818   5.452  0.0105 -0.0166 -0.3114
   91SAPC   C31 8696   3.792   3.711   5.503  0.3964  0.1088  0.6118
   91SAPC   O32 8697   3.774   3.685   5.619  0.3989  0.0647  0.4414
   91SAPC   C32 8698   3.756   3.610   5.384  0.3076  0.6785  0.3358
   91SAPC   H2X 8699   3.806   3.646   5.292  1.0517  1.1470  0.9142
   91SAPC   H2Y 8700   3.648   3.632   5.368  0.4042  1.0312  0.1591
   91SAPC   C23 8701   4.287   3.847   5.308 -0.3643  0.3566  0.1067
   91SAPC   H3R 8702   4.345   3.881   5.396 -0.4350 -0.2022  0.3727
   91SAPC   H3S 8703   4.214   3.925   5.279  0.4875  1.0821 -0.1209
   91SAPC   C24 8704   4.394   3.849   5.199 -0.1501  0.1045 -0.1377
   91SAPC   H4R 8705   4.484   3.794   5.233  0.5116  1.0617 -0.3025
   91SAPC   H4S 8706   4.428   3.955   5.191 -0.6922  0.2974  0.0756
   91SAPC   C25 8707   4.342   3.794   5.067  0.2581 -0.0509  0.0814
   91SAPC   H5R 8708   4.257   3.850   5.024  1.6052  2.4368  0.4668
   91SAPC   C26 8709   4.388   3.686   4.998  0.7686  0.2395 -0.1227
   91SAPC   H6R 8710   4.347   3.660   4.899  0.2422 -1.5201  0.5120
   91SAPC   C27 8711   4.490   3.588   5.039 -0.0417 -0.0862  0.7235
   91SAPC   H7R 8712   4.504   3.585   5.149 -0.5388  1.3287  0.8368
   91SAPC   H7S 8713   4.577   3.631   4.985 -2.0675  0.6869 -2.1197
   91SAPC   C28 8714   4.456   3.450   4.993  0.0699  0.3663 -1.1271
   91SAPC   H8R 8715   4.371   3.405   5.047  1.0166  1.2512  1.2181
   91SAPC   C29 8716   4.525   3.368   4.910 -0.0114 -0.3453  0.1795
   91SAPC   H9R 8717   4.493   3.263   4.903 -1.7534  0.1835 -0.4528
   91SAPC  C210 8718   4.649   3.411   4.836 -0.4995  0.4157 -0.2726
   91SAPC  H10R 8719   4.692   3.317   4.796 -0.5225  0.9486 -1.5836
   91SAPC  H10S 8720   4.718   3.442   4.918  2.0459  0.8790 -2.4643
   91SAPC  C211 8721   4.619   3.505   4.726  0.3536 -0.2230  0.4023
   91SAPC  H11R 8722   4.583   3.606   4.751 -0.8061 -0.7775  1.0078
   91SAPC  C212 8723   4.629   3.477   4.596 -0.2370 -0.1969 -0.3581
   91SAPC  H12R 8724   4.589   3.547   4.520 -1.4324 -1.6585 -1.1193
   91SAPC  C213 8725   4.669   3.348   4.525 -0.3849 -0.2352 -0.8136
   91SAPC  H13R 8726   4.609   3.349   4.431 -0.0361 -0.4580 -1.0429
   91SAPC  H13S 8727   4.622   3.263   4.580 -3.9177  1.2122 -1.3130
   91SAPC  C214 8728   4.815   3.327   4.488  0.1374 -0.8778 -0.0080
   91SAPC  H14R 8729   4.871   3.288   4.574 -1.2563 -2.2208  0.3500
   91SAPC  C215 8730   4.887   3.377   4.382 -0.3016  0.8497 -0.3746
   91SAPC  H15R 8731   4.992   3.345   4.377  0.2130  2.2253  0.8541
   91SAPC  C216 8732   4.847   3.444   4.252 -0.0878 -0.4594 -0.0295
   91SAPC  H16R 8733   4.736   3.454   4.245 -0.1122  0.9379  1.6455
   91SAPC  H16S 8734   4.880   3.382   4.166  0.3978  0.1030 -0.2531
   91SAPC  C217 8735   4.899   3.585   4.215  0.0730  0.3556 -0.4318
   91SAPC  H17R 8736   5.008   3.594   4.237  0.4484 -1.9279 -1.0297
   91SAPC  H17S 8737   4.834   3.648   4.279  0.3030 -0.5059  0.6799
   91SAPC  C218 8738   4.873   3.626   4.070  0.5559 -0.3397 -0.1440
   91SAPC  H18R 8739   4.764   3.607   4.066  0.6454 -0.6438 -1.5500
   91SAPC  H18S 8740   4.932   3.562   4.001 -1.1332 -0.6690 -1.3538
   91SAPC  C219 8741   4.905   3.770   4.056  0.3004 -0.4184  0.1006
   91SAPC  H19R 8742   5.015   3.787   4.051  0.2213  0.1479  0.2750
   91SAPC  H19S 8743   4.871   3.821   4.149 -0.0394 -2.9342  1.4396
   91SAPC  C220 8744   4.836   3.832   3.938  0.0632 -0.6332  0.1606
   91SAPC  H20R 8745   4.877   3.795   3.842 -0.2076 -0.0999 -0.1686
   91SAPC  H20S 8746   4.852   3.942   3.933 -0.4496 -0.6052 -1.0310
   91SAPC  H20T 8747   4.726   3.825   3.950  0.1746 -0.2803  1.5884
   91SAPC   C33 8748   3.783   3.467   5.408  0.4695 -0.5117  0.0764
   91SAPC   H3X 8749   3.871   3.454   5.475 -0.4791  1.2958  1.7847
   91SAPC   H3Y 8750   3.800   3.427   5.306  2.1295 -0.9759  0.4976
   91SAPC   C34 8751   3.667   3.388   5.448  0.1256 -0.0428 -0.3445
   91SAPC   H4X 8752   3.571   3.432   5.414 -1.0055 -1.9288  0.2064
   91SAPC   H4Y 8753   3.661   3.389   5.559  0.1141 -1.0409 -0.3192
   91SAPC   C35 8754   3.677   3.238   5.412  0.2967 -0.2839 -0.0541
   91SAPC   H5X 8755   3.605   3.185   5.478 -0.8900  1.1690 -0.1299
   91SAPC   H5Y 8756   3.778   3.200   5.436  0.4919  0.7343  0.8162
   91SAPC   C36 8757   3.641   3.220   5.263  1.0241  0.3575  0.1956
   91SAPC   H6X 8758   3.685   3.294   5.193 -2.4730  0.6885 -1.9092
   91SAPC   H6Y 8759   3.532   3.242   5.260  0.7489 -0.5445  1.9417
   91SAPC   C37 8760   3.677   3.072   5.215 -0.0523 -0.2162 -0.2844
   91SAPC   H7X 8761   3.622   2.997   5.275 -2.4334  1.0983 -0.7114
   91SAPC   H7Y 8762   3.788   3.065   5.214 -0.0304 -0.0445  0.7368
   91SAPC   C38 8763   3.638   3.046   5.069  0.0912  0.3713  0.7600
   91SAPC   H8X 8764   3.536   3.006   5.051  0.7540 -0.0586 -2.6482
   91SAPC   H8Y 8765   3.709   2.967   5.037  0.8053  0.8077  1.2236
   91SAPC   C39 8766   3.662   3.168   4.973  0.4532  0.2956 -0.3997
   91SAPC   H9X 8767   3.763   3.201   5.007 -0.1206 -0.5623  2.3943
   91SAPC   H9Y 8768   3.593   3.254   4.983  0.5806  0.3652 -0.1081
   91SAPC  C310 8769   3.668   3.125   4.828  0.2454  0.2822 -0.4637
   91SAPC  H10X 8770   3.566   3.110   4.786 -0.1869 -1.3929  1.0372
   91SAPC  H10Y 8771   3.707   3.021   4.834  0.8654  0.6074  1.6634
   91SAPC  C311 8772   3.752   3.216   4.733 -0.2365 -0.3894 -0.1061
   91SAPC  H11X 8773   3.855   3.239   4.766 -0.2900  0.6590 -0.6131
   91SAPC  H11Y 8774   3.705   3.317   4.727  1.2242  0.3225  0.0304
   91SAPC  C312 8775   3.767   3.154   4.592  0.2082  0.0683  0.1766
   91SAPC  H12X 8776   3.669   3.130   4.546  1.1996 -0.7493 -1.6230
   91SAPC  H12Y 8777   3.841   3.071   4.596  1.8204  1.2050 -3.0093
   91SAPC  C313 8778   3.805   3.267   4.492 -0.3965 -0.1536  0.3502
   91SAPC  H13X 8779   3.891   3.326   4.531  0.2594  0.4804 -1.8928
   91SAPC  H13Y 8780   3.717   3.332   4.473 -1.1678 -1.4249 -0.6083
   91SAPC  C314 8781   3.841   3.214   4.351  0.2758  0.4617  0.3074
   91SAPC  H14X 8782   3.751   3.180   4.295 -0.8869  0.6439  1.9866
   91SAPC  H14Y 8783   3.911   3.129   4.364 -0.6203 -0.8933 -2.7520
   91SAPC  C315 8784   3.903   3.308   4.249 -0.3423 -0.1127 -0.0810
   91SAPC  H15X 8785   3.924   3.248   4.158  0.0773 -1.0897  0.6409
   91SAPC  H15Y 8786   4.004   3.334   4.287  0.2947 -1.1895 -0.9603
   91SAPC  C316 8787   3.820   3.431   4.219 -0.2994  0.0337  0.0110
   91SAPC  H16X 8788   3.842   3.503   4.300  0.3301 -2.0845  1.8287
   91SAPC  H16Y 8789   3.713   3.401   4.212  0.0316 -1.2786  0.1626
   91SAPC  C317 8790   3.858   3.497   4.084 -0.1090  0.5418 -0.3623
   91SAPC  H17X 8791   3.829   3.421   4.008  0.0926  0.4610 -0.3581
   91SAPC  H17Y 8792   3.967   3.515   4.079 -0.2736  1.7594  0.2546
   91SAPC  C318 8793   3.780   3.621   4.052  0.4205 -0.3182  1.0519
   91SAPC  H18X 8794   3.671   3.599   4.048  0.2094  0.3345  2.4517
   91SAPC  H18Y 8795   3.815   3.656   3.953  0.5729  0.9481  1.5287
   91SAPC  H18Z 8796   3.807   3.691   4.134  1.5501  0.3239  0.1602
   92SAPC     N 8797   6.116   0.056   6.570 -0.5581  0.8706 -0.1021
   92SAPC   C12 8798   6.203   0.151   6.485  0.8244  0.0071  0.1914
   92SAPC  H12A 8799   6.309   0.139   6.502  1.4382  0.3096 -2.8571
   92SAPC  H12B 8800   6.180   0.254   6.511 -3.1545 -0.4038 -0.9988
   92SAPC   C13 8801   6.143   0.083   6.716  0.2669  0.4104  0.1030
   92SAPC  H13A 8802   6.079   0.014   6.769  1.2832 -1.5707 -1.1095
   92SAPC  H13B 8803   6.246   0.060   6.742 -0.0713 -1.0606  0.2379
   92SAPC  H13C 8804   6.126   0.186   6.743 -0.1482  0.3437  0.0917
   92SAPC   C14 8805   5.977   0.084   6.555  0.3769  0.3921 -0.3922
   92SAPC  H14A 8806   5.942   0.054   6.457  1.2480  0.6863 -0.8007
   92SAPC  H14B 8807   5.913   0.034   6.627 -0.1435 -1.7756 -2.2280
   92SAPC  H14C 8808   5.953   0.186   6.578 -1.8990 -0.4541  1.4818
   92SAPC   C15 8809   6.149  -0.089   6.542 -0.5332 -0.3587  0.1742
   92SAPC  H15A 8810   6.250  -0.114   6.572 -0.0978  0.9391 -0.1318
   92SAPC  H15B 8811   6.085  -0.155   6.598 -2.5259  0.3405 -1.1902
   92SAPC  H15C 8812   6.149  -0.105   6.436  1.8588  0.4682 -0.0164
   92SAPC   C11 8813   6.189   0.136   6.328 -0.5691  0.4356  0.5185
   92SAPC  H11A 8814   6.245   0.223   6.288  1.7022 -1.3373 -0.4279
   92SAPC  H11B 8815   6.083   0.147   6.299 -0.1699 -0.3637 -1.4583
   92SAPC     P 8816   6.409   0.005   6.253 -0.0090 -0.0462  0.5069
   92SAPC   O13 8817   6.476   0.116   6.325 -0.4459  0.1626  0.0465
   92SAPC   O14 8818   6.461  -0.128   6.279  0.7234  0.1647  0.2614
   92SAPC   O12 8819   6.252   0.011   6.281  0.1206 -0.2131 -0.0576
   92SAPC   O11 8820   6.411   0.040   6.098  0.2865 -0.1517 -0.1706
   92SAPC    C1 8821   6.339  -0.054   6.011 -0.2608 -0.4796 -0.6479
   92SAPC    HA 8822   6.402  -0.144   5.999  1.9352  1.0978 -1.7207
   92SAPC    HB 8823   6.241  -0.075   6.059  0.6435  0.5582  1.8258
   92SAPC    C2 8824   6.301   0.022   5.875  0.5292 -0.0006  0.2234
   92SAPC    HS 8825   6.205  -0.020   5.838  0.5213  1.1587 -1.1380
   92SAPC   O21 8826   6.401   0.001   5.775 -0.5992 -0.0335  0.1710
   92SAPC   C21 8827   6.348  -0.027   5.655 -0.0646 -0.0172 -0.3540
   92SAPC   O22 8828   6.234  -0.019   5.619  0.1074 -0.3635 -0.0499
   92SAPC   C22 8829   6.463  -0.083   5.574  0.0947  0.5464  0.3800
   92SAPC   H2R 8830   6.435  -0.056   5.470  3.6390 -0.7500 -1.0404
   92SAPC   H2S 8831   6.558  -0.035   5.605 -0.6208  1.3850  1.3384
   92SAPC    C3 8832   6.271   0.181   5.892 -0.3526 -0.1121 -0.5402
   92SAPC    HX 8833   6.368   0.236   5.895 -1.2709  1.5215  0.5129
   92SAPC    HY 8834   6.217   0.202   5.986 -3.5257  3.9137 -2.9625
   92SAPC   O31 8835   6.190   0.239   5.785  0.1282  0.3147  0.6364
   92SAPC   C31 8836   6.253   0.284   5.681  0.2251  0.2525 -0.3752
   92SAPC   O32 8837   6.373   0.298   5.665 -0.2485  0.2313  0.2878
   92SAPC   C32 8838   6.150   0.320   5.575  0.5371  0.1408 -0.6014
   92SAPC   H2X 8839   6.107   0.415   5.611  0.7174  0.0781 -0.2137
   92SAPC   H2Y 8840   6.072   0.241   5.586 -0.7723  1.3182 -1.2335
   92SAPC   C23 8841   6.484  -0.239   5.571  0.2664 -0.2517 -0.2733
   92SAPC   H3R 8842   6.530  -0.261   5.670 -0.1397 -1.4697 -0.3387
   92SAPC   H3S 8843   6.561  -0.256   5.492 -0.0405  1.1933 -0.9077
   92SAPC   C24 8844   6.361  -0.328   5.538  0.0709  0.0318 -0.5731
   92SAPC   H4R 8845   6.273  -0.317   5.606 -0.8378 -2.1417 -1.3017
   92SAPC   H4S 8846   6.395  -0.433   5.549 -1.2270 -0.2484  1.1850
   92SAPC   C25 8847   6.302  -0.287   5.400 -0.4970  0.7976 -0.3209
   92SAPC   H5R 8848   6.253  -0.188   5.397  0.6434  1.3765 -0.3461
   92SAPC   C26 8849   6.303  -0.370   5.292 -0.5717  0.1220 -0.7086
   92SAPC   H6R 8850   6.243  -0.337   5.206 -2.8439 -1.7660  0.0351
   92SAPC   C27 8851   6.365  -0.513   5.285 -0.0609  0.2507 -0.9310
   92SAPC   H7R 8852   6.375  -0.561   5.385 -0.0471  1.0539 -0.5426
   92SAPC   H7S 8853   6.472  -0.503   5.256  0.7537  0.2684  1.8260
   92SAPC   C28 8854   6.290  -0.620   5.202 -0.4127 -0.5137  0.2228
   92SAPC   H8R 8855   6.244  -0.703   5.258 -2.1015  1.3256  1.7075
   92SAPC   C29 8856   6.255  -0.608   5.075 -0.4168 -0.3575  0.0060
   92SAPC   H9R 8857   6.196  -0.685   5.024  1.3630 -1.3814 -0.5825
   92SAPC  C210 8858   6.293  -0.496   4.981  0.2539  0.1436  0.2741
   92SAPC  H10R 8859   6.335  -0.405   5.030  1.0656  0.5103 -1.0319
   92SAPC  H10S 8860   6.192  -0.462   4.949  0.3967  0.5183  0.2137
   92SAPC  C211 8861   6.386  -0.523   4.868  0.6465 -0.0847  0.4853
   92SAPC  H11R 8862   6.493  -0.508   4.889  0.3501  0.8037  1.4543
   92SAPC  C212 8863   6.364  -0.520   4.741  0.1970 -0.6459  0.1212
   92SAPC  H12R 8864   6.447  -0.536   4.670 -0.2078 -0.4745 -0.4033
   92SAPC  C213 8865   6.238  -0.490   4.657 -0.1885  0.1496 -0.3261
   92SAPC  H13R 8866   6.138  -0.498   4.706  0.9697 -3.1322  1.8404
   92SAPC  H13S 8867   6.233  -0.577   4.587  1.1435 -1.2711  1.2569
   92SAPC  C214 8868   6.246  -0.357   4.580  0.8632  0.8302  0.9096
   92SAPC  H14R 8869   6.270  -0.270   4.643  2.2141  1.4587 -0.4002
   92SAPC  C215 8870   6.253  -0.335   4.448  0.3375 -0.8302 -0.3831
   92SAPC  H15R 8871   6.263  -0.232   4.409  0.7536 -0.4297  0.7221
   92SAPC  C216 8872   6.231  -0.443   4.353  1.1155 -0.0612 -0.6473
   92SAPC  H16R 8873   6.147  -0.503   4.396 -0.6432  0.4166 -3.1449
   92SAPC  H16S 8874   6.319  -0.510   4.346  0.6412 -0.5705 -2.2931
   92SAPC  C217 8875   6.174  -0.398   4.215 -0.2314 -0.0038 -0.2125
   92SAPC  H17R 8876   6.257  -0.345   4.163  0.1374 -1.4973 -1.2155
   92SAPC  H17S 8877   6.090  -0.331   4.243  1.5284  1.3043  2.3204
   92SAPC  C218 8878   6.131  -0.514   4.115  0.3931 -0.3679 -0.0970
   92SAPC  H18R 8879   6.071  -0.470   4.033 -1.0290  0.9040  1.5388
   92SAPC  H18S 8880   6.051  -0.581   4.154  0.1079 -1.2211 -2.0388
   92SAPC  C219 8881   6.255  -0.580   4.050  0.4155  0.3606  0.0094
   92SAPC  H19R 8882   6.337  -0.605   4.120  0.9393  3.9280  0.8841
   92SAPC  H19S 8883   6.299  -0.503   3.982  2.0747 -1.3016 -0.8732
   92SAPC  C220 8884   6.214  -0.702   3.963  0.0980 -0.1719  0.0523
   92SAPC  H20R 8885   6.139  -0.671   3.887 -0.0422  1.4942  0.8255
   92SAPC  H20S 8886   6.163  -0.780   4.024  1.5797 -1.7782 -0.6630
   92SAPC  H20T 8887   6.294  -0.757   3.909 -1.4925 -0.1105 -2.5156
   92SAPC   C33 8888   6.203   0.317   5.430  0.5823 -0.0169 -0.0579
   92SAPC   H3X 8889   6.269   0.403   5.402  2.3678 -1.1747  0.4066
   92SAPC   H3Y 8890   6.112   0.333   5.368  1.2753 -2.2918 -1.7870
   92SAPC   C34 8891   6.282   0.195   5.385 -1.1059 -0.2867  0.7207
   92SAPC   H4X 8892   6.234   0.099   5.415 -0.0675 -0.6744  1.2041
   92SAPC   H4Y 8893   6.379   0.197   5.439 -1.1259  0.9906  0.7478
   92SAPC   C35 8894   6.316   0.198   5.235 -0.8526 -0.3308  0.6690
   92SAPC   H5X 8895   6.373   0.287   5.202  0.0079 -1.7768 -2.0097
   92SAPC   H5Y 8896   6.219   0.193   5.181 -0.5284 -0.9524  0.1309
   92SAPC   C36 8897   6.413   0.072   5.211 -0.5624  0.1926 -0.4240
   92SAPC   H6X 8898   6.355  -0.017   5.242 -0.5075  0.9723  2.1681
   92SAPC   H6Y 8899   6.508   0.070   5.268  1.2357  3.9327 -2.9140
   92SAPC   C37 8900   6.457   0.056   5.066  0.0452 -0.0288  0.0741
   92SAPC   H7X 8901   6.524   0.144   5.056 -0.7366  0.7114  1.0179
   92SAPC   H7Y 8902   6.374   0.075   4.994  1.0075  0.9682 -0.8082
   92SAPC   C38 8903   6.545  -0.067   5.048  0.4655  0.3153  0.1621
   92SAPC   H8X 8904   6.484  -0.156   5.074  1.5483 -0.4551  0.1189
   92SAPC   H8Y 8905   6.632  -0.075   5.117  0.5929 -0.0545 -0.0419
   92SAPC   C39 8906   6.603  -0.078   4.906  0.1883  0.1226  1.0265
   92SAPC   H9X 8907   6.663  -0.170   4.896 -1.2286 -0.5991 -2.0316
   92SAPC   H9Y 8908   6.671   0.010   4.903 -3.7450  3.4598  0.6984
   92SAPC  C310 8909   6.516  -0.076   4.780  0.8746 -0.7342  0.3450
   92SAPC  H10X 8910   6.466   0.022   4.764  0.2938 -1.2990 -1.5092
   92SAPC  H10Y 8911   6.437  -0.153   4.784 -1.2307  1.2319 -0.8181
   92SAPC  C311 8912   6.604  -0.102   4.661 -0.0201 -0.3542  0.3505
   92SAPC  H11X 8913   6.654  -0.201   4.669 -1.1257 -0.8647  1.3947
   92SAPC  H11Y 8914   6.688  -0.029   4.659 -0.5290  0.2407 -1.2003
   92SAPC  C312 8915   6.532  -0.105   4.523 -0.1896 -0.1741  0.3780
   92SAPC  H12X 8916   6.483  -0.007   4.507  3.5327  2.3524  2.8275
   92SAPC  H12Y 8917   6.453  -0.182   4.513 -2.0681  1.6965  0.1192
   92SAPC  C313 8918   6.631  -0.120   4.412  0.5052 -0.3973  0.2122
   92SAPC  H13X 8919   6.680  -0.220   4.402  1.5041  0.0508  0.5267
   92SAPC  H13Y 8920   6.710  -0.044   4.426  0.4196 -0.0035 -1.2778
   92SAPC  C314 8921   6.564  -0.107   4.271 -0.1781 -0.7513 -0.6185
   92SAPC  H14X 8922   6.535  -0.001   4.249 -0.5972 -0.6554  0.3577
   92SAPC  H14Y 8923   6.462  -0.149   4.283  0.3641 -1.7943  0.5006
   92SAPC  C315 8924   6.621  -0.176   4.147  0.2493  0.3431 -0.7045
   92SAPC  H15X 8925   6.633  -0.284   4.167 -0.3458  0.7647  2.6344
   92SAPC  H15Y 8926   6.720  -0.128   4.129  0.4262 -0.1874 -1.1376
   92SAPC  C316 8927   6.534  -0.157   4.021  0.5952  0.3543  0.1744
   92SAPC  H16X 8928   6.528  -0.050   3.994  0.6325  0.3449  0.1290
   92SAPC  H16Y 8929   6.435  -0.201   4.045 -0.3204  0.6725 -2.6765
   92SAPC  C317 8930   6.609  -0.230   3.903  0.3698  0.0549 -0.0125
   92SAPC  H17X 8931   6.621  -0.337   3.932 -0.5820 -0.8966 -2.8628
   92SAPC  H17Y 8932   6.708  -0.184   3.878 -0.2427  1.2571 -0.3136
   92SAPC  C318 8933   6.522  -0.225   3.778 -0.1145 -0.5130  0.5693
   92SAPC  H18X 8934   6.501  -0.122   3.743 -1.1450 -1.2490 -1.1403
   92SAPC  H18Y 8935   6.421  -0.262   3.806 -0.6134 -0.0448 -0.5339
   92SAPC  H18Z 8936   6.571  -0.284   3.697 -0.2311  1.0511 -0.6872
   93SAPC     N 8937   5.121   4.673   6.504  0.0626 -0.3059  0.1761
   93SAPC   C12 8938   5.014   4.635   6.397  0.1360 -0.1047  0.2414
   93SAPC  H12A 8939   5.014   4.533   6.362  0.1315  0.0030 -0.0716
   93SAPC  H12B 8940   5.017   4.703   6.313 -0.9197 -2.0174 -1.4469
   93SAPC   C13 8941   5.096   4.579   6.618  0.7740 -0.2705 -0.0429
   93SAPC  H13A 8942   5.162   4.601   6.700 -0.4775 -1.0998  1.2364
   93SAPC  H13B 8943   4.995   4.601   6.648  0.7540  0.9215 -0.9309
   93SAPC  H13C 8944   5.110   4.476   6.587  1.5790  0.5312 -2.5771
   93SAPC   C14 8945   5.260   4.657   6.465  0.4343  0.1150 -0.1215
   93SAPC  H14A 8946   5.321   4.669   6.553  0.8329  1.0136 -0.5134
   93SAPC  H14B 8947   5.289   4.561   6.424 -0.0560  0.0640 -0.3560
   93SAPC  H14C 8948   5.287   4.723   6.384  1.3347 -0.2577 -0.1376
   93SAPC   C15 8949   5.091   4.804   6.561  0.2216 -0.4053  0.6606
   93SAPC  H15A 8950   4.985   4.823   6.575  0.5052  2.6307 -0.6482
   93SAPC  H15B 8951   5.147   4.825   6.651 -0.0702 -3.3941  1.6735
   93SAPC  H15C 8952   5.119   4.878   6.487 -0.5535 -0.8201 -0.0666
   93SAPC   C11 8953   4.867   4.655   6.443  0.6208 -0.6439  0.0224
   93SAPC  H11A 8954   4.844   4.605   6.539 -2.8574 -0.5629 -0.6278
   93SAPC  H11B 8955   4.799   4.599   6.375  0.5875  0.3956 -0.8397
   93SAPC     P 8956   4.799   4.872   6.310  0.6322  0.0145  0.0723
   93SAPC   O13 8957   4.665   4.822   6.268 -0.0355 -0.0531 -0.3027
   93SAPC   O14 8958   4.819   5.021   6.336 -0.3388  1.1337 -0.4290
   93SAPC   O12 8959   4.837   4.794   6.445  0.0243  0.1166 -0.2191
   93SAPC   O11 8960   4.901   4.829   6.201 -0.5577 -0.5179  0.0318
   93SAPC    C1 8961   4.946   4.905   6.093 -0.6799 -0.6548 -0.1742
   93SAPC    HA 8962   4.962   5.010   6.123  1.5893 -0.4150 -1.8970
   93SAPC    HB 8963   5.046   4.867   6.063 -0.2730 -0.0132  0.3550
   93SAPC    C2 8964   4.857   4.907   5.970  0.8345 -0.0066  0.0627
   93SAPC    HS 8965   4.755   4.938   5.999  0.2005 -1.5336 -0.4155
   93SAPC   O21 8966   4.850   4.776   5.914  0.7347  0.4627  0.6440
   93SAPC   C21 8967   4.733   4.748   5.848  0.5994  0.0143 -0.3160
   93SAPC   O22 8968   4.631   4.816   5.859  0.2088 -0.2957 -0.6207
   93SAPC   C22 8969   4.733   4.616   5.773 -0.3245 -0.3205 -0.4715
   93SAPC   H2R 8970   4.842   4.593   5.765 -0.0391 -0.2692  2.4764
   93SAPC   H2S 8971   4.685   4.540   5.837  0.2637  0.5455  1.0355
   93SAPC    C3 8972   4.907   5.002   5.860 -0.0889  0.9633  0.2412
   93SAPC    HX 8973   4.921   5.102   5.907  1.4606  0.8555  0.0529
   93SAPC    HY 8974   4.829   5.015   5.781  0.6926  1.1331 -0.5138
   93SAPC   O31 8975   5.028   4.948   5.811 -0.3111  0.2924 -0.0990
   93SAPC   C31 8976   5.145   5.002   5.849  0.7128  0.2135  0.2039
   93SAPC   O32 8977   5.154   5.070   5.954 -0.0713 -0.1144  0.4027
   93SAPC   C32 8978   5.253   4.981   5.751 -0.2793  0.4112 -0.1432
   93SAPC   H2X 8979   5.210   4.946   5.655  1.2427  1.5986 -1.3278
   93SAPC   H2Y 8980   5.329   4.909   5.788  0.0449  0.3603 -0.8837
   93SAPC   C23 8981   4.671   4.623   5.637 -0.3778 -0.1665 -0.7065
   93SAPC   H3R 8982   4.746   4.585   5.563 -0.2401  2.3043 -1.9634
   93SAPC   H3S 8983   4.652   4.727   5.604  0.1797 -0.3743 -1.7452
   93SAPC   C24 8984   4.552   4.532   5.617  0.4858 -0.4844  0.6256
   93SAPC   H4R 8985   4.569   4.429   5.655  0.3941 -0.1662  1.5422
   93SAPC   H4S 8986   4.534   4.519   5.508  1.2198  0.2083  0.4148
   93SAPC   C25 8987   4.426   4.571   5.695  0.1842  0.6420 -0.3974
   93SAPC   H5R 8988   4.444   4.576   5.803 -1.8534  1.8487 -0.0533
   93SAPC   C26 8989   4.300   4.604   5.654 -0.4098 -0.1058 -0.1442
   93SAPC   H6R 8990   4.220   4.633   5.724  1.3580  1.2634  1.3986
   93SAPC   C27 8991   4.255   4.616   5.505 -0.7435 -0.0564  0.0346
   93SAPC   H7R 8992   4.210   4.515   5.496 -2.1221  0.5857 -0.5648
   93SAPC   H7S 8993   4.339   4.607   5.432  1.0528 -3.3430  2.2671
   93SAPC   C28 8994   4.135   4.706   5.471 -0.4891  0.3083  0.1485
   93SAPC   H8R 8995   4.111   4.782   5.548 -3.5557 -0.8111  0.4391
   93SAPC   C29 8996   4.061   4.685   5.359  0.1191  0.2415 -0.0206
   93SAPC   H9R 8997   3.972   4.742   5.332 -1.6198 -1.2697  2.1101
   93SAPC  C210 8998   4.102   4.582   5.254 -0.2603  0.2829  0.7053
   93SAPC  H10R 8999   4.039   4.490   5.250  1.2020 -0.8260  1.9070
   93SAPC  H10S 9000   4.202   4.543   5.284  0.7212  2.0318 -0.0976
   93SAPC  C211 9001   4.111   4.644   5.115 -0.4348  0.3231 -0.3175
   93SAPC  H11R 9002   4.159   4.743   5.124 -0.3004  0.2806 -0.5615
   93SAPC  C212 9003   4.063   4.609   4.997  0.7016  0.8594  0.3595
   93SAPC  H12R 9004   4.057   4.677   4.910  0.6069 -0.7638 -0.9409
   93SAPC  C213 9005   3.985   4.483   4.978 -0.6628 -0.4410  0.4130
   93SAPC  H13R 9006   4.001   4.413   5.062 -0.0185  1.5645  2.0449
   93SAPC  H13S 9007   4.038   4.440   4.891 -0.3951 -0.1085  0.4083
   93SAPC  C214 9008   3.841   4.508   4.941 -0.1125  0.2346  0.2573
   93SAPC  H14R 9009   3.783   4.562   5.017  0.2037  1.4910 -0.3788
   93SAPC  C215 9010   3.781   4.479   4.821 -0.3531 -1.0007 -0.2851
   93SAPC  H15R 9011   3.674   4.496   4.803  0.0136 -0.6253 -2.3373
   93SAPC  C216 9012   3.849   4.401   4.712  0.2034  0.6253  0.3410
   93SAPC  H16R 9013   3.861   4.297   4.747 -0.0453 -0.1967 -1.8816
   93SAPC  H16S 9014   3.952   4.434   4.684 -0.2749  1.8134 -0.1039
   93SAPC  C217 9015   3.780   4.389   4.569 -0.0685  0.2306  0.2409
   93SAPC  H17R 9016   3.677   4.354   4.589 -0.2208  0.7229  0.3282
   93SAPC  H17S 9017   3.835   4.320   4.501  0.0524 -1.5410  2.0564
   93SAPC  C218 9018   3.764   4.526   4.510  0.3088  0.3684  0.0079
   93SAPC  H18R 9019   3.862   4.579   4.513 -0.2780  1.5370 -0.5976
   93SAPC  H18S 9020   3.688   4.588   4.563  1.2641  0.8933  0.7858
   93SAPC  C219 9021   3.715   4.522   4.361  0.4332  0.1748 -0.3702
   93SAPC  H19R 9022   3.782   4.469   4.290 -0.9012 -2.9259  0.4783
   93SAPC  H19S 9023   3.685   4.624   4.330 -0.5521 -0.4176 -1.4597
   93SAPC  C220 9024   3.580   4.446   4.350 -1.1106 -0.2930 -0.4693
   93SAPC  H20R 9025   3.598   4.337   4.340  1.4412  0.0784 -0.4271
   93SAPC  H20S 9026   3.537   4.491   4.258  0.6962  2.0591 -0.2560
   93SAPC  H20T 9027   3.513   4.460   4.437  0.0060 -0.4897  0.4374
   93SAPC   C33 9028   5.332   5.126   5.723  0.0098  0.0084  0.8861
   93SAPC   H3X 9029   5.398   5.143   5.810  2.0189 -1.7668 -0.2053
   93SAPC   H3Y 9030   5.255   5.206   5.709  0.5213  0.5510  1.1554
   93SAPC   C34 9031   5.431   5.129   5.602  0.1259 -0.3484  0.5099
   93SAPC   H4X 9032   5.498   5.045   5.629  0.1439 -0.6345 -0.4004
   93SAPC   H4Y 9033   5.483   5.226   5.617 -0.8402 -0.0723  2.3755
   93SAPC   C35 9034   5.369   5.131   5.458  0.1022  0.3481  0.6875
   93SAPC   H5X 9035   5.287   5.206   5.455  0.2774  0.6795  2.6584
   93SAPC   H5Y 9036   5.322   5.033   5.435  1.1356  0.1106 -0.4847
   93SAPC   C36 9037   5.473   5.157   5.355 -0.4690  0.0886 -0.4391
   93SAPC   H6X 9038   5.563   5.094   5.363 -0.7902 -0.2511  0.6552
   93SAPC   H6Y 9039   5.513   5.261   5.363  0.2765 -0.2950  1.0884
   93SAPC   C37 9040   5.412   5.140   5.211  0.2231 -0.3199 -0.8661
   93SAPC   H7X 9041   5.325   5.208   5.199 -0.5729 -1.1084  0.2119
   93SAPC   H7Y 9042   5.375   5.037   5.195  1.2218 -0.7472 -0.4984
   93SAPC   C38 9043   5.503   5.160   5.092 -0.8746 -0.7553 -0.0159
   93SAPC   H8X 9044   5.581   5.080   5.090 -0.6428 -1.0463  5.4343
   93SAPC   H8Y 9045   5.571   5.245   5.116 -0.3186 -1.3569  0.6261
   93SAPC   C39 9046   5.431   5.183   4.962 -0.4653 -0.2059  0.4647
   93SAPC   H9X 9047   5.355   5.264   4.964  0.8557  1.1371 -0.9416
   93SAPC   H9Y 9048   5.369   5.095   4.938 -1.4079  1.0421 -2.0220
   93SAPC  C310 9049   5.523   5.195   4.837  1.0655 -0.3253  0.5090
   93SAPC  H10X 9050   5.591   5.108   4.842  1.5223  0.0127  0.2674
   93SAPC  H10Y 9051   5.582   5.289   4.846  0.3793  0.5203 -2.7054
   93SAPC  C311 9052   5.431   5.192   4.706  0.5424  0.1310  0.4319
   93SAPC  H11X 9053   5.366   5.281   4.708  2.0232  1.2321  1.0738
   93SAPC  H11Y 9054   5.374   5.096   4.702  0.4419  0.2327 -1.9650
   93SAPC  C312 9055   5.512   5.185   4.584  0.4729 -0.5819 -0.3301
   93SAPC  H12X 9056   5.569   5.090   4.576  0.1096 -0.8333  0.0726
   93SAPC  H12Y 9057   5.584   5.270   4.586  0.3001 -0.4457  0.2683
   93SAPC  C313 9058   5.429   5.198   4.452  0.0397 -0.7235  0.7349
   93SAPC  H13X 9059   5.376   5.294   4.436  1.8421  0.4017  1.2225
   93SAPC  H13Y 9060   5.349   5.122   4.472 -0.7120  0.0868  0.8571
   93SAPC  C314 9061   5.514   5.146   4.336 -0.0280  0.2433 -0.3844
   93SAPC  H14X 9062   5.536   5.040   4.357 -1.9869  0.1609  1.6208
   93SAPC  H14Y 9063   5.610   5.202   4.346  0.5681 -1.1766  4.3283
   93SAPC  C315 9064   5.440   5.159   4.203  0.1396 -0.0399  0.2840
   93SAPC  H15X 9065   5.399   5.262   4.200  1.0368  0.3119 -2.0050
   93SAPC  H15Y 9066   5.351   5.092   4.196 -0.0626  0.3791 -3.3810
   93SAPC  C316 9067   5.516   5.155   4.068 -0.0313 -0.1519 -0.4933
   93SAPC  H16X 9068   5.594   5.235   4.073  1.0045 -1.2256  1.6625
   93SAPC  H16Y 9069   5.436   5.166   3.992  1.3412 -0.8930 -2.1080
   93SAPC  C317 9070   5.583   5.024   4.011  0.1427  0.8462  0.0915
   93SAPC  H17X 9071   5.509   4.943   3.991  1.0100 -0.6387  2.4927
   93SAPC  H17Y 9072   5.643   4.993   4.099 -0.8167 -0.3132  0.3707
   93SAPC  C318 9073   5.671   5.044   3.887  0.2848 -0.4435 -0.1249
   93SAPC  H18X 9074   5.699   4.950   3.835  3.3922  0.8451 -1.0336
   93SAPC  H18Y 9075   5.771   5.086   3.915  0.0611 -0.2768  0.4344
   93SAPC  H18Z 9076   5.634   5.123   3.818  0.4070  0.2874  0.6211
   94SAPC     N 9077   5.571   3.020   6.323 -0.0993 -0.1587  0.4224
   94SAPC   C12 9078   5.474   3.010   6.203  0.0441  1.3269  0.6664
   94SAPC  H12A 9079   5.417   2.918   6.210  1.6666  0.1938 -0.4318
   94SAPC  H12B 9080   5.531   2.986   6.115 -1.0256 -1.8985  0.7075
   94SAPC   C13 9081   5.650   2.891   6.346  0.1367  0.3877  1.0292
   94SAPC  H13A 9082   5.736   2.908   6.410  2.4688 -3.2062 -0.7642
   94SAPC  H13B 9083   5.575   2.823   6.383 -2.0820  2.1126 -0.0454
   94SAPC  H13C 9084   5.689   2.855   6.252  1.2295  1.2025  1.1509
   94SAPC   C14 9085   5.670   3.128   6.305 -0.1532  0.7960 -0.1926
   94SAPC  H14A 9086   5.616   3.221   6.293  1.0766  1.3657 -1.5607
   94SAPC  H14B 9087   5.726   3.135   6.398  1.3077  0.7820 -1.0407
   94SAPC  H14C 9088   5.736   3.113   6.221 -1.2225  0.4940 -0.9980
   94SAPC   C15 9089   5.490   3.052   6.447 -0.3821 -0.4371 -0.5021
   94SAPC  H15A 9090   5.548   3.041   6.537 -1.7198  2.6443  0.8753
   94SAPC  H15B 9091   5.442   3.149   6.446  1.9670  0.8381  1.3413
   94SAPC  H15C 9092   5.409   2.982   6.463 -0.1025 -0.8208 -0.7596
   94SAPC   C11 9093   5.375   3.123   6.170 -0.0137  0.0596 -0.0352
   94SAPC  H11A 9094   5.325   3.090   6.076  0.3973  2.6527 -1.2606
   94SAPC  H11B 9095   5.440   3.211   6.149 -0.0542 -0.3272 -1.9381
   94SAPC     P 9096   5.148   3.071   6.307 -0.2993  0.0474 -0.0565
   94SAPC   O13 9097   5.196   2.954   6.393  0.8370  0.2629  0.3867
   94SAPC   O14 9098   5.047   3.158   6.368 -0.2099 -0.5127  0.2429
   94SAPC   O12 9099   5.279   3.152   6.274 -0.3079 -0.3014  0.1285
   94SAPC   O11 9100   5.098   3.024   6.166  0.0251 -0.4981 -0.2594
   94SAPC    C1 9101   5.092   2.876   6.134  0.1125 -0.4752  0.1688
   94SAPC    HA 9102   5.193   2.833   6.111  0.2800  1.6660 -4.3242
   94SAPC    HB 9103   5.049   2.815   6.215 -1.8549  0.4213 -0.1398
   94SAPC    C2 9104   4.997   2.854   6.013 -0.6779  0.0688  0.5345
   94SAPC    HS 9105   5.012   2.747   5.985  0.4555  0.8965 -2.3711
   94SAPC   O21 9106   5.040   2.923   5.895 -0.2805  0.2013  0.2044
   94SAPC   C21 9107   5.159   2.907   5.846 -0.5668  0.3322  0.5478
   94SAPC   O22 9108   5.237   2.818   5.866 -0.3072  0.1417 -0.4391
   94SAPC   C22 9109   5.186   3.021   5.741 -0.5666 -0.1075  0.0824
   94SAPC   H2R 9110   5.087   3.064   5.714 -1.1244 -0.9799  0.6381
   94SAPC   H2S 9111   5.244   3.098   5.795 -1.3613  0.4113  0.2113
   94SAPC    C3 9112   4.851   2.888   6.046 -0.4103  0.3401  0.0228
   94SAPC    HX 9113   4.849   2.980   6.108 -0.6068 -0.7683  1.7222
   94SAPC    HY 9114   4.811   2.806   6.109 -0.8251 -0.3166 -1.0618
   94SAPC   O31 9115   4.777   2.884   5.924  0.0509 -0.3209  0.4001
   94SAPC   C31 9116   4.759   3.001   5.863  0.2652  0.5116  0.4432
   94SAPC   O32 9117   4.793   3.112   5.905 -0.4654 -0.0941  0.3927
   94SAPC   C32 9118   4.691   2.968   5.730  0.2045 -0.3571  0.1295
   94SAPC   H2X 9119   4.591   2.921   5.746  0.1701 -0.5086 -0.4952
   94SAPC   H2Y 9120   4.745   2.882   5.684  0.8624  0.3977 -0.5439
   94SAPC   C23 9121   5.275   2.991   5.611  0.2731  0.1037  0.3244
   94SAPC   H3R 9122   5.378   2.957   5.638  0.3124 -0.8331 -0.9058
   94SAPC   H3S 9123   5.291   3.089   5.562 -2.2943  1.3727  1.8132
   94SAPC   C24 9124   5.197   2.901   5.514 -0.3101  1.5640 -0.9116
   94SAPC   H4R 9125   5.172   2.816   5.581 -3.1768  2.9766 -0.0203
   94SAPC   H4S 9126   5.261   2.858   5.434  0.3971 -0.3826  0.6154
   94SAPC   C25 9127   5.072   2.953   5.453 -0.5268  0.5565  0.3758
   94SAPC   H5R 9128   5.020   3.032   5.508 -1.6775 -0.4833  0.8088
   94SAPC   C26 9129   5.017   2.898   5.337  0.5908 -0.0033 -0.8696
   94SAPC   H6R 9130   4.927   2.957   5.310  1.4295  2.2133  0.8255
   94SAPC   C27 9131   5.056   2.777   5.254  0.6981 -0.4256  0.1225
   94SAPC   H7R 9132   5.145   2.731   5.301 -0.1823 -0.9866  1.2946
   94SAPC   H7S 9133   5.085   2.803   5.150 -0.1219  0.1936  0.0346
   94SAPC   C28 9134   4.950   2.671   5.237 -0.8409  0.2184  0.5727
   94SAPC   H8R 9135   4.919   2.624   5.331 -1.7712  0.9531  0.6525
   94SAPC   C29 9136   4.887   2.618   5.132 -0.4035  0.1314 -0.2149
   94SAPC   H9R 9137   4.822   2.531   5.151  0.2636  0.0048  1.6475
   94SAPC  C210 9138   4.905   2.640   4.988 -0.3698 -0.0349  0.4202
   94SAPC  H10R 9139   4.905   2.748   4.961  1.7390 -0.1014 -0.0026
   94SAPC  H10S 9140   4.811   2.603   4.941 -0.9740  0.1205  1.4637
   94SAPC  C211 9141   5.027   2.572   4.943  0.9016  0.3147  0.3543
   94SAPC  H11R 9142   5.102   2.569   5.023 -0.8702 -1.7799  2.0765
   94SAPC  C212 9143   5.046   2.533   4.815 -0.1718 -0.4580  0.4401
   94SAPC  H12R 9144   5.143   2.494   4.780  0.6743  0.5935  1.5455
   94SAPC  C213 9145   4.941   2.546   4.705 -1.0936 -0.4555  0.4763
   94SAPC  H13R 9146   4.999   2.567   4.613 -1.3305 -1.9400 -0.0330
   94SAPC  H13S 9147   4.866   2.627   4.715 -1.5657 -0.8711  0.3404
   94SAPC  C214 9148   4.876   2.412   4.684  0.1889 -0.6146  0.4632
   94SAPC  H14R 9149   4.855   2.367   4.782 -2.0609 -0.7074 -0.0168
   94SAPC  C215 9150   4.827   2.355   4.574  0.4076 -0.1464  0.5183
   94SAPC  H15R 9151   4.772   2.260   4.575 -1.9838  1.1343  2.4358
   94SAPC  C216 9152   4.836   2.423   4.440 -0.1746 -0.0988 -0.3750
   94SAPC  H16R 9153   4.941   2.410   4.406 -0.4755  0.7215 -1.6933
   94SAPC  H16S 9154   4.829   2.534   4.444  0.1768 -0.0681 -0.5521
   94SAPC  C217 9155   4.752   2.360   4.329  0.0984 -0.2210 -0.1418
   94SAPC  H17R 9156   4.782   2.407   4.233 -2.5806  1.1847 -0.3949
   94SAPC  H17S 9157   4.646   2.379   4.357  0.9968  0.5098  3.1982
   94SAPC  C218 9158   4.776   2.209   4.310 -0.4365  0.4978  0.3822
   94SAPC  H18R 9159   4.704   2.156   4.375 -0.4757  1.0423  0.7885
   94SAPC  H18S 9160   4.878   2.197   4.352  0.0287  3.7200  0.4482
   94SAPC  C219 9161   4.761   2.155   4.167  0.0226 -0.5758  0.3194
   94SAPC  H19R 9162   4.811   2.226   4.097  1.6742 -2.9316 -1.0232
   94SAPC  H19S 9163   4.657   2.139   4.129 -0.2354 -2.1346  1.6093
   94SAPC  C220 9164   4.820   2.018   4.146 -0.9697  0.6104 -0.1231
   94SAPC  H20R 9165   4.927   2.020   4.178 -1.0464 -1.5804  0.4110
   94SAPC  H20S 9166   4.813   1.983   4.041 -1.0989 -1.0225  0.3983
   94SAPC  H20T 9167   4.771   1.945   4.213 -0.1211  0.6155  0.5273
   94SAPC   C33 9168   4.686   3.072   5.624 -0.4709 -0.3576 -0.3027
   94SAPC   H3X 9169   4.790   3.095   5.593 -0.7441 -0.7434 -1.5265
   94SAPC   H3Y 9170   4.644   3.169   5.659  1.5973  0.2238  0.7382
   94SAPC   C34 9171   4.610   3.026   5.498  0.4847 -1.1583  0.0161
   94SAPC   H4X 9172   4.609   3.105   5.419 -0.2256 -3.1944 -2.1237
   94SAPC   H4Y 9173   4.503   3.006   5.518 -0.2542 -0.6131 -2.9191
   94SAPC   C35 9174   4.658   2.886   5.439  0.1410  0.1066  0.3112
   94SAPC   H5X 9175   4.627   2.808   5.511 -0.7014 -1.0404 -1.2369
   94SAPC   H5Y 9176   4.769   2.880   5.439  0.0574 -1.9731 -0.3227
   94SAPC   C36 9177   4.587   2.851   5.301  0.5039 -0.5504  0.0335
   94SAPC   H6X 9178   4.478   2.840   5.323 -0.2344  0.4241 -2.7538
   94SAPC   H6Y 9179   4.623   2.752   5.268  0.6669 -0.1458 -1.0325
   94SAPC   C37 9180   4.622   2.956   5.190 -0.3224 -0.1513  0.2041
   94SAPC   H7X 9181   4.729   2.983   5.203  0.3805 -2.2384 -0.8339
   94SAPC   H7Y 9182   4.564   3.051   5.200 -1.9345 -1.1573  0.9218
   94SAPC   C38 9183   4.586   2.885   5.060 -0.0610  0.0826 -0.1349
   94SAPC   H8X 9184   4.478   2.876   5.035 -0.2109 -0.9596  0.8507
   94SAPC   H8Y 9185   4.623   2.780   5.058  0.7531  0.3108  1.5609
   94SAPC   C39 9186   4.645   2.957   4.937 -0.1621  0.2443 -0.0302
   94SAPC   H9X 9187   4.752   2.981   4.955 -0.5208  1.8219  0.1861
   94SAPC   H9Y 9188   4.583   3.044   4.906 -0.9795 -1.2516 -2.9670
   94SAPC  C310 9189   4.636   2.873   4.806  0.2593  0.2734  0.5448
   94SAPC  H10X 9190   4.540   2.817   4.795  1.4210 -1.7603  0.3077
   94SAPC  H10Y 9191   4.722   2.804   4.808 -0.8448 -1.2332 -1.3121
   94SAPC  C311 9192   4.640   2.958   4.681 -0.4188  0.5419 -0.0366
   94SAPC  H11X 9193   4.714   3.035   4.709  1.4253 -1.2026  0.1216
   94SAPC  H11Y 9194   4.542   2.997   4.646 -1.8732 -3.0640 -0.4962
   94SAPC  C312 9195   4.702   2.876   4.569 -0.1473  0.3095  0.0856
   94SAPC  H12X 9196   4.656   2.776   4.558 -0.8325  0.5221  0.8651
   94SAPC  H12Y 9197   4.803   2.864   4.613 -0.1281  0.0036 -0.0419
   94SAPC  C313 9198   4.709   2.951   4.434 -0.5964  0.1042  0.2056
   94SAPC  H13X 9199   4.737   3.058   4.448 -1.3129  0.4964 -1.1538
   94SAPC  H13Y 9200   4.605   2.950   4.397 -0.4528  0.4118 -0.2198
   94SAPC  C314 9201   4.797   2.889   4.324 -0.1623 -0.7956  0.5496
   94SAPC  H14X 9202   4.757   2.787   4.303 -0.8008 -0.3219 -0.6404
   94SAPC  H14Y 9203   4.902   2.886   4.362 -0.1267  1.6497  0.7540
   94SAPC  C315 9204   4.779   2.965   4.187 -0.2099 -0.4740  0.6571
   94SAPC  H15X 9205   4.823   3.067   4.189  0.1337 -0.5692 -0.6526
   94SAPC  H15Y 9206   4.676   2.976   4.147 -0.5070 -0.6600  1.3635
   94SAPC  C316 9207   4.874   2.893   4.089  0.6050  0.1753  0.1878
   94SAPC  H16X 9208   4.968   2.880   4.146  1.0753  2.7402  0.1310
   94SAPC  H16Y 9209   4.911   2.948   3.999  2.3606 -0.5595  0.4266
   94SAPC  C317 9210   4.807   2.766   4.035  0.2472  0.5353  0.0890
   94SAPC  H17X 9211   4.715   2.795   3.981 -0.1398  1.3526  1.1683
   94SAPC  H17Y 9212   4.771   2.705   4.121 -1.6715  0.3525 -0.8090
   94SAPC  C318 9213   4.891   2.672   3.953  0.5219  0.0457  0.1312
   94SAPC  H18X 9214   4.969   2.616   4.009 -0.3415 -2.2719 -0.8874
   94SAPC  H18Y 9215   4.938   2.729   3.870  0.7222 -0.3757 -0.0469
   94SAPC  H18Z 9216   4.830   2.588   3.912 -0.4099  1.2130 -0.9593
   95SAPC     N 9217   2.445   6.622   1.339 -0.0777  0.3206 -0.0645
   95SAPC   C12 9218   2.420   6.773   1.323 -0.2110  0.2997 -0.6056
   95SAPC  H12A 9219   2.423   6.804   1.220  0.1160 -1.7380 -1.2697
   95SAPC  H12B 9220   2.493   6.828   1.380  0.6322 -1.4084  0.0550
   95SAPC   C13 9221   2.433   6.564   1.475 -0.1350 -0.3894  0.2402
   95SAPC  H13A 9222   2.454   6.459   1.481 -0.1069 -0.3946  0.0343
   95SAPC  H13B 9223   2.500   6.608   1.548 -0.4470  0.1568  0.2105
   95SAPC  H13C 9224   2.332   6.585   1.508  0.0374  2.6198 -0.8405
   95SAPC   C14 9225   2.353   6.546   1.247 -0.0750  0.2736  0.8365
   95SAPC  H14A 9226   2.252   6.533   1.283 -1.1803 -0.7713 -2.3138
   95SAPC  H14B 9227   2.351   6.580   1.145  1.7908  0.5430  0.8657
   95SAPC  H14C 9228   2.397   6.448   1.234 -0.6976  0.1232 -0.2410
   95SAPC   C15 9229   2.588   6.596   1.296 -0.5411 -0.6809 -0.4745
   95SAPC  H15A 9230   2.621   6.494   1.289 -0.5995 -0.8022  0.7275
   95SAPC  H15B 9231   2.593   6.632   1.195 -2.6694  2.3235  0.3517
   95SAPC  H15C 9232   2.657   6.644   1.365 -0.4508 -1.6692  0.1513
   95SAPC   C11 9233   2.292   6.818   1.398  0.1679  0.2559  0.4153
   95SAPC  H11A 9234   2.274   6.925   1.374 -1.0369  0.0257  0.2162
   95SAPC  H11B 9235   2.316   6.799   1.505  0.8357 -1.4908 -0.0008
   95SAPC     P 9236   2.048   6.740   1.427  0.1001 -0.5748  0.3382
   95SAPC   O13 9237   2.029   6.873   1.493 -0.5398  0.4752 -0.0852
   95SAPC   O14 9238   1.938   6.688   1.342 -0.1925  0.5414 -0.6428
   95SAPC   O12 9239   2.182   6.740   1.349 -0.3371 -0.5654 -0.3673
   95SAPC   O11 9240   2.094   6.640   1.536 -0.1646 -0.2165 -0.2745
   95SAPC    C1 9241   2.140   6.694   1.664 -0.0246 -0.1093 -1.0719
   95SAPC    HA 9242   2.232   6.646   1.704  0.0640  1.0156  0.1255
   95SAPC    HB 9243   2.167   6.802   1.664 -1.5215  0.3971  2.9752
   95SAPC    C2 9244   2.026   6.697   1.769  0.0623 -0.4547 -0.1965
   95SAPC    HS 9245   1.945   6.754   1.719  1.2057  0.5401 -0.9654
   95SAPC   O21 9246   2.064   6.762   1.891  0.1577 -0.0593 -0.4945
   95SAPC   C21 9247   1.961   6.790   1.971 -0.4461 -0.1965 -0.2160
   95SAPC   O22 9248   1.844   6.771   1.949  0.2894 -0.2889 -0.4235
   95SAPC   C22 9249   2.018   6.839   2.109  0.6040  0.2794 -0.1249
   95SAPC   H2R 9250   2.046   6.746   2.162 -0.0370  0.8009  1.1724
   95SAPC   H2S 9251   2.112   6.893   2.089  0.4807  0.7416  0.5145
   95SAPC    C3 9252   1.984   6.551   1.798 -0.1143  0.9191 -0.6333
   95SAPC    HX 9253   1.963   6.498   1.704 -0.8309 -0.2002  0.1357
   95SAPC    HY 9254   1.889   6.553   1.856 -0.3312  1.1922 -0.9959
   95SAPC   O31 9255   2.093   6.473   1.861 -0.2601 -0.2654 -0.1109
   95SAPC   C31 9256   2.086   6.460   2.000  0.3135 -0.3102  0.4139
   95SAPC   O32 9257   2.012   6.517   2.075  0.1541  0.3807  0.4212
   95SAPC   C32 9258   2.198   6.371   2.052 -0.5921 -0.1428  0.3878
   95SAPC   H2X 9259   2.291   6.431   2.059  0.4648 -1.7887  1.1763
   95SAPC   H2Y 9260   2.204   6.287   1.981  1.9120  0.1371  0.1707
   95SAPC   C23 9261   1.933   6.941   2.186  0.0080  0.2389  0.0238
   95SAPC   H3R 9262   1.828   6.904   2.187  1.0074 -2.8794  0.1369
   95SAPC   H3S 9263   1.947   7.036   2.130  2.1458 -0.4955 -0.8173
   95SAPC   C24 9264   1.973   6.950   2.333 -0.4392 -1.0079  0.0421
   95SAPC   H4R 9265   1.964   6.852   2.384  0.4608 -0.8924  0.4417
   95SAPC   H4S 9266   1.907   7.022   2.386  0.0795 -0.1436 -0.4616
   95SAPC   C25 9267   2.108   7.015   2.350 -0.0797 -0.2253 -0.0757
   95SAPC   H5R 9268   2.137   7.078   2.265 -0.0719 -0.1961 -0.0516
   95SAPC   C26 9269   2.188   7.028   2.454 -0.5851  0.9705  0.8847
   95SAPC   H6R 9270   2.283   7.082   2.445 -1.0449  1.5727 -0.8979
   95SAPC   C27 9271   2.159   6.964   2.588  0.3794  0.3264 -0.3573
   95SAPC   H7R 9272   2.068   6.901   2.590  0.9138 -0.4700 -0.4698
   95SAPC   H7S 9273   2.131   7.041   2.662  0.2869 -0.4161  0.3926
   95SAPC   C28 9274   2.259   6.865   2.643 -0.0350 -1.2322  0.4787
   95SAPC   H8R 9275   2.327   6.820   2.569  0.2348  0.7387 -0.5432
   95SAPC   C29 9276   2.273   6.836   2.777 -0.1169  0.0096 -0.1827
   95SAPC   H9R 9277   2.342   6.758   2.810 -0.4901  0.1781  1.0218
   95SAPC  C210 9278   2.181   6.883   2.888 -0.4927  0.6980  0.1207
   95SAPC  H10R 9279   2.080   6.878   2.843 -1.2994  1.1858  1.7734
   95SAPC  H10S 9280   2.197   6.985   2.929  2.3547  0.9525 -1.3928
   95SAPC  C211 9281   2.182   6.792   3.009  0.2929  0.3748  0.0949
   95SAPC  H11R 9282   2.202   6.686   2.984 -1.1499  0.3424 -1.0837
   95SAPC  C212 9283   2.155   6.808   3.136  0.1297 -0.5337  0.1503
   95SAPC  H12R 9284   2.167   6.727   3.209  1.2480  0.3250  0.9602
   95SAPC  C213 9285   2.099   6.935   3.201  0.1045  0.3656 -0.0725
   95SAPC  H13R 9286   1.998   6.912   3.240  1.6848 -2.1044  2.9625
   95SAPC  H13S 9287   2.101   7.006   3.115  0.8509 -0.5236 -0.8151
   95SAPC  C214 9288   2.191   6.984   3.307 -0.2534 -0.5767  0.1741
   95SAPC  H14R 9289   2.279   7.035   3.265 -0.3055 -1.4046 -0.9777
   95SAPC  C215 9290   2.182   6.973   3.442  0.3226  0.4040 -0.0508
   95SAPC  H15R 9291   2.259   7.021   3.505 -1.3786  4.1518 -0.5671
   95SAPC  C216 9292   2.071   6.899   3.514 -0.5905 -0.3215 -0.1968
   95SAPC  H16R 9293   1.985   6.880   3.446 -2.0762  2.3079  0.7852
   95SAPC  H16S 9294   2.034   6.971   3.590 -1.3600 -2.1355  1.1938
   95SAPC  C217 9295   2.129   6.773   3.586  0.4593  0.4761 -0.8219
   95SAPC  H17R 9296   2.140   6.693   3.510 -1.6141  0.6276 -1.3415
   95SAPC  H17S 9297   2.049   6.741   3.657 -0.4176 -0.4516 -2.1763
   95SAPC  C218 9298   2.250   6.809   3.668  0.3444 -0.1431  0.5269
   95SAPC  H18R 9299   2.214   6.881   3.745 -2.0149  0.6180 -1.1707
   95SAPC  H18S 9300   2.334   6.856   3.613 -0.4031  0.4823 -0.0959
   95SAPC  C219 9301   2.295   6.687   3.747 -0.1193  0.2417  0.3247
   95SAPC  H19R 9302   2.337   6.608   3.680 -1.7786 -0.1227 -0.3267
   95SAPC  H19S 9303   2.213   6.644   3.808  0.2329 -0.3876  0.3693
   95SAPC  C220 9304   2.404   6.720   3.844  0.3863  0.3596  0.2245
   95SAPC  H20R 9305   2.445   6.629   3.893 -0.5101 -1.1281 -1.6602
   95SAPC  H20S 9306   2.369   6.777   3.933  0.0497 -0.5279  0.6726
   95SAPC  H20T 9307   2.486   6.782   3.802  0.5019  0.1571  0.1493
   95SAPC   C33 9308   2.169   6.312   2.194  0.2151  0.0601 -0.2201
   95SAPC   H3X 9309   2.200   6.205   2.194  2.0890  0.5687  0.6682
   95SAPC   H3Y 9310   2.062   6.310   2.225  0.4464  1.6935  0.7835
   95SAPC   C34 9311   2.249   6.379   2.306 -0.0337  0.0972  0.5680
   95SAPC   H4X 9312   2.205   6.477   2.335  2.1660  0.7879  1.8228
   95SAPC   H4Y 9313   2.348   6.398   2.260 -1.1444  4.8230 -0.4403
   95SAPC   C35 9314   2.254   6.302   2.433 -0.5454 -0.0766 -0.8395
   95SAPC   H5X 9315   2.317   6.357   2.506 -0.1208 -0.6017 -0.7965
   95SAPC   H5Y 9316   2.293   6.198   2.422 -3.2797 -1.1315 -1.2179
   95SAPC   C36 9317   2.117   6.292   2.496  0.1624 -0.6610  0.4316
   95SAPC   H6X 9318   2.050   6.236   2.428 -2.4702  3.4206 -0.7007
   95SAPC   H6Y 9319   2.073   6.394   2.503  1.1060 -0.2605  0.6155
   95SAPC   C37 9320   2.101   6.236   2.640 -0.1604  0.1772  0.6712
   95SAPC   H7X 9321   2.143   6.133   2.634  0.7118  0.5276  0.6182
   95SAPC   H7Y 9322   1.992   6.232   2.658 -0.1587  2.0193  1.2092
   95SAPC   C38 9323   2.162   6.319   2.753 -0.1088  0.0939  0.1477
   95SAPC   H8X 9324   2.117   6.421   2.746  1.6585  0.8635 -0.6652
   95SAPC   H8Y 9325   2.272   6.323   2.738  0.1570 -0.9156  1.6488
   95SAPC   C39 9326   2.140   6.255   2.889 -0.3639 -0.5914 -0.6520
   95SAPC   H9X 9327   2.189   6.156   2.882 -2.1499 -1.6691  1.0042
   95SAPC   H9Y 9328   2.031   6.232   2.890 -0.6123  0.1916 -3.0563
   95SAPC  C310 9329   2.195   6.336   2.997 -0.3894 -0.0454  1.1985
   95SAPC  H10X 9330   2.151   6.439   2.994  0.9829  0.5451  0.0239
   95SAPC  H10Y 9331   2.303   6.350   2.974 -0.7027  1.7784  0.6406
   95SAPC  C311 9332   2.184   6.270   3.137 -0.0037 -0.2866  0.1811
   95SAPC  H11X 9333   2.233   6.171   3.136 -0.7607 -0.6717 -1.3676
   95SAPC  H11Y 9334   2.080   6.241   3.164 -0.8189  0.4222 -1.9576
   95SAPC  C312 9335   2.242   6.355   3.253 -0.4286  0.2931  0.2193
   95SAPC  H12X 9336   2.191   6.453   3.252  0.0907  0.6101  2.0216
   95SAPC  H12Y 9337   2.347   6.367   3.217 -0.7812 -1.4043 -1.5804
   95SAPC  C313 9338   2.239   6.280   3.382  0.0923 -0.5767  0.3436
   95SAPC  H13X 9339   2.241   6.170   3.365 -0.4685 -0.8927  2.0689
   95SAPC  H13Y 9340   2.143   6.304   3.434 -0.3864  2.0005 -1.5602
   95SAPC  C314 9341   2.352   6.322   3.481  0.3776  0.8530  0.1586
   95SAPC  H14X 9342   2.364   6.431   3.496  1.0573  0.8073 -0.0521
   95SAPC  H14Y 9343   2.446   6.281   3.439  0.0986  0.6162 -0.2549
   95SAPC  C315 9344   2.345   6.250   3.618  0.0465 -0.5447 -0.1052
   95SAPC  H15X 9345   2.323   6.143   3.595 -2.6812 -0.2897  0.9734
   95SAPC  H15Y 9346   2.259   6.285   3.677 -0.6394 -0.4652 -1.1236
   95SAPC  C316 9347   2.475   6.249   3.699  0.3945 -0.4185  0.1389
   95SAPC  H16X 9348   2.535   6.162   3.664 -0.5808 -1.0578  0.0028
   95SAPC  H16Y 9349   2.454   6.223   3.805  0.7960  1.0806  0.6061
   95SAPC  C317 9350   2.565   6.366   3.676  0.1207 -0.1257 -0.3973
   95SAPC  H17X 9351   2.508   6.458   3.700  2.9599  2.0825 -1.5068
   95SAPC  H17Y 9352   2.587   6.377   3.568 -0.9614 -3.4211 -1.0535
   95SAPC  C318 9353   2.692   6.353   3.750  0.0587  0.3614 -0.5412
   95SAPC  H18X 9354   2.749   6.447   3.740  0.1669  0.1472 -2.1198
   95SAPC  H18Y 9355   2.746   6.262   3.718 -2.6583 -1.9792  0.9916
   95SAPC  H18Z 9356   2.681   6.333   3.859 -0.3372  0.9152 -0.4737
   96SAPC     N 9357   3.464   2.288   1.674  0.7103 -0.2456  0.2103
   96SAPC   C12 9358   3.452   2.249   1.819  0.3583  0.3606 -0.9326
   96SAPC  H12A 9359   3.545   2.259   1.874 -0.0570 -0.6914 -0.0033
   96SAPC  H12B 9360   3.448   2.142   1.826  2.2671  0.2818 -0.3863
   96SAPC   C13 9361   3.493   2.431   1.666  0.4656  0.0390 -0.2787
   96SAPC  H13A 9362   3.505   2.448   1.560  2.6163 -2.0649 -0.4518
   96SAPC  H13B 9363   3.407   2.494   1.682 -0.2119 -0.6757 -0.9965
   96SAPC  H13C 9364   3.582   2.462   1.720  1.1745 -1.2459 -0.6755
   96SAPC   C14 9365   3.579   2.221   1.605  0.3309 -0.0159  0.3891
   96SAPC  H14A 9366   3.570   2.262   1.505  0.6322 -0.9709 -0.0405
   96SAPC  H14B 9367   3.673   2.242   1.652  0.2344  2.9373 -0.5285
   96SAPC  H14C 9368   3.562   2.115   1.595  2.4527 -0.3439 -0.2259
   96SAPC   C15 9369   3.338   2.253   1.598 -0.0662  0.2253 -0.0822
   96SAPC  H15A 9370   3.344   2.146   1.583  0.4917  0.3982 -1.2412
   96SAPC  H15B 9371   3.248   2.281   1.651  0.7569  1.0638  0.9093
   96SAPC  H15C 9372   3.330   2.293   1.498  1.6530  2.7459  0.6883
   96SAPC   C11 9373   3.337   2.296   1.909  0.3238 -0.0716  0.0837
   96SAPC  H11A 9374   3.319   2.404   1.894 -0.3120  0.1197  1.9069
   96SAPC  H11B 9375   3.365   2.271   2.014  0.5806  0.0784  0.0519
   96SAPC     P 9376   3.071   2.266   1.895  0.3910  0.0705  0.3722
   96SAPC   O13 9377   3.050   2.390   1.810 -0.3295  0.1252  0.1262
   96SAPC   O14 9378   2.998   2.139   1.866  0.2246 -0.2807 -0.0121
   96SAPC   O12 9379   3.222   2.215   1.870  0.4303  0.1138  0.1401
   96SAPC   O11 9380   3.050   2.301   2.049  0.2673 -0.8580 -0.3962
   96SAPC    C1 9381   3.107   2.216   2.149 -0.0975  0.9116 -0.6661
   96SAPC    HA 9382   3.201   2.165   2.120 -0.0376 -0.0196  1.0307
   96SAPC    HB 9383   3.134   2.276   2.239 -0.9106 -0.1554  0.3257
   96SAPC    C2 9384   3.004   2.111   2.206 -0.6175 -0.3938 -0.9780
   96SAPC    HS 9385   2.935   2.082   2.124  0.9093 -0.0061 -2.4738
   96SAPC   O21 9386   2.952   2.158   2.331 -0.7223  0.0054  0.0728
   96SAPC   C21 9387   2.820   2.145   2.339  0.2992  0.1128 -0.4581
   96SAPC   O22 9388   2.745   2.093   2.265 -0.6137  0.3423  0.0913
   96SAPC   C22 9389   2.773   2.216   2.464  0.1832 -0.2667 -0.3855
   96SAPC   H2R 9390   2.856   2.247   2.531  0.6374 -0.0872 -1.0313
   96SAPC   H2S 9391   2.731   2.314   2.432 -0.1560 -0.6447 -1.1218
   96SAPC    C3 9392   3.079   1.979   2.244 -0.7564 -1.0694 -0.5130
   96SAPC    HX 9393   3.157   1.995   2.321 -0.0229 -2.6130 -0.9018
   96SAPC    HY 9394   3.130   1.951   2.150  2.1485  1.2827  0.2331
   96SAPC   O31 9395   2.988   1.880   2.301  0.4060 -0.4470  0.0090
   96SAPC   C31 9396   2.907   1.826   2.211  0.2491 -0.1344 -0.1823
   96SAPC   O32 9397   2.904   1.844   2.088  0.4278 -0.4958  0.0579
   96SAPC   C32 9398   2.814   1.718   2.273  0.2924  0.1881 -0.0663
   96SAPC   H2X 9399   2.795   1.749   2.378 -1.0210 -0.2558 -0.1652
   96SAPC   H2Y 9400   2.877   1.626   2.281 -0.5870 -0.3214  1.7784
   96SAPC   C23 9401   2.683   2.128   2.551 -0.0898  0.4063 -0.9664
   96SAPC   H3R 9402   2.616   2.067   2.486  1.7026 -2.2953 -0.4480
   96SAPC   H3S 9403   2.626   2.207   2.605 -0.2459 -0.0002 -0.5275
   96SAPC   C24 9404   2.749   2.041   2.661  0.2890 -0.7440  0.0225
   96SAPC   H4R 9405   2.669   2.001   2.727  1.3695 -1.3297  1.0111
   96SAPC   H4S 9406   2.807   2.108   2.727 -0.0273 -1.2337  0.8133
   96SAPC   C25 9407   2.833   1.927   2.627 -0.7868 -0.1773  0.4751
   96SAPC   H5R 9408   2.881   1.918   2.529 -1.4669  0.6340  0.0601
   96SAPC   C26 9409   2.858   1.817   2.698  0.6460  0.2592 -0.3265
   96SAPC   H6R 9410   2.923   1.743   2.649 -0.0284 -0.1965 -0.5506
   96SAPC   C27 9411   2.820   1.792   2.841 -0.4998 -0.5218 -0.1279
   96SAPC   H7R 9412   2.749   1.873   2.869 -0.9624 -1.1802  0.6565
   96SAPC   H7S 9413   2.911   1.815   2.900  0.8441 -0.3121 -2.1778
   96SAPC   C28 9414   2.754   1.657   2.864  0.3823  0.9157 -0.1482
   96SAPC   H8R 9415   2.655   1.658   2.816 -0.8280  1.4088  2.1847
   96SAPC   C29 9416   2.812   1.552   2.926 -0.0871  0.3975 -0.2860
   96SAPC   H9R 9417   2.761   1.455   2.936  0.6767  0.1989  2.3804
   96SAPC  C210 9418   2.941   1.562   2.998 -0.2647 -0.4192 -1.3459
   96SAPC  H10R 9419   3.007   1.640   2.956  0.5807 -1.2723 -1.6558
   96SAPC  H10S 9420   3.006   1.475   2.976  2.3211  1.3490 -1.1130
   96SAPC  C211 9421   2.922   1.568   3.148  0.5581  0.1370  0.3400
   96SAPC  H11R 9422   2.818   1.553   3.182  0.2174  1.6720  0.0670
   96SAPC  C212 9423   3.007   1.592   3.246  0.0793  0.2600 -0.5331
   96SAPC  H12R 9424   2.964   1.610   3.346 -2.0627 -0.9804 -1.1720
   96SAPC  C213 9425   3.158   1.600   3.244  0.0235 -0.0052 -0.4289
   96SAPC  H13R 9426   3.209   1.680   3.302  0.2361 -0.2902 -0.2219
   96SAPC  H13S 9427   3.187   1.620   3.138  0.5939  1.7437  0.0169
   96SAPC  C214 9428   3.200   1.459   3.288 -0.2255 -0.1352  0.2159
   96SAPC  H14R 9429   3.194   1.387   3.205  1.2437  1.5654 -1.4753
   96SAPC  C215 9430   3.261   1.426   3.403  0.1154 -0.1062  0.1884
   96SAPC  H15R 9431   3.289   1.324   3.434 -0.5187  0.0179  1.2187
   96SAPC  C216 9432   3.295   1.514   3.515  0.0406  0.1579 -0.3996
   96SAPC  H16R 9433   3.228   1.483   3.598  0.7912 -1.9349 -0.5372
   96SAPC  H16S 9434   3.252   1.613   3.487 -1.6358  0.3734  2.5348
   96SAPC  C217 9435   3.443   1.516   3.554  0.1831  0.8331 -0.7549
   96SAPC  H17R 9436   3.505   1.535   3.465  0.3645 -0.8231 -1.0144
   96SAPC  H17S 9437   3.476   1.416   3.588 -2.1628 -0.3050 -1.5641
   96SAPC  C218 9438   3.462   1.613   3.670  0.0537  0.1370 -0.3956
   96SAPC  H18R 9439   3.409   1.702   3.631  0.0422  0.9711  1.4303
   96SAPC  H18S 9440   3.570   1.633   3.687  0.5536 -1.5759 -1.2906
   96SAPC  C219 9441   3.397   1.559   3.799 -0.5170  0.0618 -0.7433
   96SAPC  H19R 9442   3.433   1.458   3.827  0.8379  0.5070 -0.8174
   96SAPC  H19S 9443   3.286   1.555   3.793 -0.7599  0.6823  1.9966
   96SAPC  C220 9444   3.415   1.645   3.929  0.1269 -0.1316 -0.1057
   96SAPC  H20R 9445   3.514   1.624   3.974 -0.5930  0.0802  1.6920
   96SAPC  H20S 9446   3.347   1.606   4.008  1.3165 -1.8494  0.1093
   96SAPC  H20T 9447   3.405   1.751   3.896 -1.8701 -0.3634 -0.4077
   96SAPC   C33 9448   2.685   1.702   2.195  0.3859 -0.1390  0.2358
   96SAPC   H3X 9449   2.701   1.709   2.085 -0.2243 -0.7964  0.1003
   96SAPC   H3Y 9450   2.634   1.795   2.226  0.2569 -0.8227  2.2271
   96SAPC   C34 9451   2.597   1.587   2.232  0.4788  0.5279  0.4926
   96SAPC   H4X 9452   2.630   1.498   2.174  1.4103  2.2476 -1.7557
   96SAPC   H4Y 9453   2.490   1.611   2.211  0.2995 -0.3831  0.2994
   96SAPC   C35 9454   2.597   1.568   2.391  0.4137  0.5093  0.2811
   96SAPC   H5X 9455   2.551   1.661   2.432 -2.8255 -0.6714 -0.4061
   96SAPC   H5Y 9456   2.699   1.546   2.429 -0.2584 -0.9185  1.3556
   96SAPC   C36 9457   2.506   1.451   2.425 -0.1718 -0.4661  0.0897
   96SAPC   H6X 9458   2.536   1.361   2.367 -0.5452  0.8760 -2.3451
   96SAPC   H6Y 9459   2.399   1.471   2.403  0.1164  2.7925  1.1180
   96SAPC   C37 9460   2.523   1.416   2.572 -0.2550 -0.3895 -1.2426
   96SAPC   H7X 9461   2.510   1.513   2.626 -3.8157  0.2230 -2.8546
   96SAPC   H7Y 9462   2.626   1.383   2.597  0.4225  2.7092  0.6036
   96SAPC   C38 9463   2.423   1.319   2.627 -0.0812 -0.0256  0.3128
   96SAPC   H8X 9464   2.437   1.219   2.581  0.6200 -0.4246  1.3432
   96SAPC   H8Y 9465   2.323   1.343   2.586  0.0453 -0.0547 -0.0115
   96SAPC   C39 9466   2.423   1.300   2.774  0.7256 -0.1555 -0.1831
   96SAPC   H9X 9467   2.385   1.396   2.815 -0.7816  0.2266 -2.2966
   96SAPC   H9Y 9468   2.526   1.270   2.803  0.6972 -1.9118 -1.6809
   96SAPC  C310 9469   2.324   1.185   2.811  0.3956  0.2049  0.3341
   96SAPC  H10X 9470   2.310   1.121   2.721  1.7330  1.8502 -1.1128
   96SAPC  H10Y 9471   2.226   1.237   2.809  0.1075 -0.3468 -0.3016
   96SAPC  C311 9472   2.364   1.114   2.942 -0.8632 -0.2469  0.2099
   96SAPC  H11X 9473   2.459   1.065   2.912 -0.7647  0.0082  0.1048
   96SAPC  H11Y 9474   2.284   1.042   2.970 -0.9579 -0.0012  0.5900
   96SAPC  C312 9475   2.391   1.217   3.049 -0.6883  0.3629 -0.6469
   96SAPC  H12X 9476   2.306   1.277   3.087 -0.9759 -1.3268  1.5337
   96SAPC  H12Y 9477   2.475   1.286   3.023 -2.3720  2.3124 -1.1231
   96SAPC  C313 9478   2.440   1.151   3.179 -0.2669  0.0088  0.4715
   96SAPC  H13X 9479   2.544   1.113   3.177  0.7638  2.5005  2.3599
   96SAPC  H13Y 9480   2.361   1.073   3.194  0.9824 -2.0394 -2.5422
   96SAPC  C314 9481   2.430   1.244   3.297  0.6847  0.0810  0.3632
   96SAPC  H14X 9482   2.329   1.290   3.292 -0.0666 -1.5838 -0.7506
   96SAPC  H14Y 9483   2.493   1.331   3.270 -0.5410  0.4663 -1.4413
   96SAPC  C315 9484   2.470   1.188   3.433  0.3986 -0.2979  0.2942
   96SAPC  H15X 9485   2.557   1.120   3.428  1.0256  0.5474 -0.4870
   96SAPC  H15Y 9486   2.383   1.127   3.466 -0.2443  1.0664  1.2454
   96SAPC  C316 9487   2.473   1.299   3.542 -0.1100 -0.6632 -0.0227
   96SAPC  H16X 9488   2.382   1.361   3.547 -0.1305 -0.4222 -2.3385
   96SAPC  H16Y 9489   2.558   1.366   3.517 -0.8934  1.1570  1.9586
   96SAPC  C317 9490   2.491   1.236   3.684  0.2054 -0.6830 -0.2791
   96SAPC  H17X 9491   2.412   1.160   3.697  0.6627 -0.9631  0.9873
   96SAPC  H17Y 9492   2.465   1.307   3.766 -1.7570 -2.0975  0.3903
   96SAPC  C318 9493   2.625   1.166   3.719  0.2331 -0.3560 -0.2035
   96SAPC  H18X 9494   2.706   1.241   3.726 -0.8776  0.7020  2.8315
   96SAPC  H18Y 9495   2.641   1.084   3.646  1.4494 -0.2497 -0.0830
   96SAPC  H18Z 9496   2.609   1.115   3.817 -1.7564  0.8354  0.1546
   97SAPC     N 9497   1.997   2.089   1.176 -0.4822 -0.0186 -0.0995
   97SAPC   C12 9498   1.881   2.182   1.215 -0.2927 -0.6803  0.7125
   97SAPC  H12A 9499   1.788   2.131   1.234  0.0951 -1.5853  0.2620
   97SAPC  H12B 9500   1.857   2.238   1.126 -0.5987 -0.8585  0.6806
   97SAPC   C13 9501   1.958   1.994   1.068 -0.1846 -0.2326 -0.1176
   97SAPC  H13A 9502   1.911   2.052   0.989 -3.6346  0.0970  1.9440
   97SAPC  H13B 9503   2.044   1.946   1.025  1.0504  0.8694  1.0263
   97SAPC  H13C 9504   1.887   1.916   1.091  1.8157 -2.7354 -1.8219
   97SAPC   C14 9505   2.119   2.164   1.128  0.0754  1.3062 -0.9932
   97SAPC  H14A 9506   2.160   2.229   1.203  3.7077 -0.1018 -1.5635
   97SAPC  H14B 9507   2.199   2.096   1.102  0.0125  0.5375  0.6928
   97SAPC  H14C 9508   2.086   2.216   1.040 -2.3162 -2.0164 -2.2923
   97SAPC   C15 9509   2.048   2.003   1.297 -0.2321 -0.0017  0.0952
   97SAPC  H15A 9510   2.000   1.907   1.300  0.2498 -0.2913 -0.9210
   97SAPC  H15B 9511   2.153   1.989   1.272  0.0256  0.6490  0.7790
   97SAPC  H15C 9512   2.043   2.056   1.391  3.6418 -0.9852  1.0540
   97SAPC   C11 9513   1.902   2.278   1.334 -0.4429  0.6474 -0.1562
   97SAPC  H11A 9514   1.829   2.362   1.332 -0.7876  0.3688 -2.3433
   97SAPC  H11B 9515   2.003   2.323   1.335 -0.3318  0.5940  3.2171
   97SAPC     P 9516   1.771   2.136   1.524 -0.0049 -0.2543 -0.3331
   97SAPC   O13 9517   1.668   2.108   1.422 -0.2064 -0.1520 -0.5575
   97SAPC   O14 9518   1.811   2.024   1.603  0.0058  0.4371 -0.0221
   97SAPC   O12 9519   1.897   2.199   1.449 -0.0011 -0.1127 -1.0235
   97SAPC   O11 9520   1.722   2.254   1.614  0.3363 -0.4347 -0.3421
   97SAPC    C1 9521   1.816   2.307   1.713  0.4540 -0.3108 -0.6693
   97SAPC    HA 9522   1.921   2.311   1.676  1.4152  1.1148  1.9763
   97SAPC    HB 9523   1.806   2.416   1.730  1.7176 -0.3572  0.5420
   97SAPC    C2 9524   1.805   2.240   1.852  1.9082  0.9309 -0.3154
   97SAPC    HS 9525   1.828   2.132   1.843 -2.9146 -0.3687  0.3656
   97SAPC   O21 9526   1.669   2.260   1.909  0.3508 -0.0081 -0.3236
   97SAPC   C21 9527   1.624   2.159   1.972 -0.0731  1.1715 -0.4862
   97SAPC   O22 9528   1.674   2.047   1.978 -0.0731 -0.0279 -0.6737
   97SAPC   C22 9529   1.489   2.191   2.036 -0.2753  0.5795 -0.2136
   97SAPC   H2R 9530   1.414   2.237   1.968 -0.4117 -0.5018 -0.8144
   97SAPC   H2S 9531   1.438   2.097   2.066 -1.8287  1.0628 -1.2034
   97SAPC    C3 9532   1.913   2.307   1.941  0.7642  0.1472 -0.2014
   97SAPC    HX 9533   1.895   2.416   1.946 -2.8456 -0.3394  0.4566
   97SAPC    HY 9534   2.010   2.296   1.889  0.7925 -1.3096  0.0960
   97SAPC   O31 9535   1.908   2.253   2.074 -0.3167 -0.1909  0.4828
   97SAPC   C31 9536   2.011   2.181   2.103 -0.4476  0.2697 -0.2863
   97SAPC   O32 9537   2.102   2.151   2.029 -0.4902  0.0811  0.0475
   97SAPC   C32 9538   2.004   2.129   2.253  0.2705  0.1038 -0.4858
   97SAPC   H2X 9539   1.903   2.086   2.270 -0.1954  0.5142 -2.0560
   97SAPC   H2Y 9540   2.021   2.222   2.312 -0.4746  0.2122 -0.4384
   97SAPC   C23 9541   1.503   2.269   2.165 -0.2767  0.2129 -0.7618
   97SAPC   H3R 9542   1.404   2.299   2.205  0.5645  1.9541  0.1805
   97SAPC   H3S 9543   1.551   2.361   2.124 -1.6984  1.2675 -0.1604
   97SAPC   C24 9544   1.595   2.209   2.277  0.4273 -0.0071 -0.2819
   97SAPC   H4R 9545   1.702   2.198   2.248  1.1742 -0.3342  2.3434
   97SAPC   H4S 9546   1.554   2.107   2.296  1.2181 -0.3340 -0.3012
   97SAPC   C25 9547   1.585   2.292   2.405  0.0464  0.3102 -0.4275
   97SAPC   H5R 9548   1.509   2.371   2.393 -0.0428  0.6060  1.6900
   97SAPC   C26 9549   1.654   2.279   2.522  0.1704  0.1548  0.2313
   97SAPC   H6R 9550   1.633   2.351   2.602 -0.0338  1.3197 -0.8418
   97SAPC   C27 9551   1.757   2.181   2.562 -0.2343 -0.1485 -0.0235
   97SAPC   H7R 9552   1.855   2.230   2.578 -1.6510  2.9732 -0.1684
   97SAPC   H7S 9553   1.768   2.115   2.473 -2.5016 -2.1959  1.1037
   97SAPC   C28 9554   1.698   2.100   2.674  0.1561 -0.0520  0.8568
   97SAPC   H8R 9555   1.589   2.095   2.658  0.2279 -2.7260  0.6671
   97SAPC   C29 9556   1.771   2.042   2.780  0.0626 -0.2838  0.5856
   97SAPC   H9R 9557   1.717   1.976   2.848  2.3298 -0.5273  2.2927
   97SAPC  C210 9558   1.915   2.044   2.805  0.1762  0.3745  0.0580
   97SAPC  H10R 9559   1.941   2.135   2.863  1.3774  0.2381 -0.2364
   97SAPC  H10S 9560   1.970   2.044   2.708 -1.1716 -0.0174 -0.7213
   97SAPC  C211 9561   1.973   1.933   2.891 -0.5209  0.2063  0.1517
   97SAPC  H11R 9562   2.014   1.850   2.833  0.6803  1.3964 -0.7819
   97SAPC  C212 9563   2.002   1.932   3.023  0.1017  0.7297 -0.4563
   97SAPC  H12R 9564   2.046   1.845   3.074 -0.1450  0.5740 -0.5064
   97SAPC  C213 9565   1.952   2.034   3.120  0.1142  0.8906  0.6459
   97SAPC  H13R 9566   1.986   2.132   3.081 -0.5944  1.2267  0.8456
   97SAPC  H13S 9567   2.010   2.012   3.212  0.2020 -1.1265  0.1677
   97SAPC  C214 9568   1.802   2.029   3.148  0.2385 -0.3053 -0.1915
   97SAPC  H14R 9569   1.739   1.980   3.072  0.3845 -1.4744  0.4331
   97SAPC  C215 9570   1.741   2.101   3.240  0.3833 -0.0932 -0.1862
   97SAPC  H15R 9571   1.632   2.097   3.249  0.3791  0.6168  0.1043
   97SAPC  C216 9572   1.805   2.174   3.351 -0.3809  0.3686 -0.9691
   97SAPC  H16R 9573   1.731   2.254   3.373 -0.6461 -0.7738  3.2487
   97SAPC  H16S 9574   1.897   2.221   3.309 -0.9085  3.0109  0.6247
   97SAPC  C217 9575   1.812   2.108   3.489 -0.7769  0.1537 -0.4839
   97SAPC  H17R 9576   1.847   2.189   3.557 -3.4698  2.2995 -1.4638
   97SAPC  H17S 9577   1.879   2.019   3.484  0.1030  0.5643  2.4581
   97SAPC  C218 9578   1.673   2.070   3.530  0.4611  0.2178  0.1088
   97SAPC  H18R 9579   1.644   1.984   3.467  1.4121 -0.2273  0.2568
   97SAPC  H18S 9580   1.606   2.153   3.499 -0.8272 -1.0776 -0.6834
   97SAPC  C219 9581   1.655   2.051   3.680  0.1239 -0.1600  0.6387
   97SAPC  H19R 9582   1.743   1.994   3.718  0.6823  0.0462 -0.3079
   97SAPC  H19S 9583   1.568   1.982   3.682 -0.6491  0.7370 -0.8964
   97SAPC  C220 9584   1.633   2.173   3.769 -0.5223  0.3247 -0.6677
   97SAPC  H20R 9585   1.681   2.163   3.869 -4.2309 -3.2396  1.0368
   97SAPC  H20S 9586   1.527   2.192   3.795  0.0234 -0.2108  2.3196
   97SAPC  H20T 9587   1.689   2.259   3.728 -0.9263  0.8108 -0.2093
   97SAPC   C33 9588   2.115   2.034   2.300  0.8490 -0.7542 -1.0378
   97SAPC   H3X 9589   2.208   2.088   2.328 -1.6478  2.3238  2.5054
   97SAPC   H3Y 9590   2.127   1.963   2.216  1.8741 -1.8529  0.0013
   97SAPC   C34 9591   2.074   1.964   2.427 -0.3613  0.2692 -0.6515
   97SAPC   H4X 9592   1.984   1.904   2.403  0.2597 -1.5884  1.3350
   97SAPC   H4Y 9593   2.033   2.039   2.499 -0.0752 -0.4850  0.3192
   97SAPC   C35 9594   2.173   1.867   2.492 -0.6583 -0.8353 -0.7177
   97SAPC   H5X 9595   2.197   1.798   2.409 -1.1679 -1.3640 -0.4399
   97SAPC   H5Y 9596   2.120   1.808   2.569 -0.4807 -1.3485 -0.9885
   97SAPC   C36 9597   2.296   1.925   2.557  0.1100 -0.2565  0.5995
   97SAPC   H6X 9598   2.269   2.012   2.621 -1.8942  0.7039 -1.4102
   97SAPC   H6Y 9599   2.349   1.963   2.467 -1.5069  1.5773  0.3497
   97SAPC   C37 9600   2.381   1.826   2.630 -0.0471  0.4304  0.2009
   97SAPC   H7X 9601   2.477   1.877   2.651 -0.3147  0.6752  0.8992
   97SAPC   H7Y 9602   2.393   1.749   2.552 -0.6313  1.0907 -0.5553
   97SAPC   C38 9603   2.303   1.773   2.754  0.0190  0.0039  0.1675
   97SAPC   H8X 9604   2.218   1.707   2.726 -0.8337  0.7064  1.0264
   97SAPC   H8Y 9605   2.249   1.864   2.787  1.2379  0.9968 -0.4560
   97SAPC   C39 9606   2.384   1.707   2.858 -0.6303  0.4205 -0.2545
   97SAPC   H9X 9607   2.476   1.766   2.875 -0.2068  0.1398 -1.4875
   97SAPC   H9Y 9608   2.425   1.610   2.824  0.8560 -0.0999  2.6461
   97SAPC  C310 9609   2.327   1.718   3.000  0.0263 -0.2067  0.1067
   97SAPC  H10X 9610   2.245   1.644   3.006 -0.1951 -0.1012 -1.3888
   97SAPC  H10Y 9611   2.275   1.816   3.007 -0.0153 -0.1896 -0.4143
   97SAPC  C311 9612   2.424   1.692   3.112  0.4675 -0.1614 -0.5713
   97SAPC  H11X 9613   2.483   1.784   3.133  1.8029 -1.0849 -0.1089
   97SAPC  H11Y 9614   2.495   1.611   3.082 -0.9550 -2.7418  2.4656
   97SAPC  C312 9615   2.368   1.629   3.240 -0.3878  0.6883 -0.7910
   97SAPC  H12X 9616   2.438   1.614   3.324 -2.1488 -0.5031  0.5517
   97SAPC  H12Y 9617   2.334   1.531   3.201  0.7895  0.0827 -0.3208
   97SAPC  C313 9618   2.241   1.689   3.304  0.8940 -0.2285  0.1681
   97SAPC  H13X 9619   2.171   1.738   3.233  2.7383  3.1073  0.4539
   97SAPC  H13Y 9620   2.275   1.779   3.359  0.2886  0.7498 -1.0167
   97SAPC  C314 9621   2.165   1.585   3.386  0.8208  0.1392 -0.1567
   97SAPC  H14X 9622   2.221   1.551   3.476 -1.9415 -1.5741  1.0288
   97SAPC  H14Y 9623   2.147   1.492   3.327 -1.7142  0.2918  0.2921
   97SAPC  C315 9624   2.036   1.638   3.442  0.3486 -0.7453  0.5469
   97SAPC  H15X 9625   1.969   1.553   3.465 -0.9808  0.3283  0.7930
   97SAPC  H15Y 9626   1.980   1.696   3.365  2.7957  0.6147 -0.3430
   97SAPC  C316 9627   2.065   1.731   3.569  0.2824 -0.1594  0.4853
   97SAPC  H16X 9628   2.116   1.826   3.545 -3.1110  1.8289  0.5493
   97SAPC  H16Y 9629   2.136   1.676   3.635  1.3032 -0.1657 -0.5703
   97SAPC  C317 9630   1.934   1.765   3.648  1.0265 -0.1121 -0.8600
   97SAPC  H17X 9631   1.858   1.811   3.582  0.1341  1.8772  1.4043
   97SAPC  H17Y 9632   1.977   1.840   3.718 -0.5003 -0.4721  0.5001
   97SAPC  C318 9633   1.875   1.639   3.712 -0.3154 -0.5210 -1.3893
   97SAPC  H18X 9634   1.945   1.565   3.757 -0.4607  0.8384  1.2981
   97SAPC  H18Y 9635   1.826   1.584   3.629  0.2604  1.7411 -3.3122
   97SAPC  H18Z 9636   1.795   1.661   3.785  0.6761 -0.9251 -0.1335
   98SAPC     N 9637   4.510   5.987   1.467  0.1958 -0.2473 -0.2630
   98SAPC   C12 9638   4.628   6.038   1.555  0.1102  0.4201  0.4062
   98SAPC  H12A 9639   4.663   5.962   1.622 -1.0866 -0.5935 -0.0777
   98SAPC  H12B 9640   4.584   6.111   1.621  0.5185  0.6887  0.3814
   98SAPC   C13 9641   4.545   5.859   1.398  0.3882  0.0401  0.7178
   98SAPC  H13A 9642   4.630   5.875   1.333  0.1714  0.2467  0.4831
   98SAPC  H13B 9643   4.569   5.776   1.463 -1.9012 -1.8355 -0.6239
   98SAPC  H13C 9644   4.463   5.824   1.336  0.3313  1.2311  0.0827
   98SAPC   C14 9645   4.386   5.959   1.549  0.1125  0.2918  0.4686
   98SAPC  H14A 9646   4.399   5.881   1.623 -0.2443 -0.8715 -0.6565
   98SAPC  H14B 9647   4.339   6.047   1.590 -3.5740 -0.0862 -2.4223
   98SAPC  H14C 9648   4.311   5.912   1.486  1.2130  0.5866 -1.0921
   98SAPC   C15 9649   4.465   6.081   1.369 -0.6692 -0.2672  0.0611
   98SAPC  H15A 9650   4.426   6.173   1.411  0.4095  0.0888  0.3015
   98SAPC  H15B 9651   4.556   6.103   1.314 -0.7059 -1.3237 -0.4380
   98SAPC  H15C 9652   4.387   6.039   1.306  0.4063 -0.4327 -1.2047
   98SAPC   C11 9653   4.759   6.075   1.484 -0.0731 -1.2436 -0.2164
   98SAPC  H11A 9654   4.793   5.984   1.431  0.6103 -1.0260 -0.1590
   98SAPC  H11B 9655   4.840   6.102   1.555 -0.6575 -3.3561  1.3445
   98SAPC     P 9656   4.747   6.331   1.416 -0.0018 -0.3597  0.0488
   98SAPC   O13 9657   4.885   6.382   1.404  0.4107 -0.3349 -0.7213
   98SAPC   O14 9658   4.641   6.395   1.338  0.4621  0.1466 -0.2635
   98SAPC   O12 9659   4.744   6.176   1.390 -0.1746 -0.0003  0.2426
   98SAPC   O11 9660   4.716   6.325   1.568  0.7509 -0.2250 -0.3673
   98SAPC    C1 9661   4.777   6.396   1.671 -0.7415  0.4024  0.6987
   98SAPC    HA 9662   4.851   6.470   1.634 -1.8690  1.3388  0.2353
   98SAPC    HB 9663   4.695   6.457   1.715 -1.3994  0.6778 -0.8488
   98SAPC    C2 9664   4.836   6.298   1.778 -0.5271  0.0555 -0.6504
   98SAPC    HS 9665   4.833   6.197   1.732  1.2270 -0.5298  0.4140
   98SAPC   O21 9666   4.761   6.293   1.904  0.2990 -0.0288  0.3527
   98SAPC   C21 9667   4.647   6.226   1.907 -0.0212  0.4073 -0.4021
   98SAPC   O22 9668   4.604   6.159   1.815  0.5631 -0.0239 -0.4814
   98SAPC   C22 9669   4.580   6.257   2.036  0.2765 -0.1677  0.4761
   98SAPC   H2R 9670   4.573   6.368   2.041  0.1665 -0.0793 -1.1660
   98SAPC   H2S 9671   4.481   6.208   2.027  0.3195 -0.6681  2.3092
   98SAPC    C3 9672   4.984   6.331   1.812  0.7722 -0.2071  0.8473
   98SAPC    HX 9673   5.003   6.439   1.834 -0.3090  0.3612 -0.8503
   98SAPC    HY 9674   5.041   6.309   1.720  0.4038  0.8260  0.3538
   98SAPC   O31 9675   5.026   6.236   1.916  0.1320  0.4827  0.5595
   98SAPC   C31 9676   5.150   6.226   1.929 -0.4759  0.2685 -0.2905
   98SAPC   O32 9677   5.235   6.282   1.860 -0.6123  0.1816 -0.2162
   98SAPC   C32 9678   5.179   6.139   2.045 -0.4962  0.3220 -0.5222
   98SAPC   H2X 9679   5.289   6.133   2.036 -0.3396  2.4773 -0.7360
   98SAPC   H2Y 9680   5.131   6.039   2.037 -2.6749  1.3487 -1.0476
   98SAPC   C23 9681   4.640   6.184   2.156 -0.4395  0.7995  0.5096
   98SAPC   H3R 9682   4.647   6.075   2.135  2.3062  1.2303 -1.3933
   98SAPC   H3S 9683   4.575   6.194   2.245 -1.5109 -2.9787  0.2951
   98SAPC   C24 9684   4.780   6.225   2.199 -0.0176 -0.2990  0.1451
   98SAPC   H4R 9685   4.843   6.180   2.120  2.9266  0.1908  2.0688
   98SAPC   H4S 9686   4.812   6.188   2.298  4.5168  0.7014 -0.7421
   98SAPC   C25 9687   4.797   6.373   2.192 -0.3668 -0.6833  0.0442
   98SAPC   H5R 9688   4.831   6.404   2.092 -0.1209 -0.0295  0.3255
   98SAPC   C26 9689   4.784   6.458   2.299  0.7964 -0.0668  0.0217
   98SAPC   H6R 9690   4.799   6.567   2.290  1.4623  0.0204  1.9183
   98SAPC   C27 9691   4.741   6.420   2.437 -0.2824 -0.2512 -0.2142
   98SAPC   H7R 9692   4.702   6.316   2.436  3.2076 -1.7244  0.3448
   98SAPC   H7S 9693   4.656   6.486   2.462 -0.5384  0.0156 -1.6958
   98SAPC   C28 9694   4.856   6.426   2.529  0.2409 -0.6160 -0.4441
   98SAPC   H8R 9695   4.930   6.352   2.496 -0.3613 -0.3035 -2.6567
   98SAPC   C29 9696   4.873   6.488   2.646 -0.2162  0.1287 -0.1096
   98SAPC   H9R 9697   4.965   6.471   2.703 -1.3275  0.1223  1.7608
   98SAPC  C210 9698   4.776   6.582   2.705  0.2678 -0.0272 -0.3298
   98SAPC  H10R 9699   4.727   6.534   2.793 -0.0449  0.1974 -0.3810
   98SAPC  H10S 9700   4.694   6.613   2.637 -2.5858 -1.1830  2.3061
   98SAPC  C211 9701   4.849   6.704   2.762 -0.1411 -0.8480  0.8173
   98SAPC  H11R 9702   4.859   6.786   2.689  0.3117 -1.5417  0.0847
   98SAPC  C212 9703   4.885   6.728   2.884 -0.9220  0.1442  0.7522
   98SAPC  H12R 9704   4.920   6.832   2.894 -3.2232  1.1333 -0.6096
   98SAPC  C213 9705   4.883   6.629   2.997  0.6203 -0.5267  0.7049
   98SAPC  H13R 9706   4.783   6.583   3.005  0.6436 -0.3452  2.3013
   98SAPC  H13S 9707   4.891   6.684   3.093  1.8030  0.1816  0.2153
   98SAPC  C214 9708   4.986   6.516   2.987  0.4165  0.3864 -0.0197
   98SAPC  H14R 9709   5.026   6.485   2.890 -2.8530 -1.0857 -1.0468
   98SAPC  C215 9710   4.991   6.432   3.096 -0.4284  0.2028  0.3070
   98SAPC  H15R 9711   5.064   6.349   3.098 -0.5644  0.0127 -1.2807
   98SAPC  C216 9712   4.935   6.455   3.229  1.1886  0.2438 -1.3847
   98SAPC  H16R 9713   4.839   6.511   3.219  0.7401 -0.4483 -1.0291
   98SAPC  H16S 9714   5.001   6.516   3.294  1.2036 -1.3865  0.2069
   98SAPC  C217 9715   4.898   6.326   3.300 -0.0555  1.1875  0.2969
   98SAPC  H17R 9716   4.882   6.248   3.222 -1.0615 -0.4583  2.0722
   98SAPC  H17S 9717   4.805   6.340   3.360 -1.0985 -1.2897 -0.5976
   98SAPC  C218 9718   5.005   6.284   3.394 -0.4300 -1.0014  0.1382
   98SAPC  H18R 9719   5.019   6.370   3.463 -1.6643 -1.1580  0.6035
   98SAPC  H18S 9720   5.102   6.266   3.343 -1.0663  0.2971 -1.6623
   98SAPC  C219 9721   4.968   6.170   3.485  0.0283  0.1131 -0.5493
   98SAPC  H19R 9722   4.863   6.184   3.519 -0.4354  1.6892 -2.4773
   98SAPC  H19S 9723   5.048   6.148   3.558 -0.4993 -2.1358 -0.5708
   98SAPC  C220 9724   4.940   6.046   3.393  0.3480 -0.7509  0.0554
   98SAPC  H20R 9725   5.023   6.049   3.319  1.3844  1.2563  1.2098
   98SAPC  H20S 9726   4.845   6.058   3.338 -0.1433 -1.8175  0.6402
   98SAPC  H20T 9727   4.929   5.951   3.449  2.4379 -1.9322 -1.3862
   98SAPC   C33 9728   5.165   6.212   2.180 -0.1635  0.5868 -0.8312
   98SAPC   H3X 9729   5.059   6.240   2.200  0.3569  0.7200  2.1730
   98SAPC   H3Y 9730   5.225   6.306   2.178 -0.0449  0.5117 -2.1223
   98SAPC   C34 9731   5.205   6.124   2.301  0.4734  0.5151  0.7512
   98SAPC   H4X 9732   5.312   6.096   2.291  0.7561  1.3054  1.4718
   98SAPC   H4Y 9733   5.145   6.031   2.291 -1.2562  1.6605 -0.2562
   98SAPC   C35 9734   5.195   6.175   2.449 -0.1216 -0.7372  0.0575
   98SAPC   H5X 9735   5.089   6.193   2.479 -0.2873 -3.0450  1.0825
   98SAPC   H5Y 9736   5.254   6.268   2.462 -0.7085 -0.3489 -0.0102
   98SAPC   C36 9737   5.241   6.068   2.541  0.6742  0.1427 -0.3707
   98SAPC   H6X 9738   5.344   6.047   2.506  1.5104  1.1404  1.3803
   98SAPC   H6Y 9739   5.182   5.975   2.547  2.2195 -1.0243 -2.1564
   98SAPC   C37 9740   5.259   6.116   2.686  0.1167  0.0287 -0.5150
   98SAPC   H7X 9741   5.169   6.179   2.696 -0.2937 -0.2472 -2.1343
   98SAPC   H7Y 9742   5.346   6.185   2.691 -1.5237  2.1062  1.6932
   98SAPC   C38 9743   5.283   6.006   2.780 -0.1538 -0.9563  0.0466
   98SAPC   H8X 9744   5.370   5.946   2.747 -0.7606 -0.9528 -1.6512
   98SAPC   H8Y 9745   5.193   5.941   2.785 -0.8000 -0.0164  0.8814
   98SAPC   C39 9746   5.320   6.065   2.914 -0.5876  0.7680 -1.1010
   98SAPC   H9X 9747   5.262   6.157   2.937 -0.6166 -0.0904  2.8569
   98SAPC   H9Y 9748   5.429   6.081   2.897 -0.0830 -1.7018 -0.5411
   98SAPC  C310 9749   5.307   5.985   3.041 -0.3733 -0.6665 -0.0672
   98SAPC  H10X 9750   5.348   5.883   3.023 -0.7297 -0.6718 -0.9245
   98SAPC  H10Y 9751   5.201   5.964   3.068 -0.5461 -0.9999 -0.9739
   98SAPC  C311 9752   5.367   6.059   3.163  0.0869 -0.2229  0.1195
   98SAPC  H11X 9753   5.342   6.166   3.182 -0.0698 -0.4880  1.4936
   98SAPC  H11Y 9754   5.477   6.061   3.146  0.2729 -2.3560  0.8453
   98SAPC  C312 9755   5.370   5.978   3.287  0.3466  0.5284 -0.0113
   98SAPC  H12X 9756   5.410   5.878   3.262 -0.1305  0.1672  0.6334
   98SAPC  H12Y 9757   5.261   5.968   3.308  0.5649  1.5441  1.8434
   98SAPC  C313 9758   5.429   6.031   3.413 -0.3858 -0.0003  0.4408
   98SAPC  H13X 9759   5.372   6.120   3.449  0.2272  0.1630  1.0303
   98SAPC  H13Y 9760   5.533   6.063   3.391 -0.4009 -0.6190 -0.5604
   98SAPC  C314 9761   5.431   5.925   3.519 -0.1625 -0.5788  0.0818
   98SAPC  H14X 9762   5.488   5.835   3.488 -1.4093 -1.8351  1.3015
   98SAPC  H14Y 9763   5.326   5.898   3.543 -1.0094  3.4810  1.7661
   98SAPC  C315 9764   5.504   5.973   3.640  0.1792  0.2139 -0.0113
   98SAPC  H15X 9765   5.580   6.048   3.609  0.4960 -0.4022 -0.7629
   98SAPC  H15Y 9766   5.578   5.893   3.661  1.1006  0.5166 -1.8424
   98SAPC  C316 9767   5.433   6.011   3.770  0.0627 -0.5199 -0.1558
   98SAPC  H16X 9768   5.355   6.089   3.758 -1.1709 -1.0515  3.2777
   98SAPC  H16Y 9769   5.513   6.065   3.825  0.5888  0.9160 -2.2383
   98SAPC  C317 9770   5.382   5.894   3.859 -0.6526 -0.4662  0.1862
   98SAPC  H17X 9771   5.477   5.856   3.903  0.6443  2.6777  0.3441
   98SAPC  H17Y 9772   5.323   5.822   3.799 -1.4323  0.3833 -0.0827
   98SAPC  C318 9773   5.293   5.957   3.972  0.3687 -0.1808  0.3197
   98SAPC  H18X 9774   5.270   5.888   4.056  1.5894 -1.6039 -0.4615
   98SAPC  H18Y 9775   5.199   5.991   3.924  0.7792 -0.2227 -0.5241
   98SAPC  H18Z 9776   5.340   6.051   4.006  0.4966 -0.1320  0.0091
   99SAPC     N 9777   3.813   4.459   1.077 -0.1410  0.3680 -0.1001
   99SAPC   C12 9778   3.738   4.419   1.202 -0.3259  0.2021 -0.1798
   99SAPC  H12A 9779   3.680   4.331   1.177 -2.4948  1.2681  0.8686
   99SAPC  H12B 9780   3.671   4.498   1.230 -0.3735 -0.4635  1.7034
   99SAPC   C13 9781   3.912   4.360   1.024  0.4309 -0.4546 -0.1423
   99SAPC  H13A 9782   3.999   4.349   1.087  0.7246  0.8891 -0.2817
   99SAPC  H13B 9783   3.871   4.263   1.000  0.1472 -0.0775 -1.2667
   99SAPC  H13C 9784   3.941   4.397   0.926  2.0182 -1.6068 -0.1445
   99SAPC   C14 9785   3.726   4.492   0.953  0.0626  0.2912 -0.3378
   99SAPC  H14A 9786   3.682   4.587   0.977 -1.5439 -0.4414 -0.2696
   99SAPC  H14B 9787   3.783   4.510   0.863  0.5835  1.3706  0.1903
   99SAPC  H14C 9788   3.652   4.415   0.937 -0.7418  0.2282  2.9768
   99SAPC   C15 9789   3.887   4.587   1.116  0.7944  0.6399 -0.0995
   99SAPC  H15A 9790   3.963   4.562   1.188  0.7581 -1.6509 -0.7592
   99SAPC  H15B 9791   3.930   4.639   1.032  0.7448  0.7986 -0.0272
   99SAPC  H15C 9792   3.810   4.651   1.157 -2.0169 -1.6526 -1.3958
   99SAPC   C11 9793   3.824   4.380   1.331 -0.1488  0.2270  0.2952
   99SAPC  H11A 9794   3.879   4.285   1.310  1.2939  1.5449 -2.4151
   99SAPC  H11B 9795   3.742   4.347   1.399 -0.4410 -1.2452 -0.7276
   99SAPC     P 9796   3.851   4.561   1.525  0.3543 -0.6480  0.0500
   99SAPC   O13 9797   3.955   4.638   1.595 -0.6062  0.6287  0.4297
   99SAPC   O14 9798   3.730   4.638   1.481 -0.1210  0.2572  0.1792
   99SAPC   O12 9799   3.899   4.484   1.396  0.3661  0.1221  0.0229
   99SAPC   O11 9800   3.803   4.443   1.622  0.1357 -0.7218 -0.0875
   99SAPC    C1 9801   3.893   4.335   1.653 -0.7816  0.5806  0.3174
   99SAPC    HA 9802   3.869   4.233   1.616  2.5505  0.0306 -0.6825
   99SAPC    HB 9803   3.994   4.354   1.612 -1.2655  1.9541 -0.3236
   99SAPC    C2 9804   3.900   4.323   1.805  0.3942 -0.4661  0.9207
   99SAPC    HS 9805   3.978   4.249   1.833 -0.5471 -1.6766  0.4445
   99SAPC   O21 9806   3.774   4.277   1.857 -0.1362 -0.2556  0.2819
   99SAPC   C21 9807   3.778   4.194   1.964  0.1255  0.2984  0.2876
   99SAPC   O22 9808   3.883   4.164   2.019 -0.0537  0.2347  0.2971
   99SAPC   C22 9809   3.640   4.155   2.010 -0.0751 -0.4412  0.1278
   99SAPC   H2R 9810   3.571   4.198   1.934  0.3518  3.2358  1.6171
   99SAPC   H2S 9811   3.633   4.045   2.011 -0.0659 -0.4742 -1.1379
   99SAPC    C3 9812   3.947   4.461   1.864 -0.3616  0.4632  0.0209
   99SAPC    HX 9813   3.864   4.532   1.840 -0.8761 -0.4518 -0.9700
   99SAPC    HY 9814   4.047   4.496   1.830  1.1245 -1.0337  2.5608
   99SAPC   O31 9815   3.957   4.462   2.010 -0.1773  0.7484 -0.0201
   99SAPC   C31 9816   4.068   4.397   2.049 -0.1981  0.5313 -0.3133
   99SAPC   O32 9817   4.159   4.358   1.979  0.1924  0.2088  0.1200
   99SAPC   C32 9818   4.070   4.399   2.198 -0.1820  0.1719  0.4098
   99SAPC   H2X 9819   3.976   4.349   2.229 -0.0823 -0.8232 -0.7841
   99SAPC   H2Y 9820   4.070   4.506   2.227 -1.1519  0.0267  1.0003
   99SAPC   C23 9821   3.605   4.226   2.142  0.3660  0.0619 -0.5915
   99SAPC   H3R 9822   3.601   4.334   2.114  1.1977  1.3628  3.5716
   99SAPC   H3S 9823   3.683   4.206   2.218 -0.1709 -1.6501 -0.4571
   99SAPC   C24 9824   3.469   4.191   2.199 -0.0917  0.1086 -0.1647
   99SAPC   H4R 9825   3.396   4.222   2.120  1.4870 -0.4541 -1.9340
   99SAPC   H4S 9826   3.443   4.246   2.291  0.1384 -0.4319  0.2261
   99SAPC   C25 9827   3.437   4.042   2.225 -0.4573 -0.7495 -0.2368
   99SAPC   H5R 9828   3.416   3.979   2.138  2.3525 -1.5953 -0.4101
   99SAPC   C26 9829   3.439   3.978   2.346  0.7386  0.3773 -0.0751
   99SAPC   H6R 9830   3.419   3.871   2.359 -0.8360  0.7717  1.0129
   99SAPC   C27 9831   3.462   4.050   2.476  0.1694 -0.0737  0.3384
   99SAPC   H7R 9832   3.517   4.146   2.467 -2.0306  1.1308 -1.3600
   99SAPC   H7S 9833   3.523   3.984   2.542  2.6974 -0.5682 -2.3032
   99SAPC   C28 9834   3.325   4.094   2.537 -0.7718  0.1039 -0.2819
   99SAPC   H8R 9835   3.233   4.065   2.483 -1.7873  2.4311  0.0564
   99SAPC   C29 9836   3.307   4.122   2.667 -0.5657  0.4616 -0.3944
   99SAPC   H9R 9837   3.205   4.144   2.702 -0.0144 -0.0113  1.6400
   99SAPC  C210 9838   3.415   4.152   2.762 -0.5681  0.1339  0.1710
   99SAPC  H10R 9839   3.442   4.260   2.766 -0.4139  0.0757  0.7073
   99SAPC  H10S 9840   3.512   4.117   2.721  0.0186  0.5051  1.2091
   99SAPC  C211 9841   3.392   4.080   2.891  0.0633 -0.2137  0.3088
   99SAPC  H11R 9842   3.417   3.973   2.891  0.8331 -0.0351 -0.3344
   99SAPC  C212 9843   3.365   4.128   3.015  0.2900 -0.6191 -0.5531
   99SAPC  H12R 9844   3.359   4.061   3.102 -0.2171  0.8711  0.6033
   99SAPC  C213 9845   3.357   4.276   3.050  0.1132  0.9219 -0.1506
   99SAPC  H13R 9846   3.349   4.333   2.955  2.8587  1.4658 -0.1151
   99SAPC  H13S 9847   3.448   4.311   3.102 -0.2383  0.7216  0.6087
   99SAPC  C214 9848   3.229   4.310   3.125  0.4285 -0.3236  0.2329
   99SAPC  H14R 9849   3.150   4.361   3.069  0.8544  0.3317  0.2116
   99SAPC  C215 9850   3.219   4.309   3.260 -0.0601 -0.2822 -0.7873
   99SAPC  H15R 9851   3.120   4.341   3.297 -0.6077 -0.3376 -2.1525
   99SAPC  C216 9852   3.327   4.276   3.360 -0.7174 -0.0496  0.4472
   99SAPC  H16R 9853   3.402   4.357   3.369  0.7120 -1.3927  1.1973
   99SAPC  H16S 9854   3.395   4.197   3.321  0.6327  1.9361 -1.4137
   99SAPC  C217 9855   3.292   4.222   3.501 -0.1013 -0.0254 -0.2267
   99SAPC  H17R 9856   3.237   4.125   3.499 -0.9410  0.4417 -0.7802
   99SAPC  H17S 9857   3.230   4.298   3.554 -0.0943  0.0425 -0.3144
   99SAPC  C218 9858   3.420   4.195   3.585 -0.1245  0.2473 -0.4950
   99SAPC  H18R 9859   3.485   4.285   3.586  0.0914  0.1333 -2.0897
   99SAPC  H18S 9860   3.484   4.115   3.542  0.8633  0.4434  0.5746
   99SAPC  C219 9861   3.393   4.153   3.730  0.3733  0.6505  0.1472
   99SAPC  H19R 9862   3.325   4.065   3.725 -0.1871  1.1276 -2.7957
   99SAPC  H19S 9863   3.341   4.243   3.768 -0.8363  0.9544 -2.0264
   99SAPC  C220 9864   3.512   4.112   3.811  0.1227 -0.0031  0.1504
   99SAPC  H20R 9865   3.567   4.035   3.752  0.9297 -0.7209  1.7656
   99SAPC  H20S 9866   3.477   4.075   3.910 -1.4240  1.0828  0.0403
   99SAPC  H20T 9867   3.581   4.198   3.824  0.1168  0.1569 -0.8132
   99SAPC   C33 9868   4.182   4.304   2.259  0.3413  0.6613  0.5269
   99SAPC   H3X 9869   4.278   4.339   2.217  0.1939 -0.8254 -1.1550
   99SAPC   H3Y 9870   4.159   4.199   2.231  2.1965  0.2660  0.3513
   99SAPC   C34 9871   4.189   4.310   2.411  0.1096  0.2808 -0.7560
   99SAPC   H4X 9872   4.086   4.292   2.449 -0.0274  0.3778 -1.0820
   99SAPC   H4Y 9873   4.221   4.413   2.437  0.7780 -0.3862  1.3174
   99SAPC   C35 9874   4.285   4.195   2.461 -0.5600 -0.0933  0.6924
   99SAPC   H5X 9875   4.380   4.201   2.404 -0.3003  0.9730  1.1971
   99SAPC   H5Y 9876   4.244   4.096   2.434  2.4011 -1.1504 -0.3906
   99SAPC   C36 9877   4.333   4.199   2.600  0.2422 -0.6893 -0.3887
   99SAPC   H6X 9878   4.414   4.274   2.608 -0.0991 -0.2903 -0.6312
   99SAPC   H6Y 9879   4.361   4.096   2.631 -0.4078 -0.7391  0.0577
   99SAPC   C37 9880   4.227   4.227   2.709  0.1732 -0.9499 -0.3961
   99SAPC   H7X 9881   4.133   4.172   2.687  1.0768 -2.0029 -1.7429
   99SAPC   H7Y 9882   4.201   4.334   2.698  0.1666 -1.2357 -4.8338
   99SAPC   C38 9883   4.280   4.174   2.843 -0.1741 -0.1668 -1.1048
   99SAPC   H8X 9884   4.360   4.247   2.868  0.5624 -1.6926  1.3959
   99SAPC   H8Y 9885   4.326   4.073   2.837  0.6353  0.0567  0.7367
   99SAPC   C39 9886   4.174   4.169   2.956  0.2129 -0.4571  0.2819
   99SAPC   H9X 9887   4.104   4.086   2.931  0.0494 -0.6575  1.3427
   99SAPC   H9Y 9888   4.128   4.270   2.960  0.1552 -0.4725  0.0390
   99SAPC  C310 9889   4.222   4.130   3.093  0.4937 -0.0542  0.3424
   99SAPC  H10X 9890   4.289   4.042   3.089  1.8583  0.9923 -1.2212
   99SAPC  H10Y 9891   4.128   4.102   3.146  0.7150 -2.0850 -0.2681
   99SAPC  C311 9892   4.282   4.242   3.167 -0.3485  0.2835 -0.1462
   99SAPC  H11X 9893   4.224   4.335   3.151 -1.7929 -0.2960  1.5141
   99SAPC  H11Y 9894   4.389   4.257   3.139  0.1099 -0.5031  1.0788
   99SAPC  C312 9895   4.280   4.222   3.320  0.8119  0.8680  0.8245
   99SAPC  H12X 9896   4.179   4.183   3.346 -0.0687  1.7571 -1.0375
   99SAPC  H12Y 9897   4.294   4.323   3.364  1.6708  0.5895  1.2043
   99SAPC  C313 9898   4.388   4.122   3.357 -0.5927 -0.0141 -0.0294
   99SAPC  H13X 9899   4.483   4.180   3.356 -0.7077  0.1707 -1.1991
   99SAPC  H13Y 9900   4.394   4.041   3.281  0.1706  0.4114 -0.4314
   99SAPC  C314 9901   4.364   4.060   3.495  0.5105 -0.2889  0.3463
   99SAPC  H14X 9902   4.269   4.004   3.500 -1.3293  2.6596  2.4741
   99SAPC  H14Y 9903   4.338   4.151   3.554  0.2193 -0.2719  0.1899
   99SAPC  C315 9904   4.482   3.985   3.563 -0.0309 -0.4492  0.3542
   99SAPC  H15X 9905   4.486   3.890   3.506  0.6453 -0.2152 -0.0010
   99SAPC  H15Y 9906   4.451   3.953   3.664  1.8577 -2.9015  0.2781
   99SAPC  C316 9907   4.629   4.046   3.569 -0.3631 -0.2337  0.2225
   99SAPC  H16X 9908   4.675   4.045   3.468  1.8670  1.4949  1.1352
   99SAPC  H16Y 9909   4.691   3.978   3.631  1.2786  0.3993 -0.6775
   99SAPC  C317 9910   4.636   4.193   3.610  0.4950  0.4523  0.2363
   99SAPC  H17X 9911   4.605   4.216   3.714  2.3602  1.1840  0.6783
   99SAPC  H17Y 9912   4.565   4.251   3.547 -0.1238  1.4757  1.8195
   99SAPC  C318 9913   4.769   4.265   3.592 -0.1107  0.1385  0.0784
   99SAPC  H18X 9914   4.812   4.254   3.490 -1.8412  1.6833 -0.8805
   99SAPC  H18Y 9915   4.838   4.229   3.672 -1.3761 -0.4242  0.9464
   99SAPC  H18Z 9916   4.752   4.374   3.599 -2.5162 -0.2777  1.6292
  100SAPC     N 9917   6.785   0.881   1.685 -0.2645  0.1652 -0.1154
  100SAPC   C12 9918   6.884   1.001   1.686  0.4786 -0.3318  0.4846
  100SAPC  H12A 9919   6.832   1.078   1.631  0.7865 -1.0908 -0.9147
  100SAPC  H12B 9920   6.978   0.986   1.634  1.5782 -1.5268  2.6407
  100SAPC   C13 9921   6.653   0.922   1.729  0.6796 -0.9422 -0.4475
  100SAPC  H13A 9922   6.657   0.955   1.832  0.1421 -0.6320 -0.5252
  100SAPC  H13B 9923   6.628   1.013   1.676 -0.8991 -1.4543 -0.6416
  100SAPC  H13C 9924   6.578   0.845   1.712  1.1395 -1.4347 -0.2761
  100SAPC   C14 9925   6.757   0.834   1.546 -0.7549 -0.1264  0.0550
  100SAPC  H14A 9926   6.841   0.779   1.504 -1.3793 -1.0582 -0.0024
  100SAPC  H14B 9927   6.681   0.758   1.554 -1.1580  0.2652 -0.0602
  100SAPC  H14C 9928   6.742   0.914   1.476 -0.0485 -0.8638 -0.9786
  100SAPC   C15 9929   6.838   0.771   1.771 -0.0643 -0.1149  0.8882
  100SAPC  H15A 9930   6.918   0.714   1.728 -1.8870 -2.9175  0.9787
  100SAPC  H15B 9931   6.861   0.805   1.871 -0.6008 -2.6435  1.9307
  100SAPC  H15C 9932   6.760   0.698   1.790 -0.3019 -0.4431 -1.1659
  100SAPC   C11 9933   6.916   1.072   1.823 -0.0986  0.1522  1.2156
  100SAPC  H11A 9934   6.991   1.151   1.801 -0.4725  0.6513  1.6903
  100SAPC  H11B 9935   6.975   0.992   1.873  1.9251 -1.2232 -2.9004
  100SAPC     P 9936   6.752   1.263   1.815 -0.1695 -0.0282 -0.1659
  100SAPC   O13 9937   6.861   1.359   1.837  0.6161 -0.1539 -0.0534
  100SAPC   O14 9938   6.707   1.236   1.677 -0.2182  0.0063 -0.3588
  100SAPC   O12 9939   6.796   1.124   1.885  0.7353 -0.1226  1.0063
  100SAPC   O11 9940   6.630   1.299   1.900 -0.0978  0.1886  0.3407
  100SAPC    C1 9941   6.643   1.327   2.042 -0.3829 -0.5923  0.2846
  100SAPC    HA 9942   6.716   1.259   2.090  3.8155  2.7483 -0.7374
  100SAPC    HB 9943   6.687   1.428   2.054  1.1592 -1.2602  0.3942
  100SAPC    C2 9944   6.502   1.317   2.102  0.1638  0.3313  0.1410
  100SAPC    HS 9945   6.449   1.413   2.081  0.2586  0.5058  0.6870
  100SAPC   O21 9946   6.514   1.310   2.248 -0.0545 -0.6022  0.5968
  100SAPC   C21 9947   6.561   1.411   2.314  0.0930 -0.8864 -1.1271
  100SAPC   O22 9948   6.582   1.517   2.264 -0.0011 -0.7092  0.1112
  100SAPC   C22 9949   6.592   1.377   2.467 -0.0356  0.0503 -0.5055
  100SAPC   H2R 9950   6.703   1.366   2.474 -0.0681 -1.2416 -1.5885
  100SAPC   H2S 9951   6.547   1.459   2.527 -1.0750  1.2469 -2.7955
  100SAPC    C3 9952   6.416   1.200   2.055 -0.9894  0.5693  0.0181
  100SAPC    HX 9953   6.457   1.102   2.089 -0.8186  0.9339  0.9032
  100SAPC    HY 9954   6.413   1.205   1.944  1.4223 -0.5694 -0.1764
  100SAPC   O31 9955   6.289   1.214   2.118  0.2736  0.3616 -0.1953
  100SAPC   C31 9956   6.194   1.291   2.060 -0.0008  0.7072 -0.1347
  100SAPC   O32 9957   6.211   1.358   1.956 -0.2573 -0.2782  0.7105
  100SAPC   C32 9958   6.074   1.295   2.155  0.4361 -0.1295  0.3414
  100SAPC   H2X 9959   6.082   1.225   2.241 -1.6868 -2.1029 -0.9479
  100SAPC   H2Y 9960   5.988   1.263   2.092 -1.2027  0.2955  2.2997
  100SAPC   C23 9961   6.531   1.237   2.525  0.8545  0.4492  0.1323
  100SAPC   H3R 9962   6.588   1.171   2.456  2.8085 -0.5182  2.5428
  100SAPC   H3S 9963   6.423   1.247   2.499  0.6477  0.5980  1.0429
  100SAPC   C24 9964   6.561   1.208   2.667  0.1708  0.0190 -0.6179
  100SAPC   H4R 9965   6.671   1.215   2.679  0.1851  0.6737 -1.0319
  100SAPC   H4S 9966   6.536   1.101   2.675  1.5308 -0.3102 -0.4678
  100SAPC   C25 9967   6.480   1.285   2.769  0.0939  0.3253 -0.0229
  100SAPC   H5R 9968   6.377   1.319   2.749 -0.6150 -2.2587 -1.1992
  100SAPC   C26 9969   6.522   1.322   2.893 -0.2349 -0.0776  0.3460
  100SAPC   H6R 9970   6.451   1.381   2.951 -0.2648 -0.1838  0.4183
  100SAPC   C27 9971   6.656   1.287   2.958  0.0922 -0.1844  0.3401
  100SAPC   H7R 9972   6.725   1.374   2.958 -0.1682  0.0255  0.0148
  100SAPC   H7S 9973   6.717   1.222   2.890  2.9692  1.2732  1.3453
  100SAPC   C28 9974   6.640   1.232   3.099  0.7962 -0.8162 -0.2334
  100SAPC   H8R 9975   6.544   1.242   3.151  0.5061 -2.5698 -0.3628
  100SAPC   C29 9976   6.739   1.186   3.184 -0.1079 -0.8381  0.3318
  100SAPC   H9R 9977   6.700   1.138   3.274 -0.1062  0.2160  0.9102
  100SAPC  C210 9978   6.889   1.190   3.154  0.2749 -0.4963  0.0141
  100SAPC  H10R 9979   6.936   1.144   3.243 -2.6690 -1.0895  1.3692
  100SAPC  H10S 9980   6.926   1.295   3.151  2.2937 -1.1384  0.3006
  100SAPC  C211 9981   6.933   1.123   3.031 -0.8020 -0.1894  0.7563
  100SAPC  H11R 9982   6.846   1.078   2.980  0.8053 -1.7135 -0.7808
  100SAPC  C212 9983   7.054   1.107   2.986 -0.5518  0.1986  0.2878
  100SAPC  H12R 9984   7.069   1.049   2.894  0.1772 -0.1569  0.6191
  100SAPC  C213 9985   7.184   1.152   3.044  0.2422  0.3780  0.0373
  100SAPC  H13R 9986   7.262   1.147   2.964  0.7882 -1.2230  0.6142
  100SAPC  H13S 9987   7.223   1.082   3.121  3.2578  1.6440 -0.1657
  100SAPC  C214 9988   7.193   1.295   3.083  0.2210  0.0522 -0.2599
  100SAPC  H14R 9989   7.132   1.363   3.022 -1.0326  0.7844  1.7209
  100SAPC  C215 9990   7.258   1.345   3.192 -0.3937 -0.3740  0.5957
  100SAPC  H15R 9991   7.248   1.453   3.213 -0.1185 -0.2820  0.2577
  100SAPC  C216 9992   7.337   1.254   3.285 -0.3495 -0.5620  0.0679
  100SAPC  H16R 9993   7.404   1.186   3.227  0.0843 -0.7940  0.8307
  100SAPC  H16S 9994   7.270   1.202   3.357 -1.5837  0.5879 -0.2281
  100SAPC  C217 9995   7.441   1.341   3.367  0.5386 -0.1878 -0.1656
  100SAPC  H17R 9996   7.480   1.421   3.301  1.1306 -0.5515 -0.2628
  100SAPC  H17S 9997   7.524   1.272   3.393  0.8276  0.5469  0.9512
  100SAPC  C218 9998   7.382   1.389   3.504  0.3703 -0.9926  0.1875
  100SAPC  H18R 9999   7.387   1.319   3.590  3.6179 -0.5706  0.4734
  100SAPC  H18S10000   7.275   1.409   3.483  0.0497 -3.3567 -0.6708
  100SAPC  C21910001   7.453   1.515   3.553  0.5411 -0.3538  0.5838
  100SAPC  H19R10002   7.421   1.600   3.489  2.5990 -0.8112 -1.1641
  100SAPC  H19S10003   7.564   1.509   3.544  0.5333  0.4908 -0.2471
  100SAPC  C22010004   7.409   1.558   3.695 -0.1061  0.4404  0.3932
  100SAPC  H20R10005   7.462   1.651   3.721  1.2043  0.2204 -1.3397
  100SAPC  H20S10006   7.435   1.473   3.762  0.2015 -1.9665 -2.5353
  100SAPC  H20T10007   7.298   1.563   3.686 -0.2647 -3.3038 -2.4842
  100SAPC   C3310008   6.052   1.434   2.213 -0.5045 -0.3701 -0.8448
  100SAPC   H3X10009   5.946   1.458   2.236  0.0496 -0.4496  2.1009
  100SAPC   H3Y10010   6.093   1.511   2.143  0.1981 -1.0583 -1.2011
  100SAPC   C3410011   6.121   1.462   2.345  0.0366 -0.3017  0.1566
  100SAPC   H4X10012   6.116   1.571   2.367  0.2517 -0.4462  0.9430
  100SAPC   H4Y10013   6.221   1.413   2.345 -0.0602 -0.4982  0.2679
  100SAPC   C3510014   6.068   1.397   2.476  0.4397 -0.0067  0.2743
  100SAPC   H5X10015   6.096   1.289   2.478  0.1833 -0.3412 -4.3049
  100SAPC   H5Y10016   5.959   1.396   2.458  0.4987 -0.8454 -0.0997
  100SAPC   C3610017   6.105   1.463   2.613 -0.2538  0.2598 -1.0716
  100SAPC   H6X10018   6.069   1.568   2.617  1.8891  1.0350  2.2138
  100SAPC   H6Y10019   6.216   1.460   2.624 -0.3307  2.2484  1.0428
  100SAPC   C3710020   6.036   1.396   2.734 -0.1632  0.1934  0.2635
  100SAPC   H7X10021   6.054   1.288   2.721  1.6213  0.4818  0.0029
  100SAPC   H7Y10022   5.927   1.413   2.722 -0.0891 -0.3489 -1.4435
  100SAPC   C3810023   6.089   1.441   2.869  0.5411  0.1564  0.3453
  100SAPC   H8X10024   6.051   1.542   2.896  3.2723  0.8321  2.1323
  100SAPC   H8Y10025   6.200   1.448   2.860  0.4988 -1.8992 -3.3569
  100SAPC   C3910026   6.058   1.337   2.974 -0.5144  0.0098  0.4389
  100SAPC   H9X10027   6.071   1.232   2.942 -1.7419  0.2875 -1.0945
  100SAPC   H9Y10028   5.949   1.332   2.995 -0.8199 -1.5992 -1.3694
  100SAPC  C31010029   6.139   1.358   3.099 -0.4144 -0.3100  0.3436
  100SAPC  H10X10030   6.121   1.464   3.127 -0.5698 -0.1006 -0.5094
  100SAPC  H10Y10031   6.247   1.349   3.074 -0.7007  0.9679 -1.6000
  100SAPC  C31110032   6.107   1.252   3.205  0.5488  0.6289  0.6660
  100SAPC  H11X10033   6.133   1.160   3.148 -0.9790  0.0102  0.9086
  100SAPC  H11Y10034   6.001   1.247   3.237  0.3965  1.0029  0.2360
  100SAPC  C31210035   6.201   1.253   3.322 -0.0014  0.1104  1.3187
  100SAPC  H12X10036   6.202   1.355   3.367  0.0179  0.4936  0.4747
  100SAPC  H12Y10037   6.302   1.225   3.286  0.2011  2.4959 -0.2121
  100SAPC  C31310038   6.156   1.160   3.433  0.3177  0.0572 -0.4729
  100SAPC  H13X10039   6.122   1.064   3.388 -0.6216 -1.3793  2.9766
  100SAPC  H13Y10040   6.075   1.208   3.491  0.3500  1.0341 -1.2075
  100SAPC  C31410041   6.279   1.127   3.527 -0.6850  0.1603  0.7727
  100SAPC  H14X10042   6.324   1.220   3.569  0.5517  0.1290 -0.4374
  100SAPC  H14Y10043   6.352   1.075   3.462 -2.2598 -0.5069 -0.5493
  100SAPC  C31510044   6.235   1.039   3.639 -0.0833  0.2107  0.1653
  100SAPC  H15X10045   6.233   0.938   3.595  2.3979  0.5399 -0.8959
  100SAPC  H15Y10046   6.132   1.069   3.667 -0.1906 -0.6817  0.7687
  100SAPC  C31610047   6.342   1.024   3.747  0.1576 -0.0478  0.6050
  100SAPC  H16X10048   6.372   1.128   3.772  0.6364 -0.1035  0.2658
  100SAPC  H16Y10049   6.428   0.972   3.700 -0.6895 -1.8949  1.0222
  100SAPC  C31710050   6.280   0.940   3.863  0.1984 -0.2247  0.6269
  100SAPC  H17X10051   6.229   0.850   3.822 -2.8347  2.7001 -2.8262
  100SAPC  H17Y10052   6.200   1.006   3.903 -0.0913  1.2205 -2.0769
  100SAPC  C31810053   6.375   0.902   3.978  0.4801  0.0181  0.1037
  100SAPC  H18X10054   6.424   0.992   4.022  1.0173 -0.1245 -0.1948
  100SAPC  H18Y10055   6.446   0.826   3.939  1.1555  1.3795 -1.4160
  100SAPC  H18Z10056   6.319   0.858   4.063 -0.9477 -1.5643 -1.5843
  101OSM      N10057   3.290   5.126   6.378  0.0357  0.3379  0.4532
  101OSM    C1510058   3.267   4.996   6.439 -0.3069  0.8666  0.0881
  101OSM   H15A10059   3.348   4.931   6.412 -1.9777 -0.8910 -0.8881
  101OSM   H15B10060   3.186   4.946   6.387 -1.5202  0.0679  2.5716
  101OSM   H15C10061   3.257   5.004   6.546  1.0324  0.4493  0.2523
  101OSM    C1410062   3.194   5.212   6.436  1.3482 -0.8338  0.1327
  101OSM   H14A10063   3.227   5.246   6.533  0.0408 -0.5034  0.4937
  101OSM   H14B10064   3.093   5.174   6.446  0.7581  1.0981  2.3611
  101OSM   H14C10065   3.174   5.296   6.371 -0.2336  0.2179  1.8719
  101OSM    C1310066   3.424   5.171   6.420  0.2747 -0.1396  0.0001
  101OSM   H13A10067   3.477   5.254   6.376  1.2674 -0.4109  0.6530
  101OSM   H13B10068   3.493   5.087   6.415 -2.1608 -2.2406 -0.3261
  101OSM   H13C10069   3.427   5.198   6.525  0.2480  0.2771 -0.1050
  101OSM    C1210070   3.286   5.117   6.225 -0.6687  0.5463 -0.1217
  101OSM   H12A10071   3.359   5.044   6.191  0.3924  0.5950  1.8715
  101OSM   H12B10072   3.305   5.217   6.188  0.2434 -0.4614 -2.5999
  101OSM    C1110073   3.155   5.072   6.158  0.4325  0.0107 -0.0683
  101OSM   H11A10074   3.175   5.093   6.051  2.8056 -1.1248  0.0906
  101OSM   H11B10075   3.073   5.141   6.187  0.7445  0.0443  0.7532
  101OSM      P10076   2.970   4.896   6.163  0.3190 -0.5086  0.2175
  101OSM    O1310077   2.956   4.750   6.154 -0.2601 -0.0954 -0.2865
  101OSM    O1410078   2.883   4.963   6.258  0.4693  0.0199 -0.3834
  101OSM    O1110079   2.940   4.955   6.021 -0.2739  0.0806 -0.1110
  101OSM    O1210080   3.122   4.931   6.186  0.3481 -0.2103 -0.0606
  101OSM    C1S10081   2.988   4.908   5.895 -0.0742  0.2486  0.3966
  101OSM    H1S10082   3.008   4.799   5.908  3.0897  0.8402  1.5384
  101OSM    H1T10083   3.083   4.958   5.864  0.0756  0.0749  0.5699
  101OSM     NF10084   2.935   4.821   5.672  0.6321  0.3229 -1.5278
  101OSM    HNF10085   2.987   4.866   5.601  2.3659 -0.2350 -0.6791
  101OSM    C2S10086   2.882   4.910   5.780  0.5351 -0.3467  0.2594
  101OSM    H2S10087   2.789   4.858   5.812 -0.2711  0.3392 -0.8808
  101OSM    C3S10088   2.843   5.058   5.749 -0.4963 -0.4301 -0.5296
  101OSM    H3S10089   2.928   5.099   5.690  0.5350 -1.1868  0.3961
  101OSM     O310090   2.818   5.147   5.862 -0.0940 -0.2451  0.1525
  101OSM    HO310091   2.857   5.105   5.938 -2.0201 -0.9784  0.7887
  101OSM    C4S10092   2.732   5.058   5.639 -0.5523 -0.7115  0.1566
  101OSM    H4S10093   2.784   5.088   5.547  1.9568 -1.4005  1.2535
  101OSM    C5S10094   2.603   5.031   5.655 -0.2751  0.9271 -0.3794
  101OSM    H5S10095   2.567   4.996   5.752  1.5375 -1.2947 -0.4075
  101OSM    C6S10096   2.496   5.038   5.542 -0.0332  0.3055 -0.3109
  101OSM    H6S10097   2.442   5.134   5.549 -2.0327 -0.8473  1.1432
  101OSM    H6T10098   2.412   4.974   5.576 -1.7492  2.1810 -0.8687
  101OSM    C7S10099   2.547   5.015   5.400  0.5203  0.5051 -0.2197
  101OSM    H7S10100   2.613   4.925   5.400 -0.4993 -0.2672 -0.1228
  101OSM    H7T10101   2.612   5.099   5.367  2.8064 -1.5141 -1.1672
  101OSM    C8S10102   2.433   4.992   5.290 -0.3136 -0.0940 -0.7671
  101OSM    H8S10103   2.388   5.094   5.288  0.5497  0.3213 -0.0289
  101OSM    H8T10104   2.354   4.920   5.323 -0.0331  0.0798  0.3335
  101OSM    C9S10105   2.489   4.959   5.155 -0.7342 -0.2569 -0.4627
  101OSM    H9S10106   2.573   4.888   5.171 -1.8639 -1.3817  0.7547
  101OSM    H9T10107   2.537   5.046   5.106  0.2252  0.0257  0.9260
  101OSM   C10S10108   2.391   4.888   5.065 -0.1122 -0.4861  0.6240
  101OSM   H10S10109   2.295   4.942   5.054 -0.1138 -0.1118  2.2445
  101OSM   H10T10110   2.358   4.791   5.108  1.7768  0.0365  3.5392
  101OSM   C11S10111   2.459   4.854   4.928  0.2529 -0.4970 -0.1426
  101OSM   H11S10112   2.556   4.804   4.951 -0.0713 -0.3827  1.6358
  101OSM   H11T10113   2.485   4.950   4.879 -1.2045  0.8204  1.5567
  101OSM   C12S10114   2.389   4.758   4.834 -0.6602 -0.1851  0.6911
  101OSM   H12S10115   2.399   4.652   4.863  0.5179 -0.4565 -0.5998
  101OSM   H12T10116   2.432   4.773   4.733 -0.3829  2.5335  1.1226
  101OSM   C13S10117   2.236   4.778   4.835  0.4305 -0.1494  0.3585
  101OSM   H13S10118   2.213   4.885   4.854  3.5091  0.3640  1.7872
  101OSM   H13T10119   2.193   4.733   4.927 -2.8123 -0.9616 -1.4008
  101OSM   C14S10120   2.174   4.725   4.704  0.9139  0.1313 -0.9531
  101OSM   H14S10121   2.224   4.628   4.681  0.7491  0.0760 -1.0793
  101OSM   H14T10122   2.189   4.804   4.628  0.4605 -0.9037 -2.1393
  101OSM   C15S10123   2.023   4.711   4.712  0.1982 -0.0210  0.7228
  101OSM   H15S10124   1.971   4.807   4.734  2.2161  1.2595  0.1999
  101OSM   H15T10125   2.005   4.633   4.789 -0.6621  0.7621  1.3387
  101OSM   C16S10126   1.967   4.664   4.569 -0.2059 -0.7450 -0.1109
  101OSM   H16S10127   1.857   4.670   4.576 -0.0755  0.3457  1.5122
  101OSM   H16T10128   2.003   4.559   4.554 -0.4733 -0.6111 -1.9733
  101OSM   C17S10129   2.008   4.746   4.445 -0.2160 -0.8903 -0.6824
  101OSM   H17S10130   2.118   4.731   4.446  0.4705  2.9833  1.3882
  101OSM   H17T10131   1.991   4.853   4.468 -1.4517 -1.2443  0.1827
  101OSM   C18S10132   1.943   4.703   4.314  0.0792 -0.4140 -0.0829
  101OSM   H18S10133   1.836   4.735   4.312  1.2317  4.1278  0.9266
  101OSM   H18T10134   1.956   4.592   4.319 -1.4961 -0.5784  1.8323
  101OSM   H18U10135   1.994   4.759   4.233  0.6539 -0.7064  0.0732
  101OSM    C1F10136   2.941   4.689   5.691  0.0173  0.6202 -0.1744
  101OSM     OF10137   2.893   4.627   5.788  0.2583  0.0422  0.3471
  101OSM    C2F10138   3.030   4.612   5.595  0.0934 -0.0207  0.1336
  101OSM    H2F10139   3.138   4.625   5.617 -0.1833  0.6654  1.1514
  101OSM    H2G10140   3.006   4.668   5.502 -1.9183 -0.9081  0.0572
  101OSM    C3F10141   3.007   4.462   5.572  0.3250 -0.0807 -0.2717
  101OSM    H3F10142   2.899   4.438   5.572  0.0447  0.8322  2.6123
  101OSM    H3G10143   3.039   4.402   5.660  1.0613  0.7812  0.0656
  101OSM    C4F10144   3.052   4.404   5.437  0.2366  0.2260  0.9794
  101OSM    H4F10145   3.001   4.466   5.360 -0.4574 -0.0155  1.2456
  101OSM    H4G10146   2.997   4.308   5.428 -0.7802  0.9201 -0.6446
  101OSM    C5F10147   3.210   4.393   5.433  0.8513 -0.1209 -0.2017
  101OSM    H5F10148   3.254   4.312   5.495  1.6891  0.3048 -0.2338
  101OSM    H5G10149   3.245   4.494   5.463  2.4607 -1.1454  1.5933
  101OSM    C6F10150   3.257   4.367   5.289 -0.1543 -0.2049  0.0872
  101OSM    H6F10151   3.207   4.278   5.246  1.5245 -1.2240  0.1758
  101OSM    H6G10152   3.366   4.353   5.280 -0.3297 -1.7041  0.0959
  101OSM    C7F10153   3.231   4.489   5.197  0.7589 -0.5161 -0.1993
  101OSM    H7F10154   3.322   4.552   5.203  1.5038 -1.7283  2.3515
  101OSM    H7G10155   3.147   4.553   5.231 -1.1354 -2.0361 -1.7335
  101OSM    C8F10156   3.206   4.444   5.047  0.3368  0.1782 -0.2810
  101OSM    H8F10157   3.306   4.395   5.035  0.8244  1.2800 -0.8365
  101OSM    H8G10158   3.194   4.539   4.991  3.5281  1.2809  0.6736
  101OSM    C9F10159   3.081   4.361   5.032 -0.1555  0.0807  0.4607
  101OSM    H9F10160   2.992   4.373   5.095 -1.8941  2.0225 -2.1306
  101OSM   C10F10161   3.042   4.312   4.914  0.3253  0.3064 -0.4958
  101OSM   H10F10162   2.951   4.253   4.896 -0.2587  0.9221  0.3368
  101OSM   C11F10163   3.117   4.320   4.782 -0.4450 -0.8900  0.0893
  101OSM   H11F10164   3.075   4.232   4.728 -0.3759 -0.6934 -0.2864
  101OSM   H11G10165   3.226   4.303   4.795  0.1795  1.3061 -1.7405
  101OSM   C12F10166   3.115   4.448   4.698 -0.1944 -0.3904 -0.0024
  101OSM   H12F10167   3.163   4.536   4.746  1.6267 -0.9243 -0.7427
  101OSM   H12G10168   3.008   4.465   4.678 -0.4879 -1.0395  0.9472
  101OSM   C13F10169   3.177   4.425   4.557  0.3107 -0.6153 -0.6191
  101OSM   H13F10170   3.279   4.381   4.555 -0.5262 -2.6678 -1.0383
  101OSM   H13G10171   3.187   4.529   4.521 -1.7522  0.8783  2.7167
  101OSM   C14F10172   3.069   4.354   4.467  0.1755 -0.3325 -0.0408
  101OSM   H14F10173   2.968   4.396   4.489  0.5789  1.1673 -0.9011
  101OSM   H14G10174   3.077   4.247   4.497  1.1096  0.0731  1.2617
  101OSM   C15F10175   3.111   4.362   4.320  0.3852  0.1568 -0.6525
  101OSM   H15F10176   3.150   4.459   4.283  0.4050 -0.6319 -2.8165
  101OSM   H15G10177   3.025   4.345   4.252  0.1729  2.1091 -0.9294
  101OSM   C16F10178   3.222   4.263   4.286  0.0801 -0.3949  0.0970
  101OSM   H16F10179   3.181   4.161   4.273 -2.1326  0.6225 -1.3683
  101OSM   H16G10180   3.304   4.260   4.361 -0.9253  2.4129  1.4354
  101OSM   C17F10181   3.283   4.293   4.146 -0.1267 -0.5631 -0.3312
  101OSM   H17F10182   3.361   4.215   4.134 -0.1919 -1.0493  1.9997
  101OSM   H17G10183   3.334   4.391   4.134  0.9683 -1.2450 -1.4641
  101OSM   C18F10184   3.184   4.288   4.031  0.3576 -0.3565  0.0083
  101OSM   H18F10185   3.220   4.237   3.939 -1.1857 -2.5350  0.5312
  101OSM   H18G10186   3.154   4.389   3.995  2.1741  0.2373  0.0324
  101OSM   H18H10187   3.095   4.232   4.066 -1.3650  2.9282  1.3584
  102OSM      N10188   3.283   4.592   6.164  0.1630 -0.1260  0.3967
  102OSM    C1510189   3.171   4.584   6.061 -0.3940  0.5730 -0.4296
  102OSM   H15A10190   3.158   4.479   6.040  1.9454 -0.4506  2.4224
  102OSM   H15B10191   3.193   4.629   5.966 -0.6409  0.9807 -0.2976
  102OSM   H15C10192   3.083   4.640   6.092  0.4314  1.6519  0.0196
  102OSM    C1410193   3.237   4.540   6.297  0.6862 -0.0829 -0.0779
  102OSM   H14A10194   3.183   4.612   6.356  2.0260  0.2360  0.8115
  102OSM   H14B10195   3.321   4.519   6.362  1.1314 -1.5606 -1.0797
  102OSM   H14C10196   3.168   4.458   6.289  1.3653 -0.6790  0.0425
  102OSM    C1310197   3.398   4.504   6.123  0.3110 -0.0967  0.4269
  102OSM   H13A10198   3.366   4.406   6.093 -1.0899  0.5567 -0.2865
  102OSM   H13B10199   3.475   4.497   6.199 -0.8315 -0.7469  1.5559
  102OSM   H13C10200   3.453   4.550   6.042  1.8024 -2.2776  0.1351
  102OSM    C1210201   3.339   4.732   6.182  0.0621  0.4065  0.0107
  102OSM   H12A10202   3.419   4.721   6.254 -1.6059 -1.1868  1.7198
  102OSM   H12B10203   3.263   4.802   6.215 -0.8209 -0.7538  0.5098
  102OSM    C1110204   3.412   4.804   6.059 -0.4366 -0.2421  0.1981
  102OSM   H11A10205   3.451   4.900   6.099 -1.3186 -0.2284  1.0549
  102OSM   H11B10206   3.331   4.829   5.988  0.3178  4.4436  0.7074
  102OSM      P10207   3.667   4.730   6.031 -0.1569  0.4057  0.0798
  102OSM    O1310208   3.720   4.859   5.984  0.0086  0.3129 -0.0424
  102OSM    O1410209   3.680   4.702   6.174  0.2915 -0.3577 -0.3773
  102OSM    O1110210   3.735   4.612   5.943  0.0232  0.0260 -0.2630
  102OSM    O1210211   3.514   4.726   6.001  0.0546  0.3090  0.6347
  102OSM    C1S10212   3.680   4.479   5.941  0.6442 -0.3137  0.2255
  102OSM    H1S10213   3.574   4.494   5.914  0.3427 -2.1805  0.2579
  102OSM    H1T10214   3.688   4.434   6.042 -0.2801  1.1896  1.0086
  102OSM     NF10215   3.688   4.260   5.812  0.2818  0.7285  0.6967
  102OSM    HNF10216   3.737   4.177   5.840 -1.1043 -0.3082  0.2040
  102OSM    C2S10217   3.752   4.393   5.834  0.3670  0.5475 -0.0285
  102OSM    H2S10218   3.734   4.455   5.743  0.6155  1.4477  0.5234
  102OSM    C3S10219   3.907   4.377   5.849  0.9665  0.0433 -0.5446
  102OSM    H3S10220   3.936   4.310   5.933  0.0209  0.2134 -0.0824
  102OSM     O310221   3.970   4.506   5.866 -0.1077  1.1101 -0.1132
  102OSM    HO310222   3.904   4.572   5.845 -0.0368  2.0656  2.3704
  102OSM    C4S10223   3.959   4.304   5.722 -0.3625 -0.2050  0.4588
  102OSM    H4S10224   3.954   4.195   5.734 -0.3743  0.0575  3.6108
  102OSM    C5S10225   3.996   4.360   5.601  0.3156 -0.5402  0.7272
  102OSM    H5S10226   4.009   4.469   5.592  1.7158 -0.7694 -0.4744
  102OSM    C6S10227   4.035   4.291   5.474 -0.3984  0.1921  0.3167
  102OSM    H6S10228   4.091   4.202   5.510  0.7238  1.4027  1.6883
  102OSM    H6T10229   4.110   4.354   5.422  1.5816 -0.6951  1.9538
  102OSM    C7S10230   3.922   4.242   5.385  0.6299  0.0565 -0.5136
  102OSM    H7S10231   3.874   4.329   5.336 -2.0544 -0.9943  0.0743
  102OSM    H7T10232   3.839   4.176   5.420  1.4770 -1.5044 -1.3307
  102OSM    C8S10233   3.969   4.154   5.265  0.3757 -0.6710  1.0178
  102OSM    H8S10234   4.049   4.083   5.297  3.1301  0.8515 -1.8738
  102OSM    H8T10235   4.022   4.227   5.200 -1.1610 -1.1866 -0.9239
  102OSM    C9S10236   3.863   4.088   5.181 -0.3520 -0.1308 -0.0697
  102OSM    H9S10237   3.796   4.168   5.143 -0.0317 -0.7661 -2.0759
  102OSM    H9T10238   3.795   4.029   5.246  1.3166 -0.5477  1.3932
  102OSM   C10S10239   3.913   3.998   5.067 -0.0163  0.7440 -0.2723
  102OSM   H10S10240   3.831   3.942   5.018  0.5246 -0.6695  0.3699
  102OSM   H10T10241   3.989   3.928   5.106 -0.9683 -0.3737 -0.3734
  102OSM   C11S10242   3.979   4.079   4.956 -0.1558 -0.4724  0.0649
  102OSM   H11S10243   4.076   4.112   5.000 -2.6226  3.7189  3.1360
  102OSM   H11T10244   3.921   4.172   4.939  0.9145 -0.1436 -2.1174
  102OSM   C12S10245   4.001   4.014   4.824  0.1951 -0.5300  0.0682
  102OSM   H12S10246   4.071   3.931   4.846 -1.3672 -1.5983  1.2630
  102OSM   H12T10247   4.057   4.086   4.762 -0.1665 -0.0985  0.2318
  102OSM   C13S10248   3.869   3.979   4.754 -0.5987  1.1455  0.0093
  102OSM   H13S10249   3.805   4.069   4.750  0.0570  1.6062 -0.3030
  102OSM   H13T10250   3.811   3.906   4.814  2.2063 -1.4715 -0.2147
  102OSM   C14S10251   3.891   3.923   4.610  0.3204 -0.4944 -0.6732
  102OSM   H14S10252   3.972   3.976   4.555  0.3853 -1.4862 -1.5555
  102OSM   H14T10253   3.794   3.924   4.556  0.8457  3.2546 -1.8875
  102OSM   C15S10254   3.954   3.779   4.616  0.3001 -0.2162  0.2318
  102OSM   H15S10255   3.900   3.716   4.690 -0.7603 -0.6756 -0.9016
  102OSM   H15T10256   4.056   3.792   4.660 -0.1766  1.3153  0.9656
  102OSM   C16S10257   3.962   3.724   4.477  0.4254  0.0560 -0.0773
  102OSM   H16S10258   4.016   3.800   4.417 -0.3995  0.2961 -0.5421
  102OSM   H16T10259   3.863   3.706   4.429  0.2876 -0.0762  0.2543
  102OSM   C17S10260   4.053   3.604   4.467 -0.1837  1.0367 -0.6237
  102OSM   H17S10261   4.054   3.575   4.360 -1.0691  1.6085 -0.8012
  102OSM   H17T10262   4.001   3.522   4.522  0.3893  1.0696 -0.0209
  102OSM   C18S10263   4.199   3.632   4.497  0.3061  0.5004  0.9182
  102OSM   H18S10264   4.259   3.592   4.413 -0.4134 -0.0391  0.6496
  102OSM   H18T10265   4.236   3.590   4.593  0.3808 -2.0523 -0.1559
  102OSM   H18U10266   4.211   3.743   4.497  0.9398  0.4342  1.6781
  102OSM    C1F10267   3.569   4.240   5.770  0.3392  0.1839  0.3100
  102OSM     OF10268   3.490   4.327   5.733  0.3232  0.0599 -0.7704
  102OSM    C2F10269   3.528   4.095   5.761 -0.5697  0.0340 -0.0067
  102OSM    H2F10270   3.480   4.076   5.859 -0.9396  0.2625 -0.1417
  102OSM    H2G10271   3.618   4.029   5.761  0.2339  1.0188  2.4719
  102OSM    C3F10272   3.434   4.069   5.639 -0.1557  0.2783 -0.3785
  102OSM    H3F10273   3.362   4.151   5.620  0.4577  1.2018  1.1228
  102OSM    H3G10274   3.371   3.981   5.663  1.6750 -0.9359  0.2236
  102OSM    C4F10275   3.508   4.011   5.513  0.4263  0.3413 -0.1794
  102OSM    H4F10276   3.579   3.931   5.543  0.6284  0.1910 -1.0423
  102OSM    H4G10277   3.571   4.088   5.464 -0.2289  2.0851  1.6098
  102OSM    C5F10278   3.394   3.957   5.417 -0.1970 -0.2435 -0.5066
  102OSM    H5F10279   3.333   4.046   5.387  1.1122  0.0159 -2.5909
  102OSM    H5G10280   3.339   3.884   5.480 -0.5358  1.7842  1.6856
  102OSM    C6F10281   3.441   3.891   5.284 -0.2117 -0.4845 -0.0813
  102OSM    H6F10282   3.359   3.821   5.256  1.4700 -3.1784  1.3386
  102OSM    H6G10283   3.523   3.819   5.304  1.5412  0.6323 -2.5946
  102OSM    C7F10284   3.471   3.999   5.173  0.0517  0.3577 -1.0458
  102OSM    H7F10285   3.548   4.070   5.211 -0.3646  0.6268 -0.6904
  102OSM    H7G10286   3.379   4.061   5.160  0.5908  1.8932  1.5390
  102OSM    C8F10287   3.520   3.947   5.037 -0.2601  0.1335 -0.6588
  102OSM    H8F10288   3.445   3.870   5.010  0.2253 -0.2357 -0.9801
  102OSM    H8G10289   3.619   3.897   5.048  0.9100  2.1706 -1.4111
  102OSM    C9F10290   3.536   4.066   4.937 -0.1243  0.4853 -0.8795
  102OSM    H9F10291   3.628   4.124   4.950 -0.1503  0.5649 -1.0434
  102OSM   C10F10292   3.461   4.099   4.828 -0.0251  0.4091 -0.0624
  102OSM   H10F10293   3.487   4.187   4.767  2.9877 -1.4817 -1.7318
  102OSM   C11F10294   3.344   4.008   4.779 -0.1271 -0.4932  0.1068
  102OSM   H11F10295   3.248   4.061   4.791 -1.8249 -2.5984 -2.7629
  102OSM   H11G10296   3.346   3.907   4.825  1.3397 -1.4551 -1.8931
  102OSM   C12F10297   3.338   3.982   4.624  0.6861 -0.6556 -0.0331
  102OSM   H12F10298   3.325   4.078   4.569  0.2798 -1.5233 -1.5149
  102OSM   H12G10299   3.249   3.922   4.596  0.0382  0.4749 -0.4205
  102OSM   C13F10300   3.468   3.907   4.579  0.2430 -0.0129  0.2546
  102OSM   H13F10301   3.458   3.805   4.621  0.4882 -0.7087 -1.3217
  102OSM   H13G10302   3.561   3.956   4.615  2.8005 -2.1851 -2.8662
  102OSM   C14F10303   3.488   3.894   4.430  0.2665 -0.0871  0.0061
  102OSM   H14F10304   3.388   3.861   4.394 -0.5154  1.1757  0.9577
  102OSM   H14G10305   3.562   3.816   4.403 -0.0420  0.5350 -2.9918
  102OSM   C15F10306   3.538   4.024   4.362  0.0092  0.4196 -0.1649
  102OSM   H15F10307   3.622   4.056   4.428  0.4049 -2.6932  0.9764
  102OSM   H15G10308   3.445   4.085   4.363 -0.1924  0.1307  1.6405
  102OSM   C16F10309   3.601   3.998   4.222  0.2386  0.0564 -0.0592
  102OSM   H16F10310   3.521   3.997   4.145 -0.3887  1.6141  0.5302
  102OSM   H16G10311   3.656   3.901   4.232  1.8674  0.7725 -1.6502
  102OSM   C17F10312   3.703   4.111   4.182  0.9045  0.6384 -0.5333
  102OSM   H17F10313   3.688   4.199   4.249 -1.1606  0.2835 -0.4644
  102OSM   H17G10314   3.692   4.137   4.074  2.8999  0.9534 -0.7002
  102OSM   C18F10315   3.840   4.047   4.197 -0.0633  0.8066 -0.1177
  102OSM   H18F10316   3.886   4.042   4.298 -0.9905 -1.7091  0.2475
  102OSM   H18G10317   3.901   4.115   4.134 -0.8740  0.5929 -1.1538
  102OSM   H18H10318   3.839   3.942   4.163 -0.8762  0.0770  1.9964
  103OSM      N10319   4.463   1.187   6.537 -0.2706 -0.6477  0.4107
  103OSM    C1510320   4.513   1.099   6.426  0.1418 -0.6103 -0.3245
  103OSM   H15A10321   4.565   1.013   6.465 -0.4688 -0.9092 -0.1634
  103OSM   H15B10322   4.593   1.140   6.366  0.5013 -1.0943 -0.1830
  103OSM   H15C10323   4.440   1.059   6.357  0.8312 -0.9565 -0.8757
  103OSM    C1410324   4.347   1.138   6.603  0.4227  0.1617 -0.2160
  103OSM   H14A10325   4.261   1.159   6.541 -0.4454 -2.8801 -0.1815
  103OSM   H14B10326   4.321   1.188   6.695 -0.9835 -1.8670  0.5643
  103OSM   H14C10327   4.344   1.032   6.624  4.9397  0.2167  1.6820
  103OSM    C1310328   4.570   1.195   6.639 -0.5456  0.1142 -0.0221
  103OSM   H13A10329   4.645   1.268   6.613 -1.1525  0.8979  0.3888
  103OSM   H13B10330   4.628   1.106   6.660  0.8265  1.0401  0.2415
  103OSM   H13C10331   4.524   1.227   6.732  0.1271  1.4845 -0.1376
  103OSM    C1210332   4.437   1.323   6.472 -0.9242 -0.6711  0.6269
  103OSM   H12A10333   4.368   1.320   6.389 -0.0491  1.9627 -0.2910
  103OSM   H12B10334   4.535   1.345   6.433 -0.5440 -1.1493  1.2853
  103OSM    C1110335   4.388   1.438   6.567  0.4065  0.0811 -0.1319
  103OSM   H11A10336   4.323   1.375   6.631  0.0516 -0.0204 -0.5925
  103OSM   H11B10337   4.339   1.517   6.506  2.1534  1.4204  0.0809
  103OSM      P10338   4.612   1.579   6.585 -0.6371 -0.0223  0.0887
  103OSM    O1310339   4.574   1.718   6.615 -0.4468  0.0237 -0.5004
  103OSM    O1410340   4.742   1.538   6.630 -0.5630  0.2877 -0.5438
  103OSM    O1110341   4.596   1.560   6.428 -0.2359 -0.0661 -0.1366
  103OSM    O1210342   4.494   1.495   6.650 -0.5876 -0.6776 -0.1999
  103OSM    C1S10343   4.704   1.520   6.344  0.3892 -1.0548 -0.1992
  103OSM    H1S10344   4.759   1.437   6.393  0.4906 -0.1915  1.2100
  103OSM    H1T10345   4.772   1.607   6.332  1.7592 -2.3336 -2.5850
  103OSM     NF10346   4.747   1.411   6.127 -0.3762  0.5055 -0.7861
  103OSM    HNF10347   4.798   1.455   6.054 -0.3318 -0.2201 -1.2032
  103OSM    C2S10348   4.652   1.484   6.204  0.2635 -0.1056  0.3587
  103OSM    H2S10349   4.572   1.411   6.231  0.5998 -0.6229 -0.0217
  103OSM    C3S10350   4.578   1.599   6.130  0.9883 -0.0082  0.2109
  103OSM    H3S10351   4.650   1.682   6.114 -1.3672  2.5406  1.9752
  103OSM     O310352   4.470   1.655   6.205 -0.3396 -0.1843  0.8386
  103OSM    HO310353   4.502   1.666   6.295  0.7485 -0.4654  0.4991
  103OSM    C4S10354   4.507   1.539   6.018 -0.7401  0.3396  0.9094
  103OSM    H4S10355   4.439   1.456   6.041 -0.1778 -0.4399 -0.1723
  103OSM    C5S10356   4.523   1.590   5.900  0.1008  0.3829  1.4670
  103OSM    H5S10357   4.586   1.680   5.892  0.9490 -0.3099  0.0872
  103OSM    C6S10358   4.448   1.548   5.776  0.9102  0.3677 -0.2311
  103OSM    H6S10359   4.400   1.638   5.732 -0.1190  0.3622  0.8292
  103OSM    H6T10360   4.361   1.484   5.805  0.0586  0.7427 -1.8322
  103OSM    C7S10361   4.531   1.470   5.665  0.2780 -0.0897 -0.3099
  103OSM    H7S10362   4.577   1.379   5.709 -0.0915 -0.5961 -0.9550
  103OSM    H7T10363   4.619   1.533   5.640  0.5044 -0.4250 -0.3594
  103OSM    C8S10364   4.454   1.427   5.538  0.4244 -0.0839 -0.0030
  103OSM    H8S10365   4.428   1.522   5.487  2.7068  0.8739  0.5192
  103OSM    H8T10366   4.352   1.391   5.562 -0.1476  1.6094  0.2615
  103OSM    C9S10367   4.531   1.327   5.455  0.6248 -0.1633 -0.3382
  103OSM    H9S10368   4.534   1.231   5.511 -1.4812  0.0295  0.1874
  103OSM    H9T10369   4.633   1.365   5.431  1.1113 -0.8527  0.5698
  103OSM   C10S10370   4.458   1.314   5.315 -0.0695  0.5961  0.1550
  103OSM   H10S10371   4.434   1.414   5.272  2.1217  0.4528 -1.5974
  103OSM   H10T10372   4.375   1.242   5.326  3.4448 -4.4551 -2.5432
  103OSM   C11S10373   4.547   1.255   5.198  0.6446  0.4644 -0.2506
  103OSM   H11S10374   4.590   1.154   5.217 -1.4546 -0.3916  0.2121
  103OSM   H11T10375   4.632   1.326   5.184  0.6371  0.6282  0.4571
  103OSM   C12S10376   4.464   1.250   5.070  0.3128  0.0758 -0.3572
  103OSM   H12S10377   4.421   1.347   5.038 -2.1182 -0.8461 -0.0851
  103OSM   H12T10378   4.371   1.192   5.088  1.6950 -2.0789  0.2785
  103OSM   C13S10379   4.554   1.183   4.966  0.1065 -0.0112  0.2008
  103OSM   H13S10380   4.621   1.098   4.992  4.2043  1.8021 -3.2830
  103OSM   H13T10381   4.629   1.255   4.928 -1.0687  1.4858  0.6259
  103OSM   C14S10382   4.470   1.142   4.838  0.2866 -0.5587  1.0682
  103OSM   H14S10383   4.423   1.229   4.787  0.0528 -0.6088  1.1953
  103OSM   H14T10384   4.393   1.068   4.871  0.4915 -1.2633  0.0259
  103OSM   C15S10385   4.558   1.060   4.737 -0.4997 -0.4996 -0.9278
  103OSM   H15S10386   4.603   0.977   4.795  0.6180  0.8638  0.2452
  103OSM   H15T10387   4.645   1.124   4.713 -0.6919  0.0686 -0.1336
  103OSM   C16S10388   4.484   1.005   4.619  0.2658  0.6070 -0.6039
  103OSM   H16S10389   4.422   1.079   4.564 -0.5664  2.1383  2.2029
  103OSM   H16T10390   4.417   0.923   4.652  0.8283 -0.5037 -2.0774
  103OSM   C17S10391   4.573   0.937   4.518 -0.4212 -0.0817 -0.4186
  103OSM   H17S10392   4.602   0.833   4.545 -0.7730 -0.3911 -1.1954
  103OSM   H17T10393   4.669   0.993   4.513 -0.6201  0.3736  0.5743
  103OSM   C18S10394   4.512   0.940   4.383 -0.1304  0.5274  0.8033
  103OSM   H18S10395   4.486   1.042   4.346 -0.0095  0.2873  0.0499
  103OSM   H18T10396   4.413   0.889   4.385 -0.7666  1.5466 -1.3001
  103OSM   H18U10397   4.576   0.899   4.303  0.3286 -1.0636  1.9543
  103OSM    C1F10398   4.792   1.293   6.172 -0.5872  0.4797 -0.3670
  103OSM     OF10399   4.740   1.242   6.271  0.7300 -0.4163 -0.0657
  103OSM    C2F10400   4.908   1.237   6.102 -0.4645  0.4426  0.2479
  103OSM    H2F10401   4.984   1.243   6.183 -1.8910  1.9103  1.5402
  103OSM    H2G10402   4.944   1.298   6.016 -0.5403 -0.0987 -0.1734
  103OSM    C3F10403   4.881   1.088   6.051 -0.3004  0.4591 -0.8520
  103OSM    H3F10404   4.885   1.027   6.144 -1.0531  0.6275 -0.6987
  103OSM    H3G10405   4.962   1.034   5.998  0.1958 -0.1425  0.4644
  103OSM    C4F10406   4.749   1.066   5.986  0.1344  0.2481 -0.4756
  103OSM    H4F10407   4.734   1.153   5.918  3.8494  2.0315  0.7087
  103OSM    H4G10408   4.659   1.071   6.052  0.3123  0.9871 -0.2758
  103OSM    C5F10409   4.739   0.932   5.897  0.4393  0.8867 -0.0991
  103OSM    H5F10410   4.631   0.920   5.877  0.3221  4.0923 -2.2767
  103OSM    H5G10411   4.776   0.854   5.967 -0.8356 -2.1343 -2.5691
  103OSM    C6F10412   4.818   0.939   5.766  0.2938 -0.3820 -1.5483
  103OSM    H6F10413   4.923   0.912   5.791  0.1181  0.4152  0.2440
  103OSM    H6G10414   4.818   1.045   5.734  0.8003  0.5270  1.1919
  103OSM    C7F10415   4.774   0.856   5.650  0.0866  0.4235  0.0568
  103OSM    H7F10416   4.681   0.906   5.615  0.6253  0.0558 -1.9804
  103OSM    H7G10417   4.751   0.754   5.687  1.4492  0.4486  1.0572
  103OSM    C8F10418   4.873   0.870   5.534  0.7754 -0.5343 -0.2440
  103OSM    H8F10419   4.975   0.837   5.560  2.0922  3.3819  0.1115
  103OSM    H8G10420   4.889   0.978   5.516  1.3941 -0.2387  1.8534
  103OSM    C9F10421   4.839   0.786   5.415 -0.2536 -0.2473  0.1779
  103OSM    H9F10422   4.855   0.678   5.427  3.4039  0.0941 -0.5869
  103OSM   C10F10423   4.805   0.820   5.289 -0.0011 -0.0457  0.2519
  103OSM   H10F10424   4.804   0.743   5.210 -1.9652 -0.6308  0.7840
  103OSM   C11F10425   4.781   0.964   5.248  0.1964  0.0219  0.0470
  103OSM   H11F10426   4.733   1.020   5.331  0.8720 -0.3511  0.7047
  103OSM   H11G10427   4.708   0.957   5.164 -1.5030  0.7922  1.3939
  103OSM   C12F10428   4.903   1.042   5.191  0.0362  0.7275  0.4864
  103OSM   H12F10429   4.990   1.014   5.253  1.0915 -2.3913 -2.1336
  103OSM   H12G10430   4.884   1.151   5.196 -1.9661  0.6606 -2.7287
  103OSM   C13F10431   4.943   0.989   5.045 -0.6009 -0.9005 -0.3470
  103OSM   H13F10432   4.853   1.025   4.990 -0.4234  1.7835  0.9355
  103OSM   H13G10433   4.944   0.879   5.063  1.5855 -1.1458 -1.6101
  103OSM   C14F10434   5.067   1.048   5.003  0.1270  0.5689 -0.0357
  103OSM   H14F10435   5.156   1.019   5.064  0.0851 -0.1983 -0.3261
  103OSM   H14G10436   5.065   1.155   5.030 -2.1480  0.3219  0.9939
  103OSM   C15F10437   5.103   1.021   4.861  0.0213 -0.5305  0.3974
  103OSM   H15F10438   5.123   0.915   4.834 -0.0971 -0.1220 -1.4323
  103OSM   H15G10439   5.199   1.077   4.853 -0.2438  0.1941  1.8868
  103OSM   C16F10440   5.012   1.089   4.756  0.6613  0.1180  0.3468
  103OSM   H16F10441   5.004   1.198   4.777 -0.0867  0.4672 -1.5901
  103OSM   H16G10442   4.905   1.059   4.757 -0.2007  2.8933  1.0351
  103OSM   C17F10443   5.063   1.075   4.612  0.5831  0.3034  0.4534
  103OSM   H17F10444   5.174   1.074   4.605  0.7653  0.3839  2.5076
  103OSM   H17G10445   5.033   1.163   4.552  1.3899  1.4563  1.6743
  103OSM   C18F10446   5.014   0.943   4.544 -0.3088  1.2965 -0.0889
  103OSM   H18F10447   4.909   0.958   4.512 -0.6569 -0.5810  0.0368
  103OSM   H18G10448   5.036   0.859   4.613  2.0751  1.0132 -1.0935
  103OSM   H18H10449   5.060   0.913   4.448  0.8140  3.0799 -0.1620
  104OSM      N10450   5.291   1.925   6.887 -0.0364  0.2923  0.7711
  104OSM    C1510451   5.295   2.027   6.784 -0.6884 -0.4325 -0.2329
  104OSM   H15A10452   5.315   1.984   6.687  0.2552 -2.6363  0.8568
  104OSM   H15B10453   5.378   2.094   6.793  0.9649 -2.0683 -2.3982
  104OSM   H15C10454   5.196   2.071   6.781 -1.4142 -1.9944 -0.3286
  104OSM    C1410455   5.429   1.868   6.905 -0.2406 -0.4783  0.9858
  104OSM   H14A10456   5.480   1.854   6.811 -0.8655 -0.9038  0.7032
  104OSM   H14B10457   5.429   1.773   6.956 -0.1612 -1.5130 -0.8510
  104OSM   H14C10458   5.488   1.946   6.951 -2.0986  1.6474 -0.0174
  104OSM    C1310459   5.254   1.980   7.017  0.2725 -0.1735  0.0675
  104OSM   H13A10460   5.289   1.918   7.098 -2.5791 -0.6993  1.0229
  104OSM   H13B10461   5.148   1.964   7.033 -0.2105  0.6084 -1.9906
  104OSM   H13C10462   5.278   2.085   7.027 -2.4475  0.3440  3.2244
  104OSM    C1210463   5.190   1.814   6.850  0.2846 -1.3275  0.9925
  104OSM   H12A10464   5.092   1.857   6.863  1.3036  2.3144 -1.7261
  104OSM   H12B10465   5.201   1.725   6.911 -1.1817 -2.9270 -0.9198
  104OSM    C1110466   5.191   1.767   6.700 -0.0790  0.0809  0.6113
  104OSM   H11A10467   5.108   1.693   6.692 -0.3789  0.5371 -0.9220
  104OSM   H11B10468   5.287   1.714   6.683 -1.6740 -2.9677  0.3100
  104OSM      P10469   5.035   1.943   6.588 -0.2968 -0.1622 -0.4463
  104OSM    O1310470   4.948   1.916   6.704  0.3848  0.3373  0.3243
  104OSM    O1410471   5.064   2.082   6.543  0.1209  0.1791 -0.2263
  104OSM    O1110472   4.953   1.878   6.473  0.1383 -0.0634 -0.1685
  104OSM    O1210473   5.161   1.857   6.596 -0.6726  0.2893 -0.4529
  104OSM    C1S10474   5.022   1.848   6.349  0.3432 -0.1542 -0.1825
  104OSM    H1S10475   5.078   1.752   6.361  0.1830 -0.2246  0.0094
  104OSM    H1T10476   5.096   1.928   6.326  0.3842 -0.1340  0.0212
  104OSM     NF10477   4.999   1.832   6.112  0.3859  0.0161 -0.3631
  104OSM    HNF10478   5.032   1.908   6.056  1.0055 -1.8425 -2.7264
  104OSM    C2S10479   4.922   1.856   6.232  0.1253  0.5979  0.0944
  104OSM    H2S10480   4.849   1.774   6.252 -2.8018  2.9917  0.0266
  104OSM    C3S10481   4.849   1.993   6.234  0.2345  0.6329  0.3238
  104OSM    H3S10482   4.924   2.075   6.240  0.3413  0.5412  0.2503
  104OSM     O310483   4.771   2.011   6.351  0.2663  0.2745  0.0678
  104OSM    HO310484   4.840   1.972   6.406 -2.5592 -2.6793  1.8760
  104OSM    C4S10485   4.773   2.012   6.102 -0.0950 -0.3253  0.0467
  104OSM    H4S10486   4.842   2.051   6.025  1.1619  1.3434  1.9223
  104OSM    C5S10487   4.649   1.969   6.085  1.0403  0.1679  0.1710
  104OSM    H5S10488   4.604   1.913   6.168  1.4790  1.2079  1.1351
  104OSM    C6S10489   4.569   1.975   5.953 -0.0159  0.0756 -0.0713
  104OSM    H6S10490   4.513   2.071   5.952  0.1623  0.1784 -0.7500
  104OSM    H6T10491   4.490   1.897   5.955 -1.3817  1.4145  0.1719
  104OSM    C7S10492   4.646   1.965   5.826  0.3081  0.0601 -0.2424
  104OSM    H7S10493   4.700   1.870   5.807  0.1199 -0.0604 -0.1799
  104OSM    H7T10494   4.712   2.054   5.825  1.0036 -0.3864  1.8920
  104OSM    C8S10495   4.539   1.976   5.715  0.5095  0.4410  0.9120
  104OSM    H8S10496   4.490   2.073   5.740  1.5489  1.0983  0.5106
  104OSM    H8T10497   4.472   1.889   5.725 -1.3935  1.6375 -0.7332
  104OSM    C9S10498   4.596   1.978   5.570  0.4097 -0.6101 -0.0636
  104OSM    H9S10499   4.674   2.056   5.564  0.5654 -0.7750 -0.1968
  104OSM    H9T10500   4.507   1.985   5.503 -0.0786 -2.9770  0.2446
  104OSM   C10S10501   4.655   1.852   5.525  0.2383  0.0767  0.4439
  104OSM   H10S10502   4.591   1.767   5.558 -2.3410  1.1221 -1.4736
  104OSM   H10T10503   4.760   1.836   5.557  1.0231 -0.0459 -1.9529
  104OSM   C11S10504   4.660   1.850   5.367  0.9800  0.4740 -0.0394
  104OSM   H11S10505   4.708   1.943   5.331  0.8368  0.3991 -0.4265
  104OSM   H11T10506   4.556   1.843   5.329  0.7982 -4.2966  0.7275
  104OSM   C12S10507   4.732   1.723   5.314 -0.0348  0.3454 -0.0157
  104OSM   H12S10508   4.683   1.633   5.357 -0.1658 -0.1179 -1.0806
  104OSM   H12T10509   4.835   1.722   5.355  0.1609 -0.3374 -0.5032
  104OSM   C13S10510   4.740   1.727   5.162  0.4580 -0.3577  0.7929
  104OSM   H13S10511   4.784   1.827   5.141 -1.1926 -0.0101 -1.4228
  104OSM   H13T10512   4.642   1.711   5.112  1.0072  1.7343 -1.1032
  104OSM   C14S10513   4.837   1.622   5.107  0.1225 -0.1345 -0.7704
  104OSM   H14S10514   4.804   1.521   5.139 -0.4845  0.5684  0.9897
  104OSM   H14T10515   4.934   1.634   5.160  0.1597 -0.8305 -0.6749
  104OSM   C15S10516   4.852   1.648   4.954  0.3411  0.1036  0.0471
  104OSM   H15S10517   4.934   1.720   4.933  0.6968 -0.7206 -1.5423
  104OSM   H15T10518   4.757   1.694   4.918  0.6277  0.2431 -0.5426
  104OSM   C16S10519   4.877   1.516   4.878  0.6837  0.3962  0.2720
  104OSM   H16S10520   4.819   1.430   4.919 -1.4399  1.3441 -0.6010
  104OSM   H16T10521   4.983   1.486   4.891  0.4240  0.2980  2.6728
  104OSM   C17S10522   4.846   1.517   4.731 -0.1886 -0.6041  0.5188
  104OSM   H17S10523   4.899   1.432   4.681 -1.0674 -1.7547  1.4760
  104OSM   H17T10524   4.898   1.604   4.686  0.2656 -1.2571 -0.2548
  104OSM   C18S10525   4.702   1.527   4.700  1.0977 -0.3774 -0.2255
  104OSM   H18S10526   4.679   1.499   4.595  3.7003 -0.0739 -0.9373
  104OSM   H18T10527   4.662   1.630   4.715  1.8242 -0.2769  1.1713
  104OSM   H18U10528   4.642   1.459   4.763 -0.5238  2.0442  1.0349
  104OSM    C1F10529   5.053   1.713   6.092 -0.1075 -0.3146 -0.2794
  104OSM     OF10530   5.022   1.618   6.167 -0.0886 -0.5330  0.0363
  104OSM    C2F10531   5.152   1.694   5.985  0.6230 -0.5896  0.5325
  104OSM    H2F10532   5.252   1.684   6.033  3.0948  0.4947 -3.8126
  104OSM    H2G10533   5.159   1.782   5.917  0.5697 -0.2117  1.0119
  104OSM    C3F10534   5.124   1.574   5.903  0.0334 -0.0782 -0.3718
  104OSM    H3F10535   5.148   1.487   5.966 -0.5235 -0.5882 -0.8535
  104OSM    H3G10536   5.199   1.587   5.822  0.4775  2.7231  0.3692
  104OSM    C4F10537   4.988   1.557   5.839  0.2482 -0.0596 -0.1820
  104OSM    H4F10538   4.911   1.551   5.919  0.3395  3.3397  0.2849
  104OSM    H4G10539   4.989   1.456   5.792 -1.1629  0.0297 -0.4424
  104OSM    C5F10540   4.944   1.662   5.733 -0.2444 -0.2914  0.3009
  104OSM    H5F10541   4.946   1.764   5.777 -0.2585 -0.6410  1.1375
  104OSM    H5G10542   4.835   1.650   5.715 -0.4018  2.6551 -1.4313
  104OSM    C6F10543   5.028   1.661   5.602  0.6871  0.1658  0.2048
  104OSM    H6F10544   5.120   1.719   5.626  0.5142 -0.1170  1.6852
  104OSM    H6G10545   4.967   1.704   5.521 -0.0430  1.1150  1.2362
  104OSM    C7F10546   5.058   1.518   5.563  0.2016 -0.5977  0.4501
  104OSM    H7F10547   4.967   1.456   5.576  0.6683 -1.2701  0.5860
  104OSM    H7G10548   5.136   1.483   5.634  2.7461  0.9976 -1.3797
  104OSM    C8F10549   5.132   1.502   5.426  0.1433 -0.2053  0.3782
  104OSM    H8F10550   5.079   1.557   5.345  2.1620  1.5389  0.1753
  104OSM    H8G10551   5.112   1.398   5.394 -1.9335  0.6852 -1.5079
  104OSM    C9F10552   5.276   1.546   5.428  0.5501 -0.0478 -0.3316
  104OSM    H9F10553   5.282   1.645   5.475  1.1148 -0.1839 -0.1147
  104OSM   C10F10554   5.388   1.482   5.380 -0.7453  0.5442  0.1749
  104OSM   H10F10555   5.488   1.524   5.400  1.4920 -3.7157 -0.9086
  104OSM   C11F10556   5.394   1.354   5.313  0.1178  0.9738 -0.4361
  104OSM   H11F10557   5.293   1.334   5.271 -0.3936 -0.1286  1.2280
  104OSM   H11G10558   5.412   1.273   5.387  0.8883 -1.5108 -3.1700
  104OSM   C12F10559   5.482   1.328   5.192 -0.3149  0.6094 -0.2742
  104OSM   H12F10560   5.590   1.334   5.218  0.0364 -0.9271 -1.2874
  104OSM   H12G10561   5.461   1.402   5.112 -1.3209  1.1842  0.5088
  104OSM   C13F10562   5.460   1.189   5.144  0.2975 -0.0552 -0.3196
  104OSM   H13F10563   5.353   1.168   5.122  0.7481 -1.0877 -1.6414
  104OSM   H13G10564   5.484   1.110   5.219 -0.7488 -1.6982 -1.6482
  104OSM   C14F10565   5.525   1.176   5.012  0.0077 -0.0693  0.9501
  104OSM   H14F10566   5.527   1.067   4.989 -1.9707 -0.2308  1.3973
  104OSM   H14G10567   5.633   1.205   5.009  0.1787 -0.7126 -1.3435
  104OSM   C15F10568   5.465   1.249   4.887  0.4993 -0.2917 -0.2229
  104OSM   H15F10569   5.494   1.356   4.886  1.1142 -0.4413 -2.3092
  104OSM   H15G10570   5.354   1.243   4.893  0.3874  1.2059 -0.5433
  104OSM   C16F10571   5.502   1.176   4.754 -0.0152  0.0410  0.0502
  104OSM   H16F10572   5.468   1.071   4.766 -1.0396  0.4398  0.6703
  104OSM   H16G10573   5.613   1.167   4.746 -0.2034 -3.6979 -0.1396
  104OSM   C17F10574   5.434   1.225   4.617 -0.5929 -0.1805  0.0843
  104OSM   H17F10575   5.470   1.329   4.601 -1.4326 -0.1718 -1.9982
  104OSM   H17G10576   5.324   1.222   4.628 -0.7139 -3.4611 -1.0531
  104OSM   C18F10577   5.487   1.144   4.500  0.3167 -0.1840  0.0769
  104OSM   H18F10578   5.436   1.166   4.403  0.6930  0.3196 -0.0093
  104OSM   H18G10579   5.467   1.035   4.513 -0.5285 -0.0643 -0.1676
  104OSM   H18H10580   5.593   1.164   4.473  0.0635  1.0508 -0.0610
  105OSM      N10581   5.085   6.654   6.415 -0.5495  0.1205 -0.8217
  105OSM    C1510582   5.138   6.638   6.556 -0.1752  0.7883  1.0300
  105OSM   H15A10583   5.087   6.559   6.609  0.9927  0.6964  2.0887
  105OSM   H15B10584   5.114   6.728   6.610  0.2875  1.3620  0.3000
  105OSM   H15C10585   5.242   6.614   6.572 -1.0226 -2.3873  2.7017
  105OSM    C1410586   5.156   6.763   6.349  0.0058  0.0523 -0.4480
  105OSM   H14A10587   5.237   6.730   6.286  1.9073  2.2159  0.7135
  105OSM   H14B10588   5.195   6.842   6.413  1.0725  0.2614 -1.3229
  105OSM   H14C10589   5.097   6.807   6.270  0.0790  1.3669  0.2045
  105OSM    C1310590   5.104   6.536   6.330  0.6806  0.4069  0.2896
  105OSM   H13A10591   5.206   6.512   6.301  0.5067  1.2430 -1.0652
  105OSM   H13B10592   5.052   6.554   6.238  1.5057 -0.2784 -0.3334
  105OSM   H13C10593   5.051   6.448   6.363 -2.2265  1.6242 -0.8587
  105OSM    C1210594   4.932   6.687   6.432 -0.0127  0.1077  0.1101
  105OSM   H12A10595   4.921   6.783   6.481 -2.3966 -0.9620  1.8464
  105OSM   H12B10596   4.895   6.606   6.493 -0.0357  1.3954  1.8695
  105OSM    C1110597   4.834   6.688   6.304 -0.1330 -0.3370  0.6011
  105OSM   H11A10598   4.847   6.785   6.251  1.1531 -0.6947  0.2420
  105OSM   H11B10599   4.727   6.703   6.331 -0.7927 -0.9141 -1.4941
  105OSM      P10600   4.753   6.467   6.205  0.2853 -0.6958 -0.3004
  105OSM    O1310601   4.816   6.339   6.172 -0.1998 -0.4779 -0.1713
  105OSM    O1410602   4.668   6.457   6.331  0.3038  0.2131 -0.2619
  105OSM    O1110603   4.661   6.515   6.086  0.2864  0.3037 -0.2977
  105OSM    O1210604   4.852   6.585   6.207  0.7806 -0.0388  0.0112
  105OSM    C1S10605   4.689   6.620   5.997 -0.0030  0.7114 -0.4619
  105OSM    H1S10606   4.774   6.686   6.023  0.0325  2.1118 -3.6120
  105OSM    H1T10607   4.597   6.683   6.008 -1.7298 -1.7208 -0.1891
  105OSM     NF10608   4.725   6.690   5.757  0.4436  0.2327  0.1422
  105OSM    HNF10609   4.644   6.730   5.717 -0.5510  0.5767  2.3305
  105OSM    C2S10610   4.697   6.574   5.846 -0.2042 -0.1479 -0.6939
  105OSM    H2S10611   4.779   6.500   5.840 -0.1960 -0.2922  0.8846
  105OSM    C3S10612   4.571   6.489   5.806 -0.1463 -0.0769 -1.1731
  105OSM    H3S10613   4.488   6.563   5.808  0.3540  0.4917 -1.3093
  105OSM     O310614   4.526   6.388   5.897 -0.0264 -0.2099 -0.2106
  105OSM    HO310615   4.571   6.404   5.981 -2.5312 -0.1466  1.2251
  105OSM    C4S10616   4.565   6.432   5.663 -0.0916 -0.1434 -0.7340
  105OSM    H4S10617   4.645   6.368   5.624  2.8983  2.0051  1.4036
  105OSM    C5S10618   4.475   6.464   5.569 -0.1296  0.1287 -0.0013
  105OSM    H5S10619   4.396   6.535   5.598 -0.1274 -0.5719  1.9043
  105OSM    C6S10620   4.468   6.412   5.426 -0.1872  0.3562 -0.6261
  105OSM    H6S10621   4.363   6.393   5.395 -0.2406 -0.9918  0.2957
  105OSM    H6T10622   4.528   6.319   5.419 -2.4791 -1.2722  0.1584
  105OSM    C7S10623   4.523   6.515   5.324 -0.2931  0.9159 -0.4972
  105OSM    H7S10624   4.632   6.527   5.340 -0.2820  1.1596 -0.7483
  105OSM    H7T10625   4.473   6.612   5.347 -0.6361  0.3312  1.3860
  105OSM    C8S10626   4.490   6.470   5.177 -0.1434 -0.4572  0.1989
  105OSM    H8S10627   4.384   6.440   5.165 -0.5473  0.6171  0.8898
  105OSM    H8T10628   4.550   6.380   5.153  2.2934  0.6237  1.8208
  105OSM    C9S10629   4.515   6.582   5.072 -0.1710 -0.0496  0.5518
  105OSM    H9S10630   4.624   6.607   5.070  0.1908 -1.5594 -0.3629
  105OSM    H9T10631   4.452   6.665   5.110  1.1607  1.3064 -0.1211
  105OSM   C10S10632   4.455   6.549   4.930  0.1666  0.0685 -0.2251
  105OSM   H10S10633   4.461   6.642   4.869  1.4101  0.4132  0.3688
  105OSM   H10T10634   4.348   6.520   4.937 -0.1554  1.5831  2.1728
  105OSM   C11S10635   4.517   6.426   4.855 -0.3331 -0.7548 -0.2188
  105OSM   H11S10636   4.438   6.408   4.779 -1.2934 -2.5308  1.1261
  105OSM   H11T10637   4.526   6.341   4.927  0.3737  1.0956  1.9919
  105OSM   C12S10638   4.643   6.462   4.775 -0.2170 -0.4548  0.2859
  105OSM   H12S10639   4.719   6.498   4.848 -2.2166  2.1808  1.2149
  105OSM   H12T10640   4.621   6.545   4.705 -0.9037 -1.7645 -1.1151
  105OSM   C13S10641   4.697   6.358   4.674 -0.0636 -0.0780 -0.2423
  105OSM   H13S10642   4.744   6.284   4.741  0.9164  0.3782 -0.4030
  105OSM   H13T10643   4.780   6.407   4.619 -0.1519  1.4004  0.8742
  105OSM   C14S10644   4.598   6.290   4.568  0.1377 -0.9430 -0.4696
  105OSM   H14S10645   4.554   6.367   4.501  1.4146 -0.9679 -1.3638
  105OSM   H14T10646   4.507   6.254   4.621  0.1886 -0.7358 -0.2383
  105OSM   C15S10647   4.672   6.194   4.470  0.2236  0.0573 -0.4921
  105OSM   H15S10648   4.676   6.097   4.524 -3.9527  0.4220  0.7897
  105OSM   H15T10649   4.773   6.236   4.450  0.2838  0.9556  1.5066
  105OSM   C16S10650   4.588   6.183   4.340 -0.0373  0.0737 -0.0239
  105OSM   H16S10651   4.578   6.284   4.295  4.2938  1.5739  1.9270
  105OSM   H16T10652   4.490   6.139   4.370  0.5288 -0.6509  0.7911
  105OSM   C17S10653   4.654   6.098   4.228  0.5619  0.2938 -0.1030
  105OSM   H17S10654   4.678   5.992   4.252  0.8957  0.2615 -0.5706
  105OSM   H17T10655   4.752   6.145   4.203  2.1849 -2.2820  1.0039
  105OSM   C18S10656   4.565   6.099   4.101  0.0440 -0.1577 -0.6454
  105OSM   H18S10657   4.620   6.051   4.018 -0.3692  1.3498 -1.8285
  105OSM   H18T10658   4.543   6.204   4.072  0.0757  0.1991  0.5359
  105OSM   H18U10659   4.472   6.039   4.106  0.2338 -0.4062 -0.0340
  105OSM    C1F10660   4.838   6.758   5.750  0.2172  0.2705  0.0755
  105OSM     OF10661   4.937   6.708   5.793 -0.2464 -0.4836  0.3033
  105OSM    C2F10662   4.830   6.896   5.696 -0.7933  0.2785 -0.1822
  105OSM    H2F10663   4.834   6.970   5.779 -0.3873  0.6293 -0.5112
  105OSM    H2G10664   4.739   6.908   5.634  0.8295  0.1666 -2.7191
  105OSM    C3F10665   4.956   6.921   5.611 -0.5120  0.1118  0.6632
  105OSM    H3F10666   5.041   6.900   5.679 -0.3425 -1.3739  0.0250
  105OSM    H3G10667   4.962   7.028   5.581 -0.8443  0.5585  2.1247
  105OSM    C4F10668   4.965   6.824   5.489  0.7835  0.2046 -0.7769
  105OSM    H4F10669   4.955   6.724   5.535 -2.5614  0.6217 -0.3735
  105OSM    H4G10670   5.064   6.822   5.438  0.4589  1.4747 -1.5137
  105OSM    C5F10671   4.870   6.841   5.372  0.5608  0.3045 -1.0669
  105OSM    H5F10672   4.888   6.936   5.316  0.6534  1.3952  0.7306
  105OSM    H5G10673   4.769   6.857   5.414  0.6199 -0.9691 -0.4035
  105OSM    C6F10674   4.866   6.707   5.289 -0.2247  0.1020 -0.1033
  105OSM    H6F10675   4.763   6.696   5.250 -0.1753 -0.5774 -0.0563
  105OSM    H6G10676   4.874   6.619   5.356 -3.2270 -0.1549  0.0269
  105OSM    C7F10677   4.969   6.688   5.178  0.2395 -0.3134  0.5045
  105OSM    H7F10678   4.947   6.605   5.108 -2.9235  0.1964  0.7672
  105OSM    H7G10679   5.063   6.648   5.223  0.9244 -0.3601 -0.9306
  105OSM    C8F10680   5.014   6.809   5.092 -0.2111 -0.4779  0.1063
  105OSM    H8F10681   5.118   6.782   5.061 -0.2122 -0.8366  0.4073
  105OSM    H8G10682   5.032   6.901   5.151 -0.1237 -1.6955  2.0743
  105OSM    C9F10683   4.904   6.832   4.980 -0.0680  0.1895  0.2747
  105OSM    H9F10684   4.808   6.878   5.007  0.6108  2.4572 -0.9257
  105OSM   C10F10685   4.922   6.812   4.844 -0.2112  0.5602 -0.2475
  105OSM   H10F10686   4.837   6.835   4.779  0.4377  0.9642 -0.9666
  105OSM   C11F10687   5.039   6.756   4.771 -0.3162  0.1098 -0.2639
  105OSM   H11F10688   5.019   6.647   4.769  1.0143 -0.1519 -0.1553
  105OSM   H11G10689   5.129   6.767   4.835  0.2671  0.2038 -1.0841
  105OSM   C12F10690   5.060   6.817   4.629 -0.4027  0.7190 -0.9318
  105OSM   H12F10691   5.140   6.759   4.578 -0.2135 -0.8321  1.0267
  105OSM   H12G10692   5.099   6.919   4.649  0.5787 -0.1877  2.2552
  105OSM   C13F10693   4.938   6.812   4.533 -0.3340 -0.0208  0.1066
  105OSM   H13F10694   4.869   6.877   4.590 -0.4245  0.0752 -0.1118
  105OSM   H13G10695   4.907   6.706   4.524  0.9375 -0.3676 -0.5397
  105OSM   C14F10696   4.986   6.880   4.395  0.0870  0.7437  0.1409
  105OSM   H14F10697   5.090   6.850   4.371 -0.1098 -0.4374  0.6881
  105OSM   H14G10698   4.977   6.990   4.405 -0.0968  0.8358 -0.9236
  105OSM   C15F10699   4.890   6.844   4.277 -0.4005  0.0591 -0.0591
  105OSM   H15F10700   4.791   6.891   4.297  0.1053  0.6806  1.0901
  105OSM   H15G10701   4.881   6.734   4.288 -0.6971  0.2063  1.3298
  105OSM   C16F10702   4.959   6.848   4.145  0.4834 -0.5860 -0.2137
  105OSM   H16F10703   4.885   6.828   4.065  0.3013 -1.0332  0.0604
  105OSM   H16G10704   5.037   6.768   4.139  0.4131 -0.6249 -0.6754
  105OSM   C17F10705   5.025   6.982   4.109  0.5279 -0.3406 -0.8337
  105OSM   H17F10706   5.115   6.984   4.174 -0.0823  0.3451  0.0129
  105OSM   H17G10707   4.952   7.054   4.151  1.0344 -0.8429  0.9897
  105OSM   C18F10708   5.068   6.999   3.957 -0.2304 -0.4656 -0.5168
  105OSM   H18F10709   5.130   7.091   3.947 -2.5632  1.3005  0.2364
  105OSM   H18G10710   4.976   7.011   3.896 -1.0630  0.4755  0.8507
  105OSM   H18H10711   5.125   6.909   3.925  0.1776 -0.0063 -1.0933
  106OSM      N10712   2.468   3.534   6.563  0.6423  0.0272 -0.0150
  106OSM    C1510713   2.504   3.668   6.629 -0.1627  0.3855 -0.0484
  106OSM   H15A10714   2.555   3.638   6.719  0.2002 -0.9455 -0.6586
  106OSM   H15B10715   2.415   3.726   6.643 -1.2068 -1.4170  1.2393
  106OSM   H15C10716   2.573   3.721   6.564 -1.2188  1.9265  0.0490
  106OSM    C1410717   2.593   3.451   6.542  0.2000  0.4251 -0.0742
  106OSM   H14A10718   2.647   3.426   6.633  1.0752  1.1569 -0.3799
  106OSM   H14B10719   2.656   3.493   6.466  1.3901 -0.0938  0.5758
  106OSM   H14C10720   2.564   3.359   6.493  2.4951  0.8200 -2.4138
  106OSM    C1310721   2.385   3.454   6.667 -0.1714  0.0204 -0.7952
  106OSM   H13A10722   2.448   3.458   6.756 -0.1448  2.7657 -0.8581
  106OSM   H13B10723   2.388   3.352   6.633  2.2788 -0.2132 -0.1369
  106OSM   H13C10724   2.286   3.493   6.686 -0.0752 -0.4205  0.7614
  106OSM    C1210725   2.383   3.551   6.442  0.0100  0.7449  0.7893
  106OSM   H12A10726   2.444   3.597   6.366 -0.8414  1.4532  0.5167
  106OSM   H12B10727   2.300   3.620   6.454  0.6716  1.6587  0.2884
  106OSM    C1110728   2.318   3.424   6.381  0.8508 -0.3137 -0.8252
  106OSM   H11A10729   2.251   3.387   6.462  0.8243  0.9383 -0.2541
  106OSM   H11B10730   2.397   3.352   6.351  2.1087  1.7368 -2.6795
  106OSM      P10731   2.108   3.542   6.272 -0.1937  0.3700 -0.4935
  106OSM    O1310732   2.004   3.463   6.344 -0.2391  0.0651 -0.0175
  106OSM    O1410733   2.134   3.676   6.322  0.2254 -0.4524 -0.0584
  106OSM    O1110734   2.068   3.553   6.114 -0.5151  0.2350  0.1393
  106OSM    O1210735   2.252   3.466   6.267  0.0611 -0.2748  0.1709
  106OSM    C1S10736   2.163   3.584   6.019 -0.9293  0.1091 -0.4236
  106OSM    H1S10737   2.235   3.500   6.008  0.5660  0.3950  4.6903
  106OSM    H1T10738   2.231   3.665   6.054  0.2047 -1.7064  1.8819
  106OSM     NF10739   2.195   3.632   5.777 -0.6979 -0.0805 -0.0619
  106OSM    HNF10740   2.232   3.714   5.735 -0.2664 -0.7544 -1.0309
  106OSM    C2S10741   2.097   3.627   5.881  0.0075  0.2205 -0.4324
  106OSM    H2S10742   2.025   3.547   5.853  0.8266  0.1474 -2.4839
  106OSM    C3S10743   2.023   3.755   5.895  0.6145 -0.1573  0.2930
  106OSM    H3S10744   2.094   3.833   5.930  0.6715  0.4390 -1.1052
  106OSM     O310745   1.917   3.760   5.993  0.4525 -0.0438  0.3038
  106OSM    HO310746   1.918   3.678   6.043 -1.2314 -0.8859 -0.9681
  106OSM    C4S10747   1.972   3.798   5.753 -0.4646  0.2262 -0.3067
  106OSM    H4S10748   2.049   3.857   5.703 -1.5061  0.1896 -2.0139
  106OSM    C5S10749   1.855   3.789   5.693  0.5533 -0.2813  0.2876
  106OSM    H5S10750   1.773   3.738   5.746  2.4083 -1.4112  2.2017
  106OSM    C6S10751   1.826   3.833   5.553 -0.3679 -0.7328  0.4734
  106OSM    H6S10752   1.862   3.936   5.533  0.7450 -0.8317  1.8213
  106OSM    H6T10753   1.716   3.839   5.544 -0.2295  2.0594 -0.1961
  106OSM    C7S10754   1.883   3.745   5.444 -0.1059  0.5302  0.0033
  106OSM    H7S10755   1.843   3.641   5.448  0.5080  0.2708 -0.4291
  106OSM    H7T10756   1.992   3.733   5.460  0.1987  0.5640 -1.8394
  106OSM    C8S10757   1.842   3.805   5.310 -0.1477  0.2446 -0.0549
  106OSM    H8S10758   1.853   3.916   5.307 -0.1662  0.2288 -0.9514
  106OSM    H8T10759   1.738   3.769   5.297 -0.1208 -0.2952  1.1097
  106OSM    C9S10760   1.932   3.756   5.197 -0.3210  0.3933  0.1802
  106OSM    H9S10761   1.912   3.648   5.185 -0.8992  0.5741 -0.5701
  106OSM    H9T10762   2.040   3.761   5.221 -0.3901  1.0507  0.3905
  106OSM   C10S10763   1.897   3.836   5.066 -0.2188  0.8752  0.4353
  106OSM   H10S10764   1.927   3.941   5.089 -1.2432  1.5831 -1.2792
  106OSM   H10T10765   1.787   3.835   5.049 -0.6698 -1.6534  2.8069
  106OSM   C11S10766   1.958   3.763   4.938  0.0225 -0.4368  0.6428
  106OSM   H11S10767   1.935   3.656   4.956  0.5372 -0.4970  0.9704
  106OSM   H11T10768   2.069   3.769   4.941  0.0316  1.1422 -0.8521
  106OSM   C12S10769   1.905   3.825   4.810  0.7166  0.1370  0.0174
  106OSM   H12S10770   1.903   3.935   4.822  0.0942  0.4037 -2.1632
  106OSM   H12T10771   1.801   3.788   4.801  1.1895 -0.9720 -1.2271
  106OSM   C13S10772   1.988   3.793   4.679 -0.1716  0.8922  0.0895
  106OSM   H13S10773   1.991   3.683   4.669  0.7240  0.4774  3.6984
  106OSM   H13T10774   2.097   3.813   4.678  0.3861 -1.7130  1.0210
  106OSM   C14S10775   1.933   3.863   4.559 -0.4721 -0.6003 -0.4713
  106OSM   H14S10776   1.941   3.973   4.573 -1.0938 -0.5839 -0.1815
  106OSM   H14T10777   1.825   3.837   4.549 -0.8869  0.6163  0.6062
  106OSM   C15S10778   2.002   3.812   4.427 -0.9191 -0.1075 -1.1644
  106OSM   H15S10779   1.998   3.701   4.431  1.2014 -0.2102  1.1767
  106OSM   H15T10780   2.111   3.832   4.421 -0.6318 -0.8687  0.6340
  106OSM   C16S10781   1.921   3.841   4.304 -0.3255 -0.2369 -0.0550
  106OSM   H16S10782   1.922   3.952   4.290  3.2122  0.2470  2.8599
  106OSM   H16T10783   1.815   3.809   4.307 -0.4049 -0.2166 -1.6396
  106OSM   C17S10784   1.983   3.794   4.173 -0.0382 -0.5155  0.0084
  106OSM   H17S10785   1.902   3.793   4.096  0.4589 -0.8314 -0.5191
  106OSM   H17T10786   2.011   3.688   4.185 -1.7732 -1.2286 -1.7157
  106OSM   C18S10787   2.095   3.890   4.113  0.2288  0.2738 -0.2913
  106OSM   H18S10788   2.191   3.893   4.170  0.2408  2.1516 -0.3586
  106OSM   H18T10789   2.061   3.994   4.096  0.3516  0.2586 -0.6410
  106OSM   H18U10790   2.120   3.844   4.015 -3.3906 -1.2125 -0.6788
  106OSM    C1F10791   2.249   3.518   5.729  0.0207  0.7327  0.7893
  106OSM     OF10792   2.207   3.414   5.776 -0.1195  0.2344 -0.1709
  106OSM    C2F10793   2.337   3.518   5.607  0.2206  0.1497  0.3893
  106OSM    H2F10794   2.365   3.415   5.575  0.4259  0.4802 -0.5057
  106OSM    H2G10795   2.435   3.564   5.633 -1.1302  2.1093  2.4002
  106OSM    C3F10796   2.265   3.572   5.479  0.3642  0.1592 -0.0776
  106OSM    H3F10797   2.243   3.678   5.502 -0.1469  0.0882 -0.2354
  106OSM    H3G10798   2.168   3.520   5.469 -0.1035  0.3442  2.8172
  106OSM    C4F10799   2.361   3.562   5.360 -0.1870  0.2127  0.9155
  106OSM    H4F10800   2.428   3.473   5.362  0.9246  1.0316  1.2987
  106OSM    H4G10801   2.421   3.656   5.362 -1.5174  1.0941  0.7847
  106OSM    C5F10802   2.283   3.559   5.226  0.7811  0.7299  0.3654
  106OSM    H5F10803   2.226   3.654   5.216 -2.2423 -0.7167  2.3784
  106OSM    H5G10804   2.207   3.482   5.203  0.6302  1.4084 -1.5599
  106OSM    C6F10805   2.380   3.552   5.102  0.1507 -0.5418  0.1333
  106OSM    H6F10806   2.439   3.461   5.125  0.1576 -0.4457  0.4967
  106OSM    H6G10807   2.451   3.637   5.100 -1.5613  0.9418 -0.3675
  106OSM    C7F10808   2.297   3.525   4.971  0.1161  0.0107  0.1889
  106OSM    H7F10809   2.205   3.586   4.978 -1.7871 -2.8280  1.6464
  106OSM    H7G10810   2.259   3.422   4.985  0.3557 -0.0547  0.3525
  106OSM    C8F10811   2.377   3.547   4.837  0.8392  0.2850 -0.2798
  106OSM    H8F10812   2.465   3.479   4.842  0.2751 -0.7348 -2.8307
  106OSM    H8G10813   2.407   3.653   4.823 -0.0001  0.2681 -2.7908
  106OSM    C9F10814   2.301   3.498   4.718 -0.3911 -0.1025 -0.3947
  106OSM    H9F10815   2.220   3.426   4.740  0.1823 -0.6352 -0.0019
  106OSM   C10F10816   2.332   3.527   4.588  0.3508  0.4312 -0.6330
  106OSM   H10F10817   2.254   3.507   4.514  0.3716 -4.0666  0.3132
  106OSM   C11F10818   2.439   3.619   4.547  0.1588 -0.2598  0.3706
  106OSM   H11F10819   2.510   3.659   4.622  0.6231 -0.8183  0.2306
  106OSM   H11G10820   2.388   3.711   4.510 -2.7823 -1.3123  1.4382
  106OSM   C12F10821   2.516   3.558   4.424  0.1555 -0.7152 -0.0710
  106OSM   H12F10822   2.570   3.465   4.453  3.2226  1.3708  1.5091
  106OSM   H12G10823   2.585   3.638   4.391  0.8209 -0.9695  0.6774
  106OSM   C13F10824   2.434   3.526   4.296 -0.5909  0.3174 -0.7721
  106OSM   H13F10825   2.417   3.624   4.247  1.8495  1.2045  0.0070
  106OSM   H13G10826   2.342   3.467   4.314 -2.2059  2.7092 -0.8212
  106OSM   C14F10827   2.515   3.447   4.194  0.3356  0.5131  0.4998
  106OSM   H14F10828   2.551   3.354   4.243 -0.8781 -0.2463 -0.0207
  106OSM   H14G10829   2.598   3.507   4.151  0.3501 -1.4538 -2.5649
  106OSM   C15F10830   2.432   3.409   4.066 -0.1769  0.6788 -0.3350
  106OSM   H15F10831   2.380   3.501   4.032 -1.8442  0.2303  0.8588
  106OSM   H15G10832   2.351   3.345   4.108  1.1879 -1.8531 -1.3201
  106OSM   C16F10833   2.508   3.318   3.964  0.0482 -0.4797 -0.4505
  106OSM   H16F10834   2.577   3.248   4.016 -0.6359 -0.1991  0.8730
  106OSM   H16G10835   2.561   3.391   3.900 -0.8859 -0.6691 -1.4705
  106OSM   C17F10836   2.405   3.247   3.880 -0.1707 -0.2300 -0.3085
  106OSM   H17F10837   2.346   3.322   3.822 -1.4161 -0.3021  0.8031
  106OSM   H17G10838   2.337   3.181   3.938 -1.2325 -0.0774 -1.3382
  106OSM   C18F10839   2.484   3.166   3.770  0.0388  0.0884 -0.4770
  106OSM   H18F10840   2.430   3.159   3.674  0.4746 -4.9633 -0.6345
  106OSM   H18G10841   2.489   3.059   3.799 -0.4020  0.3629  0.6568
  106OSM   H18H10842   2.585   3.208   3.748  0.0832 -1.0866 -2.8667
  107OSM      N10843   3.206   6.768   6.305  0.0334 -0.6386  0.7453
  107OSM    C1510844   3.287   6.669   6.219  0.4851  0.5298  0.5928
  107OSM   H15A10845   3.276   6.692   6.114  0.9228  1.7601  0.8001
  107OSM   H15B10846   3.239   6.573   6.231 -0.5197  1.1966  2.2698
  107OSM   H15C10847   3.394   6.668   6.236  0.4220  0.3116  0.9898
  107OSM    C1410848   3.065   6.726   6.301 -0.3681 -0.1595  0.3864
  107OSM   H14A10849   3.031   6.687   6.206  0.5124 -0.0587  0.0213
  107OSM   H14B10850   2.998   6.808   6.323 -1.7245 -1.3162  0.7613
  107OSM   H14C10851   3.048   6.657   6.382  0.9436 -0.0816  0.7503
  107OSM    C1310852   3.257   6.758   6.440  0.2952  0.4816 -0.8835
  107OSM   H13A10853   3.265   6.654   6.468  0.9342  1.0415  1.1286
  107OSM   H13B10854   3.203   6.811   6.516 -0.3238 -0.7275 -0.4511
  107OSM   H13C10855   3.361   6.784   6.445  0.1836  1.3737 -2.5122
  107OSM    C1210856   3.235   6.906   6.252  0.2297  0.2245 -0.0850
  107OSM   H12A10857   3.192   6.919   6.154  0.0419  1.6850  0.1701
  107OSM   H12B10858   3.340   6.928   6.240  0.2676  1.0083  1.4437
  107OSM    C1110859   3.168   7.017   6.330  0.0020  0.0236 -0.0947
  107OSM   H11A10860   3.194   7.109   6.273  1.9418 -0.3046  0.2082
  107OSM   H11B10861   3.197   7.025   6.436 -2.6637 -1.3398  0.8342
  107OSM      P10862   2.929   7.035   6.234 -0.0328 -0.1911  0.0195
  107OSM    O1310863   2.862   6.904   6.215 -0.1432 -0.9155 -0.2994
  107OSM    O1410864   2.835   7.145   6.270  0.0690 -0.1641  0.3940
  107OSM    O1110865   3.004   7.068   6.096 -0.4117  0.5092  0.4305
  107OSM    O1210866   3.031   7.012   6.345 -0.7402 -0.0998 -0.4256
  107OSM    C1S10867   2.964   7.023   5.970  0.2073 -0.4498 -0.4243
  107OSM    H1S10868   2.853   7.033   5.965  0.1147 -0.9347  0.5463
  107OSM    H1T10869   2.977   6.914   5.955 -2.4489 -0.8132 -0.5640
  107OSM     NF10870   2.981   7.075   5.730  0.1576  0.8303  0.1153
  107OSM    HNF10871   3.021   6.994   5.687  0.1224  0.3535  0.9473
  107OSM    C2S10872   3.045   7.098   5.864 -0.4788  0.2506  0.7953
  107OSM    H2S10873   3.024   7.202   5.897  3.0148  0.8860  1.4222
  107OSM    C3S10874   3.195   7.074   5.885  0.2309 -0.5854  0.7249
  107OSM    H3S10875   3.225   6.968   5.864 -0.3383 -0.1007 -3.3181
  107OSM     O310876   3.238   7.097   6.015  0.0308  0.2862 -0.4643
  107OSM    HO310877   3.156   7.098   6.065  0.4526  1.7222  0.2374
  107OSM    C4S10878   3.269   7.178   5.800  0.2931  0.0157 -0.2128
  107OSM    H4S10879   3.248   7.285   5.816  0.2306  0.0151 -0.2933
  107OSM    C5S10880   3.358   7.143   5.709  0.6727 -0.1673 -0.2249
  107OSM    H5S10881   3.381   7.037   5.692 -0.8684 -0.5989  0.2610
  107OSM    C6S10882   3.437   7.237   5.614  0.1232 -0.0827 -0.1657
  107OSM    H6S10883   3.535   7.254   5.663 -1.4380  0.8637  2.8800
  107OSM    H6T10884   3.378   7.330   5.600 -0.3044 -0.5765 -1.8864
  107OSM    C7S10885   3.446   7.178   5.472 -0.0911  0.3291  0.4727
  107OSM    H7S10886   3.346   7.166   5.424  0.5734 -5.0030 -0.1739
  107OSM    H7T10887   3.483   7.073   5.479 -0.7599  0.1319  1.3330
  107OSM    C8S10888   3.523   7.275   5.383 -0.3959  0.9957  0.5875
  107OSM    H8S10889   3.615   7.307   5.437  1.2392  0.0010 -1.4796
  107OSM    H8T10890   3.461   7.366   5.367 -1.8390  0.4811  2.7283
  107OSM    C9S10891   3.571   7.228   5.245 -0.2371 -0.5380 -0.9411
  107OSM    H9S10892   3.605   7.123   5.234  0.1153 -0.3676 -1.5304
  107OSM    H9T10893   3.651   7.299   5.217  0.8935 -1.5666 -0.3883
  107OSM   C10S10894   3.470   7.249   5.132  0.1676  0.3315 -0.8068
  107OSM   H10S10895   3.443   7.357   5.142 -1.4142 -0.2590  3.2761
  107OSM   H10T10896   3.375   7.192   5.144  0.4816 -0.0261  0.0534
  107OSM   C11S10897   3.531   7.209   4.993 -0.0648  0.4484 -0.2635
  107OSM   H11S10898   3.563   7.103   4.993 -1.3039  0.0491 -0.7100
  107OSM   H11T10899   3.623   7.270   4.980 -1.0496  2.3608  1.1815
  107OSM   C12S10900   3.424   7.234   4.877 -0.3256 -0.1621  0.1289
  107OSM   H12S10901   3.406   7.343   4.866  1.4246 -0.0427 -2.5923
  107OSM   H12T10902   3.329   7.183   4.903 -1.7286  1.7022 -1.0948
  107OSM   C13S10903   3.484   7.184   4.738 -0.1368  0.2594  0.1586
  107OSM   H13S10904   3.521   7.080   4.751 -1.8337 -0.7001 -2.1106
  107OSM   H13T10905   3.570   7.246   4.706 -0.0649  0.6857  1.1536
  107OSM   C14S10906   3.389   7.177   4.617  0.8117 -0.6835 -0.6717
  107OSM   H14S10907   3.327   7.269   4.617  1.6978 -0.0199 -3.3376
  107OSM   H14T10908   3.320   7.093   4.642 -2.5010  2.1457  0.4355
  107OSM   C15S10909   3.460   7.158   4.479 -0.1993 -0.0393  0.1549
  107OSM   H15S10910   3.532   7.073   4.487  1.8353  1.5721 -0.2620
  107OSM   H15T10911   3.538   7.236   4.465  1.0758 -1.2272  0.3725
  107OSM   C16S10912   3.366   7.138   4.365 -0.5432  0.6420  0.6625
  107OSM   H16S10913   3.426   7.122   4.273 -1.1127 -1.9887  0.6570
  107OSM   H16T10914   3.286   7.211   4.343 -3.5380 -2.6190 -0.2376
  107OSM   C17S10915   3.297   7.002   4.389 -0.6098 -0.1003  0.1450
  107OSM   H17S10916   3.227   7.013   4.475  0.7553 -0.0961  1.2741
  107OSM   H17T10917   3.362   6.918   4.419  0.2041  0.6846  0.6323
  107OSM   C18S10918   3.220   6.972   4.250  0.2100  0.4643  0.0620
  107OSM   H18S10919   3.135   7.042   4.236 -0.2900 -0.6920 -4.0203
  107OSM   H18T10920   3.191   6.864   4.253 -2.2925  0.9974 -1.8931
  107OSM   H18U10921   3.292   6.986   4.166 -0.1801 -1.4305 -0.6500
  107OSM    C1F10922   2.868   7.136   5.684 -0.1345  0.0001  0.0135
  107OSM     OF10923   2.834   7.244   5.724  0.1945  0.3446 -0.5376
  107OSM    C2F10924   2.793   7.062   5.573  0.3565 -0.7710 -0.3811
  107OSM    H2F10925   2.816   6.953   5.569  0.1346 -0.7858 -1.5640
  107OSM    H2G10926   2.829   7.107   5.478  1.6918  0.8117  0.8189
  107OSM    C3F10927   2.645   7.084   5.570  0.4602 -0.3824  0.5260
  107OSM    H3F10928   2.615   7.191   5.580 -1.6057 -0.9052  0.3897
  107OSM    H3G10929   2.608   7.024   5.656  1.8363 -1.4909  0.3747
  107OSM    C4F10930   2.582   7.031   5.439 -0.3959  0.2851  0.2036
  107OSM    H4F10931   2.474   7.021   5.460 -0.1080  0.2808  1.7928
  107OSM    H4G10932   2.621   6.927   5.436  2.0849  1.0834  1.6562
  107OSM    C5F10933   2.607   7.119   5.309 -0.2057 -0.1788 -0.5247
  107OSM    H5F10934   2.717   7.130   5.298 -0.3436  1.9317 -0.2174
  107OSM    H5G10935   2.564   7.220   5.327  0.3005 -0.0798  0.1812
  107OSM    C6F10936   2.538   7.061   5.187 -0.6051 -0.4080 -0.7850
  107OSM    H6F10937   2.429   7.057   5.208 -1.0294  1.4699 -2.3437
  107OSM    H6G10938   2.577   6.958   5.177 -0.4701 -0.4605  0.2054
  107OSM    C7F10939   2.555   7.140   5.051  0.1907 -0.1704  0.3098
  107OSM    H7F10940   2.656   7.173   5.018  0.4112  0.0156  1.1270
  107OSM    H7G10941   2.488   7.228   5.051  1.1118  0.5752  1.9609
  107OSM    C8F10942   2.493   7.056   4.942  0.3212 -0.4223 -0.2843
  107OSM    H8F10943   2.447   7.120   4.864 -2.7128 -0.7447  1.1422
  107OSM    H8G10944   2.404   7.003   4.980  0.0076 -0.9171 -1.6405
  107OSM    C9F10945   2.593   6.958   4.885  0.4547  0.1380 -0.6454
  107OSM    H9F10946   2.675   6.928   4.952 -1.0406  0.4515  1.4186
  107OSM   C10F10947   2.597   6.917   4.756 -0.3545  0.1121  0.1175
  107OSM   H10F10948   2.675   6.847   4.722 -0.0659  0.0942  0.8100
  107OSM   C11F10949   2.499   6.959   4.651  0.0191  0.3106  0.4978
  107OSM   H11F10950   2.533   7.056   4.607 -1.2135  1.0344  1.0900
  107OSM   H11G10951   2.401   6.979   4.700 -0.4343  1.0029 -0.6631
  107OSM   C12F10952   2.459   6.862   4.538 -0.2328  0.3055  1.2340
  107OSM   H12F10953   2.361   6.900   4.501  0.8676  0.8065 -1.4397
  107OSM   H12G10954   2.436   6.762   4.582 -0.4516  0.6170  1.8310
  107OSM   C13F10955   2.568   6.846   4.424  0.3186 -0.2238 -0.3334
  107OSM   H13F10956   2.660   6.793   4.456 -1.2989 -1.5868  2.5361
  107OSM   H13G10957   2.602   6.949   4.405 -2.2620  1.4596  2.9717
  107OSM   C14F10958   2.505   6.788   4.303  0.5067  0.8432  0.3892
  107OSM   H14F10959   2.579   6.779   4.221 -1.7470 -0.9016 -1.6171
  107OSM   H14G10960   2.429   6.860   4.267  1.7751  1.6823 -0.6845
  107OSM   C15F10961   2.455   6.641   4.311  0.3985  0.3799  0.2435
  107OSM   H15F10962   2.388   6.627   4.398  1.7437 -1.1649  1.1014
  107OSM   H15G10963   2.539   6.573   4.337 -0.5834 -0.8205  0.3746
  107OSM   C16F10964   2.401   6.590   4.176  0.8893  0.4866 -0.1563
  107OSM   H16F10965   2.483   6.572   4.103 -0.0430  0.2710 -1.1733
  107OSM   H16G10966   2.334   6.667   4.134  0.7077  0.8395  0.7578
  107OSM   C17F10967   2.317   6.462   4.196 -0.9918 -0.0044  0.0710
  107OSM   H17F10968   2.227   6.479   4.260  0.6025  0.5200  2.3211
  107OSM   H17G10969   2.379   6.384   4.247 -0.3987  1.2885  1.3913
  107OSM   C18F10970   2.270   6.401   4.058  0.2495 -0.1123  0.9165
  107OSM   H18F10971   2.193   6.468   4.015  0.9769 -0.0927 -0.3918
  107OSM   H18G10972   2.207   6.310   4.071 -0.2724 -0.1328 -1.3773
  107OSM   H18H10973   2.354   6.397   3.986  0.5683 -0.8624  1.3151
  108OSM      N10974   2.074   3.041   6.276  0.6496  0.1992  0.1976
  108OSM    C1510975   2.137   2.908   6.300  0.2568 -0.1861 -0.4415
  108OSM   H15A10976   2.072   2.832   6.259 -2.0804  0.2399  2.1622
  108OSM   H15B10977   2.133   2.870   6.401 -0.2229  0.6544 -0.1291
  108OSM   H15C10978   2.235   2.895   6.256  1.1475 -1.2406  1.7330
  108OSM    C1410979   1.965   3.069   6.374 -0.2463  0.4766 -0.7098
  108OSM   H14A10980   2.001   3.066   6.476 -1.5338 -1.1397 -0.2643
  108OSM   H14B10981   1.895   2.989   6.360  0.4660 -0.2778 -0.0530
  108OSM   H14C10982   1.912   3.161   6.355  0.0955  1.2169  1.5506
  108OSM    C1310983   2.177   3.147   6.291 -0.2638 -0.0444 -0.4590
  108OSM   H13A10984   2.226   3.154   6.387  0.3811 -0.7147 -0.7255
  108OSM   H13B10985   2.150   3.245   6.256  2.2812  0.6621 -0.6880
  108OSM   H13C10986   2.262   3.115   6.232  0.3367 -1.4185  1.0526
  108OSM    C1210987   2.029   3.047   6.128 -0.2573  0.8399 -0.0731
  108OSM   H12A10988   2.120   3.028   6.073  1.9611  1.9612  2.9296
  108OSM   H12B10989   1.987   3.145   6.112  0.6648  1.3894  0.7294
  108OSM    C1110990   1.916   2.947   6.095 -0.6920  0.2053 -0.0939
  108OSM   H11A10991   1.938   2.842   6.126  0.2088  0.1152 -0.9899
  108OSM   H11B10992   1.908   2.938   5.985  1.6859 -2.0893 -0.1876
  108OSM      P10993   1.694   3.098   6.105  0.0852 -0.3518 -0.0892
  108OSM    O1310994   1.565   3.080   6.171  0.5644 -0.0646  0.5706
  108OSM    O1410995   1.771   3.228   6.115 -0.2250  0.3778 -0.5823
  108OSM    O1110996   1.676   3.063   5.944 -0.4279 -0.0318 -0.0966
  108OSM    O1210997   1.791   2.992   6.156  0.0506  0.3542 -0.1726
  108OSM    C1S10998   1.551   2.996   5.908  0.1881 -0.6535 -0.0721
  108OSM    H1S10999   1.465   3.058   5.941 -0.0146 -0.6867 -0.5298
  108OSM    H1T11000   1.536   2.897   5.957 -0.4013 -1.4667 -1.8261
  108OSM     NF11001   1.405   2.923   5.725  1.1449 -0.1170  0.3217
  108OSM    HNF11002   1.400   2.838   5.674  0.3314  1.0955 -1.7233
  108OSM    C2S11003   1.537   2.981   5.757  0.2136 -0.3423 -0.1159
  108OSM    H2S11004   1.541   3.079   5.704 -0.3790 -1.1444 -1.7193
  108OSM    C3S11005   1.654   2.896   5.697 -0.0965 -0.0848 -0.3124
  108OSM    H3S11006   1.648   2.794   5.739  4.3038  0.3236  1.9751
  108OSM     O311007   1.787   2.930   5.736  0.0297 -0.7516  0.1969
  108OSM    HO311008   1.766   3.001   5.797  0.6062 -1.8086  1.6697
  108OSM    C4S11009   1.644   2.895   5.544  0.3045  0.1677 -0.1072
  108OSM    H4S11010   1.609   2.798   5.506  1.3846 -0.7472  1.1405
  108OSM    C5S11011   1.685   2.996   5.468  0.1056 -0.4662 -0.5339
  108OSM    H5S11012   1.730   3.087   5.510 -0.3151  0.2580 -1.6026
  108OSM    C6S11013   1.658   3.002   5.323 -0.6875 -0.1266 -0.1979
  108OSM    H6S11014   1.758   3.012   5.275  0.4276  0.1218  2.0507
  108OSM    H6T11015   1.604   3.097   5.303  0.3799  0.6522  0.5069
  108OSM    C7S11016   1.585   2.887   5.250  0.7585  0.3229 -0.1069
  108OSM    H7S11017   1.490   2.880   5.307  0.3354 -1.9742 -0.9565
  108OSM    H7T11018   1.646   2.796   5.267  4.2492  3.0127  3.4556
  108OSM    C8S11019   1.553   2.915   5.099 -0.5303 -0.9435  1.5686
  108OSM    H8S11020   1.498   3.010   5.083  0.3410 -0.7162 -0.4097
  108OSM    H8T11021   1.480   2.837   5.066 -0.0011 -0.4000 -1.1279
  108OSM    C9S11022   1.671   2.910   4.998  0.2543 -0.5870 -0.3997
  108OSM    H9S11023   1.737   2.827   5.032  0.9494  1.6630  4.5537
  108OSM    H9T11024   1.744   2.992   5.014 -1.2431  0.6159  0.4431
  108OSM   C10S11025   1.624   2.903   4.856  0.1713  0.1037  0.3593
  108OSM   H10S11026   1.535   2.969   4.843  0.4376  0.1545 -1.4304
  108OSM   H10T11027   1.606   2.798   4.826  2.0097  0.1179 -0.9230
  108OSM   C11S11028   1.728   2.973   4.762  0.1014  0.1109 -0.4047
  108OSM   H11S11029   1.830   2.933   4.780 -0.8059 -1.4290  1.7741
  108OSM   H11T11030   1.727   3.082   4.781 -1.5301 -0.3201  2.6239
  108OSM   C12S11031   1.711   2.940   4.607 -0.0544 -0.7313 -0.0978
  108OSM   H12S11032   1.606   2.965   4.581  0.5383  1.9812 -0.1366
  108OSM   H12T11033   1.734   2.832   4.597  0.9402 -0.5073 -0.2424
  108OSM   C13S11034   1.795   3.029   4.511 -0.8606 -0.9434  0.2665
  108OSM   H13S11035   1.893   3.034   4.563 -1.9222  0.2955  2.2940
  108OSM   H13T11036   1.744   3.128   4.507 -0.7848 -0.7886  2.1501
  108OSM   C14S11037   1.816   2.985   4.362  0.6237  0.5777 -0.3069
  108OSM   H14S11038   1.876   3.063   4.311 -1.2221  0.0064 -3.6631
  108OSM   H14T11039   1.713   2.976   4.319  1.2072  1.0110 -1.8896
  108OSM   C15S11040   1.883   2.850   4.356  0.3016  0.2492  0.7244
  108OSM   H15S11041   1.875   2.797   4.453 -0.2016  0.3152  0.7254
  108OSM   H15T11042   1.988   2.876   4.333  0.4336  1.0087  2.0912
  108OSM   C16S11043   1.838   2.761   4.239  0.4568  0.5089  0.3651
  108OSM   H16S11044   1.854   2.808   4.140  0.5078 -0.2639 -0.0035
  108OSM   H16T11045   1.730   2.741   4.257  0.7637  0.4421  2.4501
  108OSM   C17S11046   1.913   2.623   4.230  0.5259 -0.7923 -0.2280
  108OSM   H17S11047   1.897   2.577   4.329 -2.1264  3.3988  1.5494
  108OSM   H17T11048   2.023   2.641   4.228  0.2670  0.9910 -0.1734
  108OSM   C18S11049   1.870   2.531   4.110  0.2803  0.7904 -0.3076
  108OSM   H18S11050   1.762   2.505   4.119  0.1230  1.1194 -1.1307
  108OSM   H18T11051   1.928   2.438   4.123 -0.0086  0.5119 -0.9534
  108OSM   H18U11052   1.885   2.578   4.010  0.0330 -1.6430 -1.5658
  108OSM    C1F11053   1.289   2.983   5.741 -0.1990  0.0194  0.5167
  108OSM     OF11054   1.276   3.098   5.774 -0.1041 -0.7456 -0.3662
  108OSM    C2F11055   1.170   2.899   5.714 -0.8175  0.4656 -0.0988
  108OSM    H2F11056   1.101   2.902   5.801  1.7953 -0.9822  2.1821
  108OSM    H2G11057   1.206   2.794   5.715  0.5932  0.9056 -1.0535
  108OSM    C3F11058   1.097   2.923   5.576 -0.0698  0.3752 -0.2990
  108OSM    H3F11059   1.072   3.030   5.555  0.6175  0.8182  1.0247
  108OSM    H3G11060   1.000   2.869   5.577 -0.0022  0.2481 -0.6056
  108OSM    C4F11061   1.196   2.879   5.469 -0.2292 -0.3797  0.7744
  108OSM    H4F11062   1.219   2.773   5.491  1.0113 -0.6562 -1.5279
  108OSM    H4G11063   1.290   2.938   5.475 -0.0619 -0.4954 -0.4219
  108OSM    C5F11064   1.146   2.881   5.328 -0.2291 -0.9952 -0.2347
  108OSM    H5F11065   1.036   2.897   5.332  0.1985  2.8722  1.2434
  108OSM    H5G11066   1.176   2.782   5.287  1.2403 -0.7999  0.2986
  108OSM    C6F11067   1.201   3.001   5.251  0.1936  0.0393 -0.6803
  108OSM    H6F11068   1.310   2.991   5.231  0.4784 -1.0243  1.1719
  108OSM    H6G11069   1.179   3.092   5.312  2.9014  0.0804  0.3748
  108OSM    C7F11070   1.124   3.021   5.118 -0.7640  0.0327 -0.6895
  108OSM    H7F11071   1.159   3.121   5.084  1.1025  0.5503  2.3296
  108OSM    H7G11072   1.014   3.021   5.130 -0.7157  2.2826  0.2487
  108OSM    C8F11073   1.161   2.919   5.014 -0.0332  0.4390  0.2187
  108OSM    H8F11074   1.132   2.814   5.037 -4.3029  1.1298 -1.0935
  108OSM    H8G11075   1.271   2.926   5.005 -0.0508 -0.5243 -1.0945
  108OSM    C9F11076   1.101   2.939   4.880  0.5156  0.3761 -0.2629
  108OSM    H9F11077   0.997   2.976   4.885 -0.2424 -1.3891 -1.5340
  108OSM   C10F11078   1.149   2.915   4.754 -0.6344 -0.5812 -0.1736
  108OSM   H10F11079   1.087   2.938   4.666  0.2054 -1.5201 -1.0337
  108OSM   C11F11080   1.283   2.856   4.720 -0.0295 -0.8743  0.1654
  108OSM   H11F11081   1.332   2.824   4.814  3.1340  0.5749 -0.8429
  108OSM   H11G11082   1.348   2.941   4.690 -0.1803  0.8423  4.0218
  108OSM   C12F11083   1.272   2.746   4.619  0.3723 -0.6908 -0.6843
  108OSM   H12F11084   1.191   2.677   4.652  1.1029 -1.1949  0.1109
  108OSM   H12G11085   1.367   2.688   4.608  0.0937 -1.3657  0.2660
  108OSM   C13F11086   1.239   2.791   4.476 -0.3028  0.8426  0.2140
  108OSM   H13F11087   1.193   2.892   4.466 -2.2588 -0.0697 -0.5507
  108OSM   H13G11088   1.159   2.727   4.432  1.0880  1.2498 -3.2067
  108OSM   C14F11089   1.361   2.793   4.374 -0.7809 -0.1466 -0.2682
  108OSM   H14F11090   1.418   2.698   4.375  0.6966  0.7121  0.4259
  108OSM   H14G11091   1.433   2.867   4.415 -0.7230  0.2007 -0.9963
  108OSM   C15F11092   1.313   2.829   4.235 -0.3609  0.3980  0.1132
  108OSM   H15F11093   1.246   2.915   4.257  1.2930  1.2615  2.1128
  108OSM   H15G11094   1.259   2.740   4.196  0.2448  0.4578 -0.8832
  108OSM   C16F11095   1.412   2.864   4.120  0.1472 -0.4189 -0.7312
  108OSM   H16F11096   1.490   2.931   4.165  1.7362 -1.9740 -1.0539
  108OSM   H16G11097   1.378   2.915   4.028  1.1048 -0.7529 -1.2868
  108OSM   C17F11098   1.484   2.735   4.077 -0.1795  0.7723 -0.4779
  108OSM   H17F11099   1.406   2.661   4.048  0.5519  0.0092 -0.5436
  108OSM   H17G11100   1.539   2.704   4.168 -2.0993  2.2154  1.2771
  108OSM   C18F11101   1.586   2.757   3.965  0.4985 -0.3516  0.2778
  108OSM   H18F11102   1.550   2.699   3.876 -1.6493 -0.3353  1.0832
  108OSM   H18G11103   1.689   2.722   3.987  0.5362 -2.0324 -2.1154
  108OSM   H18H11104   1.603   2.865   3.945 -0.4383 -0.3875 -0.8303
  109OSM      N11105   1.933   5.289   6.769  0.1487  0.3269 -0.1277
  109OSM    C1511106   1.949   5.140   6.815  0.1197 -0.1127  1.1908
  109OSM   H15A11107   1.991   5.129   6.914  0.6401  1.9592  1.2473
  109OSM   H15B11108   2.010   5.092   6.740  0.4521 -1.0248  2.0264
  109OSM   H15C11109   1.854   5.090   6.818  0.7520 -1.3907  0.7154
  109OSM    C1411110   1.821   5.342   6.849  0.5098 -0.4349 -0.2042
  109OSM   H14A11111   1.724   5.306   6.821  0.1333 -0.6636  1.2859
  109OSM   H14B11112   1.813   5.448   6.826 -2.0635 -0.5780 -0.2479
  109OSM   H14C11113   1.820   5.339   6.957 -2.1600 -2.0374 -0.1924
  109OSM    C1311114   2.055   5.355   6.817  0.1696 -0.2875  0.1734
  109OSM   H13A11115   2.056   5.343   6.925  1.6485  0.3370  0.2645
  109OSM   H13B11116   2.048   5.463   6.805 -3.0322 -0.3483  0.5512
  109OSM   H13C11117   2.139   5.318   6.760 -0.0731 -0.4744 -0.0633
  109OSM    C1211118   1.917   5.305   6.634 -0.4390 -0.5088 -0.4165
  109OSM   H12A11119   1.880   5.403   6.607  0.4936 -0.1788 -0.5337
  109OSM   H12B11120   1.839   5.235   6.607 -1.4264  0.5378 -0.3578
  109OSM    C1111121   2.035   5.283   6.534 -0.1552 -0.3696  0.0968
  109OSM   H11A11122   2.121   5.349   6.555  0.8802 -2.0053  1.2642
  109OSM   H11B11123   1.999   5.301   6.430  0.9186  2.9842  0.1967
  109OSM      P11124   2.185   5.088   6.452 -0.0024  0.1775  0.0122
  109OSM    O1311125   2.312   5.162   6.457 -0.0243  0.0461  0.5049
  109OSM    O1411126   2.187   4.943   6.471 -0.5043 -0.0157 -0.0144
  109OSM    O1111127   2.118   5.116   6.318  0.2034 -0.8474  0.2195
  109OSM    O1211128   2.095   5.155   6.556  0.5762  0.7827 -0.1202
  109OSM    C1S11129   2.183   5.066   6.204  0.4194 -0.6632 -0.0710
  109OSM    H1S11130   2.151   4.963   6.178 -1.5672 -0.8968  2.7531
  109OSM    H1T11131   2.294   5.080   6.209  0.1467  2.1309 -0.4125
  109OSM     NF11132   2.191   5.100   5.959 -0.3616  0.1313  0.4747
  109OSM    HNF11133   2.276   5.131   5.917 -0.3017  0.6033  0.9239
  109OSM    C2S11134   2.140   5.156   6.081 -0.8120  0.4608  1.3906
  109OSM    H2S11135   2.030   5.159   6.072 -0.6544  0.4963 -2.3757
  109OSM    C3S11136   2.187   5.301   6.104  0.1103 -0.8080  0.1050
  109OSM    H3S11137   2.295   5.305   6.129 -0.5379 -0.6298  3.3065
  109OSM     O311138   2.124   5.360   6.215 -0.4661  0.1280  0.6848
  109OSM    HO311139   2.097   5.287   6.271 -0.5686 -1.0063 -0.7885
  109OSM    C4S11140   2.175   5.399   5.986 -0.1840 -0.0074  0.2524
  109OSM    H4S11141   2.071   5.429   5.966 -0.2340 -0.8875 -0.9273
  109OSM    C5S11142   2.278   5.470   5.932  0.2285 -0.1137  0.9757
  109OSM    H5S11143   2.380   5.448   5.967  0.6423 -2.8594 -1.6064
  109OSM    C6S11144   2.259   5.585   5.834  0.5436 -0.6234  0.6373
  109OSM    H6S11145   2.311   5.559   5.740  0.3060 -0.5870  0.4952
  109OSM    H6T11146   2.314   5.672   5.877  0.8095  0.4893 -1.8060
  109OSM    C7S11147   2.117   5.648   5.817 -0.3805  0.3099 -1.0997
  109OSM    H7S11148   2.080   5.667   5.920  1.5184  1.2609 -0.5313
  109OSM    H7T11149   2.057   5.575   5.759 -0.6042 -0.5356  0.1511
  109OSM    C8S11150   2.129   5.788   5.748  0.1040  0.1747  0.1306
  109OSM    H8S11151   2.193   5.775   5.658  0.2403  1.0744  0.0861
  109OSM    H8T11152   2.174   5.858   5.822 -0.5412  1.7695 -0.9369
  109OSM    C9S11153   1.996   5.852   5.716  0.2417  0.5573 -0.0874
  109OSM    H9S11154   2.013   5.956   5.681 -0.8747  0.4357 -1.0541
  109OSM    H9T11155   1.930   5.834   5.803  1.2043 -1.8928  0.2163
  109OSM   C10S11156   1.923   5.775   5.593  0.2940 -1.2609 -0.2862
  109OSM   H10S11157   1.816   5.805   5.592  0.5314 -0.2629  0.9331
  109OSM   H10T11158   1.916   5.665   5.609  0.0587 -1.3618 -1.0610
  109OSM   C11S11159   1.988   5.803   5.463 -0.3578  0.0325 -0.4401
  109OSM   H11S11160   2.090   5.760   5.474  0.1204  1.1774 -0.1779
  109OSM   H11T11161   2.018   5.904   5.426 -2.9215 -0.0090 -2.9649
  109OSM   C12S11162   1.924   5.721   5.357  0.2928  0.2572 -0.2161
  109OSM   H12S11163   1.817   5.748   5.345 -0.2593 -1.8453 -0.5152
  109OSM   H12T11164   1.929   5.615   5.390 -2.2822 -0.0551 -0.5824
  109OSM   C13S11165   1.985   5.749   5.224  0.1879  0.3669  0.0010
  109OSM   H13S11166   2.094   5.729   5.228  0.4430  1.5702 -0.4153
  109OSM   H13T11167   1.970   5.854   5.192  0.3684  0.8020  1.2984
  109OSM   C14S11168   1.934   5.653   5.114  0.8799  0.2632  0.1562
  109OSM   H14S11169   1.826   5.662   5.092  0.8726 -0.3760 -0.0837
  109OSM   H14T11170   1.961   5.548   5.136 -0.8907 -0.5947 -1.4232
  109OSM   C15S11171   2.013   5.687   4.988  0.1882  0.0696  0.6496
  109OSM   H15S11172   2.122   5.664   4.996  0.2790 -0.5083 -1.6075
  109OSM   H15T11173   1.992   5.796   4.981  1.4203  0.2948  0.0874
  109OSM   C16S11174   1.960   5.613   4.871 -0.3647  0.3841  0.2668
  109OSM   H16S11175   1.849   5.622   4.864 -0.6673 -0.4298  2.7246
  109OSM   H16T11176   1.964   5.504   4.891  0.2639  0.1760 -0.9446
  109OSM   C17S11177   2.037   5.622   4.739  0.4830 -0.3595 -0.0996
  109OSM   H17S11178   2.143   5.595   4.757  1.1484  0.9315 -1.7739
  109OSM   H17T11179   2.021   5.728   4.708  0.7834  0.1995  1.5336
  109OSM   C18S11180   1.974   5.529   4.634  0.6443  0.1788 -0.1938
  109OSM   H18S11181   1.866   5.550   4.626  0.3554 -0.8892  0.6018
  109OSM   H18T11182   1.984   5.423   4.666 -0.1023  0.1018 -0.2113
  109OSM   H18U11183   2.015   5.554   4.534  2.2272 -0.6584  0.2014
  109OSM    C1F11184   2.138   4.990   5.911 -0.1234 -0.6077 -0.3012
  109OSM     OF11185   2.033   4.948   5.963  0.0846 -0.1911  0.1310
  109OSM    C2F11186   2.200   4.929   5.790  0.3996 -0.3996  0.6539
  109OSM    H2F11187   2.298   4.880   5.803  0.1343 -1.3231 -0.7114
  109OSM    H2G11188   2.204   5.002   5.706 -0.0464 -0.1825  0.8172
  109OSM    C3F11189   2.117   4.810   5.740  0.3288 -0.2876 -0.1083
  109OSM    H3F11190   2.011   4.833   5.716  0.6643  0.0673 -1.2937
  109OSM    H3G11191   2.127   4.732   5.819 -2.8051  0.8577  1.6042
  109OSM    C4F11192   2.182   4.758   5.608  0.0700  0.5641 -0.2850
  109OSM    H4F11193   2.286   4.726   5.629 -0.4281  0.3931  2.2243
  109OSM    H4G11194   2.175   4.844   5.538 -2.5218  1.5851  1.0674
  109OSM    C5F11195   2.112   4.645   5.539 -0.0103  0.0410  0.0629
  109OSM    H5F11196   2.010   4.682   5.519 -0.7673 -0.9553  1.8230
  109OSM    H5G11197   2.127   4.559   5.609  1.6373  0.1933 -0.0429
  109OSM    C6F11198   2.176   4.594   5.404  0.1677 -1.1995  0.3029
  109OSM    H6F11199   2.125   4.498   5.379 -1.6840 -0.6288  1.6567
  109OSM    H6G11200   2.287   4.583   5.404  0.2629 -0.3344 -0.0785
  109OSM    C7F11201   2.140   4.690   5.281  0.0496 -0.4536  0.0268
  109OSM    H7F11202   2.194   4.652   5.191 -2.3906 -0.7405 -1.3834
  109OSM    H7G11203   2.175   4.794   5.301 -1.1141  0.5973 -2.8260
  109OSM    C8F11204   1.992   4.699   5.232  0.1749 -0.3333  0.9578
  109OSM    H8F11205   1.936   4.718   5.326  0.7722  0.3430  1.1802
  109OSM    H8G11206   1.967   4.600   5.187  0.9247 -0.9431  1.8556
  109OSM    C9F11207   1.980   4.811   5.122  0.0912 -0.1373 -0.0942
  109OSM    H9F11208   2.061   4.883   5.137  0.3975 -0.5143  0.0803
  109OSM   C10F11209   1.890   4.829   5.025  0.0275  0.0706 -0.4020
  109OSM   H10F11210   1.891   4.913   4.954 -0.4112  0.5123  0.0932
  109OSM   C11F11211   1.764   4.753   5.008 -0.2848  0.2619  0.1271
  109OSM   H11F11212   1.684   4.798   5.071  1.8928 -0.4654  3.7050
  109OSM   H11G11213   1.779   4.650   5.048 -0.6662  1.1564  2.7985
  109OSM   C12F11214   1.714   4.730   4.862  0.0485 -0.0567 -0.3726
  109OSM   H12F11215   1.785   4.663   4.810  1.1641  1.5539 -1.0088
  109OSM   H12G11216   1.718   4.820   4.796 -0.6544  0.9223  0.8801
  109OSM   C13F11217   1.567   4.678   4.846 -0.3246 -0.3617 -0.5972
  109OSM   H13F11218   1.494   4.734   4.908  0.1943 -0.4750  0.1276
  109OSM   H13G11219   1.578   4.582   4.901 -0.4885  0.1536  0.3502
  109OSM   C14F11220   1.527   4.657   4.706  0.3646  0.4044 -0.3870
  109OSM   H14F11221   1.464   4.565   4.700  4.8099 -3.0231 -0.3263
  109OSM   H14G11222   1.613   4.631   4.639 -0.4129 -0.9094 -0.9189
  109OSM   C15F11223   1.466   4.773   4.630  0.2234  0.0966  0.2207
  109OSM   H15F11224   1.525   4.867   4.635 -1.7017  1.3975 -0.0939
  109OSM   H15G11225   1.373   4.809   4.679  1.6080  1.3129  2.0782
  109OSM   C16F11226   1.440   4.741   4.487  0.1596  0.9642 -0.2182
  109OSM   H16F11227   1.373   4.654   4.470  2.7195 -0.8683 -1.6936
  109OSM   H16G11228   1.538   4.703   4.452 -0.2594  0.2693 -0.6573
  109OSM   C17F11229   1.404   4.860   4.395  0.2298 -0.3625 -0.0631
  109OSM   H17F11230   1.421   4.831   4.289  0.0073 -0.6710 -0.0166
  109OSM   H17G11231   1.472   4.943   4.422  0.5514  0.1903 -2.3841
  109OSM   C18F11232   1.260   4.903   4.413 -0.5145  0.2371  0.5700
  109OSM   H18F11233   1.248   4.972   4.327  0.3711 -0.6986 -0.3469
  109OSM   H18G11234   1.246   4.957   4.509  1.2445  2.8325 -0.5313
  109OSM   H18H11235   1.198   4.814   4.389  0.5982 -0.9397  1.8661
  110OSM      N11236   4.656   2.292   6.499 -0.1640 -0.4213 -0.1895
  110OSM    C1511237   4.798   2.265   6.525 -0.4686  0.3977 -0.0919
  110OSM   H15A11238   4.866   2.323   6.465 -2.1530 -0.7072 -3.2835
  110OSM   H15B11239   4.805   2.163   6.490  2.0004 -0.9203  3.6478
  110OSM   H15C11240   4.821   2.271   6.631  1.0269  3.1036 -0.4801
  110OSM    C1411241   4.565   2.197   6.583 -0.4554 -0.6702  0.6747
  110OSM   H14A11242   4.590   2.204   6.688  2.1050  0.1978  0.0868
  110OSM   H14B11243   4.560   2.094   6.553  1.5524 -0.2645 -1.2947
  110OSM   H14C11244   4.467   2.241   6.580 -0.7487 -1.2838  1.1381
  110OSM    C1311245   4.624   2.429   6.551 -0.3910 -0.0857  0.4538
  110OSM   H13A11246   4.634   2.435   6.658  0.2532  0.7256  0.3627
  110OSM   H13B11247   4.522   2.449   6.524 -0.2199 -0.5485 -0.5940
  110OSM   H13C11248   4.685   2.505   6.505 -2.0983  0.8116 -0.4309
  110OSM    C1211249   4.615   2.278   6.351  0.6471 -0.2606  0.6708
  110OSM   H12A11250   4.508   2.286   6.336  0.3868 -0.3023  2.3113
  110OSM   H12B11251   4.638   2.184   6.303  0.7973  1.8488 -4.0347
  110OSM    C1111252   4.685   2.374   6.258  0.5039  0.3054  0.8203
  110OSM   H11A11253   4.683   2.480   6.293  0.7830  0.4661  0.3511
  110OSM   H11B11254   4.631   2.370   6.161  1.6859 -3.0656  0.1595
  110OSM      P11255   4.935   2.418   6.192 -0.0980  0.0889  0.4147
  110OSM    O1311256   4.958   2.510   6.301  0.3760  0.1126 -0.1544
  110OSM    O1411257   5.049   2.330   6.153  0.1930  0.2219  0.2281
  110OSM    O1111258   4.879   2.502   6.071 -0.1500 -0.1122 -0.2365
  110OSM    O1211259   4.817   2.328   6.234 -0.3591  0.4728  0.2247
  110OSM    C1S11260   4.820   2.447   5.956  0.1051  0.2168  0.0033
  110OSM    H1S11261   4.716   2.486   5.949 -0.5388 -1.2766  0.6259
  110OSM    H1T11262   4.813   2.336   5.951 -0.4788  0.1871  1.0998
  110OSM     NF11263   4.816   2.438   5.712 -0.6256  0.1914  0.3911
  110OSM    HNF11264   4.854   2.357   5.669  0.1860  1.7481 -2.0290
  110OSM    C2S11265   4.888   2.497   5.821 -0.8903 -0.0619 -0.7907
  110OSM    H2S11266   4.870   2.606   5.814  0.6148  0.2236 -0.6660
  110OSM    C3S11267   5.038   2.465   5.821 -0.1873  0.4346 -0.2275
  110OSM    H3S11268   5.062   2.357   5.833  0.9448  0.5913 -0.9733
  110OSM     O311269   5.103   2.529   5.931 -0.2773 -0.6747  0.0009
  110OSM    HO311270   5.042   2.578   5.987  1.5021 -1.0935  2.5036
  110OSM    C4S11271   5.102   2.506   5.695 -0.5472 -0.4336  0.0202
  110OSM    H4S11272   5.076   2.606   5.658  1.5294 -0.5463 -1.9540
  110OSM    C5S11273   5.183   2.431   5.619 -0.6516  0.0755  0.4382
  110OSM    H5S11274   5.216   2.332   5.652  1.5390  0.2562 -1.0131
  110OSM    C6S11275   5.232   2.462   5.478  0.1984 -0.6669  0.5773
  110OSM    H6S11276   5.151   2.512   5.422  0.3197 -2.8426 -1.6828
  110OSM    H6T11277   5.262   2.372   5.420  1.6272  1.3351 -2.0018
  110OSM    C7S11278   5.363   2.551   5.486  0.1272 -0.7748  0.1116
  110OSM    H7S11279   5.443   2.483   5.522  1.8281  0.1754 -1.6790
  110OSM    H7T11280   5.358   2.631   5.563 -2.5591  0.2996 -1.0348
  110OSM    C8S11281   5.411   2.610   5.353  0.7100  0.3071  0.2687
  110OSM    H8S11282   5.518   2.638   5.358  0.5925  0.7548  0.3045
  110OSM    H8T11283   5.355   2.705   5.338  0.3803  0.2602  1.1631
  110OSM    C9S11284   5.404   2.524   5.226 -0.5545  0.4693  0.0281
  110OSM    H9S11285   5.301   2.483   5.217 -0.9280  1.2516  0.5514
  110OSM    H9T11286   5.466   2.438   5.260  1.2031  0.9450 -1.7732
  110OSM   C10S11287   5.462   2.593   5.102  0.1591  0.5343 -0.7251
  110OSM   H10S11288   5.571   2.607   5.119  0.0986 -1.2667  1.8288
  110OSM   H10T11289   5.409   2.690   5.085 -1.6929 -0.7239 -2.6059
  110OSM   C11S11290   5.432   2.498   4.981 -0.5431 -0.5784 -0.6719
  110OSM   H11S11291   5.326   2.468   4.970 -1.1706  1.4630 -0.4884
  110OSM   H11T11292   5.485   2.401   4.999  1.6419  0.5765 -0.4643
  110OSM   C12S11293   5.498   2.561   4.852  0.2186  0.0428 -0.1031
  110OSM   H12S11294   5.606   2.584   4.864 -0.0856  0.5940  2.0526
  110OSM   H12T11295   5.446   2.656   4.825  1.5580  1.1550  1.0755
  110OSM   C13S11296   5.460   2.457   4.746  0.1089  0.2275  0.6928
  110OSM   H13S11297   5.367   2.410   4.782 -0.3646 -0.9211 -1.7822
  110OSM   H13T11298   5.533   2.373   4.744 -1.3611 -1.0837  0.3148
  110OSM   C14S11299   5.425   2.517   4.609 -0.1250  0.0271 -0.1925
  110OSM   H14S11300   5.510   2.584   4.586 -1.0016  1.6558  1.1042
  110OSM   H14T11301   5.325   2.564   4.622 -0.3460 -0.2797 -0.7489
  110OSM   C15S11302   5.422   2.415   4.499 -0.2067 -0.4377 -0.1058
  110OSM   H15S11303   5.357   2.326   4.512 -0.0527 -0.5628 -0.1815
  110OSM   H15T11304   5.525   2.375   4.487 -0.0391 -0.4761  1.2996
  110OSM   C16S11305   5.373   2.483   4.363  0.4297  0.2424  0.0553
  110OSM   H16S11306   5.383   2.407   4.282 -2.3345 -1.7147  1.3909
  110OSM   H16T11307   5.444   2.569   4.359  2.2330 -1.1467  0.9293
  110OSM   C17S11308   5.227   2.531   4.354 -0.5291 -0.8913 -0.1355
  110OSM   H17S11309   5.232   2.621   4.419  2.8190 -0.4930 -0.7704
  110OSM   H17T11310   5.160   2.455   4.400 -0.8260 -1.6358 -1.7176
  110OSM   C18S11311   5.195   2.542   4.206  0.5882  1.2410 -0.6952
  110OSM   H18S11312   5.093   2.582   4.191  0.3636  0.4731 -1.2686
  110OSM   H18T11313   5.197   2.442   4.158  0.1236  0.2942  1.1701
  110OSM   H18U11314   5.268   2.608   4.153  0.4870  0.6817 -1.5577
  110OSM    C1F11315   4.695   2.478   5.676 -0.4104  0.1169 -0.0430
  110OSM     OF11316   4.644   2.565   5.739  0.4146 -0.5415 -0.7877
  110OSM    C2F11317   4.616   2.412   5.570  0.1173 -0.3607  0.7622
  110OSM    H2F11318   4.547   2.335   5.611 -0.2452 -0.7856 -0.6006
  110OSM    H2G11319   4.689   2.361   5.503 -2.1902 -2.2069 -0.4955
  110OSM    C3F11320   4.524   2.506   5.500 -0.6160 -1.0854 -0.4472
  110OSM    H3F11321   4.597   2.581   5.461 -0.6083 -2.1307 -2.5976
  110OSM    H3G11322   4.449   2.561   5.561  0.2693 -1.9021  1.4414
  110OSM    C4F11323   4.458   2.448   5.375  0.6697  0.1741 -0.0672
  110OSM    H4F11324   4.394   2.360   5.398  0.2547  1.0427  2.3989
  110OSM    H4G11325   4.534   2.410   5.303  0.8925 -1.6485  1.0667
  110OSM    C5F11326   4.378   2.555   5.303 -0.1428 -0.4260 -0.1351
  110OSM    H5F11327   4.443   2.641   5.275 -3.1228  2.1080  0.0752
  110OSM    H5G11328   4.302   2.595   5.374  1.1930 -3.8802  3.6109
  110OSM    C6F11329   4.299   2.512   5.180 -0.4053  0.3011  0.7422
  110OSM    H6F11330   4.233   2.595   5.147  0.9659  1.3033  0.4321
  110OSM    H6G11331   4.229   2.430   5.205 -0.1172  0.1680  1.1163
  110OSM    C7F11332   4.386   2.467   5.061 -0.1300 -0.4532 -0.3842
  110OSM    H7F11333   4.442   2.376   5.091  0.7202  0.7228  1.8576
  110OSM    H7G11334   4.457   2.549   5.037  0.7353 -1.2059 -0.4315
  110OSM    C8F11335   4.285   2.441   4.942  0.0285 -0.6471 -0.0744
  110OSM    H8F11336   4.213   2.360   4.966 -0.9748 -0.4154 -2.0493
  110OSM    H8G11337   4.353   2.402   4.863  0.1961 -0.8789  0.1816
  110OSM    C9F11338   4.211   2.564   4.886  0.1146  0.0348 -0.1267
  110OSM    H9F11339   4.127   2.601   4.947  0.7515  1.3305  0.0125
  110OSM   C10F11340   4.232   2.619   4.769  0.4475 -0.3064  0.3421
  110OSM   H10F11341   4.175   2.710   4.745  1.1508 -0.2284 -1.0973
  110OSM   C11F11342   4.336   2.586   4.667 -0.1750 -0.0811  0.2861
  110OSM   H11F11343   4.376   2.483   4.683 -1.4237 -0.3404  2.0707
  110OSM   H11G11344   4.420   2.653   4.694  0.4586 -0.4455 -0.6953
  110OSM   C12F11345   4.292   2.613   4.526  0.1734  0.1198  0.3179
  110OSM   H12F11346   4.213   2.692   4.529  1.5710  1.5693  0.1404
  110OSM   H12G11347   4.257   2.518   4.480  3.4316 -0.4702 -1.1911
  110OSM   C13F11348   4.403   2.671   4.434  0.0454  0.3981 -0.4211
  110OSM   H13F11349   4.478   2.589   4.433 -2.7346 -2.3667  0.8919
  110OSM   H13G11350   4.451   2.758   4.486  0.4367 -1.3962  2.4630
  110OSM   C14F11351   4.358   2.712   4.297  0.1451  0.2880 -0.3255
  110OSM   H14F11352   4.443   2.762   4.246  1.9107 -0.9963  1.1788
  110OSM   H14G11353   4.275   2.785   4.308 -1.0980 -0.5698 -3.0525
  110OSM   C15F11354   4.313   2.600   4.211  0.3359 -0.1326 -0.1225
  110OSM   H15F11355   4.267   2.651   4.124  0.1346 -1.5594 -0.8914
  110OSM   H15G11356   4.233   2.544   4.263 -0.2643  0.2612 -0.6094
  110OSM   C16F11357   4.410   2.491   4.161 -0.4596  0.6797  0.3613
  110OSM   H16F11358   4.363   2.427   4.083  0.5497 -0.4028  0.6130
  110OSM   H16G11359   4.440   2.420   4.241 -0.5634 -0.2600 -0.4176
  110OSM   C17F11360   4.537   2.544   4.099  0.1160 -0.3333  0.5446
  110OSM   H17F11361   4.607   2.461   4.077  0.3937  0.1370 -0.4073
  110OSM   H17G11362   4.586   2.622   4.162 -0.4604 -1.2210  2.1551
  110OSM   C18F11363   4.504   2.605   3.959  1.3506 -0.2006  0.0403
  110OSM   H18F11364   4.426   2.683   3.975  2.2344  1.2930 -2.3379
  110OSM   H18G11365   4.465   2.532   3.886  0.3526  1.6112 -1.3306
  110OSM   H18H11366   4.587   2.660   3.908  0.4074  0.6214 -0.6412
  111OSM      N11367   0.171   0.133   6.148 -0.4370  0.0092 -0.3728
  111OSM    C1511368   0.106  -0.003   6.152 -0.1170  0.1621 -0.0195
  111OSM   H15A11369   0.001  -0.003   6.129 -0.1786  0.0601  0.2523
  111OSM   H15B11370   0.114  -0.051   6.249 -0.3946  1.3126  0.5980
  111OSM   H15C11371   0.157  -0.063   6.078 -2.2616 -0.1274 -1.3338
  111OSM    C1411372   0.140   0.197   6.011  0.0634 -0.2738  0.3566
  111OSM   H14A11373   0.195   0.150   5.931  0.2725  0.8308 -0.1812
  111OSM   H14B11374   0.152   0.305   6.006  0.7227 -0.3825 -3.7121
  111OSM   H14C11375   0.038   0.173   5.987  0.4724 -1.5175 -0.2076
  111OSM    C1311376   0.113   0.216   6.255  0.0134 -0.7832  0.3399
  111OSM   H13A11377   0.148   0.185   6.353 -1.0144 -0.5919  0.7825
  111OSM   H13B11378   0.005   0.217   6.261  0.0607  0.2258  1.2484
  111OSM   H13C11379   0.146   0.318   6.248 -4.2706  1.0406  2.6303
  111OSM    C1211380   0.318   0.117   6.161  0.1385 -0.9641 -0.1783
  111OSM   H12A11381   0.374   0.208   6.146 -3.8055  2.6143  3.7851
  111OSM   H12B11382   0.363   0.042   6.097  3.6129 -0.1107  1.0205
  111OSM    C1111383   0.362   0.070   6.302  0.2525  0.1927 -0.5300
  111OSM   H11A11384   0.338   0.149   6.376  2.0651 -0.3171  0.6757
  111OSM   H11B11385   0.472   0.085   6.305  0.6593 -1.4419 -3.2402
  111OSM      P11386   0.422  -0.181   6.287  0.6935  0.6006  0.2207
  111OSM    O1311387   0.559  -0.158   6.336 -0.3881 -0.1686  0.9471
  111OSM    O1411388   0.358  -0.310   6.327 -0.0539 -0.1257  0.1184
  111OSM    O1111389   0.421  -0.165   6.128  0.3937 -0.2680  0.8560
  111OSM    O1211390   0.329  -0.064   6.339  0.0743  0.6168 -0.2871
  111OSM    C1S11391   0.414  -0.263   6.027  0.1371  0.0530 -0.2172
  111OSM    H1S11392   0.312  -0.267   5.982 -0.0703 -0.0133  0.2491
  111OSM    H1T11393   0.439  -0.365   6.064 -1.1550  0.1494  1.0432
  111OSM     NF11394   0.480  -0.314   5.792  1.1273  0.3674 -1.2536
  111OSM    HNF11395   0.522  -0.404   5.795  1.6771  0.6384  1.7224
  111OSM    C2S11396   0.504  -0.226   5.904 -0.7708 -0.5582 -0.3717
  111OSM    H2S11397   0.472  -0.123   5.879  1.3288  1.0617  2.9069
  111OSM    C3S11398   0.648  -0.208   5.945  0.4508 -0.1302  0.8258
  111OSM    H3S11399   0.678  -0.295   6.007 -0.3567 -0.4861  0.7336
  111OSM     O311400   0.679  -0.090   6.022 -0.9304 -0.0125 -0.8475
  111OSM    HO311401   0.616  -0.023   5.996  0.2736  0.4539 -2.8305
  111OSM    C4S11402   0.742  -0.219   5.827 -0.2207  0.1932  0.1436
  111OSM    H4S11403   0.717  -0.142   5.753  1.7707  0.2526 -0.5326
  111OSM    C5S11404   0.848  -0.302   5.806 -0.2563  0.2387 -0.3192
  111OSM    H5S11405   0.870  -0.378   5.883 -2.0333 -0.5442 -0.5304
  111OSM    C6S11406   0.947  -0.306   5.684 -0.4054 -0.5072  0.0073
  111OSM    H6S11407   1.051  -0.285   5.716 -1.1725  4.4291  0.1401
  111OSM    H6T11408   0.925  -0.236   5.600  2.6069  0.4313 -0.0925
  111OSM    C7S11409   0.970  -0.443   5.617 -0.6944  0.4440  0.1378
  111OSM    H7S11410   0.889  -0.480   5.550  1.0146  0.8563 -2.2721
  111OSM    H7T11411   1.006  -0.517   5.692 -0.5965 -0.0485 -0.3891
  111OSM    C8S11412   1.093  -0.447   5.520  0.4616 -0.4019 -0.2016
  111OSM    H8S11413   1.122  -0.554   5.513 -0.8931 -1.0039  2.1496
  111OSM    H8T11414   1.177  -0.384   5.557  0.4826 -1.7763  2.3011
  111OSM    C9S11415   1.059  -0.408   5.372 -0.1183 -0.2769  0.0861
  111OSM    H9S11416   1.019  -0.305   5.369  2.3931  0.7253 -1.4107
  111OSM    H9T11417   0.978  -0.475   5.337  1.4470 -1.0760 -2.1883
  111OSM   C10S11418   1.177  -0.407   5.275  0.5573  0.2653  0.0288
  111OSM   H10S11419   1.249  -0.488   5.298 -0.7699 -0.4526  1.8902
  111OSM   H10T11420   1.233  -0.312   5.292  0.1677  0.7028 -1.0892
  111OSM   C11S11421   1.140  -0.415   5.122  0.0080  0.2066 -0.5814
  111OSM   H11S11422   1.073  -0.330   5.097  0.8473  1.0465 -0.0827
  111OSM   H11T11423   1.073  -0.502   5.107  0.0477 -0.3430  1.9155
  111OSM   C12S11424   1.252  -0.429   5.023  0.3045 -0.2366 -0.3470
  111OSM   H12S11425   1.309  -0.521   5.044 -0.5449 -0.5612  0.6186
  111OSM   H12T11426   1.325  -0.347   5.041  1.2813 -1.2576  0.4976
  111OSM   C13S11427   1.196  -0.433   4.882  1.0591  0.0342 -0.2117
  111OSM   H13S11428   1.144  -0.338   4.855  1.0788 -0.1896 -1.0648
  111OSM   H13T11429   1.125  -0.518   4.877  0.6851  0.1374  2.1745
  111OSM   C14S11430   1.314  -0.440   4.786 -0.0757  0.4474 -0.2446
  111OSM   H14S11431   1.387  -0.513   4.828  0.9418  1.6352  0.1207
  111OSM   H14T11432   1.367  -0.343   4.789  0.7339  0.1250 -2.3407
  111OSM   C15S11433   1.278  -0.487   4.642  0.2164  1.1168  0.3541
  111OSM   H15S11434   1.223  -0.404   4.593 -0.4559  0.9984  0.8996
  111OSM   H15T11435   1.206  -0.571   4.648 -0.2007  1.6009  3.6931
  111OSM   C16S11436   1.395  -0.535   4.549 -0.4128  0.6185 -0.2776
  111OSM   H16S11437   1.454  -0.621   4.589 -0.5090  0.6301 -0.1102
  111OSM   H16T11438   1.470  -0.457   4.525 -2.8758  3.3350  0.3025
  111OSM   C17S11439   1.335  -0.570   4.409 -0.3793  0.6876  0.2664
  111OSM   H17S11440   1.264  -0.497   4.366 -0.4686  1.4357  1.6025
  111OSM   H17T11441   1.281  -0.666   4.418 -1.3270  0.9859 -1.8245
  111OSM   C18S11442   1.448  -0.581   4.304 -0.4136  0.3295  0.5968
  111OSM   H18S11443   1.412  -0.591   4.199  1.9252 -1.0361 -0.1535
  111OSM   H18T11444   1.514  -0.665   4.334 -0.3097  0.0296 -0.4321
  111OSM   H18U11445   1.504  -0.486   4.305 -2.0936  1.4195 -1.0169
  111OSM    C1F11446   0.372  -0.303   5.727 -0.3284  0.0803 -0.0753
  111OSM     OF11447   0.287  -0.209   5.742  0.1996 -0.1998  0.2376
  111OSM    C2F11448   0.350  -0.431   5.642  0.4134  0.2565 -0.2601
  111OSM    H2F11449   0.240  -0.434   5.632  0.3458  1.8707 -0.2977
  111OSM    H2G11450   0.387  -0.511   5.709 -0.6509  1.6155  2.0518
  111OSM    C3F11451   0.417  -0.433   5.499 -0.2607  0.1212 -0.6703
  111OSM    H3F11452   0.360  -0.377   5.422 -0.9854  0.5032  0.1283
  111OSM    H3G11453   0.397  -0.539   5.472  0.5340 -0.2403  0.0897
  111OSM    C4F11454   0.571  -0.430   5.516  0.3978 -0.2635  0.2286
  111OSM    H4F11455   0.595  -0.517   5.581  2.4247 -1.1898 -1.6521
  111OSM    H4G11456   0.612  -0.340   5.568  1.7245 -2.4813  3.3174
  111OSM    C5F11457   0.656  -0.442   5.376 -0.1034  0.3951  0.0491
  111OSM    H5F11458   0.763  -0.432   5.405  1.0508 -0.4498 -3.5100
  111OSM    H5G11459   0.634  -0.366   5.298  0.7178  0.0887 -0.4877
  111OSM    C6F11460   0.645  -0.586   5.324 -0.1261  0.2772  1.2988
  111OSM    H6F11461   0.536  -0.603   5.306 -0.4926  3.6317 -0.4752
  111OSM    H6G11462   0.667  -0.657   5.407 -1.2067  0.9224  2.1790
  111OSM    C7F11463   0.722  -0.630   5.195  0.3345 -0.6986 -1.0598
  111OSM    H7F11464   0.827  -0.617   5.232  0.1036  1.6416 -1.0337
  111OSM    H7G11465   0.702  -0.558   5.113  1.6330  0.1796 -0.6459
  111OSM    C8F11466   0.707  -0.778   5.153  0.4283  0.5274 -0.2637
  111OSM    H8F11467   0.691  -0.846   5.240 -0.8173  0.3857 -0.5862
  111OSM    H8G11468   0.804  -0.812   5.111  2.1249  0.9114  3.0001
  111OSM    C9F11469   0.583  -0.798   5.075  0.4087 -0.9015 -0.1851
  111OSM    H9F11470   0.492  -0.806   5.137  1.2729 -2.5068  0.9260
  111OSM   C10F11471   0.564  -0.825   4.943  0.5542  0.5906 -0.1648
  111OSM   H10F11472   0.462  -0.818   4.902  0.0127 -0.1417  1.0161
  111OSM   C11F11473   0.673  -0.834   4.842 -0.2689  0.1295  0.0537
  111OSM   H11F11474   0.665  -0.917   4.769  1.3840 -0.0938  0.0858
  111OSM   H11G11475   0.767  -0.854   4.898 -1.4581 -1.2880  1.6670
  111OSM   C12F11476   0.701  -0.702   4.770  0.0432 -0.3776  0.1869
  111OSM   H12F11477   0.786  -0.724   4.702 -0.5589  1.9309 -1.4203
  111OSM   H12G11478   0.724  -0.626   4.847 -0.5527  0.2806 -0.2760
  111OSM   C13F11479   0.584  -0.643   4.688  0.3327 -0.1830  0.3662
  111OSM   H13F11480   0.618  -0.553   4.632 -1.4014 -0.5513 -1.3815
  111OSM   H13G11481   0.516  -0.602   4.766  0.6201 -1.0159  1.0675
  111OSM   C14F11482   0.520  -0.740   4.591  0.9539  0.1876  0.3529
  111OSM   H14F11483   0.461  -0.679   4.519  3.2226  0.1543 -1.6862
  111OSM   H14G11484   0.456  -0.823   4.627  0.8023  0.1955  0.1068
  111OSM   C15F11485   0.618  -0.793   4.478  0.5978  0.2497 -0.2787
  111OSM   H15F11486   0.687  -0.857   4.538  0.5919 -0.5354 -1.0784
  111OSM   H15G11487   0.671  -0.707   4.433  1.8817 -1.0031 -1.2253
  111OSM   C16F11488   0.564  -0.880   4.366 -0.1406 -0.4396  0.0614
  111OSM   H16F11489   0.537  -0.974   4.418  1.0692  0.3585  2.2720
  111OSM   H16G11490   0.649  -0.899   4.297 -0.3848 -5.0412  0.7107
  111OSM   C17F11491   0.448  -0.809   4.289 -0.3283 -0.0191  0.1040
  111OSM   H17F11492   0.499  -0.712   4.267  0.1514  0.1348  1.7691
  111OSM   H17G11493   0.368  -0.795   4.365 -2.0589 -0.1039 -1.6018
  111OSM   C18F11494   0.383  -0.882   4.166 -0.3600  0.4748  0.6418
  111OSM   H18F11495   0.350  -0.981   4.204  2.2054 -1.5019 -1.8589
  111OSM   H18G11496   0.457  -0.901   4.085 -0.3031  3.9230 -0.2672
  111OSM   H18H11497   0.296  -0.823   4.131 -0.7635 -1.7907 -2.5863
  112OSM      N11498   4.585   3.337   6.289 -0.0603  0.1733  0.1351
  112OSM    C1511499   4.726   3.349   6.246  0.0591  0.2270 -0.2573
  112OSM   H15A11500   4.785   3.263   6.275  0.3855  0.6286  0.2935
  112OSM   H15B11501   4.772   3.427   6.304 -1.0857  0.9271 -0.2678
  112OSM   H15C11502   4.737   3.371   6.141 -3.6123 -1.7818 -1.2425
  112OSM    C1411503   4.539   3.203   6.247 -0.0913 -0.8472 -0.1305
  112OSM   H14A11504   4.506   3.197   6.145 -0.3080 -1.2558 -0.0391
  112OSM   H14B11505   4.461   3.163   6.311 -0.9118  1.3420  0.3398
  112OSM   H14C11506   4.624   3.140   6.270 -0.0040 -0.5620  0.3548
  112OSM    C1311507   4.590   3.341   6.437  0.4921  0.0590 -0.4309
  112OSM   H13A11508   4.670   3.281   6.477  0.7622  0.3048 -0.5952
  112OSM   H13B11509   4.494   3.326   6.484  0.7348 -0.2927 -0.0339
  112OSM   H13C11510   4.630   3.434   6.474  6.1730 -3.0094  2.5108
  112OSM    C1211511   4.495   3.450   6.236  0.2234 -0.0989 -0.1387
  112OSM   H12A11512   4.512   3.542   6.289  0.0246 -0.0084 -0.2282
  112OSM   H12B11513   4.391   3.427   6.252 -0.0232 -0.1848 -1.7009
  112OSM    C1111514   4.501   3.490   6.086  0.8040  0.1209  0.0468
  112OSM   H11A11515   4.420   3.557   6.050 -1.5838 -3.2010 -1.2144
  112OSM   H11B11516   4.476   3.389   6.047 -0.5308 -0.4542  2.2202
  112OSM      P11517   4.674   3.678   6.070  0.5437  0.3172 -0.0506
  112OSM    O1311518   4.613   3.731   6.198 -0.0063  0.3284  0.3368
  112OSM    O1411519   4.816   3.666   6.070 -0.1986 -0.0271  0.4541
  112OSM    O1111520   4.628   3.766   5.945 -0.1948 -0.4998 -0.3102
  112OSM    O1211521   4.629   3.534   6.050  0.3092  0.4101  0.4032
  112OSM    C1S11522   4.624   3.695   5.822  0.5047  0.2762  0.3812
  112OSM    H1S11523   4.556   3.608   5.821 -0.3995  0.9770  0.0509
  112OSM    H1T11524   4.724   3.676   5.776  0.1508 -1.2741  0.2189
  112OSM     NF11525   4.571   3.702   5.584  0.2149  0.2152  0.5979
  112OSM    HNF11526   4.651   3.732   5.533 -0.0242  0.1802  0.2021
  112OSM    C2S11527   4.549   3.777   5.708 -0.2157 -0.5793  0.5968
  112OSM    H2S11528   4.440   3.783   5.726  0.1307  0.7706  2.5805
  112OSM    C3S11529   4.599   3.922   5.704 -0.4075 -0.8070 -0.5536
  112OSM    H3S11530   4.707   3.922   5.678 -0.0266  0.0762  0.8849
  112OSM     O311531   4.589   3.992   5.833 -0.0894  0.5894  0.3766
  112OSM    HO311532   4.575   3.923   5.898  1.2534  0.4719  0.5744
  112OSM    C4S11533   4.546   4.016   5.595  0.6349 -0.3763 -0.1052
  112OSM    H4S11534   4.618   4.036   5.514  0.1684  1.0003 -0.2049
  112OSM    C5S11535   4.436   4.091   5.594  0.5372 -0.1266  0.1709
  112OSM    H5S11536   4.371   4.084   5.683 -2.0663 -1.5104 -1.6891
  112OSM    C6S11537   4.394   4.194   5.494  0.3295 -0.2994  0.4567
  112OSM    H6S11538   4.371   4.288   5.549  2.3693 -0.4137  1.6181
  112OSM    H6T11539   4.302   4.149   5.450 -0.4213  0.6976  0.9583
  112OSM    C7S11540   4.484   4.247   5.376 -0.2260  0.8009 -0.0184
  112OSM    H7S11541   4.520   4.160   5.318 -2.7074 -0.9310  0.8647
  112OSM    H7T11542   4.572   4.302   5.415  0.6247 -1.0935  0.8481
  112OSM    C8S11543   4.415   4.342   5.279 -0.0755 -0.4020  0.0125
  112OSM    H8S11544   4.491   4.391   5.215  0.2356  0.9407  1.3358
  112OSM    H8T11545   4.378   4.419   5.350  0.8242 -2.8186  3.4017
  112OSM    C9S11546   4.306   4.289   5.194  0.0521 -0.3370  0.4122
  112OSM    H9S11547   4.255   4.369   5.137 -2.8772 -0.6825  2.3200
  112OSM    H9T11548   4.238   4.245   5.271  2.4534 -0.3749  2.6563
  112OSM   C10S11549   4.341   4.181   5.092  0.0671  0.1625  0.1172
  112OSM   H10S11550   4.267   4.099   5.104  0.0734  0.2170  0.5671
  112OSM   H10T11551   4.446   4.148   5.109  1.4570  4.1974  0.6092
  112OSM   C11S11552   4.348   4.219   4.947  0.5017  0.4011  0.4845
  112OSM   H11S11553   4.242   4.225   4.914  1.1097  2.3528 -1.3276
  112OSM   H11T11554   4.394   4.147   4.876 -1.0178 -3.2912  2.9474
  112OSM   C12S11555   4.407   4.361   4.917  0.0077  0.1993 -0.2809
  112OSM   H12S11556   4.506   4.354   4.967  0.6595 -1.4160 -1.7203
  112OSM   H12T11557   4.351   4.449   4.957 -0.9802  0.2079 -1.6369
  112OSM   C13S11558   4.436   4.378   4.771  0.5993 -0.0074  0.0030
  112OSM   H13S11559   4.509   4.302   4.735  0.5010  0.2206 -0.6716
  112OSM   H13T11560   4.478   4.479   4.752  0.8652 -0.0947  0.1213
  112OSM   C14S11561   4.309   4.375   4.692 -0.8343 -1.1368  0.0537
  112OSM   H14S11562   4.233   4.432   4.750 -0.2850 -1.3047  0.9553
  112OSM   H14T11563   4.270   4.271   4.692 -1.3905 -0.9365 -0.9564
  112OSM   C15S11564   4.338   4.440   4.553 -0.5909 -0.0894 -0.3145
  112OSM   H15S11565   4.407   4.372   4.498  0.3080 -0.0693  0.7574
  112OSM   H15T11566   4.396   4.533   4.570 -1.3279 -0.1287  3.0178
  112OSM   C16S11567   4.214   4.475   4.460  0.1239  0.8027 -0.2603
  112OSM   H16S11568   4.243   4.522   4.364 -1.0579 -3.7444 -3.1303
  112OSM   H16T11569   4.142   4.542   4.512 -0.9897 -1.4338  1.2525
  112OSM   C17S11570   4.132   4.350   4.420 -0.1440  0.5462  0.5804
  112OSM   H17S11571   4.066   4.313   4.501 -1.8811 -0.0438 -1.0151
  112OSM   H17T11572   4.192   4.258   4.402 -0.0578  0.5210  0.9893
  112OSM   C18S11573   4.052   4.375   4.301  0.2249  0.2244  0.4181
  112OSM   H18S11574   3.987   4.286   4.288 -0.1901  0.7089 -0.9886
  112OSM   H18T11575   4.106   4.400   4.207 -2.3232  1.0695 -0.9290
  112OSM   H18U11576   3.986   4.464   4.306 -2.0732 -1.2200 -1.5632
  112OSM    C1F11577   4.513   3.579   5.548 -0.9344 -0.4135 -0.5030
  112OSM     OF11578   4.440   3.520   5.628  0.2648 -0.2677  0.3996
  112OSM    C2F11579   4.531   3.528   5.409 -0.3997 -0.6541  0.1956
  112OSM    H2F11580   4.552   3.620   5.350 -0.9679 -0.7924 -0.2327
  112OSM    H2G11581   4.435   3.480   5.379 -0.1761 -0.8698 -0.1808
  112OSM    C3F11582   4.647   3.434   5.406 -0.8583  0.5761  0.0053
  112OSM    H3F11583   4.631   3.338   5.459  0.6019  0.1213 -0.3330
  112OSM    H3G11584   4.741   3.479   5.444  0.5446 -2.9020  1.0584
  112OSM    C4F11585   4.670   3.364   5.263 -0.2715 -0.1654 -0.4701
  112OSM    H4F11586   4.654   3.438   5.183  1.3714 -1.0096 -1.6288
  112OSM    H4G11587   4.590   3.287   5.249 -1.9022  1.2596  0.6082
  112OSM    C5F11588   4.806   3.298   5.248 -0.0806 -0.4254  0.3525
  112OSM    H5F11589   4.812   3.212   5.318  0.0043  0.5563  1.6013
  112OSM    H5G11590   4.887   3.368   5.279 -0.5454  0.0457  0.5204
  112OSM    C6F11591   4.829   3.247   5.102 -0.6045 -1.0326 -0.3650
  112OSM    H6F11592   4.835   3.340   5.042  1.2790 -1.0857 -0.3103
  112OSM    H6G11593   4.745   3.193   5.053  0.4431 -2.1773 -0.9366
  112OSM    C7F11594   4.962   3.175   5.093  0.0738  0.4310  0.3595
  112OSM    H7F11595   4.948   3.069   5.124  2.5075 -0.2457 -0.5529
  112OSM    H7G11596   5.033   3.223   5.164  0.3953 -1.5396  1.4370
  112OSM    C8F11597   5.014   3.183   4.946  0.1894  0.0571  0.2161
  112OSM    H8F11598   5.021   3.286   4.904  2.6688  1.0742  2.8113
  112OSM    H8G11599   4.943   3.125   4.882  0.8539  0.6641 -1.1113
  112OSM    C9F11600   5.145   3.120   4.941 -0.3590 -0.3389 -0.5023
  112OSM    H9F11601   5.210   3.165   5.018 -1.8320 -0.8855  1.1277
  112OSM   C10F11602   5.194   3.015   4.863 -0.2189  0.4417 -0.7051
  112OSM   H10F11603   5.299   2.984   4.863  0.5489  2.8213 -0.4721
  112OSM   C11F11604   5.130   2.923   4.765 -0.3977 -0.3018 -0.4672
  112OSM   H11F11605   5.025   2.907   4.800 -0.3999 -0.2807 -0.4645
  112OSM   H11G11606   5.174   2.821   4.773 -0.6718 -0.4063 -0.2292
  112OSM   C12F11607   5.121   2.972   4.619  0.2854 -0.6001 -0.0408
  112OSM   H12F11608   5.082   3.076   4.616 -0.0070 -0.7308 -2.1012
  112OSM   H12G11609   5.042   2.913   4.568  0.1007  0.1450 -0.6362
  112OSM   C13F11610   5.245   2.966   4.534  0.1818  0.4242 -0.2567
  112OSM   H13F11611   5.297   2.875   4.571 -1.3186 -0.2624  0.2508
  112OSM   H13G11612   5.308   3.056   4.552  2.5014 -0.3401 -3.5199
  112OSM   C14F11613   5.224   2.968   4.385  0.1676 -1.0379 -0.4559
  112OSM   H14F11614   5.126   2.921   4.362 -1.0005  0.8475  0.4557
  112OSM   H14G11615   5.292   2.906   4.323  0.8336  0.2613 -1.0664
  112OSM   C15F11616   5.219   3.107   4.329  0.4255  0.2907  0.1896
  112OSM   H15F11617   5.312   3.164   4.352  1.7678 -0.2917 -3.0899
  112OSM   H15G11618   5.136   3.171   4.365  0.2885  2.4930 -3.5165
  112OSM   C16F11619   5.217   3.095   4.178 -0.7127 -0.2052  0.0474
  112OSM   H16F11620   5.126   3.036   4.153 -0.8474 -0.0992  0.2772
  112OSM   H16G11621   5.306   3.045   4.135  0.6691  0.7741  1.6344
  112OSM   C17F11622   5.212   3.232   4.105 -0.0743  0.3435  1.0788
  112OSM   H17F11623   5.305   3.249   4.046 -0.2767  0.5429  0.8149
  112OSM   H17G11624   5.223   3.315   4.178  1.7716 -0.1512  1.4272
  112OSM   C18F11625   5.078   3.246   4.030  0.1874 -0.1091 -0.1217
  112OSM   H18F11626   5.072   3.160   3.960 -0.5647  0.4774 -0.8013
  112OSM   H18G11627   5.063   3.343   3.979 -0.4328  0.5241  1.2209
  112OSM   H18H11628   5.005   3.243   4.114 -0.8174  0.5891 -0.9344
  113OSM      N11629   1.807   4.878   6.404 -0.1088  0.2923 -0.1307
  113OSM    C1511630   1.880   4.949   6.292  0.5865  0.1481 -0.0094
  113OSM   H15A11631   1.887   4.891   6.201  1.6748  1.4997 -0.8206
  113OSM   H15B11632   1.984   4.968   6.317  0.5006 -1.2541  1.6500
  113OSM   H15C11633   1.831   5.043   6.272 -1.2502 -0.7910 -0.1472
  113OSM    C1411634   1.888   4.758   6.464  0.1401  0.0998  0.2561
  113OSM   H14A11635   1.977   4.781   6.520  0.5006  0.8833 -0.6118
  113OSM   H14B11636   1.909   4.679   6.393 -0.0147  0.4576 -0.1914
  113OSM   H14C11637   1.823   4.717   6.540 -0.0055  0.3160  0.2482
  113OSM    C1311638   1.782   4.983   6.511  0.4885  0.2153 -0.0353
  113OSM   H13A11639   1.729   5.068   6.470  0.1009  0.4597  0.9387
  113OSM   H13B11640   1.879   5.002   6.556  0.8540  0.2317 -0.8050
  113OSM   H13C11641   1.716   4.940   6.584  0.4482 -3.6696 -2.1364
  113OSM    C1211642   1.671   4.823   6.357 -0.3640  0.0103  0.3529
  113OSM   H12A11643   1.621   4.785   6.445 -0.0249  0.6416  0.8277
  113OSM   H12B11644   1.694   4.747   6.285  1.5902 -1.2658  2.2159
  113OSM    C1111645   1.574   4.922   6.284 -0.6630  0.4399 -0.1877
  113OSM   H11A11646   1.529   4.858   6.206  1.2501 -0.5604 -0.5455
  113OSM   H11B11647   1.622   5.004   6.226  0.1929 -1.0641 -1.7055
  113OSM      P11648   1.387   5.089   6.348 -0.3218 -0.0908 -0.2829
  113OSM    O1311649   1.265   5.072   6.432  0.6686 -0.5820 -0.4722
  113OSM    O1411650   1.462   5.211   6.377  0.0952 -0.0128 -0.0278
  113OSM    O1111651   1.348   5.083   6.192  0.5493 -0.0644 -0.7223
  113OSM    O1211652   1.473   4.967   6.367  0.4521  1.0932 -0.0905
  113OSM    C1S11653   1.419   5.160   6.092  0.1723 -0.1078 -0.7616
  113OSM    H1S11654   1.529   5.164   6.104 -0.0884  4.5466  3.5246
  113OSM    H1T11655   1.385   5.264   6.109  1.1767 -0.1289  1.8721
  113OSM     NF11656   1.474   5.190   5.848 -0.2042  0.1430  0.1708
  113OSM    HNF11657   1.428   5.276   5.827 -0.3177 -0.2485 -1.2909
  113OSM    C2S11658   1.391   5.111   5.944 -0.6175 -0.1061 -0.1684
  113OSM    H2S11659   1.423   5.005   5.941 -0.2887  0.0206 -1.7166
  113OSM    C3S11660   1.232   5.094   5.920 -0.1608 -0.3135  0.7334
  113OSM    H3S11661   1.194   5.198   5.908  1.3954  0.2222  0.0906
  113OSM     O311662   1.159   5.029   6.021 -0.5692 -0.5714  0.3199
  113OSM    HO311663   1.219   5.018   6.095 -0.9310 -0.8512  0.5766
  113OSM    C4S11664   1.205   5.033   5.786  0.7380  0.1883 -0.3815
  113OSM    H4S11665   1.176   5.116   5.720 -0.6184  0.1613  0.1433
  113OSM    C5S11666   1.187   4.900   5.751  0.4574 -0.4800 -0.5298
  113OSM    H5S11667   1.195   4.816   5.822 -2.4510  0.1278  0.6733
  113OSM    C6S11668   1.147   4.868   5.607 -0.2963 -0.8075 -0.0584
  113OSM    H6S11669   1.223   4.803   5.559 -0.0428 -0.6102  0.0755
  113OSM    H6T11670   1.127   4.953   5.538  1.3765 -1.7814 -1.8225
  113OSM    C7S11671   1.016   4.783   5.613 -0.4628  0.4203 -0.2932
  113OSM    H7S11672   0.945   4.849   5.667 -0.8631 -0.8839  0.8357
  113OSM    H7T11673   1.025   4.692   5.677 -1.7400  0.7786  0.4320
  113OSM    C8S11674   0.944   4.747   5.484  0.0020 -0.8860 -0.3509
  113OSM    H8S11675   0.852   4.702   5.527 -0.0008 -0.7955 -0.2585
  113OSM    H8T11676   0.993   4.665   5.429 -1.4781 -1.8334 -0.3148
  113OSM    C9S11677   0.919   4.866   5.390  0.7107 -0.7171  0.1631
  113OSM    H9S11678   1.012   4.911   5.350 -0.6183  1.9203 -0.1687
  113OSM    H9T11679   0.870   4.943   5.453 -1.7525 -0.8058 -1.5210
  113OSM   C10S11680   0.832   4.840   5.266  0.4491  0.2578 -0.3358
  113OSM   H10S11681   0.775   4.935   5.254 -0.6240 -0.3028  0.1186
  113OSM   H10T11682   0.750   4.768   5.285  1.4378 -0.5357  1.0511
  113OSM   C11S11683   0.899   4.781   5.153 -0.7104  0.1416  0.6884
  113OSM   H11S11684   0.934   4.678   5.178  0.9622  0.0563 -1.7441
  113OSM   H11T11685   0.996   4.831   5.133  0.2384 -0.8707  2.4372
  113OSM   C12S11686   0.806   4.776   5.024 -0.5596 -0.2908 -0.3222
  113OSM   H12S11687   0.777   4.881   5.002 -1.4464 -0.1739  1.2032
  113OSM   H12T11688   0.710   4.735   5.063  0.4089 -2.0422  0.3408
  113OSM   C13S11689   0.865   4.716   4.896  1.0006 -0.2987  0.1062
  113OSM   H13S11690   0.891   4.608   4.906  0.3169 -0.4912 -0.1224
  113OSM   H13T11691   0.957   4.775   4.880  2.5392 -2.1667  1.5921
  113OSM   C14S11692   0.769   4.732   4.771  0.5850 -0.0667 -0.3592
  113OSM   H14S11693   0.732   4.837   4.771 -1.5097 -0.7119 -2.8268
  113OSM   H14T11694   0.683   4.664   4.793  3.1489 -3.1262  0.9724
  113OSM   C15S11695   0.838   4.689   4.642 -0.3077  0.3323 -0.0046
  113OSM   H15S11696   0.883   4.589   4.662 -0.8711  0.3829  1.6030
  113OSM   H15T11697   0.917   4.762   4.612  0.1757 -0.5271 -0.9219
  113OSM   C16S11698   0.741   4.674   4.526  0.2368 -0.0920 -0.5124
  113OSM   H16S11699   0.694   4.770   4.497 -1.6042 -0.9536 -0.5647
  113OSM   H16T11700   0.663   4.606   4.566  0.7824 -0.7803 -0.5956
  113OSM   C17S11701   0.806   4.599   4.408  0.4722 -0.4654 -0.0818
  113OSM   H17S11702   0.867   4.515   4.446  1.7906 -0.1252 -1.3461
  113OSM   H17T11703   0.880   4.670   4.366 -0.7665  1.4496  0.8330
  113OSM   C18S11704   0.713   4.558   4.295 -0.2213  0.2088 -0.4608
  113OSM   H18S11705   0.642   4.487   4.342 -1.5359  1.9306  0.2543
  113OSM   H18T11706   0.755   4.500   4.210 -1.2168 -0.9013 -0.2171
  113OSM   H18U11707   0.661   4.651   4.265  2.2293  1.6881 -0.4195
  113OSM    C1F11708   1.602   5.161   5.820 -0.5479 -0.6530  0.0696
  113OSM     OF11709   1.661   5.062   5.862 -0.5496 -0.0695  0.1430
  113OSM    C2F11710   1.671   5.256   5.727 -0.3287  0.4651  0.0045
  113OSM    H2F11711   1.643   5.360   5.754  0.3425  1.1517 -1.7905
  113OSM    H2G11712   1.655   5.242   5.618 -0.8663  1.7956 -0.0977
  113OSM    C3F11713   1.818   5.233   5.746  0.0031  0.4872  0.1297
  113OSM    H3F11714   1.857   5.130   5.730 -2.3916 -0.2984 -1.2197
  113OSM    H3G11715   1.845   5.255   5.851  0.7392 -2.0307  0.5365
  113OSM    C4F11716   1.895   5.329   5.654 -0.0757 -0.2895  0.1888
  113OSM    H4F11717   1.886   5.437   5.679  0.0847  0.0788 -1.2783
  113OSM    H4G11718   1.849   5.329   5.553 -0.4127  0.1038  0.3359
  113OSM    C5F11719   2.046   5.294   5.650  1.0599  0.3253 -0.2300
  113OSM    H5F11720   2.051   5.183   5.647 -1.0309  0.2038 -1.6252
  113OSM    H5G11721   2.095   5.318   5.747  1.8338  1.7341 -0.9375
  113OSM    C6F11722   2.114   5.371   5.527  0.3590 -0.0070 -0.0699
  113OSM    H6F11723   2.114   5.480   5.546  1.9807 -0.2999  1.8380
  113OSM    H6G11724   2.051   5.346   5.438 -0.3194  1.6157 -0.0675
  113OSM    C7F11725   2.249   5.324   5.504  0.0877 -0.0486 -0.6762
  113OSM    H7F11726   2.246   5.219   5.467  0.1581 -0.3196  0.0792
  113OSM    H7G11727   2.300   5.325   5.603 -1.2388 -0.0705  0.0357
  113OSM    C8F11728   2.323   5.418   5.405 -0.1438 -0.4925 -0.6505
  113OSM    H8F11729   2.334   5.509   5.468  0.3419  0.3535 -1.9326
  113OSM    H8G11730   2.252   5.447   5.325 -0.1401 -1.4363 -1.0127
  113OSM    C9F11731   2.462   5.372   5.363 -0.3219 -0.7179 -0.0050
  113OSM    H9F11732   2.512   5.325   5.449  0.2176  1.2284  0.8272
  113OSM   C10F11733   2.517   5.382   5.239 -0.2358  0.0625 -0.1882
  113OSM   H10F11734   2.620   5.345   5.224 -0.1831  0.6622 -1.5168
  113OSM   C11F11735   2.453   5.447   5.114  0.1398 -0.1815 -0.1092
  113OSM   H11F11736   2.527   5.515   5.067  0.4562  2.1792  3.4443
  113OSM   H11G11737   2.368   5.505   5.155  0.0882  0.6913 -1.3800
  113OSM   C12F11738   2.411   5.343   5.007 -0.1301 -0.2634 -0.2822
  113OSM   H12F11739   2.359   5.258   5.055  0.1916 -0.6714 -0.6530
  113OSM   H12G11740   2.506   5.312   4.960  1.5816  0.8904  2.1679
  113OSM   C13F11741   2.320   5.404   4.902 -0.5493  0.2796  0.0222
  113OSM   H13F11742   2.344   5.511   4.885 -0.7044  0.4536  0.8567
  113OSM   H13G11743   2.215   5.405   4.940 -0.5816 -1.8858  0.0876
  113OSM   C14F11744   2.306   5.334   4.767  0.3781 -0.7329 -0.0656
  113OSM   H14F11745   2.238   5.394   4.702  0.8211 -1.4415 -1.2258
  113OSM   H14G11746   2.266   5.232   4.786  1.7403 -1.0943  1.0296
  113OSM   C15F11747   2.442   5.320   4.683 -0.9910  0.5586 -0.0645
  113OSM   H15F11748   2.504   5.251   4.744 -0.0762 -0.4045 -1.9745
  113OSM   H15G11749   2.500   5.413   4.696  0.9582 -0.6743  0.4818
  113OSM   C16F11750   2.415   5.282   4.534 -0.5714  0.3674  0.6289
  113OSM   H16F11751   2.507   5.285   4.471 -1.4368  0.7972 -0.6393
  113OSM   H16G11752   2.354   5.363   4.489 -2.2651 -3.5866 -5.2879
  113OSM   C17F11753   2.354   5.143   4.509  0.0346  0.4217  0.4920
  113OSM   H17F11754   2.319   5.148   4.403 -1.5616 -0.8335  0.9067
  113OSM   H17G11755   2.274   5.133   4.586  0.4417  0.5426  0.9306
  113OSM   C18F11756   2.440   5.017   4.530  0.0707 -0.4482 -0.0379
  113OSM   H18F11757   2.490   5.010   4.628  0.2212 -2.2319 -0.2132
  113OSM   H18G11758   2.526   5.008   4.460  1.1364 -2.3195  1.4099
  113OSM   H18H11759   2.380   4.924   4.516  2.1102 -1.8612  0.2040
  114OSM      N11760   0.556   3.053   6.501 -0.5189  0.0988 -0.0092
  114OSM    C1511761   0.466   3.012   6.606 -0.2424  0.0907  0.2108
  114OSM   H15A11762   0.415   3.098   6.646 -1.3732 -1.3663  2.1049
  114OSM   H15B11763   0.521   2.968   6.688 -0.4624 -2.2032 -0.7903
  114OSM   H15C11764   0.391   2.943   6.570  1.1179 -2.5987  2.1348
  114OSM    C1411765   0.656   3.158   6.553 -0.2426  0.6821  0.0128
  114OSM   H14A11766   0.719   3.192   6.472 -0.8520 -0.9667 -1.2325
  114OSM   H14B11767   0.727   3.107   6.616 -1.0241 -3.7936 -2.2332
  114OSM   H14C11768   0.617   3.247   6.599 -0.1942 -1.3056  4.4070
  114OSM    C1311769   0.635   2.932   6.450  0.0247  0.0412  0.3219
  114OSM   H13A11770   0.681   2.948   6.353  0.4849  1.6703  0.7698
  114OSM   H13B11771   0.563   2.853   6.437 -0.0628 -0.0323  1.1735
  114OSM   H13C11772   0.716   2.905   6.517  0.6878  1.8311  0.3107
  114OSM    C1211773   0.475   3.115   6.382 -0.6368 -0.5379  0.5387
  114OSM   H12A11774   0.429   3.035   6.326 -0.6986 -0.1532  0.0286
  114OSM   H12B11775   0.550   3.151   6.314  1.0780 -1.3481  1.9315
  114OSM    C1111776   0.370   3.229   6.405 -0.5215  1.0269  0.2242
  114OSM   H11A11777   0.321   3.266   6.312  0.7472  1.0124 -0.4685
  114OSM   H11B11778   0.422   3.316   6.449  0.0839  0.2315  1.1317
  114OSM      P11779   0.161   3.090   6.451  0.3959 -0.2437  0.3695
  114OSM    O1311780   0.140   2.991   6.559  0.2535  0.3815  0.3129
  114OSM    O1411781   0.035   3.162   6.406 -0.1236 -0.2938  0.3790
  114OSM    O1111782   0.228   3.020   6.323 -0.1470 -0.4519  0.0184
  114OSM    O1211783   0.278   3.185   6.501  0.3711 -0.0625 -0.2461
  114OSM    C1S11784   0.139   2.936   6.252 -0.1298 -0.8780 -0.4044
  114OSM    H1S11785   0.055   2.999   6.217 -1.0808 -0.3753  2.5172
  114OSM    H1T11786   0.106   2.852   6.317  1.0437  0.0441  1.4620
  114OSM     NF11787   0.095   2.796   6.052 -0.0451  0.5205  0.0807
  114OSM    HNF11788   0.078   2.698   6.063  2.2587 -0.0711 -0.9650
  114OSM    C2S11789   0.198   2.854   6.134  0.0633  0.5089 -0.7094
  114OSM    H2S11790   0.249   2.933   6.074  0.5167 -0.6429 -1.8786
  114OSM    C3S11791   0.311   2.757   6.184  1.1710 -0.5931  0.4670
  114OSM    H3S11792   0.258   2.669   6.226 -1.7981 -0.5670 -2.7998
  114OSM     O311793   0.388   2.821   6.290  0.1928 -0.2356  0.5832
  114OSM    HO311794   0.321   2.884   6.319  1.2405  0.7017  1.0536
  114OSM    C4S11795   0.405   2.725   6.064 -0.2747  0.6111 -0.2616
  114OSM    H4S11796   0.386   2.620   6.036 -0.2328  0.1546  1.2901
  114OSM    C5S11797   0.488   2.804   5.994  0.3014  0.1492  0.2876
  114OSM    H5S11798   0.473   2.911   6.014  0.2091  0.2130 -0.1058
  114OSM    C6S11799   0.580   2.765   5.871  0.8067 -0.3686 -0.2789
  114OSM    H6S11800   0.540   2.675   5.821 -0.9594 -0.1661  0.6727
  114OSM    H6T11801   0.684   2.762   5.911  0.4841  1.2254  0.7882
  114OSM    C7S11802   0.571   2.884   5.773  0.8120  0.8119 -0.4314
  114OSM    H7S11803   0.618   2.978   5.806  1.2266 -0.4968  3.1787
  114OSM    H7T11804   0.462   2.903   5.762 -0.0223 -2.6463  0.3833
  114OSM    C8S11805   0.645   2.844   5.649 -0.6658 -0.0279 -0.2592
  114OSM    H8S11806   0.589   2.768   5.590  2.9863 -3.6727  0.5837
  114OSM    H8T11807   0.743   2.799   5.676  1.1453  1.5751 -3.5292
  114OSM    C9S11808   0.674   2.964   5.564 -0.5612 -0.1427  0.1328
  114OSM    H9S11809   0.750   3.023   5.619  0.3530 -0.4246 -0.7875
  114OSM    H9T11810   0.586   3.027   5.537  0.0481  0.2982 -0.8935
  114OSM   C10S11811   0.737   2.921   5.423 -0.1778 -0.1506  0.2190
  114OSM   H10S11812   0.803   2.832   5.426 -1.0089 -0.7426  1.9504
  114OSM   H10T11813   0.803   3.004   5.387  0.8759 -1.2006 -0.3557
  114OSM   C11S11814   0.635   2.884   5.309 -0.2176 -0.7511 -0.7409
  114OSM   H11S11815   0.558   2.963   5.301  1.9988  1.5998 -0.0314
  114OSM   H11T11816   0.593   2.781   5.320 -0.0611 -0.8729 -1.2412
  114OSM   C12S11817   0.704   2.882   5.169  0.2284 -0.5668 -0.1174
  114OSM   H12S11818   0.803   2.832   5.180 -0.7168 -2.2704  1.1633
  114OSM   H12T11819   0.711   2.991   5.149 -0.9076  0.2726  3.4256
  114OSM   C13S11820   0.629   2.804   5.062 -0.1406  0.1641  0.5105
  114OSM   H13S11821   0.522   2.832   5.067 -0.2534 -0.3340  0.9520
  114OSM   H13T11822   0.624   2.695   5.082  0.2834 -0.3114 -1.7471
  114OSM   C14S11823   0.680   2.839   4.924 -0.2678  0.2685 -0.9775
  114OSM   H14S11824   0.790   2.823   4.921  0.0531  2.1726 -0.4802
  114OSM   H14T11825   0.657   2.943   4.894 -3.6188 -0.9226 -3.0569
  114OSM   C15S11826   0.614   2.754   4.815  0.7120 -0.4384 -0.6291
  114OSM   H15S11827   0.629   2.798   4.714 -1.3757 -1.2465 -1.3386
  114OSM   H15T11828   0.506   2.747   4.840  0.7565 -2.3503 -0.8206
  114OSM   C16S11829   0.671   2.610   4.805  0.7189  0.8069  0.5640
  114OSM   H16S11830   0.648   2.552   4.897  0.8884 -1.7239 -0.8952
  114OSM   H16T11831   0.780   2.610   4.784  0.5214  2.6494 -0.6790
  114OSM   C17S11832   0.607   2.528   4.689  0.5557 -0.5532  0.2756
  114OSM   H17S11833   0.496   2.521   4.692  0.4504  0.4671 -0.7385
  114OSM   H17T11834   0.636   2.422   4.707  1.4684 -0.4428 -0.4644
  114OSM   C18S11835   0.656   2.559   4.549  0.5069 -0.4091  0.4162
  114OSM   H18S11836   0.616   2.651   4.502  0.9230 -0.8076 -0.7455
  114OSM   H18T11837   0.620   2.477   4.483 -0.5050 -1.3129  2.0100
  114OSM   H18U11838   0.765   2.571   4.537  0.4589 -0.4410 -0.0578
  114OSM    C1F11839   0.006   2.877   5.997  0.1183 -0.1737  0.0141
  114OSM     OF11840   0.038   2.992   5.978 -0.6316 -0.3000  0.1465
  114OSM    C2F11841  -0.122   2.830   5.957 -0.0301 -0.5976  0.0096
  114OSM    H2F11842  -0.192   2.906   5.998  1.9585  1.5875 -0.4455
  114OSM    H2G11843  -0.150   2.731   5.997 -1.1187 -0.2266  0.2118
  114OSM    C3F11844  -0.130   2.827   5.800 -0.1524  0.0970 -0.7079
  114OSM    H3F11845  -0.051   2.761   5.759 -0.5775 -0.9729  0.1515
  114OSM    H3G11846  -0.126   2.932   5.764 -1.7968  0.3827 -0.1329
  114OSM    C4F11847  -0.256   2.761   5.748  0.4325  0.1779 -0.2443
  114OSM    H4F11848  -0.351   2.803   5.786  0.9152  0.2452  0.9397
  114OSM    H4G11849  -0.262   2.651   5.760  0.0118  0.2345  0.0920
  114OSM    C5F11850  -0.270   2.778   5.595 -0.3693 -0.3673  0.5130
  114OSM    H5F11851  -0.295   2.676   5.558  4.0223 -0.8636 -1.6634
  114OSM    H5G11852  -0.178   2.801   5.537 -1.7577  2.6315 -0.7001
  114OSM    C6F11853  -0.367   2.888   5.560 -0.6079  0.3093  0.0588
  114OSM    H6F11854  -0.332   2.979   5.612 -0.4696  0.1834  0.1840
  114OSM    H6G11855  -0.475   2.879   5.587 -0.4455  1.1413  1.0229
  114OSM    C7F11856  -0.361   2.919   5.405 -0.3361 -0.4386  0.8192
  114OSM    H7F11857  -0.253   2.931   5.387 -0.4088 -0.7952  0.1120
  114OSM    H7G11858  -0.419   3.011   5.384 -0.5915 -0.6774  0.4575
  114OSM    C8F11859  -0.417   2.801   5.315 -0.1146 -0.9830 -0.3126
  114OSM    H8F11860  -0.366   2.705   5.338  0.8249 -0.4031  0.1070
  114OSM    H8G11861  -0.392   2.836   5.213 -0.9865  1.2496  0.1866
  114OSM    C9F11862  -0.568   2.787   5.319  0.0761  0.3795  0.0980
  114OSM    H9F11863  -0.606   2.751   5.416 -1.8873 -0.2145 -0.8359
  114OSM   C10F11864  -0.655   2.814   5.227  0.6577  0.2579  0.0468
  114OSM   H10F11865  -0.758   2.787   5.255  0.3904 -1.9658 -2.6424
  114OSM   C11F11866  -0.642   2.865   5.083  0.6450  0.1511 -0.1116
  114OSM   H11F11867  -0.686   2.791   5.013 -0.4339  0.2895  0.4000
  114OSM   H11G11868  -0.540   2.893   5.051  0.6778 -0.6702 -0.7825
  114OSM   C12F11869  -0.724   2.995   5.062  0.2165 -0.4728 -0.7683
  114OSM   H12F11870  -0.694   3.085   5.120 -0.0011 -0.1341 -1.1717
  114OSM   H12G11871  -0.834   2.980   5.071  0.0976 -0.5502 -2.1691
  114OSM   C13F11872  -0.705   3.053   4.922 -0.0269  0.3844 -0.4028
  114OSM   H13F11873  -0.611   3.112   4.912 -0.7724  1.6992  0.0932
  114OSM   H13G11874  -0.778   3.134   4.901 -0.7766  0.2275  1.4767
  114OSM   C14F11875  -0.725   2.962   4.796 -0.0628 -0.1178  0.0171
  114OSM   H14F11876  -0.818   2.903   4.811 -0.3172 -0.6125 -2.9847
  114OSM   H14G11877  -0.645   2.885   4.794  0.0652  0.0194 -0.1640
  114OSM   C15F11878  -0.723   3.033   4.660  0.1318 -0.8667 -0.1141
  114OSM   H15F11879  -0.648   3.114   4.646 -0.5877  0.1618  1.6642
  114OSM   H15G11880  -0.824   3.076   4.648  0.5770 -0.1076 -1.3006
  114OSM   C16F11881  -0.707   2.939   4.538  0.1813  0.4573  0.3172
  114OSM   H16F11882  -0.735   3.002   4.450  0.6587 -1.0821 -0.9884
  114OSM   H16G11883  -0.786   2.861   4.538  0.9569 -0.3452  0.9821
  114OSM   C17F11884  -0.560   2.888   4.518  0.0990  0.0589 -0.6265
  114OSM   H17F11885  -0.543   2.820   4.604 -1.3935 -0.6260 -0.8441
  114OSM   H17G11886  -0.490   2.974   4.528  0.0641  0.1118 -0.8296
  114OSM   C18F11887  -0.533   2.819   4.375  0.1028 -0.1249 -0.2359
  114OSM   H18F11888  -0.424   2.804   4.363 -0.1194 -0.7178 -1.6790
  114OSM   H18G11889  -0.581   2.879   4.295 -2.2846  1.6713  2.3415
  114OSM   H18H11890  -0.595   2.726   4.376 -0.8117  0.3871  3.0824
  115OSM      N11891   0.314   5.228   6.638  0.1793  0.5598 -0.9142
  115OSM    C1511892   0.422   5.278   6.732  0.1413 -0.4649  0.3890
  115OSM   H15A11893   0.467   5.201   6.793  1.5801 -0.4266 -0.5646
  115OSM   H15B11894   0.381   5.357   6.794 -0.6854  0.4599 -1.2736
  115OSM   H15C11895   0.497   5.325   6.670  0.1738 -0.4835  0.4139
  115OSM    C1411896   0.381   5.140   6.538  0.3070 -0.5074  0.1211
  115OSM   H14A11897   0.448   5.195   6.474  1.7028 -1.2616  0.8734
  115OSM   H14B11898   0.312   5.086   6.475 -2.5995  1.5572  1.2766
  115OSM   H14C11899   0.439   5.063   6.588 -0.8303 -2.3105 -1.1916
  115OSM    C1311900   0.226   5.150   6.725 -0.7031  0.2465  0.0420
  115OSM   H13A11901   0.190   5.216   6.803  0.7689 -1.1206  2.0134
  115OSM   H13B11902   0.273   5.075   6.788 -1.8120  0.9656  1.7844
  115OSM   H13C11903   0.141   5.104   6.677 -0.3223 -2.6231  1.8148
  115OSM    C1211904   0.245   5.343   6.568 -0.6072  0.5108  0.3073
  115OSM   H12A11905   0.319   5.386   6.502 -2.0391 -0.1271 -1.8074
  115OSM   H12B11906   0.209   5.421   6.633 -3.4618  0.6326 -1.2585
  115OSM    C1111907   0.122   5.313   6.474 -0.4177  0.2098  0.1060
  115OSM   H11A11908   0.140   5.214   6.428  1.8724  0.4158  0.4267
  115OSM   H11B11909   0.113   5.393   6.396  0.2980  2.0039  1.7773
  115OSM      P11910  -0.118   5.220   6.499  0.3322  0.7013 -0.0273
  115OSM    O1311911  -0.118   5.098   6.584  0.6987  0.0186  0.2899
  115OSM    O1411912  -0.245   5.297   6.506  0.0375 -0.3826  0.4534
  115OSM    O1111913  -0.084   5.188   6.354 -0.5104  0.2634  0.7001
  115OSM    O1211914   0.004   5.309   6.551 -0.3596 -0.0777  0.1296
  115OSM    C1S11915  -0.181   5.110   6.284  0.6859  0.3814 -0.2139
  115OSM    H1S11916  -0.278   5.164   6.291  1.2868  1.2656  4.1985
  115OSM    H1T11917  -0.200   5.013   6.333  0.7407  0.1975 -0.5501
  115OSM     NF11918  -0.248   5.069   6.050 -0.3525 -0.1221 -0.4250
  115OSM    HNF11919  -0.285   4.976   6.050  0.8689 -0.6342  0.1101
  115OSM    C2S11920  -0.134   5.092   6.134 -0.1143 -0.4045 -0.0325
  115OSM    H2S11921  -0.085   5.185   6.098 -2.1730  0.2938 -1.1915
  115OSM    C3S11922  -0.041   4.974   6.132  0.6329  0.8731  0.7375
  115OSM    H3S11923  -0.101   4.881   6.142  0.9780  0.7628  1.9484
  115OSM     O311924   0.059   4.983   6.228  0.2275 -0.0696  0.3211
  115OSM    HO311925   0.035   5.061   6.278 -2.5073 -0.7822  0.2752
  115OSM    C4S11926   0.020   4.969   5.989 -0.2065  0.4527 -0.1571
  115OSM    H4S11927   0.117   5.019   5.978 -1.4821  2.6531 -2.3355
  115OSM    C5S11928  -0.027   4.912   5.880 -0.1375 -0.2078  0.3806
  115OSM    H5S11929  -0.131   4.876   5.890 -0.4513 -0.3508 -2.4721
  115OSM    C6S11930   0.052   4.920   5.745  1.0884  0.3513 -0.8424
  115OSM    H6S11931   0.008   4.853   5.669 -0.4586 -0.5701  0.7930
  115OSM    H6T11932   0.156   4.883   5.758 -0.2296 -3.9125 -0.9791
  115OSM    C7S11933   0.063   5.061   5.694 -0.3795  0.0634  0.4091
  115OSM    H7S11934   0.133   5.116   5.760  0.1548 -0.4321  0.2594
  115OSM    H7T11935  -0.032   5.118   5.679  1.0457  2.1933 -1.3424
  115OSM    C8S11936   0.133   5.088   5.559  0.9577 -0.3657  0.8737
  115OSM    H8S11937   0.085   5.042   5.470  0.9327  1.6750 -0.2348
  115OSM    H8T11938   0.233   5.043   5.573  1.2691  0.3003  0.8634
  115OSM    C9S11939   0.153   5.235   5.525  0.1815 -0.5348 -0.2512
  115OSM    H9S11940   0.217   5.241   5.434 -1.2330 -0.5941 -1.2777
  115OSM    H9T11941   0.209   5.274   5.613  1.6937 -1.2078 -0.8779
  115OSM   C10S11942   0.027   5.315   5.502 -1.1529 -0.3515 -0.5070
  115OSM   H10S11943   0.056   5.422   5.502 -0.9604 -0.3923  0.5008
  115OSM   H10T11944  -0.022   5.308   5.602  0.8812  1.1709  0.6602
  115OSM   C11S11945  -0.058   5.290   5.381  0.1998 -0.5297 -0.3733
  115OSM   H11S11946  -0.150   5.353   5.380 -0.3501 -1.2762  0.8329
  115OSM   H11T11947  -0.092   5.185   5.390 -2.4147  0.2594 -0.1285
  115OSM   C12S11948   0.018   5.326   5.253 -0.1836  0.5556 -0.9028
  115OSM   H12S11949   0.116   5.275   5.261 -0.5776 -0.1522 -0.5505
  115OSM   H12T11950   0.040   5.435   5.254  1.4879  0.2626  1.8310
  115OSM   C13S11951  -0.057   5.286   5.125 -0.3673  1.0043  0.4767
  115OSM   H13S11952  -0.163   5.320   5.131 -1.1639 -1.2763  0.3690
  115OSM   H13T11953  -0.084   5.179   5.112 -0.8764  1.0475  1.0921
  115OSM   C14S11954  -0.006   5.348   4.995  0.5113 -0.0751  0.0555
  115OSM   H14S11955   0.094   5.315   4.959 -0.2029  1.4188 -3.7026
  115OSM   H14T11956   0.007   5.457   5.015 -0.3194  0.2626 -1.1343
  115OSM   C15S11957  -0.110   5.318   4.880 -0.7074 -0.4198  0.0763
  115OSM   H15S11958  -0.213   5.355   4.901 -1.1311  0.2148 -2.7210
  115OSM   H15T11959  -0.117   5.208   4.869  0.3534 -0.4267 -0.7320
  115OSM   C16S11960  -0.065   5.386   4.748  0.0478 -0.5885 -0.6153
  115OSM   H16S11961   0.029   5.336   4.720 -0.0393 -0.9874 -0.2199
  115OSM   H16T11962  -0.048   5.495   4.755  1.4872 -0.8614  1.0634
  115OSM   C17S11963  -0.156   5.350   4.627  0.8785  0.1592  0.5776
  115OSM   H17S11964  -0.153   5.240   4.611  0.2206  0.4804 -2.1332
  115OSM   H17T11965  -0.109   5.394   4.536  0.1728  0.4029  0.3301
  115OSM   C18S11966  -0.306   5.396   4.636 -0.4295  0.8041 -0.0927
  115OSM   H18S11967  -0.349   5.335   4.719  1.7712 -1.4832 -0.5094
  115OSM   H18T11968  -0.364   5.372   4.544 -0.3153  1.4348 -0.3366
  115OSM   H18U11969  -0.316   5.505   4.657 -1.0629  0.7353 -0.0190
  115OSM    C1F11970  -0.336   5.163   6.020  0.1909  0.0572  0.5803
  115OSM     OF11971  -0.314   5.285   6.029  0.4860  0.1670 -0.7310
  115OSM    C2F11972  -0.469   5.121   5.963 -0.3294  0.5638 -0.0094
  115OSM    H2F11973  -0.524   5.066   6.043  2.4399 -1.2870  0.7913
  115OSM    H2G11974  -0.445   5.053   5.878  0.5507  0.8864 -0.0221
  115OSM    C3F11975  -0.554   5.247   5.920  0.2480  0.2626  0.3829
  115OSM    H3F11976  -0.511   5.291   5.828 -3.3117  0.7653 -1.2223
  115OSM    H3G11977  -0.551   5.316   6.008 -2.5947  0.9192  0.0665
  115OSM    C4F11978  -0.701   5.219   5.901  0.0295  0.7926  0.2616
  115OSM    H4F11979  -0.758   5.314   5.897 -0.6431  0.3610 -0.6634
  115OSM    H4G11980  -0.736   5.163   5.991 -0.8089  1.7092  0.5243
  115OSM    C5F11981  -0.719   5.123   5.772 -0.0427 -0.6025  0.1329
  115OSM    H5F11982  -0.648   5.038   5.780 -0.7443 -1.4328 -1.7497
  115OSM    H5G11983  -0.677   5.193   5.698 -0.0482  0.2027  0.8773
  115OSM    C6F11984  -0.869   5.081   5.739 -0.3555 -0.0775 -0.7083
  115OSM    H6F11985  -0.935   5.170   5.744  0.2970  0.5255 -2.3521
  115OSM    H6G11986  -0.893   5.022   5.830  0.9923  0.5249  0.0735
  115OSM    C7F11987  -0.891   5.001   5.611 -0.0910 -1.0492 -0.4629
  115OSM    H7F11988  -0.998   4.973   5.603 -0.2859  0.1078 -2.4924
  115OSM    H7G11989  -0.829   4.909   5.614  0.5413 -0.7008 -1.9118
  115OSM    C8F11990  -0.847   5.076   5.483 -0.6542 -0.1155 -0.7742
  115OSM    H8F11991  -0.842   5.001   5.401 -0.0162 -0.7445 -0.1756
  115OSM    H8G11992  -0.745   5.118   5.500 -0.6449 -0.3152 -0.3266
  115OSM    C9F11993  -0.936   5.193   5.450 -0.9575  0.4817  0.3189
  115OSM    H9F11994  -0.992   5.235   5.534 -2.3724 -1.1600  0.2509
  115OSM   C10F11995  -0.955   5.243   5.329  0.2290 -0.4178  0.1435
  115OSM   H10F11996  -1.016   5.334   5.318  2.6410  0.9970 -4.3614
  115OSM   C11F11997  -0.890   5.199   5.202 -0.8630  0.4470 -0.2594
  115OSM   H11F11998  -0.895   5.091   5.178 -0.2392  1.0871 -3.7778
  115OSM   H11G11999  -0.782   5.223   5.204 -0.8210  0.2330  0.6965
  115OSM   C12F12000  -0.924   5.258   5.069  0.4152  0.0109 -0.1815
  115OSM   H12F12001  -0.932   5.369   5.074 -1.8289 -0.1171  0.0596
  115OSM   H12G12002  -1.025   5.224   5.041  0.7254 -1.1504  0.0298
  115OSM   C13F12003  -0.823   5.238   4.958 -0.3867 -0.5188  0.0102
  115OSM   H13F12004  -0.797   5.131   4.939  0.7405 -0.0689 -1.1224
  115OSM   H13G12005  -0.736   5.300   4.990 -1.7209  0.6158  1.6162
  115OSM   C14F12006  -0.873   5.302   4.831 -0.0058 -0.1772  0.2200
  115OSM   H14F12007  -0.881   5.411   4.854 -1.4679 -0.3529  0.6059
  115OSM   H14G12008  -0.972   5.261   4.806  0.0245  0.7988 -1.6876
  115OSM   C15F12009  -0.781   5.267   4.713  0.3494 -0.7676  0.6532
  115OSM   H15F12010  -0.771   5.156   4.712  0.5177 -0.7500  0.0822
  115OSM   H15G12011  -0.679   5.304   4.736  0.6549 -1.4243  0.3769
  115OSM   C16F12012  -0.820   5.335   4.582  0.1179 -0.1632  0.3445
  115OSM   H16F12013  -0.850   5.439   4.606 -0.0217 -0.4234  1.3073
  115OSM   H16G12014  -0.905   5.286   4.528 -1.5543  1.2791  1.5508
  115OSM   C17F12015  -0.698   5.347   4.485  0.5459 -0.1661  0.1689
  115OSM   H17F12016  -0.675   5.241   4.461 -0.0045 -0.6010  1.5131
  115OSM   H17G12017  -0.604   5.392   4.524  0.6661  1.6378 -1.9578
  115OSM   C18F12018  -0.739   5.409   4.352 -0.6259 -0.3032 -0.0164
  115OSM   H18F12019  -0.835   5.369   4.313 -1.1532 -0.8826  1.7949
  115OSM   H18G12020  -0.664   5.403   4.269 -2.3010 -1.6277 -1.5066
  115OSM   H18H12021  -0.748   5.519   4.366  2.0960 -0.1998  1.5352
  116OSM      N12022   1.727   3.772   6.371  0.1011 -0.3324 -0.8425
  116OSM    C1512023   1.793   3.714   6.492  0.5726 -0.1408  0.1056
  116OSM   H15A12024   1.882   3.660   6.462  1.4892  0.2133  2.0149
  116OSM   H15B12025   1.734   3.636   6.538  3.1496 -1.1597  1.9645
  116OSM   H15C12026   1.819   3.783   6.571 -1.1796  1.3469 -0.5588
  116OSM    C1412027   1.632   3.881   6.411  0.1471  0.5638  0.4856
  116OSM   H14A12028   1.582   3.923   6.325 -1.2389 -0.7386  0.6129
  116OSM   H14B12029   1.674   3.954   6.478 -1.0584 -0.5591  2.5572
  116OSM   H14C12030   1.550   3.833   6.462 -0.1609 -1.5186 -1.7640
  116OSM    C1312031   1.833   3.837   6.283 -0.7086  0.4862 -0.2818
  116OSM   H13A12032   1.881   3.759   6.226  0.4945  0.5884  0.5659
  116OSM   H13B12033   1.902   3.910   6.323 -0.3703  0.4833 -0.8428
  116OSM   H13C12034   1.786   3.892   6.202 -0.1334  1.3626 -0.0401
  116OSM    C1212035   1.650   3.676   6.293 -0.4757 -0.3685  0.3847
  116OSM   H12A12036   1.713   3.595   6.262  0.4159  0.4008  0.1508
  116OSM   H12B12037   1.616   3.731   6.206  0.6644  2.3382  1.5153
  116OSM    C1112038   1.523   3.610   6.350  0.2083  0.6928  0.2139
  116OSM   H11A12039   1.552   3.572   6.450  0.9650  0.9673  0.1033
  116OSM   H11B12040   1.502   3.518   6.291 -0.0446  0.2164  1.0335
  116OSM      P12041   1.327   3.730   6.228  0.3225  0.1319  0.0407
  116OSM    O1312042   1.192   3.692   6.255  0.1814  0.1205 -0.1960
  116OSM    O1412043   1.348   3.872   6.201 -0.2794 -0.0909  0.1840
  116OSM    O1112044   1.387   3.644   6.110  0.9309 -0.1959 -0.3508
  116OSM    O1212045   1.412   3.698   6.356 -0.5815  0.8647 -0.4231
  116OSM    C1S12046   1.338   3.686   5.979  0.6897 -0.8063 -0.1411
  116OSM    H1S12047   1.341   3.796   5.965  1.3402 -0.9208 -0.9359
  116OSM    H1T12048   1.236   3.640   5.976  1.2087 -1.9362 -1.6057
  116OSM     NF12049   1.408   3.686   5.744  0.3162  0.1119 -0.2367
  116OSM    HNF12050   1.392   3.616   5.674  2.9289 -2.2561  1.3027
  116OSM    C2S12051   1.431   3.626   5.878 -0.1956  0.0149  0.4490
  116OSM    H2S12052   1.533   3.654   5.911 -0.2220 -0.1021  0.6358
  116OSM    C3S12053   1.419   3.470   5.882  0.0696 -0.1008 -0.7283
  116OSM    H3S12054   1.314   3.448   5.854 -0.2869  1.2742 -0.5149
  116OSM     O312055   1.442   3.421   6.015  0.0150  0.5427  0.1267
  116OSM    HO312056   1.420   3.496   6.071  1.3528  2.0488 -1.2279
  116OSM    C4S12057   1.514   3.399   5.783 -0.3500 -0.4801  0.0046
  116OSM    H4S12058   1.454   3.344   5.709  0.1133  0.3433 -1.0101
  116OSM    C5S12059   1.650   3.382   5.779 -0.7091  0.1386  0.0058
  116OSM    H5S12060   1.717   3.425   5.855  2.8682 -3.7229 -0.6142
  116OSM    C6S12061   1.726   3.306   5.671 -0.0367  0.3827 -0.4059
  116OSM    H6S12062   1.656   3.283   5.587  1.5757  1.5558 -2.1573
  116OSM    H6T12063   1.772   3.212   5.709 -1.5662 -0.6893 -1.0966
  116OSM    C7S12064   1.837   3.388   5.607  0.7386 -0.2772  0.2671
  116OSM    H7S12065   1.907   3.420   5.687  0.6511  0.8492 -0.0957
  116OSM    H7T12066   1.781   3.465   5.551  0.4037 -1.5203 -1.1817
  116OSM    C8S12067   1.917   3.322   5.496  0.3861  0.0930 -0.4203
  116OSM    H8S12068   1.935   3.216   5.525  1.4368  0.0116 -1.2868
  116OSM    H8T12069   2.008   3.385   5.486  0.8484 -0.4515  0.2428
  116OSM    C9S12070   1.839   3.322   5.365  0.3804 -0.1039 -0.6712
  116OSM    H9S12071   1.801   3.425   5.346  0.9566 -0.0423 -1.5402
  116OSM    H9T12072   1.741   3.271   5.381 -0.2822  0.6569 -2.0841
  116OSM   C10S12073   1.926   3.267   5.251 -0.1856 -0.4346  0.2202
  116OSM   H10S12074   1.915   3.158   5.238  0.1073 -0.4552  0.1107
  116OSM   H10T12075   2.033   3.288   5.273 -0.2581 -0.8218  0.9444
  116OSM   C11S12076   1.901   3.344   5.117  0.2547 -0.0160  0.1913
  116OSM   H11S12077   1.933   3.450   5.128 -0.5176  0.1784  0.6061
  116OSM   H11T12078   1.793   3.336   5.093  0.3560  0.6595 -0.5139
  116OSM   C12S12079   1.956   3.262   4.998  0.2508  0.2536  0.4202
  116OSM   H12S12080   1.931   3.154   5.006  1.2849 -0.0525 -0.2964
  116OSM   H12T12081   2.065   3.273   5.015  0.8159  0.3066 -2.6472
  116OSM   C13S12082   1.904   3.320   4.863  0.7835 -0.1801 -0.1522
  116OSM   H13S12083   1.894   3.431   4.871  0.9770 -0.2379  1.0023
  116OSM   H13T12084   1.799   3.290   4.842  0.8034  0.9275 -2.1865
  116OSM   C14S12085   1.970   3.263   4.741  0.7282 -0.0539  0.2557
  116OSM   H14S12086   1.937   3.157   4.733  0.7428 -0.1056  0.8381
  116OSM   H14T12087   2.080   3.267   4.759  0.8429  1.6692 -0.6824
  116OSM   C15S12088   1.947   3.349   4.616 -0.8894  0.4098 -0.0801
  116OSM   H15S12089   1.979   3.454   4.636  0.7146  0.3007 -1.8028
  116OSM   H15T12090   1.842   3.363   4.583 -0.1457  1.0731 -2.3669
  116OSM   C16S12091   2.020   3.307   4.491 -0.0569  0.3737 -0.1567
  116OSM   H16S12092   1.998   3.200   4.471  0.9971  0.4422 -1.8289
  116OSM   H16T12093   2.128   3.324   4.509 -0.7392  2.1968  2.9390
  116OSM   C17S12094   1.971   3.395   4.378  0.2152 -0.5664 -0.3014
  116OSM   H17S12095   1.966   3.504   4.396 -0.4263 -0.8686  1.6185
  116OSM   H17T12096   1.862   3.374   4.379 -0.0664  0.7726  1.3088
  116OSM   C18S12097   2.039   3.354   4.247 -0.0097 -0.2727 -0.2734
  116OSM   H18S12098   2.051   3.244   4.238  0.8935 -0.1047 -1.3178
  116OSM   H18T12099   2.144   3.390   4.246 -0.2455  0.4185 -0.3622
  116OSM   H18U12100   1.983   3.395   4.161 -1.2314  0.4820  0.8562
  116OSM    C1F12101   1.424   3.811   5.711 -0.4820  0.1046  0.3590
  116OSM     OF12102   1.484   3.880   5.795  0.1680  0.2519 -0.1025
  116OSM    C2F12103   1.391   3.854   5.562 -0.8097 -0.0947  0.4600
  116OSM    H2F12104   1.352   3.759   5.520  1.4726 -1.3445  0.9919
  116OSM    H2G12105   1.491   3.873   5.519 -1.2695 -2.2111 -1.8039
  116OSM    C3F12106   1.310   3.981   5.540 -0.0762 -0.1164 -0.8546
  116OSM    H3F12107   1.361   4.061   5.598 -1.0237  0.1124 -0.2989
  116OSM    H3G12108   1.206   3.967   5.579 -0.2586  0.0424 -1.2813
  116OSM    C4F12109   1.300   4.020   5.398 -0.3934 -0.1678 -0.1882
  116OSM    H4F12110   1.400   4.045   5.355  0.5884  0.2456  2.1749
  116OSM    H4G12111   1.235   4.110   5.396  0.2497  0.3334  0.9007
  116OSM    C5F12112   1.228   3.921   5.303 -0.3110 -0.3227 -0.2087
  116OSM    H5F12113   1.128   3.885   5.338  0.3071 -1.1628  0.7367
  116OSM    H5G12114   1.281   3.825   5.285  2.4525  1.1484 -0.4323
  116OSM    C6F12115   1.193   3.977   5.164  0.0952  0.4101 -0.0515
  116OSM    H6F12116   1.287   4.017   5.123  1.3441 -0.2984  1.9854
  116OSM    H6G12117   1.108   4.049   5.168 -0.0505  0.2511 -0.2241
  116OSM    C7F12118   1.147   3.862   5.073 -0.0094 -0.0353 -0.1360
  116OSM    H7F12119   1.076   3.798   5.129  1.7099 -2.2533 -0.3424
  116OSM    H7G12120   1.233   3.794   5.054 -1.1575 -2.1617  1.7745
  116OSM    C8F12121   1.092   3.909   4.937 -0.3035  0.9087 -0.4925
  116OSM    H8F12122   1.164   3.989   4.908  0.8830  1.6929  3.8340
  116OSM    H8G12123   0.994   3.957   4.960 -0.9528  0.4534 -2.2205
  116OSM    C9F12124   1.076   3.800   4.835  0.1537  0.8706 -1.2548
  116OSM    H9F12125   0.993   3.730   4.852  1.6749 -0.5461  0.8233
  116OSM   C10F12126   1.148   3.791   4.722 -0.4920  0.2034 -0.4760
  116OSM   H10F12127   1.131   3.704   4.657  1.1207  0.3922 -1.2150
  116OSM   C11F12128   1.251   3.883   4.673 -0.1367  0.1110 -0.1526
  116OSM   H11F12129   1.343   3.825   4.655 -1.1487 -1.3217 -0.8603
  116OSM   H11G12130   1.279   3.966   4.742  1.3170 -1.0180  0.6504
  116OSM   C12F12131   1.220   3.943   4.533  0.2963 -0.3000  0.0613
  116OSM   H12F12132   1.313   4.003   4.522  0.9405 -1.5979 -2.0535
  116OSM   H12G12133   1.141   4.020   4.546  0.0039 -0.7576  1.1311
  116OSM   C13F12134   1.214   3.836   4.429  0.3252  0.3166 -0.0423
  116OSM   H13F12135   1.131   3.764   4.448 -1.3383  2.2324  0.3750
  116OSM   H13G12136   1.309   3.779   4.434  1.3842  2.1106  2.2149
  116OSM   C14F12137   1.217   3.880   4.277 -0.2177 -0.5446  0.2317
  116OSM   H14F12138   1.294   3.959   4.277  1.0940 -1.7854  1.0510
  116OSM   H14G12139   1.119   3.930   4.261 -0.1513 -0.5302 -0.1493
  116OSM   C15F12140   1.258   3.769   4.183 -0.5390  0.0714 -0.3858
  116OSM   H15F12141   1.203   3.674   4.198  4.2493 -3.0930 -0.6514
  116OSM   H15G12142   1.365   3.740   4.188 -0.7673 -0.6108  1.2242
  116OSM   C16F12143   1.233   3.809   4.037  0.9045 -0.1435  0.6522
  116OSM   H16F12144   1.256   3.720   3.975 -0.8158  1.0326 -1.8646
  116OSM   H16G12145   1.303   3.891   4.011  0.4084  0.1407  0.1637
  116OSM   C17F12146   1.088   3.849   3.997  0.0065 -0.2222 -0.1989
  116OSM   H17F12147   1.085   3.857   3.886  0.3801 -0.4868 -0.2287
  116OSM   H17G12148   1.071   3.947   4.046 -0.3023  0.0773 -0.8875
  116OSM   C18F12149   0.989   3.734   4.021 -0.5137 -0.2017 -0.1519
  116OSM   H18F12150   1.025   3.648   3.960 -1.8446 -1.5997  0.9505
  116OSM   H18G12151   0.890   3.769   3.986  0.4810  1.3883 -1.5295
  116OSM   H18H12152   0.997   3.704   4.128  1.0657 -0.2898 -0.2733
  117OSM      N12153   5.623   2.077   6.272  0.1183  0.3627  0.4440
  117OSM    C1512154   5.636   2.178   6.379  0.5677 -0.5146 -0.3711
  117OSM   H15A12155   5.733   2.188   6.426 -0.6334 -0.3744  2.1984
  117OSM   H15B12156   5.552   2.171   6.446  1.5772  1.3696  1.1984
  117OSM   H15C12157   5.629   2.277   6.336  0.2345  0.5273  1.9324
  117OSM    C1412158   5.699   2.120   6.153  0.2713 -0.2440  0.2793
  117OSM   H14A12159   5.679   2.058   6.066  1.0263  2.0618 -1.6464
  117OSM   H14B12160   5.806   2.116   6.168  0.0857 -2.3468  1.4659
  117OSM   H14C12161   5.678   2.223   6.129  1.1408 -0.3830 -1.2654
  117OSM    C1312162   5.677   1.943   6.317 -0.0978  0.1970  0.3640
  117OSM   H13A12163   5.637   1.870   6.249  2.6619  1.9117 -3.4755
  117OSM   H13B12164   5.646   1.922   6.419 -1.2581 -0.1814 -0.0618
  117OSM   H13C12165   5.785   1.943   6.317 -0.0666 -0.2399  2.0575
  117OSM    C1212166   5.475   2.061   6.238 -0.6590 -0.1648  0.2145
  117OSM   H12A12167   5.438   2.156   6.204  0.2929  0.3135  0.4978
  117OSM   H12B12168   5.415   2.060   6.327 -1.5020 -0.6717 -0.3431
  117OSM    C1112169   5.443   1.952   6.134  0.0033  0.4078 -0.6889
  117OSM   H11A12170   5.332   1.941   6.134  0.0982 -0.7982  0.6679
  117OSM   H11B12171   5.478   1.852   6.166 -0.4493 -0.2521 -2.1489
  117OSM      P12172   5.432   2.074   5.906 -0.1183  0.0877 -0.4317
  117OSM    O1312173   5.355   2.000   5.806 -0.1532  0.3719  0.3768
  117OSM    O1412174   5.357   2.185   5.972 -1.1325 -1.0340 -0.5256
  117OSM    O1112175   5.554   2.131   5.834 -0.6790  0.1945  0.6412
  117OSM    O1212176   5.501   1.976   6.008  0.8650  0.4267  0.3482
  117OSM    C1S12177   5.676   2.065   5.804  0.1152  0.0473  0.4801
  117OSM    H1S12178   5.688   1.976   5.869  1.5463 -1.2535 -1.4332
  117OSM    H1T12179   5.755   2.134   5.840  1.1449 -0.6410 -0.3783
  117OSM     NF12180   5.802   1.948   5.635 -0.6117  0.6344 -0.3621
  117OSM    HNF12181   5.886   1.997   5.614 -0.2345 -0.0658 -0.5016
  117OSM    C2S12182   5.690   2.036   5.650  0.4271  0.9016 -0.4344
  117OSM    H2S12183   5.601   1.970   5.641  3.6375 -4.1981  0.9490
  117OSM    C3S12184   5.690   2.167   5.566  0.3059  0.0811  0.4099
  117OSM    H3S12185   5.794   2.202   5.582  0.2949  0.1588  0.3155
  117OSM     O312186   5.611   2.277   5.615  0.1751  0.1835 -1.0082
  117OSM    HO312187   5.568   2.240   5.692  3.0558 -0.4179  0.4697
  117OSM    C4S12188   5.662   2.139   5.413 -0.2968  0.1870 -0.0453
  117OSM    H4S12189   5.754   2.138   5.352 -0.9122 -0.1364 -0.9851
  117OSM    C5S12190   5.545   2.119   5.350  0.2980  0.4377  0.0625
  117OSM    H5S12191   5.451   2.141   5.402  0.2842  0.5786 -0.0217
  117OSM    C6S12192   5.547   2.083   5.200  0.5846  0.2898  0.6865
  117OSM    H6S12193   5.481   2.161   5.156 -0.6129 -0.8958  0.3177
  117OSM    H6T12194   5.483   1.993   5.190 -3.7426  3.0530  1.0570
  117OSM    C7S12195   5.675   2.062   5.113  0.2113 -0.0649 -0.3921
  117OSM    H7S12196   5.736   1.984   5.165 -0.8537  0.5183  1.8653
  117OSM    H7T12197   5.745   2.148   5.109  2.7180 -1.9973 -0.4789
  117OSM    C8S12198   5.638   2.024   4.970  0.0778  0.1035 -0.2280
  117OSM    H8S12199   5.554   2.083   4.928  0.3025 -0.3854 -1.3992
  117OSM    H8T12200   5.593   1.923   4.967  0.4485 -0.0934  0.5137
  117OSM    C9S12201   5.755   2.017   4.865  0.2347 -0.4453  0.0368
  117OSM    H9S12202   5.835   1.947   4.896  0.5062 -1.3236 -2.4211
  117OSM    H9T12203   5.801   2.116   4.848 -0.0637 -0.3927 -0.4802
  117OSM   C10S12204   5.713   1.959   4.723  0.1323  0.5265  0.3209
  117OSM   H10S12205   5.619   2.002   4.682 -1.2109 -1.4896  1.0843
  117OSM   H10T12206   5.689   1.853   4.746  2.2524  0.1019  0.8327
  117OSM   C11S12207   5.830   1.956   4.620 -0.2884 -0.0346  0.0280
  117OSM   H11S12208   5.925   1.942   4.675 -0.0861  2.6439  0.5188
  117OSM   H11T12209   5.838   2.059   4.579 -1.4131 -1.1249 -3.2714
  117OSM   C12S12210   5.811   1.853   4.509 -0.5447  0.0720  0.2877
  117OSM   H12S12211   5.827   1.749   4.545 -0.8544 -0.6493 -1.5228
  117OSM   H12T12212   5.892   1.859   4.432 -2.0935  0.5784 -1.3573
  117OSM   C13S12213   5.671   1.864   4.441 -0.3125  0.3158  0.6116
  117OSM   H13S12214   5.602   1.854   4.527 -1.6035  0.9836 -0.3121
  117OSM   H13T12215   5.645   1.778   4.377 -0.1003  0.2352  0.6312
  117OSM   C14S12216   5.659   1.997   4.361  0.2567  0.3056 -0.5086
  117OSM   H14S12217   5.717   2.080   4.406 -0.2290  0.1330  0.4827
  117OSM   H14T12218   5.551   2.023   4.366  0.1249 -0.4338  2.0783
  117OSM   C15S12219   5.687   1.982   4.206  0.5896 -0.8005 -0.6202
  117OSM   H15S12220   5.629   1.904   4.152 -0.6906  0.7589 -1.6020
  117OSM   H15T12221   5.793   1.952   4.195  1.2131 -0.6762  3.5280
  117OSM   C16S12222   5.675   2.112   4.134 -0.0116  0.7695 -0.1311
  117OSM   H16S12223   5.732   2.115   4.039 -1.2120 -0.2340 -0.9143
  117OSM   H16T12224   5.736   2.186   4.190  2.2776 -0.9674 -0.2069
  117OSM   C17S12225   5.535   2.168   4.117 -0.2532  0.6845  0.3802
  117OSM   H17S12226   5.480   2.141   4.210 -0.9528 -1.5259 -0.5943
  117OSM   H17T12227   5.483   2.116   4.033 -1.7240  1.2542  0.8915
  117OSM   C18S12228   5.544   2.314   4.082  0.1980  0.1313  0.0226
  117OSM   H18S12229   5.578   2.330   3.977  3.2291  3.0727  1.2603
  117OSM   H18T12230   5.610   2.367   4.154 -0.6794  2.1980 -0.6136
  117OSM   H18U12231   5.442   2.358   4.085  0.3425  0.5431  3.6925
  117OSM    C1F12232   5.815   1.815   5.656  0.3260 -0.4205 -0.0362
  117OSM     OF12233   5.734   1.761   5.726 -0.1983 -0.0544 -0.6629
  117OSM    C2F12234   5.923   1.740   5.592 -0.4978 -0.4720  0.2594
  117OSM    H2F12235   6.009   1.715   5.658  0.2330 -0.6488 -0.7370
  117OSM    H2G12236   5.966   1.802   5.511  2.9162 -1.9300  0.7913
  117OSM    C3F12237   5.877   1.604   5.534  0.1900 -0.3593  0.6134
  117OSM    H3F12238   5.821   1.541   5.606 -0.7478  0.7859  0.9090
  117OSM    H3G12239   5.975   1.558   5.507  0.5991  0.9209 -0.2025
  117OSM    C4F12240   5.774   1.597   5.419 -0.4190  0.0891  0.3231
  117OSM    H4F12241   5.671   1.623   5.454 -1.7064  2.2597 -4.3278
  117OSM    H4G12242   5.767   1.492   5.384 -0.4613  0.3136 -0.3401
  117OSM    C5F12243   5.805   1.678   5.291 -0.3613 -0.1817 -0.0730
  117OSM    H5F12244   5.914   1.679   5.271  0.1813 -1.0722  2.4392
  117OSM    H5G12245   5.777   1.783   5.315 -0.7868 -0.2559 -0.2390
  117OSM    C6F12246   5.726   1.636   5.164  0.0554  0.9811 -0.1228
  117OSM    H6F12247   5.620   1.667   5.173 -0.5915 -0.5562 -1.7209
  117OSM    H6G12248   5.728   1.525   5.172 -1.6039  0.9712  0.5237
  117OSM    C7F12249   5.794   1.671   5.034 -0.1220 -0.2639  0.4400
  117OSM    H7F12250   5.905   1.663   5.042  0.0954  0.4160 -1.3002
  117OSM    H7G12251   5.783   1.781   5.020  1.2527  0.0502  1.5460
  117OSM    C8F12252   5.742   1.605   4.903  0.8426 -0.5600  0.1215
  117OSM    H8F12253   5.781   1.658   4.813  0.2752  0.6258  0.5582
  117OSM    H8G12254   5.632   1.620   4.898  1.1697  2.8958  1.0888
  117OSM    C9F12255   5.793   1.462   4.896  0.0893 -0.0100 -0.8514
  117OSM    H9F12256   5.768   1.394   4.979  2.7182 -2.6515 -2.0212
  117OSM   C10F12257   5.836   1.398   4.790 -0.7114  0.5135  0.3961
  117OSM   H10F12258   5.849   1.289   4.794  1.6938  0.5592 -2.4403
  117OSM   C11F12259   5.865   1.452   4.651 -0.7269 -0.1251  0.1612
  117OSM   H11F12260   5.964   1.410   4.621 -0.3884  0.2693  0.7082
  117OSM   H11G12261   5.879   1.563   4.654  2.8681 -0.4414 -0.2136
  117OSM   C12F12262   5.764   1.403   4.541  0.1281  0.7924 -0.5647
  117OSM   H12F12263   5.665   1.429   4.583 -0.3975 -1.7517 -0.1183
  117OSM   H12G12264   5.753   1.293   4.547  0.7616  0.5626 -2.7562
  117OSM   C13F12265   5.804   1.451   4.408  0.0617  0.0785  0.9183
  117OSM   H13F12266   5.901   1.412   4.373  0.3821  2.4152 -1.0823
  117OSM   H13G12267   5.826   1.559   4.420 -0.7175  0.4384 -0.5713
  117OSM   C14F12268   5.707   1.435   4.290  0.0521 -0.2774 -0.3988
  117OSM   H14F12269   5.737   1.517   4.221  0.3950  0.3088  0.4417
  117OSM   H14G12270   5.601   1.450   4.321 -0.3622 -0.9116 -1.4486
  117OSM   C15F12271   5.722   1.296   4.222 -0.0822 -0.1114  0.6013
  117OSM   H15F12272   5.678   1.226   4.295 -2.4832  0.6069 -0.0613
  117OSM   H15G12273   5.832   1.286   4.208 -0.0666 -0.1923  0.7776
  117OSM   C16F12274   5.647   1.287   4.088  0.6710 -0.0951 -0.1409
  117OSM   H16F12275   5.702   1.337   4.006 -2.3497  1.8921 -1.1094
  117OSM   H16G12276   5.566   1.362   4.093  1.6229  0.9526  0.1387
  117OSM   C17F12277   5.609   1.150   4.034 -0.0517 -0.0822  0.8401
  117OSM   H17F12278   5.700   1.101   3.992  0.2558  1.6054 -0.5588
  117OSM   H17G12279   5.543   1.153   3.945  0.2365  2.0598  0.6452
  117OSM   C18F12280   5.547   1.053   4.146  0.0229 -0.2581  0.3849
  117OSM   H18F12281   5.611   1.059   4.237 -1.3829 -0.1905  1.4019
  117OSM   H18G12282   5.531   0.947   4.120  0.7826  0.1559 -1.9414
  117OSM   H18H12283   5.442   1.084   4.168 -0.9809 -2.7495 -0.5711
  118OSM      N12284   0.848   6.429   6.523 -0.0002  0.0293 -0.0255
  118OSM    C1512285   0.900   6.557   6.550 -0.0719 -0.7997  0.6094
  118OSM   H15A12286   0.838   6.643   6.531  0.3019 -0.8335 -0.8786
  118OSM   H15B12287   0.991   6.575   6.494 -0.1025  2.2700  1.4053
  118OSM   H15C12288   0.926   6.578   6.653  1.1306  1.2755 -0.0470
  118OSM    C1412289   0.746   6.401   6.628 -0.0343  0.0176  0.1721
  118OSM   H14A12290   0.774   6.410   6.732 -1.3867  1.9549  0.4382
  118OSM   H14B12291   0.708   6.300   6.628  3.6187 -1.5067  1.0844
  118OSM   H14C12292   0.656   6.460   6.612 -0.9967 -1.9270 -2.0387
  118OSM    C1312293   0.779   6.423   6.386  0.6442  0.1636 -0.5387
  118OSM   H13A12294   0.696   6.491   6.373 -0.7640 -1.6457 -1.2859
  118OSM   H13B12295   0.741   6.325   6.365 -0.5680  0.8150 -1.5208
  118OSM   H13C12296   0.860   6.440   6.316  1.8711 -1.2717  0.4649
  118OSM    C1212297   0.968   6.332   6.527  0.9514  0.1779 -0.4726
  118OSM   H12A12298   1.016   6.337   6.624  0.6668  0.1434 -0.3287
  118OSM   H12B12299   1.049   6.357   6.460  0.3463 -1.5991 -1.9309
  118OSM    C1112300   0.925   6.186   6.520 -0.0405  0.2453 -0.3313
  118OSM   H11A12301   0.847   6.161   6.594  0.2470 -2.5973 -0.8776
  118OSM   H11B12302   1.005   6.113   6.545 -0.9957 -1.1125 -1.0750
  118OSM      P12303   0.982   6.145   6.265  0.2700  0.3752  0.1010
  118OSM    O1312304   1.065   6.025   6.285 -0.2390  0.5938 -0.3484
  118OSM    O1412305   0.893   6.146   6.148 -0.2900 -0.1161  0.2082
  118OSM    O1112306   1.069   6.275   6.267 -0.2438 -0.5574  0.7159
  118OSM    O1212307   0.885   6.153   6.389 -0.1844  0.1719 -0.2996
  118OSM    C1S12308   1.185   6.307   6.185 -0.0570  0.0465 -0.7561
  118OSM    H1S12309   1.237   6.219   6.142 -0.4402 -0.8833  0.6345
  118OSM    H1T12310   1.273   6.347   6.239 -0.8904  2.7262 -1.1989
  118OSM     NF12311   1.258   6.399   5.959  0.1258 -0.7714  0.5537
  118OSM    HNF12312   1.316   6.479   5.946  0.2953  0.2159  5.4792
  118OSM    C2S12313   1.152   6.408   6.073  0.2270 -0.1270 -0.2943
  118OSM    H2S12314   1.059   6.384   6.018 -0.4222  1.4184  0.0799
  118OSM    C3S12315   1.135   6.550   6.133 -0.5164 -0.0119  0.5071
  118OSM    H3S12316   1.239   6.569   6.166 -0.0721  0.0589 -0.8421
  118OSM     O312317   1.034   6.553   6.237  0.1725 -0.7527 -0.2876
  118OSM    HO312318   1.036   6.462   6.266 -1.9516 -0.7943 -0.1182
  118OSM    C4S12319   1.103   6.653   6.029  0.0187  0.1991 -0.1609
  118OSM    H4S12320   1.013   6.640   5.967  0.9952  3.1671 -2.4560
  118OSM    C5S12321   1.179   6.761   6.011 -0.0848  0.7630 -0.2921
  118OSM    H5S12322   1.274   6.761   6.067  0.0171  0.6349 -0.4647
  118OSM    C6S12323   1.147   6.855   5.897  0.4478 -0.1834 -0.6981
  118OSM    H6S12324   1.208   6.946   5.912 -3.6067  2.5226  1.1472
  118OSM    H6T12325   1.045   6.891   5.920  1.0850  0.7762  0.7399
  118OSM    C7S12326   1.154   6.807   5.751  0.0979  0.1894 -0.0998
  118OSM    H7S12327   1.145   6.898   5.689  1.6109  1.7043  1.7820
  118OSM    H7T12328   1.061   6.752   5.728 -0.3862  0.8697  0.1982
  118OSM    C8S12329   1.276   6.721   5.710  0.3610 -0.0241  0.0507
  118OSM    H8S12330   1.265   6.623   5.761 -2.1463 -0.0399 -0.4041
  118OSM    H8T12331   1.369   6.762   5.756 -0.1730 -0.7031  1.8065
  118OSM    C9S12332   1.303   6.700   5.561  0.2503 -0.2245  0.0760
  118OSM    H9S12333   1.213   6.654   5.515 -0.0976  1.5501 -1.1366
  118OSM    H9T12334   1.386   6.628   5.546  0.7796  0.8679 -2.8378
  118OSM   C10S12335   1.328   6.838   5.497 -0.6819  0.7812 -0.1675
  118OSM   H10S12336   1.393   6.904   5.557 -1.1822  0.8396  0.3196
  118OSM   H10T12337   1.238   6.903   5.504 -0.2474  1.3718  0.0067
  118OSM   C11S12338   1.395   6.823   5.363  0.1529  0.6019  1.3797
  118OSM   H11S12339   1.477   6.748   5.367  0.8040  1.1674 -0.2945
  118OSM   H11T12340   1.431   6.924   5.337 -1.2235  0.4658 -1.5390
  118OSM   C12S12341   1.288   6.790   5.255 -0.2371 -0.6074  0.3916
  118OSM   H12S12342   1.206   6.864   5.264 -0.8289 -1.3797  1.4979
  118OSM   H12T12343   1.238   6.693   5.273  0.1402 -0.8324  0.2380
  118OSM   C13S12344   1.341   6.800   5.113 -0.3197 -0.3486  0.1227
  118OSM   H13S12345   1.438   6.747   5.099 -1.1506 -1.8248 -0.3424
  118OSM   H13T12346   1.357   6.906   5.085  2.0214 -0.8492 -0.7607
  118OSM   C14S12347   1.237   6.756   5.012  0.4234 -0.2435  0.3940
  118OSM   H14S12348   1.150   6.826   5.012 -0.5421 -1.4109 -0.0991
  118OSM   H14T12349   1.182   6.663   5.036  0.1348 -0.5698 -1.4166
  118OSM   C15S12350   1.297   6.743   4.861  0.0943  0.0513 -0.4028
  118OSM   H15S12351   1.348   6.644   4.859 -2.0680 -1.2056  1.1937
  118OSM   H15T12352   1.364   6.831   4.859  1.4535 -0.8720  1.3444
  118OSM   C16S12353   1.187   6.757   4.754 -0.2710  0.4433  0.4129
  118OSM   H16S12354   1.115   6.837   4.782  0.9290  1.1429  1.6551
  118OSM   H16T12355   1.128   6.664   4.738  1.6641 -0.9442  0.9680
  118OSM   C17S12356   1.254   6.790   4.626 -0.0516 -0.1378 -0.2833
  118OSM   H17S12357   1.336   6.718   4.606 -0.1178 -0.9200  1.9311
  118OSM   H17T12358   1.314   6.883   4.638  0.7347 -0.6111 -0.4701
  118OSM   C18S12359   1.166   6.789   4.512  0.2408  0.0294  0.1293
  118OSM   H18S12360   1.219   6.842   4.430  1.1970  0.2500  0.8758
  118OSM   H18T12361   1.070   6.844   4.521  0.7735  0.7901  1.4176
  118OSM   H18U12362   1.156   6.684   4.478  0.1630  0.2325 -0.5087
  118OSM    C1F12363   1.266   6.291   5.882 -0.4163  0.1061 -0.6026
  118OSM     OF12364   1.182   6.201   5.897  0.1029  0.0213  0.2769
  118OSM    C2F12365   1.373   6.302   5.777 -0.3095  0.2583 -0.3864
  118OSM    H2F12366   1.474   6.307   5.822 -0.8496  1.2184  0.7708
  118OSM    H2G12367   1.354   6.393   5.717 -1.6882  0.4654  0.3061
  118OSM    C3F12368   1.381   6.186   5.675 -0.5200 -0.0153 -0.0662
  118OSM    H3F12369   1.278   6.156   5.646 -0.6035  0.7632 -0.5984
  118OSM    H3G12370   1.447   6.103   5.708 -0.5456 -0.4428 -1.0454
  118OSM    C4F12371   1.456   6.231   5.554 -1.1158  0.2280  0.3142
  118OSM    H4F12372   1.552   6.275   5.588 -0.4496 -0.7718 -0.2372
  118OSM    H4G12373   1.397   6.300   5.490 -1.6589 -1.5437 -1.2104
  118OSM    C5F12374   1.500   6.113   5.462  0.6218 -0.0413 -0.1951
  118OSM    H5F12375   1.417   6.069   5.402  2.1520 -2.2146 -0.8473
  118OSM    H5G12376   1.566   6.041   5.514 -0.7568 -1.2093 -0.0000
  118OSM    C6F12377   1.586   6.168   5.352 -0.2974 -0.6341  0.2328
  118OSM    H6F12378   1.663   6.233   5.399  0.1752 -2.2818  1.8583
  118OSM    H6G12379   1.528   6.228   5.280  1.9467 -1.2681 -2.3036
  118OSM    C7F12380   1.659   6.062   5.269  0.4016  0.1322 -0.2753
  118OSM    H7F12381   1.696   5.979   5.334  0.2257 -0.1127 -0.4885
  118OSM    H7G12382   1.738   6.110   5.207 -0.5527  2.6537  0.3466
  118OSM    C8F12383   1.556   6.007   5.172 -0.2473 -0.2694  0.4519
  118OSM    H8F12384   1.513   6.084   5.105  2.1766  0.9145  0.1547
  118OSM    H8G12385   1.469   5.976   5.235 -1.8660  2.1561 -0.4665
  118OSM    C9F12386   1.617   5.892   5.099  0.4056 -0.0466  0.4240
  118OSM    H9F12387   1.583   5.802   5.153 -4.2239  0.9440 -0.4203
  118OSM   C10F12388   1.674   5.890   4.979  0.7550 -0.2672 -0.2721
  118OSM   H10F12389   1.720   5.795   4.947 -1.8945 -1.3546 -1.1219
  118OSM   C11F12390   1.698   6.006   4.887 -0.4415  0.0375 -0.2676
  118OSM   H11F12391   1.797   6.052   4.910  0.2510 -1.4329 -0.2022
  118OSM   H11G12392   1.615   6.079   4.893 -0.2004  0.4385 -1.4929
  118OSM   C12F12393   1.712   5.953   4.746  0.4858  0.3279  0.1710
  118OSM   H12F12394   1.786   5.871   4.732  1.4030  0.7670  2.1160
  118OSM   H12G12395   1.742   6.039   4.683  2.6176  0.2107  0.9457
  118OSM   C13F12396   1.574   5.907   4.697 -0.5862 -0.7247  0.3703
  118OSM   H13F12397   1.503   5.991   4.711 -0.9813 -1.3012  2.0988
  118OSM   H13G12398   1.532   5.822   4.754  1.5045 -0.1202  3.0247
  118OSM   C14F12399   1.588   5.859   4.552 -0.6323  0.0187 -0.1614
  118OSM   H14F12400   1.645   5.764   4.543 -3.4351 -1.5965 -2.5840
  118OSM   H14G12401   1.649   5.939   4.503 -1.5733 -0.3966 -2.1133
  118OSM   C15F12402   1.447   5.838   4.495 -0.3939  0.1432 -0.3056
  118OSM   H15F12403   1.399   5.937   4.506  1.3767  1.4339 -3.0795
  118OSM   H15G12404   1.384   5.760   4.542 -3.1560  3.0984  1.2826
  118OSM   C16F12405   1.447   5.820   4.341  0.6181 -0.1530  0.9054
  118OSM   H16F12406   1.466   5.915   4.286  0.1450 -0.5302  0.0715
  118OSM   H16G12407   1.345   5.787   4.313  0.0929 -1.0142  3.4758
  118OSM   C17F12408   1.554   5.727   4.293 -0.5125  0.7507  0.1971
  118OSM   H17F12409   1.571   5.641   4.361 -0.3356  0.9039  0.3478
  118OSM   H17G12410   1.646   5.789   4.299  0.4975 -0.4638 -1.7116
  118OSM   C18F12411   1.550   5.684   4.149 -0.0950 -0.1618  0.1131
  118OSM   H18F12412   1.477   5.601   4.140 -2.0807  1.2460  2.1353
  118OSM   H18G12413   1.646   5.656   4.101  0.0055 -0.9801  0.7702
  118OSM   H18H12414   1.506   5.764   4.085  0.8363 -0.8921 -1.4961
  119OSM      N12415   1.074   1.121   6.860  0.0656 -0.1159  0.0118
  119OSM    C1512416   1.175   1.081   6.751 -0.0111  0.2492  0.1845
  119OSM   H15A12417   1.144   1.131   6.660  1.2333 -1.4022 -1.2190
  119OSM   H15B12418   1.157   0.976   6.732  1.0164  0.0021  0.5077
  119OSM   H15C12419   1.277   1.092   6.783 -0.0772 -1.0684  0.9194
  119OSM    C1412420   1.110   1.050   6.987 -0.6207 -0.2059 -0.3112
  119OSM   H14A12421   1.097   0.943   6.981 -2.9032 -0.0063  0.1182
  119OSM   H14B12422   1.046   1.075   7.070 -0.9111 -1.8785 -0.0087
  119OSM   H14C12423   1.212   1.070   7.017 -0.8367 -0.8068  0.8517
  119OSM    C1312424   1.080   1.268   6.880 -0.3196 -0.2709 -0.2810
  119OSM   H13A12425   1.048   1.322   6.793 -1.9284  0.2122  0.5630
  119OSM   H13B12426   1.176   1.303   6.913  0.7622 -1.2294 -2.2225
  119OSM   H13C12427   1.010   1.302   6.955 -1.9333 -0.6157 -1.5714
  119OSM    C1212428   0.937   1.072   6.813 -0.2526 -0.4251 -0.1176
  119OSM   H12A12429   0.867   1.084   6.894 -0.2124  0.4921 -0.2095
  119OSM   H12B12430   0.946   0.968   6.783 -0.6841  0.1264 -2.3509
  119OSM    C1112431   0.878   1.142   6.690  0.1742 -0.2733  0.2602
  119OSM   H11A12432   0.872   1.251   6.708  0.2160 -0.3649  0.8691
  119OSM   H11B12433   0.772   1.111   6.678  0.2150 -1.7247  2.8527
  119OSM      P12434   0.917   0.979   6.493 -0.0564 -0.1263 -0.1064
  119OSM    O1312435   0.976   0.870   6.575  0.1531  0.4437  0.3451
  119OSM    O1412436   0.771   0.968   6.468  0.0883 -0.0521  0.1845
  119OSM    O1112437   1.008   0.995   6.364 -0.0305  0.4227  0.7922
  119OSM    O1212438   0.950   1.117   6.573  0.8606  0.6158 -0.6350
  119OSM    C1S12439   1.006   1.093   6.261  0.1644 -0.1828  0.0850
  119OSM    H1S12440   1.081   1.171   6.286  0.1836  0.5071 -1.8935
  119OSM    H1T12441   0.912   1.151   6.245  0.9227  0.6385 -1.6579
  119OSM     NF12442   1.033   1.152   6.028 -0.2772 -0.3972 -0.5060
  119OSM    HNF12443   0.950   1.166   5.975  0.6991 -1.3960 -2.4316
  119OSM    C2S12444   1.039   1.034   6.124 -0.1100 -0.2089  0.7091
  119OSM    H2S12445   1.144   0.998   6.129  0.3670  1.1502  1.2238
  119OSM    C3S12446   0.943   0.912   6.095  0.0141  0.7641  0.2616
  119OSM    H3S12447   0.836   0.938   6.081 -0.3531 -0.0662  1.4160
  119OSM     O312448   0.948   0.813   6.193 -0.2278  0.1351 -0.1196
  119OSM    HO312449   0.972   0.867   6.268 -0.1611 -0.6448  0.4326
  119OSM    C4S12450   0.985   0.846   5.962  0.4152 -0.2196  0.4419
  119OSM    H4S12451   1.088   0.810   5.970  0.2973 -0.6428  0.0809
  119OSM    C5S12452   0.930   0.866   5.841  0.0760 -0.1274  0.4318
  119OSM    H5S12453   0.844   0.934   5.844  1.5367  1.8004  1.4695
  119OSM    C6S12454   0.998   0.830   5.710  0.0890  0.1072 -0.7053
  119OSM    H6S12455   1.083   0.759   5.714  1.9068  2.0958 -1.6049
  119OSM    H6T12456   1.041   0.926   5.673  0.5568  0.8168  1.5131
  119OSM    C7S12457   0.898   0.768   5.610 -0.3104 -0.1345  0.6170
  119OSM    H7S12458   0.855   0.678   5.659 -1.7614 -0.1900 -0.6771
  119OSM    H7T12459   0.950   0.724   5.522 -2.3660  0.5178 -1.0046
  119OSM    C8S12460   0.803   0.872   5.546 -0.4108 -0.6858 -0.7413
  119OSM    H8S12461   0.726   0.898   5.622  1.1344  1.2483  0.2550
  119OSM    H8T12462   0.751   0.818   5.465 -1.9765  1.5905 -1.3424
  119OSM    C9S12463   0.873   0.997   5.478 -0.2684  0.8298 -0.0685
  119OSM    H9S12464   0.899   1.061   5.564  2.1406 -0.1264  0.0062
  119OSM    H9T12465   0.793   1.042   5.416 -1.3462  0.7925  1.2618
  119OSM   C10S12466   0.997   0.958   5.386  0.1371 -0.5350  0.8664
  119OSM   H10S12467   1.061   0.897   5.453  1.7234 -1.2330 -1.1923
  119OSM   H10T12468   1.042   1.049   5.342  0.4752 -0.1359  2.0031
  119OSM   C11S12469   0.951   0.881   5.260 -0.2936  0.3177 -0.0850
  119OSM   H11S12470   0.881   0.942   5.199 -0.9808  1.5086  1.8166
  119OSM   H11T12471   0.896   0.788   5.287  0.5490 -0.2439 -0.2635
  119OSM   C12S12472   1.073   0.855   5.169 -0.5383  0.4058  0.1351
  119OSM   H12S12473   1.154   0.803   5.225 -1.3410 -0.9661  0.0882
  119OSM   H12T12474   1.119   0.952   5.141 -0.8724  0.8934  1.2444
  119OSM   C13S12475   1.044   0.772   5.041 -0.5083 -0.2011 -0.3770
  119OSM   H13S12476   0.946   0.808   5.003 -0.2442 -0.2374 -1.0948
  119OSM   H13T12477   1.020   0.667   5.068  1.5618 -0.2806  1.4818
  119OSM   C14S12478   1.147   0.784   4.928  0.0906  0.1925  0.0658
  119OSM   H14S12479   1.151   0.685   4.878 -0.0770 -0.0259  0.4808
  119OSM   H14T12480   1.244   0.810   4.976  1.0724 -1.3552 -0.9797
  119OSM   C15S12481   1.123   0.904   4.835  0.1238  0.1992 -0.3522
  119OSM   H15S12482   1.206   0.977   4.825  0.4814 -0.2789 -0.8736
  119OSM   H15T12483   1.046   0.963   4.889 -0.0840 -0.7179  0.3835
  119OSM   C16S12484   1.082   0.868   4.694  0.4153 -0.3211 -0.1591
  119OSM   H16S12485   1.018   0.778   4.697  0.8357 -0.6029  0.8371
  119OSM   H16T12486   1.177   0.846   4.639  0.4308 -0.3521 -0.1194
  119OSM   C17S12487   1.015   0.995   4.621 -0.1801 -0.0335 -0.6796
  119OSM   H17S12488   1.054   1.086   4.672 -2.1484  0.2529  0.4088
  119OSM   H17T12489   0.908   0.988   4.647 -0.1985 -4.8976 -1.1613
  119OSM   C18S12490   1.032   0.993   4.468 -0.5604 -0.0712 -0.2124
  119OSM   H18S12491   0.986   1.084   4.425  0.9367  0.5138 -0.6447
  119OSM   H18T12492   1.003   0.897   4.420 -1.4836 -0.0298  0.2369
  119OSM   H18U12493   1.140   1.005   4.443 -0.2634 -1.0747  0.4815
  119OSM    C1F12494   1.122   1.242   6.011 -0.1440  0.3276 -0.1734
  119OSM     OF12495   1.224   1.231   6.069 -0.5841  0.3776  0.0773
  119OSM    C2F12496   1.096   1.351   5.913 -0.1445  0.7723 -0.6231
  119OSM    H2F12497   1.101   1.444   5.973  0.5966  1.1367 -1.2440
  119OSM    H2G12498   0.993   1.341   5.872 -0.7123 -0.5239  0.9900
  119OSM    C3F12499   1.206   1.352   5.798  0.8686 -1.0545 -1.0694
  119OSM    H3F12500   1.307   1.369   5.841 -0.0951  2.5318  0.1378
  119OSM    H3G12501   1.181   1.443   5.740  0.6909 -0.0114  0.5832
  119OSM    C4F12502   1.198   1.234   5.700 -0.2002 -0.5025 -0.1709
  119OSM    H4F12503   1.103   1.239   5.643 -1.0978  0.8799  1.3479
  119OSM    H4G12504   1.219   1.139   5.755  0.9011 -0.5981 -0.7386
  119OSM    C5F12505   1.314   1.250   5.613 -0.0680  0.5903  0.1556
  119OSM    H5F12506   1.411   1.216   5.655  0.2176  1.9496  0.6445
  119OSM    H5G12507   1.327   1.354   5.574 -2.7937  0.4459 -1.4428
  119OSM    C6F12508   1.296   1.174   5.476  0.2079 -0.0174  0.3054
  119OSM    H6F12509   1.197   1.201   5.434 -0.1997 -2.1808 -0.2410
  119OSM    H6G12510   1.286   1.065   5.492 -1.5057  0.2584  1.3808
  119OSM    C7F12511   1.399   1.200   5.373 -0.0525  0.4195 -0.3169
  119OSM    H7F12512   1.497   1.169   5.415 -1.5602 -0.7316  2.6588
  119OSM    H7G12513   1.406   1.310   5.357  0.6764  0.1163 -2.2573
  119OSM    C8F12514   1.381   1.134   5.235 -0.0137 -0.1812 -0.5839
  119OSM    H8F12515   1.349   1.031   5.263  1.0116 -0.5005 -0.5106
  119OSM    H8G12516   1.476   1.121   5.178 -0.6003  0.7082 -1.7763
  119OSM    C9F12517   1.281   1.194   5.151 -0.5201 -0.0774  0.2872
  119OSM    H9F12518   1.184   1.208   5.202 -0.8061 -0.8548 -0.0252
  119OSM   C10F12519   1.300   1.214   5.018 -0.2657 -0.3365  0.1806
  119OSM   H10F12520   1.213   1.249   4.960 -0.7767  0.7302  1.5283
  119OSM   C11F12521   1.424   1.190   4.924 -0.1938 -0.2351 -0.1688
  119OSM   H11F12522   1.415   1.091   4.874  1.5484 -0.0577 -0.9186
  119OSM   H11G12523   1.525   1.186   4.970 -0.1871 -0.4017 -0.1966
  119OSM   C12F12524   1.447   1.280   4.804  0.1713 -0.2854 -0.3022
  119OSM   H12F12525   1.451   1.383   4.845  1.4259 -0.5585  0.3134
  119OSM   H12G12526   1.362   1.262   4.736 -0.3851 -0.5305  0.4499
  119OSM   C13F12527   1.579   1.254   4.722 -0.2700 -0.3968  0.8872
  119OSM   H13F12528   1.579   1.149   4.686 -1.0093 -0.5742  1.3794
  119OSM   H13G12529   1.671   1.275   4.780  0.9563  0.5355 -1.2847
  119OSM   C14F12530   1.555   1.326   4.584 -0.2512  0.9192 -0.1992
  119OSM   H14F12531   1.538   1.435   4.602 -2.4143  0.6308 -0.2547
  119OSM   H14G12532   1.467   1.278   4.538 -0.1542  0.3636  0.1899
  119OSM   C15F12533   1.681   1.308   4.494 -0.3655  0.0914  0.0812
  119OSM   H15F12534   1.694   1.199   4.473 -0.5229 -0.2619  1.6474
  119OSM   H15G12535   1.768   1.323   4.561 -0.0916 -0.0352 -0.2473
  119OSM   C16F12536   1.687   1.402   4.369 -0.2054 -1.0097  0.5609
  119OSM   H16F12537   1.684   1.504   4.412 -0.1826 -1.1067  0.7911
  119OSM   H16G12538   1.596   1.397   4.305  0.7832  2.1156 -1.3277
  119OSM   C17F12539   1.810   1.387   4.275 -0.2790 -0.1945  0.4573
  119OSM   H17F12540   1.803   1.283   4.236  1.0533 -0.7163  1.5029
  119OSM   H17G12541   1.908   1.398   4.327  2.1608 -0.5542 -3.6276
  119OSM   C18F12542   1.812   1.482   4.158 -0.5087  0.5237  0.1379
  119OSM   H18F12543   1.887   1.455   4.081 -3.4575  1.0988 -3.1784
  119OSM   H18G12544   1.831   1.589   4.182 -1.3123  1.0931 -1.5661
  119OSM   H18H12545   1.715   1.474   4.104  0.0139 -0.2484 -0.7198
  120OSM      N12546   4.259   2.694   6.758  0.6305  0.6366  0.4794
  120OSM    C1512547   4.164   2.774   6.834 -0.1226 -0.0573  0.3365
  120OSM   H15A12548   4.059   2.758   6.812  0.7327 -2.9784 -2.4429
  120OSM   H15B12549   4.193   2.876   6.816  1.7406 -0.4143  1.1143
  120OSM   H15C12550   4.182   2.761   6.939  3.1460  0.1068 -0.1032
  120OSM    C1412551   4.399   2.721   6.808  0.5569  0.1718 -0.2972
  120OSM   H14A12552   4.433   2.823   6.800  1.8639 -0.3335 -1.7496
  120OSM   H14B12553   4.469   2.663   6.749  0.1805 -0.8998  0.2834
  120OSM   H14C12554   4.406   2.694   6.912 -1.1879  1.2180  0.1396
  120OSM    C1312555   4.223   2.552   6.791 -0.1902  0.6388  0.0225
  120OSM   H13A12556   4.243   2.527   6.894 -0.8339 -0.2357 -0.0527
  120OSM   H13B12557   4.273   2.487   6.721 -2.8935  0.3312 -1.7624
  120OSM   H13C12558   4.118   2.538   6.776  0.1481 -3.8196  0.5077
  120OSM    C1212559   4.258   2.727   6.610  0.3497 -1.1987  0.1896
  120OSM   H12A12560   4.279   2.831   6.587 -1.9643 -0.8298 -0.5699
  120OSM   H12B12561   4.155   2.727   6.577 -0.5940  1.4022  2.7348
  120OSM    C1112562   4.345   2.647   6.524  0.2239  0.6860 -0.2192
  120OSM   H11A12563   4.310   2.647   6.418  1.2084 -0.3241 -0.5563
  120OSM   H11B12564   4.348   2.538   6.546 -2.7790  0.1950 -1.6423
  120OSM      P12565   4.514   2.837   6.444  0.0252  0.1782 -0.3239
  120OSM    O1312566   4.434   2.947   6.494  0.4398 -0.7546  0.0961
  120OSM    O1412567   4.662   2.840   6.449 -0.4384 -0.5229 -0.0107
  120OSM    O1112568   4.453   2.822   6.302  0.2096  0.7937  0.2474
  120OSM    O1212569   4.476   2.704   6.519  0.4838 -0.6285  0.0941
  120OSM    C1S12570   4.491   2.710   6.217 -0.4853  0.3396  0.1258
  120OSM    H1S12571   4.473   2.613   6.267 -0.7367  0.6174  0.5854
  120OSM    H1T12572   4.600   2.709   6.196 -0.5909 -1.7807 -0.4967
  120OSM     NF12573   4.425   2.587   6.010  0.0143  0.0814 -0.2881
  120OSM    HNF12574   4.496   2.583   5.941  1.6174  0.9167  1.2338
  120OSM    C2S12575   4.408   2.713   6.088  0.8553  0.0963  0.8631
  120OSM    H2S12576   4.305   2.731   6.126  1.0522 -0.5212  1.7345
  120OSM    C3S12577   4.445   2.835   5.997 -0.0323 -0.2016 -0.3361
  120OSM    H3S12578   4.546   2.815   5.956  0.5098  2.0292 -0.2259
  120OSM     O312579   4.441   2.964   6.069  0.3410  0.3227 -0.2755
  120OSM    HO312580   4.436   2.937   6.161  0.6569  0.1909 -0.2938
  120OSM    C4S12581   4.342   2.837   5.881  0.0367 -0.4189 -0.7093
  120OSM    H4S12582   4.387   2.810   5.784 -0.1198  1.4526 -1.3577
  120OSM    C5S12583   4.213   2.882   5.871 -1.0767  0.3829  0.3749
  120OSM    H5S12584   4.156   2.920   5.957  0.6075  2.2965  0.7241
  120OSM    C6S12585   4.138   2.887   5.735 -0.3095  0.1958 -0.3625
  120OSM    H6S12586   4.118   2.982   5.680 -2.2780  0.7870  1.2512
  120OSM    H6T12587   4.035   2.850   5.754 -0.5977  0.7943 -0.7278
  120OSM    C7S12588   4.195   2.806   5.612 -0.1597 -0.0740 -0.6608
  120OSM    H7S12589   4.217   2.702   5.640 -2.5271 -0.0428  1.7039
  120OSM    H7T12590   4.287   2.857   5.576  0.5175 -0.0424  1.0419
  120OSM    C8S12591   4.086   2.785   5.504  0.7976 -0.6480  0.3102
  120OSM    H8S12592   4.012   2.726   5.561 -0.1930  1.0274  0.8392
  120OSM    H8T12593   4.136   2.737   5.417  2.2377  0.7976  0.2890
  120OSM    C9S12594   4.029   2.914   5.452  1.0959 -0.1308 -0.0419
  120OSM    H9S12595   3.983   2.984   5.525  1.6774 -0.2796  0.4665
  120OSM    H9T12596   3.948   2.913   5.375 -1.4411  0.0505  2.4716
  120OSM   C10S12597   4.144   2.993   5.381  0.0400  0.6154  0.4859
  120OSM   H10S12598   4.193   2.934   5.301 -0.3491  0.9923 -0.0353
  120OSM   H10T12599   4.227   3.017   5.451  0.0705  0.8363  0.3783
  120OSM   C11S12600   4.091   3.129   5.321 -0.3371  0.3430  0.8012
  120OSM   H11S12601   4.037   3.185   5.400  2.1206  2.9122  0.7875
  120OSM   H11T12602   4.020   3.106   5.238 -0.6190 -2.3222  1.6741
  120OSM   C12S12603   4.209   3.220   5.276 -0.8010 -0.3172  0.1779
  120OSM   H12S12604   4.275   3.171   5.201  2.1027 -0.7196  2.7858
  120OSM   H12T12605   4.284   3.234   5.356 -0.1746 -1.4621 -0.1903
  120OSM   C13S12606   4.160   3.357   5.217 -0.9765 -0.0446 -0.7645
  120OSM   H13S12607   4.236   3.437   5.217 -1.8166  0.7788 -0.1541
  120OSM   H13T12608   4.079   3.404   5.278  2.0519  3.6699  0.7443
  120OSM   C14S12609   4.122   3.341   5.072  0.5772  0.2122  0.1280
  120OSM   H14S12610   4.038   3.269   5.069  1.5562 -0.9452 -0.1040
  120OSM   H14T12611   4.203   3.303   5.007  0.7133 -0.7003  0.8117
  120OSM   C15S12612   4.069   3.476   5.024  0.3556  0.6710 -0.0537
  120OSM   H15S12613   4.094   3.494   4.917  1.0673 -0.6141 -0.1114
  120OSM   H15T12614   4.117   3.567   5.066 -2.5938  2.4714 -0.2422
  120OSM   C16S12615   3.916   3.481   5.030 -0.3580 -0.4914  0.1243
  120OSM   H16S12616   3.887   3.461   5.135  1.6908 -1.3821  0.5618
  120OSM   H16T12617   3.865   3.410   4.960 -1.8272  1.4269 -0.8561
  120OSM   C17S12618   3.855   3.613   4.981  0.0441  0.0736 -0.0866
  120OSM   H17S12619   3.880   3.633   4.874 -1.3638  0.5273 -0.3536
  120OSM   H17T12620   3.885   3.706   5.034 -1.8558  0.9399 -0.4457
  120OSM   C18S12621   3.703   3.607   4.993  0.6316  0.4571 -0.8369
  120OSM   H18S12622   3.678   3.600   5.101  4.0803 -0.1160  0.0510
  120OSM   H18T12623   3.656   3.515   4.953 -0.0985  0.4584 -0.0023
  120OSM   H18U12624   3.655   3.704   4.965  1.3270  0.8881 -0.5610
  120OSM    C1F12625   4.369   2.469   6.052  0.4104 -0.3086  0.1331
  120OSM     OF12626   4.297   2.469   6.151  0.6208 -0.8625 -0.3168
  120OSM    C2F12627   4.415   2.345   5.977 -0.6742  0.4889  0.1543
  120OSM    H2F12628   4.386   2.252   6.030  0.1375 -0.0209 -0.2720
  120OSM    H2G12629   4.524   2.353   5.957 -0.9898 -0.9601 -2.7199
  120OSM    C3F12630   4.334   2.337   5.839 -0.4576 -0.4870 -0.8887
  120OSM    H3F12631   4.371   2.245   5.790 -1.6543 -0.9326 -0.9806
  120OSM    H3G12632   4.372   2.426   5.786  2.5821 -1.8552 -1.2283
  120OSM    C4F12633   4.178   2.331   5.856 -0.1847 -0.7734  0.3831
  120OSM    H4F12634   4.154   2.433   5.892  1.9492 -0.0699 -0.0778
  120OSM    H4G12635   4.150   2.265   5.941 -0.2090 -1.0966  0.1249
  120OSM    C5F12636   4.102   2.297   5.733  0.8806  0.4756 -0.1033
  120OSM    H5F12637   3.992   2.307   5.745  0.7667  0.9354 -1.4088
  120OSM    H5G12638   4.125   2.192   5.705 -1.5962  0.0536 -0.8514
  120OSM    C6F12639   4.128   2.385   5.609 -0.4693 -0.2331 -0.2341
  120OSM    H6F12640   4.236   2.375   5.584 -0.6348  0.7355 -1.4582
  120OSM    H6G12641   4.116   2.492   5.639 -1.0764 -0.8756  2.0396
  120OSM    C7F12642   4.034   2.368   5.485 -0.4681  0.2973  0.1250
  120OSM    H7F12643   4.069   2.435   5.403 -2.6287 -0.1999 -1.2869
  120OSM    H7G12644   3.938   2.416   5.513 -0.0646  2.0698 -1.3140
  120OSM    C8F12645   4.011   2.221   5.444 -0.4080 -0.7538 -0.5233
  120OSM    H8F12646   3.920   2.211   5.381 -1.7770  1.4395  0.9657
  120OSM    H8G12647   3.998   2.172   5.543 -0.5112  5.6058  3.1550
  120OSM    C9F12648   4.129   2.167   5.363 -0.2166 -0.4345  0.3606
  120OSM    H9F12649   4.221   2.153   5.422 -0.2373  1.2710  0.8801
  120OSM   C10F12650   4.121   2.117   5.242 -0.6449  0.5337  0.2726
  120OSM   H10F12651   4.214   2.080   5.197 -0.6709 -0.3781  0.9338
  120OSM   C11F12652   3.997   2.121   5.156 -0.3576 -0.0767  0.5524
  120OSM   H11F12653   3.970   2.228   5.142  0.4370  0.1752  0.8775
  120OSM   H11G12654   3.915   2.077   5.216 -1.0823 -0.4241 -0.6527
  120OSM   C12F12655   4.004   2.042   5.024 -0.2729 -0.1586 -0.4092
  120OSM   H12F12656   4.090   1.973   5.014 -0.6880 -0.6469 -0.7380
  120OSM   H12G12657   4.022   2.121   4.948  1.3821 -2.0686 -2.1451
  120OSM   C13F12658   3.872   1.973   4.989  0.1942  0.9972 -0.3189
  120OSM   H13F12659   3.845   2.006   4.886  1.4621  0.1946 -0.9312
  120OSM   H13G12660   3.799   2.011   5.063  0.1042  1.1420 -0.4813
  120OSM   C14F12661   3.886   1.820   5.004  0.4773  0.0016 -1.1822
  120OSM   H14F12662   3.847   1.794   5.105  1.2517  3.6206  0.2022
  120OSM   H14G12663   3.994   1.792   5.005 -0.1715 -2.7450 -1.2801
  120OSM   C15F12664   3.821   1.737   4.896 -0.3926 -0.4464 -0.8511
  120OSM   H15F12665   3.715   1.769   4.895  0.7386  3.8396 -0.8341
  120OSM   H15G12666   3.850   1.631   4.915  0.7822  0.2660  1.6637
  120OSM   C16F12667   3.861   1.756   4.750  0.3865  0.6988  0.0960
  120OSM   H16F12668   3.904   1.856   4.727 -1.5415  1.0356 -2.5945
  120OSM   H16G12669   3.771   1.753   4.685  0.0508 -0.6738  0.5874
  120OSM   C17F12670   3.966   1.650   4.702 -0.1849 -0.6506 -1.0682
  120OSM   H17F12671   4.047   1.657   4.777  0.9791 -1.9913 -2.1560
  120OSM   H17G12672   4.014   1.666   4.604  2.1887  1.3426  0.3008
  120OSM   C18F12673   3.926   1.501   4.701  0.7245  0.5934 -0.4145
  120OSM   H18F12674   4.019   1.448   4.671  1.5427  1.2115  0.9478
  120OSM   H18G12675   3.840   1.477   4.634 -0.2831 -0.5609  1.2228
  120OSM   H18H12676   3.912   1.473   4.807  3.6570  3.2408  0.7974
  121OSM      N12677   6.063   5.783   6.892 -0.1038 -0.1649  0.0630
  121OSM    C1512678   6.212   5.795   6.865 -0.1301  0.2841  0.0401
  121OSM   H15A12679   6.264   5.858   6.936  0.3102  1.9785 -1.6974
  121OSM   H15B12680   6.239   5.837   6.769  0.1138 -3.5639 -1.7621
  121OSM   H15C12681   6.250   5.695   6.853 -0.0877  0.1003  1.5339
  121OSM    C1412682   6.041   5.727   7.030 -1.1159 -0.6264  0.0878
  121OSM   H14A12683   6.096   5.635   7.043 -0.9091 -0.1705  3.2027
  121OSM   H14B12684   5.936   5.709   7.044 -0.5854 -2.1888  2.9339
  121OSM   H14C12685   6.077   5.800   7.102 -1.3237  1.8837 -2.1655
  121OSM    C1312686   6.000   5.919   6.886 -0.5506  0.0381  0.1373
  121OSM   H13A12687   6.026   5.977   6.798  0.0557 -0.5973 -0.1175
  121OSM   H13B12688   6.041   5.966   6.974 -0.0743  3.0749 -1.5740
  121OSM   H13C12689   5.892   5.921   6.886 -0.5470  0.9983 -0.4963
  121OSM    C1212690   6.004   5.694   6.782  1.0111  0.6669 -0.6943
  121OSM   H12A12691   5.900   5.676   6.803  1.1408 -2.7832 -2.3566
  121OSM   H12B12692   6.054   5.599   6.793 -1.2229 -0.5134 -0.2636
  121OSM    C1112693   6.017   5.743   6.637 -0.1037  0.2748 -0.2087
  121OSM   H11A12694   5.981   5.662   6.571  0.1079  0.1770 -0.2040
  121OSM   H11B12695   6.126   5.749   6.617 -0.1963  0.2646 -0.7151
  121OSM      P12696   5.803   5.895   6.583 -0.3031  0.4329  0.0782
  121OSM    O1312697   5.717   5.784   6.653 -0.5208 -0.0436  0.3096
  121OSM    O1412698   5.778   6.031   6.629  0.0838 -0.0933 -0.8976
  121OSM    O1112699   5.777   5.888   6.426 -0.3994  0.2373  0.0202
  121OSM    O1212700   5.957   5.870   6.608 -0.6131 -0.4400  0.0926
  121OSM    C1S12701   5.880   5.859   6.337  0.8486 -0.2702  0.3160
  121OSM    H1S12702   5.926   5.758   6.346  0.4210 -0.6879 -1.7993
  121OSM    H1T12703   5.963   5.929   6.362  1.0404 -1.2980  2.9796
  121OSM     NF12704   5.913   5.835   6.091  0.3305 -0.8893  0.4591
  121OSM    HNF12705   5.958   5.906   6.037 -1.3530 -0.2134 -0.1489
  121OSM    C2S12706   5.820   5.882   6.192  0.0152 -0.1081  0.0177
  121OSM    H2S12707   5.724   5.828   6.180  0.1036  0.3712 -4.3643
  121OSM    C3S12708   5.776   6.036   6.189 -0.0361 -0.4288  0.0335
  121OSM    H3S12709   5.862   6.106   6.201 -1.0945  1.1223 -0.9912
  121OSM     O312710   5.681   6.080   6.293  0.2159  0.0551 -0.6537
  121OSM    HO312711   5.687   6.018   6.366  0.6565  2.6412  1.6189
  121OSM    C4S12712   5.721   6.065   6.049  0.6333 -0.8813 -0.5672
  121OSM    H4S12713   5.796   6.126   5.996  2.3691 -0.5004  2.0898
  121OSM    C5S12714   5.599   6.040   6.007  0.2616 -0.0047 -0.8419
  121OSM    H5S12715   5.524   5.993   6.073  1.1541 -1.9248 -1.1481
  121OSM    C6S12716   5.566   6.073   5.866 -0.6072  1.1460  0.2210
  121OSM    H6S12717   5.632   6.155   5.831  0.3634 -0.6283 -2.3283
  121OSM    H6T12718   5.458   6.101   5.866 -0.5251  1.4701 -0.6106
  121OSM    C7S12719   5.574   5.953   5.778 -0.2229  0.6284  0.8739
  121OSM    H7S12720   5.498   5.877   5.807 -0.0404  0.4166  0.7968
  121OSM    H7T12721   5.675   5.909   5.795 -0.3870  0.7449  2.3247
  121OSM    C8S12722   5.567   5.980   5.628  0.5341  0.0028 -0.5906
  121OSM    H8S12723   5.629   5.910   5.568 -1.0335 -0.4432 -1.7365
  121OSM    H8T12724   5.614   6.078   5.604 -0.7378  0.0292 -3.3399
  121OSM    C9S12725   5.426   5.976   5.567 -0.3583 -0.2760 -0.0494
  121OSM    H9S12726   5.353   6.019   5.638 -3.0764 -2.7292 -1.1382
  121OSM    H9T12727   5.395   5.872   5.545  1.9561 -0.3599 -3.6816
  121OSM   C10S12728   5.413   6.056   5.433 -0.2817 -0.2170 -0.6855
  121OSM   H10S12729   5.471   6.149   5.449  0.8590 -0.8415 -1.1101
  121OSM   H10T12730   5.305   6.084   5.432 -0.1194  0.4526 -0.3184
  121OSM   C11S12731   5.464   5.984   5.311  0.4099 -0.2386 -0.3332
  121OSM   H11S12732   5.410   5.887   5.300  1.8297 -0.8926 -2.2173
  121OSM   H11T12733   5.573   5.960   5.316  0.3849 -0.2411  0.4424
  121OSM   C12S12734   5.447   6.076   5.190  0.1707  0.3704 -0.1958
  121OSM   H12S12735   5.498   6.174   5.203  3.9076 -1.5034  0.6298
  121OSM   H12T12736   5.341   6.103   5.174  0.1188 -0.6782 -1.7840
  121OSM   C13S12737   5.514   6.023   5.058  0.5554 -0.8602 -0.0292
  121OSM   H13S12738   5.509   5.912   5.056  0.5917 -0.8543 -0.3979
  121OSM   H13T12739   5.623   6.043   5.066  0.2074  0.5080  2.0254
  121OSM   C14S12740   5.455   6.086   4.931 -0.1184 -0.4980  0.0406
  121OSM   H14S12741   5.465   6.197   4.929 -0.2747 -0.4682  0.6800
  121OSM   H14T12742   5.345   6.075   4.945  0.0407 -0.5967  1.2679
  121OSM   C15S12743   5.502   6.022   4.798  0.1929  0.2323  0.2294
  121OSM   H15S12744   5.437   5.932   4.788  0.7723 -0.2907  1.0980
  121OSM   H15T12745   5.610   5.996   4.795  0.4059  0.9377 -3.8313
  121OSM   C16S12746   5.475   6.113   4.682 -0.0811 -0.0133  0.0172
  121OSM   H16S12747   5.527   6.211   4.687  2.7250 -1.3116 -1.4406
  121OSM   H16T12748   5.366   6.132   4.679 -0.8725 -3.2594  2.8142
  121OSM   C17S12749   5.518   6.050   4.548 -0.0419  0.0536 -0.3986
  121OSM   H17S12750   5.471   5.950   4.543  2.5275 -1.1511 -2.5791
  121OSM   H17T12751   5.627   6.036   4.561  0.3416  3.2672  0.8053
  121OSM   C18S12752   5.468   6.135   4.431  0.4168  0.4469 -0.0352
  121OSM   H18S12753   5.365   6.168   4.457  0.9619  2.0630  0.1950
  121OSM   H18T12754   5.465   6.069   4.342  0.0480  0.1234  0.2105
  121OSM   H18U12755   5.538   6.221   4.430  1.8008 -0.5947 -2.6486
  121OSM    C1F12756   5.940   5.709   6.064  0.6716  0.3054 -0.2130
  121OSM     OF12757   5.890   5.621   6.135  0.5784  0.1846  0.1822
  121OSM    C2F12758   6.028   5.671   5.949  0.5082  0.2844  0.3404
  121OSM    H2F12759   6.068   5.573   5.982 -0.9042 -0.2465  0.5615
  121OSM    H2G12760   6.110   5.740   5.922 -1.0631  2.1577  0.1166
  121OSM    C3F12761   5.946   5.641   5.818 -0.1992  0.1599 -0.2891
  121OSM    H3F12762   5.890   5.726   5.774 -1.8150 -1.0443 -0.6134
  121OSM    H3G12763   5.858   5.577   5.839  0.7939 -1.1695 -0.0398
  121OSM    C4F12764   6.023   5.570   5.700 -0.0400 -0.3990  0.8112
  121OSM    H4F12765   6.073   5.479   5.740 -1.2384 -0.6391  1.8042
  121OSM    H4G12766   6.107   5.631   5.660 -2.8307  2.7442 -0.7916
  121OSM    C5F12767   5.935   5.532   5.579  0.1786  0.2217  0.6846
  121OSM    H5F12768   5.838   5.495   5.618  0.3085 -0.0070  0.7907
  121OSM    H5G12769   5.983   5.449   5.522  1.3359  1.1561  0.2400
  121OSM    C6F12770   5.918   5.651   5.481  0.3340 -0.6336  0.0018
  121OSM    H6F12771   6.013   5.709   5.476  0.0643 -0.2932 -1.4834
  121OSM    H6G12772   5.839   5.719   5.518  0.9890 -0.7888  1.8049
  121OSM    C7F12773   5.891   5.604   5.345  0.0444  0.2726 -0.1337
  121OSM    H7F12774   5.799   5.543   5.344 -1.3973  2.2942 -2.6948
  121OSM    H7G12775   5.987   5.561   5.306  1.3000  2.3133  0.5577
  121OSM    C8F12776   5.854   5.707   5.240  0.3171  0.0292 -0.6254
  121OSM    H8F12777   5.756   5.758   5.253  0.6677  0.6809 -0.5038
  121OSM    H8G12778   5.828   5.653   5.146  0.8876 -0.8576 -0.2788
  121OSM    C9F12779   5.960   5.809   5.209 -0.1559  0.2584  0.3470
  121OSM    H9F12780   6.025   5.830   5.296 -2.3137  2.1221  1.6160
  121OSM   C10F12781   5.989   5.858   5.087  0.2462 -0.4333  0.1900
  121OSM   H10F12782   6.068   5.933   5.074  0.0528 -0.3284 -0.4164
  121OSM   C11F12783   5.906   5.835   4.967  0.5565 -0.3457  1.3670
  121OSM   H11F12784   5.801   5.868   4.986 -0.3289 -1.2998 -1.3689
  121OSM   H11G12785   5.902   5.730   4.931 -0.1904  0.0032  0.3928
  121OSM   C12F12786   5.950   5.908   4.838  0.0196 -0.0453  0.5210
  121OSM   H12F12787   6.060   5.895   4.838 -0.1066 -1.8643 -1.9934
  121OSM   H12G12788   5.930   6.017   4.848  0.2083 -0.0027  0.4396
  121OSM   C13F12789   5.886   5.838   4.718 -0.6625  0.6873 -0.0905
  121OSM   H13F12790   5.780   5.811   4.740 -1.1935  1.3905 -1.6262
  121OSM   H13G12791   5.948   5.749   4.694  0.9075  1.4701  0.8990
  121OSM   C14F12792   5.909   5.940   4.611  0.1625  0.0864  0.2536
  121OSM   H14F12793   6.017   5.965   4.614 -0.2553  2.5150 -1.9452
  121OSM   H14G12794   5.860   6.038   4.623  1.4343  0.5819  1.7615
  121OSM   C15F12795   5.864   5.893   4.462 -0.1475 -0.1694  0.3917
  121OSM   H15F12796   5.755   5.869   4.457 -0.1791  0.2092 -2.4465
  121OSM   H15G12797   5.921   5.803   4.429  0.6233  0.4504  0.0164
  121OSM   C16F12798   5.875   6.002   4.355 -0.3730  0.4621  0.0438
  121OSM   H16F12799   5.980   6.032   4.338  0.2909 -0.4818  2.1366
  121OSM   H16G12800   5.805   6.082   4.388 -1.5626 -1.2325  1.8436
  121OSM   C17F12801   5.847   5.941   4.211  0.0829  0.8332 -0.4732
  121OSM   H17F12802   5.820   5.834   4.226 -0.7351  1.0225 -0.5270
  121OSM   H17G12803   5.935   5.958   4.145  0.1796  1.2605 -0.2337
  121OSM   C18F12804   5.732   6.018   4.147 -0.3272 -0.0482  0.2970
  121OSM   H18F12805   5.758   6.125   4.133 -0.9167 -0.0839 -1.2860
  121OSM   H18G12806   5.635   5.999   4.199 -0.4440 -2.3106 -0.6198
  121OSM   H18H12807   5.730   5.976   4.044  1.6405 -0.2620  0.3203
  122OSM      N12808   5.889   1.241   6.319  0.4747 -0.1080  0.5534
  122OSM    C1512809   5.964   1.214   6.190  0.3454  0.0503 -0.9172
  122OSM   H15A12810   6.045   1.285   6.191 -0.1531  0.6271 -0.3890
  122OSM   H15B12811   5.906   1.230   6.101  0.0595 -0.6716 -0.8687
  122OSM   H15C12812   5.996   1.111   6.193  0.5774  0.1224 -0.8601
  122OSM    C1412813   5.983   1.227   6.438 -0.4236 -0.2414  0.7122
  122OSM   H14A12814   6.083   1.227   6.398 -0.2250  0.3581  1.2036
  122OSM   H14B12815   5.973   1.137   6.496  1.0054 -1.4930 -0.8887
  122OSM   H14C12816   5.974   1.305   6.512  1.0925  1.1107 -0.4426
  122OSM    C1312817   5.863   1.386   6.310 -0.3030  0.2050 -0.0472
  122OSM   H13A12818   5.819   1.407   6.213 -0.3245  1.8301  0.2909
  122OSM   H13B12819   5.953   1.445   6.312  0.0702 -0.3448 -0.2965
  122OSM   H13C12820   5.796   1.412   6.390  2.7101 -0.1429  2.7948
  122OSM    C1212821   5.757   1.176   6.340  0.2002  0.1802  0.1371
  122OSM   H12A12822   5.763   1.069   6.324 -1.6892 -0.1755  1.4770
  122OSM   H12B12823   5.686   1.205   6.263  1.1883 -0.2098 -0.9493
  122OSM    C1112824   5.664   1.208   6.453  0.1121 -0.2213 -1.1360
  122OSM   H11A12825   5.729   1.201   6.543  0.9654 -3.1498 -1.8882
  122OSM   H11B12826   5.586   1.133   6.479 -1.7912  1.6664 -1.1136
  122OSM      P12827   5.461   1.374   6.390  0.3347  0.2162  0.0272
  122OSM    O1312828   5.359   1.317   6.477  0.2220  0.4133 -0.2840
  122OSM    O1412829   5.453   1.516   6.360  0.1348 -0.2416  0.5313
  122OSM    O1112830   5.456   1.293   6.257 -0.8993 -0.0404  0.0729
  122OSM    O1212831   5.606   1.342   6.445 -0.5095 -0.2368  0.0320
  122OSM    C1S12832   5.516   1.339   6.130  0.9243 -0.4005  0.3621
  122OSM    H1S12833   5.621   1.372   6.143  0.9927 -0.8623  1.0871
  122OSM    H1T12834   5.470   1.439   6.114 -1.1356 -1.1934  0.8716
  122OSM     NF12835   5.553   1.270   5.894 -0.1683 -0.1475  0.6795
  122OSM    HNF12836   5.514   1.330   5.825  0.6963 -0.2936  0.0435
  122OSM    C2S12837   5.483   1.241   6.014  0.8861 -0.5764 -0.0495
  122OSM    H2S12838   5.512   1.147   6.065  0.7545  0.3120  1.7489
  122OSM    C3S12839   5.327   1.209   5.997 -0.1717  0.7137 -0.1637
  122OSM    H3S12840   5.264   1.300   5.999 -2.4670 -0.7410 -1.6117
  122OSM     O312841   5.270   1.143   6.110  0.0157 -0.2042  0.1542
  122OSM    HO312842   5.332   1.171   6.178 -1.2811  0.9244  0.9119
  122OSM    C4S12843   5.299   1.130   5.873  0.0217 -0.6113  0.1368
  122OSM    H4S12844   5.332   1.026   5.886 -1.3693 -1.1899 -0.6993
  122OSM    C5S12845   5.256   1.184   5.749 -0.7435 -0.3166  0.1568
  122OSM    H5S12846   5.253   1.293   5.734 -1.1018 -0.6440 -2.6302
  122OSM    C6S12847   5.255   1.113   5.613 -0.4875 -0.3998 -0.5913
  122OSM    H6S12848   5.345   1.144   5.556 -0.6200  0.4266 -0.3667
  122OSM    H6T12849   5.161   1.126   5.555 -0.6087 -2.2173 -0.8333
  122OSM    C7S12850   5.274   0.963   5.631 -0.4182  0.0560 -0.0983
  122OSM    H7S12851   5.207   0.934   5.714  0.1119 -0.8782  0.0178
  122OSM    H7T12852   5.371   0.933   5.675 -0.0639 -0.0084 -0.9036
  122OSM    C8S12853   5.253   0.879   5.506 -0.8049  0.6564  0.8220
  122OSM    H8S12854   5.145   0.885   5.477 -1.1097  1.8331  2.1182
  122OSM    H8T12855   5.269   0.774   5.538 -1.2955 -0.0335 -1.0174
  122OSM    C9S12856   5.333   0.901   5.372 -0.1785  0.1114 -1.1065
  122OSM    H9S12857   5.439   0.908   5.406 -0.9350 -1.2479  1.9557
  122OSM    H9T12858   5.316   1.008   5.347  0.8070  0.9465  1.4193
  122OSM   C10S12859   5.299   0.800   5.256 -0.6665  0.0328  0.2371
  122OSM   H10S12860   5.193   0.814   5.229 -0.0581 -0.1400 -2.4718
  122OSM   H10T12861   5.315   0.692   5.279  2.5128  0.3260 -0.1749
  122OSM   C11S12862   5.384   0.822   5.130  0.3733 -0.0495 -0.6214
  122OSM   H11S12863   5.484   0.800   5.171  0.2097  0.7251  0.2225
  122OSM   H11T12864   5.371   0.931   5.109  0.0307  0.2853  1.2009
  122OSM   C12S12865   5.344   0.731   5.009 -0.0295  0.4791 -0.1118
  122OSM   H12S12866   5.237   0.745   4.982 -0.4866 -0.7064  0.9888
  122OSM   H12T12867   5.356   0.624   5.037 -1.3223  0.7854  1.8546
  122OSM   C13S12868   5.411   0.751   4.874  0.0219  0.1825  0.0752
  122OSM   H13S12869   5.517   0.718   4.872  0.1132  0.2357  2.1021
  122OSM   H13T12870   5.415   0.858   4.846 -0.5851  0.2439  0.2212
  122OSM   C14S12871   5.355   0.659   4.769 -0.0853  0.4138  0.6568
  122OSM   H14S12872   5.244   0.667   4.766 -0.0933  0.0670 -1.0563
  122OSM   H14T12873   5.386   0.554   4.783  0.8261  0.3125 -1.7435
  122OSM   C15S12874   5.403   0.685   4.621 -0.8127 -0.0430  0.3326
  122OSM   H15S12875   5.512   0.662   4.619 -0.2577  2.3250  0.1692
  122OSM   H15T12876   5.405   0.795   4.602  2.6748 -0.2637 -1.6153
  122OSM   C16S12877   5.321   0.617   4.514  0.5516  0.1741 -0.2554
  122OSM   H16S12878   5.220   0.663   4.522  1.2875  1.8831 -0.5339
  122OSM   H16T12879   5.303   0.513   4.550 -0.9496  0.5361  0.1040
  122OSM   C17S12880   5.368   0.624   4.365  0.3179 -0.0015  0.4783
  122OSM   H17S12881   5.462   0.566   4.353  0.8848  0.7519  1.1815
  122OSM   H17T12882   5.407   0.725   4.340  0.8617 -0.0386  1.1535
  122OSM   C18S12883   5.275   0.580   4.251  0.7456 -0.1203 -0.1118
  122OSM   H18S12884   5.196   0.656   4.234  1.0266  0.0873 -0.4963
  122OSM   H18T12885   5.214   0.490   4.276  0.0010 -0.0836 -1.6677
  122OSM   H18U12886   5.318   0.577   4.149  0.4985  2.4113 -0.3551
  122OSM    C1F12887   5.684   1.239   5.888 -0.1183 -1.0399  0.5510
  122OSM     OF12888   5.736   1.177   5.982  0.0852 -0.0142  0.5754
  122OSM    C2F12889   5.756   1.273   5.760  0.1343 -0.4650 -0.0979
  122OSM    H2F12890   5.863   1.256   5.784 -0.1530  0.0437  1.6878
  122OSM    H2G12891   5.747   1.381   5.734  2.8729 -0.0976  0.2291
  122OSM    C3F12892   5.706   1.199   5.642 -0.1104 -0.6792 -0.3863
  122OSM    H3F12893   5.599   1.227   5.628 -0.6022 -2.8130 -1.1940
  122OSM    H3G12894   5.696   1.095   5.680  0.9933 -0.7098 -0.1577
  122OSM    C4F12895   5.774   1.222   5.505 -0.1470  0.4444  0.4564
  122OSM    H4F12896   5.884   1.209   5.511 -0.3697 -1.1045  1.7475
  122OSM    H4G12897   5.760   1.323   5.460 -0.5525  0.4021  0.4852
  122OSM    C5F12898   5.701   1.128   5.406 -0.0422 -0.1478 -0.7087
  122OSM    H5F12899   5.707   1.158   5.300 -0.2842 -0.5213 -0.8323
  122OSM    H5G12900   5.596   1.130   5.443  1.0526  1.5935  2.7646
  122OSM    C6F12901   5.753   0.980   5.409 -0.6618 -0.3209  0.1922
  122OSM    H6F12902   5.686   0.903   5.365 -0.3505 -2.4931  3.1779
  122OSM    H6G12903   5.765   0.960   5.518 -3.9694  1.1263  0.9356
  122OSM    C7F12904   5.890   0.959   5.347  0.0074 -0.1313  0.0922
  122OSM    H7F12905   5.924   0.856   5.370  0.3300 -0.2232 -0.7661
  122OSM    H7G12906   5.957   1.035   5.392 -2.5850  1.2986  1.7858
  122OSM    C8F12907   5.905   0.980   5.190 -0.4198  0.0289 -0.0605
  122OSM    H8F12908   6.006   0.947   5.157 -0.5109  0.0378 -0.3510
  122OSM    H8G12909   5.888   1.087   5.166  2.9835  0.9064  0.9564
  122OSM    C9F12910   5.816   0.886   5.106  0.1158 -0.0974 -0.3654
  122OSM    H9F12911   5.777   0.803   5.166 -2.7581  0.7429 -0.9013
  122OSM   C10F12912   5.789   0.906   4.975  0.2936  0.1551 -0.0021
  122OSM   H10F12913   5.741   0.824   4.919  0.3188  0.7014 -0.8347
  122OSM   C11F12914   5.836   1.022   4.891 -0.7670  0.0655 -0.3498
  122OSM   H11F12915   5.916   1.081   4.942  0.7330 -0.9839 -1.4013
  122OSM   H11G12916   5.750   1.090   4.873  0.6437  2.8390  2.4506
  122OSM   C12F12917   5.897   0.951   4.767  0.5325 -0.6490  0.3335
  122OSM   H12F12918   5.825   0.885   4.714  0.2946 -2.4923  2.7545
  122OSM   H12G12919   5.981   0.887   4.802  1.7109  1.1910  1.0477
  122OSM   C13F12920   5.951   1.053   4.672  0.1559  0.1562 -0.1627
  122OSM   H13F12921   6.018   1.123   4.726  1.9092 -1.3340 -0.3103
  122OSM   H13G12922   5.860   1.106   4.638 -1.3676 -1.7790  0.7199
  122OSM   C14F12923   6.003   0.981   4.548  0.1390  0.0564  0.1289
  122OSM   H14F12924   5.924   0.926   4.493  0.2466  0.2457 -0.2158
  122OSM   H14G12925   6.089   0.916   4.572  1.3218 -0.1513 -3.9062
  122OSM   C15F12926   6.053   1.077   4.448  0.2307 -0.6244  0.2887
  122OSM   H15F12927   6.104   1.154   4.509  1.9685 -2.2471  0.9929
  122OSM   H15G12928   5.966   1.124   4.398  0.5284  0.7589  1.0402
  122OSM   C16F12929   6.139   1.013   4.341 -0.0807  1.0746  0.0875
  122OSM   H16F12930   6.106   0.912   4.312  0.2819  0.8442  0.4693
  122OSM   H16G12931   6.239   1.003   4.390  0.3749  0.7417 -0.8832
  122OSM   C17F12932   6.143   1.106   4.224 -0.3544  0.4708  0.3071
  122OSM   H17F12933   6.042   1.149   4.208 -0.2529  1.7071  2.5891
  122OSM   H17G12934   6.180   1.044   4.140 -0.5964  2.3392 -1.2534
  122OSM   C18F12935   6.244   1.225   4.235 -0.5252  0.3476  0.9156
  122OSM   H18F12936   6.329   1.205   4.304 -0.5411 -0.8096  0.6198
  122OSM   H18G12937   6.195   1.322   4.260 -0.7726  0.4404  0.1034
  122OSM   H18H12938   6.292   1.247   4.137 -1.9339  1.5575  0.4634
  123OSM      N12939   1.538   4.152   1.834 -0.5699  0.1304 -0.1538
  123OSM    C1512940   1.585   4.228   1.961 -0.1300  0.3528  0.0964
  123OSM   H15A12941   1.610   4.333   1.953 -1.9383  0.6721 -2.6305
  123OSM   H15B12942   1.675   4.184   2.002 -0.0659  0.1853 -0.2245
  123OSM   H15C12943   1.504   4.232   2.032  0.1198  1.1942  0.3424
  123OSM    C1412944   1.401   4.196   1.787  0.5941 -0.1264  0.1644
  123OSM   H14A12945   1.359   4.148   1.700 -0.2848  0.3554  0.3118
  123OSM   H14B12946   1.408   4.300   1.760  0.3282 -0.1384  0.0437
  123OSM   H14C12947   1.329   4.175   1.865  0.8659 -1.9572 -0.0265
  123OSM    C1312948   1.620   4.189   1.723  0.5603 -0.5217 -0.4935
  123OSM   H13A12949   1.720   4.148   1.734  2.0536  2.7003 -0.9333
  123OSM   H13B12950   1.619   4.296   1.709 -1.9154 -0.6184 -1.5400
  123OSM   H13C12951   1.582   4.142   1.633  1.3010 -2.3796  0.1128
  123OSM    C1212952   1.539   4.006   1.865  0.3159  0.4653 -0.0765
  123OSM   H12A12953   1.526   3.948   1.775 -0.0049  0.3869  0.0178
  123OSM   H12B12954   1.454   3.984   1.928  0.4924 -0.6123 -0.2007
  123OSM    C1112955   1.663   3.945   1.932 -0.4098 -0.1348 -0.1335
  123OSM   H11A12956   1.639   3.841   1.960 -1.7447 -0.3173 -1.8226
  123OSM   H11B12957   1.686   3.995   2.029 -0.1151 -3.0716  1.4258
  123OSM      P12958   1.780   3.847   1.723  0.2709 -0.2143  0.1343
  123OSM    O1312959   1.639   3.808   1.698 -0.3834  0.2256  0.4027
  123OSM    O1412960   1.860   3.904   1.613 -0.5077 -0.0660 -0.3149
  123OSM    O1112961   1.864   3.727   1.783 -0.7640 -0.1944 -0.0860
  123OSM    O1212962   1.773   3.949   1.842  0.4142 -0.1560  0.1888
  123OSM    C1S12963   1.994   3.749   1.845  0.0391  0.4259 -0.4459
  123OSM    H1S12964   2.040   3.841   1.805  0.3016 -0.2379 -1.7228
  123OSM    H1T12965   2.057   3.665   1.809 -3.5431 -2.4741 -0.5533
  123OSM     NF12966   2.111   3.771   2.049 -1.1120 -0.0908 -0.8000
  123OSM    HNF12967   2.171   3.692   2.054 -0.9839 -0.1505 -2.6216
  123OSM    C2S12968   1.981   3.742   2.001 -0.5819 -0.4413  0.1391
  123OSM    H2S12969   1.907   3.816   2.039  1.2756  1.0182  1.1111
  123OSM    C3S12970   1.935   3.603   2.056 -0.0861  0.1046 -0.1725
  123OSM    H3S12971   2.008   3.528   2.018 -1.0542 -0.6374 -0.6195
  123OSM     O312972   1.809   3.564   2.002 -0.3466 -0.6298 -0.3553
  123OSM    HO312973   1.806   3.598   1.913 -1.7882  1.7018  0.4723
  123OSM    C4S12974   1.929   3.608   2.211 -0.5312  0.8008  0.5597
  123OSM    H4S12975   1.846   3.673   2.245 -2.3986  0.1392 -2.3422
  123OSM    C5S12976   2.015   3.548   2.296 -0.0032  0.2348 -0.0850
  123OSM    H5S12977   2.101   3.495   2.251 -0.4345  0.6860 -1.5142
  123OSM    C6S12978   1.995   3.555   2.449 -0.0641 -0.6039  1.0236
  123OSM    H6S12979   1.986   3.452   2.490 -2.5193  0.3119  3.0270
  123OSM    H6T12980   1.902   3.601   2.487 -0.4935 -1.8978  1.6228
  123OSM    C7S12981   2.107   3.629   2.526 -0.0635  0.6080  0.0109
  123OSM    H7S12982   2.101   3.735   2.492 -2.2813  0.4037 -0.3849
  123OSM    H7T12983   2.206   3.590   2.493 -0.0299 -0.3377  1.1636
  123OSM    C8S12984   2.085   3.626   2.678 -0.3494 -0.5269 -0.8136
  123OSM    H8S12985   2.067   3.521   2.711 -2.2157  0.1165  0.4238
  123OSM    H8T12986   1.994   3.674   2.720 -0.8375 -3.6868  2.2249
  123OSM    C9S12987   2.214   3.682   2.753 -0.1793 -0.3955 -0.3995
  123OSM    H9S12988   2.247   3.779   2.710 -1.1993 -0.0460 -0.4118
  123OSM    H9T12989   2.295   3.605   2.745 -1.8237 -2.2454 -0.0048
  123OSM   C10S12990   2.196   3.721   2.903  0.0106  0.1943 -0.0432
  123OSM   H10S12991   2.110   3.791   2.910 -0.2882 -0.0910 -0.7438
  123OSM   H10T12992   2.287   3.765   2.947  1.5422 -1.0924 -1.7950
  123OSM   C11S12993   2.175   3.592   2.995  0.0805  0.6696 -0.4351
  123OSM   H11S12994   2.278   3.550   3.002  0.2164  0.8495 -1.2426
  123OSM   H11T12995   2.102   3.524   2.947  0.7291 -0.5083  0.1904
  123OSM   C12S12996   2.137   3.636   3.139 -0.4592  0.2150  0.2003
  123OSM   H12S12997   2.043   3.696   3.134 -0.8039 -0.3614 -0.4165
  123OSM   H12T12998   2.218   3.688   3.194  1.0870 -1.0134 -0.8247
  123OSM   C13S12999   2.104   3.512   3.224 -0.2435  0.6158 -0.6647
  123OSM   H13S13000   2.186   3.436   3.224 -2.0762 -1.5301  1.3218
  123OSM   H13T13001   2.016   3.466   3.174  1.0232 -2.1029 -0.5859
  123OSM   C14S13002   2.094   3.539   3.370 -0.3116  0.4728 -0.4553
  123OSM   H14S13003   2.015   3.615   3.386 -0.0699  0.5174  0.6396
  123OSM   H14T13004   2.186   3.595   3.395  2.0527 -1.8920 -3.1492
  123OSM   C15S13005   2.063   3.414   3.449  0.3431 -0.0002 -0.0761
  123OSM   H15S13006   2.152   3.347   3.445  0.7377  0.5418 -0.5899
  123OSM   H15T13007   1.974   3.360   3.411 -0.3164  1.0485 -0.0601
  123OSM   C16S13008   2.037   3.442   3.597 -0.0191  0.2939 -0.4652
  123OSM   H16S13009   2.013   3.344   3.644 -0.0127  0.4299 -0.1764
  123OSM   H16T13010   1.947   3.504   3.615 -2.2768 -2.4663 -1.4316
  123OSM   C17S13011   2.150   3.505   3.681 -0.3034  0.0126 -0.1135
  123OSM   H17S13012   2.192   3.598   3.637  0.1166  0.3729  1.0036
  123OSM   H17T13013   2.234   3.433   3.668 -1.3795 -1.3022 -0.0368
  123OSM   C18S13014   2.113   3.523   3.826  0.6740  0.1011  0.0044
  123OSM   H18S13015   2.203   3.550   3.885  1.5705 -1.1539 -0.7525
  123OSM   H18T13016   2.086   3.425   3.870  5.1210 -1.4024 -0.1406
  123OSM   H18U13017   2.026   3.590   3.839  0.3455 -0.2769 -0.2362
  123OSM    C1F13018   2.148   3.898   2.067 -0.1123 -0.0274  0.1265
  123OSM     OF13019   2.089   3.987   2.006 -0.7265 -0.0316 -0.4040
  123OSM    C2F13020   2.276   3.923   2.141  0.2895  0.2276  0.5126
  123OSM    H2F13021   2.356   3.890   2.072  0.1485 -2.4046  1.5085
  123OSM    H2G13022   2.274   3.854   2.228 -2.1300  0.1062  0.4289
  123OSM    C3F13023   2.316   4.066   2.194  0.1382  0.7789  0.3752
  123OSM    H3F13024   2.336   4.138   2.112  0.6962  1.6068  1.2169
  123OSM    H3G13025   2.415   4.049   2.242  0.7289 -0.5669 -1.2173
  123OSM    C4F13026   2.215   4.134   2.298 -0.1052  0.2406 -0.0074
  123OSM    H4F13027   2.109   4.123   2.266  0.0605  0.7611 -0.7458
  123OSM    H4G13028   2.233   4.242   2.313  0.6506 -0.0577  1.3626
  123OSM    C5F13029   2.229   4.077   2.438 -0.2827  0.9920  1.0322
  123OSM    H5F13030   2.333   4.111   2.461  0.5827  0.5625 -1.7530
  123OSM    H5G13031   2.238   3.967   2.428  0.3318  0.9869  1.5619
  123OSM    C6F13032   2.120   4.119   2.536 -0.0299  0.0748 -1.0835
  123OSM    H6F13033   2.027   4.070   2.500 -2.5522  2.4454  1.5733
  123OSM    H6G13034   2.099   4.228   2.538 -1.1666 -0.1263  0.7175
  123OSM    C7F13035   2.140   4.070   2.679 -0.4506  0.2455 -0.6159
  123OSM    H7F13036   2.222   4.128   2.727 -1.5210  1.3644 -0.0839
  123OSM    H7G13037   2.150   3.960   2.688 -0.1356  0.4182  1.8343
  123OSM    C8F13038   2.029   4.116   2.775 -0.5982 -0.5311 -0.2710
  123OSM    H8F13039   2.044   4.226   2.778  0.2017 -0.5379 -2.4942
  123OSM    H8G13040   2.056   4.061   2.868 -0.5130 -0.4395 -0.2423
  123OSM    C9F13041   1.887   4.069   2.738 -1.1094 -0.4225 -0.3803
  123OSM    H9F13042   1.845   4.124   2.652  0.0442  1.8569  0.4298
  123OSM   C10F13043   1.812   3.978   2.793  0.0170  0.6234 -0.3170
  123OSM   H10F13044   1.711   3.960   2.753  0.1324 -0.8137 -0.0110
  123OSM   C11F13045   1.841   3.891   2.915 -0.1974  0.2660  0.0669
  123OSM   H11F13046   1.923   3.937   2.975  0.4925 -0.0187 -0.6373
  123OSM   H11G13047   1.862   3.785   2.890  0.4710  0.2453  0.6622
  123OSM   C12F13048   1.723   3.887   3.009 -0.0344 -0.1024 -0.1612
  123OSM   H12F13049   1.639   3.827   2.967 -2.4170  2.9483 -0.1744
  123OSM   H12G13050   1.671   3.986   3.012  0.3424  0.0943 -0.1044
  123OSM   C13F13051   1.755   3.839   3.154 -0.3263  0.6322  0.7182
  123OSM   H13F13052   1.838   3.764   3.147 -0.7633  0.1787  0.3255
  123OSM   H13G13053   1.663   3.789   3.191  0.0799 -2.7246 -2.2453
  123OSM   C14F13054   1.800   3.942   3.255  0.4106  0.5479  0.0061
  123OSM   H14F13055   1.716   4.014   3.271 -2.4022 -2.0717 -1.8201
  123OSM   H14G13056   1.892   3.997   3.228  0.8709 -0.8966 -1.5799
  123OSM   C15F13057   1.820   3.873   3.390  0.1019  0.6074 -0.3309
  123OSM   H15F13058   1.895   3.791   3.391 -0.6953 -0.1400  0.0578
  123OSM   H15G13059   1.726   3.817   3.411  0.8966 -0.4811  0.4124
  123OSM   C16F13060   1.850   3.975   3.500  0.4252 -0.6817 -0.0700
  123OSM   H16F13061   1.753   4.022   3.528  1.5066 -0.1309  3.2753
  123OSM   H16G13062   1.907   4.056   3.449 -1.9405  0.0284 -1.7679
  123OSM   C17F13063   1.917   3.913   3.616 -0.1843  0.1907 -0.0523
  123OSM   H17F13064   2.017   3.880   3.580  0.3992  1.2635  0.5257
  123OSM   H17G13065   1.870   3.821   3.655  1.7118 -0.6589  0.3392
  123OSM   C18F13066   1.940   4.013   3.734  0.1708 -0.0025  0.7611
  123OSM   H18F13067   1.952   3.945   3.822 -2.2313  0.7490  1.7305
  123OSM   H18G13068   1.849   4.068   3.766  0.5604  0.4623  1.0861
  123OSM   H18H13069   2.015   4.089   3.703 -1.3046  0.7616 -1.1104
  124OSM      N13070   5.553   4.193   1.815  0.1235  0.3114  0.3784
  124OSM    C1513071   5.578   4.271   1.941 -0.3963  0.9069  0.4370
  124OSM   H15A13072   5.674   4.236   1.978 -0.9430  0.2731  1.3001
  124OSM   H15B13073   5.511   4.262   2.025  1.7696  0.4400  2.2342
  124OSM   H15C13074   5.594   4.372   1.908  0.3127 -0.0637 -2.4678
  124OSM    C1413075   5.543   4.049   1.845  0.1032 -0.2748 -0.3637
  124OSM   H14A13076   5.637   4.016   1.887 -0.5360 -2.7362 -0.6948
  124OSM   H14B13077   5.528   3.989   1.757 -2.0369 -1.3198  0.6242
  124OSM   H14C13078   5.468   4.026   1.919 -0.0404  0.5588 -0.2374
  124OSM    C1313079   5.417   4.233   1.775 -0.0680  0.4910  0.3896
  124OSM   H13A13080   5.404   4.340   1.777  1.5640  0.7385 -0.6913
  124OSM   H13B13081   5.346   4.197   1.848 -1.2076  0.2352 -0.7922
  124OSM   H13C13082   5.392   4.188   1.680  1.0665 -0.5092  0.5380
  124OSM    C1213083   5.657   4.216   1.714  0.2896 -0.2309 -0.3253
  124OSM   H12A13084   5.660   4.320   1.688 -0.4337 -0.2331 -0.4435
  124OSM   H12B13085   5.633   4.155   1.628  0.8403  0.6721 -1.1324
  124OSM    C1113086   5.803   4.187   1.754 -0.4338 -0.3573  0.6166
  124OSM   H11A13087   5.868   4.189   1.664 -0.3181 -1.1109  0.6786
  124OSM   H11B13088   5.809   4.087   1.802 -1.6416 -0.8341 -0.1930
  124OSM      P13089   5.864   4.440   1.829 -0.1125  0.2875  0.3418
  124OSM    O1313090   5.985   4.465   1.743  0.5628 -0.8599 -0.7584
  124OSM    O1413091   5.735   4.506   1.789 -0.7775 -0.4797  0.7590
  124OSM    O1113092   5.906   4.488   1.975  0.3052  0.3579  0.2311
  124OSM    O1213093   5.856   4.280   1.849  0.2804 -0.2311 -0.1711
  124OSM    C1S13094   6.019   4.435   2.054  0.9467  0.4891  0.3948
  124OSM    H1S13095   6.105   4.500   2.026  0.4418  1.2706  0.6026
  124OSM    H1T13096   6.049   4.330   2.037  1.6837  0.7940 -0.2338
  124OSM     NF13097   6.127   4.405   2.277 -0.4112 -0.2529 -0.0913
  124OSM    HNF13098   6.139   4.314   2.316 -0.6263  0.3575  1.4892
  124OSM    C2S13099   6.003   4.444   2.208  0.0703  0.6150 -0.5683
  124OSM    H2S13100   5.979   4.548   2.238 -1.5127 -0.3138  1.6827
  124OSM    C3S13101   5.876   4.361   2.254 -0.0393 -0.3986  0.6848
  124OSM    H3S13102   5.896   4.257   2.220  2.7493  0.1808  0.2448
  124OSM     O313103   5.751   4.402   2.207 -0.6456  0.7830  0.5827
  124OSM    HO313104   5.767   4.465   2.136 -1.7336  0.9090  0.4355
  124OSM    C4S13105   5.866   4.361   2.397  0.1602 -0.2862  0.1577
  124OSM    H4S13106   5.810   4.450   2.429 -1.0285 -1.6712  2.1440
  124OSM    C5S13107   5.878   4.261   2.489 -0.3699 -0.0540 -1.1783
  124OSM    H5S13108   5.906   4.160   2.458  0.8563  0.0828 -0.5733
  124OSM    C6S13109   5.844   4.268   2.637  0.3504  0.4968  0.6539
  124OSM    H6S13110   5.904   4.184   2.678 -0.3561 -0.0786  0.5433
  124OSM    H6T13111   5.741   4.235   2.660  0.0730  1.7623  1.2958
  124OSM    C7S13112   5.870   4.393   2.710 -0.3095  0.4953 -0.1275
  124OSM    H7S13113   5.794   4.467   2.678 -1.4085 -1.0620 -1.2517
  124OSM    H7T13114   5.973   4.423   2.681  0.3407 -0.9737  0.5832
  124OSM    C8S13115   5.867   4.364   2.860 -0.2296 -0.3538 -0.5865
  124OSM    H8S13116   5.908   4.455   2.909 -0.9370  0.6347 -1.7714
  124OSM    H8T13117   5.936   4.280   2.883  0.8438  0.8130  0.7049
  124OSM    C9S13118   5.733   4.333   2.924 -0.3145 -0.6576  0.1839
  124OSM    H9S13119   5.684   4.241   2.886 -2.6746  0.6066 -0.0302
  124OSM    H9T13120   5.668   4.417   2.892  2.8706  1.5961 -0.9455
  124OSM   C10S13121   5.751   4.314   3.084  0.0248 -0.3956  0.2047
  124OSM   H10S13122   5.803   4.400   3.132 -0.5436  0.3449 -0.4906
  124OSM   H10T13123   5.810   4.222   3.099 -1.0849 -0.8336  2.3845
  124OSM   C11S13124   5.613   4.294   3.152 -0.2406  0.0744 -0.9863
  124OSM   H11S13125   5.553   4.215   3.103 -0.0333 -0.9372  0.3082
  124OSM   H11T13126   5.570   4.393   3.126  0.4547  0.0106 -2.5021
  124OSM   C12S13127   5.621   4.263   3.308  0.3172  0.6310 -0.5343
  124OSM   H12S13128   5.677   4.344   3.360  0.3450 -0.7955  1.8071
  124OSM   H12T13129   5.675   4.166   3.317  1.8034  1.5906  1.5195
  124OSM   C13S13130   5.472   4.255   3.362 -0.9398  0.4131 -1.0493
  124OSM   H13S13131   5.415   4.181   3.300  0.5463  0.0892 -2.0804
  124OSM   H13T13132   5.427   4.355   3.346  0.6421  1.1351 -1.1455
  124OSM   C14S13133   5.465   4.220   3.512  0.1331 -0.1783 -0.0947
  124OSM   H14S13134   5.506   4.311   3.561  1.3346 -1.5137  1.5074
  124OSM   H14T13135   5.531   4.132   3.528 -1.1029 -0.9781  0.7443
  124OSM   C15S13136   5.324   4.176   3.561 -0.6233 -0.5087 -0.2219
  124OSM   H15S13137   5.295   4.105   3.480 -0.0898  0.8990 -1.6925
  124OSM   H15T13138   5.261   4.266   3.554 -2.8529 -2.1012 -1.9977
  124OSM   C16S13139   5.312   4.116   3.702  0.0605 -0.0288 -0.0584
  124OSM   H16S13140   5.356   4.185   3.777  1.4985 -0.2060 -0.7064
  124OSM   H16T13141   5.382   4.032   3.718  0.3203  0.3277  0.7805
  124OSM   C17S13142   5.172   4.072   3.733  0.0557 -0.1596  0.4827
  124OSM   H17S13143   5.107   4.162   3.727  0.4186 -0.0100 -2.7698
  124OSM   H17T13144   5.167   4.040   3.839  1.8889  2.1092  1.3423
  124OSM   C18S13145   5.113   3.969   3.637  0.9413 -0.2570  0.4720
  124OSM   H18S13146   5.092   4.018   3.539  2.2373  0.3555  0.4772
  124OSM   H18T13147   5.019   3.924   3.674 -1.1334  2.8331 -0.6706
  124OSM   H18U13148   5.189   3.890   3.616  0.0188 -1.1953  0.5616
  124OSM    C1F13149   6.231   4.481   2.275  0.2029  0.0603  0.6023
  124OSM     OF13150   6.218   4.592   2.223  0.1527 -0.2960 -0.2711
  124OSM    C2F13151   6.360   4.437   2.328 -0.0460  1.0930 -0.6856
  124OSM    H2F13152   6.405   4.527   2.375 -1.8801  2.1913 -0.9097
  124OSM    H2G13153   6.422   4.417   2.238  0.5130 -0.9410  0.1026
  124OSM    C3F13154   6.369   4.297   2.400 -0.3264 -0.7493 -0.3132
  124OSM    H3F13155   6.478   4.276   2.406  0.1584  1.8140  4.4919
  124OSM    H3G13156   6.320   4.219   2.337 -3.4596 -0.9920  2.1457
  124OSM    C4F13157   6.293   4.283   2.534 -0.0148 -0.2858  0.9016
  124OSM    H4F13158   6.298   4.173   2.551 -1.3541 -0.2871  1.4278
  124OSM    H4G13159   6.185   4.309   2.526  0.0540 -0.1961  0.1412
  124OSM    C5F13160   6.359   4.359   2.647  0.3282 -0.0258  0.2496
  124OSM    H5F13161   6.358   4.469   2.630  1.7631 -0.3430 -2.2795
  124OSM    H5G13162   6.463   4.321   2.653 -0.1277 -1.6776 -1.5455
  124OSM    C6F13163   6.300   4.344   2.786 -0.2233  1.0178 -0.2062
  124OSM    H6F13164   6.306   4.241   2.829 -2.2525  0.7533 -0.4792
  124OSM    H6G13165   6.193   4.372   2.782 -0.7873 -1.0651 -0.9354
  124OSM    C7F13166   6.370   4.441   2.878 -0.4738 -0.4611 -0.0413
  124OSM    H7F13167   6.376   4.546   2.842  1.8869 -0.0234  1.3959
  124OSM    H7G13168   6.476   4.414   2.896 -0.0041  0.3675 -1.4380
  124OSM    C8F13169   6.320   4.447   3.026  0.7249 -0.2889  1.1928
  124OSM    H8F13170   6.392   4.508   3.084  2.5197  0.1289 -1.3172
  124OSM    H8G13171   6.314   4.341   3.059 -0.3594  0.2220  2.7187
  124OSM    C9F13172   6.188   4.521   3.029  0.4514 -0.0440 -0.0614
  124OSM    H9F13173   6.160   4.569   2.934 -2.9467 -2.1667 -0.3145
  124OSM   C10F13174   6.098   4.528   3.131 -0.5473 -0.1664 -0.2835
  124OSM   H10F13175   6.000   4.572   3.105 -1.1171 -0.1031  1.8334
  124OSM   C11F13176   6.116   4.477   3.268 -0.1939  0.0985 -0.0637
  124OSM   H11F13177   6.125   4.570   3.328 -1.2201  1.2270 -1.6087
  124OSM   H11G13178   6.219   4.435   3.270 -0.0065  0.5367 -0.4918
  124OSM   C12F13179   6.029   4.381   3.345 -0.0897  0.6181  0.8577
  124OSM   H12F13180   6.046   4.286   3.291  1.3379  1.9514 -1.1974
  124OSM   H12G13181   5.923   4.401   3.320 -0.0221 -0.2422 -0.1951
  124OSM   C13F13182   6.050   4.366   3.494  0.1339 -0.4850 -0.2657
  124OSM   H13F13183   6.155   4.351   3.528 -0.8741 -1.5859  2.6674
  124OSM   H13G13184   5.988   4.279   3.527  1.0983 -1.6144 -1.3121
  124OSM   C14F13185   6.013   4.498   3.560 -0.1436 -0.1932  0.7077
  124OSM   H14F13186   5.923   4.541   3.511  0.1311 -0.2321  0.1642
  124OSM   H14G13187   6.098   4.569   3.557 -0.6805  0.4682  0.7896
  124OSM   C15F13188   5.956   4.471   3.702 -0.7827  0.2971 -0.7810
  124OSM   H15F13189   6.019   4.393   3.750  0.3413  2.5086  1.5547
  124OSM   H15G13190   5.859   4.418   3.700 -0.6854 -0.1264  2.0813
  124OSM   C16F13191   5.938   4.594   3.782  0.6647 -0.3783  0.3617
  124OSM   H16F13192   5.860   4.664   3.744 -0.3965 -1.2439  0.8980
  124OSM   H16G13193   6.032   4.653   3.781 -0.3473  1.3164 -1.3516
  124OSM   C17F13194   5.912   4.557   3.927 -1.0515  0.6571 -0.0930
  124OSM   H17F13195   5.987   4.484   3.963 -2.1537 -0.0760  0.7770
  124OSM   H17G13196   5.820   4.495   3.932  0.6649 -2.1523 -1.0027
  124OSM   C18F13197   5.921   4.670   4.035  0.1040 -0.6933 -0.4121
  124OSM   H18F13198   6.005   4.742   4.030  0.0777 -0.7315 -1.6711
  124OSM   H18G13199   5.917   4.632   4.139 -1.7373 -0.6675 -0.4323
  124OSM   H18H13200   5.832   4.736   4.028  1.0114  0.7476  0.9137
  125OSM      N13201   4.806   1.738   1.676  0.0452  0.4221  0.1398
  125OSM    C1513202   4.878   1.621   1.613  0.9873  0.6349  0.4581
  125OSM   H15A13203   4.855   1.610   1.508  0.6000 -2.5932  0.7881
  125OSM   H15B13204   4.857   1.532   1.670  1.2311  1.2727  1.5833
  125OSM   H15C13205   4.985   1.637   1.622  0.8451  0.7574  2.2743
  125OSM    C1413206   4.881   1.774   1.802 -0.2253 -0.3826  0.9789
  125OSM   H14A13207   4.835   1.855   1.858  0.8780  1.3127 -0.4499
  125OSM   H14B13208   4.983   1.799   1.774 -1.6781  1.3913 -3.6533
  125OSM   H14C13209   4.881   1.687   1.866 -4.1643  1.1195  3.4385
  125OSM    C1313210   4.782   1.857   1.586  1.3366  0.1393 -0.2230
  125OSM   H13A13211   4.722   1.930   1.639  2.3989  0.4272  0.6041
  125OSM   H13B13212   4.735   1.821   1.495  3.2096 -0.1685 -1.1210
  125OSM   H13C13213   4.874   1.903   1.555  0.1112  1.0571 -2.8533
  125OSM    C1213214   4.657   1.693   1.721 -0.0654 -0.9625 -0.0474
  125OSM   H12A13215   4.606   1.668   1.629  1.2959  0.4890 -1.2454
  125OSM   H12B13216   4.608   1.784   1.753  0.5419  0.5990 -3.2197
  125OSM    C1113217   4.645   1.594   1.839  0.5350 -0.0754  0.4980
  125OSM   H11A13218   4.541   1.584   1.876 -0.5471  0.0492 -2.2886
  125OSM   H11B13219   4.702   1.635   1.926  1.1144 -0.9383  0.5416
  125OSM      P13220   4.626   1.377   1.697  0.1997  0.5626 -0.2572
  125OSM    O1313221   4.502   1.428   1.635 -0.0532  0.6179 -0.1685
  125OSM    O1413222   4.725   1.334   1.598  0.0287 -0.1874 -0.6787
  125OSM    O1113223   4.588   1.248   1.783  0.5705 -0.6821  0.3815
  125OSM    O1213224   4.689   1.469   1.798 -0.1800  0.1807 -0.4630
  125OSM    C1S13225   4.534   1.262   1.919 -0.1092 -0.0107  0.7910
  125OSM    H1S13226   4.589   1.341   1.974  0.3253 -0.8816  1.6538
  125OSM    H1T13227   4.552   1.174   1.986 -3.8230 -1.1014  0.5593
  125OSM     NF13228   4.358   1.288   2.065 -0.4644  0.0551  0.3615
  125OSM    HNF13229   4.334   1.207   2.118  1.4504 -0.9198 -0.2007
  125OSM    C2S13230   4.384   1.269   1.925  0.0283  0.1227 -0.5313
  125OSM    H2S13231   4.346   1.358   1.870 -0.4247 -0.4048 -1.0761
  125OSM    C3S13232   4.322   1.139   1.871  0.3687  0.1831  0.1635
  125OSM    H3S13233   4.336   1.048   1.933 -0.1453 -1.4873 -2.0239
  125OSM     O313234   4.383   1.090   1.740  0.2805  0.2969 -0.4763
  125OSM    HO313235   4.466   1.139   1.739 -0.0005  0.7678 -1.7358
  125OSM    C4S13236   4.176   1.160   1.855 -0.1639 -0.8204  0.7153
  125OSM    H4S13237   4.146   1.259   1.817  2.5222 -0.5061 -0.8688
  125OSM    C5S13238   4.082   1.072   1.903 -0.0438 -0.0259  0.3130
  125OSM    H5S13239   4.112   0.971   1.936 -1.1399  0.3261  2.6118
  125OSM    C6S13240   3.935   1.097   1.883  0.0245  0.3434  0.5616
  125OSM    H6S13241   3.884   1.006   1.844  0.9429 -0.7276  1.7603
  125OSM    H6T13242   3.922   1.180   1.810  2.3293  2.3730  2.2934
  125OSM    C7S13243   3.860   1.131   2.018 -0.2162  0.2684  0.0912
  125OSM    H7S13244   3.903   1.215   2.077 -3.9150  2.0522  0.5350
  125OSM    H7T13245   3.879   1.041   2.080 -0.1107  1.0459  1.2161
  125OSM    C8S13246   3.710   1.159   1.993 -0.0890 -0.0636 -0.1096
  125OSM    H8S13247   3.668   1.076   1.933  0.9587 -1.2428  0.7444
  125OSM    H8T13248   3.702   1.252   1.932  0.9958  0.6051  0.7346
  125OSM    C9S13249   3.631   1.186   2.122 -0.1428  0.7412 -0.2830
  125OSM    H9S13250   3.524   1.197   2.094 -0.8809 -1.4467  1.3396
  125OSM    H9T13251   3.655   1.280   2.175 -0.2647  1.0235 -0.7202
  125OSM   C10S13252   3.641   1.059   2.224 -0.3267 -0.1307  0.8670
  125OSM   H10S13253   3.748   1.032   2.239 -0.5419 -0.0844  2.6333
  125OSM   H10T13254   3.605   0.974   2.162  0.1060  0.7945 -0.7123
  125OSM   C11S13255   3.567   1.066   2.355  0.5644  0.2621  0.6192
  125OSM   H11S13256   3.620   1.147   2.409  0.3772  1.2904 -0.6826
  125OSM   H11T13257   3.567   0.967   2.405 -0.2159 -1.5012 -2.5837
  125OSM   C12S13258   3.413   1.094   2.335  0.0102  0.1964  0.3357
  125OSM   H12S13259   3.374   1.018   2.263  1.2327  2.0578 -2.4548
  125OSM   H12T13260   3.403   1.198   2.297 -0.3002  0.7154  1.7831
  125OSM   C13S13261   3.335   1.069   2.468  0.0958 -0.3386 -0.0844
  125OSM   H13S13262   3.358   0.964   2.497  1.6192 -0.2618 -0.9384
  125OSM   H13T13263   3.225   1.069   2.450  0.2743 -0.3842 -1.3046
  125OSM   C14S13264   3.370   1.172   2.582 -0.7985  0.6834 -0.2010
  125OSM   H14S13265   3.270   1.207   2.614 -1.7086 -1.1139 -0.9466
  125OSM   H14T13266   3.435   1.256   2.549 -0.2005 -0.2936 -1.6406
  125OSM   C15S13267   3.435   1.104   2.709 -0.1788 -0.1441  0.0711
  125OSM   H15S13268   3.504   1.171   2.763  0.1692  1.0120 -1.7062
  125OSM   H15T13269   3.491   1.015   2.673 -0.5421 -0.5920  0.6024
  125OSM   C16S13270   3.339   1.048   2.822 -0.4434  0.7407 -0.2098
  125OSM   H16S13271   3.404   0.997   2.898 -1.0692 -1.5729 -1.1318
  125OSM   H16T13272   3.269   0.974   2.778  0.1384  0.5646 -0.8708
  125OSM   C17S13273   3.248   1.149   2.898  0.1891  0.2218 -0.1293
  125OSM   H17S13274   3.183   1.095   2.970  1.8829 -1.2544  0.3557
  125OSM   H17T13275   3.174   1.193   2.827 -0.9804  0.4116  1.1799
  125OSM   C18S13276   3.315   1.258   2.975 -1.0110  0.0705 -0.8459
  125OSM   H18S13277   3.410   1.296   2.933 -0.2960  0.0728  0.7155
  125OSM   H18T13278   3.356   1.222   3.071  1.1706  1.1118 -1.3351
  125OSM   H18U13279   3.235   1.333   2.993  0.1207  0.6178  2.5513
  125OSM    C1F13280   4.356   1.415   2.120  0.5792 -0.3628 -0.0558
  125OSM     OF13281   4.384   1.509   2.045  0.3582 -0.3417 -0.1300
  125OSM    C2F13282   4.336   1.441   2.264 -0.0561 -0.2760 -0.3955
  125OSM    H2F13283   4.280   1.535   2.280 -3.2448 -2.3110  1.5665
  125OSM    H2G13284   4.438   1.451   2.308 -0.6150 -0.5187  0.9859
  125OSM    C3F13285   4.278   1.320   2.344  0.5683  0.8007  0.1426
  125OSM    H3F13286   4.340   1.230   2.325 -1.6692 -0.8880  0.5588
  125OSM    H3G13287   4.178   1.293   2.303  0.2942  0.6208  0.9237
  125OSM    C4F13288   4.266   1.354   2.485  0.8360  0.4733  0.6298
  125OSM    H4F13289   4.211   1.449   2.503 -0.5671 -0.1962  0.0179
  125OSM    H4G13290   4.370   1.375   2.517  1.6955  2.4948 -2.8857
  125OSM    C5F13291   4.196   1.234   2.560 -0.4645  0.3310 -0.2076
  125OSM    H5F13292   4.249   1.141   2.532  0.1053  0.3867  0.6636
  125OSM    H5G13293   4.090   1.233   2.526 -0.9098  0.0821  1.1567
  125OSM    C6F13294   4.203   1.242   2.712  0.3444 -0.1930 -0.2650
  125OSM    H6F13295   4.312   1.244   2.733 -0.1561  0.1790  2.6158
  125OSM    H6G13296   4.167   1.144   2.751 -0.1728 -0.2790 -0.9318
  125OSM    C7F13297   4.132   1.360   2.783 -0.9630  0.1401  0.1810
  125OSM    H7F13298   4.022   1.351   2.771 -1.3116  2.3238  1.2849
  125OSM    H7G13299   4.156   1.462   2.744 -0.1182 -0.4899 -1.0372
  125OSM    C8F13300   4.161   1.360   2.935  0.4539 -0.5973  0.5030
  125OSM    H8F13301   4.166   1.255   2.971  0.4561 -1.2655 -1.3537
  125OSM    H8G13302   4.080   1.416   2.987  1.8157  0.3623  1.6957
  125OSM    C9F13303   4.295   1.425   2.960  0.1095  0.6499  0.5110
  125OSM    H9F13304   4.369   1.406   2.881  1.1016 -1.2331  1.7871
  125OSM   C10F13305   4.338   1.500   3.061  0.0235  0.5940  0.3882
  125OSM   H10F13306   4.445   1.524   3.068  0.5696  0.3518 -4.0712
  125OSM   C11F13307   4.273   1.535   3.191  0.5128 -1.1522 -0.0887
  125OSM   H11F13308   4.171   1.498   3.213 -0.5518  1.6430  0.0823
  125OSM   H11G13309   4.266   1.646   3.199  1.0245 -1.1956  1.1831
  125OSM   C12F13310   4.377   1.493   3.306  0.3903 -0.0158 -0.2122
  125OSM   H12F13311   4.481   1.531   3.299  0.3837 -0.1177 -0.8773
  125OSM   H12G13312   4.380   1.383   3.292  0.5917  0.1614 -1.6888
  125OSM   C13F13313   4.312   1.515   3.438  0.2902 -0.9500 -0.3226
  125OSM   H13F13314   4.202   1.496   3.442  0.0576  0.4426  1.2981
  125OSM   H13G13315   4.327   1.619   3.474  0.9439 -0.4004 -2.0486
  125OSM   C14F13316   4.367   1.424   3.550  0.7594  0.3940  0.3390
  125OSM   H14F13317   4.475   1.448   3.551  1.3704 -1.6897 -2.3538
  125OSM   H14G13318   4.358   1.321   3.509 -2.0238  0.4759  0.5237
  125OSM   C15F13319   4.295   1.453   3.679 -0.3133 -0.7868  0.5923
  125OSM   H15F13320   4.190   1.418   3.685 -1.1388  1.5964  1.3077
  125OSM   H15G13321   4.279   1.563   3.687  0.0046 -0.7325  0.5044
  125OSM   C16F13322   4.378   1.402   3.800  0.5077 -0.2331  0.3818
  125OSM   H16F13323   4.486   1.397   3.772  0.5791  2.9297 -0.3685
  125OSM   H16G13324   4.352   1.297   3.822 -0.4097 -0.0745  0.0894
  125OSM   C17F13325   4.356   1.484   3.927 -0.0703  0.3127 -0.1203
  125OSM   H17F13326   4.427   1.440   4.000  0.2492 -1.4627 -1.4395
  125OSM   H17G13327   4.249   1.476   3.958 -0.5405 -0.2344 -1.7723
  125OSM   C18F13328   4.393   1.632   3.918 -0.8664  0.5309 -0.2188
  125OSM   H18F13329   4.310   1.696   3.882 -1.2342 -0.7597 -1.7834
  125OSM   H18G13330   4.483   1.637   3.853 -1.1019 -1.6709 -0.7972
  125OSM   H18H13331   4.439   1.666   4.013 -0.1156 -0.9880 -0.0132
  126OSM      N13332   1.332   0.280   1.651  0.3270 -0.5046 -0.9284
  126OSM    C1513333   1.483   0.265   1.644 -0.2802 -0.8269  0.2388
  126OSM   H15A13334   1.515   0.162   1.648  2.9966 -0.0069 -1.2543
  126OSM   H15B13335   1.523   0.309   1.735  0.5113  0.3549 -0.6475
  126OSM   H15C13336   1.525   0.304   1.552  0.3924 -2.5109 -0.2014
  126OSM    C1413337   1.261   0.191   1.756 -0.5127 -0.3755  0.4342
  126OSM   H14A13338   1.282   0.086   1.737  1.4998 -0.2516  1.6688
  126OSM   H14B13339   1.155   0.206   1.737 -0.8343 -2.2542  0.5501
  126OSM   H14C13340   1.280   0.219   1.858 -0.3691  0.0796  0.2853
  126OSM    C1313341   1.314   0.422   1.688 -0.3261  0.2094 -0.4396
  126OSM   H13A13342   1.386   0.469   1.623  1.2377 -2.4193 -0.7591
  126OSM   H13B13343   1.341   0.440   1.792 -2.0998 -2.5547  0.6049
  126OSM   H13C13344   1.217   0.462   1.665  0.0630  1.7500  0.4620
  126OSM    C1213345   1.276   0.267   1.505 -0.6083  0.4903 -0.8956
  126OSM   H12A13346   1.328   0.181   1.466  0.2650  0.5347  0.1299
  126OSM   H12B13347   1.307   0.353   1.447 -1.7253  0.7842 -1.0774
  126OSM    C1113348   1.120   0.257   1.485  0.5641 -0.6243  0.5625
  126OSM   H11A13349   1.089   0.160   1.529 -2.0906 -0.3083 -0.3879
  126OSM   H11B13350   1.095   0.250   1.377 -0.9198 -1.4498  0.9339
  126OSM      P13351   0.890   0.368   1.578 -0.0042  0.3206  0.4639
  126OSM    O1313352   0.834   0.492   1.631 -0.0312 -0.1818  0.0690
  126OSM    O1413353   0.829   0.317   1.455  0.0846 -0.3153  0.2833
  126OSM    O1113354   0.874   0.261   1.693 -0.2507  0.5178  0.1867
  126OSM    O1213355   1.049   0.366   1.553  0.3001 -0.5945 -0.4107
  126OSM    C1S13356   0.922   0.278   1.823 -0.2207 -0.2511 -0.1905
  126OSM    H1S13357   0.960   0.381   1.842 -0.2050 -0.4583  1.0078
  126OSM    H1T13358   1.012   0.215   1.835 -0.4272 -0.5298 -0.0865
  126OSM     NF13359   0.879   0.279   2.075 -0.7838 -0.0567  0.4948
  126OSM    HNF13360   0.911   0.213   2.143 -2.7728  0.1164  1.6885
  126OSM    C2S13361   0.831   0.228   1.940  0.2815 -0.2155 -0.9334
  126OSM    H2S13362   0.734   0.283   1.940  1.1160  1.3103 -0.9499
  126OSM    C3S13363   0.804   0.075   1.932  0.5988  0.4276 -0.3492
  126OSM    H3S13364   0.892   0.020   1.972  0.5699 -0.4231 -1.4297
  126OSM     O313365   0.790   0.034   1.794  0.4157  0.3333  0.3116
  126OSM    HO313366   0.814   0.118   1.755 -0.7733  1.4701  1.8984
  126OSM    C4S13367   0.678   0.031   2.008 -0.0876  0.1257  0.6873
  126OSM    H4S13368   0.589   0.063   1.952 -0.1175  0.1687  0.7580
  126OSM    C5S13369   0.675  -0.027   2.133  0.0991 -0.1398  0.0723
  126OSM    H5S13370   0.766  -0.066   2.182 -1.8320 -3.1753  1.5113
  126OSM    C6S13371   0.545  -0.057   2.197  0.3176 -0.2362 -0.0882
  126OSM    H6S13372   0.521  -0.165   2.200 -2.7378  0.2814 -1.7564
  126OSM    H6T13373   0.469  -0.013   2.130  0.9800 -1.8030 -1.9495
  126OSM    C7S13374   0.535  -0.003   2.340 -0.2133  0.1752 -0.0910
  126OSM    H7S13375   0.578   0.098   2.355  1.1118 -0.5992  1.7355
  126OSM    H7T13376   0.606  -0.056   2.407 -0.5849 -2.2685 -1.5031
  126OSM    C8S13377   0.392  -0.001   2.386  0.0197  0.8205 -0.3294
  126OSM    H8S13378   0.363  -0.107   2.403 -2.0661  1.4148  0.1109
  126OSM    H8T13379   0.318   0.023   2.307 -1.7223 -0.6889  0.7760
  126OSM    C9S13380   0.360   0.073   2.515 -0.1490  0.5478 -0.1179
  126OSM    H9S13381   0.250   0.066   2.525 -0.5046  2.2554 -2.1171
  126OSM    H9T13382   0.382   0.181   2.504  1.7192  0.6266  3.1740
  126OSM   C10S13383   0.446   0.029   2.637  0.0400  0.2762  0.4991
  126OSM   H10S13384   0.550   0.068   2.640  0.8642 -1.8097  1.0660
  126OSM   H10T13385   0.466  -0.080   2.637 -1.7845 -0.0977 -0.5629
  126OSM   C11S13386   0.381   0.065   2.776 -0.0285  1.1636  0.0296
  126OSM   H11S13387   0.273   0.040   2.765 -0.4408  2.7979  0.1218
  126OSM   H11T13388   0.396   0.174   2.792  0.9664  0.9402  0.6683
  126OSM   C12S13389   0.453  -0.003   2.895  0.2746 -0.1259 -0.3160
  126OSM   H12S13390   0.564   0.004   2.895  0.5737 -3.0629  1.0994
  126OSM   H12T13391   0.412  -0.107   2.894 -0.4660  0.1362  0.8815
  126OSM   C13S13392   0.406   0.056   3.028  0.3350 -0.2625  0.5859
  126OSM   H13S13393   0.296   0.041   3.026  0.1012  1.3697 -0.1495
  126OSM   H13T13394   0.422   0.166   3.034  0.3428 -0.3338  2.1378
  126OSM   C14S13395   0.476  -0.015   3.149  0.3010  0.5171  0.6984
  126OSM   H14S13396   0.577   0.030   3.157  0.6502 -0.3619  1.5062
  126OSM   H14T13397   0.481  -0.124   3.129  0.6873  0.3699  1.5432
  126OSM   C15S13398   0.396   0.009   3.275 -0.2338  0.2880  0.1344
  126OSM   H15S13399   0.294  -0.021   3.243 -0.3224  1.1567 -0.4508
  126OSM   H15T13400   0.400   0.116   3.305 -1.5271  0.4378 -0.1784
  126OSM   C16S13401   0.432  -0.091   3.386 -0.5340  0.1553  0.4561
  126OSM   H16S13402   0.529  -0.143   3.369 -1.3263 -1.4077  0.5043
  126OSM   H16T13403   0.362  -0.177   3.377 -0.5083 -0.1171  2.3763
  126OSM   C17S13404   0.428  -0.025   3.515  0.1574  0.1927  0.2171
  126OSM   H17S13405   0.322  -0.002   3.541  0.3881  0.1719  1.2348
  126OSM   H17T13406   0.495   0.063   3.524  1.3142 -0.7028  0.6855
  126OSM   C18S13407   0.471  -0.117   3.630 -0.1031 -0.2217 -0.4725
  126OSM   H18S13408   0.503  -0.047   3.710 -1.6663  0.4253 -0.3737
  126OSM   H18T13409   0.559  -0.179   3.604 -0.2564 -1.0326  0.8506
  126OSM   H18U13410   0.384  -0.176   3.665 -0.8105  1.3900  0.6364
  126OSM    C1F13411   0.883   0.405   2.111 -0.0080 -0.5004 -0.3429
  126OSM     OF13412   0.832   0.492   2.042 -0.0460  0.4537 -0.1981
  126OSM    C2F13413   0.952   0.434   2.247 -0.4496  0.6339 -0.0536
  126OSM    H2F13414   1.036   0.362   2.258 -1.5709 -1.1292 -2.0839
  126OSM    H2G13415   0.880   0.431   2.332  0.5194  0.6285  0.7786
  126OSM    C3F13416   1.015   0.580   2.253 -0.1935  0.2286  0.6206
  126OSM    H3F13417   0.930   0.652   2.251 -2.0763 -1.7510  3.2647
  126OSM    H3G13418   1.076   0.588   2.160 -0.9729 -2.5983 -0.2276
  126OSM    C4F13419   1.101   0.603   2.364  0.3288 -0.9531 -0.1963
  126OSM    H4F13420   1.151   0.703   2.360 -2.4238  0.6348  1.4926
  126OSM    H4G13421   1.184   0.530   2.371  0.8796 -0.3319 -0.1009
  126OSM    C5F13422   1.036   0.582   2.498 -0.3455 -0.6044  0.4089
  126OSM    H5F13423   1.003   0.478   2.521 -2.1043 -0.1474  0.0584
  126OSM    H5G13424   0.940   0.638   2.500 -0.4767 -0.8260  2.0225
  126OSM    C6F13425   1.127   0.632   2.613  0.6441 -0.7267  0.1963
  126OSM    H6F13426   1.193   0.714   2.577  0.9666 -1.0893 -0.0432
  126OSM    H6G13427   1.194   0.548   2.639  1.2824 -0.4068 -0.3867
  126OSM    C7F13428   1.050   0.690   2.730 -0.1212  0.1603 -0.4069
  126OSM    H7F13429   0.970   0.621   2.764 -0.1924  1.3357  1.9906
  126OSM    H7G13430   1.013   0.788   2.693 -0.9849 -0.1328 -0.3394
  126OSM    C8F13431   1.138   0.723   2.856  0.7866  0.1416 -0.7729
  126OSM    H8F13432   1.074   0.794   2.912  1.9801  1.4791 -1.0360
  126OSM    H8G13433   1.232   0.777   2.830 -0.4358  2.4431 -0.6664
  126OSM    C9F13434   1.172   0.598   2.922 -0.4313  0.3355  0.7061
  126OSM    H9F13435   1.181   0.515   2.851 -0.7170  0.0624  0.9864
  126OSM   C10F13436   1.200   0.577   3.048  0.6266 -0.3150 -0.1378
  126OSM   H10F13437   1.251   0.484   3.078  1.9050  0.0415 -1.0698
  126OSM   C11F13438   1.190   0.677   3.160  0.2667  0.5243 -0.2982
  126OSM   H11F13439   1.156   0.775   3.120  0.8339  0.1900 -1.6521
  126OSM   H11G13440   1.291   0.694   3.202  0.9846 -0.8461 -1.3782
  126OSM   C12F13441   1.092   0.636   3.268 -0.3774 -0.0395 -0.6537
  126OSM   H12F13442   0.985   0.627   3.240 -1.7048 -3.2291  4.2290
  126OSM   H12G13443   1.098   0.716   3.344 -1.3366  1.3327 -1.9698
  126OSM   C13F13444   1.124   0.499   3.338  0.1010  0.5261 -0.0638
  126OSM   H13F13445   1.226   0.461   3.318 -0.0950 -1.1842  1.9072
  126OSM   H13G13446   1.071   0.422   3.278  0.8266  1.5499 -2.1083
  126OSM   C14F13447   1.078   0.481   3.483  0.5551 -0.3542  0.4848
  126OSM   H14F13448   0.973   0.516   3.473  0.1533 -1.4901  0.5808
  126OSM   H14G13449   1.124   0.553   3.553 -1.2899  1.6374 -0.2441
  126OSM   C15F13450   1.081   0.336   3.536  0.5426 -0.1913  0.4245
  126OSM   H15F13451   1.183   0.296   3.556  0.9630  1.0636  0.8556
  126OSM   H15G13452   1.035   0.269   3.459  0.2401  0.6796 -0.1671
  126OSM   C16F13453   0.997   0.325   3.662 -0.7253 -0.3822  1.0313
  126OSM   H16F13454   0.947   0.227   3.654  0.4170 -0.8773 -0.7538
  126OSM   H16G13455   0.924   0.408   3.651  1.0330  0.9550 -1.7243
  126OSM   C17F13456   1.087   0.338   3.785  0.4013 -0.1035 -0.8046
  126OSM   H17F13457   1.125   0.442   3.793  0.0134 -0.0864  2.2696
  126OSM   H17G13458   1.167   0.262   3.773  0.6092 -0.0804  0.2683
  126OSM   C18F13459   1.010   0.293   3.911 -0.6895  0.2482  0.0077
  126OSM   H18F13460   1.081   0.279   3.995 -1.7167 -0.3369  0.7963
  126OSM   H18G13461   0.940   0.207   3.910 -0.9461  0.4107  1.4422
  126OSM   H18H13462   0.944   0.379   3.933  0.7388  1.7543 -1.3181
  127OSM      N13463   6.752   2.233   1.617 -0.2190 -0.2785  0.0516
  127OSM    C1513464   6.773   2.102   1.555  0.3939  1.0461 -0.7010
  127OSM   H15A13465   6.853   2.104   1.483  1.0522 -1.2479 -0.1050
  127OSM   H15B13466   6.688   2.067   1.498 -0.2831 -0.3471  1.0433
  127OSM   H15C13467   6.793   2.033   1.636  0.1467  1.2583 -0.4554
  127OSM    C1413468   6.881   2.295   1.674  0.2014 -0.4493 -0.3419
  127OSM   H14A13469   6.867   2.395   1.714  1.2206  0.1197 -1.3582
  127OSM   H14B13470   6.961   2.313   1.604  1.3569  1.3522  1.3005
  127OSM   H14C13471   6.924   2.227   1.746  1.3529 -0.8885 -1.4032
  127OSM    C1313472   6.713   2.334   1.508 -0.5682 -0.5152  0.1543
  127OSM   H13A13473   6.711   2.434   1.549 -1.4608  0.7429 -2.7246
  127OSM   H13B13474   6.629   2.282   1.465 -0.9877 -0.0739  0.4375
  127OSM   H13C13475   6.797   2.332   1.440 -0.5296  1.3494  0.1044
  127OSM    C1213476   6.644   2.241   1.726  0.1497 -0.5163 -0.4806
  127OSM   H12A13477   6.549   2.206   1.689  0.0422 -0.9263  0.1653
  127OSM   H12B13478   6.630   2.341   1.766  1.2864 -0.7674  0.6289
  127OSM    C1113479   6.667   2.155   1.855 -0.2986  0.0791 -0.5833
  127OSM   H11A13480   6.585   2.161   1.930  1.4072 -0.7640  1.4533
  127OSM   H11B13481   6.754   2.198   1.909  0.5009 -0.8029 -1.1516
  127OSM      P13482   6.785   1.936   1.914  0.0674 -0.3075 -0.0383
  127OSM    O1313483   6.740   1.793   1.913 -0.0974 -0.8747 -0.3763
  127OSM    O1413484   6.914   1.962   1.850 -0.2789  0.0099  0.2540
  127OSM    O1113485   6.781   2.002   2.057  0.2424 -0.8719 -0.1701
  127OSM    O1213486   6.672   2.015   1.831  0.1126  0.1404 -0.6338
  127OSM    C1S13487   6.665   1.974   2.132 -0.0460 -0.3631  0.7099
  127OSM    H1S13488   6.653   1.864   2.146 -0.0134 -0.4454  0.1273
  127OSM    H1T13489   6.574   2.002   2.076  1.0498 -0.6963 -1.3514
  127OSM     NF13490   6.528   2.000   2.337  0.5158 -0.2900  0.3423
  127OSM    HNF13491   6.449   2.051   2.304  0.1819 -0.5342  0.7484
  127OSM    C2S13492   6.655   2.049   2.273 -0.4578  0.7660  0.7345
  127OSM    H2S13493   6.743   2.011   2.330  0.2308  0.8186 -0.2535
  127OSM    C3S13494   6.667   2.204   2.242  0.0188  0.3643 -0.7018
  127OSM    H3S13495   6.588   2.230   2.168  1.1326  2.0523 -1.3341
  127OSM     O313496   6.776   2.244   2.156  0.1144  0.3418 -0.3026
  127OSM    HO313497   6.794   2.163   2.109 -0.7766 -0.2453  0.3426
  127OSM    C4S13498   6.658   2.283   2.372  0.2379  0.4130  0.5136
  127OSM    H4S13499   6.749   2.279   2.433 -0.0026 -1.6062  0.8225
  127OSM    C5S13500   6.568   2.376   2.397  0.5559 -0.3484  0.0624
  127OSM    H5S13501   6.494   2.394   2.318  0.7945 -0.5552 -0.2119
  127OSM    C6S13502   6.554   2.475   2.506  0.4443  0.4989  0.0597
  127OSM    H6S13503   6.590   2.433   2.603  3.0289 -0.3741 -1.1838
  127OSM    H6T13504   6.444   2.487   2.519  0.5825  0.9725  0.8387
  127OSM    C7S13505   6.621   2.608   2.481  0.5441 -0.1897 -0.5074
  127OSM    H7S13506   6.576   2.641   2.385  0.1969  3.0730  0.6710
  127OSM    H7T13507   6.732   2.607   2.486  0.5953  1.0346 -1.0630
  127OSM    C8S13508   6.582   2.711   2.593  0.0597 -0.2420 -0.2959
  127OSM    H8S13509   6.471   2.703   2.596  0.0080  0.6601  1.4024
  127OSM    H8T13510   6.617   2.814   2.567  0.9703 -0.6435 -0.6997
  127OSM    C9S13511   6.634   2.668   2.731 -0.3007 -0.2536  0.0164
  127OSM    H9S13512   6.743   2.655   2.718  0.4626  1.3283  3.6399
  127OSM    H9T13513   6.579   2.576   2.761 -0.0990 -0.7914 -1.2253
  127OSM   C10S13514   6.601   2.767   2.843  0.3259  0.5750 -0.3676
  127OSM   H10S13515   6.491   2.754   2.852  0.2340 -1.4661 -2.9860
  127OSM   H10T13516   6.649   2.858   2.802  3.6328 -1.2141 -0.8007
  127OSM   C11S13517   6.668   2.743   2.978 -0.4662  0.1963 -0.3597
  127OSM   H11S13518   6.653   2.836   3.039  1.4901 -0.4490  1.2233
  127OSM   H11T13519   6.775   2.737   2.949 -0.5965 -0.9490 -0.6230
  127OSM   C12S13520   6.643   2.604   3.048 -0.6394 -0.0505  0.2239
  127OSM   H12S13521   6.647   2.521   2.975 -2.2312  2.2524 -2.6832
  127OSM   H12T13522   6.535   2.609   3.076 -0.4914  2.9834  0.5484
  127OSM   C13S13523   6.739   2.588   3.168  0.4914  0.4423  0.1864
  127OSM   H13S13524   6.740   2.667   3.246 -2.5392  0.5666  0.1945
  127OSM   H13T13525   6.832   2.584   3.107 -0.6596 -2.0305 -1.5414
  127OSM   C14S13526   6.722   2.450   3.240 -0.2027 -0.0144 -0.2976
  127OSM   H14S13527   6.715   2.370   3.163 -0.1967 -0.2360 -0.0708
  127OSM   H14T13528   6.621   2.456   3.287 -1.1292  1.9231 -2.3497
  127OSM   C15S13529   6.833   2.422   3.344 -0.3451 -0.1720 -0.0432
  127OSM   H15S13530   6.826   2.502   3.421  0.1421 -0.3968  0.2338
  127OSM   H15T13531   6.931   2.418   3.293 -0.3005  0.0512  0.0253
  127OSM   C16S13532   6.797   2.290   3.408  0.2658  0.3947 -0.9763
  127OSM   H16S13533   6.688   2.278   3.425  0.4146 -0.3959 -0.5023
  127OSM   H16T13534   6.850   2.292   3.506 -0.7611 -0.2490 -0.3822
  127OSM   C17S13535   6.859   2.163   3.351  0.5170  0.1391 -0.1971
  127OSM   H17S13536   6.834   2.082   3.423 -0.2872  0.3089 -0.2761
  127OSM   H17T13537   6.970   2.165   3.356  0.4995 -0.0917  0.3208
  127OSM   C18S13538   6.822   2.139   3.206  0.1534 -0.1505 -0.3226
  127OSM   H18S13539   6.842   2.229   3.143  0.7974 -0.2410 -0.2523
  127OSM   H18T13540   6.713   2.116   3.202  0.2933 -0.6499 -3.2633
  127OSM   H18U13541   6.872   2.050   3.164  2.7270  0.3404  1.4828
  127OSM    C1F13542   6.506   1.886   2.398 -0.3129 -0.2838 -0.4153
  127OSM     OF13543   6.594   1.807   2.410  0.1410 -0.1896 -0.7139
  127OSM    C2F13544   6.368   1.859   2.459 -0.4903  0.4343  0.3895
  127OSM    H2F13545   6.300   1.818   2.382  0.1909  0.7316 -0.3839
  127OSM    H2G13546   6.327   1.956   2.493 -0.8106  0.7591 -0.8690
  127OSM    C3F13547   6.363   1.757   2.573  0.3052 -0.1465  0.4255
  127OSM    H3F13548   6.396   1.656   2.540 -0.0615 -1.1591  2.9237
  127OSM    H3G13549   6.259   1.748   2.612 -0.0715 -1.7476 -0.8037
  127OSM    C4F13550   6.449   1.805   2.682  0.3062  0.7553  0.4728
  127OSM    H4F13551   6.428   1.909   2.715  2.5337  0.6459  2.5276
  127OSM    H4G13552   6.557   1.796   2.658  0.2825  0.8449  0.3338
  127OSM    C5F13553   6.450   1.708   2.797  0.0625 -1.0653 -1.1091
  127OSM    H5F13554   6.534   1.724   2.868 -0.6041  2.0903 -0.8918
  127OSM    H5G13555   6.468   1.607   2.752  0.2061  0.2003 -4.1264
  127OSM    C6F13556   6.323   1.705   2.885 -0.5059 -0.4548  0.3878
  127OSM    H6F13557   6.342   1.628   2.963  0.7926 -0.7933 -0.2284
  127OSM    H6G13558   6.231   1.674   2.830 -0.0161  0.9718 -1.3407
  127OSM    C7F13559   6.308   1.837   2.965  0.3368  0.9466 -0.1993
  127OSM    H7F13560   6.264   1.913   2.897  0.3386  1.1846  0.0650
  127OSM    H7G13561   6.409   1.876   2.990 -0.0844  0.7376  1.9654
  127OSM    C8F13562   6.225   1.814   3.093  1.0816  0.4494  0.3182
  127OSM    H8F13563   6.280   1.743   3.159 -0.3117 -0.2175  0.7916
  127OSM    H8G13564   6.125   1.768   3.076  1.0383  0.1486  1.3181
  127OSM    C9F13565   6.202   1.949   3.149 -0.7177  0.1714 -0.6033
  127OSM    H9F13566   6.131   2.005   3.086 -1.3052 -1.5115 -1.4983
  127OSM   C10F13567   6.264   1.999   3.255 -0.1550 -0.1404  0.0658
  127OSM   H10F13568   6.248   2.102   3.291 -2.1910 -0.4795  0.2454
  127OSM   C11F13569   6.368   1.937   3.345 -0.7157 -0.0331  0.3614
  127OSM   H11F13570   6.440   2.013   3.382 -1.5822  0.9535  0.0750
  127OSM   H11G13571   6.435   1.866   3.292 -0.8283 -1.8680  2.5591
  127OSM   C12F13572   6.324   1.861   3.468 -0.2454 -0.1560 -0.2240
  127OSM   H12F13573   6.236   1.796   3.451 -1.2018  0.9115  0.4987
  127OSM   H12G13574   6.286   1.926   3.550  0.2650 -0.2325  0.0786
  127OSM   C13F13575   6.438   1.770   3.517  0.8415  0.7122  0.0808
  127OSM   H13F13576   6.525   1.828   3.553  1.0239  0.0732  0.6975
  127OSM   H13G13577   6.474   1.708   3.432 -0.7128  2.1144 -1.6836
  127OSM   C14F13578   6.389   1.671   3.627 -0.0586 -0.1926  0.1731
  127OSM   H14F13579   6.306   1.614   3.580  0.2971 -0.2879 -0.3491
  127OSM   H14G13580   6.361   1.722   3.722 -3.1285 -1.5891  0.1369
  127OSM   C15F13581   6.490   1.560   3.664  1.2984  0.2442  0.8910
  127OSM   H15F13582   6.592   1.605   3.667  1.7122 -0.6473  0.3833
  127OSM   H15G13583   6.499   1.484   3.584 -0.8133  2.0126 -1.1656
  127OSM   C16F13584   6.456   1.491   3.796  0.1021  0.2925 -0.0178
  127OSM   H16F13585   6.376   1.415   3.785 -0.4160  0.8907 -0.4924
  127OSM   H16G13586   6.424   1.563   3.874  0.9728  1.6368 -0.8470
  127OSM   C17F13587   6.580   1.423   3.852  0.4561 -0.6116  0.5579
  127OSM   H17F13588   6.661   1.496   3.830 -2.1703  2.1966 -0.4083
  127OSM   H17G13589   6.598   1.338   3.783 -0.6632 -2.3726  2.3080
  127OSM   C18F13590   6.575   1.374   4.001  0.5164  0.4413 -0.0026
  127OSM   H18F13591   6.660   1.305   4.019  1.1568  1.0430 -0.6421
  127OSM   H18G13592   6.479   1.322   4.019  0.1982  0.9406 -0.2309
  127OSM   H18H13593   6.583   1.462   4.068  4.6368  1.1638 -1.1538
  128OSM      N13594   1.187   3.546   1.718 -0.2542 -0.0966  0.1414
  128OSM    C1513595   1.233   3.450   1.812 -0.0877  0.2367  0.4616
  128OSM   H15A13596   1.329   3.410   1.783 -1.3807 -2.2567 -0.6991
  128OSM   H15B13597   1.177   3.359   1.828  2.0661 -0.8215  2.5627
  128OSM   H15C13598   1.238   3.493   1.910 -0.8047 -0.3576  0.7703
  128OSM    C1413599   1.163   3.483   1.586 -0.4959 -0.1502 -0.1640
  128OSM   H14A13600   1.145   3.552   1.505 -0.2015  0.1718  0.0424
  128OSM   H14B13601   1.072   3.427   1.599 -0.0161 -0.9917 -0.3379
  128OSM   H14C13602   1.230   3.402   1.559  0.8387  1.3059 -1.3663
  128OSM    C1313603   1.049   3.602   1.766 -0.5812 -0.8201 -0.9906
  128OSM   H13A13604   1.025   3.680   1.695  2.2069 -0.2227 -1.4081
  128OSM   H13B13605   1.073   3.645   1.862 -0.4028  0.4964 -1.5982
  128OSM   H13C13606   0.979   3.521   1.772 -1.3652 -0.0438  1.1833
  128OSM    C1213607   1.286   3.663   1.702  0.4732 -0.7997  0.1240
  128OSM   H12A13608   1.252   3.739   1.633  3.1923 -0.2285 -0.7035
  128OSM   H12B13609   1.370   3.630   1.644 -1.9046 -1.3040 -3.3068
  128OSM    C1113610   1.327   3.733   1.832 -0.4339  0.3858  0.7440
  128OSM   H11A13611   1.435   3.755   1.818 -0.4843  0.0452 -0.2783
  128OSM   H11B13612   1.317   3.668   1.921 -1.2589 -0.3730  0.1231
  128OSM      P13613   1.218   3.906   1.993  0.1392 -0.0787  0.2208
  128OSM    O1313614   1.177   4.044   1.982  0.3302 -0.4702 -0.0292
  128OSM    O1413615   1.126   3.812   2.059  0.3796  0.4110  0.0286
  128OSM    O1113616   1.350   3.907   2.071 -0.4108  0.2550  0.2203
  128OSM    O1213617   1.253   3.853   1.850 -0.5594  0.1631  0.3369
  128OSM    C1S13618   1.372   3.999   2.175 -0.2015  0.0948  0.5991
  128OSM    H1S13619   1.288   4.071   2.187 -0.6277 -0.3989  0.6018
  128OSM    H1T13620   1.464   4.050   2.141 -0.3095 -0.7018 -0.9952
  128OSM     NF13621   1.389   4.016   2.428  0.2883  0.6517  0.4620
  128OSM    HNF13622   1.472   4.053   2.469  0.7174 -0.7826  0.9206
  128OSM    C2S13623   1.391   3.924   2.310  0.2252 -0.8098 -0.3757
  128OSM    H2S13624   1.294   3.872   2.323 -0.6348  0.2815 -2.1065
  128OSM    C3S13625   1.517   3.830   2.309  0.0937 -0.5493  0.4238
  128OSM    H3S13626   1.611   3.889   2.305 -0.5825  0.5569  0.4281
  128OSM     O313627   1.513   3.732   2.203  0.3096  0.2043  0.0717
  128OSM    HO313628   1.464   3.769   2.129  1.2209 -0.4246 -0.8891
  128OSM    C4S13629   1.537   3.750   2.433  0.0299 -0.3427 -0.1635
  128OSM    H4S13630   1.472   3.663   2.448  2.3960 -1.9356  1.5472
  128OSM    C5S13631   1.653   3.747   2.511  0.1816  0.4535 -0.0468
  128OSM    H5S13632   1.743   3.802   2.481  0.1785  0.6848  0.3609
  128OSM    C6S13633   1.666   3.664   2.637 -0.2901 -0.1694  0.3115
  128OSM    H6S13634   1.611   3.713   2.720  1.2597  2.0671  0.0786
  128OSM    H6T13635   1.770   3.660   2.677  0.7645 -0.8143 -2.2606
  128OSM    C7S13636   1.627   3.518   2.625 -0.3682  0.6513  0.3989
  128OSM    H7S13637   1.699   3.468   2.557 -0.0954  1.5903 -0.0074
  128OSM    H7T13638   1.530   3.511   2.572  1.0478  2.0178 -2.6131
  128OSM    C8S13639   1.617   3.443   2.758  0.1052 -0.1884  0.2265
  128OSM    H8S13640   1.607   3.337   2.727  0.0860  0.2613 -1.3909
  128OSM    H8T13641   1.523   3.462   2.814 -0.7331  0.8754 -1.4689
  128OSM    C9S13642   1.740   3.465   2.850 -0.3565 -0.0623  0.4213
  128OSM    H9S13643   1.745   3.570   2.887  0.3480 -0.2030  0.7467
  128OSM    H9T13644   1.828   3.457   2.783 -0.6136 -0.6229  0.1455
  128OSM   C10S13645   1.745   3.382   2.978 -0.0406 -0.2717  0.1441
  128OSM   H10S13646   1.829   3.421   3.040  0.4553 -0.6077 -0.3067
  128OSM   H10T13647   1.746   3.273   2.958  0.8364 -0.8423  2.8585
  128OSM   C11S13648   1.632   3.407   3.077  0.2102  0.2109  0.3820
  128OSM   H11S13649   1.535   3.363   3.046 -0.0997  1.2279 -0.1469
  128OSM   H11T13650   1.618   3.518   3.079 -0.6995  0.0903  0.9791
  128OSM   C12S13651   1.682   3.368   3.224 -0.4762  0.0655  0.5403
  128OSM   H12S13652   1.791   3.379   3.243 -0.3508 -0.0563 -0.0597
  128OSM   H12T13653   1.665   3.260   3.238  1.2287 -0.0847  1.7216
  128OSM   C13S13654   1.603   3.443   3.337  0.9761  0.5375  0.6001
  128OSM   H13S13655   1.499   3.405   3.331  1.4387 -0.5825 -2.5117
  128OSM   H13T13656   1.605   3.552   3.316 -0.4645  0.1166 -2.2888
  128OSM   C14S13657   1.677   3.419   3.471  0.3811  0.0044 -0.3751
  128OSM   H14S13658   1.778   3.463   3.461 -0.6625  2.5785 -0.4025
  128OSM   H14T13659   1.686   3.311   3.497 -1.5124 -0.1655 -0.2716
  128OSM   C15S13660   1.588   3.494   3.572  0.0266  0.9562 -0.0520
  128OSM   H15S13661   1.481   3.468   3.563  0.5874 -1.0646 -1.6716
  128OSM   H15T13662   1.608   3.604   3.570 -0.8984  1.1414  0.3863
  128OSM   C16S13663   1.612   3.450   3.719 -0.2503  0.5702  0.0606
  128OSM   H16S13664   1.570   3.523   3.791  1.7664 -0.2175  2.1543
  128OSM   H16T13665   1.723   3.445   3.725 -0.3135 -0.9140  0.4376
  128OSM   C17S13666   1.563   3.309   3.759 -0.1894 -0.5836  0.3553
  128OSM   H17S13667   1.589   3.232   3.683  1.1795  1.1189 -0.9708
  128OSM   H17T13668   1.453   3.318   3.767 -0.0752  0.7396  0.6442
  128OSM   C18S13669   1.622   3.273   3.890 -0.1148 -0.2909 -0.3164
  128OSM   H18S13670   1.732   3.281   3.895 -0.1378  0.8592 -1.2077
  128OSM   H18T13671   1.594   3.167   3.907  1.3124 -1.0461 -2.2829
  128OSM   H18U13672   1.582   3.333   3.975 -1.8744 -1.9544  0.0972
  128OSM    C1F13673   1.275   4.075   2.457  0.0244 -0.1583 -0.8950
  128OSM     OF13674   1.174   4.039   2.402 -0.0685  0.0898 -0.0274
  128OSM    C2F13675   1.281   4.201   2.534  0.7314  0.7301 -0.5238
  128OSM    H2F13676   1.238   4.287   2.477 -2.4750 -0.3225  0.1125
  128OSM    H2G13677   1.381   4.223   2.575 -0.1326  3.1200  0.5262
  128OSM    C3F13678   1.192   4.179   2.663  0.2334  0.3640  0.4124
  128OSM    H3F13679   1.089   4.144   2.639  1.2152 -3.9745  1.6757
  128OSM    H3G13680   1.181   4.280   2.708 -0.1211  0.6222 -0.2389
  128OSM    C4F13681   1.253   4.096   2.778 -0.0603 -0.2912  0.7398
  128OSM    H4F13682   1.297   4.006   2.731  1.1015  0.0493  1.1519
  128OSM    H4G13683   1.168   4.066   2.843  0.2119  1.6537  2.0661
  128OSM    C5F13684   1.363   4.166   2.863  0.5733  1.0183 -0.1330
  128OSM    H5F13685   1.326   4.264   2.900 -1.9717  0.0325  0.1138
  128OSM    H5G13686   1.455   4.183   2.803  0.6031 -0.9281 -0.7151
  128OSM    C6F13687   1.409   4.079   2.985 -0.0612  0.5687  0.6482
  128OSM    H6F13688   1.507   4.113   3.024 -0.1951  1.3594  0.3269
  128OSM    H6G13689   1.414   3.969   2.971 -1.7378  0.7317 -2.0487
  128OSM    C7F13690   1.308   4.092   3.097 -0.5059  0.3147  0.0605
  128OSM    H7F13691   1.218   4.031   3.072 -0.6357  0.8254 -0.7554
  128OSM    H7G13692   1.271   4.197   3.097  1.8834  1.2069  0.6799
  128OSM    C8F13693   1.360   4.062   3.243  0.3919 -0.7255  0.4740
  128OSM    H8F13694   1.287   4.101   3.317 -1.4624 -1.5269 -0.8639
  128OSM    H8G13695   1.453   4.119   3.265 -1.1151  1.3893  1.6883
  128OSM    C9F13696   1.380   3.920   3.271 -0.1520  0.0445 -0.9394
  128OSM    H9F13697   1.452   3.880   3.198  3.0930 -2.1227  3.0054
  128OSM   C10F13698   1.340   3.850   3.377 -0.2074 -1.1225 -0.3462
  128OSM   H10F13699   1.375   3.748   3.396  1.1816 -0.2398  2.3527
  128OSM   C11F13700   1.275   3.915   3.496  0.2184 -0.1707  0.3874
  128OSM   H11F13701   1.164   3.918   3.488  0.2353  2.3581  0.3188
  128OSM   H11G13702   1.299   4.023   3.502 -0.9151  0.1503 -0.4949
  128OSM   C12F13703   1.329   3.855   3.630  0.2787  1.0043 -0.2475
  128OSM   H12F13704   1.296   3.749   3.631  0.0961  1.0652  1.0116
  128OSM   H12G13705   1.265   3.901   3.708 -1.1341  0.1776 -0.8603
  128OSM   C13F13706   1.472   3.880   3.645 -0.2763  1.0173  0.0707
  128OSM   H13F13707   1.502   3.986   3.628 -1.3834  1.1576 -1.1673
  128OSM   H13G13708   1.531   3.838   3.561 -1.8448  0.6132 -0.8763
  128OSM   C14F13709   1.534   3.844   3.781 -0.3476 -0.1990  0.8537
  128OSM   H14F13710   1.614   3.772   3.755 -1.1847 -0.4221 -1.3225
  128OSM   H14G13711   1.463   3.786   3.844  0.0159 -0.1645  1.2962
  128OSM   C15F13712   1.589   3.972   3.842 -0.4834 -0.0334  0.1767
  128OSM   H15F13713   1.513   4.051   3.860  0.0682  1.1211 -2.1802
  128OSM   H15G13714   1.665   4.013   3.773 -1.9750  3.8985  0.5852
  128OSM   C16F13715   1.651   3.926   3.978 -0.2030 -0.4723  0.3254
  128OSM   H16F13716   1.716   3.837   3.975  1.3637  0.5465  1.9096
  128OSM   H16G13717   1.563   3.883   4.031  0.4369 -1.9020  0.2683
  128OSM   C17F13718   1.705   4.038   4.062  1.0920 -0.0835  0.6498
  128OSM   H17F13719   1.806   4.065   4.023  0.8492  0.1255  0.1581
  128OSM   H17G13720   1.714   4.018   4.171  0.5810  0.7393  0.8543
  128OSM   C18F13721   1.611   4.165   4.063  0.0204  0.4821  0.6049
  128OSM   H18F13722   1.502   4.146   4.075 -0.0381 -1.2204 -1.7881
  128OSM   H18G13723   1.625   4.211   3.963  1.6309 -0.0362  0.5648
  128OSM   H18H13724   1.649   4.237   4.139 -0.0720  1.1141  0.0665
  129OSM      N13725   2.025   5.777   1.178 -0.9658 -0.3316 -0.2281
  129OSM    C1513726   2.164   5.811   1.125 -0.0353  0.1852  0.2102
  129OSM   H15A13727   2.171   5.918   1.126  2.6181  0.0822  0.2115
  129OSM   H15B13728   2.172   5.782   1.022 -2.2634  1.5998 -0.4214
  129OSM   H15C13729   2.244   5.757   1.175 -0.0452 -1.1187 -1.1161
  129OSM    C1413730   1.916   5.847   1.101  0.3486  0.9661  0.4616
  129OSM   H14A13731   1.901   5.819   0.998 -1.4318 -0.3498  1.0143
  129OSM   H14B13732   1.936   5.953   1.110 -0.7768  1.2781 -0.4282
  129OSM   H14C13733   1.827   5.824   1.159  0.6944 -0.4710  0.4460
  129OSM    C1313734   2.005   5.629   1.163  0.4975 -0.0120  0.5484
  129OSM   H13A13735   1.913   5.600   1.211 -0.4067 -1.0037 -1.6476
  129OSM   H13B13736   2.086   5.570   1.203  2.6354  2.4782  0.1399
  129OSM   H13C13737   1.993   5.601   1.060  0.2449  0.1716  0.5264
  129OSM    C1213738   2.021   5.816   1.327  0.5439 -0.1160  0.2308
  129OSM   H12A13739   2.064   5.915   1.339 -0.5668  0.8470 -2.9006
  129OSM   H12B13740   2.092   5.752   1.378  0.2421  0.3921  1.3229
  129OSM    C1113741   1.881   5.821   1.391  0.0989 -0.4707 -0.6311
  129OSM   H11A13742   1.816   5.890   1.334  0.3275 -1.9102 -2.7843
  129OSM   H11B13743   1.899   5.857   1.494  2.0054 -1.9481 -0.3754
  129OSM      P13744   1.681   5.669   1.420 -0.0897  0.5166  0.0756
  129OSM    O1313745   1.602   5.755   1.327 -0.4252 -0.2448 -0.3581
  129OSM    O1413746   1.652   5.523   1.424  0.2640 -0.0734  0.0922
  129OSM    O1113747   1.658   5.724   1.567  0.0769  0.1970  0.2594
  129OSM    O1213748   1.839   5.688   1.406 -0.1516 -0.3435 -0.4963
  129OSM    C1S13749   1.698   5.653   1.682 -0.4175 -0.2196 -0.1706
  129OSM    H1S13750   1.808   5.660   1.671 -0.5507  4.8429 -0.2913
  129OSM    H1T13751   1.666   5.547   1.692  0.6048 -0.3293  2.9781
  129OSM     NF13752   1.744   5.696   1.916 -0.0429  0.4082  0.2624
  129OSM    HNF13753   1.708   5.639   1.989 -0.1366  0.3731  0.1890
  129OSM    C2S13754   1.656   5.736   1.810  0.5856 -0.2417  0.2691
  129OSM    H2S13755   1.668   5.844   1.789  0.4672 -0.0913  0.9626
  129OSM    C3S13756   1.502   5.718   1.821 -0.7851  0.2038 -0.0909
  129OSM    H3S13757   1.462   5.614   1.827 -2.7706  0.8091 -1.6598
  129OSM     O313758   1.432   5.772   1.707 -0.0441  0.1144  0.4894
  129OSM    HO313759   1.494   5.804   1.642 -1.2432  0.5182 -0.5129
  129OSM    C4S13760   1.471   5.799   1.945  1.0234 -0.0463  0.5453
  129OSM    H4S13761   1.494   5.740   2.035  0.8331 -0.4948  0.2978
  129OSM    C5S13762   1.416   5.921   1.958 -0.0014  0.2282 -0.8908
  129OSM    H5S13763   1.394   5.986   1.872  0.9171  0.2123 -1.1541
  129OSM    C6S13764   1.385   5.994   2.090  1.2715  0.3123 -0.5877
  129OSM    H6S13765   1.282   6.034   2.087  0.7004 -1.0747 -4.4651
  129OSM    H6T13766   1.446   6.086   2.099 -2.2482  2.7451  0.0341
  129OSM    C7S13767   1.407   5.918   2.221  0.0015  0.8724 -0.4580
  129OSM    H7S13768   1.516   5.899   2.237 -0.4331 -0.6462  0.9629
  129OSM    H7T13769   1.354   5.822   2.203 -0.3146  0.7022  1.2488
  129OSM    C8S13770   1.363   5.990   2.341 -0.9150 -0.1470  0.0024
  129OSM    H8S13771   1.253   6.006   2.347 -1.2508 -2.2797  0.3411
  129OSM    H8T13772   1.411   6.090   2.347  0.0441 -0.6524  1.3093
  129OSM    C9S13773   1.408   5.906   2.475  0.4226 -0.2579 -0.9130
  129OSM    H9S13774   1.517   5.888   2.478  0.0710 -3.6235  4.2097
  129OSM    H9T13775   1.363   5.805   2.471 -0.5887 -0.0296  2.0088
  129OSM   C10S13776   1.360   5.970   2.600 -0.1934 -0.0302  0.0325
  129OSM   H10S13777   1.249   5.966   2.596 -0.3711  3.2181 -1.3405
  129OSM   H10T13778   1.412   6.067   2.614 -1.4744  0.5030  1.2990
  129OSM   C11S13779   1.409   5.888   2.715  0.6839  0.2691  0.1744
  129OSM   H11S13780   1.516   5.911   2.736  1.5939 -1.0269 -2.4892
  129OSM   H11T13781   1.401   5.783   2.682 -0.7171  0.2784  0.4311
  129OSM   C12S13782   1.316   5.898   2.836  0.4636  0.7105 -0.1998
  129OSM   H12S13783   1.210   5.869   2.818  0.7395 -1.9606  1.7477
  129OSM   H12T13784   1.301   6.006   2.855 -3.4063  0.4656 -1.1370
  129OSM   C13S13785   1.362   5.821   2.962 -0.4966  0.4378  0.3705
  129OSM   H13S13786   1.464   5.864   2.970 -0.5593  0.4316  1.3966
  129OSM   H13T13787   1.382   5.711   2.957  2.9246  0.7303  3.2685
  129OSM   C14S13788   1.303   5.866   3.101 -0.3822 -0.2831  0.2372
  129OSM   H14S13789   1.194   5.850   3.110 -0.1312 -2.5464 -0.1367
  129OSM   H14T13790   1.318   5.973   3.124 -0.6473 -0.0733 -0.5269
  129OSM   C15S13791   1.359   5.770   3.219 -0.4049  0.6015  0.2420
  129OSM   H15S13792   1.466   5.797   3.234 -0.0627  1.3009 -2.9133
  129OSM   H15T13793   1.346   5.665   3.183  0.2492  0.1986  1.1376
  129OSM   C16S13794   1.285   5.796   3.351 -0.6048  0.0594  0.3553
  129OSM   H16S13795   1.177   5.817   3.334 -0.3205  0.5036 -1.0536
  129OSM   H16T13796   1.338   5.889   3.382  0.9051 -0.0223 -1.7790
  129OSM   C17S13797   1.300   5.681   3.456  0.1857  0.1506  0.0120
  129OSM   H17S13798   1.408   5.656   3.465  0.0765 -0.7199 -0.8637
  129OSM   H17T13799   1.250   5.589   3.418  0.0788 -0.8406  2.4254
  129OSM   C18S13800   1.250   5.717   3.595 -0.0836  0.0501 -0.6792
  129OSM   H18S13801   1.145   5.753   3.589 -0.9623 -2.2905 -0.6179
  129OSM   H18T13802   1.315   5.789   3.647 -0.2523  1.2665 -2.0939
  129OSM   H18U13803   1.252   5.631   3.666 -0.2871  2.7934  2.9157
  129OSM    C1F13804   1.873   5.733   1.921  0.0644 -0.2208  0.1473
  129OSM     OF13805   1.921   5.812   1.840  0.3587 -0.0644  0.3569
  129OSM    C2F13806   1.958   5.673   2.022  0.5335  0.6417 -0.6330
  129OSM    H2F13807   2.008   5.580   1.988  0.5465 -0.2815  1.6898
  129OSM    H2G13808   1.888   5.643   2.104 -1.7175  5.1346 -0.6329
  129OSM    C3F13809   2.065   5.761   2.089 -0.0242 -0.3420  0.1406
  129OSM    H3F13810   2.027   5.856   2.131  1.1902 -0.6453  2.1171
  129OSM    H3G13811   2.153   5.782   2.024  1.7081  0.1916  2.5100
  129OSM    C4F13812   2.118   5.697   2.222 -0.1174  0.6703 -0.3984
  129OSM    H4F13813   2.169   5.606   2.183  1.4433  1.2376  0.2227
  129OSM    H4G13814   2.024   5.676   2.276  0.9470 -1.4299  0.7384
  129OSM    C5F13815   2.214   5.786   2.290 -0.1034 -0.5551 -0.3116
  129OSM    H5F13816   2.155   5.875   2.321  2.0547  1.0489 -0.5716
  129OSM    H5G13817   2.284   5.833   2.218 -0.9073  1.2899  0.0489
  129OSM    C6F13818   2.298   5.731   2.402  0.4527  0.5536 -0.9384
  129OSM    H6F13819   2.233   5.680   2.476 -1.5300 -0.2317 -3.1055
  129OSM    H6G13820   2.343   5.811   2.465  1.9057 -0.7823 -0.1908
  129OSM    C7F13821   2.403   5.636   2.350  0.0516 -0.3857  1.1910
  129OSM    H7F13822   2.450   5.695   2.268 -0.4795 -1.5680  0.0026
  129OSM    H7G13823   2.365   5.547   2.295  0.2102 -0.3638  1.0450
  129OSM    C8F13824   2.488   5.597   2.464 -0.1522 -0.5039  0.2097
  129OSM    H8F13825   2.494   5.682   2.535  0.1470 -0.3819  0.0387
  129OSM    H8G13826   2.592   5.584   2.427 -0.3797 -2.0487  0.0306
  129OSM    C9F13827   2.446   5.469   2.536 -0.0184  0.0934 -0.3065
  129OSM    H9F13828   2.486   5.382   2.481  1.7025 -0.1334  1.1955
  129OSM   C10F13829   2.371   5.452   2.648 -0.2555 -0.0859 -0.0272
  129OSM   H10F13830   2.359   5.347   2.677 -0.4671 -0.1377 -0.2937
  129OSM   C11F13831   2.307   5.553   2.740 -0.4655 -0.3084  0.0585
  129OSM   H11F13832   2.200   5.524   2.753  0.0013 -1.2840  2.3995
  129OSM   H11G13833   2.316   5.658   2.706  1.0907 -0.7204 -0.9011
  129OSM   C12F13834   2.362   5.550   2.885 -0.3665  0.4111 -0.1478
  129OSM   H12F13835   2.468   5.580   2.867 -0.7728  1.8325 -0.2509
  129OSM   H12G13836   2.351   5.445   2.919 -1.1376  0.7613  0.7153
  129OSM   C13F13837   2.289   5.643   2.983 -0.4601 -0.5927  0.7759
  129OSM   H13F13838   2.195   5.593   3.015  0.2525 -2.4055  0.1705
  129OSM   H13G13839   2.260   5.733   2.925  0.0039  0.3546  1.9702
  129OSM   C14F13840   2.374   5.692   3.103 -0.1975  0.0235 -0.7522
  129OSM   H14F13841   2.422   5.791   3.088 -1.7781  0.7998 -0.9186
  129OSM   H14G13842   2.459   5.628   3.134  2.5641  4.6109  2.3039
  129OSM   C15F13843   2.290   5.707   3.230 -0.3910 -0.4270  0.1556
  129OSM   H15F13844   2.247   5.607   3.253 -0.4249 -1.2549 -3.0982
  129OSM   H15G13845   2.207   5.771   3.195 -0.0919 -1.5109 -2.7736
  129OSM   C16F13846   2.356   5.772   3.355 -0.1800  0.0109  0.1980
  129OSM   H16F13847   2.275   5.777   3.431 -0.5982 -1.5590 -0.1153
  129OSM   H16G13848   2.409   5.863   3.320  0.3111 -1.2789 -2.7436
  129OSM   C17F13849   2.456   5.679   3.432 -0.0955  0.6938  0.6136
  129OSM   H17F13850   2.552   5.669   3.378 -0.1539  1.2706  0.3904
  129OSM   H17G13851   2.399   5.584   3.433  0.0195  0.5747 -1.0614
  129OSM   C18F13852   2.475   5.734   3.569  0.3751 -0.0735  0.1470
  129OSM   H18F13853   2.493   5.844   3.569  0.1196 -0.0085  2.1126
  129OSM   H18G13854   2.553   5.686   3.632  0.0980  0.5354  0.9767
  129OSM   H18H13855   2.376   5.732   3.620 -0.5648  0.2116 -1.5912
  130OSM      N13856   0.863   4.550   1.920 -0.4091 -0.4009 -0.1692
  130OSM    C1513857   0.796   4.414   1.916  0.4917 -0.3053 -0.0341
  130OSM   H15A13858   0.800   4.365   2.012  0.5244 -0.7349 -0.2525
  130OSM   H15B13859   0.847   4.343   1.853  1.2699 -1.6067  1.9506
  130OSM   H15C13860   0.692   4.426   1.891 -0.0664 -0.4051  2.0844
  130OSM    C1413861   0.802   4.642   2.023  0.0535 -0.2057  0.5026
  130OSM   H14A13862   0.812   4.584   2.114 -1.8562  0.5349  1.2274
  130OSM   H14B13863   0.697   4.648   1.999  0.3386 -1.1820 -1.1464
  130OSM   H14C13864   0.848   4.740   2.024 -0.3260 -0.0156 -0.2032
  130OSM    C1313865   1.009   4.531   1.952 -0.1550 -0.4078  0.2864
  130OSM   H13A13866   1.070   4.620   1.943 -0.7584 -0.0105  0.0936
  130OSM   H13B13867   1.057   4.471   1.876  1.2198  0.3401  0.5235
  130OSM   H13C13868   1.020   4.467   2.038  1.1228 -0.2312  0.2747
  130OSM    C1213869   0.844   4.600   1.779 -0.2477 -0.0666 -0.0922
  130OSM   H12A13870   0.739   4.603   1.754  0.1364  1.4281 -1.7751
  130OSM   H12B13871   0.895   4.536   1.710  1.8340 -1.6979  2.7210
  130OSM    C1113872   0.892   4.752   1.745 -0.5132  0.1518 -0.0667
  130OSM   H11A13873   0.826   4.816   1.807 -2.5265 -2.8993  1.1641
  130OSM   H11B13874   0.870   4.758   1.637 -0.7406 -0.7077 -0.0798
  130OSM      P13875   1.094   4.913   1.753  0.1043  0.0784  0.1213
  130OSM    O1313876   1.240   4.919   1.776  0.3182 -0.4742 -0.2707
  130OSM    O1413877   1.049   4.958   1.620  0.1476  0.1082  0.5473
  130OSM    O1113878   1.014   4.993   1.868  0.2072  1.1049 -0.3422
  130OSM    O1213879   1.036   4.766   1.770  0.6324  0.3791  0.4027
  130OSM    C1S13880   1.047   4.967   2.004 -0.4073 -0.1497  0.1209
  130OSM    H1S13881   1.157   4.981   2.009 -0.4600  0.7848 -0.8741
  130OSM    H1T13882   1.019   4.863   2.031 -0.5606 -0.4815 -1.2520
  130OSM     NF13883   1.043   5.092   2.220 -0.1216  0.4441 -1.0742
  130OSM    HNF13884   1.022   5.045   2.306  0.0689  1.3909 -0.4896
  130OSM    C2S13885   0.978   5.071   2.098  0.8565  0.3055 -0.5253
  130OSM    H2S13886   0.967   5.168   2.046 -0.5303  1.7442  2.2478
  130OSM    C3S13887   0.831   5.016   2.106  0.7911 -0.5726 -0.5670
  130OSM    H3S13888   0.813   4.915   2.149 -1.5629 -0.2093 -0.5340
  130OSM     O313889   0.752   5.011   1.983  0.3239 -0.2418 -0.0350
  130OSM    HO313890   0.830   5.018   1.927  0.7546 -2.7780  0.1546
  130OSM    C4S13891   0.751   5.116   2.194 -0.9550  0.1701  0.4727
  130OSM    H4S13892   0.762   5.221   2.163  0.2333 -0.7297 -2.4460
  130OSM    C5S13893   0.672   5.092   2.298  0.4366  0.3330  0.8252
  130OSM    H5S13894   0.659   4.986   2.327  2.8939 -0.1791  0.3224
  130OSM    C6S13895   0.610   5.203   2.380  0.1447  0.4107  0.3233
  130OSM    H6S13896   0.500   5.210   2.365 -0.0255  1.1353  1.7550
  130OSM    H6T13897   0.661   5.298   2.351  1.1374 -0.6800 -1.7631
  130OSM    C7S13898   0.638   5.177   2.529 -0.3889  0.3629 -0.2848
  130OSM    H7S13899   0.602   5.078   2.564 -0.9486 -0.3655 -2.7240
  130OSM    H7T13900   0.572   5.249   2.582 -1.0707  1.4407 -2.4395
  130OSM    C8S13901   0.788   5.193   2.579  0.0184  0.3897 -0.3487
  130OSM    H8S13902   0.829   5.284   2.531 -2.3962  0.4189 -2.5546
  130OSM    H8T13903   0.846   5.111   2.531  1.3270  1.4474 -0.6209
  130OSM    C9S13904   0.815   5.187   2.732 -0.2460  0.0982  0.2466
  130OSM    H9S13905   0.729   5.239   2.780 -0.9833 -0.8210 -0.0682
  130OSM    H9T13906   0.918   5.225   2.751  0.0240 -1.6416  2.8841
  130OSM   C10S13907   0.813   5.041   2.796 -0.2975  0.1505  0.3480
  130OSM   H10S13908   0.885   4.976   2.743  0.5860 -1.3530  3.1876
  130OSM   H10T13909   0.715   4.993   2.778 -0.3841  0.2287  0.6013
  130OSM   C11S13910   0.849   5.045   2.945 -0.3675  0.5070 -0.6425
  130OSM   H11S13911   0.762   5.095   2.992 -1.2401 -2.1482  0.7751
  130OSM   H11T13912   0.936   5.113   2.960 -2.1451  2.6041  0.7625
  130OSM   C12S13913   0.876   4.914   3.007 -0.3155  0.3045 -0.3835
  130OSM   H12S13914   0.959   4.860   2.956 -2.9929 -1.8397 -2.8622
  130OSM   H12T13915   0.785   4.854   2.982  0.6303 -2.7007  2.7232
  130OSM   C13S13916   0.884   4.920   3.160 -1.2687 -1.0383 -1.0093
  130OSM   H13S13917   0.784   4.911   3.209 -1.0716 -0.2235 -0.4451
  130OSM   H13T13918   0.932   5.014   3.194 -1.9074 -0.9533 -0.3037
  130OSM   C14S13919   0.963   4.802   3.218  0.1582  0.1889 -0.3688
  130OSM   H14S13920   1.070   4.810   3.189  0.6087  0.0587  1.1810
  130OSM   H14T13921   0.922   4.704   3.186 -0.7620  0.2531  0.5679
  130OSM   C15S13922   0.963   4.793   3.369  0.4598  0.3201  0.3040
  130OSM   H15S13923   1.018   4.700   3.396  1.4531  0.7999 -0.0208
  130OSM   H15T13924   0.859   4.782   3.406  0.0461 -0.2001 -0.9765
  130OSM   C16S13925   1.027   4.912   3.432 -0.2582 -0.6153  0.6209
  130OSM   H16S13926   1.023   5.003   3.368  0.8448  0.0870  1.5106
  130OSM   H16T13927   1.135   4.889   3.442  0.2891  0.8510 -1.3479
  130OSM   C17S13928   0.984   4.956   3.575  0.3925 -0.6360 -0.1001
  130OSM   H17S13929   0.977   4.866   3.640  0.9082 -1.0360 -0.5824
  130OSM   H17T13930   0.883   5.003   3.571 -0.2121 -1.9512 -0.7769
  130OSM   C18S13931   1.076   5.052   3.657  0.3815  0.6089 -0.0665
  130OSM   H18S13932   1.027   5.082   3.752 -0.8106 -0.5007 -0.3037
  130OSM   H18T13933   1.098   5.135   3.587 -2.7985  0.6474 -1.2185
  130OSM   H18U13934   1.167   4.995   3.685 -1.8590 -1.5125  3.7425
  130OSM    C1F13935   1.161   5.154   2.232 -0.2549 -0.1722 -0.0094
  130OSM     OF13936   1.219   5.196   2.131  0.4915  0.0675 -0.5798
  130OSM    C2F13937   1.235   5.162   2.363 -0.7343 -0.5721 -0.2459
  130OSM    H2F13938   1.264   5.268   2.376 -2.5233 -0.3799  3.3003
  130OSM    H2G13939   1.326   5.101   2.349 -0.0747 -0.5642  3.1433
  130OSM    C3F13940   1.157   5.108   2.487  0.1868 -0.5690 -0.5822
  130OSM    H3F13941   1.127   5.001   2.495 -1.3469 -0.2704 -1.7827
  130OSM    H3G13942   1.062   5.165   2.484  1.5520  1.8233 -0.5063
  130OSM    C4F13943   1.250   5.140   2.610  0.3692 -0.2956 -0.4015
  130OSM    H4F13944   1.234   5.249   2.621 -0.4219 -0.0825 -2.9484
  130OSM    H4G13945   1.355   5.118   2.581  0.5718  3.3862 -3.2353
  130OSM    C5F13946   1.229   5.051   2.738  0.5406 -0.1419 -0.3086
  130OSM    H5F13947   1.253   4.944   2.722 -2.3684 -1.1179  1.1865
  130OSM    H5G13948   1.124   5.052   2.772 -0.2969  0.9112 -2.7398
  130OSM    C6F13949   1.315   5.101   2.858 -0.3759  0.0351  0.1498
  130OSM    H6F13950   1.295   5.208   2.878 -1.0566  0.1167 -0.9063
  130OSM    H6G13951   1.424   5.087   2.839 -0.2811  0.0758  0.6330
  130OSM    C7F13952   1.286   5.025   2.985 -0.0749 -0.1459 -0.3540
  130OSM    H7F13953   1.294   4.916   2.965 -1.6231 -0.4385  0.4627
  130OSM    H7G13954   1.183   5.037   3.024 -0.9137 -4.0734 -0.9386
  130OSM    C8F13955   1.368   5.070   3.104 -0.1635  0.7254  0.4974
  130OSM    H8F13956   1.336   5.175   3.124  0.4613  0.8173  1.0805
  130OSM    H8G13957   1.475   5.071   3.075  0.4041  1.0529  2.4080
  130OSM    C9F13958   1.343   4.979   3.228  0.9066  0.0081 -0.3207
  130OSM    H9F13959   1.243   4.987   3.272  1.0399 -1.4936  0.3170
  130OSM   C10F13960   1.431   4.912   3.303 -0.1821  0.5113  0.0443
  130OSM   H10F13961   1.390   4.853   3.387 -0.9521 -2.2298 -2.1275
  130OSM   C11F13962   1.583   4.899   3.274  1.0791 -0.2942 -0.7136
  130OSM   H11F13963   1.627   4.993   3.235 -0.0285  0.2463 -0.6932
  130OSM   H11G13964   1.597   4.832   3.187 -1.1714 -2.1759  0.2408
  130OSM   C12F13965   1.657   4.846   3.396  0.1571 -0.5440 -0.1598
  130OSM   H12F13966   1.766   4.829   3.379  0.4364  0.6188  0.3887
  130OSM   H12G13967   1.607   4.754   3.434  0.3803 -1.8859 -2.8667
  130OSM   C13F13968   1.654   4.954   3.511 -0.3117  0.3226  0.0710
  130OSM   H13F13969   1.550   4.965   3.548 -1.0082  0.6128 -1.8531
  130OSM   H13G13970   1.683   5.051   3.464 -0.6422 -1.1413 -3.5380
  130OSM   C14F13971   1.746   4.918   3.629 -0.3908 -0.0650  0.3245
  130OSM   H14F13972   1.848   4.890   3.597  0.1620  0.9642  1.1484
  130OSM   H14G13973   1.694   4.834   3.681 -1.7795  0.1897 -0.5863
  130OSM   C15F13974   1.758   5.034   3.734 -0.8780  0.0813 -0.4866
  130OSM   H15F13975   1.656   5.061   3.769 -0.7070  0.2344 -0.1126
  130OSM   H15G13976   1.802   5.119   3.678  1.1344 -2.2103 -2.5999
  130OSM   C16F13977   1.842   4.996   3.866  0.2991 -0.4509  0.4189
  130OSM   H16F13978   1.773   4.920   3.909 -1.4607 -1.4079 -3.6080
  130OSM   H16G13979   1.851   5.083   3.934 -1.9766  0.7612 -0.6973
  130OSM   C17F13980   1.981   4.959   3.839 -0.1864 -0.3194  0.7176
  130OSM   H17F13981   2.020   5.043   3.777 -1.2837 -0.6477 -0.4590
  130OSM   H17G13982   1.997   4.882   3.760  0.0546 -1.2256  1.6404
  130OSM   C18F13983   2.065   4.928   3.963  0.6771 -0.4558  0.0072
  130OSM   H18F13984   2.046   5.013   4.033  0.6194 -0.5026  0.0473
  130OSM   H18G13985   2.172   4.927   3.934  0.4436  1.7913 -1.2085
  130OSM   H18H13986   2.029   4.836   4.014  1.1094  0.8258  2.8488
  131OSM      N13987   1.845   0.809   1.081  0.5209 -0.1934  0.1249
  131OSM    C1513988   1.891   0.747   0.956  0.0492 -0.1927  0.4093
  131OSM   H15A13989   1.993   0.712   0.969 -0.8267 -2.8401  0.7038
  131OSM   H15B13990   1.877   0.809   0.868 -0.4045 -2.2699 -1.0489
  131OSM   H15C13991   1.839   0.657   0.928  0.4464 -0.0925 -0.7040
  131OSM    C1413992   1.902   0.942   1.090  0.4850 -0.0451 -0.1756
  131OSM   H14A13993   1.853   1.007   1.161  2.6977  0.1423  1.3039
  131OSM   H14B13994   1.883   0.995   0.998 -0.0784 -1.7180 -1.0595
  131OSM   H14C13995   2.007   0.948   1.115  0.2821  1.4505  0.4062
  131OSM    C1313996   1.694   0.818   1.074  0.1269 -1.2280 -0.0330
  131OSM   H13A13997   1.651   0.721   1.053  1.4050 -1.9615  0.5765
  131OSM   H13B13998   1.662   0.887   0.998  0.3942  0.8778  1.6601
  131OSM   H13C13999   1.650   0.857   1.165  0.2766 -1.4428  0.1331
  131OSM    C1214000   1.883   0.722   1.203  0.7233  0.3555 -0.7539
  131OSM   H12A14001   1.990   0.705   1.200  0.6495 -0.3481  0.0959
  131OSM   H12B14002   1.819   0.635   1.191 -1.6467  2.0785 -1.3601
  131OSM    C1114003   1.853   0.776   1.348 -0.0746 -0.0337  0.2971
  131OSM   H11A14004   1.900   0.873   1.376 -3.0850  1.0875  1.9083
  131OSM   H11B14005   1.895   0.703   1.420 -1.3507 -1.5281 -0.4183
  131OSM      P14006   1.633   0.905   1.433  0.0788  0.0433 -0.0583
  131OSM    O1314007   1.657   1.017   1.338 -0.4584  0.2474 -0.4499
  131OSM    O1414008   1.496   0.857   1.455 -0.5814  0.0102 -0.4093
  131OSM    O1114009   1.699   0.946   1.569  0.0922 -0.1471 -0.2262
  131OSM    O1214010   1.714   0.786   1.371 -0.2266  0.7137  0.4164
  131OSM    C1S14011   1.763   0.846   1.640 -0.7678  0.3605  0.1188
  131OSM    H1S14012   1.869   0.838   1.610 -0.9345  0.2709 -0.4459
  131OSM    H1T14013   1.711   0.747   1.642 -0.2147  0.0310 -1.0564
  131OSM     NF14014   1.890   0.828   1.853 -0.0647  0.4728 -0.1902
  131OSM    HNF14015   1.871   0.744   1.902 -1.9367  1.9868  1.8945
  131OSM    C2S14016   1.777   0.888   1.790  0.1235  0.5206  0.4516
  131OSM    H2S14017   1.793   0.998   1.784 -1.4452  0.7210 -1.7518
  131OSM    C3S14018   1.646   0.862   1.868  0.5132 -0.2244 -0.6411
  131OSM    H3S14019   1.633   0.752   1.871  0.8202 -0.2488  0.8686
  131OSM     O314020   1.518   0.906   1.814 -0.4611  0.0138  0.6322
  131OSM    HO314021   1.548   0.936   1.728  1.4208  1.1755  1.6270
  131OSM    C4S14022   1.648   0.920   2.008 -0.1201  0.1452  0.0822
  131OSM    H4S14023   1.659   1.029   2.010 -3.3966  0.5652  0.7861
  131OSM    C5S14024   1.629   0.855   2.125  0.0372 -0.1964  0.5726
  131OSM    H5S14025   1.608   0.747   2.120 -1.2906  0.1197 -1.6264
  131OSM    C6S14026   1.633   0.924   2.258 -0.2599 -0.5201 -0.1936
  131OSM    H6S14027   1.658   1.032   2.251  0.7309 -0.8037 -1.3132
  131OSM    H6T14028   1.711   0.878   2.323 -0.4659  1.8809  1.9289
  131OSM    C7S14029   1.498   0.918   2.329  0.0043  0.9191  0.1571
  131OSM    H7S14030   1.464   0.812   2.325 -0.2719  0.9651  0.9806
  131OSM    H7T14031   1.412   0.959   2.273 -0.3720 -0.9792 -0.7131
  131OSM    C8S14032   1.502   0.976   2.473 -0.2779  0.6755 -0.0728
  131OSM    H8S14033   1.399   1.010   2.493 -1.8379 -0.9733 -4.1546
  131OSM    H8T14034   1.578   1.056   2.482  0.5936  0.0065 -1.1686
  131OSM    C9S14035   1.531   0.863   2.577 -0.0630 -0.5357 -0.8216
  131OSM    H9S14036   1.627   0.809   2.559 -0.3422 -1.8467  1.2276
  131OSM    H9T14037   1.439   0.804   2.559 -1.4632  1.6179 -0.9949
  131OSM   C10S14038   1.537   0.910   2.722 -0.1276  0.8162 -0.1700
  131OSM   H10S14039   1.449   0.975   2.742  0.4820  1.5361  0.2245
  131OSM   H10T14040   1.626   0.977   2.726  1.9443 -1.6871 -1.3225
  131OSM   C11S14041   1.551   0.792   2.818 -0.2843 -0.3016 -0.2448
  131OSM   H11S14042   1.636   0.731   2.782 -1.2119 -1.7908  0.0341
  131OSM   H11T14043   1.462   0.726   2.822  0.6502 -1.5628  0.1268
  131OSM   C12S14044   1.575   0.849   2.963  0.5109  0.3623  0.3016
  131OSM   H12S14045   1.488   0.915   2.982  1.6617  2.9015 -2.5227
  131OSM   H12T14046   1.674   0.900   2.960 -0.1021  1.5738  0.2101
  131OSM   C13S14047   1.573   0.731   3.063 -0.1891  0.1082 -0.6866
  131OSM   H13S14048   1.663   0.668   3.048 -0.8120 -0.6165 -1.4923
  131OSM   H13T14049   1.479   0.673   3.051 -0.7585  0.9278 -0.3069
  131OSM   C14S14050   1.573   0.781   3.208  0.4025 -0.4263  0.3200
  131OSM   H14S14051   1.480   0.842   3.211  0.7638  0.1412  0.1087
  131OSM   H14T14052   1.666   0.839   3.225 -0.1561  0.7693 -0.5549
  131OSM   C15S14053   1.552   0.659   3.300  0.8286  0.5296 -0.4649
  131OSM   H15S14054   1.652   0.617   3.324 -0.1581 -0.3827  2.4585
  131OSM   H15T14055   1.488   0.579   3.258  2.1796 -1.6256  1.4121
  131OSM   C16S14056   1.499   0.709   3.432  0.2903  0.1908 -0.3681
  131OSM   H16S14057   1.417   0.779   3.405  1.5256  2.1653  0.7278
  131OSM   H16T14058   1.573   0.781   3.471 -0.8396  0.7409  0.8310
  131OSM   C17S14059   1.461   0.602   3.535  0.3363 -0.0476 -0.7539
  131OSM   H17S14060   1.541   0.525   3.537 -0.1400 -0.5422  0.6765
  131OSM   H17T14061   1.368   0.550   3.505 -1.1362  0.7247  2.0588
  131OSM   C18S14062   1.433   0.664   3.671 -0.1098 -0.1331  0.0134
  131OSM   H18S14063   1.433   0.584   3.748  0.5771  1.2539  1.5118
  131OSM   H18T14064   1.331   0.707   3.678 -1.1825 -2.3707 -0.9408
  131OSM   H18U14065   1.513   0.739   3.690 -1.5332  1.7243 -1.0187
  131OSM    C1F14066   2.016   0.862   1.817 -0.8602 -0.5824 -0.1815
  131OSM     OF14067   2.039   0.956   1.744  0.1998  0.1338 -0.0727
  131OSM    C2F14068   2.126   0.789   1.893 -0.1943 -0.0378 -0.0163
  131OSM    H2F14069   2.192   0.743   1.817  1.7208  1.8990  0.3600
  131OSM    H2G14070   2.089   0.705   1.955 -1.2120  0.8268  0.5837
  131OSM    C3F14071   2.214   0.873   1.986 -0.1103  0.4671  1.2892
  131OSM    H3F14072   2.266   0.949   1.924 -0.6401  1.2969  1.8392
  131OSM    H3G14073   2.286   0.800   2.029 -1.1713 -0.1641  2.0478
  131OSM    C4F14074   2.145   0.951   2.100  0.3113  0.0937 -0.1201
  131OSM    H4F14075   2.059   1.009   2.062  0.0851  0.7907  1.3623
  131OSM    H4G14076   2.215   1.017   2.156  0.6032 -0.8879  0.7002
  131OSM    C5F14077   2.078   0.856   2.198  0.5322 -0.0855 -0.1532
  131OSM    H5F14078   2.165   0.796   2.232  1.2335  0.1204 -1.4904
  131OSM    H5G14079   2.015   0.781   2.146 -0.4636 -0.0054  0.9194
  131OSM    C6F14080   2.022   0.929   2.316  0.2512 -0.0825  0.2043
  131OSM    H6F14081   1.934   0.984   2.274 -0.3112  2.0544  3.7088
  131OSM    H6G14082   2.100   1.003   2.343  0.8394 -0.5942 -0.0798
  131OSM    C7F14083   1.972   0.838   2.429  0.1931 -0.5152 -0.2707
  131OSM    H7F14084   2.047   0.771   2.476 -0.1535 -0.4522  0.3834
  131OSM    H7G14085   1.893   0.772   2.387  1.0111 -1.4646 -0.3572
  131OSM    C8F14086   1.891   0.923   2.534  0.0959  0.1913  0.2968
  131OSM    H8F14087   1.840   0.861   2.612 -1.9618  0.7290 -0.5554
  131OSM    H8G14088   1.810   0.962   2.469 -0.3128 -0.6722  0.2704
  131OSM    C9F14089   1.962   1.037   2.596  0.3169 -0.6078 -0.7390
  131OSM    H9F14090   1.999   1.119   2.533  0.4333 -1.3521 -1.6429
  131OSM   C10F14091   1.982   1.047   2.728  0.7072 -0.2156 -0.8402
  131OSM   H10F14092   2.031   1.134   2.774 -1.3602 -0.6371  2.4761
  131OSM   C11F14093   1.944   0.951   2.835 -0.4140 -0.3069 -0.0525
  131OSM   H11F14094   1.978   0.846   2.822  0.8443  0.1958 -1.0396
  131OSM   H11G14095   1.833   0.950   2.836 -0.5083  2.0377 -1.0906
  131OSM   C12F14096   1.985   0.998   2.976  0.2921  0.1883 -0.6446
  131OSM   H12F14097   2.096   1.011   2.976  0.5837 -1.9331 -0.7715
  131OSM   H12G14098   1.960   0.911   3.041 -1.2769  0.7466 -0.4712
  131OSM   C13F14099   1.908   1.119   3.030  0.0433 -0.8317  0.3855
  131OSM   H13F14100   1.800   1.098   3.014  0.1339 -1.3605  0.4385
  131OSM   H13G14101   1.932   1.210   2.971 -0.0464 -0.2571  1.2273
  131OSM   C14F14102   1.926   1.154   3.180  0.3772 -0.0619 -0.1505
  131OSM   H14F14103   1.861   1.241   3.200 -2.7433 -2.4933  1.1815
  131OSM   H14G14104   2.034   1.177   3.194  0.9651 -2.3479 -0.5409
  131OSM   C15F14105   1.882   1.043   3.280 -0.5330 -0.2406 -0.3021
  131OSM   H15F14106   1.949   0.959   3.255 -0.6556  0.2479 -2.5150
  131OSM   H15G14107   1.780   1.000   3.268 -1.2518 -0.6967  5.0261
  131OSM   C16F14108   1.903   1.074   3.431  0.4189  0.2149 -0.7701
  131OSM   H16F14109   1.821   1.027   3.489  0.7585  0.9608  0.3469
  131OSM   H16G14110   1.899   1.183   3.455  1.4091 -0.2439  1.7615
  131OSM   C17F14111   2.041   1.021   3.486  0.2344 -0.2887 -0.0852
  131OSM   H17F14112   2.113   1.088   3.433  0.8404 -0.6266  0.3022
  131OSM   H17G14113   2.061   0.913   3.467 -2.3337 -0.8789  0.1563
  131OSM   C18F14114   2.071   1.038   3.639 -0.3627 -0.4396  0.0330
  131OSM   H18F14115   2.002   0.969   3.692 -1.2068  0.5557  0.2752
  131OSM   H18G14116   2.058   1.140   3.682  1.7611 -0.4771  0.8883
  131OSM   H18H14117   2.176   1.012   3.664 -0.9529 -2.7672  0.3463
  132OSM      N14118   5.686   1.914   1.580  0.2474  0.1546 -0.6353
  132OSM    C1514119   5.731   2.036   1.665 -0.1489  0.0894 -0.4863
  132OSM   H15A14120   5.793   2.098   1.602  0.4034  0.4257  0.3810
  132OSM   H15B14121   5.785   2.009   1.755  4.3233  0.1586 -2.8728
  132OSM   H15C14122   5.636   2.080   1.692 -1.4266 -1.5816 -1.9302
  132OSM    C1414123   5.600   1.823   1.662 -0.6643 -0.1349 -0.1217
  132OSM   H14A14124   5.608   1.724   1.621 -2.6089 -0.2575 -0.3094
  132OSM   H14B14125   5.494   1.845   1.669 -0.4615  0.3903  2.5330
  132OSM   H14C14126   5.638   1.824   1.763 -0.4213  1.1360 -0.2055
  132OSM    C1314127   5.599   1.961   1.463 -0.4563 -0.3231 -0.3762
  132OSM   H13A14128   5.643   2.051   1.425 -1.0979  0.6972  1.1810
  132OSM   H13B14129   5.503   2.002   1.492  0.1564  3.4155 -3.0172
  132OSM   H13C14130   5.590   1.878   1.394  3.3425 -1.6922  0.5030
  132OSM    C1214131   5.803   1.830   1.528  0.7973 -0.5755 -0.8379
  132OSM   H12A14132   5.849   1.891   1.452 -2.0749  1.5340 -1.0156
  132OSM   H12B14133   5.750   1.749   1.480 -2.3814  0.3614  0.7976
  132OSM    C1114134   5.904   1.769   1.630 -0.6055  0.4458  0.3108
  132OSM   H11A14135   5.940   1.849   1.698  2.0204 -1.9957  1.9759
  132OSM   H11B14136   5.992   1.733   1.573  0.5422  1.7478  1.2120
  132OSM      P14137   5.932   1.570   1.804  0.2157  0.0636 -0.1871
  132OSM    O1314138   5.897   1.426   1.792 -0.0905 -0.2236  0.4874
  132OSM    O1414139   6.075   1.609   1.799  0.0925  0.3413 -0.3780
  132OSM    O1114140   5.875   1.614   1.943  0.0077 -0.1961  0.2307
  132OSM    O1214141   5.852   1.658   1.704 -0.3203  0.6323  0.5603
  132OSM    C1S14142   5.737   1.647   1.955 -0.0766 -0.3238  0.4077
  132OSM    H1S14143   5.677   1.588   1.883  0.3974  0.0698 -0.3276
  132OSM    H1T14144   5.713   1.754   1.937 -0.6106 -0.9807 -3.6977
  132OSM     NF14145   5.539   1.590   2.098 -0.1603 -0.5405 -0.0228
  132OSM    HNF14146   5.490   1.662   2.147 -1.1298  0.9341 -2.9591
  132OSM    C2S14147   5.683   1.601   2.095 -0.1424 -0.2632  0.0924
  132OSM    H2S14148   5.727   1.499   2.102  1.0386  0.0565 -1.8124
  132OSM    C3S14149   5.739   1.690   2.213  0.9430 -0.3005  0.4662
  132OSM    H3S14150   5.682   1.785   2.213 -2.2918 -2.0840  1.7724
  132OSM     O314151   5.876   1.719   2.199  0.8914  0.1578  0.5162
  132OSM    HO314152   5.903   1.682   2.115  2.4101 -1.9813  1.8541
  132OSM    C4S14153   5.705   1.625   2.343 -0.3508  0.1680 -0.0777
  132OSM    H4S14154   5.758   1.529   2.354  0.6767  0.4083 -2.3618
  132OSM    C5S14155   5.631   1.679   2.444 -0.4867 -0.7164  0.6716
  132OSM    H5S14156   5.600   1.784   2.434  1.2610  0.3561  4.5320
  132OSM    C6S14157   5.599   1.601   2.564 -0.2011  0.0619 -0.0948
  132OSM    H6S14158   5.638   1.497   2.564  1.0113  0.5011 -0.1778
  132OSM    H6T14159   5.489   1.588   2.578 -0.0670  0.1154  1.0962
  132OSM    C7S14160   5.652   1.669   2.691  0.1142 -0.5883 -0.2422
  132OSM    H7S14161   5.590   1.760   2.706  0.5980 -0.4878  1.3034
  132OSM    H7T14162   5.758   1.700   2.684 -0.2029  1.1470  1.6740
  132OSM    C8S14163   5.644   1.577   2.817  1.1418 -0.4622 -0.5084
  132OSM    H8S14164   5.697   1.487   2.778  1.1203 -0.0133 -1.6082
  132OSM    H8T14165   5.538   1.549   2.832  0.4422  2.3545  0.5164
  132OSM    C9S14166   5.714   1.639   2.937  0.3444  0.7045 -0.0357
  132OSM    H9S14167   5.669   1.740   2.947  0.8275  1.0950 -1.4333
  132OSM    H9T14168   5.818   1.675   2.924  0.2742  1.7148  1.8876
  132OSM   C10S14169   5.694   1.547   3.061  0.6213  0.4160 -0.2184
  132OSM   H10S14170   5.750   1.451   3.052  0.8865  0.1846  2.8497
  132OSM   H10T14171   5.586   1.521   3.072  0.9238 -0.5178  0.8181
  132OSM   C11S14172   5.743   1.619   3.189 -0.2501 -0.2304 -0.2256
  132OSM   H11S14173   5.677   1.705   3.215  0.4813 -0.3160  2.1205
  132OSM   H11T14174   5.844   1.654   3.162  0.6694 -2.8118 -0.4605
  132OSM   C12S14175   5.759   1.533   3.314 -0.2744  0.9140 -0.1412
  132OSM   H12S14176   5.810   1.437   3.289  0.1127  1.3231 -0.9761
  132OSM   H12T14177   5.659   1.493   3.342 -0.3779  0.2813 -1.3295
  132OSM   C13S14178   5.827   1.593   3.436  0.9160  0.0852 -0.1765
  132OSM   H13S14179   5.752   1.655   3.490  1.6896  3.8814 -3.0378
  132OSM   H13T14180   5.899   1.668   3.396  0.5501  1.3886  1.4913
  132OSM   C14S14181   5.899   1.492   3.523 -0.9364 -0.2737  0.2292
  132OSM   H14S14182   5.956   1.421   3.460 -1.4161  0.7644 -1.4374
  132OSM   H14T14183   5.823   1.444   3.588 -0.4021 -2.2800 -0.5532
  132OSM   C15S14184   5.982   1.559   3.630 -0.4022  0.3607  0.3892
  132OSM   H15S14185   5.948   1.661   3.656  1.8432  0.5371  3.1294
  132OSM   H15T14186   6.081   1.566   3.580 -0.8559 -3.0092 -1.2414
  132OSM   C16S14187   5.993   1.482   3.769 -0.0185  0.1318  0.2477
  132OSM   H16S14188   5.890   1.456   3.803 -0.5805 -0.2934 -1.6401
  132OSM   H16T14189   6.035   1.553   3.842 -0.7314 -0.1124  0.9145
  132OSM   C17S14190   6.085   1.353   3.774  0.0228  0.3997  0.0604
  132OSM   H17S14191   6.175   1.375   3.712 -0.2525  0.2599 -0.3943
  132OSM   H17T14192   6.043   1.267   3.719  1.9616 -0.1040 -0.7228
  132OSM   C18S14193   6.129   1.322   3.918 -0.2404 -0.0284 -0.7715
  132OSM   H18S14194   6.194   1.231   3.923  0.2915  0.3102 -1.4015
  132OSM   H18T14195   6.042   1.316   3.986 -0.4439  1.2627 -0.9025
  132OSM   H18U14196   6.186   1.410   3.955 -2.0603  0.7206  0.3828
  132OSM    C1F14197   5.461   1.504   2.034 -0.2235  0.0407 -0.4995
  132OSM     OF14198   5.510   1.410   1.971  0.1580 -0.0688 -0.5564
  132OSM    C2F14199   5.303   1.525   2.047 -0.5615 -0.5617 -0.7389
  132OSM    H2F14200   5.262   1.508   1.945 -3.1642  1.0279 -0.0566
  132OSM    H2G14201   5.285   1.630   2.081  2.5438 -0.1551 -0.0589
  132OSM    C3F14202   5.232   1.423   2.139 -0.5069 -0.4283 -0.2491
  132OSM    H3F14203   5.265   1.318   2.126 -3.8708 -1.9629  2.0376
  132OSM    H3G14204   5.130   1.434   2.098 -0.5618  2.7770  0.4544
  132OSM    C4F14205   5.216   1.469   2.285 -0.2984 -0.2210  0.1362
  132OSM    H4F14206   5.131   1.540   2.285 -2.0077 -2.1227  1.4201
  132OSM    H4G14207   5.298   1.538   2.312 -0.8468 -0.7222  3.5379
  132OSM    C5F14208   5.194   1.359   2.383  0.2163 -0.1522 -0.5065
  132OSM    H5F14209   5.283   1.294   2.390  0.6708  0.5966  1.2300
  132OSM    H5G14210   5.107   1.297   2.352  0.7356  0.2809 -3.1163
  132OSM    C6F14211   5.173   1.405   2.528  0.4549 -0.3696  0.3642
  132OSM    H6F14212   5.085   1.473   2.543 -0.1366 -0.8422 -0.7875
  132OSM    H6G14213   5.256   1.472   2.560 -1.2394  3.0571 -1.7805
  132OSM    C7F14214   5.173   1.287   2.626  0.0599  0.0780 -0.1387
  132OSM    H7F14215   5.262   1.228   2.594  1.0522  2.1478 -1.4000
  132OSM    H7G14216   5.080   1.229   2.608  0.2846  0.1411 -1.6304
  132OSM    C8F14217   5.190   1.331   2.772  0.1352  0.2372  0.0461
  132OSM    H8F14218   5.284   1.389   2.766 -0.4330  1.0897 -1.0468
  132OSM    H8G14219   5.226   1.242   2.828  1.0115  0.7106  0.2513
  132OSM    C9F14220   5.082   1.411   2.839  0.3960 -0.6445  1.0517
  132OSM    H9F14221   5.002   1.440   2.769  0.4257  0.4393  1.4440
  132OSM   C10F14222   5.080   1.443   2.968  0.0901 -0.0928 -0.4016
  132OSM   H10F14223   5.001   1.512   3.000 -1.6263 -1.3491 -1.6822
  132OSM   C11F14224   5.180   1.409   3.077  0.4359  0.4019 -0.3170
  132OSM   H11F14225   5.256   1.344   3.029 -2.1734 -0.2286 -4.0345
  132OSM   H11G14226   5.144   1.360   3.170  1.7913  1.3913  0.7579
  132OSM   C12F14227   5.243   1.551   3.114  0.6139  1.0461 -0.4891
  132OSM   H12F14228   5.167   1.628   3.137  0.3985  0.7991 -0.3646
  132OSM   H12G14229   5.299   1.585   3.024 -0.4820  0.8683 -1.2568
  132OSM   C13F14230   5.340   1.542   3.231  0.1469  0.2243  0.8262
  132OSM   H13F14231   5.412   1.627   3.229 -0.0624  0.3926 -1.2881
  132OSM   H13G14232   5.390   1.443   3.233 -0.2615  0.0203  1.0957
  132OSM   C14F14233   5.259   1.564   3.363  0.6526  0.2956  0.2449
  132OSM   H14F14234   5.163   1.509   3.369 -0.7503  2.4522 -0.9748
  132OSM   H14G14235   5.230   1.671   3.375  2.0752  1.0671 -2.5278
  132OSM   C15F14236   5.333   1.530   3.491  0.3926 -0.2116  0.1585
  132OSM   H15F14237   5.293   1.580   3.582  0.4992 -0.9434  0.6120
  132OSM   H15G14238   5.439   1.562   3.488 -0.1178  2.6406  4.0138
  132OSM   C16F14239   5.328   1.380   3.534 -0.7086 -0.1412 -0.6247
  132OSM   H16F14240   5.380   1.312   3.463  2.0057 -0.2182  1.2709
  132OSM   H16G14241   5.225   1.340   3.530 -0.7826 -0.3591  1.8331
  132OSM   C17F14242   5.398   1.364   3.674  0.1827 -0.1063 -0.0670
  132OSM   H17F14243   5.501   1.407   3.674  0.1466 -0.0186  0.2052
  132OSM   H17G14244   5.407   1.255   3.689  0.3110  0.2085  2.6321
  132OSM   C18F14245   5.316   1.417   3.791  0.2872 -0.6969 -0.3495
  132OSM   H18F14246   5.325   1.527   3.798  0.2733 -0.6579 -0.8734
  132OSM   H18G14247   5.352   1.371   3.885  1.4459 -0.0055 -0.4345
  132OSM   H18H14248   5.207   1.399   3.780 -0.2594  2.1494 -0.3892
  133OSM      N14249   1.993   3.024   1.560  0.4943 -0.7349 -0.2649
  133OSM    C1514250   2.134   3.061   1.528 -0.3822 -0.3643 -0.3090
  133OSM   H15A14251   2.203   3.020   1.600  0.0579  0.3903 -0.2872
  133OSM   H15B14252   2.131   3.168   1.511 -3.7667 -0.3402 -0.3925
  133OSM   H15C14253   2.164   3.021   1.432  1.2990 -0.3933  0.2015
  133OSM    C1414254   1.904   3.078   1.450 -0.8199 -0.1824 -0.3476
  133OSM   H14A14255   1.800   3.051   1.452 -0.8495 -0.2334 -1.6644
  133OSM   H14B14256   1.949   3.042   1.358 -2.0782 -2.8104 -0.0138
  133OSM   H14C14257   1.906   3.186   1.448 -0.0732 -0.1222  1.6612
  133OSM    C1314258   1.969   2.877   1.556 -0.2154 -0.5546 -0.7970
  133OSM   H13A14259   1.874   2.839   1.590  0.2211  1.3229  2.9427
  133OSM   H13B14260   2.035   2.833   1.628  0.8176  1.7880 -0.2305
  133OSM   H13C14261   1.994   2.829   1.462 -1.0322  1.3442 -2.0366
  133OSM    C1214262   1.955   3.073   1.693  0.3486  0.5695  0.0501
  133OSM   H12A14263   1.863   3.018   1.708  0.3421 -0.0410 -1.9323
  133OSM   H12B14264   1.945   3.180   1.704  0.9589  0.5069  1.3548
  133OSM    C1114265   2.049   3.050   1.809 -0.3519 -0.0886 -1.1091
  133OSM   H11A14266   2.093   2.948   1.813 -0.5333 -0.2680 -3.0038
  133OSM   H11B14267   1.987   3.046   1.902  2.0654 -0.2482  0.5872
  133OSM      P14268   2.131   3.276   1.885  0.6506 -0.5558 -0.1698
  133OSM    O1314269   2.252   3.356   1.882 -0.4962 -0.4269  0.0684
  133OSM    O1414270   2.010   3.340   1.823 -0.4924  0.4475  0.3710
  133OSM    O1114271   2.090   3.240   2.040 -0.1374  0.5884 -0.3131
  133OSM    O1214272   2.159   3.138   1.820  0.0808  0.1685 -0.1014
  133OSM    C1S14273   2.193   3.185   2.122 -0.0223  0.1764  0.3244
  133OSM    H1S14274   2.279   3.255   2.115  0.6372 -0.3684  2.3049
  133OSM    H1T14275   2.234   3.087   2.087  1.1818  0.5554  0.6282
  133OSM     NF14276   2.277   3.173   2.363  0.2506  0.4210  0.0390
  133OSM    HNF14277   2.294   3.086   2.408  1.1321 -0.9329 -2.6707
  133OSM    C2S14278   2.156   3.183   2.272 -0.0344  0.3860 -0.3194
  133OSM    H2S14279   2.102   3.278   2.293 -2.3578 -1.0897  0.7370
  133OSM    C3S14280   2.041   3.082   2.289  0.3489  0.4025  0.5167
  133OSM    H3S14281   2.080   2.987   2.245  0.7756 -0.5767  2.8523
  133OSM     O314282   1.925   3.117   2.212  0.1774 -0.0788  0.2128
  133OSM    HO314283   1.967   3.175   2.148 -1.7609  0.7693 -0.3598
  133OSM    C4S14284   2.004   3.054   2.437 -0.5112 -0.7926  0.1683
  133OSM    H4S14285   2.031   2.955   2.476 -0.7550 -0.8472  0.2010
  133OSM    C5S14286   1.935   3.139   2.512 -0.5421  0.5371  0.4586
  133OSM    H5S14287   1.928   3.244   2.479 -1.7673 -0.0835 -1.4527
  133OSM    C6S14288   1.896   3.123   2.654  0.4741  0.3213  0.0959
  133OSM    H6S14289   1.795   3.163   2.679  1.6531  2.0856  2.3844
  133OSM    H6T14290   1.967   3.176   2.720  2.1877  0.0316 -1.4179
  133OSM    C7S14291   1.888   2.974   2.699 -0.3282 -0.4829  0.0317
  133OSM    H7S14292   1.996   2.949   2.700  0.3061  1.9198 -1.1337
  133OSM    H7T14293   1.834   2.906   2.630  1.2655 -2.3398  0.5074
  133OSM    C8S14294   1.849   2.943   2.842  0.3833 -0.1033 -0.4231
  133OSM    H8S14295   1.907   3.004   2.915 -0.9494 -1.9307  2.3293
  133OSM    H8T14296   1.879   2.839   2.864 -1.0893 -0.4074  0.2447
  133OSM    C9S14297   1.695   2.953   2.868  0.3390  0.4919  0.1308
  133OSM    H9S14298   1.636   2.884   2.804 -0.2401 -0.7924  1.9682
  133OSM    H9T14299   1.669   3.056   2.836  0.6024 -0.0677 -2.0171
  133OSM   C10S14300   1.649   2.940   3.011  0.0049 -0.0993 -1.0443
  133OSM   H10S14301   1.726   2.978   3.083 -0.6770 -0.9360  0.1669
  133OSM   H10T14302   1.642   2.830   3.027 -2.7590 -0.1178 -1.9506
  133OSM   C11S14303   1.513   3.012   3.033 -0.4909  0.3589 -0.0391
  133OSM   H11S14304   1.440   2.948   2.979  1.4643  1.4298 -4.4437
  133OSM   H11T14305   1.514   3.118   3.001 -0.4316  0.3535 -0.0549
  133OSM   C12S14306   1.469   2.999   3.190  0.2011  1.0897  0.0971
  133OSM   H12S14307   1.520   3.075   3.254  2.1876 -0.6303  0.6526
  133OSM   H12T14308   1.506   2.897   3.212  1.1474  1.6765  1.3655
  133OSM   C13S14309   1.319   3.011   3.212 -0.6114 -0.1319 -0.1590
  133OSM   H13S14310   1.267   2.933   3.153 -0.0325 -0.7918  0.1766
  133OSM   H13T14311   1.281   3.111   3.181  0.0201  1.0766  2.6405
  133OSM   C14S14312   1.280   3.000   3.359  0.1857  0.3655  0.8963
  133OSM   H14S14313   1.316   2.901   3.395  0.2456 -0.3093 -0.9169
  133OSM   H14T14314   1.170   3.004   3.372  0.1635 -0.7691  1.1941
  133OSM   C15S14315   1.327   3.112   3.458  0.3237 -0.4026 -0.0272
  133OSM   H15S14316   1.286   3.209   3.424  0.8878 -0.4375 -0.8455
  133OSM   H15T14317   1.438   3.120   3.451  0.4269 -1.2756  0.4591
  133OSM   C16S14318   1.309   3.067   3.607 -0.2909 -0.1314  0.8806
  133OSM   H16S14319   1.327   3.153   3.675  1.0301 -0.1969  0.6480
  133OSM   H16T14320   1.384   2.991   3.638 -0.5200 -2.0576 -2.7145
  133OSM   C17S14321   1.175   3.004   3.633 -0.0173  0.0826 -0.1978
  133OSM   H17S14322   1.160   2.920   3.562  1.5286 -0.2938 -0.1201
  133OSM   H17T14323   1.090   3.074   3.619  0.1210  0.1977 -0.4568
  133OSM   C18S14324   1.163   2.946   3.774 -0.4304 -0.3711  0.4571
  133OSM   H18S14325   1.179   3.028   3.847 -0.6947  0.7834 -0.7467
  133OSM   H18T14326   1.234   2.864   3.800 -0.6182 -0.1585  1.6935
  133OSM   H18U14327   1.062   2.910   3.801 -1.6377  1.7999 -0.9030
  133OSM    C1F14328   2.357   3.273   2.351 -0.5438 -0.5008  0.6610
  133OSM     OF14329   2.317   3.383   2.300  0.1591  0.9625  0.2123
  133OSM    C2F14330   2.495   3.239   2.392  0.3314 -0.2879 -0.2376
  133OSM    H2F14331   2.566   3.258   2.309 -0.9794  3.8307 -0.6241
  133OSM    H2G14332   2.508   3.130   2.411  1.1949 -0.2561 -0.5885
  133OSM    C3F14333   2.554   3.315   2.514 -0.1106 -0.1560  0.7734
  133OSM    H3F14334   2.567   3.421   2.482 -2.3889 -0.3927 -1.2148
  133OSM    H3G14335   2.643   3.255   2.540  0.9629  0.9944 -0.1447
  133OSM    C4F14336   2.467   3.340   2.631  0.3357  0.3337 -0.4937
  133OSM    H4F14337   2.365   3.377   2.608  0.6430  0.7874 -1.1461
  133OSM    H4G14338   2.520   3.416   2.693  3.3891 -0.1666 -2.2740
  133OSM    C5F14339   2.445   3.217   2.719  0.2110  0.2910 -0.4696
  133OSM    H5F14340   2.550   3.185   2.740  0.9505  1.6928 -1.7928
  133OSM    H5G14341   2.387   3.138   2.666 -0.4111 -0.5739  1.3981
  133OSM    C6F14342   2.375   3.252   2.858 -0.7049 -0.2022  0.5316
  133OSM    H6F14343   2.275   3.293   2.830 -1.0633 -0.7658  0.9604
  133OSM    H6G14344   2.430   3.332   2.911  0.8068  0.1092 -1.4071
  133OSM    C7F14345   2.344   3.127   2.939 -0.5390  0.3586  0.3345
  133OSM    H7F14346   2.446   3.089   2.960 -0.2927  0.1190 -1.2013
  133OSM    H7G14347   2.293   3.049   2.880  0.6982 -0.9193  0.8982
  133OSM    C8F14348   2.272   3.166   3.071  0.5016  0.1144  0.1897
  133OSM    H8F14349   2.310   3.268   3.095 -2.5272  1.8408 -1.6233
  133OSM    H8G14350   2.307   3.103   3.156 -0.0093  2.9574  2.6960
  133OSM    C9F14351   2.120   3.191   3.066 -0.4170 -0.2598  0.1177
  133OSM    H9F14352   2.089   3.281   3.012 -0.1869  1.0147  1.9917
  133OSM   C10F14353   2.028   3.119   3.130 -0.4006 -0.6658  1.4145
  133OSM   H10F14354   1.921   3.139   3.113 -0.3596 -1.5625 -0.1727
  133OSM   C11F14355   2.058   2.999   3.212  0.9395  0.0466  0.5120
  133OSM   H11F14356   2.152   2.950   3.179  1.1401  0.9646 -0.3419
  133OSM   H11G14357   1.972   2.930   3.205  0.0721  0.8349  2.6211
  133OSM   C12F14358   2.077   3.035   3.360  0.2173 -0.1177 -0.3955
  133OSM   H12F14359   1.972   3.053   3.394  0.4596 -1.0357  0.8920
  133OSM   H12G14360   2.143   3.123   3.376 -0.4517  0.7744 -2.3006
  133OSM   C13F14361   2.136   2.933   3.455 -0.1317  0.4782  0.7204
  133OSM   H13F14362   2.238   2.920   3.413  0.0332 -1.8519  1.6873
  133OSM   H13G14363   2.085   2.839   3.426 -1.8333  1.7923 -0.8014
  133OSM   C14F14364   2.146   2.971   3.603 -0.5619 -0.2722  0.8127
  133OSM   H14F14365   2.048   3.015   3.633 -0.2971  2.2150 -1.5001
  133OSM   H14G14366   2.218   3.056   3.604 -1.8000  0.9078  4.1849
  133OSM   C15F14367   2.198   2.867   3.695 -0.0675  0.0379 -0.3538
  133OSM   H15F14368   2.299   2.839   3.659 -1.0621 -0.1722 -3.2802
  133OSM   H15G14369   2.137   2.775   3.687  1.6186 -1.2158  0.7336
  133OSM   C16F14370   2.189   2.902   3.847 -0.2439  0.8831  0.5045
  133OSM   H16F14371   2.235   3.002   3.862 -1.4584  1.5362  0.0188
  133OSM   H16G14372   2.267   2.836   3.891 -0.2229  1.6311  1.6359
  133OSM   C17F14373   2.049   2.883   3.911 -0.3883 -0.2621 -0.2209
  133OSM   H17F14374   2.057   2.817   4.000  2.0524  1.0219  0.5714
  133OSM   H17G14375   1.982   2.827   3.842 -0.4836 -1.9450  1.1667
  133OSM   C18F14376   1.971   3.010   3.934 -0.5025 -0.2556 -0.1764
  133OSM   H18F14377   1.931   3.063   3.845  0.3224  3.2635  1.3453
  133OSM   H18G14378   2.040   3.076   3.991 -1.9660  0.1469  1.2071
  133OSM   H18H14379   1.880   2.999   3.997  0.4874  0.4573  1.4678
  134OSM      N14380   5.163   3.341   1.754  0.0140 -0.0128  0.7001
  134OSM    C1514381   5.197   3.481   1.714 -0.4454 -0.5763 -0.2074
  134OSM   H15A14382   5.288   3.506   1.766  0.0680  0.7491 -1.6441
  134OSM   H15B14383   5.116   3.549   1.736  0.6140  0.2390  1.3421
  134OSM   H15C14384   5.230   3.497   1.612  2.3233  1.1911  0.8756
  134OSM    C1414385   5.059   3.297   1.651  0.9219  0.3931 -0.5014
  134OSM   H14A14386   4.977   3.366   1.644  1.6562  1.4054  0.4127
  134OSM   H14B14387   5.020   3.198   1.670 -1.9293  1.5332  0.1244
  134OSM   H14C14388   5.105   3.299   1.553 -1.9074  0.3234 -1.9214
  134OSM    C1314389   5.284   3.252   1.752  0.3069 -1.4934 -0.2682
  134OSM   H13A14390   5.348   3.257   1.665  1.3304 -0.5488  0.5169
  134OSM   H13B14391   5.252   3.148   1.756 -0.8351 -1.1639 -0.4448
  134OSM   H13C14392   5.344   3.270   1.839  0.2468  3.3842 -0.9953
  134OSM    C1214393   5.101   3.342   1.896 -0.8392  0.0549 -0.3183
  134OSM   H12A14394   5.176   3.386   1.961  0.0921 -1.1129 -0.5754
  134OSM   H12B14395   5.086   3.241   1.928  0.2025  0.2267  0.7904
  134OSM    C1114396   4.967   3.414   1.916  0.1981 -0.8397 -0.2740
  134OSM   H11A14397   4.983   3.521   1.892  0.8352 -0.5589  1.2539
  134OSM   H11B14398   4.950   3.413   2.026 -1.4855 -0.2573 -0.5013
  134OSM      P14399   4.745   3.437   1.772  0.1689 -0.0541  0.0526
  134OSM    O1314400   4.796   3.491   1.640  0.7642 -0.2954 -0.4400
  134OSM    O1414401   4.620   3.361   1.770 -0.1477  1.1375  0.1203
  134OSM    O1114402   4.717   3.561   1.861  0.5095  0.2339 -0.5729
  134OSM    O1214403   4.856   3.345   1.845 -0.4282 -0.4218  0.3940
  134OSM    C1S14404   4.682   3.542   1.998  0.4981 -0.2748 -0.1926
  134OSM    H1S14405   4.724   3.457   2.058  0.7724  0.7896  1.1728
  134OSM    H1T14406   4.571   3.539   2.000  0.3787  1.7523 -1.5879
  134OSM     NF14407   4.702   3.632   2.229  0.3155 -0.0797  0.2845
  134OSM    HNF14408   4.617   3.665   2.269  0.6945  0.3772  0.7367
  134OSM    C2S14409   4.723   3.665   2.084 -0.4353  1.5103  0.0684
  134OSM    H2S14410   4.828   3.696   2.069 -0.4524  2.0772  1.0042
  134OSM    C3S14411   4.641   3.795   2.045  0.0005 -0.3391 -0.1096
  134OSM    H3S14412   4.531   3.782   2.053 -0.0008 -1.3428 -1.3384
  134OSM     O314413   4.638   3.824   1.909 -0.0981  0.3369 -0.0849
  134OSM    HO314414   4.691   3.756   1.868  0.6261 -0.4537  2.0227
  134OSM    C4S14415   4.690   3.924   2.118  0.8958 -0.5561  0.0687
  134OSM    H4S14416   4.792   3.950   2.089  0.4907  0.3817 -0.5627
  134OSM    C5S14417   4.623   3.995   2.205  0.1886  0.1696 -0.6388
  134OSM    H5S14418   4.522   3.979   2.245  0.5455  2.3110  1.3392
  134OSM    C6S14419   4.680   4.103   2.288  0.4895 -0.3136 -0.0165
  134OSM    H6S14420   4.627   4.199   2.275 -0.1055 -0.8451 -1.9318
  134OSM    H6T14421   4.782   4.118   2.246 -0.2144  0.1529 -1.6585
  134OSM    C7S14422   4.690   4.087   2.436  0.2049 -0.0307 -0.1348
  134OSM    H7S14423   4.586   4.093   2.474  0.1795 -0.5308 -0.1179
  134OSM    H7T14424   4.738   4.181   2.470  0.6823 -0.8294  1.5530
  134OSM    C8S14425   4.750   3.956   2.480 -0.6258  0.0604  0.9311
  134OSM    H8S14426   4.827   3.930   2.405 -2.3850  1.5263 -1.5274
  134OSM    H8T14427   4.683   3.868   2.492  0.2876 -1.1851 -2.3461
  134OSM    C9S14428   4.818   3.977   2.618  0.0506  0.8050  0.2073
  134OSM    H9S14429   4.909   4.039   2.629 -0.0738  1.2791 -1.1914
  134OSM    H9T14430   4.850   3.879   2.661 -1.8158 -0.1726 -0.5050
  134OSM   C10S14431   4.715   4.040   2.717 -0.1180  0.3959  0.4848
  134OSM   H10S14432   4.608   4.034   2.687  0.1527 -1.1047 -0.3019
  134OSM   H10T14433   4.738   4.148   2.724 -2.3221  0.9398  0.2516
  134OSM   C11S14434   4.730   3.975   2.858 -0.5748 -0.3173  0.1381
  134OSM   H11S14435   4.837   3.992   2.882 -0.1626 -1.8720 -0.4819
  134OSM   H11T14436   4.708   3.867   2.843 -0.0519 -0.5211  0.8249
  134OSM   C12S14437   4.654   4.036   2.972  0.3151  0.5839  0.5153
  134OSM   H12S14438   4.547   4.016   2.951  0.8465  1.5087 -4.0855
  134OSM   H12T14439   4.680   4.142   2.991  2.3921  0.1544  0.3144
  134OSM   C13S14440   4.677   3.967   3.101  0.3543  0.1497 -0.2863
  134OSM   H13S14441   4.663   3.857   3.098  0.5600 -0.0243  2.3939
  134OSM   H13T14442   4.610   4.002   3.183  0.4284  1.7073 -0.8686
  134OSM   C14S14443   4.818   3.991   3.176  0.3353 -0.2364 -0.8033
  134OSM   H14S14444   4.894   3.935   3.117  1.6837  1.3438 -0.6488
  134OSM   H14T14445   4.808   3.941   3.275  1.0566 -0.1887 -0.6992
  134OSM   C15S14446   4.855   4.137   3.220  0.5980 -0.5424  0.0864
  134OSM   H15S14447   4.775   4.168   3.290  1.9049  0.8266  1.0471
  134OSM   H15T14448   4.856   4.204   3.131  0.3965 -0.1540  0.3732
  134OSM   C16S14449   4.993   4.148   3.279 -0.3720 -0.0793 -0.8513
  134OSM   H16S14450   5.064   4.078   3.230  1.6436  1.7747 -0.7138
  134OSM   H16T14451   4.997   4.110   3.383  2.5010 -0.1577 -0.9177
  134OSM   C17S14452   5.043   4.291   3.285  0.0521 -0.2382  0.7076
  134OSM   H17S14453   5.116   4.315   3.365 -0.6263  2.1377  0.6848
  134OSM   H17T14454   4.958   4.359   3.308 -1.3330 -0.6307 -2.6662
  134OSM   C18S14455   5.104   4.322   3.147  0.4068  0.0407 -0.2835
  134OSM   H18S14456   5.027   4.324   3.067 -2.9285 -1.7182  2.6013
  134OSM   H18T14457   5.183   4.255   3.107  1.2248  0.0886  1.1843
  134OSM   H18U14458   5.155   4.420   3.143 -0.1473  0.3115 -0.9772
  134OSM    C1F14459   4.787   3.571   2.305 -0.3416 -0.9874  0.4504
  134OSM     OF14460   4.888   3.519   2.261 -0.0833 -0.6989  0.6289
  134OSM    C2F14461   4.741   3.568   2.449  0.4036 -0.6268 -0.8046
  134OSM    H2F14462   4.692   3.470   2.466  0.9730 -0.7885 -0.0247
  134OSM    H2G14463   4.665   3.648   2.465  0.6494 -0.7288  1.2174
  134OSM    C3F14464   4.856   3.575   2.547 -0.1447  0.4889  0.1581
  134OSM    H3F14465   4.910   3.671   2.531  0.5088  0.0999  0.0135
  134OSM    H3G14466   4.927   3.493   2.524  1.5276  1.7350  0.6998
  134OSM    C4F14467   4.817   3.567   2.696 -0.4254 -0.7219  0.2020
  134OSM    H4F14468   4.756   3.476   2.715  0.3624 -1.4948 -0.8785
  134OSM    H4G14469   4.760   3.656   2.730  0.3922  0.3055 -1.0261
  134OSM    C5F14470   4.931   3.554   2.797  0.2534 -0.2530  0.2531
  134OSM    H5F14471   5.006   3.631   2.772  0.8872 -1.3442 -1.3698
  134OSM    H5G14472   4.986   3.458   2.781  0.4188 -0.1477  0.1912
  134OSM    C6F14473   4.894   3.565   2.946 -0.9342  0.3436  0.2751
  134OSM    H6F14474   4.800   3.506   2.954 -0.9184 -0.2017 -2.5127
  134OSM    H6G14475   4.859   3.667   2.973  0.3770  1.2991 -1.4273
  134OSM    C7F14476   4.988   3.488   3.040  0.2107 -0.5583  0.6443
  134OSM    H7F14477   5.072   3.558   3.061 -1.1203  1.2582  0.2052
  134OSM    H7G14478   5.027   3.398   2.988 -1.1493 -0.8029  0.0148
  134OSM    C8F14479   4.921   3.434   3.167 -0.8405  0.3640  0.1498
  134OSM    H8F14480   4.991   3.387   3.240 -1.6104 -3.4779 -1.3819
  134OSM    H8G14481   4.844   3.357   3.148  0.7792 -1.2104 -0.3565
  134OSM    C9F14482   4.853   3.552   3.237  0.2347 -0.1256  0.4348
  134OSM    H9F14483   4.770   3.593   3.178  1.0157  0.5468 -0.2181
  134OSM   C10F14484   4.896   3.613   3.350  0.7361 -0.2890 -0.6325
  134OSM   H10F14485   4.838   3.698   3.391  0.0663 -1.8950  2.0215
  134OSM   C11F14486   5.004   3.587   3.453  0.4279  0.1241 -0.1235
  134OSM   H11F14487   5.057   3.681   3.477 -0.9766  1.7648 -2.8987
  134OSM   H11G14488   5.075   3.517   3.404 -1.7518 -2.1490 -0.2712
  134OSM   C12F14489   4.958   3.519   3.589  0.4678  0.3427 -0.3958
  134OSM   H12F14490   4.892   3.583   3.651 -0.5753 -2.0358  1.0669
  134OSM   H12G14491   5.053   3.512   3.646 -0.5370 -1.7291  1.1133
  134OSM   C13F14492   4.893   3.381   3.574  0.5057  0.6427 -0.3458
  134OSM   H13F14493   4.947   3.321   3.497 -1.5681 -0.0352 -1.3692
  134OSM   H13G14494   4.788   3.403   3.545  0.7756  1.3541 -0.8099
  134OSM   C14F14495   4.898   3.286   3.696  0.3850 -0.7906  0.0064
  134OSM   H14F14496   4.880   3.356   3.780 -0.6364  1.8333 -2.2741
  134OSM   H14G14497   5.000   3.242   3.700  0.5648 -0.5360 -1.2971
  134OSM   C15F14498   4.789   3.178   3.684  0.4851  0.4138 -0.6628
  134OSM   H15F14499   4.699   3.227   3.641  0.8662  0.1503 -1.8155
  134OSM   H15G14500   4.768   3.152   3.790 -1.1621 -0.0630 -1.0899
  134OSM   C16F14501   4.829   3.043   3.623 -0.5624  0.0400  0.1179
  134OSM   H16F14502   4.914   3.007   3.685 -0.0376  1.4626  0.2551
  134OSM   H16G14503   4.879   3.051   3.524  2.0446 -2.0154  1.1245
  134OSM   C17F14504   4.720   2.941   3.604 -0.3044 -0.1488 -0.4804
  134OSM   H17F14505   4.645   2.993   3.541 -0.3682  1.3979  0.8110
  134OSM   H17G14506   4.674   2.910   3.700 -0.1981  1.2668  0.0425
  134OSM   C18F14507   4.770   2.808   3.538  0.1774 -0.6093  0.3135
  134OSM   H18F14508   4.796   2.820   3.430  1.4857  1.5969  0.8290
  134OSM   H18G14509   4.708   2.715   3.539  0.8822 -1.1062  2.5854
  134OSM   H18H14510   4.862   2.778   3.592 -1.0660 -1.9003  1.8015
  135OSM      N14511   6.213   1.074   1.628  0.0445 -0.2146  0.1620
  135OSM    C1514512   6.302   1.015   1.731 -0.0018 -0.3039 -0.0255
  135OSM   H15A14513   6.307   0.908   1.724  1.0249 -0.2666 -0.0423
  135OSM   H15B14514   6.262   1.039   1.828  2.8770  1.3688  0.8540
  135OSM   H15C14515   6.403   1.048   1.713  0.2052 -1.1334 -0.4270
  135OSM    C1414516   6.075   1.022   1.633 -0.3936 -0.2526  0.6642
  135OSM   H14A14517   6.007   1.067   1.562 -0.2033 -1.2043 -0.1350
  135OSM   H14B14518   6.026   1.043   1.727 -0.0155  1.6095  0.4816
  135OSM   H14C14519   6.080   0.915   1.617  0.3242 -0.2824  1.0612
  135OSM    C1314520   6.195   1.225   1.647  0.2562  0.5005 -0.2567
  135OSM   H13A14521   6.282   1.278   1.611 -0.4108  0.8454 -1.4387
  135OSM   H13B14522   6.175   1.249   1.750 -4.1813 -0.7769 -0.6027
  135OSM   H13C14523   6.115   1.265   1.586 -0.4582  0.8590  0.8882
  135OSM    C1214524   6.259   1.051   1.483  0.0468  0.4578 -0.0435
  135OSM   H12A14525   6.349   1.103   1.457  0.4066 -0.5257 -0.8130
  135OSM   H12B14526   6.198   1.101   1.409 -0.3957  0.2126  0.1520
  135OSM    C1114527   6.294   0.897   1.443 -0.3379 -0.2719  0.6667
  135OSM   H11A14528   6.369   0.851   1.512 -0.9144 -1.2186  0.6847
  135OSM   H11B14529   6.335   0.911   1.341 -0.9586  2.1447  0.6920
  135OSM      P14530   6.167   0.668   1.413 -0.1250 -0.2631 -0.0792
  135OSM    O1314531   6.027   0.627   1.411  0.4332  0.2177 -0.9099
  135OSM    O1414532   6.245   0.635   1.291 -0.4762  0.3544  0.4846
  135OSM    O1114533   6.238   0.612   1.549 -0.1934 -0.1072 -0.0959
  135OSM    O1214534   6.173   0.824   1.424 -0.3967  0.1844  0.2035
  135OSM    C1S14535   6.167   0.621   1.671 -0.3244  0.0475 -0.4766
  135OSM    H1S14536   6.066   0.575   1.669  0.4577 -1.8219  0.1070
  135OSM    H1T14537   6.144   0.727   1.695  0.2175  0.5170 -1.9161
  135OSM     NF14538   6.167   0.539   1.897 -0.4449 -0.0209 -0.4785
  135OSM    HNF14539   6.187   0.598   1.975 -1.4343  0.6076 -0.6800
  135OSM    C2S14540   6.258   0.557   1.786  0.0025 -0.7615 -0.8031
  135OSM    H2S14541   6.284   0.453   1.757 -3.4935 -2.0963  0.4262
  135OSM    C3S14542   6.372   0.653   1.817 -0.3656  0.0447 -0.7825
  135OSM    H3S14543   6.335   0.752   1.853  0.2090 -0.3871  1.1305
  135OSM     O314544   6.450   0.692   1.706 -0.1713  0.2091  0.1526
  135OSM    HO314545   6.396   0.686   1.627 -3.2540  0.1445  2.0978
  135OSM    C4S14546   6.462   0.591   1.927 -0.6936  0.1129  0.3066
  135OSM    H4S14547   6.432   0.622   2.029  4.1864  1.0612  1.7484
  135OSM    C5S14548   6.586   0.537   1.905 -0.6761  0.1690 -0.6495
  135OSM    H5S14549   6.614   0.522   1.799  0.6132 -0.8720 -0.1956
  135OSM    C6S14550   6.679   0.486   2.003  0.2780 -0.2975 -0.1723
  135OSM    H6S14551   6.783   0.524   1.988  0.3588  0.8617  2.6020
  135OSM    H6T14552   6.701   0.379   1.984  1.5904 -0.3865  1.5806
  135OSM    C7S14553   6.652   0.501   2.151  0.8112  0.4140 -0.4107
  135OSM    H7S14554   6.559   0.440   2.157  1.5169 -0.7065 -0.3687
  135OSM    H7T14555   6.630   0.605   2.183 -1.1540  0.2017 -0.9498
  135OSM    C8S14556   6.761   0.442   2.243 -0.2812  0.1177  0.2507
  135OSM    H8S14557   6.853   0.503   2.234 -0.8950  0.9949 -0.1753
  135OSM    H8T14558   6.786   0.342   2.201 -0.4997  0.3954 -0.5630
  135OSM    C9S14559   6.719   0.431   2.387 -0.4082  0.9332  0.3214
  135OSM    H9S14560   6.640   0.353   2.400  1.6064 -0.9931  1.7548
  135OSM    H9T14561   6.669   0.526   2.416  0.7250  2.3663 -2.1211
  135OSM   C10S14562   6.832   0.387   2.474 -0.8148 -0.5392  0.2789
  135OSM   H10S14563   6.914   0.461   2.484 -1.0447 -0.3035  0.4150
  135OSM   H10T14564   6.881   0.292   2.444  1.7650  0.8296 -0.1427
  135OSM   C11S14565   6.771   0.365   2.614 -0.4387 -0.2604  0.9950
  135OSM   H11S14566   6.700   0.280   2.617  0.7018 -1.5482 -2.8522
  135OSM   H11T14567   6.711   0.458   2.626  0.1472  0.0896  1.2935
  135OSM   C12S14568   6.866   0.351   2.733  1.0573  0.1621  0.3388
  135OSM   H12S14569   6.942   0.432   2.737 -0.7495  1.9287  1.5842
  135OSM   H12T14570   6.916   0.252   2.734 -1.2184 -1.0437  1.2800
  135OSM   C13S14571   6.779   0.348   2.864  0.0812  0.3399  0.0953
  135OSM   H13S14572   6.700   0.272   2.849  0.0420  0.3581  0.2154
  135OSM   H13T14573   6.725   0.444   2.879  0.8543  0.9977 -1.1106
  135OSM   C14S14574   6.870   0.307   2.989  0.2353 -0.2109  0.0395
  135OSM   H14S14575   6.924   0.403   3.000 -2.0341  1.2831 -1.0431
  135OSM   H14T14576   6.936   0.222   2.963  2.4539  1.8691 -1.5124
  135OSM   C15S14577   6.787   0.294   3.113  0.0847 -0.5369 -0.2375
  135OSM   H15S14578   6.725   0.202   3.105  1.2607 -1.2541 -1.2856
  135OSM   H15T14579   6.729   0.388   3.129  0.7927  0.0972 -1.3136
  135OSM   C16S14580   6.862   0.269   3.242  0.4090 -0.1125 -0.5515
  135OSM   H16S14581   6.930   0.181   3.239  1.6198  0.7650  0.0584
  135OSM   H16T14582   6.801   0.245   3.331  2.3498  1.7765  1.4275
  135OSM   C17S14583   6.940   0.398   3.278 -0.4164  0.0310 -0.6435
  135OSM   H17S14584   6.867   0.480   3.294  0.7305  0.8044  0.9247
  135OSM   H17T14585   7.015   0.421   3.199 -0.5933  2.9232 -0.0743
  135OSM   C18S14586   7.014   0.375   3.414 -0.2863  0.1121 -0.4833
  135OSM   H18S14587   7.088   0.455   3.435  1.9774 -1.2539 -2.6977
  135OSM   H18T14588   7.066   0.277   3.408 -0.4432 -0.0513  0.5785
  135OSM   H18U14589   6.940   0.371   3.497  0.5266 -2.6745  0.2192
  135OSM    C1F14590   6.062   0.452   1.891 -0.1400 -0.7079 -0.4247
  135OSM     OF14591   6.040   0.370   1.801 -0.3992 -0.5063  0.0319
  135OSM    C2F14592   5.980   0.468   2.014 -0.1834 -0.2876  0.5813
  135OSM    H2F14593   5.879   0.476   1.966  1.0459  2.0958 -1.8664
  135OSM    H2G14594   6.010   0.561   2.065  0.2934 -0.3716  0.4543
  135OSM    C3F14595   5.977   0.348   2.111 -1.0926  0.1614 -0.4338
  135OSM    H3F14596   6.082   0.335   2.145 -1.7622  0.7779  2.1113
  135OSM    H3G14597   5.943   0.254   2.062 -0.4202  0.8603 -2.3257
  135OSM    C4F14598   5.880   0.353   2.234  0.1763 -0.1108  0.5696
  135OSM    H4F14599   5.876   0.258   2.292 -0.9493 -0.3187  0.1644
  135OSM    H4G14600   5.778   0.364   2.192 -0.1790  1.2921  1.6906
  135OSM    C5F14601   5.906   0.469   2.331 -0.7064  0.5412 -0.0280
  135OSM    H5F14602   5.853   0.566   2.314 -0.7748  0.5015 -0.0412
  135OSM    H5G14603   6.012   0.499   2.345 -0.1695 -0.1157 -2.2147
  135OSM    C6F14604   5.860   0.432   2.477 -1.2870 -0.2798 -0.1470
  135OSM    H6F14605   5.931   0.364   2.529 -2.6533 -0.9512  0.9100
  135OSM    H6G14606   5.761   0.385   2.492 -0.5442 -1.8021  0.1282
  135OSM    C7F14607   5.868   0.551   2.576 -0.2449 -0.2412  0.7340
  135OSM    H7F14608   5.809   0.638   2.541  0.1401  0.6106  2.1001
  135OSM    H7G14609   5.976   0.577   2.575 -0.2723 -0.1111 -1.1893
  135OSM    C8F14610   5.800   0.518   2.712  0.4681 -0.0297 -0.3975
  135OSM    H8F14611   5.692   0.499   2.694  0.5097 -2.4443  1.4661
  135OSM    H8G14612   5.812   0.599   2.788  1.8512 -0.4891 -0.0929
  135OSM    C9F14613   5.847   0.394   2.773 -0.6128 -0.9613  0.2575
  135OSM    H9F14614   5.807   0.307   2.718 -0.8787  0.7694 -2.4491
  135OSM   C10F14615   5.929   0.378   2.883 -0.1262 -0.7341  0.1324
  135OSM   H10F14616   5.951   0.278   2.924  2.0516  0.0381  1.0152
  135OSM   C11F14617   5.997   0.486   2.965  0.6768 -0.2207  0.0631
  135OSM   H11F14618   6.001   0.589   2.923 -0.6722  0.6293  1.8668
  135OSM   H11G14619   6.100   0.455   2.989  0.6377 -0.1026  0.3918
  135OSM   C12F14620   5.918   0.496   3.096 -0.1379  0.6155  0.6361
  135OSM   H12F14621   5.924   0.395   3.142 -2.6231 -0.2064 -0.6471
  135OSM   H12G14622   5.813   0.526   3.076 -1.2376 -2.1414  1.7790
  135OSM   C13F14623   5.954   0.606   3.197  0.0526 -0.3619  0.1540
  135OSM   H13F14624   5.923   0.706   3.161 -1.2773  0.1133  2.4186
  135OSM   H13G14625   6.065   0.608   3.206  0.0199  0.0921  0.5479
  135OSM   C14F14626   5.893   0.594   3.340  0.0685 -0.4040  0.5191
  135OSM   H14F14627   5.901   0.485   3.359  1.8029 -0.3581  0.2360
  135OSM   H14G14628   5.784   0.619   3.340  0.1716  0.1537 -1.0470
  135OSM   C15F14629   5.968   0.677   3.453 -0.3616  0.2912  0.5592
  135OSM   H15F14630   5.956   0.787   3.448 -1.1896  0.1512 -2.2819
  135OSM   H15G14631   6.077   0.664   3.440 -0.0015  2.2816  1.1834
  135OSM   C16F14632   5.941   0.624   3.596  0.2792  0.1709 -0.7372
  135OSM   H16F14633   5.834   0.631   3.623  0.5977 -0.4056  0.7631
  135OSM   H16G14634   5.989   0.691   3.671 -0.2315 -0.7465  0.4372
  135OSM   C17F14635   5.983   0.484   3.632 -0.4681 -0.4117 -0.4631
  135OSM   H17F14636   6.076   0.452   3.580 -0.0914  0.0925 -0.1011
  135OSM   H17G14637   5.903   0.424   3.581 -0.4264 -2.3808  1.6482
  135OSM   C18F14638   5.995   0.445   3.781  0.0987  0.3901  0.4997
  135OSM   H18F14639   6.026   0.338   3.781  1.2526  0.7168  0.1606
  135OSM   H18G14640   5.896   0.461   3.830 -1.4831 -1.4744 -1.8268
  135OSM   H18H14641   6.070   0.501   3.840  0.1538 -2.2952  3.2879
  136OSM      N14642   0.987   5.349   1.569  0.1249  0.6270  1.4023
  136OSM    C1514643   1.097   5.277   1.645  1.0024 -0.3992  0.5363
  136OSM   H15A14644   1.100   5.173   1.618 -1.0578 -0.3299 -0.1366
  136OSM   H15B14645   1.078   5.284   1.751 -2.0721  2.9176 -0.0380
  136OSM   H15C14646   1.198   5.306   1.619  0.8595 -1.2632 -1.0668
  136OSM    C1414647   0.985   5.498   1.589  0.0395 -0.4952 -0.1254
  136OSM   H14A14648   0.964   5.521   1.692 -0.3760 -1.3025 -0.0231
  136OSM   H14B14649   0.898   5.528   1.533 -0.2246 -0.6449  0.2003
  136OSM   H14C14650   1.070   5.557   1.560 -0.1101 -0.5500 -0.6828
  136OSM    C1314651   1.000   5.321   1.424 -0.3152 -0.2286  0.1236
  136OSM   H13A14652   1.086   5.370   1.381 -1.3620  1.4175 -0.1894
  136OSM   H13B14653   0.911   5.356   1.374 -0.9251 -2.3615 -0.3698
  136OSM   H13C14654   1.010   5.215   1.410  1.6336 -0.4295  2.4396
  136OSM    C1214655   0.848   5.290   1.613  0.5623  0.1476 -0.1965
  136OSM   H12A14656   0.846   5.186   1.584  1.4373 -0.0148  0.2837
  136OSM   H12B14657   0.764   5.342   1.570  1.2463 -2.0575 -4.8442
  136OSM    C1114658   0.825   5.308   1.761 -1.5700 -0.8661  0.3588
  136OSM   H11A14659   0.840   5.413   1.793 -0.5639 -1.3358  1.5707
  136OSM   H11B14660   0.886   5.239   1.824 -0.3596 -0.1047  0.0473
  136OSM      P14661   0.568   5.369   1.743  0.4986  0.1560  0.1293
  136OSM    O1314662   0.578   5.393   1.597  0.1499  0.1954 -0.0117
  136OSM    O1414663   0.442   5.305   1.794 -0.3289 -0.2734  0.4367
  136OSM    O1114664   0.610   5.497   1.827 -0.1462  0.2950 -0.5682
  136OSM    O1214665   0.685   5.273   1.780 -0.0936  0.0599 -0.6216
  136OSM    C1S14666   0.517   5.589   1.884  0.1591  0.3928 -1.0477
  136OSM    H1S14667   0.417   5.581   1.835  0.0749 -0.3854 -0.7676
  136OSM    H1T14668   0.552   5.694   1.876  1.8238  0.3310  3.0507
  136OSM     NF14669   0.403   5.661   2.097  0.4696  0.2576  0.0679
  136OSM    HNF14670   0.431   5.753   2.124 -1.9931  0.9243  0.6851
  136OSM    C2S14671   0.502   5.570   2.037 -0.5047  0.1665  0.2781
  136OSM    H2S14672   0.467   5.468   2.067 -1.7511  0.3867 -0.3452
  136OSM    C3S14673   0.643   5.572   2.104 -0.6286 -0.0499 -0.1491
  136OSM    H3S14674   0.687   5.669   2.073  0.2796 -0.1560  0.7647
  136OSM     O314675   0.733   5.468   2.056 -0.2408  0.5461 -0.1043
  136OSM    HO314676   0.717   5.464   1.961 -1.9175  1.9277  0.0587
  136OSM    C4S14677   0.630   5.581   2.251  0.4044 -0.3827  0.2964
  136OSM    H4S14678   0.565   5.502   2.292  0.1894 -0.5855 -0.4109
  136OSM    C5S14679   0.672   5.683   2.330 -0.1589  0.1158 -0.4519
  136OSM    H5S14680   0.738   5.758   2.285 -1.5260  1.0480 -0.9469
  136OSM    C6S14681   0.635   5.711   2.478 -0.3683  0.1760 -0.0140
  136OSM    H6S14682   0.544   5.773   2.470 -1.0699 -0.9081 -0.6919
  136OSM    H6T14683   0.711   5.778   2.523 -0.5379 -0.2705  0.9672
  136OSM    C7S14684   0.609   5.596   2.575  0.1984  1.2479  0.0483
  136OSM    H7S14685   0.706   5.545   2.587 -0.1351  1.2277  3.8339
  136OSM    H7T14686   0.527   5.531   2.538 -0.1827  1.6327  0.2077
  136OSM    C8S14687   0.577   5.641   2.721 -0.3109  0.2772 -0.2317
  136OSM    H8S14688   0.488   5.708   2.721 -0.7804 -0.3334 -1.1061
  136OSM    H8T14689   0.665   5.705   2.747 -0.3206  0.6362 -1.0467
  136OSM    C9S14690   0.552   5.521   2.809  0.2646  0.6538 -0.5290
  136OSM    H9S14691   0.630   5.445   2.787  0.0459  0.8372 -2.0870
  136OSM    H9T14692   0.457   5.471   2.781  1.1537 -0.9066 -0.8510
  136OSM   C10S14693   0.551   5.565   2.957 -0.3762 -0.4738 -0.3175
  136OSM   H10S14694   0.448   5.596   2.985  0.0508  0.0507  0.7467
  136OSM   H10T14695   0.633   5.640   2.967 -1.0448  0.2162  0.1884
  136OSM   C11S14696   0.595   5.465   3.065 -0.6034 -0.0119  0.7290
  136OSM   H11S14697   0.571   5.509   3.165 -0.7659  1.1527  0.1878
  136OSM   H11T14698   0.705   5.451   3.052 -0.6828 -0.0125  0.0407
  136OSM   C12S14699   0.537   5.323   3.042 -0.1752 -0.4445 -0.4225
  136OSM   H12S14700   0.595   5.287   2.954  0.8222  1.2155 -0.4921
  136OSM   H12T14701   0.431   5.343   3.016  0.2208  1.4956 -0.6892
  136OSM   C13S14702   0.548   5.230   3.162 -0.0116 -0.0889 -0.0139
  136OSM   H13S14703   0.654   5.199   3.173 -0.0263 -0.2082 -0.2106
  136OSM   H13T14704   0.493   5.139   3.130  0.0434  0.1465 -0.8208
  136OSM   C14S14705   0.490   5.283   3.289 -0.2826  0.4653 -0.0997
  136OSM   H14S14706   0.383   5.312   3.282 -0.1713  0.5829 -1.5240
  136OSM   H14T14707   0.552   5.372   3.314  3.7438 -2.1775  0.2040
  136OSM   C15S14708   0.507   5.172   3.396  0.1489 -0.9017 -0.3038
  136OSM   H15S14709   0.615   5.148   3.401  0.5931  0.4207 -2.4376
  136OSM   H15T14710   0.461   5.073   3.375  3.6587 -2.2480 -2.6529
  136OSM   C16S14711   0.460   5.220   3.538  0.4561  0.2139 -0.3466
  136OSM   H16S14712   0.350   5.229   3.547  0.2420 -2.4580  0.5231
  136OSM   H16T14713   0.521   5.308   3.571 -0.7388  0.6301  0.8348
  136OSM   C17S14714   0.488   5.106   3.645  0.6471 -0.0146 -0.0521
  136OSM   H17S14715   0.425   5.023   3.607  1.7248 -0.7042 -0.3622
  136OSM   H17T14716   0.465   5.135   3.750  0.5960 -0.5358  0.0815
  136OSM   C18S14717   0.636   5.050   3.656  0.2855 -0.1715  0.6556
  136OSM   H18S14718   0.706   5.132   3.681 -0.5176  0.1668  1.8848
  136OSM   H18T14719   0.659   5.007   3.555 -4.3473  2.1663 -1.6897
  136OSM   H18U14720   0.644   4.969   3.732 -1.4500 -2.1207 -1.1095
  136OSM    C1F14721   0.272   5.639   2.082  0.6312 -0.0056  0.2834
  136OSM     OF14722   0.221   5.542   2.018 -0.0581  0.2087 -0.3841
  136OSM    C2F14723   0.186   5.749   2.142  0.7390  0.0671 -0.0494
  136OSM    H2F14724   0.128   5.799   2.062 -1.7749  0.2920  1.7739
  136OSM    H2G14725   0.247   5.824   2.198  1.1088 -2.2049  2.8364
  136OSM    C3F14726   0.099   5.696   2.257 -0.8191  0.1116 -0.6147
  136OSM    H3F14727   0.082   5.588   2.240  2.0492 -0.6103  0.6060
  136OSM    H3G14728  -0.004   5.737   2.258 -0.9670 -0.2338 -1.1351
  136OSM    C4F14729   0.171   5.719   2.393  0.3259  0.1651 -0.2464
  136OSM    H4F14730   0.152   5.823   2.426  1.8506  0.6122 -0.6868
  136OSM    H4G14731   0.280   5.711   2.371  0.2662  1.0882 -0.9369
  136OSM    C5F14732   0.122   5.632   2.517  0.1084 -0.0746  0.1729
  136OSM    H5F14733   0.137   5.524   2.495  0.1542  0.2050 -1.3137
  136OSM    H5G14734   0.013   5.652   2.525 -0.0440  0.0850 -1.7916
  136OSM    C6F14735   0.195   5.657   2.650  0.1622 -0.2175 -0.3538
  136OSM    H6F14736   0.155   5.755   2.687 -1.5490 -1.5970  1.6918
  136OSM    H6G14737   0.305   5.652   2.633  0.2017 -3.3467  0.3495
  136OSM    C7F14738   0.156   5.553   2.756  0.0368  0.0008  0.4967
  136OSM    H7F14739   0.202   5.452   2.747  0.0176 -0.0611  1.0321
  136OSM    H7G14740   0.049   5.528   2.740 -0.3286  0.5081  2.0138
  136OSM    C8F14741   0.172   5.613   2.895  0.9039 -0.1436  0.8939
  136OSM    H8F14742   0.098   5.696   2.899  0.2176 -0.3724 -2.9428
  136OSM    H8G14743   0.271   5.662   2.905  1.1708  0.3244 -2.6782
  136OSM    C9F14744   0.174   5.513   3.005  0.1689  0.1434 -0.0884
  136OSM    H9F14745   0.246   5.431   2.991  0.1562  0.3900 -1.7124
  136OSM   C10F14746   0.090   5.514   3.110 -1.0858 -0.2369 -0.3910
  136OSM   H10F14747   0.107   5.437   3.187  0.5722 -0.8218 -1.2991
  136OSM   C11F14748   0.006   5.630   3.151  0.1890 -1.1397 -0.1316
  136OSM   H11F14749  -0.094   5.617   3.103  0.4806  0.5332 -1.2650
  136OSM   H11G14750   0.034   5.730   3.112  0.1273 -0.4335  1.5674
  136OSM   C12F14751   0.006   5.657   3.304  0.1676  0.2777  0.2673
  136OSM   H12F14752   0.090   5.729   3.321  0.7744  0.3048 -2.4888
  136OSM   H12G14753   0.030   5.565   3.362 -1.5597 -1.2792 -1.3547
  136OSM   C13F14754  -0.123   5.719   3.353  0.1436  0.0816  0.0819
  136OSM   H13F14755  -0.202   5.641   3.343 -0.2395  0.2837  1.3929
  136OSM   H13G14756  -0.145   5.805   3.286 -0.2016  0.4208  0.6261
  136OSM   C14F14757  -0.118   5.764   3.506 -0.2886  0.0728  0.1946
  136OSM   H14F14758  -0.031   5.832   3.518 -1.9656  2.2003  1.0340
  136OSM   H14G14759  -0.101   5.675   3.570  0.2644  0.0061 -0.0385
  136OSM   C15F14760  -0.251   5.830   3.555 -0.5094 -0.3215  0.3436
  136OSM   H15F14761  -0.333   5.754   3.559 -1.7352  0.9825  2.9691
  136OSM   H15G14762  -0.265   5.911   3.481  2.0392  0.2275  0.3648
  136OSM   C16F14763  -0.250   5.899   3.698  0.5270 -0.4848 -0.0170
  136OSM   H16F14764  -0.352   5.942   3.706  1.4370  2.8391 -3.2011
  136OSM   H16G14765  -0.177   5.982   3.686 -0.0567 -0.0258 -0.4521
  136OSM   C17F14766  -0.203   5.811   3.816 -0.0724  0.2103  0.0242
  136OSM   H17F14767  -0.110   5.760   3.783 -0.1425  1.2817 -1.9750
  136OSM   H17G14768  -0.286   5.737   3.824  0.3443 -0.2925 -0.2231
  136OSM   C18F14769  -0.191   5.878   3.952  0.1078  0.6521 -0.1958
  136OSM   H18F14770  -0.156   5.804   4.027 -2.6863 -1.8335 -1.1241
  136OSM   H18G14771  -0.284   5.928   3.986 -1.0651 -1.3151 -0.3102
  136OSM   H18H14772  -0.104   5.947   3.948  3.0815 -2.8012 -3.2822
  137OSM      N14773   0.081   0.272   1.165 -0.1742 -0.2534  0.3024
  137OSM    C1514774   0.008   0.404   1.146 -0.3835  0.4813  0.7061
  137OSM   H15A14775  -0.021   0.417   1.043 -1.4603 -1.4743  0.7137
  137OSM   H15B14776   0.057   0.492   1.187 -0.9158  0.3895  1.5585
  137OSM   H15C14777  -0.093   0.406   1.184 -1.1278  2.8846 -1.1084
  137OSM    C1414778  -0.008   0.165   1.103  0.8692 -0.2448 -0.2726
  137OSM   H14A14779  -0.062   0.206   1.019  0.0233  1.2594  0.9434
  137OSM   H14B14780  -0.097   0.136   1.157 -0.3818  0.9040 -1.6176
  137OSM   H14C14781   0.040   0.070   1.088  2.5605 -0.0318  2.8982
  137OSM    C1314782   0.209   0.268   1.085  0.1658 -0.0368 -0.0443
  137OSM   H13A14783   0.249   0.170   1.068 -0.9517 -0.5475  0.2046
  137OSM   H13B14784   0.290   0.326   1.127 -0.1467  0.1873  0.2569
  137OSM   H13C14785   0.174   0.307   0.990  0.2527  1.8721  0.6645
  137OSM    C1214786   0.116   0.248   1.312 -0.2801 -0.3886  0.1867
  137OSM   H12A14787   0.190   0.317   1.350  1.2878 -1.6170 -0.5211
  137OSM   H12B14788   0.174   0.158   1.322 -0.7840 -0.5426  2.0673
  137OSM    C1114789   0.004   0.226   1.422 -0.9548  0.0680  0.0177
  137OSM   H11A14790  -0.047   0.324   1.436 -4.1008 -1.6329  1.2851
  137OSM   H11B14791   0.060   0.209   1.516 -1.5006  1.3471  0.6006
  137OSM      P14792  -0.049  -0.021   1.422  0.0151  0.1557 -0.0717
  137OSM    O1314793  -0.135  -0.108   1.338 -0.0457  0.0692 -0.4243
  137OSM    O1414794   0.094  -0.050   1.427  0.4820 -0.1143  0.5502
  137OSM    O1114795  -0.115  -0.018   1.569 -0.0007 -0.2345 -0.0302
  137OSM    O1214796  -0.085   0.129   1.385  0.3200  0.3681  0.4546
  137OSM    C1S14797  -0.038   0.005   1.688  0.3605  1.2526 -0.3527
  137OSM    H1S14798   0.062   0.047   1.664  0.4267  1.3326  0.0486
  137OSM    H1T14799  -0.021  -0.092   1.740 -3.0243  0.7826  0.0714
  137OSM     NF14800  -0.026   0.113   1.905  0.4802  0.1593  0.0717
  137OSM    HNF14801  -0.037   0.059   1.989 -1.4799  0.5413  0.1158
  137OSM    C2S14802  -0.113   0.093   1.795  0.9580 -0.1609 -0.3021
  137OSM    H2S14803  -0.131   0.192   1.748 -1.1897  0.6555  2.0303
  137OSM    C3S14804  -0.252   0.035   1.826 -0.4963  0.1379  0.3403
  137OSM    H3S14805  -0.245  -0.074   1.849  0.5878 -0.2111 -1.4826
  137OSM     O314806  -0.349   0.025   1.715  0.3973  0.5281  0.7354
  137OSM    HO314807  -0.303   0.012   1.632 -0.4691 -3.2248  0.6904
  137OSM    C4S14808  -0.313   0.098   1.941 -0.2969  0.1866  0.3840
  137OSM    H4S14809  -0.252   0.071   2.029  3.9091  2.7136 -1.4479
  137OSM    C5S14810  -0.424   0.178   1.954 -0.1679  0.4183  0.8402
  137OSM    H5S14811  -0.476   0.198   1.860 -1.8137  0.7512  1.7860
  137OSM    C6S14812  -0.493   0.228   2.079 -0.4909  0.5398 -0.3520
  137OSM    H6S14813  -0.598   0.194   2.069 -0.5904  0.7061  0.1178
  137OSM    H6T14814  -0.501   0.338   2.088 -0.4184  0.4736  0.6029
  137OSM    C7S14815  -0.438   0.171   2.210  0.0007  0.3301 -0.0600
  137OSM    H7S14816  -0.334   0.206   2.229 -0.3684  0.9225  0.9823
  137OSM    H7T14817  -0.438   0.060   2.203 -1.4942  0.2083  1.1931
  137OSM    C8S14818  -0.531   0.199   2.330 -0.9797  0.4450  0.1647
  137OSM    H8S14819  -0.626   0.147   2.310 -0.6873 -0.3307  0.7352
  137OSM    H8T14820  -0.553   0.307   2.316 -0.5351  0.7824  1.7809
  137OSM    C9S14821  -0.464   0.177   2.466 -0.5518 -0.2901 -0.0494
  137OSM    H9S14822  -0.379   0.248   2.466 -1.1861  0.5065  0.9919
  137OSM    H9T14823  -0.435   0.070   2.470 -0.1141 -0.1352  1.5492
  137OSM   C10S14824  -0.556   0.220   2.585 -0.4131  0.2707  0.1044
  137OSM   H10S14825  -0.632   0.141   2.603  0.4068 -0.5304  0.1736
  137OSM   H10T14826  -0.615   0.308   2.552  1.6949  2.1077  0.9967
  137OSM   C11S14827  -0.483   0.247   2.720  0.2798  0.6264  0.9782
  137OSM   H11S14828  -0.561   0.289   2.788 -0.0505  0.0704  0.9501
  137OSM   H11T14829  -0.394   0.310   2.700 -0.1684  1.1432  0.5484
  137OSM   C12S14830  -0.425   0.118   2.780  0.8525 -0.4485 -0.6527
  137OSM   H12S14831  -0.352   0.080   2.705  0.1146  0.6379 -1.9478
  137OSM   H12T14832  -0.510   0.049   2.793 -0.0205  1.1125  3.3211
  137OSM   C13S14833  -0.362   0.148   2.921  0.7319  0.8741 -1.2347
  137OSM   H13S14834  -0.293   0.235   2.911  0.0576  1.6729  0.6775
  137OSM   H13T14835  -0.306   0.060   2.958 -1.4961 -0.2776 -0.3987
  137OSM   C14S14836  -0.468   0.174   3.036 -0.1534 -0.0033 -0.8910
  137OSM   H14S14837  -0.552   0.102   3.028 -0.7645  0.4310  0.9781
  137OSM   H14T14838  -0.503   0.278   3.022  3.0079  1.4536  0.8810
  137OSM   C15S14839  -0.412   0.159   3.179  0.7398 -0.1344  0.2292
  137OSM   H15S14840  -0.307   0.194   3.182  0.6360  0.0818  2.5430
  137OSM   H15T14841  -0.398   0.051   3.202 -1.1646 -0.6566 -0.8087
  137OSM   C16S14842  -0.503   0.213   3.296 -0.2589 -0.1321  0.5840
  137OSM   H16S14843  -0.526   0.320   3.278 -1.1491 -0.3819  0.1648
  137OSM   H16T14844  -0.449   0.213   3.393 -0.1721 -2.6782  0.6084
  137OSM   C17S14845  -0.635   0.135   3.320 -0.5125  0.2584 -0.1608
  137OSM   H17S14846  -0.605   0.028   3.322 -0.6874  0.1286 -2.0955
  137OSM   H17T14847  -0.705   0.163   3.238 -3.1388  1.1742  2.2587
  137OSM   C18S14848  -0.704   0.176   3.454  0.0448  0.4929 -0.2261
  137OSM   H18S14849  -0.789   0.104   3.456  0.0823  0.3071 -2.5570
  137OSM   H18T14850  -0.762   0.271   3.450 -0.5398  0.1157 -0.9490
  137OSM   H18U14851  -0.646   0.163   3.548 -0.1270  0.8815 -0.0609
  137OSM    C1F14852   0.086   0.187   1.899  0.5298 -0.2465 -0.4550
  137OSM     OF14853   0.109   0.250   1.802 -0.1282 -0.3068  0.5748
  137OSM    C2F14854   0.186   0.185   2.007  0.5061  0.5542 -0.1288
  137OSM    H2F14855   0.249   0.094   2.012  0.3167  0.4711  1.0340
  137OSM    H2G14856   0.133   0.182   2.105  0.4035 -0.1764 -0.1987
  137OSM    C3F14857   0.265   0.317   2.022  0.3119  0.6580  0.4060
  137OSM    H3F14858   0.199   0.406   2.031 -0.8764 -0.1569 -0.1027
  137OSM    H3G14859   0.320   0.317   1.926  1.6461 -1.2558  1.1180
  137OSM    C4F14860   0.376   0.300   2.122 -0.3556 -0.4714 -0.0329
  137OSM    H4F14861   0.448   0.220   2.096 -0.7818 -1.5624  1.9127
  137OSM    H4G14862   0.326   0.277   2.219 -0.9099  1.5530  0.2233
  137OSM    C5F14863   0.440   0.436   2.155 -0.1086 -0.5271 -0.9678
  137OSM    H5F14864   0.363   0.516   2.157 -1.7032 -1.9530  1.6048
  137OSM    H5G14865   0.507   0.467   2.073  0.5616  1.7949  0.3880
  137OSM    C6F14866   0.527   0.443   2.286 -0.1792 -0.4274 -0.1335
  137OSM    H6F14867   0.611   0.515   2.279 -0.6868  0.1775 -0.1238
  137OSM    H6G14868   0.576   0.346   2.309  1.7005 -0.2917 -3.1170
  137OSM    C7F14869   0.452   0.496   2.411  0.8259 -0.0548 -0.2720
  137OSM    H7F14870   0.369   0.429   2.442  2.0754 -1.4149  0.2477
  137OSM    H7G14871   0.408   0.597   2.395  0.3705 -0.0044  1.1665
  137OSM    C8F14872   0.530   0.518   2.542 -0.3221 -0.7599 -0.0974
  137OSM    H8F14873   0.459   0.564   2.615 -0.4890 -2.4673  0.8548
  137OSM    H8G14874   0.618   0.585   2.530 -0.0615 -1.3098 -1.4766
  137OSM    C9F14875   0.576   0.382   2.591  0.2013  0.3426 -0.6423
  137OSM    H9F14876   0.549   0.295   2.530 -1.2301  0.5453 -0.3395
  137OSM   C10F14877   0.642   0.363   2.708 -0.0141 -0.6515  0.2438
  137OSM   H10F14878   0.684   0.265   2.733  0.3140 -0.5312  0.1739
  137OSM   C11F14879   0.689   0.469   2.807  0.0460  0.3717  0.2401
  137OSM   H11F14880   0.632   0.564   2.803 -0.8073 -0.1684 -1.5498
  137OSM   H11G14881   0.794   0.487   2.776  0.6551 -0.5633  1.6607
  137OSM   C12F14882   0.690   0.430   2.952 -0.0095 -0.1399  0.2156
  137OSM   H12F14883   0.734   0.331   2.978 -1.9033 -1.0416  0.1807
  137OSM   H12G14884   0.582   0.422   2.977 -0.0821  2.3988  1.0350
  137OSM   C13F14885   0.751   0.544   3.036  0.2143  0.7593 -1.0712
  137OSM   H13F14886   0.737   0.640   2.981 -1.0996 -0.0721 -2.2638
  137OSM   H13G14887   0.861   0.527   3.031 -0.0485 -1.0862 -1.2527
  137OSM   C14F14888   0.686   0.553   3.180 -0.2039  0.4520  0.2122
  137OSM   H14F14889   0.576   0.564   3.163 -0.2003 -0.2715 -0.2954
  137OSM   H14G14890   0.719   0.647   3.230  1.0916  0.2870 -0.2917
  137OSM   C15F14891   0.721   0.426   3.254 -0.1711  0.0483 -0.0242
  137OSM   H15F14892   0.829   0.420   3.278 -1.1162 -1.9645  4.8639
  137OSM   H15G14893   0.711   0.330   3.198 -0.8002 -0.4325  0.8742
  137OSM   C16F14894   0.645   0.409   3.393  0.6362  0.3227  0.2810
  137OSM   H16F14895   0.535   0.411   3.382  0.4733 -0.3331  1.5949
  137OSM   H16G14896   0.667   0.500   3.454 -1.2392  1.7895 -1.0899
  137OSM   C17F14897   0.704   0.289   3.473  0.0774 -0.8082  0.2498
  137OSM   H17F14898   0.814   0.277   3.468  0.2190 -0.5010  1.9044
  137OSM   H17G14899   0.671   0.202   3.413  1.5479 -0.5421 -1.0257
  137OSM   C18F14900   0.644   0.274   3.611 -0.3665  0.4274  0.0809
  137OSM   H18F14901   0.655   0.368   3.668 -2.1814  1.1236 -0.6422
  137OSM   H18G14902   0.698   0.190   3.661 -0.6754  0.6445  0.7920
  137OSM   H18H14903   0.536   0.251   3.619 -0.2095 -0.9928 -1.2672
  138OSM      N14904   5.786   5.752   1.490  0.3156 -0.0688 -0.1415
  138OSM    C1514905   5.788   5.672   1.608 -0.7193 -0.0911 -0.5944
  138OSM   H15A14906   5.869   5.602   1.616  0.4335  1.2514 -0.0578
  138OSM   H15B14907   5.692   5.623   1.617 -0.9922  0.4867 -0.2699
  138OSM   H15C14908   5.796   5.738   1.693 -2.5750 -0.7115  0.1177
  138OSM    C1414909   5.920   5.830   1.477  0.4753  0.1536 -0.3892
  138OSM   H14A14910   5.927   5.899   1.395  0.2173  0.9044  0.2033
  138OSM   H14B14911   5.995   5.752   1.468 -2.6668 -3.0218 -1.4807
  138OSM   H14C14912   5.939   5.893   1.563 -2.0636 -0.5228  0.7662
  138OSM    C1314913   5.780   5.670   1.365  0.6631  0.9413  0.0119
  138OSM   H13A14914   5.863   5.601   1.360  0.1172  0.3031 -0.3493
  138OSM   H13B14915   5.800   5.725   1.274 -2.5637 -0.4110 -1.6666
  138OSM   H13C14916   5.689   5.612   1.360 -1.2492  3.6863  0.6797
  138OSM    C1214917   5.673   5.851   1.496  0.0461 -0.4552  0.4724
  138OSM   H12A14918   5.658   5.907   1.405 -0.8875  0.9807  1.4732
  138OSM   H12B14919   5.678   5.910   1.586  0.0504 -3.7124  2.7515
  138OSM    C1114920   5.531   5.785   1.515 -0.0960  0.0636  0.6601
  138OSM   H11A14921   5.504   5.730   1.608  1.4461 -5.0165 -1.5908
  138OSM   H11B14922   5.509   5.707   1.440 -2.3774 -0.9953  2.3095
  138OSM      P14923   5.408   5.990   1.626 -0.1488 -0.5514  0.1644
  138OSM    O1314924   5.384   6.126   1.560  0.3079  0.1049 -0.2354
  138OSM    O1414925   5.297   5.928   1.705 -0.4694 -0.3616 -0.3710
  138OSM    O1114926   5.542   5.987   1.707 -0.4149  0.0382  0.6910
  138OSM    O1214927   5.432   5.887   1.506 -0.2390 -1.0245 -0.1319
  138OSM    C1S14928   5.582   6.114   1.767  0.1075  0.3982  0.0017
  138OSM    H1S14929   5.495   6.166   1.812  0.7939  0.3349  1.4501
  138OSM    H1T14930   5.640   6.175   1.694  1.1996  0.8135  1.1730
  138OSM     NF14931   5.673   6.176   2.013  0.1167  0.4926 -0.1680
  138OSM    HNF14932   5.738   6.250   2.029 -1.2625  1.1575  3.0733
  138OSM    C2S14933   5.680   6.082   1.895  0.0468 -0.1823  0.3147
  138OSM    H2S14934   5.636   5.987   1.934  0.7393 -0.3058  0.8090
  138OSM    C3S14935   5.827   6.052   1.846  0.4967 -0.0291 -0.1476
  138OSM    H3S14936   5.877   6.151   1.834 -2.4410  1.4687 -0.9808
  138OSM     O314937   5.833   6.004   1.712 -0.0733  0.4104 -0.4231
  138OSM    HO314938   5.741   6.004   1.686 -0.2162  1.5154  0.0293
  138OSM    C4S14939   5.911   5.969   1.937 -0.0362 -0.3038  0.0798
  138OSM    H4S14940   5.966   6.024   2.015 -1.0026  0.8080 -0.0083
  138OSM    C5S14941   5.931   5.834   1.947 -0.3820 -0.5288 -0.6356
  138OSM    H5S14942   5.862   5.766   1.895  0.4048 -2.2483  0.4743
  138OSM    C6S14943   6.031   5.782   2.043 -0.3497  1.0710 -0.9740
  138OSM    H6S14944   6.114   5.854   2.061  0.4335  0.0173 -0.2742
  138OSM    H6T14945   6.075   5.686   2.008  0.6359  0.8225  0.8691
  138OSM    C7S14946   5.980   5.763   2.183 -0.8835  0.4916 -0.0874
  138OSM    H7S14947   5.901   5.686   2.198  1.7047 -2.7540 -1.6823
  138OSM    H7T14948   5.938   5.862   2.210  1.2921  2.7171 -3.9007
  138OSM    C8S14949   6.096   5.721   2.285  0.2554 -0.2200 -0.6307
  138OSM    H8S14950   6.175   5.798   2.276  2.0796 -1.6836  1.7070
  138OSM    H8T14951   6.141   5.622   2.261 -0.0805 -0.8427  1.1760
  138OSM    C9S14952   6.049   5.741   2.420 -0.2444  0.2517  0.0495
  138OSM    H9S14953   5.984   5.655   2.448  0.1461  0.3935  1.4737
  138OSM    H9T14954   5.982   5.829   2.420  0.5349  1.0014 -3.6346
  138OSM   C10S14955   6.169   5.748   2.516  0.1372 -0.5982  0.3474
  138OSM   H10S14956   6.227   5.841   2.501 -0.0244 -0.5837 -0.2045
  138OSM   H10T14957   6.226   5.656   2.492  0.3199 -0.4355  0.1454
  138OSM   C11S14958   6.112   5.741   2.662 -0.8526 -0.3044  0.2211
  138OSM   H11S14959   6.085   5.641   2.701 -1.1185  0.1458  1.2461
  138OSM   H11T14960   6.018   5.800   2.673 -0.1287  0.7520  1.0027
  138OSM   C12S14961   6.217   5.796   2.763  0.0630 -0.5420 -0.4188
  138OSM   H12S14962   6.231   5.906   2.761  0.3910 -0.5929 -1.2449
  138OSM   H12T14963   6.310   5.743   2.733  0.1212  0.0136 -1.2603
  138OSM   C13S14964   6.188   5.766   2.908 -0.3659  0.0907  0.0869
  138OSM   H13S14965   6.202   5.658   2.929 -0.0290  0.0479 -0.3194
  138OSM   H13T14966   6.078   5.777   2.920 -0.0595  2.5227  1.3931
  138OSM   C14S14967   6.267   5.853   3.004 -0.8710 -0.0327  0.7032
  138OSM   H14S14968   6.253   5.960   2.978  0.4851 -0.2176 -0.9399
  138OSM   H14T14969   6.376   5.831   2.995 -1.2280 -1.1862 -1.1803
  138OSM   C15S14970   6.222   5.833   3.141  0.0434 -0.1525  0.2698
  138OSM   H15S14971   6.111   5.832   3.145 -0.0017  2.1998  1.5914
  138OSM   H15T14972   6.263   5.923   3.192  0.8974 -0.1432 -0.4175
  138OSM   C16S14973   6.266   5.696   3.203 -0.5712 -0.8502  0.6882
  138OSM   H16S14974   6.376   5.707   3.197 -0.6526  3.3525  3.1812
  138OSM   H16T14975   6.238   5.609   3.140  2.1016 -2.3751  1.4353
  138OSM   C17S14976   6.225   5.668   3.348  0.3197 -0.0817 -0.5580
  138OSM   H17S14977   6.114   5.662   3.354  0.2093  1.4291 -0.6248
  138OSM   H17T14978   6.251   5.761   3.402  0.2438  0.3333 -1.2240
  138OSM   C18S14979   6.277   5.536   3.412 -0.3610 -0.7523 -0.4817
  138OSM   H18S14980   6.247   5.452   3.346  2.5615  0.0262 -3.0014
  138OSM   H18T14981   6.234   5.520   3.513 -0.6672 -0.8511 -0.6261
  138OSM   H18U14982   6.386   5.546   3.430  0.0438  3.0519 -3.7827
  138OSM    C1F14983   5.575   6.171   2.098  0.1383 -0.2193  0.2628
  138OSM     OF14984   5.516   6.061   2.113  0.1683  0.8266  0.0789
  138OSM    C2F14985   5.536   6.291   2.173 -0.2363  0.0100  0.0536
  138OSM    H2F14986   5.425   6.297   2.177 -0.3303  0.3343 -2.0083
  138OSM    H2G14987   5.565   6.382   2.117 -1.5005 -1.4072 -3.1216
  138OSM    C3F14988   5.598   6.296   2.314  0.0775 -0.5219 -0.2120
  138OSM    H3F14989   5.707   6.320   2.309  0.8194 -3.0783  1.3642
  138OSM    H3G14990   5.600   6.194   2.359  0.2679 -0.7848 -0.8103
  138OSM    C4F14991   5.538   6.394   2.412  0.8970  0.5026  0.7555
  138OSM    H4F14992   5.427   6.386   2.414  0.7477  0.7417 -2.1362
  138OSM    H4G14993   5.562   6.498   2.379  1.0679  0.9217  2.1051
  138OSM    C5F14994   5.603   6.383   2.555  0.3137  0.6519  0.0876
  138OSM    H5F14995   5.711   6.381   2.531  0.1065 -1.7810 -0.9342
  138OSM    H5G14996   5.583   6.286   2.605 -1.0575  1.9475  2.1771
  138OSM    C6F14997   5.575   6.501   2.642 -0.1677  0.2573 -0.1326
  138OSM    H6F14998   5.464   6.507   2.644 -0.2130 -0.2744  2.0574
  138OSM    H6G14999   5.627   6.587   2.595  0.1017 -0.6174 -1.5055
  138OSM    C7F15000   5.642   6.486   2.775 -0.5800 -0.6427  0.1277
  138OSM    H7F15001   5.649   6.583   2.827 -0.6687 -0.9355  0.6875
  138OSM    H7G15002   5.744   6.445   2.763  0.0060  0.6620  0.4879
  138OSM    C8F15003   5.564   6.392   2.877  0.1416  0.6050  0.6614
  138OSM    H8F15004   5.630   6.390   2.966  1.7328 -1.8556 -0.4490
  138OSM    H8G15005   5.576   6.291   2.832  4.5448  1.4530 -0.5568
  138OSM    C9F15006   5.428   6.433   2.922 -0.6611  0.9845 -0.5262
  138OSM    H9F15007   5.349   6.403   2.851 -0.8855  0.9943 -0.2860
  138OSM   C10F15008   5.385   6.488   3.032 -0.2832 -0.1255  0.0173
  138OSM   H10F15009   5.282   6.526   3.040  0.0298  0.8608 -0.4473
  138OSM   C11F15010   5.470   6.543   3.147 -0.0036 -0.2855  0.3762
  138OSM   H11F15011   5.467   6.654   3.156 -0.9818 -0.0117 -2.2722
  138OSM   H11G15012   5.576   6.519   3.122 -0.2434 -1.2569  0.2495
  138OSM   C12F15013   5.428   6.476   3.282 -0.6108  0.1413  0.8802
  138OSM   H12F15014   5.451   6.368   3.274  0.6872  0.5400 -2.2610
  138OSM   H12G15015   5.318   6.487   3.293 -0.4754  0.2112  2.5581
  138OSM   C13F15016   5.509   6.517   3.407  0.3959  0.1113  0.0919
  138OSM   H13F15017   5.464   6.610   3.447  0.6372  0.2152  0.1279
  138OSM   H13G15018   5.616   6.535   3.381  0.1369  0.0241 -1.0852
  138OSM   C14F15019   5.512   6.407   3.515 -0.1184 -0.5086  0.0072
  138OSM   H14F15020   5.577   6.447   3.595 -1.3173  0.2613  0.6296
  138OSM   H14G15021   5.575   6.324   3.477  1.7094  0.5192  0.6442
  138OSM   C15F15022   5.374   6.367   3.566 -0.1162  0.0245 -0.6014
  138OSM   H15F15023   5.381   6.276   3.629 -0.9142 -0.5150 -1.2782
  138OSM   H15G15024   5.303   6.331   3.488  0.4289  0.4896 -1.3212
  138OSM   C16F15025   5.305   6.480   3.658 -0.0264  0.5450 -0.1041
  138OSM   H16F15026   5.210   6.442   3.700 -0.1760  2.3020  1.2391
  138OSM   H16G15027   5.290   6.566   3.589  1.2468  0.8565 -0.0173
  138OSM   C17F15028   5.380   6.525   3.787 -0.1524  0.8390  0.0759
  138OSM   H17F15029   5.472   6.585   3.767 -0.4300  0.8701 -1.2137
  138OSM   H17G15030   5.416   6.433   3.839  0.1892 -0.3221 -2.0848
  138OSM   C18F15031   5.287   6.610   3.877 -0.1549 -0.1571  0.1004
  138OSM   H18F15032   5.256   6.708   3.834 -1.7168 -1.0231 -0.8371
  138OSM   H18G15033   5.337   6.633   3.974  1.4329 -0.8320 -0.5242
  138OSM   H18H15034   5.193   6.555   3.897 -1.5010  0.8762 -2.8886
  139OSM      N15035   1.397   2.486   1.521 -0.4473 -0.3212 -0.0477
  139OSM    C1515036   1.311   2.607   1.540 -0.1141  0.0895  0.1118
  139OSM   H15A15037   1.205   2.583   1.545 -0.4448  1.2078 -0.9913
  139OSM   H15B15038   1.330   2.684   1.466  0.2035  0.9212  1.0324
  139OSM   H15C15039   1.334   2.650   1.636 -0.6156  0.4948  0.0606
  139OSM    C1415040   1.348   2.379   1.611 -0.0864  0.4361 -0.0224
  139OSM   H14A15041   1.403   2.288   1.594  0.5187  1.0570 -1.5252
  139OSM   H14B15042   1.246   2.362   1.580  0.5796 -0.7081 -1.6844
  139OSM   H14C15043   1.348   2.401   1.717  1.1306 -1.1693  0.3466
  139OSM    C1315044   1.383   2.445   1.381  0.0199  0.0069  0.1606
  139OSM   H13A15045   1.414   2.530   1.322 -0.2498  0.1494  0.2191
  139OSM   H13B15046   1.282   2.423   1.350 -0.8547  2.1980  1.2480
  139OSM   H13C15047   1.444   2.360   1.357  1.7129  1.1928  0.1056
  139OSM    C1215048   1.542   2.520   1.556 -0.1851 -0.3540  0.1655
  139OSM   H12A15049   1.576   2.590   1.482  0.3831 -0.7777  0.0227
  139OSM   H12B15050   1.602   2.436   1.526  0.2229  0.7940 -2.5689
  139OSM    C1115051   1.582   2.578   1.693 -0.5039  0.6316 -0.4855
  139OSM   H11A15052   1.693   2.591   1.692 -0.2672 -0.9632 -2.9269
  139OSM   H11B15053   1.554   2.505   1.772  0.8653  1.2888  0.6563
  139OSM      P15054   1.577   2.830   1.642 -0.2496  0.0540  0.0666
  139OSM    O1315055   1.657   2.784   1.526 -0.5575 -0.2192  0.8920
  139OSM    O1415056   1.469   2.930   1.621  0.3942 -0.1117 -0.3111
  139OSM    O1115057   1.678   2.884   1.751  0.0729  0.0978 -0.6653
  139OSM    O1215058   1.520   2.706   1.713 -0.2095  1.2580  0.4654
  139OSM    C1S15059   1.633   2.949   1.866 -0.3749  0.5123 -0.8683
  139OSM    H1S15060   1.523   2.963   1.869 -0.4596  0.0060 -1.4694
  139OSM    H1T15061   1.684   3.048   1.866  3.3219 -1.2124 -0.2731
  139OSM     NF15062   1.667   2.976   2.108 -0.2569 -0.5482 -0.8040
  139OSM    HNF15063   1.747   3.021   2.146 -2.0368  1.2517  1.0841
  139OSM    C2S15064   1.678   2.876   2.002 -0.3585  0.1296 -0.1250
  139OSM    H2S15065   1.604   2.795   2.019  2.0935 -2.7536 -1.8363
  139OSM    C3S15066   1.819   2.811   1.994 -0.2733 -0.6129  0.1188
  139OSM    H3S15067   1.896   2.887   1.968 -0.4289 -0.0524  1.2719
  139OSM     O315068   1.832   2.719   1.887 -0.0119  1.1484  0.0677
  139OSM    HO315069   1.751   2.729   1.837  0.1279  1.6798 -0.0676
  139OSM    C4S15070   1.862   2.745   2.123 -0.1630 -0.0079 -0.0032
  139OSM    H4S15071   1.774   2.698   2.170 -0.4160  2.0094  1.6967
  139OSM    C5S15072   1.980   2.725   2.177 -0.6194  0.7073  0.2471
  139OSM    H5S15073   2.067   2.765   2.124  0.4617 -0.8939  0.7354
  139OSM    C6S15074   2.014   2.656   2.307 -0.4627  0.2137  0.5905
  139OSM    H6S15075   2.101   2.712   2.347  1.2615 -1.7885 -0.1809
  139OSM    H6T15076   2.048   2.551   2.290  2.1961  1.1893 -0.6654
  139OSM    C7S15077   1.905   2.672   2.410  0.3721  0.0832 -1.0352
  139OSM    H7S15078   1.800   2.646   2.384 -0.3531  1.2095  0.5751
  139OSM    H7T15079   1.890   2.780   2.431  1.4533  0.1591 -0.5990
  139OSM    C8S15080   1.949   2.592   2.534  0.3961 -0.0385  0.4058
  139OSM    H8S15081   2.035   2.643   2.582  1.6314 -1.4872 -0.1843
  139OSM    H8T15082   1.984   2.488   2.515  1.5284  0.5496 -0.9909
  139OSM    C9S15083   1.841   2.586   2.643 -0.7724 -0.1572  0.6806
  139OSM    H9S15084   1.748   2.537   2.609 -0.5359  1.4386 -2.6558
  139OSM    H9T15085   1.798   2.686   2.664 -0.6330  0.2199 -0.7407
  139OSM   C10S15086   1.886   2.514   2.771 -0.2663  0.6658  0.2176
  139OSM   H10S15087   1.993   2.545   2.781 -0.5613  1.2475  1.8224
  139OSM   H10T15088   1.885   2.405   2.752  1.5354  0.3211  1.7770
  139OSM   C11S15089   1.805   2.551   2.895  0.4282 -0.0789 -0.2476
  139OSM   H11S15090   1.704   2.543   2.849  1.1647 -3.9053 -1.5033
  139OSM   H11T15091   1.818   2.654   2.935  1.0751  0.4173 -1.6405
  139OSM   C12S15092   1.814   2.449   3.010  0.2121  0.4692  0.3475
  139OSM   H12S15093   1.914   2.404   3.028 -0.2382 -0.7464 -0.0983
  139OSM   H12T15094   1.756   2.361   2.977  0.0798  0.7676 -0.2451
  139OSM   C13S15095   1.748   2.480   3.141 -0.0832  0.1777  0.4812
  139OSM   H13S15096   1.683   2.396   3.174 -1.4356  0.8847 -0.2871
  139OSM   H13T15097   1.672   2.558   3.118  0.8776  1.8083  2.4709
  139OSM   C14S15098   1.841   2.533   3.248 -0.4691 -0.5467 -0.5903
  139OSM   H14S15099   1.912   2.598   3.193  1.0649 -0.2139  1.6396
  139OSM   H14T15100   1.899   2.461   3.310 -0.6694  1.2199  1.8052
  139OSM   C15S15101   1.769   2.628   3.359  0.1308 -0.5004 -0.0837
  139OSM   H15S15102   1.668   2.583   3.372 -0.6250 -0.3081 -4.0932
  139OSM   H15T15103   1.758   2.736   3.332  1.3821 -0.4434 -0.4385
  139OSM   C16S15104   1.840   2.641   3.498  0.2609 -0.3711 -0.6736
  139OSM   H16S15105   1.942   2.683   3.485  0.4652  0.1991  2.0552
  139OSM   H16T15106   1.851   2.538   3.538  0.8491 -0.7189 -1.6961
  139OSM   C17S15107   1.759   2.728   3.601 -0.6772 -0.0347 -0.4191
  139OSM   H17S15108   1.804   2.727   3.702 -2.9957  0.4787  0.6629
  139OSM   H17T15109   1.657   2.687   3.613  0.2289 -3.1246 -2.0047
  139OSM   C18S15110   1.752   2.876   3.572  0.3095 -0.9278  0.1300
  139OSM   H18S15111   1.850   2.926   3.585 -0.5498  0.3805  1.9685
  139OSM   H18T15112   1.671   2.917   3.636  0.6788  2.0326 -1.1175
  139OSM   H18U15113   1.717   2.894   3.468 -2.1317  0.9059  1.1646
  139OSM    C1F15114   1.553   3.026   2.157  0.2635  0.3819 -0.2966
  139OSM     OF15115   1.443   3.017   2.099 -0.8937  0.6282 -0.5452
  139OSM    C2F15116   1.576   3.100   2.289  0.7497  0.4742 -0.1999
  139OSM    H2F15117   1.618   3.202   2.277  1.7425  0.2885  1.4424
  139OSM    H2G15118   1.667   3.052   2.330  0.3188  0.1630  0.4020
  139OSM    C3F15119   1.461   3.093   2.388 -0.1228  0.3769  0.3527
  139OSM    H3F15120   1.453   2.994   2.438 -1.2283  0.4857  0.4248
  139OSM    H3G15121   1.367   3.113   2.333  0.2288 -1.5619 -1.0633
  139OSM    C4F15122   1.475   3.203   2.494 -0.1766  0.9066  0.0821
  139OSM    H4F15123   1.518   3.295   2.448 -1.9095 -0.4866 -5.0433
  139OSM    H4G15124   1.539   3.161   2.574 -0.5641  0.5240  0.1908
  139OSM    C5F15125   1.343   3.257   2.557 -1.1109 -0.1591  0.4419
  139OSM    H5F15126   1.272   3.311   2.491 -1.3501 -1.4581 -0.3887
  139OSM    H5G15127   1.382   3.316   2.643  0.0747 -2.2695  1.4326
  139OSM    C6F15128   1.250   3.154   2.622 -0.2138  0.2417  0.3949
  139OSM    H6F15129   1.292   3.116   2.718  0.6911  0.6451  0.1758
  139OSM    H6G15130   1.240   3.064   2.558  2.1794 -1.4412  2.1713
  139OSM    C7F15131   1.111   3.207   2.659  0.1945  0.2206  0.3163
  139OSM    H7F15132   1.063   3.234   2.563  0.2251 -2.8211 -0.6256
  139OSM    H7G15133   1.112   3.302   2.718  1.0661 -0.3570  1.2565
  139OSM    C8F15134   1.036   3.101   2.740  0.0358  1.0963  0.9678
  139OSM    H8F15135   1.035   3.006   2.683  0.6325  1.9142 -0.4681
  139OSM    H8G15136   0.932   3.137   2.750 -0.2630  0.5142  0.0182
  139OSM    C9F15137   1.087   3.067   2.879  0.2680 -0.1335  0.4627
  139OSM    H9F15138   1.188   3.026   2.864  1.6196  3.2927 -1.0090
  139OSM   C10F15139   1.036   3.091   3.005  0.0088 -0.4058 -0.4044
  139OSM   H10F15140   1.088   3.053   3.094 -0.0315 -0.0900 -0.2444
  139OSM   C11F15141   0.898   3.141   3.046 -0.1208  0.0949 -0.4690
  139OSM   H11F15142   0.825   3.107   2.970  0.2632 -2.1399  0.1066
  139OSM   H11G15143   0.891   3.252   3.035  0.1244  0.1911  0.2486
  139OSM   C12F15144   0.850   3.074   3.178  0.0064  0.4357 -0.7165
  139OSM   H12F15145   0.752   3.115   3.211  0.5408  0.9725  0.2715
  139OSM   H12G15146   0.923   3.092   3.260  0.2585  1.5423 -1.1760
  139OSM   C13F15147   0.833   2.921   3.170 -0.2849 -0.3701  0.2555
  139OSM   H13F15148   0.925   2.867   3.138 -1.9001 -2.2663 -1.4583
  139OSM   H13G15149   0.760   2.901   3.089  0.8264 -2.2351 -0.3574
  139OSM   C14F15150   0.788   2.853   3.305 -0.2344 -0.3063  0.5008
  139OSM   H14F15151   0.691   2.900   3.334 -1.0800 -1.5354 -0.2011
  139OSM   H14G15152   0.869   2.877   3.376  0.6504  0.7345 -0.8132
  139OSM   C15F15153   0.774   2.698   3.270 -0.3275  0.4141 -0.5315
  139OSM   H15F15154   0.861   2.651   3.220 -0.7388 -0.9482 -0.0210
  139OSM   H15G15155   0.700   2.702   3.187 -0.5529  1.9788 -0.2825
  139OSM   C16F15156   0.741   2.605   3.388 -0.0536  0.2135  0.2404
  139OSM   H16F15157   0.726   2.504   3.345 -0.3174  0.1297  0.5246
  139OSM   H16G15158   0.642   2.641   3.425  0.3585  0.6803  0.9156
  139OSM   C17F15159   0.845   2.606   3.504  0.0483 -0.6041  0.4545
  139OSM   H17F15160   0.833   2.709   3.544  0.1789 -1.1916  2.0813
  139OSM   H17G15161   0.948   2.601   3.464 -0.6761 -1.4115 -1.4342
  139OSM   C18F15162   0.817   2.499   3.608 -0.3025 -0.1769 -0.3408
  139OSM   H18F15163   0.710   2.502   3.635 -0.3593  0.3357 -0.6178
  139OSM   H18G15164   0.868   2.530   3.701 -0.4030 -3.3664  0.9139
  139OSM   H18H15165   0.838   2.394   3.575 -0.3779 -1.0878  2.2749
  140OSM      N15166   4.761   4.916   1.521  0.4063  0.8422  0.1626
  140OSM    C1515167   4.734   4.798   1.603  0.4761 -0.2752 -0.3524
  140OSM   H15A15168   4.820   4.761   1.658  1.9773  2.0995 -0.9683
  140OSM   H15B15169   4.699   4.718   1.540 -3.0091  1.8506 -1.3748
  140OSM   H15C15170   4.652   4.820   1.669  1.7853  1.9365  0.6505
  140OSM    C1415171   4.866   4.879   1.421 -0.0908  0.0959  0.5325
  140OSM   H14A15172   4.837   4.796   1.359 -1.2480  1.1209 -0.3300
  140OSM   H14B15173   4.959   4.843   1.462  0.0397 -1.3460 -0.9658
  140OSM   H14C15174   4.898   4.960   1.357  3.1941 -0.2672  1.5021
  140OSM    C1315175   4.628   4.948   1.456 -0.4288 -0.0128  0.1653
  140OSM   H13A15176   4.597   4.858   1.404  1.1203 -0.2214 -0.4380
  140OSM   H13B15177   4.621   5.033   1.389  0.2200  0.9236  1.2517
  140OSM   H13C15178   4.544   4.969   1.520 -2.0174 -1.8097 -1.2112
  140OSM    C1215179   4.804   5.039   1.601 -0.1173  0.4505 -0.3577
  140OSM   H12A15180   4.886   5.004   1.661 -2.3422 -0.7189  2.1959
  140OSM   H12B15181   4.732   5.060   1.678 -0.5997  0.1555 -0.7186
  140OSM    C1115182   4.832   5.171   1.527 -0.7758  0.7628 -0.2288
  140OSM   H11A15183   4.890   5.159   1.433  3.1406  2.0457  1.7689
  140OSM   H11B15184   4.898   5.241   1.583  0.0677 -1.0706  1.1901
  140OSM      P15185   4.619   5.294   1.621  0.1941 -0.0736  0.4498
  140OSM    O1315186   4.591   5.438   1.584 -0.6675  0.0182 -0.0145
  140OSM    O1415187   4.504   5.201   1.628 -0.0664 -0.0469  0.2372
  140OSM    O1115188   4.709   5.294   1.746  0.5064 -0.0410 -0.0976
  140OSM    O1215189   4.709   5.236   1.503 -0.5492 -0.2141 -0.6088
  140OSM    C1S15190   4.758   5.410   1.814 -0.1241  0.3984  0.3323
  140OSM    H1S15191   4.678   5.486   1.826  0.4549  0.7298  2.5294
  140OSM    H1T15192   4.847   5.445   1.757 -1.6290 -1.0305 -3.1810
  140OSM     NF15193   4.833   5.515   2.032 -0.5678 -0.0054 -0.0150
  140OSM    HNF15194   4.929   5.542   2.031 -0.9412  1.4118 -1.2062
  140OSM    C2S15195   4.805   5.385   1.966 -0.1986  1.6472 -0.3156
  140OSM    H2S15196   4.727   5.323   2.017  3.2115 -1.1161  2.0079
  140OSM    C3S15197   4.917   5.281   1.968 -0.2987  0.5209 -0.2565
  140OSM    H3S15198   4.992   5.335   1.906 -1.4030  0.0304 -2.0870
  140OSM     O315199   4.886   5.170   1.889  0.0939  0.6843  0.0448
  140OSM    HO315200   4.818   5.203   1.831 -0.8094  0.8215  1.1472
  140OSM    C4S15201   4.966   5.266   2.112 -0.5306  0.5517 -0.1096
  140OSM    H4S15202   5.068   5.303   2.128  0.0505 -1.0589  0.0740
  140OSM    C5S15203   4.903   5.190   2.206 -0.5012  0.0394 -0.1389
  140OSM    H5S15204   4.810   5.140   2.176  0.1130 -0.2725 -1.6210
  140OSM    C6S15205   4.961   5.159   2.348 -0.8270  0.5541  0.2352
  140OSM    H6S15206   4.979   5.049   2.353 -0.6733  0.4838 -1.3647
  140OSM    H6T15207   4.884   5.179   2.425 -0.5187 -2.3341  1.4189
  140OSM    C7S15208   5.091   5.231   2.386 -0.5967  0.5266 -0.2360
  140OSM    H7S15209   5.173   5.201   2.318  0.0065 -0.5313  0.9168
  140OSM    H7T15210   5.118   5.206   2.491 -0.8834  2.7603  0.4148
  140OSM    C8S15211   5.077   5.386   2.389  0.3457 -0.0098 -0.3166
  140OSM    H8S15212   4.971   5.416   2.405  0.3730  1.6308 -2.6139
  140OSM    H8T15213   5.108   5.439   2.296  1.7917 -1.5743 -0.7782
  140OSM    C9S15214   5.168   5.440   2.499  0.7166 -0.4632  0.0271
  140OSM    H9S15215   5.186   5.550   2.491  2.0526 -0.5858  0.9951
  140OSM    H9T15216   5.269   5.394   2.491  1.6829  1.6392 -0.7834
  140OSM   C10S15217   5.116   5.416   2.649  0.0893 -0.1454 -0.1688
  140OSM   H10S15218   5.114   5.306   2.656  0.5258 -0.3534 -2.3617
  140OSM   H10T15219   5.013   5.457   2.647 -0.4036 -1.2327  1.5628
  140OSM   C11S15220   5.208   5.478   2.752  0.5949 -0.0834  0.0197
  140OSM   H11S15221   5.215   5.588   2.744 -1.1259  0.0108 -0.4581
  140OSM   H11T15222   5.303   5.425   2.729 -0.9277 -1.8138 -2.9687
  140OSM   C12S15223   5.154   5.458   2.895  0.1949  0.5376 -0.7484
  140OSM   H12S15224   5.132   5.350   2.902  1.3603  0.1349 -2.5751
  140OSM   H12T15225   5.057   5.513   2.898  1.0066  1.9857  1.7383
  140OSM   C13S15226   5.251   5.498   3.001 -0.0748 -0.2951 -0.2716
  140OSM   H13S15227   5.286   5.602   2.987  1.3852 -0.4306  1.7482
  140OSM   H13T15228   5.339   5.430   2.998 -1.5812 -2.3008 -1.1763
  140OSM   C14S15229   5.192   5.497   3.142  0.1167 -0.6730 -0.2752
  140OSM   H14S15230   5.119   5.414   3.149 -0.7896  0.1273 -0.1158
  140OSM   H14T15231   5.136   5.592   3.142  2.3371  0.7382  1.1645
  140OSM   C15S15232   5.291   5.513   3.259 -0.2902 -0.9153 -0.2131
  140OSM   H15S15233   5.388   5.552   3.221 -0.0661 -2.5859 -1.4377
  140OSM   H15T15234   5.327   5.414   3.293  0.0506 -0.4678  0.7605
  140OSM   C16S15235   5.236   5.601   3.374  0.5657 -1.1636 -0.1589
  140OSM   H16S15236   5.202   5.696   3.327  0.2049 -1.8200 -1.2696
  140OSM   H16T15237   5.313   5.616   3.453 -1.1683  0.6371  1.2862
  140OSM   C17S15238   5.124   5.536   3.458  0.2732 -1.1150  0.4388
  140OSM   H17S15239   5.172   5.441   3.490  0.7335 -0.8522  0.5483
  140OSM   H17T15240   5.040   5.523   3.387 -0.2057 -1.7803  1.1172
  140OSM   C18S15241   5.094   5.613   3.588 -0.0110  0.0521  0.0545
  140OSM   H18S15242   5.159   5.580   3.673  1.2202  0.5301 -0.6708
  140OSM   H18T15243   4.991   5.594   3.623  0.1831  1.1231  1.2787
  140OSM   H18U15244   5.109   5.721   3.569 -0.5559  0.0002 -0.7339
  140OSM    C1F15245   4.747   5.603   2.074  0.7791  0.0602  0.1130
  140OSM     OF15246   4.623   5.580   2.071 -0.1548 -0.3887  0.1133
  140OSM    C2F15247   4.806   5.711   2.165 -0.3295 -0.4048  0.4661
  140OSM    H2F15248   4.770   5.813   2.138  1.6364 -0.3318 -2.3487
  140OSM    H2G15249   4.917   5.704   2.171 -0.1404 -0.3397 -1.9108
  140OSM    C3F15250   4.761   5.682   2.312 -0.2319  0.7866 -0.9104
  140OSM    H3F15251   4.785   5.578   2.346 -1.6664  0.8521  0.4186
  140OSM    H3G15252   4.652   5.704   2.316 -0.2424  1.2284 -2.8072
  140OSM    C4F15253   4.818   5.773   2.421 -1.0351 -0.7149  0.4931
  140OSM    H4F15254   4.927   5.756   2.426 -0.7785  1.0633  2.0879
  140OSM    H4G15255   4.770   5.741   2.517  0.8528  0.0629  1.7515
  140OSM    C5F15256   4.798   5.923   2.399 -0.3600 -0.3078  0.4508
  140OSM    H5F15257   4.691   5.950   2.383 -0.1769  1.6690  2.1864
  140OSM    H5G15258   4.868   5.953   2.318  1.2010 -2.9915  0.6814
  140OSM    C6F15259   4.841   6.008   2.524  0.1034  0.5307 -0.8996
  140OSM    H6F15260   4.842   6.115   2.492  1.9488  1.1944  1.1695
  140OSM    H6G15261   4.940   5.969   2.555 -0.4470 -0.3242 -0.1946
  140OSM    C7F15262   4.733   5.996   2.638 -1.2495 -0.0747 -0.0958
  140OSM    H7F15263   4.710   5.888   2.650 -1.3995  0.1259  1.5832
  140OSM    H7G15264   4.642   6.051   2.606  0.4502  1.0460 -3.5417
  140OSM    C8F15265   4.780   6.066   2.765  0.3013  0.0159 -0.4054
  140OSM    H8F15266   4.698   6.067   2.840 -0.2088  1.3256 -0.9501
  140OSM    H8G15267   4.785   6.173   2.735 -2.1599  1.2932  3.1226
  140OSM    C9F15268   4.911   6.019   2.826 -0.6140  0.0016  0.1285
  140OSM    H9F15269   5.002   6.079   2.809  0.2650 -0.7437  1.9299
  140OSM   C10F15270   4.919   5.914   2.912 -0.3186  0.2101 -0.1432
  140OSM   H10F15271   5.016   5.869   2.939 -1.2383 -2.0544 -0.3641
  140OSM   C11F15272   4.819   5.812   2.971  0.5336 -0.5609 -0.3416
  140OSM   H11F15273   4.825   5.714   2.919  1.9797  0.1340 -1.5726
  140OSM   H11G15274   4.717   5.848   2.947  1.6041  0.9451 -3.0395
  140OSM   C12F15275   4.831   5.796   3.123 -0.3351 -0.4269 -0.1145
  140OSM   H12F15276   4.779   5.879   3.175 -0.8776 -0.7649 -0.1104
  140OSM   H12G15277   4.937   5.791   3.156 -0.5751  0.1180  0.7422
  140OSM   C13F15278   4.763   5.670   3.173 -0.3422 -0.0379 -0.1932
  140OSM   H13F15279   4.817   5.582   3.132  1.2211  0.2356  1.1249
  140OSM   H13G15280   4.656   5.661   3.146 -0.1430  0.1569 -1.0651
  140OSM   C14F15281   4.771   5.663   3.330  0.5125  0.2046 -0.2652
  140OSM   H14F15282   4.874   5.690   3.362  1.0832  0.3824 -2.1219
  140OSM   H14G15283   4.756   5.559   3.365 -0.3633  1.0744  2.1540
  140OSM   C15F15284   4.679   5.752   3.410 -0.3061  0.1126  0.3330
  140OSM   H15F15285   4.662   5.843   3.349  0.0092 -1.3623 -2.0756
  140OSM   H15G15286   4.735   5.775   3.503  2.9852 -2.6045 -0.7413
  140OSM   C16F15287   4.551   5.684   3.454 -0.0449 -0.5975  0.2375
  140OSM   H16F15288   4.498   5.620   3.380  2.0084 -0.4731 -1.4429
  140OSM   H16G15289   4.479   5.763   3.482 -0.2556 -0.7410  0.1014
  140OSM   C17F15290   4.580   5.595   3.574  0.3182 -0.1532  0.3597
  140OSM   H17F15291   4.636   5.641   3.659  0.6440 -1.9118  1.1498
  140OSM   H17G15292   4.646   5.513   3.541 -1.0022 -0.6717 -1.0911
  140OSM   C18F15293   4.447   5.541   3.631 -0.2141  0.6869 -0.6869
  140OSM   H18F15294   4.378   5.507   3.551 -2.7388  0.7038  1.3584
  140OSM   H18G15295   4.404   5.616   3.701 -1.2073 -1.4789  1.1627
  140OSM   H18H15296   4.471   5.460   3.703  3.0481  1.7536 -0.3863
  141OSM      N15297   6.697   4.907   1.468  0.1293  0.2183 -0.9459
  141OSM    C1515298   6.600   4.898   1.355  0.0141 -0.0484 -0.9329
  141OSM   H15A15299   6.505   4.907   1.405  1.8368  1.7245  2.6497
  141OSM   H15B15300   6.625   4.804   1.308 -0.1076 -0.2591 -0.5776
  141OSM   H15C15301   6.613   4.977   1.283 -1.4318  1.9729  0.8757
  141OSM    C1415302   6.693   4.790   1.552 -0.2987  0.3481  0.7107
  141OSM   H14A15303   6.723   4.698   1.505  0.9837  1.1958 -0.2019
  141OSM   H14B15304   6.596   4.778   1.597 -0.4001 -0.5701  0.2652
  141OSM   H14C15305   6.760   4.795   1.637  1.1701  1.7331 -0.4674
  141OSM    C1315306   6.837   4.940   1.415  0.2023  0.3023  0.2814
  141OSM   H13A15307   6.908   4.947   1.496  0.3150 -0.1369  0.2277
  141OSM   H13B15308   6.839   5.033   1.361 -2.5478  0.6803  0.6715
  141OSM   H13C15309   6.870   4.859   1.351 -0.6807  0.7585 -0.7636
  141OSM    C1215310   6.658   5.033   1.553  0.2664 -0.1361 -0.3437
  141OSM   H12A15311   6.641   5.113   1.482 -0.2670  0.1364  0.0854
  141OSM   H12B15312   6.745   5.052   1.614  0.4288 -1.5082 -0.1376
  141OSM    C1115313   6.540   5.019   1.650 -0.8053 -0.3070 -0.6993
  141OSM   H11A15314   6.504   5.121   1.678 -1.0727 -0.5827  0.0075
  141OSM   H11B15315   6.586   4.979   1.743 -1.3070  2.4579  0.8635
  141OSM      P15316   6.292   4.959   1.564 -0.1799 -0.1059 -0.3883
  141OSM    O1315317   6.300   5.041   1.440  0.0804  0.0704  0.3210
  141OSM    O1415318   6.209   4.836   1.574  0.1810  0.7959 -0.4093
  141OSM    O1115319   6.246   5.052   1.680  0.3363 -0.1953 -0.5085
  141OSM    O1215320   6.439   4.926   1.609  0.1661  0.5959 -0.0313
  141OSM    C1S15321   6.259   5.009   1.814 -0.9634  0.2780 -0.4313
  141OSM    H1S15322   6.362   4.968   1.826 -0.6000  0.7619 -1.7582
  141OSM    H1T15323   6.184   4.930   1.839  1.0088 -1.1636  1.3468
  141OSM     NF15324   6.278   5.045   2.045  0.3491  0.0303  0.5650
  141OSM    HNF15325   6.216   4.985   2.096 -1.0619 -0.9028 -2.0352
  141OSM    C2S15326   6.237   5.116   1.922 -0.7086  0.2399  0.2583
  141OSM    H2S15327   6.318   5.189   1.899 -0.6824 -0.5175 -2.3767
  141OSM    C3S15328   6.095   5.183   1.911 -0.4368  0.1841 -0.2915
  141OSM    H3S15329   6.022   5.099   1.916  0.9349 -0.9932  1.7808
  141OSM     O315330   6.066   5.244   1.790 -0.7842 -0.7533  0.1451
  141OSM    HO315331   6.084   5.176   1.725  0.0154 -1.1093  0.7188
  141OSM    C4S15332   6.064   5.278   2.025 -0.1794  0.5696  0.2656
  141OSM    H4S15333   6.136   5.359   2.042  1.7930 -0.9524 -0.4770
  141OSM    C5S15334   5.959   5.274   2.113  0.2999  0.4867  0.1640
  141OSM    H5S15335   5.873   5.206   2.096  0.2695  0.1693  1.4933
  141OSM    C6S15336   5.952   5.375   2.219 -0.2202  0.5679 -0.8974
  141OSM    H6S15337   5.847   5.380   2.255 -0.1350  1.8904 -0.7924
  141OSM    H6T15338   5.997   5.472   2.189 -2.5091  2.3004  0.9274
  141OSM    C7S15339   6.043   5.311   2.335 -0.2471  0.1449  0.4365
  141OSM    H7S15340   6.146   5.334   2.300 -0.8603  2.5764 -0.0130
  141OSM    H7T15341   6.029   5.202   2.346  0.7508 -0.2523 -1.7448
  141OSM    C8S15342   6.040   5.375   2.471 -0.0257 -0.4413  0.8040
  141OSM    H8S15343   5.936   5.411   2.480 -0.3628 -0.4953 -2.1116
  141OSM    H8T15344   6.099   5.470   2.474 -0.0480 -0.4442  1.8657
  141OSM    C9S15345   6.073   5.290   2.591  0.4736 -0.9081  0.0044
  141OSM    H9S15346   6.183   5.272   2.590  0.1673 -3.2804 -2.4434
  141OSM    H9T15347   6.013   5.198   2.572 -0.9589  0.3086 -1.6100
  141OSM   C10S15348   6.040   5.346   2.728  0.1630 -0.2939  0.2629
  141OSM   H10S15349   5.937   5.383   2.710  0.5834 -0.2143 -2.3916
  141OSM   H10T15350   6.109   5.431   2.742  1.1932 -1.0080 -0.3734
  141OSM   C11S15351   6.045   5.251   2.845 -0.3328  0.2530  0.7056
  141OSM   H11S15352   6.148   5.210   2.845 -1.0955 -1.9728 -2.2381
  141OSM   H11T15353   5.981   5.162   2.825 -0.3059 -0.3573  3.0264
  141OSM   C12S15354   6.003   5.311   2.977  0.1604  0.2775  0.1107
  141OSM   H12S15355   5.893   5.327   2.984 -0.0409 -0.0943 -1.7597
  141OSM   H12T15356   6.043   5.414   2.988 -1.7140  1.0053  0.4889
  141OSM   C13S15357   6.049   5.232   3.104 -0.2352  0.4089 -0.0016
  141OSM   H13S15358   6.160   5.228   3.104 -0.2650 -1.7207 -0.3934
  141OSM   H13T15359   6.005   5.132   3.085  0.3088  0.1974 -0.1544
  141OSM   C14S15360   6.002   5.277   3.242 -0.5068  0.2063 -0.2614
  141OSM   H14S15361   5.893   5.295   3.225 -0.7364  0.1539  1.0197
  141OSM   H14T15362   6.054   5.372   3.269 -0.9198  0.6531 -1.0054
  141OSM   C15S15363   6.006   5.187   3.361 -0.3993 -0.2352 -0.4245
  141OSM   H15S15364   6.110   5.172   3.397 -0.6335  0.7027  0.6724
  141OSM   H15T15365   5.976   5.084   3.331 -1.1782 -0.2548  0.3955
  141OSM   C16S15366   5.902   5.234   3.468  0.1396  0.1858 -0.5461
  141OSM   H16S15367   5.795   5.217   3.444 -0.5576 -0.4833  2.5392
  141OSM   H16T15368   5.919   5.344   3.472 -0.6493  0.3769 -1.8299
  141OSM   C17S15369   5.927   5.165   3.601 -0.1974 -0.9577 -0.5978
  141OSM   H17S15370   5.919   5.056   3.578 -0.6226 -1.6087  2.2600
  141OSM   H17T15371   5.848   5.199   3.671  0.9179  0.0618  0.2071
  141OSM   C18S15372   6.063   5.178   3.677 -0.0075  0.5856 -0.3533
  141OSM   H18S15373   6.063   5.125   3.775 -2.0544 -0.5268 -0.8877
  141OSM   H18T15374   6.089   5.285   3.690  2.6350 -0.1747  1.2719
  141OSM   H18U15375   6.145   5.140   3.613 -0.8514  1.4775 -2.0539
  141OSM    C1F15376   6.404   5.020   2.078  0.0260  0.0768 -0.2932
  141OSM     OF15377   6.493   5.071   2.021 -0.2053 -0.5008  0.6059
  141OSM    C2F15378   6.426   4.930   2.192 -0.0704  0.3128 -0.1036
  141OSM    H2F15379   6.536   4.920   2.207 -0.3428 -4.2485  0.3652
  141OSM    H2G15380   6.393   4.825   2.179  0.0589  0.2549  0.0390
  141OSM    C3F15381   6.378   4.983   2.323  0.7377 -0.0396  0.5041
  141OSM    H3F15382   6.271   5.010   2.318  0.2405 -1.9938 -0.1938
  141OSM    H3G15383   6.440   5.073   2.345  0.6178 -0.4975  3.0206
  141OSM    C4F15384   6.394   4.885   2.442  0.5226  0.0352 -0.1081
  141OSM    H4F15385   6.339   4.790   2.423  0.4290  0.0479  0.0953
  141OSM    H4G15386   6.336   4.932   2.525 -0.6767  0.2437 -1.0269
  141OSM    C5F15387   6.535   4.852   2.477  0.4626 -0.1128  0.1721
  141OSM    H5F15388   6.597   4.943   2.495 -0.3633  1.2015 -2.8777
  141OSM    H5G15389   6.579   4.820   2.380  0.2557  3.0524 -1.0995
  141OSM    C6F15390   6.543   4.754   2.597  0.0092  0.0722 -0.6936
  141OSM    H6F15391   6.482   4.668   2.561 -0.1808 -0.3656  0.6003
  141OSM    H6G15392   6.484   4.806   2.676  1.1025  0.8755 -0.3732
  141OSM    C7F15393   6.687   4.720   2.635  0.4540  0.2144 -0.0851
  141OSM    H7F15394   6.715   4.818   2.680 -1.4307  0.3535  0.8966
  141OSM    H7G15395   6.749   4.700   2.545  2.6856  1.1946  1.1559
  141OSM    C8F15396   6.692   4.610   2.750 -0.6080 -0.3135  0.3996
  141OSM    H8F15397   6.669   4.516   2.696 -0.3552  0.0891 -0.4269
  141OSM    H8G15398   6.604   4.631   2.813 -0.5993  0.9715  0.0208
  141OSM    C9F15399   6.815   4.598   2.836  0.5206 -0.1765 -0.5936
  141OSM    H9F15400   6.903   4.608   2.770 -0.7361  2.1512 -2.0518
  141OSM   C10F15401   6.828   4.572   2.964  0.0984  0.2576 -0.4701
  141OSM   H10F15402   6.931   4.567   3.003  0.0910  0.8159 -0.3592
  141OSM   C11F15403   6.711   4.540   3.063 -0.4447  0.2205 -0.0211
  141OSM   H11F15404   6.742   4.451   3.121 -1.1860  0.0841  0.1644
  141OSM   H11G15405   6.618   4.523   3.005  0.1267  0.6067 -1.0856
  141OSM   C12F15406   6.680   4.657   3.149  0.3448  0.0999 -0.4550
  141OSM   H12F15407   6.644   4.743   3.088 -4.5976  0.2865  2.1950
  141OSM   H12G15408   6.778   4.676   3.198  0.4063 -0.7217 -0.2453
  141OSM   C13F15409   6.579   4.637   3.270 -0.6043  0.1197  0.4621
  141OSM   H13F15410   6.592   4.536   3.314 -0.8999  0.0016  0.2839
  141OSM   H13G15411   6.482   4.641   3.216 -0.0966  1.4001 -0.4228
  141OSM   C14F15412   6.578   4.748   3.372  0.7709  0.2839  0.2506
  141OSM   H14F15413   6.563   4.851   3.333 -1.4206 -0.3459 -0.7155
  141OSM   H14G15414   6.668   4.750   3.437  0.1404  1.3347  1.1354
  141OSM   C15F15415   6.461   4.720   3.460 -0.3962  0.3314 -0.6411
  141OSM   H15F15416   6.484   4.625   3.513  0.5355  0.4056 -0.8932
  141OSM   H15G15417   6.376   4.709   3.390  2.4838 -0.7701 -4.3155
  141OSM   C16F15418   6.441   4.829   3.568  0.0779  0.4391 -0.2201
  141OSM   H16F15419   6.445   4.932   3.527 -1.4611  0.7345  0.3119
  141OSM   H16G15420   6.531   4.816   3.632 -1.3201  0.9566  1.9313
  141OSM   C17F15421   6.315   4.811   3.641 -0.6051 -0.7631 -0.6590
  141OSM   H17F15422   6.324   4.899   3.709 -0.7013  1.2843 -3.1361
  141OSM   H17G15423   6.306   4.708   3.681  0.5055 -1.3890 -1.9760
  141OSM   C18F15424   6.197   4.845   3.547 -0.8107  0.2804  0.3052
  141OSM   H18F15425   6.098   4.847   3.597 -0.8899  1.4800  0.1377
  141OSM   H18G15426   6.202   4.785   3.453  0.5943  0.7584  0.0383
  141OSM   H18H15427   6.221   4.949   3.514  1.1131 -0.0496  0.5372
  142OSM      N15428   6.454   6.345   1.566  0.1256  0.2073 -0.0146
  142OSM    C1515429   6.316   6.356   1.518  0.8737  0.0658 -0.0347
  142OSM   H15A15430   6.278   6.260   1.486  0.5492  0.4192 -0.7364
  142OSM   H15B15431   6.317   6.421   1.432 -0.6668  0.4893  0.2391
  142OSM   H15C15432   6.250   6.390   1.598  0.3785 -1.3493  0.1814
  142OSM    C1415433   6.539   6.289   1.458  0.0323  0.3506 -0.0865
  142OSM   H14A15434   6.640   6.306   1.493 -0.1388 -1.4003  1.3796
  142OSM   H14B15435   6.541   6.344   1.365  3.0248 -0.2671 -0.5043
  142OSM   H14C15436   6.533   6.182   1.443  2.5697  0.4118 -2.2972
  142OSM    C1315437   6.498   6.483   1.597  0.3392 -0.7529  0.4867
  142OSM   H13A15438   6.413   6.540   1.631  0.5984  0.2871 -0.5667
  142OSM   H13B15439   6.517   6.535   1.504 -4.3024 -1.5554 -1.2013
  142OSM   H13C15440   6.575   6.496   1.672  1.0126 -0.0885 -0.2979
  142OSM    C1215441   6.467   6.262   1.695 -0.4078 -0.3986 -0.2993
  142OSM   H12A15442   6.425   6.165   1.674 -0.2555 -0.5676  0.1612
  142OSM   H12B15443   6.398   6.310   1.764 -1.1180 -1.0291 -0.5564
  142OSM    C1115444   6.610   6.243   1.766 -0.1763 -0.2282  0.0360
  142OSM   H11A15445   6.671   6.197   1.686 -0.2900  1.4586 -1.0717
  142OSM   H11B15446   6.587   6.170   1.847  1.3581 -2.1843 -1.2005
  142OSM      P15447   6.809   6.411   1.823  0.2945  0.7230  0.3189
  142OSM    O1315448   6.870   6.452   1.691 -0.4394  0.1012 -0.5842
  142OSM    O1415449   6.831   6.500   1.938  0.2128  0.0708 -0.7030
  142OSM    O1115450   6.861   6.268   1.863 -0.5774  0.0063  0.2176
  142OSM    O1215451   6.654   6.367   1.810  0.5601 -0.6998  0.2548
  142OSM    C1S15452   7.003   6.237   1.867  0.1229 -0.0886  0.1746
  142OSM    H1S15453   7.063   6.326   1.838  0.5568  0.0886  1.5302
  142OSM    H1T15454   7.038   6.151   1.806  0.3890  0.5356 -0.5756
  142OSM     NF15455   7.193   6.205   2.032  0.1676  0.3777 -0.1072
  142OSM    HNF15456   7.219   6.113   2.062 -2.0155  0.2949  1.8265
  142OSM    C2S15457   7.046   6.218   2.018 -0.1020  0.0856  0.3927
  142OSM    H2S15458   7.016   6.310   2.074  0.4985 -0.2643  1.3083
  142OSM    C3S15459   6.961   6.100   2.086  0.1894 -0.5128 -0.3981
  142OSM    H3S15460   7.001   6.008   2.037  0.5535 -0.4720 -0.1798
  142OSM     O315461   6.819   6.103   2.057  0.4933 -0.5740  0.2426
  142OSM    HO315462   6.822   6.166   1.984  2.3716 -0.2291  0.5631
  142OSM    C4S15463   6.985   6.077   2.239  0.5487 -1.0474 -0.0135
  142OSM    H4S15464   7.067   6.007   2.259  0.2373 -1.0711  1.2574
  142OSM    C5S15465   6.928   6.147   2.335 -0.1403  0.6751  0.1202
  142OSM    H5S15466   6.851   6.222   2.314 -1.2736 -0.4768  0.0087
  142OSM    C6S15467   6.963   6.126   2.480  0.5269 -0.4191 -0.2222
  142OSM    H6S15468   6.906   6.041   2.522 -0.0380  0.2929  0.4776
  142OSM    H6T15469   6.946   6.224   2.530 -0.4741 -1.4699  1.6074
  142OSM    C7S15470   7.122   6.113   2.500  0.1850  0.2132 -0.0331
  142OSM    H7S15471   7.170   6.211   2.479 -0.7553  0.8641  0.7900
  142OSM    H7T15472   7.167   6.027   2.446  2.5456  1.4526 -0.1530
  142OSM    C8S15473   7.163   6.101   2.645 -0.1232 -0.0287  0.4579
  142OSM    H8S15474   7.092   6.153   2.712  0.6908 -0.0721  1.3866
  142OSM    H8T15475   7.268   6.136   2.661  0.4737 -0.0800 -2.6031
  142OSM    C9S15476   7.149   5.960   2.693 -0.7192  0.3945  0.9417
  142OSM    H9S15477   7.209   5.893   2.628 -1.8969  0.0628  0.1626
  142OSM    H9T15478   7.054   5.909   2.669  0.8778 -3.3209  1.7982
  142OSM   C10S15479   7.180   5.932   2.846  0.3587 -0.3842  0.8317
  142OSM   H10S15480   7.286   5.957   2.867  0.6669  0.2211 -1.2602
  142OSM   H10T15481   7.189   5.822   2.858  0.2647 -0.5009 -0.0796
  142OSM   C11S15482   7.107   6.003   2.959 -0.6150  0.0284 -0.5782
  142OSM   H11S15483   7.002   5.967   2.965 -0.0256 -1.5427  1.0512
  142OSM   H11T15484   7.111   6.111   2.933 -0.6772 -0.6288 -3.6356
  142OSM   C12S15485   7.172   5.975   3.097  0.1179  0.0727  0.2302
  142OSM   H12S15486   7.276   6.014   3.104  0.4945 -0.9382  0.4732
  142OSM   H12T15487   7.173   5.864   3.109  0.8034  0.1232  0.6968
  142OSM   C13S15488   7.089   6.015   3.220 -0.0712 -0.0749  0.4930
  142OSM   H13S15489   6.983   5.983   3.211  0.4861 -1.6383 -1.0709
  142OSM   H13T15490   7.088   6.126   3.219  2.6754  0.0189 -0.1373
  142OSM   C14S15491   7.157   5.960   3.348 -0.4977  0.7965 -0.0522
  142OSM   H14S15492   7.255   6.011   3.360 -0.6121  1.0364 -0.1478
  142OSM   H14T15493   7.175   5.852   3.329 -0.7311  0.0213  3.4199
  142OSM   C15S15494   7.065   5.973   3.471 -1.1589 -0.3044 -0.0030
  142OSM   H15S15495   6.964   5.971   3.425 -0.8563  1.9513 -0.8890
  142OSM   H15T15496   7.075   6.076   3.511  2.8967 -0.7331  0.5926
  142OSM   C16S15497   7.094   5.870   3.588 -0.1147  0.3077 -0.0148
  142OSM   H16S15498   7.095   5.767   3.546  0.2986 -0.2060  1.2304
  142OSM   H16T15499   7.003   5.869   3.653  1.9257  0.9354  3.0516
  142OSM   C17S15500   7.220   5.891   3.680  0.4395 -0.1575 -0.0063
  142OSM   H17S15501   7.301   5.904   3.605 -0.9892  0.6513 -1.4741
  142OSM   H17T15502   7.240   5.801   3.742  3.0960  0.9159  0.8488
  142OSM   C18S15503   7.215   6.009   3.779  0.1087 -0.1765  0.2086
  142OSM   H18S15504   7.129   5.994   3.848 -1.0864  0.3271 -1.0992
  142OSM   H18T15505   7.190   6.100   3.721 -1.6544 -0.2827  0.7406
  142OSM   H18U15506   7.312   6.030   3.829 -0.6607 -0.8759  2.1049
  142OSM    C1F15507   7.273   6.303   2.006  0.2857  0.1110  0.4466
  142OSM     OF15508   7.234   6.416   1.980 -0.1987  0.0921  0.2347
  142OSM    C2F15509   7.421   6.277   2.032 -0.0266  0.6491  0.1565
  142OSM    H2F15510   7.468   6.281   1.932 -0.3118 -0.9804 -0.0761
  142OSM    H2G15511   7.423   6.174   2.074 -3.3820 -0.0549 -1.0204
  142OSM    C3F15512   7.492   6.354   2.143  0.5016  0.0391  0.9404
  142OSM    H3F15513   7.485   6.462   2.116 -1.3805 -0.1886  0.3855
  142OSM    H3G15514   7.597   6.317   2.145  0.3618 -0.3714  0.7629
  142OSM    C4F15515   7.425   6.333   2.275  0.0231  0.6740 -1.6035
  142OSM    H4F15516   7.415   6.229   2.312 -4.5635  1.3129 -0.4530
  142OSM    H4G15517   7.321   6.372   2.280  0.2089  1.0592 -0.5722
  142OSM    C5F15518   7.509   6.406   2.386 -0.0694  0.3249 -0.2798
  142OSM    H5F15519   7.506   6.516   2.373 -0.2564  0.2302 -1.1074
  142OSM    H5G15520   7.615   6.372   2.382 -0.2195 -0.2276  0.2684
  142OSM    C6F15521   7.469   6.366   2.528  0.1910 -0.0465  0.3995
  142OSM    H6F15522   7.464   6.255   2.533 -1.0163 -0.0714 -0.7871
  142OSM    H6G15523   7.361   6.390   2.537 -0.2545 -1.6082 -0.3991
  142OSM    C7F15524   7.550   6.440   2.636 -0.4659 -0.1673  0.1403
  142OSM    H7F15525   7.539   6.550   2.625  0.5656  0.0373  1.0358
  142OSM    H7G15526   7.656   6.414   2.618 -0.2468  1.3595 -0.9750
  142OSM    C8F15527   7.512   6.403   2.780 -0.5775 -0.4021 -0.0060
  142OSM    H8F15528   7.587   6.444   2.851  1.1341  0.0427 -1.9810
  142OSM    H8G15529   7.536   6.295   2.785 -0.3690 -0.3458  0.2096
  142OSM    C9F15530   7.375   6.421   2.838  0.1881 -0.7118  0.3877
  142OSM    H9F15531   7.318   6.503   2.793  1.9565 -1.2134 -3.1324
  142OSM   C10F15532   7.348   6.380   2.959  0.2424 -0.2379 -0.1989
  142OSM   H10F15533   7.246   6.393   3.000 -0.1857 -0.4349 -1.1652
  142OSM   C11F15534   7.430   6.277   3.040 -0.2866 -0.3741 -0.1815
  142OSM   H11F15535   7.530   6.246   3.003  0.5339  0.6009  1.1305
  142OSM   H11G15536   7.373   6.182   3.041 -0.4382 -0.2970 -0.7877
  142OSM   C12F15537   7.472   6.340   3.181  0.2946  0.3971  0.5777
  142OSM   H12F15538   7.377   6.376   3.227 -1.7098 -2.5563 -0.9580
  142OSM   H12G15539   7.542   6.424   3.158 -1.1500  1.2335 -1.0114
  142OSM   C13F15540   7.518   6.231   3.279  0.4264 -0.0966  1.2843
  142OSM   H13F15541   7.616   6.191   3.246 -0.4364  0.2050 -2.0146
  142OSM   H13G15542   7.448   6.145   3.275 -0.8569  0.9598 -0.9995
  142OSM   C14F15543   7.537   6.291   3.422  0.6038 -0.1280 -0.5267
  142OSM   H14F15544   7.444   6.331   3.468  1.2883 -0.3648  1.1190
  142OSM   H14G15545   7.610   6.375   3.427 -0.4817  0.8842 -1.0634
  142OSM   C15F15546   7.584   6.173   3.507 -0.1230  0.3293  0.2229
  142OSM   H15F15547   7.691   6.162   3.477 -0.3569 -2.8304  0.2191
  142OSM   H15G15548   7.535   6.074   3.503  0.2214  0.1427  0.4968
  142OSM   C16F15549   7.588   6.217   3.655  0.8909 -0.2651 -0.7378
  142OSM   H16F15550   7.485   6.231   3.694  1.5207  1.8046  0.3025
  142OSM   H16G15551   7.633   6.316   3.674 -0.1712  0.1920 -0.5705
  142OSM   C17F15552   7.675   6.134   3.747  0.1049  0.6258  0.2142
  142OSM   H17F15553   7.681   6.176   3.849 -1.1553 -0.9366  0.9844
  142OSM   H17G15554   7.776   6.130   3.701 -0.0646 -1.5445 -0.0713
  142OSM   C18F15555   7.635   5.989   3.765 -0.6182  0.9546 -0.3458
  142OSM   H18F15556   7.649   5.938   3.667 -2.1235 -1.9916  0.8274
  142OSM   H18G15557   7.531   5.974   3.803 -0.6605 -3.4831 -1.6019
  142OSM   H18H15558   7.704   5.944   3.839 -3.0817  2.4443  3.1346
  143OSM      N15559   0.569   6.330   1.455 -0.1130  0.2785 -0.7899
  143OSM    C1515560   0.533   6.469   1.407  0.3666 -0.2479  0.8239
  143OSM   H15A15561   0.428   6.473   1.384  0.3060  0.8807  1.2317
  143OSM   H15B15562   0.575   6.479   1.308  2.3735  1.6832  1.7869
  143OSM   H15C15563   0.559   6.554   1.468 -0.7675  1.4395 -0.9429
  143OSM    C1415564   0.532   6.229   1.346 -0.2229  0.3571 -0.4622
  143OSM   H14A15565   0.584   6.254   1.254  0.9494 -0.3584 -0.0156
  143OSM   H14B15566   0.426   6.220   1.328 -0.3640  2.2584 -0.7851
  143OSM   H14C15567   0.567   6.131   1.377 -2.2958 -0.4123 -0.3986
  143OSM    C1315568   0.717   6.314   1.469 -0.3468 -0.6272 -0.2348
  143OSM   H13A15569   0.745   6.210   1.480 -2.4759 -1.2618 -0.4003
  143OSM   H13B15570   0.748   6.364   1.559  0.7156 -1.5446 -0.0747
  143OSM   H13C15571   0.771   6.366   1.391 -0.1113  1.0354  0.9807
  143OSM    C1215572   0.505   6.307   1.588  0.4066 -0.0997  0.2015
  143OSM   H12A15573   0.401   6.280   1.570  0.0294 -1.6270  3.7425
  143OSM   H12B15574   0.508   6.397   1.647 -0.9154 -0.4742  0.8853
  143OSM    C1115575   0.549   6.194   1.686  0.7518  0.6272 -0.5018
  143OSM   H11A15576   0.488   6.210   1.777  0.5155 -1.7140 -0.1775
  143OSM   H11B15577   0.657   6.205   1.708  0.9221 -0.9774 -0.4050
  143OSM      P15578   0.542   5.935   1.700  0.0505 -0.0874  0.2635
  143OSM    O1315579   0.462   5.953   1.823  0.0555 -0.3859 -0.3800
  143OSM    O1415580   0.503   5.823   1.610 -0.3402  0.0600 -0.2990
  143OSM    O1115581   0.697   5.933   1.727 -0.0051  0.7291  0.2854
  143OSM    O1215582   0.527   6.069   1.619 -0.5121  0.3462 -0.2117
  143OSM    C1S15583   0.774   6.002   1.821  0.2244 -0.0476 -0.2645
  143OSM    H1S15584   0.709   6.042   1.902  1.9984  2.9487 -0.1480
  143OSM    H1T15585   0.828   6.090   1.780 -2.7995  1.3827 -1.5412
  143OSM     NF15586   0.935   5.956   2.014 -0.0200 -0.4693  0.0093
  143OSM    HNF15587   1.028   5.991   2.008  0.5454 -1.4180  2.4150
  143OSM    C2S15588   0.871   5.900   1.891  0.3401  0.0962 -0.2905
  143OSM    H2S15589   0.806   5.817   1.925 -2.0603  1.7498 -0.6260
  143OSM    C3S15590   0.964   5.840   1.788 -0.3129 -0.4740 -0.5247
  143OSM    H3S15591   1.027   5.916   1.737  2.5005 -0.7762  2.1664
  143OSM     O315592   0.904   5.772   1.677 -0.0427  0.8205 -0.4075
  143OSM    HO315593   0.815   5.808   1.675 -0.6713 -0.6446 -2.5393
  143OSM    C4S15594   1.066   5.755   1.862  0.0153 -0.0991 -0.0544
  143OSM    H4S15595   1.158   5.810   1.884  1.1700 -1.1611 -1.9426
  143OSM    C5S15596   1.041   5.632   1.904  0.2514  0.0629  0.3057
  143OSM    H5S15597   0.941   5.589   1.890  0.8978 -1.1795 -0.7650
  143OSM    C6S15598   1.131   5.534   1.975  0.3117 -0.2886  0.0874
  143OSM    H6S15599   1.229   5.538   1.922  0.2545 -2.0460 -0.2126
  143OSM    H6T15600   1.099   5.429   1.959  1.6718 -0.7501  0.2792
  143OSM    C7S15601   1.156   5.554   2.126  0.3615  0.8762 -0.9975
  143OSM    H7S15602   1.216   5.648   2.125 -0.0624  1.1562 -0.7700
  143OSM    H7T15603   1.212   5.471   2.173 -1.5876  0.6139  1.0950
  143OSM    C8S15604   1.038   5.588   2.223 -0.2559 -0.5909  0.3403
  143OSM    H8S15605   0.968   5.501   2.233 -0.5383 -0.3103  0.8354
  143OSM    H8T15606   0.979   5.670   2.177 -1.0934 -1.2655  0.1875
  143OSM    C9S15607   1.095   5.620   2.366 -0.0734 -0.2433 -0.7332
  143OSM    H9S15608   1.140   5.721   2.362 -1.2582  0.3470  0.1726
  143OSM    H9T15609   1.176   5.544   2.371 -0.3433 -0.4645  0.7468
  143OSM   C10S15610   0.991   5.597   2.473  0.5785  0.0608 -0.2686
  143OSM   H10S15611   0.964   5.490   2.465  1.0741 -0.1702  0.8957
  143OSM   H10T15612   0.913   5.673   2.454  0.7378  0.0085 -1.1727
  143OSM   C11S15613   1.061   5.615   2.608 -0.3330 -0.4314  0.2038
  143OSM   H11S15614   1.072   5.725   2.623  1.0318 -0.3708 -1.0558
  143OSM   H11T15615   1.165   5.577   2.597  0.6881  2.1207  0.2977
  143OSM   C12S15616   0.998   5.544   2.728  0.0426 -0.7705 -0.4919
  143OSM   H12S15617   0.987   5.438   2.696 -1.4835 -1.4335  1.9514
  143OSM   H12T15618   0.906   5.600   2.752  1.3650  1.0054  0.6861
  143OSM   C13S15619   1.076   5.550   2.864 -0.4462 -0.3182 -0.7117
  143OSM   H13S15620   1.076   5.657   2.895 -0.7853 -0.7534  0.8668
  143OSM   H13T15621   1.186   5.535   2.855 -0.6071 -2.2497  0.0013
  143OSM   C14S15622   1.017   5.460   2.970  0.0197  0.0281 -0.1415
  143OSM   H14S15623   1.019   5.351   2.947  0.8016  0.3534 -1.7513
  143OSM   H14T15624   0.908   5.479   2.985  0.0660 -1.2134  2.3647
  143OSM   C15S15625   1.088   5.479   3.103 -0.1888  0.4547  0.4781
  143OSM   H15S15626   1.118   5.585   3.115 -2.1185  0.9464  1.3588
  143OSM   H15T15627   1.183   5.422   3.107  0.9580  2.3295  1.1723
  143OSM   C16S15628   1.008   5.432   3.226 -0.0724 -0.1071 -0.2118
  143OSM   H16S15629   0.913   5.487   3.243  0.0973  0.0041  0.4085
  143OSM   H16T15630   1.072   5.444   3.316 -0.0901 -1.1941 -0.0377
  143OSM   C17S15631   0.966   5.287   3.238  0.3303 -0.5768 -0.2203
  143OSM   H17S15632   1.055   5.221   3.229 -0.0732 -1.0272 -0.9200
  143OSM   H17T15633   0.898   5.252   3.158 -0.0425  0.1830 -0.2485
  143OSM   C18S15634   0.883   5.254   3.366 -0.0288 -1.0769 -0.2529
  143OSM   H18S15635   0.857   5.146   3.358  2.5017 -1.7340 -0.3154
  143OSM   H18T15636   0.788   5.313   3.365 -0.4073 -1.6812 -1.0629
  143OSM   H18U15637   0.956   5.253   3.450  0.3695 -1.9688 -0.5978
  143OSM    C1F15638   0.881   5.976   2.129 -0.1407  0.0808 -0.2639
  143OSM     OF15639   0.763   5.950   2.151  0.7224  0.7496  0.5905
  143OSM    C2F15640   0.975   6.014   2.240 -0.0741  0.0343 -1.5766
  143OSM    H2F15641   1.043   6.096   2.209 -0.2017  0.2226 -1.3667
  143OSM    H2G15642   1.045   5.927   2.241  0.8210  0.7216 -2.6919
  143OSM    C3F15643   0.909   6.038   2.378  0.6845  0.6601  0.0977
  143OSM    H3F15644   0.829   5.963   2.392 -0.0977  1.7244  1.5386
  143OSM    H3G15645   0.859   6.138   2.380 -1.4855 -0.3896  1.1891
  143OSM    C4F15646   1.002   6.038   2.491 -1.1124  0.4498  0.4570
  143OSM    H4F15647   1.078   6.119   2.488 -0.7786  0.2433  2.1782
  143OSM    H4G15648   1.068   5.949   2.488 -0.8055  0.7096 -1.2101
  143OSM    C5F15649   0.922   6.058   2.619 -0.0778  0.0580  0.2518
  143OSM    H5F15650   0.830   6.001   2.593 -0.5889  0.9970 -0.0346
  143OSM    H5G15651   0.886   6.162   2.633 -0.7097  0.0001 -0.7760
  143OSM    C6F15652   0.987   6.005   2.752 -0.5151 -1.1126  0.4917
  143OSM    H6F15653   1.090   6.042   2.767  0.1156 -1.9386 -1.4539
  143OSM    H6G15654   1.005   5.895   2.758  1.9443 -0.7988 -0.1327
  143OSM    C7F15655   0.883   6.056   2.859 -0.4481  0.4800  0.1763
  143OSM    H7F15656   0.787   6.035   2.807 -0.0667 -1.4096  0.1580
  143OSM    H7G15657   0.894   6.166   2.865 -0.0089  0.4106  0.8435
  143OSM    C8F15658   0.906   5.988   2.995 -0.1643 -0.2167  0.0112
  143OSM    H8F15659   0.882   6.070   3.066 -2.1116  0.6459 -1.5287
  143OSM    H8G15660   1.014   5.969   3.010  0.3218  0.8681 -1.7859
  143OSM    C9F15661   0.834   5.860   3.030  0.3136  0.1877 -1.2756
  143OSM    H9F15662   0.823   5.790   2.945  0.0102  0.1137 -1.1768
  143OSM   C10F15663   0.803   5.815   3.153  0.3022  0.6634  0.4260
  143OSM   H10F15664   0.764   5.712   3.147  1.3328  0.3509 -1.5647
  143OSM   C11F15665   0.841   5.881   3.276  0.2826 -0.4307  1.2306
  143OSM   H11F15666   0.749   5.935   3.307 -0.2829 -0.1637 -0.8008
  143OSM   H11G15667   0.927   5.951   3.273 -0.0798  0.0135 -1.3020
  143OSM   C12F15668   0.873   5.784   3.394 -0.5814 -0.4680 -0.6480
  143OSM   H12F15669   0.894   5.853   3.479  0.1776 -1.1794 -0.2412
  143OSM   H12G15670   0.960   5.716   3.386  0.5843  0.8310  0.4953
  143OSM   C13F15671   0.751   5.698   3.428  0.1553 -0.2058 -0.1505
  143OSM   H13F15672   0.755   5.603   3.370  0.9468 -0.0089 -0.4217
  143OSM   H13G15673   0.657   5.749   3.397 -0.5069 -1.5287 -0.4162
  143OSM   C14F15674   0.745   5.651   3.581 -0.0315 -0.1116 -0.3897
  143OSM   H14F15675   0.644   5.610   3.605  0.4088 -1.0068 -0.0153
  143OSM   H14G15676   0.764   5.741   3.642  1.8825  0.7208 -2.1002
  143OSM   C15F15677   0.852   5.552   3.633  0.2755 -0.2051 -0.0617
  143OSM   H15F15678   0.947   5.575   3.580  0.6445 -0.3702  0.5261
  143OSM   H15G15679   0.811   5.458   3.589 -1.7659  1.2236 -1.4288
  143OSM   C16F15680   0.859   5.541   3.788  0.1912 -1.1377  0.0914
  143OSM   H16F15681   0.761   5.537   3.840 -0.7781  1.1624 -1.4431
  143OSM   H16G15682   0.903   5.637   3.822  0.6540 -1.4962  0.5170
  143OSM   C17F15683   0.935   5.417   3.830 -0.5706 -0.3820  0.1483
  143OSM   H17F15684   0.903   5.320   3.786 -0.0330 -0.1784 -0.7089
  143OSM   H17G15685   0.909   5.397   3.936  0.2218  0.9909  0.6222
  143OSM   C18F15686   1.085   5.446   3.818  0.5584  0.2825 -0.2565
  143OSM   H18F15687   1.140   5.367   3.873  1.7894  1.3464  0.1109
  143OSM   H18G15688   1.115   5.545   3.859 -1.7159 -0.2752  3.1516
  143OSM   H18H15689   1.099   5.457   3.708 -1.4089 -0.6500 -0.6356
  144OSM      N15690   1.389   6.049   1.346  0.1699  0.1703 -0.1125
  144OSM    C1515691   1.277   5.977   1.411  0.1722  0.3925  0.0669
  144OSM   H15A15692   1.179   6.005   1.376  1.2462 -1.5777 -5.5963
  144OSM   H15B15693   1.275   5.977   1.519 -2.7137  0.9011  0.0841
  144OSM   H15C15694   1.274   5.871   1.387  0.5715 -0.5252  3.4547
  144OSM    C1415695   1.399   6.005   1.203 -0.6918 -0.0486 -0.4963
  144OSM   H14A15696   1.430   5.902   1.194  2.9691  1.0033 -1.9086
  144OSM   H14B15697   1.472   6.064   1.149 -0.8896  1.3913  0.7374
  144OSM   H14C15698   1.305   6.023   1.153 -1.9116  0.6602  1.8985
  144OSM    C1315699   1.356   6.199   1.348 -0.3072 -0.1482 -0.6585
  144OSM   H13A15700   1.255   6.221   1.315 -0.5907  1.6386  1.1644
  144OSM   H13B15701   1.429   6.242   1.281  1.7602 -2.1836  0.1470
  144OSM   H13C15702   1.368   6.234   1.449  0.7716  0.2983 -0.9216
  144OSM    C1215703   1.523   6.015   1.409 -0.1484 -0.3233  0.0144
  144OSM   H12A15704   1.604   6.060   1.352 -0.3777 -1.4875 -1.2682
  144OSM   H12B15705   1.529   5.911   1.380 -1.6877 -0.1716 -0.9549
  144OSM    C1115706   1.552   6.049   1.559  0.5869  0.8061  0.4045
  144OSM   H11A15707   1.640   5.995   1.600 -2.0508 -2.3967  2.3355
  144OSM   H11B15708   1.473   6.023   1.633  1.1763  0.9551  1.1035
  144OSM      P15709   1.683   6.266   1.539  0.2312  0.6843  0.3119
  144OSM    O1315710   1.779   6.163   1.488 -0.2900  0.2802  0.4835
  144OSM    O1415711   1.645   6.381   1.452  0.0636  0.1974 -0.0636
  144OSM    O1115712   1.734   6.325   1.671 -0.1682  0.0490  0.6081
  144OSM    O1215713   1.554   6.187   1.578  0.0739  0.5706 -0.3621
  144OSM    C1S15714   1.657   6.378   1.773 -0.0271  0.2519  0.1718
  144OSM    H1S15715   1.558   6.410   1.733 -0.6695  0.2734  1.7013
  144OSM    H1T15716   1.709   6.472   1.799  0.6011  0.6758 -2.3588
  144OSM     NF15717   1.569   6.334   2.000  0.1827 -0.2287  0.1294
  144OSM    HNF15718   1.621   6.366   2.080  0.7108  1.1998 -0.7570
  144OSM    C2S15719   1.647   6.280   1.896 -0.2474 -0.1380  1.0526
  144OSM    H2S15720   1.583   6.194   1.868  0.5191 -0.9979  1.8843
  144OSM    C3S15721   1.790   6.239   1.943  0.2163 -0.1748  0.2412
  144OSM    H3S15722   1.840   6.331   1.981 -0.2357 -0.1678  0.8431
  144OSM     O315723   1.881   6.191   1.842  0.3896 -0.1381  0.0767
  144OSM    HO315724   1.857   6.236   1.761  1.8451  0.2159 -0.1874
  144OSM    C4S15725   1.786   6.128   2.042  0.3231 -0.5346 -0.0716
  144OSM    H4S15726   1.788   6.030   1.992  0.2584 -1.2802  1.3289
  144OSM    C5S15727   1.776   6.134   2.175 -0.0517 -0.2629  0.0555
  144OSM    H5S15728   1.763   6.233   2.222  2.9083  0.1223  0.2655
  144OSM    C6S15729   1.758   6.013   2.268  0.4503 -0.0268  0.3768
  144OSM    H6S15730   1.770   5.924   2.202  0.9817  0.5091 -0.2558
  144OSM    H6T15731   1.655   6.015   2.311  0.2257  1.2483 -0.1863
  144OSM    C7S15732   1.844   6.004   2.390  0.4478  0.6965 -0.4537
  144OSM    H7S15733   1.811   6.070   2.473  0.6214  0.0577  0.1232
  144OSM    H7T15734   1.950   6.014   2.360  0.4090 -0.8043 -1.2137
  144OSM    C8S15735   1.838   5.869   2.464 -0.5347  0.7088 -0.5030
  144OSM    H8S15736   1.874   5.794   2.390 -0.5062  1.2663 -1.0623
  144OSM    H8T15737   1.738   5.827   2.489  0.2750 -1.1779 -0.2424
  144OSM    C9S15738   1.938   5.864   2.582 -0.2231  0.1919 -0.5561
  144OSM    H9S15739   2.028   5.923   2.555 -0.3938  1.1108  0.7825
  144OSM    H9T15740   1.974   5.761   2.602  0.3807  0.8019  1.8373
  144OSM   C10S15741   1.874   5.912   2.713  0.0431 -0.0893 -0.3991
  144OSM   H10S15742   1.778   5.858   2.727 -0.3012  0.9685  1.6974
  144OSM   H10T15743   1.861   6.022   2.712  2.2195  0.2409  0.4399
  144OSM   C11S15744   1.955   5.864   2.838 -0.2205  0.1369 -0.2475
  144OSM   H11S15745   2.054   5.912   2.822 -0.5413  0.5632 -1.0079
  144OSM   H11T15746   1.959   5.753   2.834 -0.9733  0.0385  1.1619
  144OSM   C12S15747   1.877   5.909   2.963  0.3425 -0.1014  0.1471
  144OSM   H12S15748   1.788   5.846   2.984  1.2782 -1.0578  1.3851
  144OSM   H12T15749   1.859   6.018   2.949  0.3486 -0.2014 -0.7049
  144OSM   C13S15750   1.962   5.887   3.091  0.0539  0.7410  0.5548
  144OSM   H13S15751   2.049   5.952   3.067 -0.0927  0.8145  0.2117
  144OSM   H13T15752   2.003   5.784   3.097 -1.7280  0.0434  1.5495
  144OSM   C14S15753   1.903   5.935   3.223  0.0278  0.2949 -0.0847
  144OSM   H14S15754   1.809   5.877   3.234  1.6647 -2.8120 -1.0096
  144OSM   H14T15755   1.888   6.044   3.214  0.6702  0.2778 -1.6838
  144OSM   C15S15756   1.997   5.899   3.339  0.1571 -0.3847 -0.7097
  144OSM   H15S15757   2.093   5.939   3.299  1.0999 -2.5623 -0.7373
  144OSM   H15T15758   2.005   5.790   3.356  0.8760 -0.3685 -0.8887
  144OSM   C16S15759   1.962   5.957   3.474 -0.8023 -0.3426  0.2807
  144OSM   H16S15760   1.860   5.920   3.498 -0.2830 -0.7577  2.0003
  144OSM   H16T15761   1.967   6.067   3.479 -0.0557 -0.3543 -0.0432
  144OSM   C17S15762   2.041   5.894   3.591 -0.8493  0.3665 -0.2012
  144OSM   H17S15763   2.134   5.954   3.598 -0.2725 -0.5684  0.4718
  144OSM   H17T15764   2.066   5.790   3.561  0.9121  0.9688 -0.9538
  144OSM   C18S15765   1.968   5.902   3.721  0.8068  0.6816 -0.4903
  144OSM   H18S15766   1.920   6.001   3.737 -0.1425  0.1535 -0.0011
  144OSM   H18T15767   2.028   5.860   3.804 -2.0819 -0.4042  1.2064
  144OSM   H18U15768   1.882   5.832   3.711  1.8621 -0.7071 -0.0595
  144OSM    C1F15769   1.441   6.369   1.992 -0.6855  0.0343  0.0578
  144OSM     OF15770   1.386   6.368   1.886 -0.0395 -0.0499  0.2902
  144OSM    C2F15771   1.382   6.426   2.118 -0.0051 -1.0022 -0.4893
  144OSM    H2F15772   1.364   6.531   2.086 -1.2880 -0.2583  2.3594
  144OSM    H2G15773   1.453   6.434   2.203 -1.9242 -0.1055  1.0977
  144OSM    C3F15774   1.249   6.367   2.154  0.4574  0.0747 -0.8779
  144OSM    H3F15775   1.244   6.256   2.146  1.6591  0.1467 -4.0490
  144OSM    H3G15776   1.169   6.391   2.081  0.9180  3.3694 -0.4692
  144OSM    C4F15777   1.194   6.413   2.290  0.5826 -0.0655 -0.4295
  144OSM    H4F15778   1.085   6.392   2.300  0.8269 -1.1971 -0.0155
  144OSM    H4G15779   1.232   6.513   2.320  0.9180 -0.2414 -0.2718
  144OSM    C5F15780   1.259   6.343   2.412 -0.3900 -0.2890  0.0164
  144OSM    H5F15781   1.369   6.332   2.404 -0.4152 -0.9804  0.5555
  144OSM    H5G15782   1.223   6.239   2.419 -2.2762  0.4202  1.7080
  144OSM    C6F15783   1.229   6.412   2.546  0.5281 -0.0734 -0.4363
  144OSM    H6F15784   1.119   6.415   2.558  0.4100 -0.6862 -1.2959
  144OSM    H6G15785   1.261   6.517   2.532 -1.0347  0.1846 -2.3824
  144OSM    C7F15786   1.283   6.343   2.668  0.6186  0.1825  0.2202
  144OSM    H7F15787   1.393   6.328   2.660  0.7810 -1.1236  3.5477
  144OSM    H7G15788   1.239   6.242   2.670  0.9833 -0.1157 -2.6324
  144OSM    C8F15789   1.255   6.412   2.800 -0.4376  0.1622 -0.2480
  144OSM    H8F15790   1.286   6.518   2.792  1.0859 -0.2393  0.1698
  144OSM    H8G15791   1.332   6.370   2.867  0.9872  1.1430 -1.2247
  144OSM    C9F15792   1.121   6.391   2.867  0.2564  0.0813  0.1607
  144OSM    H9F15793   1.037   6.414   2.800 -1.1705 -2.1660  1.0646
  144OSM   C10F15794   1.097   6.351   2.994  0.6271  0.0010  0.2105
  144OSM   H10F15795   0.993   6.338   3.029  0.2772 -1.3726 -1.2463
  144OSM   C11F15796   1.200   6.307   3.092  0.8793  0.5728  0.0555
  144OSM   H11F15797   1.227   6.402   3.144  1.2258 -0.5218  1.9440
  144OSM   H11G15798   1.285   6.264   3.036  0.1515 -2.1220  0.8800
  144OSM   C12F15799   1.142   6.217   3.199 -0.6251 -0.2780 -0.3230
  144OSM   H12F15800   1.101   6.120   3.161 -3.3183 -0.7310  3.2391
  144OSM   H12G15801   1.057   6.265   3.250 -0.2533 -0.4716  0.4901
  144OSM   C13F15802   1.243   6.179   3.311 -0.0240  0.2052  0.6752
  144OSM   H13F15803   1.342   6.154   3.269  0.1705  1.1541  0.5479
  144OSM   H13G15804   1.197   6.085   3.348 -1.5151  0.7662  0.3199
  144OSM   C14F15805   1.269   6.289   3.416  1.0004  0.7592 -0.3217
  144OSM   H14F15806   1.177   6.336   3.456  0.8414 -0.8037  1.2543
  144OSM   H14G15807   1.331   6.374   3.379 -1.0103  2.0174 -0.9463
  144OSM   C15F15808   1.343   6.242   3.542  0.0301 -0.2034 -0.1976
  144OSM   H15F15809   1.436   6.194   3.505 -0.2206  0.5552 -1.9240
  144OSM   H15G15810   1.289   6.158   3.589 -0.3451  1.4378  2.5697
  144OSM   C16F15811   1.375   6.351   3.641  0.2684 -0.0326 -0.7544
  144OSM   H16F15812   1.299   6.430   3.656  0.4639 -0.2830  2.2134
  144OSM   H16G15813   1.472   6.391   3.605  1.4316  0.4545  2.5671
  144OSM   C17F15814   1.400   6.297   3.788 -0.2848  0.3877  0.4347
  144OSM   H17F15815   1.475   6.362   3.838 -1.6111  0.1398  2.8917
  144OSM   H17G15816   1.433   6.191   3.782  0.2415  0.5750 -0.1453
  144OSM   C18F15817   1.264   6.315   3.861 -0.0639  0.3329  0.2676
  144OSM   H18F15818   1.189   6.316   3.779  0.3257 -2.1315 -0.2041
  144OSM   H18G15819   1.256   6.413   3.912 -1.2485 -0.5714  1.9099
  144OSM   H18H15820   1.234   6.231   3.928 -1.4891  0.6538  0.0484
  145SAPE     N15821   1.253   3.272   6.176  0.0689 -0.2670  0.2265
  145SAPE   HN115822   1.179   3.316   6.234  0.8755  1.0834  0.2882
  145SAPE   HN215823   1.319   3.227   6.242  0.6763  1.3431  0.7585
  145SAPE   HN315824   1.302   3.344   6.119  4.6412 -1.1801  2.4973
  145SAPE   C1215825   1.186   3.174   6.100 -0.0496 -0.1720  0.1706
  145SAPE  H12A15826   1.163   3.085   6.162  2.9555 -2.1027 -1.2098
  145SAPE  H12B15827   1.270   3.144   6.032  1.1996 -0.9205  1.9718
  145SAPE   C1115828   1.060   3.237   6.034 -0.3124 -0.4521 -0.0172
  145SAPE  H11A15829   1.014   3.157   5.972  0.3959 -0.0714 -1.0517
  145SAPE  H11B15830   1.088   3.315   5.960 -1.2479 -0.2258 -0.1446
  145SAPE     P15831   0.863   3.218   6.208 -0.1954 -0.4080 -0.1245
  145SAPE   O1315832   0.914   3.079   6.211  0.0224 -0.8551  0.2245
  145SAPE   O1415833   0.834   3.290   6.335 -0.5781  0.0936  0.1468
  145SAPE   O1215834   0.967   3.302   6.129 -0.2390  0.2735  0.5253
  145SAPE   O1115835   0.728   3.215   6.119 -0.7824 -0.1710 -0.5876
  145SAPE    C115836   0.670   3.338   6.065  0.5829  0.3539 -0.6673
  145SAPE    HA15837   0.579   3.358   6.126 -0.0009 -2.3960 -0.5256
  145SAPE    HB15838   0.735   3.428   6.070  1.2185 -0.1473  0.3321
  145SAPE    C215839   0.637   3.331   5.918  0.3789 -0.3367 -0.6413
  145SAPE    HS15840   0.602   3.432   5.890  1.0361  0.1623  0.2621
  145SAPE   O2115841   0.545   3.224   5.894 -0.0861  0.0842  0.0614
  145SAPE   C2115842   0.422   3.242   5.931 -0.2256 -0.0294  1.2788
  145SAPE   O2215843   0.388   3.340   5.997  0.1881  0.3936  0.0484
  145SAPE   C2215844   0.320   3.143   5.875 -0.0227 -0.3839 -0.6036
  145SAPE   H2R15845   0.354   3.037   5.878 -4.7666 -2.1886 -2.2495
  145SAPE   H2S15846   0.234   3.156   5.944  0.9522  1.1075  0.4027
  145SAPE    C315847   0.762   3.309   5.834  0.5069 -0.4089  0.0678
  145SAPE    HX15848   0.820   3.223   5.873  0.1790 -0.6678 -0.0080
  145SAPE    HY15849   0.816   3.401   5.864  2.3239 -1.0296 -1.1791
  145SAPE   O3115850   0.744   3.314   5.695  0.9779  0.8003 -0.3166
  145SAPE   C3115851   0.864   3.299   5.641 -0.5014  0.2554  0.1585
  145SAPE   O3215852   0.977   3.294   5.690 -0.8708  0.7126 -0.4045
  145SAPE   C3215853   0.844   3.300   5.489 -0.1932 -0.0970  0.6861
  145SAPE   H2X15854   0.769   3.380   5.466 -0.2312  0.0382  1.2696
  145SAPE   H2Y15855   0.784   3.210   5.467 -0.2253  0.1013 -0.0873
  145SAPE   C2315856   0.287   3.172   5.733  0.6237  0.5488  0.4806
  145SAPE   H3R15857   0.379   3.169   5.671 -0.3732  2.7064 -1.2452
  145SAPE   H3S15858   0.258   3.279   5.724 -1.6971 -0.0849 -0.4156
  145SAPE   C2415859   0.181   3.079   5.670  0.4702  0.2479  0.6523
  145SAPE   H4R15860   0.173   3.110   5.564  0.5465  0.0077  0.5761
  145SAPE   H4S15861   0.083   3.110   5.711  0.2005  0.3027 -0.0254
  145SAPE   C2515862   0.203   2.933   5.678 -0.2066  0.1796 -0.0443
  145SAPE   H5R15863   0.202   2.888   5.778 -2.2604  1.0395  0.3683
  145SAPE   C2615864   0.234   2.854   5.576 -0.5795  0.4317  0.3583
  145SAPE   H6R15865   0.260   2.750   5.600  1.2550  0.5720 -0.8884
  145SAPE   C2715866   0.253   2.898   5.426 -0.6953  0.7713 -1.3614
  145SAPE   H7R15867   0.320   2.986   5.414 -1.2958  1.4501  0.0495
  145SAPE   H7S15868   0.156   2.945   5.398 -1.7488 -0.9272 -0.7497
  145SAPE   C2815869   0.303   2.794   5.330 -0.4281  0.3211  0.4068
  145SAPE   H8R15870   0.360   2.710   5.372 -1.3422 -1.0967 -1.0491
  145SAPE   C2915871   0.268   2.781   5.197 -0.0569 -0.0552  0.3207
  145SAPE   H9R15872   0.315   2.706   5.131 -0.4010 -0.3669  0.4287
  145SAPE  C21015873   0.174   2.870   5.123  0.6035  0.4889 -0.0996
  145SAPE  H10R15874   0.124   2.934   5.199  0.6121 -0.5693  0.8178
  145SAPE  H10S15875   0.090   2.810   5.081 -0.2012  0.7300  1.0935
  145SAPE  C21115876   0.240   2.948   5.009 -0.4607  0.8056 -0.0928
  145SAPE  H11R15877   0.285   3.043   5.042  0.8620  0.9995 -2.2449
  145SAPE  C21215878   0.270   2.913   4.884  0.6976  0.3165 -0.1970
  145SAPE  H12R15879   0.326   2.979   4.817 -1.0767  1.3287 -0.7532
  145SAPE  C21315880   0.229   2.777   4.822  0.2082 -0.0962 -0.0124
  145SAPE  H13R15881   0.223   2.704   4.906  1.1820 -0.9961 -0.6938
  145SAPE  H13S15882   0.309   2.741   4.754  0.9129  0.7580  0.3582
  145SAPE  C21415883   0.083   2.771   4.768  0.0734  0.8057  0.1357
  145SAPE  H14R15884   0.006   2.838   4.810 -2.2892 -1.4743 -0.2792
  145SAPE  C21515885   0.033   2.694   4.670 -0.4266 -0.7798 -1.3974
  145SAPE  H15R15886  -0.074   2.710   4.647 -0.8626 -0.5783  0.5971
  145SAPE  C21615887   0.110   2.596   4.596 -0.1616  0.3963 -1.3274
  145SAPE  H16R15888   0.047   2.504   4.594 -0.2131  0.3891 -0.2567
  145SAPE  H16S15889   0.211   2.579   4.638 -1.0384  1.7803  1.6370
  145SAPE  C21715890   0.133   2.638   4.455 -0.0007 -0.2990  0.1841
  145SAPE  H17R15891   0.186   2.736   4.462 -2.7317  1.3829 -0.7060
  145SAPE  H17S15892   0.040   2.645   4.394  1.0949  1.8910 -1.3878
  145SAPE  C21815893   0.233   2.546   4.375 -0.7458 -0.1001  0.1338
  145SAPE  H18R15894   0.191   2.444   4.382 -0.5611 -0.7097 -4.3743
  145SAPE  H18S15895   0.328   2.551   4.432 -0.9237  4.9813  0.4804
  145SAPE  C21915896   0.263   2.576   4.225  0.4802  0.2368  0.6084
  145SAPE  H19R15897   0.159   2.576   4.186 -0.4622  2.2026  2.8612
  145SAPE  H19S15898   0.331   2.502   4.176  0.8335  0.0700  1.3366
  145SAPE  C22015899   0.315   2.717   4.204  0.1497  0.1694  0.1014
  145SAPE  H20R15900   0.405   2.723   4.269  0.3206  0.2157 -0.1379
  145SAPE  H20S15901   0.243   2.794   4.240  0.3318  0.2386  0.3181
  145SAPE  H20T15902   0.324   2.742   4.096 -2.3826 -0.0846 -0.2435
  145SAPE   C3315903   0.979   3.313   5.405 -0.7150  0.0759 -0.3892
  145SAPE   H3X15904   1.050   3.244   5.454 -2.4786 -0.2148  1.9419
  145SAPE   H3Y15905   1.017   3.412   5.439  0.8749 -0.3465 -0.8490
  145SAPE   C3415906   0.972   3.293   5.259  0.8055  0.6715  1.4086
  145SAPE   H4X15907   0.926   3.193   5.245  2.1992  0.1229  0.5988
  145SAPE   H4Y15908   1.064   3.303   5.198 -0.9532  0.8074 -1.4277
  145SAPE   C3515909   0.867   3.384   5.191 -0.1225  0.1532  0.0968
  145SAPE   H5X15910   0.880   3.492   5.211  0.6453 -0.1095  1.1150
  145SAPE   H5Y15911   0.766   3.373   5.236  0.2102  2.4259  1.5267
  145SAPE   C3615912   0.870   3.373   5.047  0.2671 -0.1266  0.4317
  145SAPE   H6X15913   0.790   3.299   5.025  1.8091 -1.5910 -0.4704
  145SAPE   H6Y15914   0.965   3.352   4.994  0.3615  2.7170 -0.7048
  145SAPE   C3715915   0.799   3.489   4.970 -0.2656  0.5316 -0.8824
  145SAPE   H7X15916   0.828   3.585   5.018  0.4047  0.2542 -0.7211
  145SAPE   H7Y15917   0.689   3.479   4.977 -0.1840 -0.0367 -0.2495
  145SAPE   C3815918   0.834   3.487   4.819 -0.6812 -0.3972 -0.0236
  145SAPE   H8X15919   0.945   3.484   4.814 -0.5952  1.0036  0.5456
  145SAPE   H8Y15920   0.806   3.590   4.788  0.8391  0.1024  0.1817
  145SAPE   C3915921   0.761   3.388   4.732 -0.4026 -0.1197 -0.1809
  145SAPE   H9X15922   0.690   3.424   4.655  0.1423  2.6815  0.5272
  145SAPE   H9Y15923   0.718   3.322   4.809 -1.0548  0.7859  0.2446
  145SAPE  C31015924   0.868   3.308   4.657 -0.0947 -0.1886  0.3131
  145SAPE  H10X15925   0.820   3.214   4.624  0.8777 -0.6088  0.0575
  145SAPE  H10Y15926   0.938   3.274   4.736 -0.6971  0.5995  1.2082
  145SAPE  C31115927   0.960   3.373   4.549 -0.4207 -0.6315  0.7204
  145SAPE  H11X15928   1.049   3.310   4.529 -1.5282 -2.5322  1.4607
  145SAPE  H11Y15929   0.999   3.469   4.590 -0.5834 -0.5062  0.5836
  145SAPE  C31215930   0.874   3.398   4.427  0.0903 -0.3514 -0.2130
  145SAPE  H12X15931   0.770   3.417   4.462 -0.2484  0.8876 -1.8174
  145SAPE  H12Y15932   0.864   3.317   4.351  0.2029 -2.9520  2.3549
  145SAPE  C31315933   0.916   3.528   4.356 -0.6780 -0.0262  0.3812
  145SAPE  H13X15934   0.870   3.531   4.255 -1.2894  0.6729  0.6665
  145SAPE  H13Y15935   1.025   3.518   4.336 -0.9153 -0.1731 -0.9349
  145SAPE  C31415936   0.882   3.666   4.423 -0.5057  0.3570  0.3217
  145SAPE  H14X15937   0.938   3.747   4.371  1.2716  1.9582  4.3237
  145SAPE  H14Y15938   0.925   3.672   4.525  0.5626  2.3079 -0.1970
  145SAPE  C31515939   0.740   3.713   4.425  0.5104 -0.2357  0.1138
  145SAPE  H15X15940   0.681   3.637   4.481  1.2469  0.6067  2.1304
  145SAPE  H15Y15941   0.702   3.701   4.321  0.2655 -0.6517  0.2508
  145SAPE  C31615942   0.719   3.855   4.470  0.8432  0.2719  0.2409
  145SAPE  H16X15943   0.763   3.862   4.571  2.5423  1.4027 -0.5327
  145SAPE  H16Y15944   0.609   3.871   4.475  0.8078  0.3325 -0.5936
  145SAPE  C31715945   0.778   3.958   4.373 -0.5125 -0.0712  0.1083
  145SAPE  H17X15946   0.887   3.947   4.395 -1.0681  0.0899  3.4874
  145SAPE  H17Y15947   0.762   4.063   4.407  5.1088  0.5383  1.8938
  145SAPE  C31815948   0.731   3.947   4.227  0.9811  0.0639 -0.4218
  145SAPE  H18X15949   0.622   3.966   4.215  1.1230  0.8110 -0.6180
  145SAPE  H18Y15950   0.754   3.845   4.190 -2.6940 -1.0401 -0.0247
  145SAPE  H18Z15951   0.786   4.027   4.171 -0.9476  0.7965 -1.3565
  146SAPE     N15952   6.682   4.017   6.238  0.3204  0.1636  0.4538
  146SAPE   HN115953   6.683   3.980   6.335  0.4392 -0.2733  0.2893
  146SAPE   HN215954   6.770   3.982   6.193  0.6987 -0.1196  1.3972
  146SAPE   HN315955   6.694   4.120   6.238 -1.1903  0.3724  2.1610
  146SAPE   C1215956   6.560   3.969   6.162  0.0590  0.5320 -1.0348
  146SAPE  H12A15957   6.531   4.039   6.081 -0.9178  0.6177 -0.6320
  146SAPE  H12B15958   6.475   3.959   6.233  1.6877  0.2003  0.9470
  146SAPE   C1115959   6.579   3.819   6.118 -0.6772 -0.4606 -0.1836
  146SAPE  H11A15960   6.659   3.806   6.043  0.3856 -2.2319  1.1624
  146SAPE  H11B15961   6.480   3.799   6.071 -0.6960 -0.0337 -0.3259
  146SAPE     P15962   6.559   3.589   6.232  0.4168  0.1896 -0.1105
  146SAPE   O1315963   6.637   3.523   6.338 -0.8822 -0.0756  0.6092
  146SAPE   O1415964   6.411   3.570   6.250 -0.1337 -0.2354  0.5313
  146SAPE   O1215965   6.596   3.736   6.231  0.2964 -0.4426 -0.2951
  146SAPE   O1115966   6.596   3.546   6.085  0.0831  0.0415 -0.1495
  146SAPE    C115967   6.496   3.501   5.996 -0.7705  0.0840  0.0249
  146SAPE    HA15968   6.478   3.392   6.011  1.7307 -0.5477 -1.1902
  146SAPE    HB15969   6.401   3.559   5.998 -0.4952  0.5242  0.6008
  146SAPE    C215970   6.559   3.515   5.855 -1.0143 -0.3055 -0.0955
  146SAPE    HS15971   6.664   3.479   5.852 -0.9912 -0.3367  0.8001
  146SAPE   O2115972   6.552   3.653   5.831 -0.1709 -0.1692 -0.1089
  146SAPE   C2115973   6.623   3.710   5.733 -0.7008  0.0827  0.1281
  146SAPE   O2215974   6.721   3.651   5.695  0.1610 -0.3310 -0.2177
  146SAPE   C2215975   6.586   3.852   5.698 -0.1427  0.8237 -0.5478
  146SAPE   H2R15976   6.491   3.874   5.753 -0.3779  0.8855 -0.9771
  146SAPE   H2S15977   6.650   3.926   5.750 -1.9179  1.3706  0.9731
  146SAPE    C315978   6.490   3.427   5.755  0.3306 -0.5171 -0.3552
  146SAPE    HX15979   6.388   3.471   5.759  1.3872  2.0616 -0.4587
  146SAPE    HY15980   6.482   3.318   5.779 -0.5700 -0.1417  1.2054
  146SAPE   O3115981   6.535   3.447   5.617 -0.0932 -0.4084 -0.0477
  146SAPE   C3115982   6.640   3.374   5.582  0.8467 -0.2523  0.1710
  146SAPE   O3215983   6.694   3.291   5.652 -0.3294  0.5735 -0.9104
  146SAPE   C3215984   6.689   3.436   5.450  0.0536 -0.0151 -0.3715
  146SAPE   H2X15985   6.772   3.504   5.476 -0.2523 -0.3267  1.5260
  146SAPE   H2Y15986   6.611   3.496   5.398  0.2022  2.4743  2.0512
  146SAPE   C2315987   6.586   3.877   5.545  0.7939  0.2706  0.0986
  146SAPE   H3R15988   6.680   3.849   5.492  0.9329  0.5658  0.1913
  146SAPE   H3S15989   6.567   3.985   5.530 -1.7758 -0.0312  0.6134
  146SAPE   C2415990   6.457   3.815   5.480 -0.3937 -0.7410  0.2290
  146SAPE   H4R15991   6.464   3.705   5.495  2.3244 -0.9262 -1.6367
  146SAPE   H4S15992   6.482   3.830   5.373 -2.2765 -1.6398 -0.3718
  146SAPE   C2515993   6.322   3.872   5.516 -0.0548 -0.1550 -1.1975
  146SAPE   H5R15994   6.326   3.924   5.613  0.1123 -1.3788 -0.5295
  146SAPE   C2615995   6.212   3.885   5.445 -0.0014 -0.3561  0.3413
  146SAPE   H6R15996   6.140   3.963   5.475 -1.7646 -0.7936 -2.3237
  146SAPE   C2715997   6.193   3.833   5.304 -0.1626  0.7073 -0.2099
  146SAPE   H7R15998   6.121   3.749   5.310  1.5583 -0.8049 -0.0712
  146SAPE   H7S15999   6.287   3.795   5.258  1.0998  3.3308  0.0211
  146SAPE   C2816000   6.132   3.943   5.218 -0.4819 -0.0626 -0.8295
  146SAPE   H8R16001   6.075   4.022   5.268 -0.2583 -0.1741 -0.3957
  146SAPE   C2916002   6.135   3.946   5.085  0.0632 -0.0303 -1.0269
  146SAPE   H9R16003   6.082   4.023   5.027  1.9159  0.6197 -1.9323
  146SAPE  C21016004   6.193   3.832   4.998 -0.0189  0.1039  0.4423
  146SAPE  H10R16005   6.218   3.745   5.062  1.1529 -0.0974 -0.2536
  146SAPE  H10S16006   6.284   3.861   4.941  0.0341  0.7075  0.8225
  146SAPE  C21116007   6.079   3.789   4.902 -0.2642 -0.6937 -0.2298
  146SAPE  H11R16008   5.989   3.759   4.957 -0.1500 -0.3135  0.1780
  146SAPE  C21216009   6.080   3.785   4.767  0.4252 -0.5946  0.3024
  146SAPE  H12R16010   5.989   3.746   4.717 -1.1055 -1.2597  3.3707
  146SAPE  C21316011   6.185   3.848   4.669 -0.1704  0.0862 -0.0527
  146SAPE  H13R16012   6.194   3.771   4.589  0.5206  0.0187  0.0861
  146SAPE  H13S16013   6.281   3.847   4.724  0.0118 -0.8756 -0.3629
  146SAPE  C21416014   6.155   3.987   4.611 -0.3559 -0.8172 -0.7299
  146SAPE  H14R16015   6.108   4.052   4.686 -0.1931 -2.7428  1.1641
  146SAPE  C21516016   6.202   4.023   4.487  0.1161  0.0849 -1.2717
  146SAPE  H15R16017   6.191   4.128   4.459 -2.1055  0.2584  0.0372
  146SAPE  C21616018   6.301   3.938   4.401  0.5048  0.2624 -0.3413
  146SAPE  H16R16019   6.356   3.861   4.458  2.0629  1.9166  0.4977
  146SAPE  H16S16020   6.382   4.005   4.364  0.8913  0.1243  0.2352
  146SAPE  C21716021   6.227   3.867   4.285 -0.2743  0.0569 -0.0765
  146SAPE  H17R16022   6.152   3.941   4.251 -1.2613 -0.2749  1.2747
  146SAPE  H17S16023   6.161   3.788   4.328 -0.1561  1.4076  2.8117
  146SAPE  C21816024   6.311   3.823   4.166  0.2312 -0.4597 -0.9841
  146SAPE  H18R16025   6.368   3.728   4.183 -0.1967 -0.7605 -1.2248
  146SAPE  H18S16026   6.388   3.899   4.140 -0.5069  1.0278  0.9209
  146SAPE  C21916027   6.217   3.793   4.043 -0.5321  0.4988  0.3009
  146SAPE  H19R16028   6.281   3.751   3.962  0.4701  0.3111  1.1688
  146SAPE  H19S16029   6.178   3.885   3.994  0.6736 -0.8437 -3.5258
  146SAPE  C22016030   6.108   3.689   4.067  0.1481  0.0222  0.3272
  146SAPE  H20R16031   6.038   3.679   3.982 -1.2107  2.1520  1.1248
  146SAPE  H20S16032   6.049   3.712   4.158  0.5519 -0.3780  0.6926
  146SAPE  H20T16033   6.138   3.583   4.084 -2.1662 -0.7649 -0.0604
  146SAPE   C3316034   6.743   3.325   5.362 -0.5744 -0.0235  0.3641
  146SAPE   H3X16035   6.810   3.247   5.404 -0.4576 -0.2724 -0.2711
  146SAPE   H3Y16036   6.796   3.378   5.279 -0.3209 -0.6419  0.1264
  146SAPE   C3416037   6.624   3.239   5.306 -0.8329 -0.9791  1.3997
  146SAPE   H4X16038   6.538   3.307   5.285 -1.3858 -2.4026 -1.6014
  146SAPE   H4Y16039   6.582   3.179   5.389 -0.8864  0.5542  2.5176
  146SAPE   C3516040   6.660   3.151   5.184  0.5394  0.5594 -0.3220
  146SAPE   H5X16041   6.603   3.057   5.194 -1.8370  1.8263 -1.2354
  146SAPE   H5Y16042   6.767   3.122   5.180  0.2083 -0.6422 -0.8911
  146SAPE   C3616043   6.626   3.215   5.044  0.4031 -0.1410  0.2698
  146SAPE   H6X16044   6.657   3.321   5.051 -0.3499 -0.0223  4.0567
  146SAPE   H6Y16045   6.517   3.224   5.028  0.1301 -1.8248  0.9339
  146SAPE   C3716046   6.700   3.141   4.932 -0.2824 -0.2552  0.3265
  146SAPE   H7X16047   6.672   3.034   4.941 -0.6717 -0.3712 -1.7627
  146SAPE   H7Y16048   6.808   3.152   4.953 -0.4487  1.1834  0.5366
  146SAPE   C3816049   6.671   3.184   4.786 -0.1789 -0.3936 -0.2602
  146SAPE   H8X16050   6.702   3.286   4.753 -1.8046 -0.9034 -3.9542
  146SAPE   H8Y16051   6.560   3.182   4.785 -0.2899  0.2466  2.8556
  146SAPE   C3916052   6.717   3.079   4.685  0.3557 -0.3225  0.5912
  146SAPE   H9X16053   6.675   2.980   4.712  2.3340 -1.0939  1.0236
  146SAPE   H9Y16054   6.826   3.063   4.700  0.6288  1.4005  0.6866
  146SAPE  C31016055   6.664   3.116   4.545 -0.4962  0.5562 -0.0283
  146SAPE  H10X16056   6.710   3.208   4.502  1.7422 -1.8896 -3.3818
  146SAPE  H10Y16057   6.554   3.130   4.551 -0.5517  0.6232 -1.0649
  146SAPE  C31116058   6.690   3.003   4.445  0.2521  0.3627 -0.1513
  146SAPE  H11X16059   6.648   2.905   4.477  1.4377 -0.2990 -0.5571
  146SAPE  H11Y16060   6.799   2.989   4.433 -0.1343 -2.2178 -1.5199
  146SAPE  C31216061   6.624   3.036   4.306  0.1236  0.5158  0.2147
  146SAPE  H12X16062   6.677   3.110   4.242 -0.8990  0.8178 -0.3162
  146SAPE  H12Y16063   6.525   3.082   4.328  0.5298  1.4469  0.1458
  146SAPE  C31316064   6.619   2.909   4.223 -0.1068 -0.1827  0.7384
  146SAPE  H13X16065   6.556   2.825   4.260 -0.7941 -0.0725 -0.1435
  146SAPE  H13Y16066   6.721   2.869   4.203  0.3845  0.8063  1.2175
  146SAPE  C31416067   6.564   2.934   4.077  0.1386  0.5218 -1.0194
  146SAPE  H14X16068   6.576   2.839   4.019 -1.1565 -0.5916  0.4347
  146SAPE  H14Y16069   6.613   3.019   4.026 -0.1658  0.9446 -0.6117
  146SAPE  C31516070   6.405   2.955   4.072 -0.3826 -0.0041  0.9444
  146SAPE  H15X16071   6.396   3.054   4.123  0.4104  0.7895 -0.3982
  146SAPE  H15Y16072   6.358   2.870   4.126  1.0795 -1.5399 -0.1294
  146SAPE  C31616073   6.363   2.950   3.923  0.0779 -0.0902 -1.6652
  146SAPE  H16X16074   6.401   2.855   3.879 -0.6096 -1.1017 -0.1401
  146SAPE  H16Y16075   6.412   3.039   3.877 -1.0748  0.3878 -2.0176
  146SAPE  C31716076   6.207   2.980   3.929  0.5628 -0.5949  0.3108
  146SAPE  H17X16077   6.186   3.059   4.004  0.0451 -1.1202  0.7323
  146SAPE  H17Y16078   6.151   2.896   3.976  0.0354  0.7146  2.1463
  146SAPE  C31816079   6.154   3.030   3.803 -0.0777  0.6764 -0.6376
  146SAPE  H18X16080   6.050   3.067   3.814  0.2798  1.2288  1.2280
  146SAPE  H18Y16081   6.155   2.942   3.735 -1.3851 -1.7750  2.3032
  146SAPE  H18Z16082   6.228   3.103   3.762  0.0871  1.8174  1.5496
  147SAPE     N16083   3.572   5.799   6.227 -0.7391 -0.2913 -0.2506
  147SAPE   HN116084   3.672   5.791   6.197 -0.2639 -0.8992  1.3785
  147SAPE   HN216085   3.552   5.705   6.266  1.5363 -1.2663 -1.1910
  147SAPE   HN316086   3.524   5.823   6.138  1.7585 -2.5448 -2.3995
  147SAPE   C1216087   3.571   5.902   6.335 -0.3314 -0.6454 -0.1662
  147SAPE  H12A16088   3.626   5.848   6.415 -0.3894 -2.9754 -1.6299
  147SAPE  H12B16089   3.468   5.920   6.373 -1.1181 -4.0137 -0.3743
  147SAPE   C1116090   3.662   6.019   6.295 -0.0069  0.7290  0.1293
  147SAPE  H11A16091   3.640   6.101   6.367 -0.5243 -0.2403  1.1005
  147SAPE  H11B16092   3.623   6.062   6.201 -2.1484  0.8368  1.0199
  147SAPE     P16093   3.910   6.088   6.313  0.1490  0.5589 -0.1946
  147SAPE   O1316094   3.872   6.157   6.434 -0.1485  0.0488  0.2460
  147SAPE   O1416095   4.048   6.025   6.308 -0.1719 -0.4049  0.2273
  147SAPE   O1216096   3.804   5.983   6.282 -0.4632 -0.1258 -0.2810
  147SAPE   O1116097   3.885   6.178   6.189 -0.1250  0.2744  0.6291
  147SAPE    C116098   3.911   6.118   6.059 -0.4228 -0.2307 -0.4246
  147SAPE    HA16099   3.884   6.013   6.037  0.2778 -0.6540  0.6598
  147SAPE    HB16100   3.855   6.172   5.980  2.2705  0.0656 -2.2740
  147SAPE    C216101   4.057   6.149   6.016  0.3272 -0.0082 -0.0714
  147SAPE    HS16102   4.122   6.094   6.087  0.7324 -0.1866 -0.5701
  147SAPE   O2116103   4.074   6.293   6.013 -0.1483 -0.1515 -0.9527
  147SAPE   C2116104   4.191   6.330   6.050 -0.5844  0.9122 -0.4142
  147SAPE   O2216105   4.285   6.252   6.086  0.2079 -0.2849  0.0083
  147SAPE   C2216106   4.201   6.479   6.055  0.2676  0.7998  0.4923
  147SAPE   H2R16107   4.205   6.518   6.159 -0.4413  1.7044  0.1975
  147SAPE   H2S16108   4.294   6.517   6.009 -0.3227  0.2111 -1.2453
  147SAPE    C316109   4.083   6.089   5.882  0.0555 -0.5055 -0.1308
  147SAPE    HX16110   4.025   6.152   5.812 -0.9274 -0.0311  1.0542
  147SAPE    HY16111   4.047   5.985   5.871 -2.1940  0.1685  0.3866
  147SAPE   O3116112   4.229   6.089   5.851 -0.1506 -0.1661 -0.3610
  147SAPE   C3116113   4.256   6.075   5.722 -0.8825 -0.1812  0.1495
  147SAPE   O3216114   4.183   6.050   5.632 -0.2167 -0.2966 -0.0217
  147SAPE   C3216115   4.411   6.081   5.697 -0.1120  0.2192  0.2240
  147SAPE   H2X16116   4.464   6.053   5.790 -0.2745  2.7430  1.1779
  147SAPE   H2Y16117   4.442   6.186   5.677  0.5233 -0.0594 -0.2799
  147SAPE   C2316118   4.093   6.542   5.965  0.9072  0.0788 -0.4630
  147SAPE   H3R16119   4.108   6.648   5.992  0.1161 -0.2941  1.6047
  147SAPE   H3S16120   3.987   6.526   5.994  0.9251  1.8287  0.7100
  147SAPE   C2416121   4.132   6.524   5.817  0.4796 -0.4246  0.1911
  147SAPE   H4R16122   4.146   6.416   5.800  0.7116 -0.1081 -1.9720
  147SAPE   H4S16123   4.231   6.572   5.808  1.0655 -1.2102  2.0045
  147SAPE   C2516124   4.027   6.576   5.721 -0.2749  0.4296  0.4550
  147SAPE   H5R16125   3.986   6.678   5.728 -3.0597 -0.5743  0.2335
  147SAPE   C2616126   4.002   6.529   5.598  0.8253 -0.4310 -0.1774
  147SAPE   H6R16127   3.932   6.585   5.535  1.6658 -0.8327 -1.5088
  147SAPE   C2716128   4.057   6.408   5.534  0.1084 -0.1955 -1.1212
  147SAPE   H7R16129   4.106   6.352   5.617 -0.5188  2.7285  1.4066
  147SAPE   H7S16130   4.134   6.422   5.456 -1.4758  0.6815 -2.6141
  147SAPE   C2816131   3.941   6.326   5.493 -0.3586 -0.1213  0.0315
  147SAPE   H8R16132   3.854   6.317   5.560  0.4975  1.4330  1.4400
  147SAPE   C2916133   3.949   6.246   5.384  0.0255 -0.7344  1.0063
  147SAPE   H9R16134   3.858   6.191   5.356  0.0262 -1.0539  1.6044
  147SAPE  C21016135   4.048   6.241   5.272 -0.0776 -0.2580  0.6668
  147SAPE  H10R16136   4.083   6.344   5.250  0.6557 -0.6527 -0.0757
  147SAPE  H10S16137   3.993   6.216   5.179 -0.1094  1.1972  0.2648
  147SAPE  C21116138   4.164   6.146   5.302  0.2529 -0.3446 -0.0130
  147SAPE  H11R16139   4.197   6.140   5.406  0.4377 -0.4618 -0.0771
  147SAPE  C21216140   4.234   6.079   5.207  0.3494  0.1811 -0.5968
  147SAPE  H12R16141   4.326   6.024   5.234  0.7962  1.2936  0.2193
  147SAPE  C21316142   4.206   6.073   5.063 -0.6916  0.2567  1.1491
  147SAPE  H13R16143   4.105   6.100   5.026 -0.4643 -1.2036 -0.7185
  147SAPE  H13S16144   4.216   5.963   5.049  0.6995  0.4965  0.0856
  147SAPE  C21416145   4.300   6.126   4.956 -0.1158  0.5381  0.0246
  147SAPE  H14R16146   4.383   6.185   4.997 -1.0824  2.2033 -0.2988
  147SAPE  C21516147   4.290   6.093   4.828  0.0253  0.4501 -0.0244
  147SAPE  H15R16148   4.379   6.113   4.766 -1.0012 -0.7234 -1.9659
  147SAPE  C21616149   4.184   6.015   4.759  0.4916  0.4095  0.0882
  147SAPE  H16R16150   4.123   6.086   4.700  0.3557 -0.8431 -1.3416
  147SAPE  H16S16151   4.123   5.955   4.830  0.9274 -0.3177 -0.1398
  147SAPE  C21716152   4.240   5.907   4.660  0.6945  0.7330 -0.1288
  147SAPE  H17R16153   4.273   5.823   4.725 -2.0451  0.5335  1.1450
  147SAPE  H17S16154   4.320   5.953   4.599  3.8708 -2.5652  1.1399
  147SAPE  C21816155   4.124   5.845   4.576 -0.6948 -0.2288  0.0144
  147SAPE  H18R16156   4.061   5.923   4.530 -2.9132 -0.5268  2.3450
  147SAPE  H18S16157   4.051   5.792   4.641 -0.5791 -0.4790 -0.0565
  147SAPE  C21916158   4.179   5.756   4.462  0.0382 -0.1632 -0.5843
  147SAPE  H19R16159   4.093   5.700   4.419  0.7098 -0.5830 -1.4274
  147SAPE  H19S16160   4.255   5.683   4.498 -0.8565  0.1490  2.1814
  147SAPE  C22016161   4.241   5.840   4.346  0.1546  0.2509  0.9980
  147SAPE  H20R16162   4.172   5.888   4.274 -1.0770 -1.5552  0.8945
  147SAPE  H20S16163   4.293   5.765   4.282  0.1886 -0.1027  1.4303
  147SAPE  H20T16164   4.319   5.912   4.378  1.0304  0.6580 -1.7267
  147SAPE   C3316165   4.457   5.998   5.583  0.1520 -0.2218 -0.5571
  147SAPE   H3X16166   4.391   6.019   5.495 -0.7066 -1.1629 -0.1596
  147SAPE   H3Y16167   4.445   5.890   5.604 -1.7618  0.2070  0.7746
  147SAPE   C3416168   4.604   6.025   5.553 -0.1441 -0.0072 -0.1202
  147SAPE   H4X16169   4.672   6.010   5.640  0.9415  0.1410 -0.9215
  147SAPE   H4Y16170   4.615   6.131   5.520 -0.9024 -0.6034 -2.4576
  147SAPE   C3516171   4.651   5.932   5.435 -0.6680  0.4585  0.0103
  147SAPE   H5X16172   4.617   5.828   5.451  1.4440 -0.2828  0.0070
  147SAPE   H5Y16173   4.761   5.943   5.443 -0.0016 -4.0675 -0.7618
  147SAPE   C3616174   4.605   5.984   5.300  0.3576 -0.0275 -0.3791
  147SAPE   H6X16175   4.636   6.090   5.282  0.2422  0.0911  0.0994
  147SAPE   H6Y16176   4.494   5.990   5.287  0.0587 -0.8670  1.5565
  147SAPE   C3716177   4.670   5.899   5.185 -0.1671  0.2248  0.5229
  147SAPE   H7X16178   4.646   5.794   5.209  1.0965 -0.9476 -2.7558
  147SAPE   H7Y16179   4.781   5.901   5.192 -0.0882  1.7133 -0.5661
  147SAPE   C3816180   4.627   5.933   5.035 -0.4364 -0.2600  0.6317
  147SAPE   H8X16181   4.670   6.031   5.007 -1.0780  0.0998  0.8883
  147SAPE   H8Y16182   4.517   5.945   5.035 -0.5570 -1.2342  0.0601
  147SAPE   C3916183   4.682   5.825   4.940  0.0024 -0.5603 -0.0373
  147SAPE   H9X16184   4.622   5.734   4.964 -2.6868  0.8139 -1.1478
  147SAPE   H9Y16185   4.790   5.808   4.957  0.4076  2.2849  0.6406
  147SAPE  C31016186   4.648   5.861   4.791  0.7400  0.1909  0.4146
  147SAPE  H10X16187   4.703   5.955   4.770  0.1226  0.3646 -0.4752
  147SAPE  H10Y16188   4.540   5.882   4.778  0.9615  1.8572  0.9923
  147SAPE  C31116189   4.695   5.751   4.696  0.6708  0.3112  0.0501
  147SAPE  H11X16190   4.643   5.656   4.721  1.4047 -0.2897 -0.6344
  147SAPE  H11Y16191   4.804   5.743   4.718  0.5821  1.6748  1.0959
  147SAPE  C31216192   4.661   5.775   4.547 -0.2120 -0.4737 -0.2764
  147SAPE  H12X16193   4.716   5.865   4.511  1.3369 -1.6716 -0.9988
  147SAPE  H12Y16194   4.553   5.792   4.526 -0.2686 -1.2522 -0.6339
  147SAPE  C31316195   4.703   5.660   4.460 -0.7161  0.2343  0.1358
  147SAPE  H13X16196   4.660   5.565   4.497  0.1560 -0.6590 -1.0956
  147SAPE  H13Y16197   4.812   5.637   4.457 -1.1101 -1.6073 -1.0867
  147SAPE  C31416198   4.661   5.675   4.316  0.5794 -0.2049  0.0700
  147SAPE  H14X16199   4.659   5.785   4.296  0.8495 -0.3240 -0.6522
  147SAPE  H14Y16200   4.561   5.633   4.290  0.4166  0.8010 -1.0566
  147SAPE  C31516201   4.767   5.623   4.215  0.0890  0.2761  1.3864
  147SAPE  H15X16202   4.771   5.512   4.224  0.9212  0.2356  0.6742
  147SAPE  H15Y16203   4.866   5.659   4.250 -0.3647  2.0031  0.9691
  147SAPE  C31616204   4.746   5.654   4.064  0.1273  1.2920  0.5057
  147SAPE  H16X16205   4.807   5.590   3.998 -2.4195  0.3241 -1.0319
  147SAPE  H16Y16206   4.779   5.760   4.058  1.0454  0.9520 -0.5437
  147SAPE  C31716207   4.600   5.623   4.013 -0.8358  0.1320 -0.4871
  147SAPE  H17X16208   4.592   5.681   3.919  1.1758 -0.5944 -1.1652
  147SAPE  H17Y16209   4.526   5.664   4.086 -0.9719 -0.6872 -0.1473
  147SAPE  C31816210   4.571   5.471   3.998 -0.0159  0.0684 -0.2880
  147SAPE  H18X16211   4.581   5.433   4.102  2.3645 -1.9686 -1.1395
  147SAPE  H18Y16212   4.649   5.417   3.940  0.1074 -1.5093  1.2718
  147SAPE  H18Z16213   4.471   5.450   3.954  0.3051 -0.7563 -0.6516
  148SAPE     N16214   6.666   1.334   5.890  0.4706 -0.2263 -0.2653
  148SAPE   HN116215   6.649   1.290   5.798 -1.7990 -0.4190  0.1896
  148SAPE   HN216216   6.605   1.417   5.902  0.0365 -0.5068 -0.5023
  148SAPE   HN316217   6.762   1.375   5.896  0.2998  0.0019  1.9708
  148SAPE   C1216218   6.642   1.250   6.008  0.5377  0.3311  0.0357
  148SAPE  H12A16219   6.534   1.222   6.013  1.0627 -1.6342  1.9723
  148SAPE  H12B16220   6.674   1.303   6.100  0.7852  2.5958 -1.2927
  148SAPE   C1116221   6.720   1.119   5.993 -0.1294 -0.1954 -1.0912
  148SAPE  H11A16222   6.680   1.052   6.072  1.1471  1.0754  0.6953
  148SAPE  H11B16223   6.826   1.144   6.009 -0.7009  1.2035  0.8016
  148SAPE     P16224   6.615   0.937   5.825 -0.2360 -0.1932 -0.1361
  148SAPE   O1316225   6.688   0.809   5.831  0.3100  0.9523 -0.2048
  148SAPE   O1416226   6.493   0.944   5.910  0.1291  0.2817  0.7527
  148SAPE   O1216227   6.714   1.059   5.859  0.0110  0.2210 -0.3988
  148SAPE   O1116228   6.570   0.974   5.678  0.2584 -0.4476  0.3915
  148SAPE    C116229   6.462   0.913   5.605  0.1234 -0.2755 -0.1099
  148SAPE    HA16230   6.512   0.831   5.548  0.9508  0.9524 -1.1959
  148SAPE    HB16231   6.395   0.858   5.674 -0.0680  0.3400  0.2009
  148SAPE    C216232   6.399   1.022   5.506  0.7948  0.1844  0.2239
  148SAPE    HS16233   6.318   0.975   5.447  1.5041 -1.0136  0.1712
  148SAPE   O2116234   6.501   1.085   5.429 -0.7151  0.5126 -0.1158
  148SAPE   C2116235   6.546   1.012   5.329 -0.0284  0.0446  0.2786
  148SAPE   O2216236   6.513   0.898   5.299  0.0414 -0.3874 -0.4697
  148SAPE   C2216237   6.656   1.090   5.257 -1.0189  0.4307  0.0626
  148SAPE   H2R16238   6.667   1.192   5.301  1.5271 -0.0822  0.8071
  148SAPE   H2S16239   6.753   1.043   5.285  0.4835  1.6411 -2.6204
  148SAPE    C316240   6.328   1.129   5.589  0.2695  0.6426 -0.1858
  148SAPE    HX16241   6.410   1.179   5.645  0.0623  0.3268  0.4034
  148SAPE    HY16242   6.260   1.072   5.656 -0.0538  0.3578 -0.7515
  148SAPE   O3116243   6.267   1.224   5.496  0.0795  0.3312  0.5403
  148SAPE   C3116244   6.330   1.337   5.456  0.3528  0.5903 -0.4403
  148SAPE   O3216245   6.441   1.370   5.495  0.0443  0.5763 -0.4087
  148SAPE   C3216246   6.254   1.402   5.339 -0.1826 -1.0879 -0.0057
  148SAPE   H2X16247   6.330   1.414   5.260  0.0091  1.1911  0.4569
  148SAPE   H2Y16248   6.213   1.499   5.373 -0.3064 -0.3620 -2.1027
  148SAPE   C2316249   6.632   1.089   5.111 -0.4958  0.4777  0.0130
  148SAPE   H3R16250   6.548   1.153   5.077  1.8118  2.8166 -1.6567
  148SAPE   H3S16251   6.605   0.986   5.077  0.0704  0.0811  0.7496
  148SAPE   C2416252   6.753   1.136   5.025 -0.2082  0.0224 -0.5022
  148SAPE   H4R16253   6.781   1.226   5.084 -1.9555 -0.2967  0.8985
  148SAPE   H4S16254   6.721   1.168   4.924 -1.6529  1.5077  0.3726
  148SAPE   C2516255   6.881   1.053   5.025  0.2090 -0.5584 -0.3796
  148SAPE   H5R16256   6.905   0.999   5.118  2.5388 -2.4518 -1.9403
  148SAPE   C2616257   6.966   1.039   4.923  0.4700  0.4893  1.0662
  148SAPE   H6R16258   7.051   0.970   4.933  0.8405  0.7154 -0.2952
  148SAPE   C2716259   6.937   1.088   4.785 -0.4002 -0.0846  0.3837
  148SAPE   H7R16260   7.031   1.132   4.749  0.4866  1.2100  3.8419
  148SAPE   H7S16261   6.879   1.183   4.786 -0.7498 -0.2610 -1.2412
  148SAPE   C2816262   6.865   0.988   4.696  0.3898 -1.0033  0.0692
  148SAPE   H8R16263   6.771   0.939   4.726 -0.6865  0.5263 -0.6731
  148SAPE   C2916264   6.909   0.957   4.578 -0.0636  0.4402  0.1774
  148SAPE   H9R16265   6.862   0.875   4.521  2.2522 -0.1318 -1.0130
  148SAPE  C21016266   7.035   1.007   4.501 -0.3140  0.2294  0.3582
  148SAPE  H10R16267   7.071   0.930   4.429  0.6220  0.6293  0.3849
  148SAPE  H10S16268   7.117   0.996   4.576 -0.1603 -2.0734 -0.0810
  148SAPE  C21116269   7.033   1.150   4.453 -0.4496 -0.3898  0.2772
  148SAPE  H11R16270   6.946   1.210   4.483 -0.5725 -0.7043  0.5525
  148SAPE  C21216271   7.137   1.216   4.393 -0.4349  0.0341 -0.5133
  148SAPE  H12R16272   7.113   1.315   4.352  0.4343  0.2124 -0.6066
  148SAPE  C21316273   7.258   1.145   4.345  0.0896 -0.2138  0.2083
  148SAPE  H13R16274   7.222   1.070   4.272  2.2227 -1.1837  0.0772
  148SAPE  H13S16275   7.304   1.086   4.427  0.9424  0.1751  0.0155
  148SAPE  C21416276   7.366   1.229   4.277  0.3047  0.5786 -0.1410
  148SAPE  H14R16277   7.398   1.311   4.344 -1.2365 -0.8379  2.5216
  148SAPE  C21516278   7.444   1.208   4.173 -0.6793 -0.3609  0.6081
  148SAPE  H15R16279   7.515   1.291   4.154 -0.1772 -0.1774  3.0141
  148SAPE  C21616280   7.434   1.102   4.067 -0.2213 -0.2024 -0.5957
  148SAPE  H16R16281   7.330   1.063   4.063 -0.4764  0.4187 -0.1718
  148SAPE  H16S16282   7.505   1.020   4.090  0.3084  0.2609 -0.5452
  148SAPE  C21716283   7.461   1.155   3.923  0.0657 -0.2621  0.1937
  148SAPE  H17R16284   7.399   1.245   3.903  2.7627  1.5637 -0.4368
  148SAPE  H17S16285   7.425   1.067   3.865  1.9264 -0.0417 -1.3980
  148SAPE  C21816286   7.612   1.176   3.892  0.2192  0.0758 -0.1742
  148SAPE  H18R16287   7.640   1.069   3.900 -0.8496 -0.3411 -1.6123
  148SAPE  H18S16288   7.668   1.239   3.964  0.6373 -0.4056 -0.0772
  148SAPE  C21916289   7.648   1.234   3.755  0.0180  0.0138 -0.1412
  148SAPE  H19R16290   7.594   1.331   3.745  0.0842  0.0459 -0.1845
  148SAPE  H19S16291   7.605   1.173   3.672 -0.6129 -0.6703  0.6737
  148SAPE  C22016292   7.796   1.259   3.741 -0.0081 -0.8853 -0.2777
  148SAPE  H20R16293   7.814   1.310   3.644 -0.1165  1.3700  0.8384
  148SAPE  H20S16294   7.857   1.168   3.761  0.3341 -0.6251 -0.1098
  148SAPE  H20T16295   7.829   1.340   3.810  2.2736 -0.3881 -1.8263
  148SAPE   C3316296   6.138   1.317   5.278  0.2107 -0.3744 -0.5022
  148SAPE   H3X16297   6.057   1.291   5.349  0.3788 -1.6412 -0.7581
  148SAPE   H3Y16298   6.182   1.222   5.242 -1.1063 -0.7633 -1.1586
  148SAPE   C3416299   6.066   1.394   5.167  0.1481 -0.3767  0.4324
  148SAPE   H4X16300   6.026   1.489   5.207  0.7179 -0.5370  1.4288
  148SAPE   H4Y16301   5.977   1.342   5.125  0.7425 -0.2710 -0.9996
  148SAPE   C3516302   6.153   1.420   5.046  0.2527 -0.0055 -0.0293
  148SAPE   H5X16303   6.233   1.492   5.073  0.8440 -0.3568 -0.7988
  148SAPE   H5Y16304   6.106   1.461   4.954  2.0530 -0.7197 -1.3205
  148SAPE   C3616305   6.230   1.306   4.991  0.3958 -0.2309  0.3686
  148SAPE   H6X16306   6.170   1.216   4.966  0.1373  0.0366  0.0185
  148SAPE   H6Y16307   6.309   1.273   5.062  0.3715  2.0445  1.5221
  148SAPE   C3716308   6.295   1.331   4.858 -0.0353  0.3987  0.1348
  148SAPE   H7X16309   6.383   1.397   4.870 -0.3774  0.7759  0.5999
  148SAPE   H7Y16310   6.225   1.370   4.780  0.3598 -1.5787 -1.2983
  148SAPE   C3816311   6.348   1.195   4.808  0.0029 -0.3956  0.7225
  148SAPE   H8X16312   6.265   1.126   4.783  0.4747 -1.0916  1.0628
  148SAPE   H8Y16313   6.411   1.136   4.878 -1.1798 -2.2132  0.3071
  148SAPE   C3916314   6.442   1.217   4.681 -0.5960  0.7081 -0.4798
  148SAPE   H9X16315   6.533   1.271   4.715  0.1903  0.5559 -2.1968
  148SAPE   H9Y16316   6.388   1.285   4.611 -2.1026  1.0740  0.9756
  148SAPE  C31016317   6.483   1.089   4.614  0.1257 -0.0606  0.1255
  148SAPE  H10X16318   6.385   1.054   4.575 -1.4794  4.2959 -0.3302
  148SAPE  H10Y16319   6.513   1.019   4.695 -0.1519 -0.8393 -0.4317
  148SAPE  C31116320   6.582   1.108   4.498  0.6493  0.8883  0.3040
  148SAPE  H11X16321   6.673   1.151   4.543  1.2838  0.4371 -0.5243
  148SAPE  H11Y16322   6.539   1.189   4.434 -0.1246  0.4686  0.2853
  148SAPE  C31216323   6.605   0.983   4.411 -0.1281  0.9233 -0.2612
  148SAPE  H12X16324   6.503   0.947   4.389  0.4919 -0.4836 -0.8889
  148SAPE  H12Y16325   6.658   0.911   4.477 -0.4893  2.7006  2.1391
  148SAPE  C31316326   6.684   1.018   4.288 -0.4299  0.0728 -0.3328
  148SAPE  H13X16327   6.763   1.094   4.305  0.6913 -1.1865  0.3141
  148SAPE  H13Y16328   6.609   1.071   4.226 -1.5856 -1.4900 -0.3320
  148SAPE  C31416329   6.733   0.889   4.224  1.1357  0.1075  0.0877
  148SAPE  H14X16330   6.644   0.822   4.231  0.8408  0.5821  1.0419
  148SAPE  H14Y16331   6.814   0.847   4.287  1.4856  0.6540  0.0102
  148SAPE  C31516332   6.788   0.920   4.089  0.1218 -0.0838  0.2018
  148SAPE  H15X16333   6.859   1.003   4.109  1.1773 -0.7813 -0.5775
  148SAPE  H15Y16334   6.714   0.948   4.011  1.5642  1.3797 -0.7158
  148SAPE  C31616335   6.863   0.799   4.038 -0.3666 -0.2987  0.3953
  148SAPE  H16X16336   6.964   0.790   4.084 -0.1487  1.9326  0.4388
  148SAPE  H16Y16337   6.889   0.827   3.933 -0.7043  0.6060  0.5498
  148SAPE  C31716338   6.776   0.672   4.029 -0.5544  0.3239 -0.2097
  148SAPE  H17X16339   6.679   0.697   3.979  1.3753  1.1975 -3.8930
  148SAPE  H17Y16340   6.752   0.634   4.130 -1.3262  1.0883 -0.0913
  148SAPE  C31816341   6.840   0.563   3.940  0.3959 -0.6003  0.3932
  148SAPE  H18X16342   6.901   0.602   3.856  1.8089 -2.5899  0.4182
  148SAPE  H18Y16343   6.762   0.490   3.908 -0.9228  0.8454  0.2026
  148SAPE  H18Z16344   6.910   0.502   4.002 -0.1388  0.7745  2.4469
  149SAPE     N16345   0.677   4.478   6.349  0.4465  0.8047 -1.0045
  149SAPE   HN116346   0.655   4.547   6.274 -1.0177  0.5825 -0.8115
  149SAPE   HN216347   0.746   4.404   6.327 -0.9361 -0.7973 -0.1896
  149SAPE   HN316348   0.590   4.431   6.380  1.3462 -1.0366 -1.1706
  149SAPE   C1216349   0.735   4.557   6.471  0.0869 -0.1240  0.4948
  149SAPE  H12A16350   0.757   4.483   6.551 -2.2562  0.4722  1.7793
  149SAPE  H12B16351   0.651   4.621   6.503 -2.8446 -3.7499  0.8144
  149SAPE   C1116352   0.873   4.622   6.427 -0.2299 -0.5116  0.3115
  149SAPE  H11A16353   0.910   4.688   6.508  0.6013 -2.8483  1.9718
  149SAPE  H11B16354   0.855   4.691   6.342 -0.4625 -0.1562  0.6448
  149SAPE     P16355   1.120   4.553   6.412 -0.2219  0.3032 -0.3002
  149SAPE   O1316356   1.160   4.580   6.551  0.2340  0.3720  0.5238
  149SAPE   O1416357   1.201   4.448   6.345  0.1585  0.3883  0.3539
  149SAPE   O1216358   0.963   4.523   6.406 -0.3180 -0.1527  0.6285
  149SAPE   O1116359   1.122   4.685   6.322  0.6124 -0.2594 -0.1439
  149SAPE    C116360   1.241   4.712   6.241  0.3018 -0.0522  0.2408
  149SAPE    HA16361   1.252   4.822   6.231  1.1195  0.0784  2.1594
  149SAPE    HB16362   1.328   4.681   6.303 -1.4567 -1.6304  2.0221
  149SAPE    C216363   1.245   4.636   6.104  0.6184 -0.0033  0.4406
  149SAPE    HS16364   1.281   4.532   6.122  3.6191  0.6980 -0.9357
  149SAPE   O2116365   1.342   4.706   6.014  0.2931  0.2725 -0.3516
  149SAPE   C2116366   1.405   4.636   5.922 -0.5543  0.8460 -0.5376
  149SAPE   O2216367   1.396   4.514   5.912  0.3460  0.1654 -0.2068
  149SAPE   C2216368   1.509   4.713   5.853  0.0702 -0.0756 -0.1995
  149SAPE   H2R16369   1.481   4.818   5.828 -0.8977 -0.3566 -0.3487
  149SAPE   H2S16370   1.601   4.715   5.916  0.2865  1.3450 -0.5172
  149SAPE    C316371   1.105   4.630   6.033 -0.5820  0.8484 -0.3066
  149SAPE    HX16372   1.090   4.734   5.996 -3.4991  0.9816  0.9294
  149SAPE    HY16373   1.019   4.610   6.100  0.0215  1.4579  0.6762
  149SAPE   O3116374   1.096   4.546   5.916 -0.5915  0.1714 -0.4607
  149SAPE   C3116375   1.110   4.419   5.926 -0.4060  0.6065  0.1629
  149SAPE   O3216376   1.119   4.356   6.033 -0.0584  0.0746 -0.6108
  149SAPE   C3216377   1.126   4.359   5.786  0.9844  0.4059 -0.1084
  149SAPE   H2X16378   1.161   4.255   5.806 -2.9386 -0.9463  0.5747
  149SAPE   H2Y16379   1.190   4.431   5.730  0.1488  1.8286  0.7100
  149SAPE   C2316380   1.559   4.632   5.722 -0.0890  0.8748 -0.0873
  149SAPE   H3R16381   1.475   4.616   5.651 -0.7338  2.0477  0.3760
  149SAPE   H3S16382   1.599   4.532   5.750 -1.2338  0.3678 -0.1776
  149SAPE   C2416383   1.679   4.704   5.664 -0.1992 -0.0472  0.3498
  149SAPE   H4R16384   1.714   4.631   5.588  1.2739  0.8150  0.1457
  149SAPE   H4S16385   1.764   4.711   5.735 -0.4078 -0.7975  0.6782
  149SAPE   C2516386   1.643   4.831   5.598 -0.4420 -0.5530  0.0356
  149SAPE   H5R16387   1.675   4.918   5.657 -0.2409 -0.6196  0.0257
  149SAPE   C2616388   1.583   4.844   5.476 -0.0955 -0.0188  0.6924
  149SAPE   H6R16389   1.573   4.948   5.443  1.6718  0.7209  2.2757
  149SAPE   C2716390   1.530   4.734   5.385  0.2209  0.3242 -0.4426
  149SAPE   H7R16391   1.541   4.643   5.448 -0.4386  1.2822  1.1324
  149SAPE   H7S16392   1.596   4.727   5.296  0.5315 -0.8542 -0.1326
  149SAPE   C2816393   1.386   4.731   5.339 -0.1747 -0.3210 -1.1796
  149SAPE   H8R16394   1.345   4.832   5.325  1.3663  0.2825 -1.6069
  149SAPE   C2916395   1.317   4.627   5.291  0.2819  0.1718 -0.2594
  149SAPE   H9R16396   1.209   4.636   5.271  0.2632 -0.5091 -0.4935
  149SAPE  C21016397   1.370   4.486   5.279  0.4171 -0.5644  0.0681
  149SAPE  H10R16398   1.287   4.420   5.312  0.1576 -0.3935 -0.2410
  149SAPE  H10S16399   1.456   4.467   5.348  0.5006 -2.1382 -0.4189
  149SAPE  C21116400   1.412   4.456   5.141  0.2803  0.1395 -0.4362
  149SAPE  H11R16401   1.520   4.438   5.140  0.0941 -1.0985 -1.4816
  149SAPE  C21216402   1.348   4.457   5.028 -0.0924 -0.3881 -0.6971
  149SAPE  H12R16403   1.406   4.416   4.944  0.6502  0.5541 -0.6605
  149SAPE  C21316404   1.208   4.493   5.001  0.1845  0.2793  0.5765
  149SAPE  H13R16405   1.157   4.538   5.089 -1.3558  1.3062 -0.7969
  149SAPE  H13S16406   1.151   4.400   4.978  0.4482 -0.2835  2.0499
  149SAPE  C21416407   1.182   4.578   4.885 -0.5135  0.0553  0.0471
  149SAPE  H14R16408   1.209   4.683   4.898  0.3562 -0.1278 -0.2022
  149SAPE  C21516409   1.152   4.530   4.764  0.3521  0.2409  0.2023
  149SAPE  H15R16410   1.156   4.601   4.680 -3.7562 -1.7731 -1.9743
  149SAPE  C21616411   1.155   4.388   4.715  0.5154  0.0299 -0.3571
  149SAPE  H16R16412   1.179   4.324   4.803  0.4654  0.9352  0.3274
  149SAPE  H16S16413   1.228   4.379   4.631  0.2187 -0.8231 -0.5318
  149SAPE  C21716414   1.021   4.334   4.662  0.7481  0.6312  0.0162
  149SAPE  H17R16415   1.049   4.235   4.622 -1.6776  0.7056 -2.0769
  149SAPE  H17S16416   0.966   4.388   4.582 -2.2569 -2.7700 -0.4358
  149SAPE  C21816417   0.910   4.305   4.770 -0.2118  0.3682 -0.5208
  149SAPE  H18R16418   0.872   4.397   4.819  0.1438 -0.3478  1.1683
  149SAPE  H18S16419   0.964   4.256   4.853  1.4918  0.8196 -1.3178
  149SAPE  C21916420   0.784   4.231   4.718 -0.2119 -0.0396 -0.2233
  149SAPE  H19R16421   0.713   4.226   4.804 -1.1422 -0.5221 -1.0060
  149SAPE  H19S16422   0.811   4.128   4.687  0.9060  0.9142 -2.6491
  149SAPE  C22016423   0.708   4.294   4.603 -0.2245 -0.2185  0.3788
  149SAPE  H20R16424   0.682   4.399   4.628  2.1583  0.5657 -0.1766
  149SAPE  H20S16425   0.610   4.247   4.578 -0.1434 -0.6172  0.7932
  149SAPE  H20T16426   0.778   4.310   4.518  0.6683  0.3306  1.1940
  149SAPE   C3316427   0.989   4.349   5.709 -0.4112 -0.0623 -0.8942
  149SAPE   H3X16428   0.942   4.449   5.715 -1.7119 -0.6677 -0.6035
  149SAPE   H3Y16429   0.926   4.276   5.764 -1.1516 -0.2306 -1.9297
  149SAPE   C3416430   0.999   4.309   5.566  0.1602  0.3330  0.2826
  149SAPE   H4X16431   1.044   4.207   5.558  0.0813  0.3824 -0.9414
  149SAPE   H4Y16432   1.071   4.379   5.520 -0.2020  0.3987 -0.1955
  149SAPE   C3516433   0.863   4.310   5.509  0.0381 -0.1291  0.1671
  149SAPE   H5X16434   0.816   4.409   5.529  1.9085  0.6954  0.6739
  149SAPE   H5Y16435   0.804   4.225   5.550 -0.6300  1.3506  2.4885
  149SAPE   C3616436   0.868   4.288   5.357  0.0285  0.3637  0.3507
  149SAPE   H6X16437   0.889   4.182   5.331 -1.4945  0.4992 -1.6927
  149SAPE   H6Y16438   0.946   4.349   5.306  1.1634 -3.0526 -2.4892
  149SAPE   C3716439   0.738   4.309   5.278 -0.9415  0.2213  1.0829
  149SAPE   H7X16440   0.696   4.408   5.304  0.8108  1.2840  0.0809
  149SAPE   H7Y16441   0.663   4.230   5.299 -0.3671 -0.2036  1.6037
  149SAPE   C3816442   0.762   4.305   5.126  0.1940  0.4483  0.4737
  149SAPE   H8X16443   0.792   4.202   5.096 -0.7244  0.6876 -1.3613
  149SAPE   H8Y16444   0.848   4.366   5.091 -0.5549  0.2421 -1.8783
  149SAPE   C3916445   0.632   4.342   5.047 -0.2304  0.3382 -0.7147
  149SAPE   H9X16446   0.661   4.379   4.946  1.6258 -2.5022 -1.3451
  149SAPE   H9Y16447   0.594   4.432   5.099  0.1552 -0.8090  1.6674
  149SAPE  C31016448   0.515   4.238   5.031 -0.5002 -0.4827 -0.0270
  149SAPE  H10X16449   0.454   4.231   5.124 -0.8231 -1.1530 -0.2793
  149SAPE  H10Y16450   0.562   4.140   5.008 -0.3328 -0.3136 -0.4068
  149SAPE  C31116451   0.418   4.275   4.924  0.0602  0.4486 -0.7388
  149SAPE  H11X16452   0.468   4.285   4.825  1.1836  2.2759 -0.0274
  149SAPE  H11Y16453   0.377   4.373   4.957 -2.0929 -0.6503  0.0200
  149SAPE  C31216454   0.305   4.174   4.918 -0.5388 -0.0073  0.2120
  149SAPE  H12X16455   0.261   4.152   5.017 -0.4103  0.7635  0.4429
  149SAPE  H12Y16456   0.340   4.073   4.889 -1.4486 -0.3121  0.1341
  149SAPE  C31316457   0.197   4.219   4.820 -0.2106  0.7753 -0.3801
  149SAPE  H13X16458   0.141   4.305   4.861 -0.8808 -0.3459  1.1399
  149SAPE  H13Y16459   0.126   4.133   4.816 -0.5951  1.1300 -2.3142
  149SAPE  C31416460   0.239   4.238   4.672  0.8529 -0.6818 -0.3401
  149SAPE  H14X16461   0.319   4.315   4.664  2.9808 -2.7132  0.0547
  149SAPE  H14Y16462   0.151   4.265   4.611  1.3322 -2.9721 -2.2059
  149SAPE  C31516463   0.311   4.126   4.611  0.2309  0.7976 -0.5560
  149SAPE  H15X16464   0.250   4.033   4.604 -1.3059  1.8363 -1.5704
  149SAPE  H15Y16465   0.400   4.111   4.677 -1.9678 -1.2864  2.1621
  149SAPE  C31616466   0.347   4.162   4.468  0.2097 -0.2735  0.9809
  149SAPE  H16X16467   0.440   4.104   4.452  0.6906  0.5438  0.7772
  149SAPE  H16Y16468   0.365   4.272   4.468  1.1731 -0.3400 -2.3564
  149SAPE  C31716469   0.242   4.137   4.356  0.4567 -0.4177  0.0298
  149SAPE  H17X16470   0.260   4.213   4.277  1.4229  0.4990  1.0962
  149SAPE  H17Y16471   0.144   4.152   4.405  0.5127 -0.9579  0.3161
  149SAPE  C31816472   0.252   3.996   4.292  0.3889  0.3409 -0.2853
  149SAPE  H18X16473   0.348   3.992   4.237  0.5427 -0.2001  0.0182
  149SAPE  H18Y16474   0.159   3.967   4.238  1.1631  0.6288 -1.8222
  149SAPE  H18Z16475   0.267   3.921   4.372 -0.5704  0.9480  0.4813
  150SAPE     N16476   0.227   3.517   6.100 -0.1732 -0.6934  0.2312
  150SAPE   HN116477   0.295   3.590   6.131 -1.6971  0.0570  2.0888
  150SAPE   HN216478   0.193   3.465   6.184  2.0258 -0.0459  1.6231
  150SAPE   HN316479   0.288   3.449   6.051  0.6232 -0.4621  0.8746
  150SAPE   C1216480   0.124   3.577   6.007 -0.2171  0.2101 -0.2866
  150SAPE  H12A16481   0.058   3.644   6.067 -1.1746 -0.7793 -0.2037
  150SAPE  H12B16482   0.062   3.492   5.971 -2.4432 -0.4077  4.2139
  150SAPE   C1116483   0.184   3.655   5.889 -0.1814  0.7171  0.8309
  150SAPE  H11A16484   0.104   3.683   5.817 -0.1105 -0.2652  0.3497
  150SAPE  H11B16485   0.241   3.585   5.825 -0.3361  1.1891  0.1566
  150SAPE     P16486   0.211   3.910   5.970 -0.4424 -0.2555 -0.0795
  150SAPE   O1316487   0.096   3.888   6.061  0.1610 -0.6351 -0.7626
  150SAPE   O1416488   0.319   3.996   6.022  0.1115 -0.8626 -0.0785
  150SAPE   O1216489   0.270   3.766   5.936  0.5863 -0.0991  0.5956
  150SAPE   O1116490   0.143   3.971   5.836 -0.3641 -0.3691  0.0325
  150SAPE    C116491   0.197   3.946   5.709  0.2145  0.2629 -0.9236
  150SAPE    HA16492   0.294   3.891   5.710  0.4365  0.6516 -1.2475
  150SAPE    HB16493   0.130   3.883   5.646  0.2202  1.6301 -2.3292
  150SAPE    C216494   0.232   4.071   5.633 -0.3163  0.3672  0.7647
  150SAPE    HS16495   0.281   4.138   5.706  2.5425  0.1973 -0.8624
  150SAPE   O2116496   0.126   4.124   5.560  0.0888 -0.3864 -0.8682
  150SAPE   C2116497   0.056   4.222   5.609 -0.8334 -0.2852  0.0379
  150SAPE   O2216498   0.078   4.288   5.711 -0.1903  0.6987  0.1195
  150SAPE   C2216499  -0.064   4.244   5.512  0.7350  0.1504  0.4629
  150SAPE   H2R16500  -0.140   4.168   5.539  1.3558 -0.0223  1.7582
  150SAPE   H2S16501  -0.106   4.343   5.540 -0.3366  0.2136 -1.2112
  150SAPE    C316502   0.352   4.039   5.531  0.0629  0.1637 -0.7312
  150SAPE    HX16503   0.439   4.016   5.597  0.2942  2.0467 -0.3211
  150SAPE    HY16504   0.382   4.132   5.478  0.9502 -0.1911 -0.8585
  150SAPE   O3116505   0.320   3.927   5.441  0.7869 -0.5968 -0.2849
  150SAPE   C3116506   0.275   3.959   5.318  0.0384  0.1052 -0.5399
  150SAPE   O3216507   0.278   4.062   5.261 -0.5209  0.0348  0.0006
  150SAPE   C3216508   0.233   3.821   5.244  0.2426 -0.2866 -0.5372
  150SAPE   H2X16509   0.235   3.733   5.310  0.9287 -0.1737 -0.3964
  150SAPE   H2Y16510   0.309   3.810   5.162  0.6086  0.2108 -0.2727
  150SAPE   C2316511  -0.032   4.232   5.360 -0.5567  0.0988 -0.2253
  150SAPE   H3R16512  -0.011   4.125   5.339  0.0578  0.8048 -3.8953
  150SAPE   H3S16513   0.065   4.282   5.340 -1.6000  2.4636  0.2907
  150SAPE   C2416514  -0.141   4.277   5.271 -0.4013 -0.4241  0.6558
  150SAPE   H4R16515  -0.153   4.388   5.281  0.1046  0.0145 -2.4678
  150SAPE   H4S16516  -0.237   4.225   5.292 -0.5347 -0.8215 -0.7991
  150SAPE   C2516517  -0.093   4.257   5.129  0.6088  0.1437  0.0438
  150SAPE   H5R16518   0.007   4.214   5.112 -0.4698 -2.5224 -0.0886
  150SAPE   C2616519  -0.162   4.299   5.018 -0.2804 -0.5191 -0.4155
  150SAPE   H6R16520  -0.114   4.286   4.919 -0.0414 -1.5900 -0.1677
  150SAPE   C2716521  -0.302   4.358   5.014 -0.4605  0.5081 -0.5047
  150SAPE   H7R16522  -0.283   4.467   5.011  2.5547  0.1923  2.2595
  150SAPE   H7S16523  -0.358   4.349   5.109  0.1001  1.9346 -0.0310
  150SAPE   C2816524  -0.387   4.296   4.906  0.1876  0.5611  0.8759
  150SAPE   H8R16525  -0.454   4.217   4.944  0.6223  0.1206  0.7273
  150SAPE   C2916526  -0.364   4.309   4.772  0.1537  0.3004 -0.0386
  150SAPE   H9R16527  -0.421   4.244   4.704 -0.1222  0.1777  0.3074
  150SAPE  C21016528  -0.273   4.404   4.700 -0.2275 -0.4074 -1.0424
  150SAPE  H10R16529  -0.219   4.468   4.773 -1.0984 -0.4290 -0.3637
  150SAPE  H10S16530  -0.332   4.469   4.631  3.7461  0.6172 -3.8306
  150SAPE  C21116531  -0.177   4.334   4.617 -0.7340 -0.9165  0.2448
  150SAPE  H11R16532  -0.111   4.273   4.680  3.5183  2.4569 -0.4844
  150SAPE  C21216533  -0.169   4.335   4.479 -0.0382  0.4955 -0.5709
  150SAPE  H12R16534  -0.097   4.262   4.438 -0.2033  0.0568 -0.0919
  150SAPE  C21316535  -0.259   4.413   4.381  0.5499 -0.2750  0.2452
  150SAPE  H13R16536  -0.272   4.517   4.418 -1.5514  0.5736 -2.5594
  150SAPE  H13S16537  -0.353   4.355   4.386  2.0105 -2.8339  0.1608
  150SAPE  C21416538  -0.206   4.410   4.241 -0.2907 -0.1121 -0.6514
  150SAPE  H14R16539  -0.112   4.355   4.227 -1.0208 -0.9691 -2.6184
  150SAPE  C21516540  -0.249   4.474   4.133  0.6428  0.1242  0.2508
  150SAPE  H15R16541  -0.203   4.466   4.033 -0.2236 -1.0363 -0.0798
  150SAPE  C21616542  -0.373   4.566   4.126 -0.5983 -0.3505  0.6952
  150SAPE  H16R16543  -0.407   4.579   4.231  0.9494 -0.0318  1.1849
  150SAPE  H16S16544  -0.453   4.523   4.062 -0.4205  2.0835 -1.3005
  150SAPE  C21716545  -0.335   4.697   4.052 -0.0876 -0.0321 -0.2538
  150SAPE  H17R16546  -0.321   4.674   3.944  0.3596 -1.5032  0.0934
  150SAPE  H17S16547  -0.230   4.723   4.078  0.3363 -0.4075 -1.5306
  150SAPE  C21816548  -0.444   4.805   4.083 -0.5380  0.2902  0.1884
  150SAPE  H18R16549  -0.456   4.796   4.193 -4.4402  0.1740 -0.1140
  150SAPE  H18S16550  -0.540   4.767   4.043  0.1913 -0.3631 -0.9842
  150SAPE  C21916551  -0.410   4.943   4.041 -0.2452 -0.2680 -0.1728
  150SAPE  H19R16552  -0.390   4.941   3.931  1.7653  1.2145  0.1069
  150SAPE  H19S16553  -0.312   4.970   4.086  0.6644 -2.6879 -0.5503
  150SAPE  C22016554  -0.505   5.054   4.071 -0.1691  0.6400  0.1562
  150SAPE  H20R16555  -0.596   5.034   4.010 -0.5968  2.0747  0.3009
  150SAPE  H20S16556  -0.462   5.150   4.036  0.3776  0.7637  1.1444
  150SAPE  H20T16557  -0.551   5.071   4.170  0.0687  0.4041  0.3081
  150SAPE   C3316558   0.090   3.841   5.204  0.1607  0.1320  0.0595
  150SAPE   H3X16559   0.072   3.942   5.163 -0.9273 -0.6986 -1.6149
  150SAPE   H3Y16560   0.027   3.830   5.295  0.0179  0.1128 -0.0414
  150SAPE   C3416561   0.043   3.735   5.102  0.0625  0.6458 -0.0579
  150SAPE   H4X16562   0.059   3.640   5.157  0.4138 -0.1934 -1.5506
  150SAPE   H4Y16563   0.120   3.723   5.022 -0.3253 -3.1030 -0.0574
  150SAPE   C3516564  -0.101   3.749   5.057  0.9776  0.2585  0.5272
  150SAPE   H5X16565  -0.117   3.837   4.991  0.9812  1.3848  1.9767
  150SAPE   H5Y16566  -0.157   3.771   5.151 -0.3876 -1.3586  0.1531
  150SAPE   C3616567  -0.154   3.614   5.003 -1.1026 -0.1593 -0.5087
  150SAPE   H6X16568  -0.143   3.545   5.089  2.5687 -0.4877 -1.0514
  150SAPE   H6Y16569  -0.083   3.588   4.920 -0.9335  0.1499 -0.4635
  150SAPE   C3716570  -0.295   3.619   4.940  0.0831 -0.2227 -0.6592
  150SAPE   H7X16571  -0.314   3.722   4.902  0.0662  0.3602  0.8772
  150SAPE   H7Y16572  -0.368   3.610   5.023 -1.8144  1.6615 -2.0376
  150SAPE   C3816573  -0.311   3.507   4.840 -0.1687 -0.0480  0.0045
  150SAPE   H8X16574  -0.310   3.407   4.890  0.7749 -0.0448  0.0062
  150SAPE   H8Y16575  -0.227   3.493   4.768  0.4832  0.7804  0.5850
  150SAPE   C3916576  -0.439   3.523   4.763 -0.4339  0.4829 -0.8722
  150SAPE   H9X16577  -0.429   3.615   4.702 -1.4197  2.3087  1.5593
  150SAPE   H9Y16578  -0.532   3.541   4.822  1.0196  5.6895  0.3825
  150SAPE  C31016579  -0.460   3.410   4.661 -0.3838 -0.2050  0.2487
  150SAPE  H10X16580  -0.555   3.356   4.678  0.9976 -2.1417  2.4403
  150SAPE  H10Y16581  -0.382   3.331   4.668  0.1267  0.4456  3.3398
  150SAPE  C31116582  -0.451   3.462   4.517 -0.4347 -0.1535  0.5174
  150SAPE  H11X16583  -0.379   3.546   4.509  2.3831 -2.4683 -0.0702
  150SAPE  H11Y16584  -0.546   3.513   4.492 -0.2933  0.1648  0.6230
  150SAPE  C31216585  -0.420   3.350   4.421 -0.4630 -0.2191 -0.4913
  150SAPE  H12X16586  -0.482   3.260   4.438  0.9247 -1.7794 -2.9880
  150SAPE  H12Y16587  -0.317   3.309   4.427 -0.7125 -1.0774 -1.6399
  150SAPE  C31316588  -0.458   3.397   4.274 -0.6580 -0.2112 -0.6715
  150SAPE  H13X16589  -0.482   3.505   4.277  1.6448  0.3541 -0.7730
  150SAPE  H13Y16590  -0.551   3.346   4.241 -0.8122 -0.1743 -0.2972
  150SAPE  C31416591  -0.335   3.381   4.183  0.5528 -0.1407 -0.5928
  150SAPE  H14X16592  -0.306   3.274   4.172 -0.5747 -0.4825 -0.3756
  150SAPE  H14Y16593  -0.247   3.432   4.227  0.9868 -0.8614 -0.6079
  150SAPE  C31516594  -0.367   3.422   4.041  0.2368  0.4141  0.2387
  150SAPE  H15X16595  -0.368   3.533   4.034 -0.4899  0.4311  0.5346
  150SAPE  H15Y16596  -0.467   3.393   4.003  0.4816 -2.6205  1.6348
  150SAPE  C31616597  -0.256   3.368   3.943 -0.2735 -0.0184  0.1388
  150SAPE  H16X16598  -0.297   3.400   3.844  1.5184  0.3092 -0.5377
  150SAPE  H16Y16599  -0.236   3.260   3.955 -0.9173  0.0145  1.6103
  150SAPE  C31716600  -0.126   3.438   3.961 -0.0263  0.1781 -0.4007
  150SAPE  H17X16601  -0.099   3.428   4.069  0.0670 -0.6323 -0.4885
  150SAPE  H17Y16602  -0.135   3.547   3.944 -0.5526  0.0732 -0.8055
  150SAPE  C31816603  -0.012   3.383   3.871  1.2743 -0.3552  0.1511
  150SAPE  H18X16604  -0.054   3.396   3.769  1.1851 -1.3403  0.0471
  150SAPE  H18Y16605  -0.005   3.275   3.895  0.3955  0.0510  2.4653
  150SAPE  H18Z16606   0.087   3.431   3.882  0.7032  0.9172 -0.0815
  151SAPE     N16607   3.829   3.284   6.615 -0.5231  0.2089 -0.4749
  151SAPE   HN116608   3.821   3.239   6.709  0.0623  1.6275  0.2963
  151SAPE   HN216609   3.848   3.386   6.619 -0.4393  0.2460 -1.5875
  151SAPE   HN316610   3.740   3.273   6.564 -0.3292  1.3820 -1.0980
  151SAPE   C1216611   3.928   3.212   6.530 -0.1854  0.8672  0.2906
  151SAPE  H12A16612   3.917   3.101   6.536 -1.2583  0.9457 -0.0459
  151SAPE  H12B16613   4.028   3.236   6.570 -1.3498  2.3297  2.5172
  151SAPE   C1116614   3.923   3.249   6.380 -0.0629  0.4625 -0.2372
  151SAPE  H11A16615   4.016   3.218   6.327 -0.2636  1.6376 -1.3336
  151SAPE  H11B16616   3.933   3.360   6.373  1.1944  0.8897  4.8817
  151SAPE     P16617   3.768   3.050   6.269  0.0680  0.0618  0.1970
  151SAPE   O1316618   3.792   2.957   6.379 -0.0211  0.0981 -0.1178
  151SAPE   O1416619   3.634   3.056   6.213 -0.1398  0.2091  0.0073
  151SAPE   O1216620   3.800   3.195   6.322 -0.2712 -0.4674 -0.0386
  151SAPE   O1116621   3.885   3.035   6.165 -0.4722 -0.3633  0.1713
  151SAPE    C116622   3.880   3.091   6.030 -0.1964  0.0271  0.6272
  151SAPE    HA16623   3.846   3.196   6.033  3.9386  1.5340  0.6540
  151SAPE    HB16624   3.979   3.103   5.982 -0.8468  1.4811 -0.4291
  151SAPE    C216625   3.796   2.993   5.934  0.2276  0.4882  0.3157
  151SAPE    HS16626   3.693   2.995   5.975 -0.0325 -0.0100 -0.3211
  151SAPE   O2116627   3.868   2.872   5.922 -0.1039  0.4323 -0.3328
  151SAPE   C2116628   3.793   2.769   5.975 -0.1097 -0.0785 -0.2297
  151SAPE   O2216629   3.678   2.778   6.018 -0.2552  0.0761 -0.0555
  151SAPE   C2216630   3.869   2.634   5.947  0.1537  0.0798  0.1472
  151SAPE   H2R16631   3.965   2.656   5.895  0.2595 -0.6402  0.0407
  151SAPE   H2S16632   3.888   2.599   6.051  3.1421  2.2171  0.4496
  151SAPE    C316633   3.773   3.053   5.793  0.9933  0.4542  0.2139
  151SAPE    HX16634   3.869   3.086   5.747  0.4722  0.3661 -0.9682
  151SAPE    HY16635   3.724   3.151   5.814 -3.6372 -1.4246 -0.5091
  151SAPE   O3116636   3.695   2.966   5.705 -0.1840 -0.2249  0.3085
  151SAPE   C3116637   3.564   2.966   5.720  0.1282 -0.0704  0.1871
  151SAPE   O3216638   3.511   3.017   5.817  0.1902 -0.6476  0.3868
  151SAPE   C3216639   3.504   2.879   5.611 -0.3353  0.3174  0.5384
  151SAPE   H2X16640   3.522   2.772   5.632 -0.6708  0.1805  0.1224
  151SAPE   H2Y16641   3.540   2.910   5.510 -3.5710 -0.8829 -1.1366
  151SAPE   C2316642   3.790   2.536   5.853 -0.6535  0.4974 -0.8329
  151SAPE   H3R16643   3.687   2.523   5.893 -0.8593  0.8200 -1.2432
  151SAPE   H3S16644   3.834   2.435   5.869 -1.0758  0.3343 -0.6950
  151SAPE   C2416645   3.788   2.579   5.707  0.0881 -0.1593  0.0546
  151SAPE   H4R16646   3.892   2.579   5.667  1.4856  0.2488  3.3706
  151SAPE   H4S16647   3.759   2.685   5.717  1.1086  0.2471 -1.0454
  151SAPE   C2516648   3.709   2.492   5.615  0.0460 -0.1460 -0.2319
  151SAPE   H5R16649   3.660   2.404   5.660 -1.8206 -0.2353 -2.2421
  151SAPE   C2616650   3.711   2.521   5.483  0.7928 -0.5612 -0.2106
  151SAPE   H6R16651   3.652   2.456   5.417 -0.5342  2.4124 -2.1955
  151SAPE   C2716652   3.789   2.633   5.421 -0.7940 -0.7399  0.5666
  151SAPE   H7R16653   3.895   2.605   5.404 -0.2144  0.4267  2.0640
  151SAPE   H7S16654   3.790   2.710   5.500  0.1291  0.5921 -0.6850
  151SAPE   C2816655   3.719   2.687   5.298  0.0647 -0.1082 -1.1549
  151SAPE   H8R16656   3.611   2.703   5.312  0.4419  2.3101 -0.4808
  151SAPE   C2916657   3.761   2.741   5.189 -0.9428  0.0804  0.4238
  151SAPE   H9R16658   3.683   2.781   5.122  1.4681  1.8849 -1.4593
  151SAPE  C21016659   3.892   2.728   5.128 -0.0793 -1.3356 -0.1723
  151SAPE  H10R16660   3.929   2.625   5.147  0.3587 -1.1891 -0.2145
  151SAPE  H10S16661   3.970   2.788   5.180  1.7743 -3.2990 -0.5574
  151SAPE  C21116662   3.902   2.741   4.976 -0.2040 -0.2029  0.3511
  151SAPE  H11R16663   3.872   2.650   4.922  0.1248  0.3756 -0.8423
  151SAPE  C21216664   3.951   2.841   4.904 -0.2190  0.2305 -0.1083
  151SAPE  H12R16665   3.966   2.817   4.798 -0.3338 -1.0802  0.1481
  151SAPE  C21316666   3.997   2.979   4.951 -0.0848 -1.3169 -0.1302
  151SAPE  H13R16667   3.966   2.998   5.056 -0.0341 -1.2222 -0.1322
  151SAPE  H13S16668   3.950   3.068   4.904  0.2423 -1.2707 -0.3801
  151SAPE  C21416669   4.150   2.978   4.951  0.6825  0.5498  0.0282
  151SAPE  H14R16670   4.195   2.909   5.025  0.5552  2.2023  1.7137
  151SAPE  C21516671   4.235   3.047   4.865 -0.0498  0.0126 -1.3389
  151SAPE  H15R16672   4.341   3.052   4.895 -0.4018 -1.5707  0.3360
  151SAPE  C21616673   4.196   3.140   4.756 -0.1877  0.3875 -0.1765
  151SAPE  H16R16674   4.211   3.247   4.783  2.2178 -0.0032  0.2324
  151SAPE  H16S16675   4.087   3.136   4.737 -0.2190 -0.1745  0.1318
  151SAPE  C21716676   4.270   3.099   4.631 -0.3965  0.1055  1.0493
  151SAPE  H17R16677   4.270   2.995   4.594  0.3859  0.6371 -0.5590
  151SAPE  H17S16678   4.380   3.110   4.644 -0.0548 -1.7137 -0.0527
  151SAPE  C21816679   4.245   3.186   4.508 -0.2468  0.0605  0.1843
  151SAPE  H18R16680   4.244   3.293   4.537  0.1735 -0.4848  2.4033
  151SAPE  H18S16681   4.149   3.173   4.454 -0.0769 -2.0122  0.3041
  151SAPE  C21916682   4.354   3.167   4.397  0.3304  0.3511 -0.0694
  151SAPE  H19R16683   4.362   3.057   4.388  0.1473  0.2658  0.7031
  151SAPE  H19S16684   4.449   3.206   4.438  1.5146  0.6014 -2.8472
  151SAPE  C22016685   4.315   3.238   4.264 -0.2077  0.3460 -0.4524
  151SAPE  H20R16686   4.306   3.347   4.281  1.3640  0.6203 -1.1958
  151SAPE  H20S16687   4.222   3.193   4.223 -1.5701  0.7210  2.0507
  151SAPE  H20T16688   4.398   3.220   4.192  2.4670 -0.5450  2.6230
  151SAPE   C3316689   3.352   2.903   5.620  0.0355  0.1346 -0.5181
  151SAPE   H3X16690   3.324   3.008   5.595  0.1418 -0.2540 -2.4441
  151SAPE   H3Y16691   3.320   2.890   5.725  0.8614  3.3567  0.2489
  151SAPE   C3416692   3.285   2.797   5.532  0.6167  0.8144  0.7562
  151SAPE   H4X16693   3.184   2.786   5.577  1.0969  0.1278  1.7098
  151SAPE   H4Y16694   3.342   2.701   5.538  1.8525  1.5355  0.8544
  151SAPE   C3516695   3.264   2.852   5.394  0.0495 -0.1903  0.3922
  151SAPE   H5X16696   3.365   2.887   5.365  0.4984 -1.2699  0.6117
  151SAPE   H5Y16697   3.192   2.937   5.391 -1.2536 -1.2727 -0.0163
  151SAPE   C3616698   3.226   2.726   5.307  0.2414 -0.4002  0.4838
  151SAPE   H6X16699   3.127   2.696   5.349  0.3350  0.8503  1.6870
  151SAPE   H6Y16700   3.297   2.652   5.347  2.2564  1.5444  0.6989
  151SAPE   C3716701   3.228   2.737   5.155 -0.0340  0.0584 -0.6415
  151SAPE   H7X16702   3.187   2.838   5.130  2.1359  1.8819  2.4537
  151SAPE   H7Y16703   3.167   2.654   5.113 -1.7579  1.3897 -0.8809
  151SAPE   C3816704   3.374   2.730   5.102  0.6560  0.0143  0.0317
  151SAPE   H8X16705   3.418   2.635   5.138  1.4890 -0.2577 -1.6297
  151SAPE   H8Y16706   3.437   2.814   5.138  0.0916  0.9569 -1.1099
  151SAPE   C3916707   3.375   2.738   4.950 -0.4783  1.0116  0.1841
  151SAPE   H9X16708   3.332   2.644   4.909  1.5361 -0.2457  0.7682
  151SAPE   H9Y16709   3.480   2.731   4.914 -0.6050  0.0303 -0.0232
  151SAPE  C31016710   3.332   2.873   4.881  0.2487 -0.1643  0.1846
  151SAPE  H10X16711   3.358   2.957   4.948  0.4923 -1.5926  1.9807
  151SAPE  H10Y16712   3.221   2.875   4.887  0.1668 -0.8281 -0.8530
  151SAPE  C31116713   3.382   2.890   4.736  0.3897  0.9586 -0.3049
  151SAPE  H11X16714   3.492   2.900   4.748  0.3471 -0.9716  2.5804
  151SAPE  H11Y16715   3.345   2.977   4.677 -1.9510  0.9714  1.0324
  151SAPE  C31216716   3.357   2.770   4.644 -0.1451  0.5222 -0.2887
  151SAPE  H12X16717   3.251   2.737   4.649 -0.8629  2.7055  0.1460
  151SAPE  H12Y16718   3.410   2.680   4.682  0.4750  0.9016 -0.2482
  151SAPE  C31316719   3.398   2.803   4.498 -0.0251 -0.0766 -0.0686
  151SAPE  H13X16720   3.333   2.884   4.458  0.1922 -0.6128 -1.5604
  151SAPE  H13Y16721   3.381   2.719   4.428  0.0131  0.8380 -1.2014
  151SAPE  C31416722   3.544   2.848   4.481 -0.3844  0.3226 -0.3754
  151SAPE  H14X16723   3.560   2.944   4.534  1.6621 -0.6509  0.8891
  151SAPE  H14Y16724   3.575   2.864   4.376  1.0265 -0.2416 -0.0770
  151SAPE  C31516725   3.646   2.745   4.531  0.2842 -0.0916 -0.2818
  151SAPE  H15X16726   3.636   2.649   4.476  0.9891 -0.2481 -0.1463
  151SAPE  H15Y16727   3.622   2.726   4.638  0.3661 -0.2123 -0.2858
  151SAPE  C31616728   3.787   2.795   4.510  0.1556  0.2366 -0.3587
  151SAPE  H16X16729   3.819   2.849   4.602  1.2931  0.1138 -0.6711
  151SAPE  H16Y16730   3.779   2.874   4.433  0.4229  1.3103  0.6743
  151SAPE  C31716731   3.878   2.677   4.469  1.3587 -0.3391 -0.2461
  151SAPE  H17X16732   3.829   2.599   4.407  1.2030  0.2941 -0.9351
  151SAPE  H17Y16733   3.908   2.626   4.563  2.9210  0.1761 -0.4208
  151SAPE  C31816734   3.991   2.729   4.375  0.5669  0.4791 -0.1043
  151SAPE  H18X16735   4.052   2.642   4.343  0.4962  1.0539 -1.8986
  151SAPE  H18Y16736   4.055   2.795   4.438  1.8378 -1.4405  0.7082
  151SAPE  H18Z16737   3.951   2.775   4.282  0.8341  1.7408  0.3841
  152SAPE     N16738   0.400   4.122   6.252  0.0657  0.0159  0.2171
  152SAPE   HN116739   0.470   4.194   6.227 -0.3892  0.3157 -0.2360
  152SAPE   HN216740   0.436   4.042   6.308  0.2678 -0.8156 -1.0624
  152SAPE   HN316741   0.385   4.075   6.160  0.2931  1.4102 -0.5554
  152SAPE   C1216742   0.273   4.174   6.306 -0.3533  0.7034 -0.1200
  152SAPE  H12A16743   0.276   4.173   6.417  1.2293  1.9058 -0.1292
  152SAPE  H12B16744   0.195   4.100   6.276 -0.8026  0.1987  2.0645
  152SAPE   C1116745   0.237   4.315   6.250 -0.1566 -0.4484 -0.0285
  152SAPE  H11A16746   0.240   4.308   6.140  1.2030 -0.3909 -0.0082
  152SAPE  H11B16747   0.317   4.391   6.264 -2.2786  1.7029  1.2370
  152SAPE     P16748  -0.011   4.391   6.233  0.4113 -0.6126  0.1979
  152SAPE   O1316749  -0.067   4.264   6.179 -0.8589 -0.2186  0.3840
  152SAPE   O1416750  -0.095   4.469   6.319 -0.3192 -0.4041 -0.3211
  152SAPE   O1216751   0.116   4.362   6.316 -0.5116 -0.2254  0.2535
  152SAPE   O1116752   0.034   4.482   6.115  0.0993 -0.2223 -0.0154
  152SAPE    C116753   0.126   4.584   6.142  0.2283  0.1604  0.1361
  152SAPE    HA16754   0.075   4.666   6.196 -0.5707 -0.1091 -0.1919
  152SAPE    HB16755   0.201   4.550   6.217 -0.2823  0.4233  0.7816
  152SAPE    C216756   0.202   4.644   6.019  0.7091 -0.0632  0.5279
  152SAPE    HS16757   0.127   4.683   5.947  0.5374 -2.2889 -0.5916
  152SAPE   O2116758   0.288   4.540   5.959 -0.2775 -0.0375  0.1878
  152SAPE   C2116759   0.293   4.542   5.823 -0.5690  0.4381 -0.1757
  152SAPE   O2216760   0.233   4.621   5.752  0.2008  0.2087 -0.3111
  152SAPE   C2216761   0.405   4.444   5.773 -0.7714 -0.4062 -0.1151
  152SAPE   H2R16762   0.426   4.362   5.844 -2.4979 -3.4256 -2.8315
  152SAPE   H2S16763   0.356   4.388   5.691 -0.3483 -0.9518  0.0045
  152SAPE    C316764   0.299   4.755   6.071 -0.0179 -0.0598  0.2964
  152SAPE    HX16765   0.377   4.697   6.125  2.3054  1.0305 -1.7023
  152SAPE    HY16766   0.249   4.816   6.150 -0.3377  0.8478 -0.5893
  152SAPE   O3116767   0.352   4.842   5.973  0.1388 -0.3981  0.3637
  152SAPE   C3116768   0.462   4.906   5.987  0.1740 -0.2234 -0.4766
  152SAPE   O3216769   0.537   4.903   6.087  0.1454 -0.1884  0.0560
  152SAPE   C3216770   0.471   4.999   5.867 -0.3379  0.5502 -0.2184
  152SAPE   H2X16771   0.563   5.061   5.881 -0.6355  1.0201 -0.3251
  152SAPE   H2Y16772   0.384   5.068   5.865  0.7853  2.2980  3.0658
  152SAPE   C2316773   0.542   4.515   5.740 -0.0553 -0.3613 -0.3984
  152SAPE   H3R16774   0.617   4.434   5.732 -0.3473 -0.4448 -3.3315
  152SAPE   H3S16775   0.570   4.582   5.824  0.7159 -2.6833  1.2795
  152SAPE   C2416776   0.549   4.583   5.599  0.4879 -0.2318 -0.0825
  152SAPE   H4R16777   0.650   4.617   5.569  0.2441  1.6752  1.0621
  152SAPE   H4S16778   0.485   4.674   5.599  1.0897  0.2327  1.7080
  152SAPE   C2516779   0.510   4.475   5.502  0.2389 -0.6865  0.3132
  152SAPE   H5R16780   0.571   4.384   5.514 -0.7123 -1.2067  1.4591
  152SAPE   C2616781   0.422   4.478   5.404  0.4298  0.4638 -0.4748
  152SAPE   H6R16782   0.415   4.387   5.342  1.2351 -0.7081  1.0909
  152SAPE   C2716783   0.327   4.594   5.392  0.4942 -0.6224 -0.2245
  152SAPE   H7R16784   0.317   4.616   5.284 -1.5706 -1.9682 -0.3712
  152SAPE   H7S16785   0.370   4.686   5.437 -2.4372  0.6589  0.1622
  152SAPE   C2816786   0.187   4.579   5.447  0.0533  0.8558 -0.4300
  152SAPE   H8R16787   0.187   4.545   5.552  1.6134  3.1662  0.3943
  152SAPE   C2916788   0.069   4.595   5.394  0.3835  0.5451 -0.4204
  152SAPE   H9R16789  -0.016   4.569   5.459  0.9914 -1.6387 -0.4018
  152SAPE  C21016790   0.040   4.651   5.260  0.4204  0.0799 -0.3326
  152SAPE  H10R16791  -0.023   4.576   5.208  2.4194 -1.6575 -0.3972
  152SAPE  H10S16792   0.127   4.642   5.192 -0.1702 -1.0043 -0.9669
  152SAPE  C21116793  -0.022   4.784   5.256 -0.2196 -0.0473 -0.4689
  152SAPE  H11R16794  -0.094   4.803   5.337 -1.0492  1.9411 -1.5678
  152SAPE  C21216795  -0.012   4.879   5.161  0.2401 -0.0949  0.1185
  152SAPE  H12R16796  -0.059   4.975   5.184  0.9025 -0.0621  1.5168
  152SAPE  C21316797   0.070   4.868   5.033 -0.6521  0.2876  0.0728
  152SAPE  H13R16798   0.108   4.764   5.019 -2.3260 -0.3529 -0.0285
  152SAPE  H13S16799   0.159   4.934   5.039  0.3417 -1.0326  0.2935
  152SAPE  C21416800  -0.022   4.906   4.913 -0.7611 -0.7533  0.1425
  152SAPE  H14R16801  -0.089   4.990   4.938 -3.6993 -3.0021  0.2616
  152SAPE  C21516802  -0.049   4.842   4.805 -0.4004 -0.2226  0.9356
  152SAPE  H15R16803  -0.132   4.885   4.747  0.3296 -1.1491 -0.8902
  152SAPE  C21616804   0.008   4.710   4.753 -0.0362 -1.2521  0.0693
  152SAPE  H16R16805  -0.088   4.657   4.733  0.1722 -2.8937  2.7848
  152SAPE  H16S16806   0.043   4.651   4.841 -2.5390 -0.4127  1.7484
  152SAPE  C21716807   0.100   4.708   4.636  0.5974  0.2328 -0.3794
  152SAPE  H17R16808   0.203   4.732   4.670  0.7777  0.6747 -1.2265
  152SAPE  H17S16809   0.074   4.789   4.565  1.7794  2.6748  1.8052
  152SAPE  C21816810   0.099   4.575   4.564  0.9209  0.0079 -0.2930
  152SAPE  H18R16811   0.002   4.555   4.515  0.0342 -0.5517  1.5905
  152SAPE  H18S16812   0.104   4.505   4.650 -0.3717  0.7185  0.3873
  152SAPE  C21916813   0.215   4.559   4.472 -0.1194  0.9141  0.1734
  152SAPE  H19R16814   0.243   4.451   4.463  0.1504  1.0474 -0.7536
  152SAPE  H19S16815   0.296   4.615   4.523 -1.8968  0.4323  3.8636
  152SAPE  C22016816   0.193   4.611   4.330 -0.6660 -0.4434  0.1881
  152SAPE  H20R16817   0.096   4.570   4.296 -3.2728  4.7737  0.3427
  152SAPE  H20S16818   0.275   4.592   4.257  0.2202  3.7824 -0.1624
  152SAPE  H20T16819   0.168   4.719   4.333 -1.1587 -0.5416 -0.2982
  152SAPE   C3316820   0.492   4.922   5.739 -0.2153  0.0066  0.5976
  152SAPE   H3X16821   0.396   4.872   5.714 -0.6627  0.5468  1.1992
  152SAPE   H3Y16822   0.569   4.842   5.740  1.5688  1.5474 -1.4650
  152SAPE   C3416823   0.520   5.018   5.618  0.4640  0.8923  0.1139
  152SAPE   H4X16824   0.629   5.033   5.605  0.6090 -2.1098 -4.5982
  152SAPE   H4Y16825   0.465   5.112   5.635 -2.4341 -0.6971  0.1295
  152SAPE   C3516826   0.488   4.950   5.480  0.6283  0.2334  0.0506
  152SAPE   H5X16827   0.386   4.908   5.490  1.6441 -2.1298  1.3315
  152SAPE   H5Y16828   0.556   4.863   5.477 -0.0483 -0.2940 -0.0681
  152SAPE   C3616829   0.487   5.044   5.359  0.7671  0.2830 -0.5205
  152SAPE   H6X16830   0.595   5.060   5.336  1.1903 -0.6860  0.6940
  152SAPE   H6Y16831   0.434   5.141   5.371  1.4845  0.7514 -1.0459
  152SAPE   C3716832   0.416   4.975   5.238 -0.0140  0.2083  0.7552
  152SAPE   H7X16833   0.305   4.974   5.245 -0.3105 -2.3754 -2.0360
  152SAPE   H7Y16834   0.453   4.870   5.227  0.4010  0.3507  0.7972
  152SAPE   C3816835   0.445   5.037   5.100  0.1160  0.6180 -0.0436
  152SAPE   H8X16836   0.533   5.102   5.119  0.6495 -0.3211  0.8281
  152SAPE   H8Y16837   0.359   5.104   5.080 -2.5983 -2.7431 -0.5019
  152SAPE   C3916838   0.458   4.951   4.969  0.1512  0.2270 -0.1127
  152SAPE   H9X16839   0.396   4.859   4.971  0.6044 -0.0849  2.4474
  152SAPE   H9Y16840   0.564   4.923   4.951  0.0921  0.3419 -0.6725
  152SAPE  C31016841   0.409   5.037   4.850 -0.2194 -0.1351 -0.3912
  152SAPE  H10X16842   0.487   5.116   4.842 -0.9180  0.5881 -0.2018
  152SAPE  H10Y16843   0.304   5.067   4.869 -0.8177 -0.2337 -3.0931
  152SAPE  C31116844   0.433   4.956   4.724  0.0298 -0.2858  0.0742
  152SAPE  H11X16845   0.374   4.862   4.731  0.8518 -0.6855  3.2836
  152SAPE  H11Y16846   0.537   4.920   4.707 -0.0974  0.8586 -4.0414
  152SAPE  C31216847   0.394   5.041   4.605 -0.1491 -0.2179 -0.4152
  152SAPE  H12X16848   0.444   5.139   4.591 -0.7717 -0.1434 -2.6288
  152SAPE  H12Y16849   0.285   5.062   4.591 -0.7141 -2.8143 -0.4742
  152SAPE  C31316850   0.433   4.975   4.476 -0.2241  0.4778 -0.1606
  152SAPE  H13X16851   0.374   4.881   4.473  1.9714 -1.0371  0.7893
  152SAPE  H13Y16852   0.540   4.947   4.484 -0.6455 -1.7594 -1.3832
  152SAPE  C31416853   0.407   5.058   4.342 -0.4634  0.7534 -0.5818
  152SAPE  H14X16854   0.455   5.158   4.351 -1.7849  1.2556  2.0252
  152SAPE  H14Y16855   0.297   5.059   4.330 -0.4418  1.1503 -0.7559
  152SAPE  C31516856   0.461   4.999   4.209  0.2791 -0.2498 -0.4336
  152SAPE  H15X16857   0.572   5.000   4.204  0.3091 -1.6275 -0.2804
  152SAPE  H15Y16858   0.421   5.063   4.127  2.5533  1.8993 -0.0097
  152SAPE  C31616859   0.431   4.857   4.190  0.1747  0.3620  0.5797
  152SAPE  H16X16860   0.321   4.846   4.201  0.6029 -1.6013  4.4212
  152SAPE  H16Y16861   0.466   4.775   4.256 -0.2825 -1.0640 -0.8625
  152SAPE  C31716862   0.493   4.796   4.057 -0.4921 -0.6141  0.4396
  152SAPE  H17X16863   0.463   4.691   4.037 -2.5277 -0.4257  2.0562
  152SAPE  H17Y16864   0.604   4.795   4.067 -0.4262 -0.8863 -0.3066
  152SAPE  C31816865   0.448   4.875   3.930  0.0671 -0.7582 -0.3726
  152SAPE  H18X16866   0.498   4.833   3.839  0.8548  1.5932 -1.0970
  152SAPE  H18Y16867   0.474   4.982   3.938 -0.0347 -0.7322 -0.3877
  152SAPE  H18Z16868   0.340   4.867   3.908 -0.8007  1.4898  2.4912
  153SAPE     N16869   6.413   4.406   6.315  0.3143  0.4614 -0.0864
  153SAPE   HN116870   6.321   4.441   6.347  0.6968  1.5918 -0.1734
  153SAPE   HN216871   6.441   4.344   6.393 -0.9789  0.9461  0.7824
  153SAPE   HN316872   6.480   4.486   6.312  2.5392 -1.2750  0.8203
  153SAPE   C1216873   6.401   4.352   6.171  1.0561 -0.2512  0.6444
  153SAPE  H12A16874   6.496   4.300   6.144  1.1258  0.5967 -0.8445
  153SAPE  H12B16875   6.383   4.443   6.109  0.6184  0.2113  1.4300
  153SAPE   C1116876   6.280   4.259   6.151 -0.6162  0.4290 -0.3493
  153SAPE  H11A16877   6.292   4.227   6.045  1.5488  0.2852 -0.1003
  153SAPE  H11B16878   6.187   4.321   6.154  0.2269  1.6941  0.3807
  153SAPE     P16879   6.177   4.120   6.355  0.0661 -0.0756  0.6065
  153SAPE   O1316880   6.218   4.017   6.452  0.0035 -0.0861  0.3458
  153SAPE   O1416881   6.151   4.253   6.405 -0.1201 -0.1994  0.0511
  153SAPE   O1216882   6.290   4.153   6.243  0.2151 -0.3206  0.1550
  153SAPE   O1116883   6.059   4.062   6.274  0.0897 -0.4758  0.0500
  153SAPE    C116884   6.061   3.926   6.221  0.1317 -0.0680 -0.5225
  153SAPE    HA16885   6.086   3.856   6.303 -2.9962 -0.3423  0.3140
  153SAPE    HB16886   5.956   3.899   6.202  0.3717 -1.5947  0.2226
  153SAPE    C216887   6.142   3.904   6.090  0.1714  0.2047  0.1642
  153SAPE    HS16888   6.249   3.929   6.106  0.0737  0.5858  0.2202
  153SAPE   O2116889   6.090   3.972   5.978  0.3655 -0.3431  0.2561
  153SAPE   C2116890   6.170   4.011   5.881  0.8281 -0.2806 -0.0026
  153SAPE   O2216891   6.291   3.985   5.871  0.1081 -0.3695  0.0606
  153SAPE   C2216892   6.084   4.102   5.798 -0.2327 -0.6103 -0.5406
  153SAPE   H2R16893   6.012   4.046   5.736  0.4484 -0.7881 -1.1762
  153SAPE   H2S16894   6.021   4.168   5.862 -0.0306 -1.6666  0.7946
  153SAPE    C316895   6.143   3.749   6.057 -0.1455  0.2324 -0.6389
  153SAPE    HX16896   6.185   3.692   6.144 -0.2148  0.3867 -0.5044
  153SAPE    HY16897   6.214   3.737   5.972  0.6366  1.8115 -0.2378
  153SAPE   O3116898   6.007   3.704   6.028  0.0712  0.1279 -0.4759
  153SAPE   C3116899   5.991   3.569   6.010  0.0384 -1.1736 -0.1257
  153SAPE   O3216900   6.085   3.494   5.999 -0.2078 -0.1910 -0.1085
  153SAPE   C3216901   5.845   3.545   5.975  0.0072 -0.0226 -0.0236
  153SAPE   H2X16902   5.773   3.606   6.034 -0.3813 -0.2869 -0.2227
  153SAPE   H2Y16903   5.815   3.438   5.982  0.0409 -0.1094 -1.0713
  153SAPE   C2316904   6.173   4.182   5.704 -0.1245  0.5047 -0.1719
  153SAPE   H3R16905   6.230   4.123   5.629 -0.2008  0.5915 -0.2987
  153SAPE   H3S16906   6.252   4.236   5.761 -0.2166  0.0618  0.3741
  153SAPE   C2416907   6.100   4.288   5.622  0.6769 -0.0399 -0.2795
  153SAPE   H4R16908   6.180   4.349   5.575  0.0465  0.9103 -0.1490
  153SAPE   H4S16909   6.048   4.358   5.691 -1.6480 -0.7275 -1.2073
  153SAPE   C2516910   5.995   4.234   5.519 -0.6347  0.3903  0.6625
  153SAPE   H5R16911   5.923   4.161   5.561  0.7281 -0.8196  0.9845
  153SAPE   C2616912   5.992   4.250   5.387 -0.4462  0.3373  0.2331
  153SAPE   H6R16913   5.903   4.212   5.336  0.9523  0.1859 -2.2529
  153SAPE   C2716914   6.095   4.333   5.299 -0.3017 -0.4586  0.1672
  153SAPE   H7R16915   6.148   4.258   5.236  0.2860  0.3967 -0.3590
  153SAPE   H7S16916   6.178   4.376   5.359  0.5214 -1.7297 -0.0063
  153SAPE   C2816917   6.019   4.434   5.219 -0.0885 -0.2501  0.1509
  153SAPE   H8R16918   5.992   4.528   5.271  1.7057 -0.6676  1.9521
  153SAPE   C2916919   5.975   4.420   5.089  0.0667  0.6762 -0.0884
  153SAPE   H9R16920   5.904   4.494   5.050  0.3834  1.2035  0.3117
  153SAPE  C21016921   5.993   4.298   5.001 -0.3524 -0.5951 -0.1102
  153SAPE  H10R16922   5.994   4.206   5.063  1.9050 -0.8802 -0.4835
  153SAPE  H10S16923   6.096   4.295   4.958  0.6369 -0.1589  2.1242
  153SAPE  C21116924   5.882   4.285   4.894 -0.5529  0.3151  0.3950
  153SAPE  H11R16925   5.801   4.216   4.921  1.9070 -1.8827  2.6896
  153SAPE  C21216926   5.888   4.345   4.769  0.0885  0.4089  0.0904
  153SAPE  H12R16927   5.806   4.320   4.700 -1.4849 -0.0849  2.0504
  153SAPE  C21316928   5.979   4.450   4.723 -1.2447  0.5399  0.1095
  153SAPE  H13R16929   6.005   4.520   4.804  1.4350 -1.7325  1.3869
  153SAPE  H13S16930   5.939   4.514   4.641  0.5749  1.1927 -0.3202
  153SAPE  C21416931   6.112   4.393   4.670 -0.1716 -0.2672  0.2033
  153SAPE  H14R16932   6.159   4.320   4.737 -2.0687 -1.5739  0.1648
  153SAPE  C21516933   6.184   4.420   4.561  0.1703  0.4458  0.2456
  153SAPE  H15R16934   6.273   4.363   4.531 -0.1987  0.7896 -1.6472
  153SAPE  C21616935   6.140   4.541   4.475 -1.2236  0.2253  0.3491
  153SAPE  H16R16936   6.230   4.586   4.427 -1.3705  1.5362  1.2604
  153SAPE  H16S16937   6.093   4.617   4.541  1.3051  0.9869  1.4159
  153SAPE  C21716938   6.032   4.500   4.381  0.1348  0.4408  0.4845
  153SAPE  H17R16939   5.976   4.589   4.345 -1.8783 -0.7492  0.5061
  153SAPE  H17S16940   5.962   4.434   4.436 -1.1104 -0.3779 -1.9580
  153SAPE  C21816941   6.085   4.413   4.263  0.3777  0.2176 -0.9950
  153SAPE  H18R16942   6.174   4.358   4.302 -0.8172 -1.4350 -0.5069
  153SAPE  H18S16943   6.110   4.473   4.173  0.1111  0.3631 -0.9711
  153SAPE  C21916944   5.997   4.288   4.218 -1.0257 -0.5038  0.4152
  153SAPE  H19R16945   5.893   4.304   4.183 -1.2070 -1.8259  0.2762
  153SAPE  H19S16946   5.982   4.224   4.308  0.3334  0.9078  1.6985
  153SAPE  C22016947   6.064   4.204   4.113 -0.3695 -0.3428  0.3394
  153SAPE  H20R16948   6.172   4.186   4.134  0.6892  2.5532 -1.8646
  153SAPE  H20S16949   6.058   4.251   4.012  3.2040  0.6850  0.4646
  153SAPE  H20T16950   6.012   4.106   4.107  0.6988 -0.9993  1.3144
  153SAPE   C3316951   5.804   3.593   5.832 -0.6964  0.2437  0.3063
  153SAPE   H3X16952   5.755   3.691   5.849 -2.0326 -0.6474  1.8352
  153SAPE   H3Y16953   5.728   3.524   5.790 -1.4866  0.6986  0.9469
  153SAPE   C3416954   5.925   3.615   5.733  0.6804 -0.4572  0.1906
  153SAPE   H4X16955   5.982   3.520   5.729  2.3634  0.5134  0.3786
  153SAPE   H4Y16956   5.994   3.695   5.767 -1.2153  1.0498  0.6566
  153SAPE   C3516957   5.876   3.655   5.587 -0.2834 -0.3578 -0.3462
  153SAPE   H5X16958   5.797   3.583   5.557 -0.4199 -0.5836  0.5391
  153SAPE   H5Y16959   5.959   3.649   5.513 -0.0065 -2.1537  0.0662
  153SAPE   C3616960   5.830   3.797   5.593  0.8863  0.2479 -0.1215
  153SAPE   H6X16961   5.894   3.854   5.664 -1.8858  1.9214  1.1926
  153SAPE   H6Y16962   5.727   3.789   5.635 -0.3106 -2.5792 -3.1832
  153SAPE   C3716963   5.827   3.872   5.461  0.7583 -0.6627 -0.1571
  153SAPE   H7X16964   5.930   3.896   5.428  0.4245  2.2650  0.7136
  153SAPE   H7Y16965   5.763   3.963   5.464  0.2035 -1.0560  0.1947
  153SAPE   C3816966   5.765   3.804   5.332  0.1638  0.6948 -0.6505
  153SAPE   H8X16967   5.656   3.783   5.340  0.5946 -1.0230  1.9906
  153SAPE   H8Y16968   5.810   3.703   5.316 -0.0866  0.0566  2.1694
  153SAPE   C3916969   5.772   3.884   5.207  0.0034 -0.6718 -0.1886
  153SAPE   H9X16970   5.881   3.891   5.186  0.5575 -1.7112  2.0402
  153SAPE   H9Y16971   5.750   3.991   5.224  2.2999 -0.0934 -0.5935
  153SAPE  C31016972   5.687   3.837   5.084  0.3074 -0.4485  0.3102
  153SAPE  H10X16973   5.578   3.844   5.105  0.2228 -1.5583  0.2974
  153SAPE  H10Y16974   5.721   3.735   5.056  1.0023 -0.1952  0.2282
  153SAPE  C31116975   5.708   3.927   4.967 -0.3157 -0.2831 -0.3553
  153SAPE  H11X16976   5.818   3.923   4.950  0.0055 -0.5206  1.5322
  153SAPE  H11Y16977   5.681   4.033   4.984 -2.6499 -0.5225 -2.0544
  153SAPE  C31216978   5.645   3.896   4.832 -0.4625 -0.4069 -0.1493
  153SAPE  H12X16979   5.544   3.943   4.835  0.1613  0.9406  0.9712
  153SAPE  H12Y16980   5.648   3.786   4.816  0.0327 -0.4220  0.0372
  153SAPE  C31316981   5.723   3.967   4.715 -0.3510  0.7846 -0.7483
  153SAPE  H13X16982   5.822   3.916   4.716 -0.1990  1.0788 -0.4762
  153SAPE  H13Y16983   5.739   4.076   4.731 -1.4914  0.9106 -0.3922
  153SAPE  C31416984   5.660   3.941   4.580 -0.2480  0.6120  0.4147
  153SAPE  H14X16985   5.582   4.016   4.553  0.5766  0.6540 -2.0820
  153SAPE  H14Y16986   5.605   3.845   4.586 -0.3760  0.4459 -2.3059
  153SAPE  C31516987   5.758   3.925   4.466  0.5603 -0.3348  0.4508
  153SAPE  H15X16988   5.827   3.840   4.486  1.5719  0.1503 -0.8060
  153SAPE  H15Y16989   5.813   4.020   4.446 -0.6221  0.0702 -1.0442
  153SAPE  C31616990   5.698   3.881   4.332  0.5244  0.4624  0.2988
  153SAPE  H16X16991   5.657   3.972   4.285  0.9936  0.9663  0.8581
  153SAPE  H16Y16992   5.616   3.808   4.351  0.0529  0.3437 -1.9265
  153SAPE  C31716993   5.800   3.824   4.229  0.3522  0.9929  0.4979
  153SAPE  H17X16994   5.845   3.730   4.269  0.3656  0.0159 -1.7075
  153SAPE  H17Y16995   5.882   3.899   4.225  0.0636  1.3150  0.5086
  153SAPE  C31816996   5.743   3.788   4.088  0.0270 -0.2601 -0.2983
  153SAPE  H18X16997   5.668   3.860   4.050 -0.2236  0.4857  1.5074
  153SAPE  H18Y16998   5.683   3.695   4.099 -2.1085  0.8840 -1.5534
  153SAPE  H18Z16999   5.828   3.766   4.020  0.9883 -0.5532  0.9560
  154SAPE     N17000   2.831   1.703   6.092 -0.0938 -0.3429  0.0615
  154SAPE   HN117001   2.818   1.750   6.184 -3.7686 -0.0090 -0.4693
  154SAPE   HN217002   2.812   1.601   6.093 -0.9726 -0.2833 -2.6230
  154SAPE   HN317003   2.930   1.723   6.064 -0.4999  0.4127 -0.9093
  154SAPE   C1217004   2.744   1.761   5.987 -0.4409 -0.8808 -0.2602
  154SAPE  H12A17005   2.642   1.757   6.032 -0.1590  0.6007  0.5903
  154SAPE  H12B17006   2.747   1.691   5.901  0.1975 -1.8497  0.5330
  154SAPE   C1117007   2.805   1.901   5.962  0.0019  0.0799 -0.1850
  154SAPE  H11A17008   2.748   1.943   5.876  1.3273  1.3240 -0.4988
  154SAPE  H11B17009   2.909   1.901   5.922  1.1712  0.2471  2.6081
  154SAPE     P17010   2.708   2.088   6.107 -0.2375 -0.1247 -0.2616
  154SAPE   O1317011   2.575   2.055   6.058 -0.3898 -0.4272  0.1786
  154SAPE   O1417012   2.711   2.148   6.243 -0.0388  0.0155  0.1382
  154SAPE   O1217013   2.809   1.969   6.093  0.0065 -0.2378  0.3646
  154SAPE   O1117014   2.764   2.191   6.011 -0.5227  0.0944 -0.1787
  154SAPE    C117015   2.714   2.327   6.009  0.2255  0.2993  0.7377
  154SAPE    HA17016   2.651   2.358   6.094  1.8824  0.0115  2.1216
  154SAPE    HB17017   2.796   2.401   6.021 -1.7245  2.6141  0.5857
  154SAPE    C217018   2.631   2.351   5.880 -0.1289 -0.1750  0.1719
  154SAPE    HS17019   2.544   2.283   5.882  0.2370 -0.6242  1.8767
  154SAPE   O2117020   2.720   2.320   5.769  0.6129 -0.2380 -0.2495
  154SAPE   C2117021   2.697   2.210   5.709 -0.2144  0.2944 -0.1164
  154SAPE   O2217022   2.610   2.127   5.730  0.1972 -0.0035 -0.1718
  154SAPE   C2217023   2.790   2.204   5.592  0.1373 -0.3153 -0.7226
  154SAPE   H2R17024   2.889   2.233   5.635 -0.6267 -2.0109  2.4525
  154SAPE   H2S17025   2.798   2.100   5.553 -1.1502 -0.2959 -1.0859
  154SAPE    C317026   2.577   2.494   5.858  0.1788 -0.0303 -0.5470
  154SAPE    HX17027   2.666   2.559   5.856  1.1861 -1.3339  0.2395
  154SAPE    HY17028   2.524   2.525   5.951 -0.7040 -1.8409 -0.3984
  154SAPE   O3117029   2.511   2.519   5.738 -0.3062  0.0728  0.0577
  154SAPE   C3117030   2.377   2.499   5.748  0.1558 -0.2522 -0.0968
  154SAPE   O3217031   2.320   2.453   5.852  0.0533  0.5965  0.3606
  154SAPE   C3217032   2.307   2.526   5.612 -0.5528  0.7678 -0.3513
  154SAPE   H2X17033   2.381   2.566   5.540  1.4503 -1.9015  0.0735
  154SAPE   H2Y17034   2.245   2.612   5.647  0.6340  1.3393  0.4319
  154SAPE   C2317035   2.745   2.291   5.477 -0.1826 -0.3343  0.0732
  154SAPE   H3R17036   2.710   2.388   5.520  1.0697  0.5449 -0.8187
  154SAPE   H3S17037   2.668   2.250   5.407  2.6171 -1.3866 -2.6357
  154SAPE   C2417038   2.867   2.323   5.391  0.1432  0.0800 -0.2422
  154SAPE   H4R17039   2.959   2.349   5.448  1.9506 -2.7837 -1.6246
  154SAPE   H4S17040   2.851   2.408   5.323 -1.4035  0.6011  0.7154
  154SAPE   C2517041   2.905   2.211   5.296 -0.0164 -0.1747 -0.1323
  154SAPE   H5R17042   2.857   2.115   5.320 -0.4334  0.1360  0.3093
  154SAPE   C2617043   3.007   2.212   5.210 -0.1927 -0.6882 -0.1645
  154SAPE   H6R17044   3.033   2.130   5.140 -1.2083  0.6646 -2.2456
  154SAPE   C2717045   3.083   2.337   5.184 -0.4790  0.3834  0.1575
  154SAPE   H7R17046   3.187   2.306   5.163 -0.6713 -0.4036  0.3208
  154SAPE   H7S17047   3.086   2.406   5.271  0.4136  0.5099  0.0316
  154SAPE   C2817048   3.029   2.402   5.049  0.0465 -0.4875  0.0182
  154SAPE   H8R17049   2.960   2.487   5.063  0.2992  0.3040 -2.8727
  154SAPE   C2917050   3.054   2.372   4.923 -0.0818 -0.2784 -0.1851
  154SAPE   H9R17051   3.019   2.440   4.844 -1.1458  0.0149  0.5226
  154SAPE  C21017052   3.149   2.268   4.873  0.0454  0.8168  0.1455
  154SAPE  H10R17053   3.094   2.216   4.792  0.8919  0.9919 -0.5493
  154SAPE  H10S17054   3.172   2.198   4.956 -2.4752  2.5164  2.5023
  154SAPE  C21117055   3.274   2.337   4.818  0.2690 -0.0245 -0.4968
  154SAPE  H11R17056   3.289   2.440   4.855 -0.3712 -0.4247  0.9285
  154SAPE  C21217057   3.364   2.273   4.739 -0.2937  0.4009  0.3086
  154SAPE  H12R17058   3.458   2.325   4.716  0.3731 -0.4894  0.9197
  154SAPE  C21317059   3.355   2.135   4.682 -0.6419 -0.1692 -0.7686
  154SAPE  H13R17060   3.311   2.157   4.582  2.3170  0.6540 -1.9974
  154SAPE  H13S17061   3.278   2.074   4.734  0.3839 -0.4132  0.5064
  154SAPE  C21417062   3.489   2.067   4.676  0.1398 -0.3128 -0.2670
  154SAPE  H14R17063   3.526   1.997   4.752  0.5078  0.6652  0.4769
  154SAPE  C21517064   3.576   2.076   4.566 -0.1158 -0.0972 -0.3691
  154SAPE  H15R17065   3.668   2.015   4.574  0.2908  0.6308  0.8722
  154SAPE  C21617066   3.554   2.139   4.429  1.5196  0.2184  0.7152
  154SAPE  H16R17067   3.651   2.166   4.381  0.6203  1.2043 -0.6216
  154SAPE  H16S17068   3.501   2.236   4.440 -0.7364 -0.5875 -2.0153
  154SAPE  C21717069   3.474   2.048   4.331  0.0447  0.3352  0.5724
  154SAPE  H17R17070   3.388   2.000   4.382  1.3951 -0.7607  1.9011
  154SAPE  H17S17071   3.534   1.965   4.289 -0.5218  0.2610 -0.0987
  154SAPE  C21817072   3.419   2.131   4.218 -0.3421 -0.4055  0.5811
  154SAPE  H18R17073   3.504   2.169   4.157  0.0131 -1.1367  0.6067
  154SAPE  H18S17074   3.379   2.226   4.260 -0.5194 -0.2892  0.1508
  154SAPE  C21917075   3.321   2.053   4.126  0.7722  0.3138 -0.5567
  154SAPE  H19R17076   3.236   2.007   4.180  1.0968 -1.5733 -1.5717
  154SAPE  H19S17077   3.379   1.966   4.089 -0.9265 -0.2924 -1.9471
  154SAPE  C22017078   3.269   2.124   4.007  0.5395 -0.2393  0.3131
  154SAPE  H20R17079   3.225   2.221   4.040  0.3154 -0.1683 -0.1879
  154SAPE  H20S17080   3.191   2.065   3.955 -2.3374  1.8088  1.9772
  154SAPE  H20T17081   3.353   2.150   3.939  0.4617  0.5236  0.4902
  154SAPE   C3317082   2.235   2.407   5.558  0.1313  0.0510  1.1541
  154SAPE   H3X17083   2.155   2.439   5.488 -0.7243 -1.7018  1.2650
  154SAPE   H3Y17084   2.177   2.341   5.626 -0.8467 -0.7472 -0.3899
  154SAPE   C3417085   2.320   2.320   5.455 -0.0679  0.0476 -0.0599
  154SAPE   H4X17086   2.268   2.224   5.437 -0.8686  0.4309  0.1578
  154SAPE   H4Y17087   2.427   2.309   5.486  0.8034  2.9482 -1.6369
  154SAPE   C3517088   2.329   2.379   5.314 -0.0194  0.2134 -0.1372
  154SAPE   H5X17089   2.351   2.488   5.321 -3.3229  1.4005 -3.8788
  154SAPE   H5Y17090   2.226   2.378   5.272 -0.3499 -1.2474  0.6841
  154SAPE   C3617091   2.413   2.300   5.212  0.7564  0.3958  0.0635
  154SAPE   H6X17092   2.373   2.199   5.235 -1.1404  1.3172  1.0998
  154SAPE   H6Y17093   2.522   2.302   5.230  0.7180  1.0398  0.2467
  154SAPE   C3717094   2.391   2.347   5.067  0.0353  0.1477  0.5048
  154SAPE   H7X17095   2.281   2.357   5.050  0.0701 -0.8462 -0.4199
  154SAPE   H7Y17096   2.419   2.264   4.999  1.2072  0.9832 -0.0739
  154SAPE   C3817097   2.474   2.469   5.033 -0.0304 -0.2609 -0.2852
  154SAPE   H8X17098   2.458   2.534   5.122 -2.6494  0.1370 -0.9507
  154SAPE   H8Y17099   2.445   2.523   4.940 -0.1736  2.7114  1.3484
  154SAPE   C3917100   2.625   2.455   5.018 -0.0536  0.5329  0.5438
  154SAPE   H9X17101   2.666   2.416   5.114 -0.2622  0.0466  0.4347
  154SAPE   H9Y17102   2.666   2.555   4.991  1.8506 -0.0941  0.9140
  154SAPE  C31017103   2.662   2.365   4.895  0.0928 -0.2690  0.1202
  154SAPE  H10X17104   2.602   2.272   4.905  1.9970 -1.5915 -0.1967
  154SAPE  H10Y17105   2.770   2.342   4.906  0.7658  1.7593 -1.6564
  154SAPE  C31117106   2.657   2.440   4.762  0.3315  0.4630  0.3721
  154SAPE  H11X17107   2.737   2.517   4.768 -0.3479  1.0972  2.5246
  154SAPE  H11Y17108   2.562   2.498   4.755 -1.1474 -1.9497 -0.4553
  154SAPE  C31217109   2.681   2.359   4.636  0.2554  0.3956  0.3001
  154SAPE  H12X17110   2.788   2.333   4.622  0.9873  2.2130  2.0708
  154SAPE  H12Y17111   2.659   2.423   4.547  3.5301  2.2084  0.6328
  154SAPE  C31317112   2.595   2.232   4.623 -0.4046  0.8754 -0.4708
  154SAPE  H13X17113   2.488   2.246   4.646 -0.4748 -1.1873  0.7245
  154SAPE  H13Y17114   2.643   2.171   4.703  0.2397 -0.8473 -2.0958
  154SAPE  C31417115   2.604   2.155   4.496 -0.3778 -0.1172  0.0912
  154SAPE  H14X17116   2.708   2.136   4.462 -0.5425 -1.2008  0.1562
  154SAPE  H14Y17117   2.562   2.214   4.412  2.4780  0.9721 -0.7102
  154SAPE  C31517118   2.543   2.012   4.510 -0.7989  0.1447  0.4313
  154SAPE  H15X17119   2.437   2.011   4.542 -0.9461 -0.1100 -0.0467
  154SAPE  H15Y17120   2.599   1.956   4.588 -0.0328  1.3189  0.7575
  154SAPE  C31617121   2.543   1.927   4.378 -0.5606  0.0348 -0.1802
  154SAPE  H16X17122   2.528   1.821   4.410  0.7208  0.4358  1.9311
  154SAPE  H16Y17123   2.639   1.941   4.324 -0.3115 -0.4635  0.1239
  154SAPE  C31717124   2.433   1.967   4.276  0.0003 -0.2690 -0.1257
  154SAPE  H17X17125   2.466   2.063   4.231 -0.7940 -1.2970 -3.1245
  154SAPE  H17Y17126   2.343   1.976   4.341 -1.0892 -3.3781 -1.0069
  154SAPE  C31817127   2.420   1.854   4.177  0.7802  0.2488 -0.0549
  154SAPE  H18X17128   2.514   1.817   4.130  1.5638  2.2246 -0.1222
  154SAPE  H18Y17129   2.354   1.887   4.093  1.1102 -0.0702 -0.4432
  154SAPE  H18Z17130   2.365   1.768   4.220  1.7149 -0.6933 -0.6964
  155SAPE     N17131   5.952   5.061   6.562 -0.4618  0.6787  0.0951
  155SAPE   HN117132   5.890   4.999   6.506  1.8277  1.9082 -4.2270
  155SAPE   HN217133   5.960   5.033   6.662 -1.6723  1.6970  0.5002
  155SAPE   HN317134   5.906   5.154   6.565  0.6467  1.2901 -1.0273
  155SAPE   C1217135   6.091   5.076   6.507  0.1352  0.0468  0.0456
  155SAPE  H12A17136   6.118   4.968   6.496 -0.9610 -0.0552 -2.2108
  155SAPE  H12B17137   6.172   5.122   6.568 -0.6177  1.5970 -0.0911
  155SAPE   C1117138   6.077   5.123   6.360 -0.3219  0.3581  0.4852
  155SAPE  H11A17139   6.180   5.155   6.332 -0.1692  0.1522  0.8109
  155SAPE  H11B17140   6.002   5.205   6.354 -3.3581 -2.2836 -0.2846
  155SAPE     P17141   5.902   4.964   6.238 -0.1379  0.1952  0.3893
  155SAPE   O1317142   5.900   4.885   6.114 -0.2914 -0.2725 -0.5493
  155SAPE   O1417143   5.855   4.892   6.353  0.0231 -0.2173  0.4790
  155SAPE   O1217144   6.042   5.023   6.271 -0.0999  0.2354  0.3970
  155SAPE   O1117145   5.814   5.089   6.217 -0.2648  0.5394  0.7982
  155SAPE    C117146   5.675   5.087   6.197 -0.0862  0.6364 -0.1895
  155SAPE    HA17147   5.627   4.990   6.223  1.9246 -0.9816 -2.1645
  155SAPE    HB17148   5.630   5.162   6.266  0.2632 -1.9383  3.0595
  155SAPE    C217149   5.634   5.136   6.053  0.0594  0.1391 -0.7739
  155SAPE    HS17150   5.525   5.157   6.055 -0.4781 -2.1648 -2.1185
  155SAPE   O2117151   5.677   5.042   5.954  0.2646 -0.3810 -0.4918
  155SAPE   C2117152   5.591   4.938   5.952 -0.0400  0.3255 -0.2958
  155SAPE   O2217153   5.475   4.937   5.989 -0.1770 -0.0582  0.0893
  155SAPE   C2217154   5.666   4.818   5.881 -0.4574 -0.3424 -0.5341
  155SAPE   H2R17155   5.736   4.861   5.806 -2.0755  0.5512 -1.5810
  155SAPE   H2S17156   5.733   4.770   5.955  1.4965 -0.9675 -2.5913
  155SAPE    C317157   5.719   5.273   6.030  0.2899  0.1696 -0.1882
  155SAPE    HX17158   5.816   5.240   5.987  0.2702  0.1059 -0.1827
  155SAPE    HY17159   5.738   5.321   6.128 -2.5511 -0.1866  0.6099
  155SAPE   O3117160   5.660   5.359   5.934  0.7244  0.3572 -0.2993
  155SAPE   C3117161   5.570   5.445   5.980  0.2690 -0.0003  0.2143
  155SAPE   O3217162   5.535   5.456   6.096  0.5174 -0.4135  0.4800
  155SAPE   C3217163   5.523   5.535   5.869  0.1719  0.1927 -0.5339
  155SAPE   H2X17164   5.581   5.629   5.881  1.1066 -0.5469  0.9910
  155SAPE   H2Y17165   5.416   5.563   5.871 -0.1257 -0.7348 -1.9396
  155SAPE   C2317166   5.563   4.719   5.823  0.5939  0.5779 -0.0104
  155SAPE   H3R17167   5.511   4.759   5.733 -0.5776 -0.0258  0.3773
  155SAPE   H3S17168   5.490   4.688   5.900 -0.3887 -0.4054 -1.2908
  155SAPE   C2417169   5.615   4.575   5.780 -0.0715  0.2359 -1.1441
  155SAPE   H4R17170   5.536   4.507   5.742  1.3669 -2.5238  0.5188
  155SAPE   H4S17171   5.652   4.524   5.871  1.2678  1.2305 -1.1109
  155SAPE   C2517172   5.737   4.587   5.693  0.3112  0.5859 -0.6791
  155SAPE   H5R17173   5.833   4.580   5.747 -0.6670 -2.2367  0.8971
  155SAPE   C2617174   5.737   4.605   5.562 -0.2699 -0.0550  0.3391
  155SAPE   H6R17175   5.835   4.611   5.512  0.4315  2.7280  1.7992
  155SAPE   C2717176   5.611   4.612   5.480  0.4735  0.4270 -0.0301
  155SAPE   H7R17177   5.522   4.580   5.539  0.8798 -0.9738 -0.1439
  155SAPE   H7S17178   5.613   4.545   5.392  0.8737 -0.8911  0.9558
  155SAPE   C2817179   5.580   4.748   5.430  0.5292 -0.7382  0.3325
  155SAPE   H8R17180   5.525   4.813   5.500 -2.9457 -0.7291 -2.1377
  155SAPE   C2917181   5.627   4.800   5.311  0.4101 -0.2960  0.2027
  155SAPE   H9R17182   5.594   4.901   5.281  0.9352 -0.3288 -0.5403
  155SAPE  C21017183   5.715   4.729   5.211  0.8131  0.0886 -0.0721
  155SAPE  H10R17184   5.650   4.655   5.159  1.3423 -1.3885  1.2475
  155SAPE  H10S17185   5.790   4.667   5.266  0.1027 -0.2519  0.5418
  155SAPE  C21117186   5.772   4.821   5.109  0.3026 -0.1274  0.1993
  155SAPE  H11R17187   5.856   4.880   5.148 -0.2152  1.1186 -0.5315
  155SAPE  C21217188   5.722   4.836   4.980  0.4193 -0.4557 -0.4178
  155SAPE  H12R17189   5.778   4.894   4.905  2.2597 -3.0317 -1.1817
  155SAPE  C21317190   5.609   4.762   4.920  0.0054  0.3783  0.5201
  155SAPE  H13R17191   5.530   4.750   4.997  0.2571 -0.4272  0.6633
  155SAPE  H13S17192   5.643   4.658   4.902 -1.3765 -0.0226  0.0988
  155SAPE  C21417193   5.549   4.825   4.792  0.0544 -0.2570  0.5871
  155SAPE  H14R17194   5.475   4.905   4.807 -0.3905 -0.0731 -2.2013
  155SAPE  C21517195   5.583   4.805   4.664  0.2644 -0.4828 -0.2957
  155SAPE  H15R17196   5.536   4.858   4.581  0.4798  0.6189  0.2649
  155SAPE  C21617197   5.697   4.713   4.627 -0.2156  0.3710 -0.1824
  155SAPE  H16R17198   5.659   4.649   4.545 -1.0674 -0.1154  0.5742
  155SAPE  H16S17199   5.732   4.645   4.708 -2.1035 -1.6112 -0.9606
  155SAPE  C21717200   5.821   4.789   4.575  0.3284  0.2982 -0.4680
  155SAPE  H17R17201   5.899   4.712   4.553 -0.6461 -0.6451 -0.6864
  155SAPE  H17S17202   5.856   4.863   4.650 -1.5055  1.1619 -0.4204
  155SAPE  C21817203   5.790   4.850   4.435 -0.3087 -0.2904 -0.4468
  155SAPE  H18R17204   5.693   4.902   4.425 -1.0895 -1.7710 -0.9414
  155SAPE  H18S17205   5.787   4.773   4.354 -2.7514  1.1235 -1.8248
  155SAPE  C21917206   5.909   4.947   4.401  0.2512  0.6142 -0.3787
  155SAPE  H19R17207   6.000   4.896   4.439 -0.9051 -2.1089 -1.0146
  155SAPE  H19S17208   5.886   5.033   4.467 -1.2793  0.3522 -0.5467
  155SAPE  C22017209   5.921   4.966   4.255 -0.0671  0.1270  0.4347
  155SAPE  H20R17210   5.999   5.042   4.233  1.4172 -1.6934 -0.9849
  155SAPE  H20S17211   5.827   4.992   4.203 -0.2276  1.4647  1.3708
  155SAPE  H20T17212   5.958   4.878   4.197 -1.0129  0.8311 -1.3051
  155SAPE   C3317213   5.526   5.472   5.727 -0.0047  0.2464  0.5644
  155SAPE   H3X17214   5.438   5.404   5.731 -0.5738  0.8778 -0.6585
  155SAPE   H3Y17215   5.616   5.410   5.704  0.1038  0.2875  0.8698
  155SAPE   C3417216   5.503   5.574   5.615 -0.4207  0.0228  0.4673
  155SAPE   H4X17217   5.589   5.644   5.613 -0.9377  0.7168  1.5200
  155SAPE   H4Y17218   5.418   5.644   5.628  0.5179  1.0063  1.6073
  155SAPE   C3517219   5.471   5.507   5.478  0.4259  0.1020 -0.0665
  155SAPE   H5X17220   5.387   5.434   5.477  0.3400  0.2066 -0.6299
  155SAPE   H5Y17221   5.559   5.445   5.450 -0.5324 -0.7125 -1.4105
  155SAPE   C3617222   5.462   5.614   5.373  0.1661  0.2305  0.0495
  155SAPE   H6X17223   5.537   5.694   5.391 -0.6508  0.8543  0.7425
  155SAPE   H6Y17224   5.365   5.669   5.372 -0.1980 -0.4058  0.3194
  155SAPE   C3717225   5.498   5.548   5.237  1.0002 -0.6506 -0.1707
  155SAPE   H7X17226   5.418   5.472   5.222 -1.3359  1.7745 -0.8748
  155SAPE   H7Y17227   5.592   5.492   5.257  0.6361 -0.2946  3.0619
  155SAPE   C3817228   5.497   5.640   5.112 -0.2006  0.4029 -0.4409
  155SAPE   H8X17229   5.591   5.699   5.109  0.7198 -1.0288 -0.6239
  155SAPE   H8Y17230   5.417   5.716   5.111  1.0111  1.7303  0.0649
  155SAPE   C3917231   5.490   5.560   4.988 -0.3214  0.3071 -0.4187
  155SAPE   H9X17232   5.397   5.499   4.985 -2.1273  2.8394  0.3585
  155SAPE   H9Y17233   5.571   5.486   5.000 -1.8439 -1.2836  0.4585
  155SAPE  C31017234   5.492   5.646   4.861  0.1287 -0.2348  0.2555
  155SAPE  H10X17235   5.574   5.720   4.869  0.3248 -0.3553 -0.5565
  155SAPE  H10Y17236   5.392   5.695   4.856  1.2669  2.3021  0.8665
  155SAPE  C31117237   5.513   5.557   4.742 -0.1225  0.3928 -0.2013
  155SAPE  H11X17238   5.441   5.473   4.734 -0.4912  0.4896  1.6472
  155SAPE  H11Y17239   5.618   5.520   4.739  0.1767  0.9042  2.1679
  155SAPE  C31217240   5.504   5.638   4.604 -0.0808  0.0110  0.2169
  155SAPE  H12X17241   5.600   5.692   4.592  0.0382  0.2212  1.8825
  155SAPE  H12Y17242   5.416   5.705   4.605 -1.0704 -1.2030  2.2926
  155SAPE  C31317243   5.478   5.549   4.484  0.4841  0.0821  0.9654
  155SAPE  H13X17244   5.373   5.516   4.500 -0.0507  0.5576 -1.2375
  155SAPE  H13Y17245   5.556   5.470   4.496  2.1240  1.8287  2.6338
  155SAPE  C31417246   5.491   5.644   4.360  0.3914  0.6477 -0.1496
  155SAPE  H14X17247   5.600   5.654   4.340  0.5116 -0.1853  0.0718
  155SAPE  H14Y17248   5.458   5.748   4.380 -0.5087  0.4911 -0.7463
  155SAPE  C31517249   5.441   5.588   4.222 -0.0727 -0.5596  0.7614
  155SAPE  H15X17250   5.441   5.477   4.235  2.7922 -0.8744 -1.0589
  155SAPE  H15Y17251   5.512   5.604   4.138 -1.2594 -1.4949 -0.4751
  155SAPE  C31617252   5.305   5.639   4.180 -0.3796 -0.0165  0.2271
  155SAPE  H16X17253   5.323   5.745   4.155 -1.6401  0.7420  2.2562
  155SAPE  H16Y17254   5.238   5.639   4.269 -2.7426  2.1607 -1.4044
  155SAPE  C31717255   5.251   5.563   4.053  0.1420  0.3175 -0.0689
  155SAPE  H17X17256   5.258   5.453   4.066 -0.5405  0.1726 -0.8216
  155SAPE  H17Y17257   5.323   5.580   3.970  0.4930  0.1826  0.2067
  155SAPE  C31817258   5.114   5.602   4.009  0.1360  0.0713  0.8550
  155SAPE  H18X17259   5.112   5.713   3.996 -0.0167  0.0831  0.9853
  155SAPE  H18Y17260   5.034   5.561   4.073 -1.6978 -1.5348 -2.2076
  155SAPE  H18Z17261   5.078   5.557   3.914 -1.0092  0.7338  0.9454
  156SAPE     N17262   2.624   0.459   6.088 -0.7391 -0.1484  0.4946
  156SAPE   HN117263   2.563   0.427   6.166  0.1906  1.0868  1.7759
  156SAPE   HN217264   2.716   0.411   6.093 -0.9835 -0.8965 -1.3489
  156SAPE   HN317265   2.635   0.562   6.092 -0.5301 -0.0834 -1.1359
  156SAPE   C1217266   2.561   0.416   5.963 -0.0680 -1.0190  0.2677
  156SAPE  H12A17267   2.627   0.451   5.881  0.0616 -1.5028  0.1642
  156SAPE  H12B17268   2.464   0.471   5.956  0.2534 -0.1195  2.3752
  156SAPE   C1117269   2.539   0.263   5.958 -0.1330 -1.1077  0.0752
  156SAPE  H11A17270   2.642   0.224   5.973  1.6766  3.2333  0.3860
  156SAPE  H11B17271   2.494   0.221   5.866  1.6550 -0.9414 -0.9219
  156SAPE     P17272   2.356   0.256   6.167 -0.2024 -0.0058 -0.1192
  156SAPE   O1317273   2.287   0.136   6.225 -0.1210  0.2895 -0.4051
  156SAPE   O1417274   2.420   0.349   6.267  0.4467  0.4149 -0.1509
  156SAPE   O1217275   2.471   0.213   6.073 -0.4062 -0.4003 -0.7559
  156SAPE   O1117276   2.257   0.342   6.077 -0.2039 -0.0971  0.4656
  156SAPE    C117277   2.133   0.400   6.126  0.0444 -0.4579 -0.6243
  156SAPE    HA17278   2.116   0.387   6.235 -0.3432  0.0093 -0.6264
  156SAPE    HB17279   2.134   0.509   6.110 -0.3768 -0.2966  0.3601
  156SAPE    C217280   2.011   0.348   6.044 -0.0028 -0.0218  0.7861
  156SAPE    HS17281   2.001   0.239   6.062 -1.1026  0.0311  0.5715
  156SAPE   O2117282   2.037   0.385   5.905 -0.1632  0.2370 -0.6388
  156SAPE   C2117283   2.084   0.296   5.825 -0.5801 -0.6770 -0.0880
  156SAPE   O2217284   2.097   0.178   5.843  0.1486 -0.2966  0.1355
  156SAPE   C2217285   2.120   0.375   5.689  0.0491  0.1414 -0.1068
  156SAPE   H2R17286   2.111   0.310   5.600  0.4295  0.4004 -0.3395
  156SAPE   H2S17287   2.059   0.468   5.677  0.7607  0.4222 -1.8764
  156SAPE    C317288   1.875   0.412   6.085 -0.2184 -0.3557  0.4376
  156SAPE    HX17289   1.884   0.522   6.073 -3.7502 -0.1417 -1.8412
  156SAPE    HY17290   1.849   0.399   6.192 -0.1600 -1.1661  0.3570
  156SAPE   O3117291   1.769   0.369   5.993 -0.5673  0.0117 -0.4715
  156SAPE   C3117292   1.682   0.285   6.040  0.1714 -0.2127  0.2178
  156SAPE   O3217293   1.668   0.249   6.156  0.1511  0.0488  0.0823
  156SAPE   C3217294   1.592   0.247   5.918  0.3883 -0.5727  0.1946
  156SAPE   H2X17295   1.545   0.341   5.881 -0.7598 -0.1602  2.5177
  156SAPE   H2Y17296   1.519   0.168   5.943 -1.5664  0.8108 -0.8425
  156SAPE   C2317297   2.265   0.426   5.674 -0.7682 -0.4575  1.3271
  156SAPE   H3R17298   2.341   0.345   5.684  1.1027  0.7622 -1.6542
  156SAPE   H3S17299   2.283   0.512   5.741 -1.9953  0.3529  0.6645
  156SAPE   C2417300   2.288   0.481   5.528  0.1146  0.0903 -0.6230
  156SAPE   H4R17301   2.281   0.402   5.451 -0.8186  0.3134 -0.7790
  156SAPE   H4S17302   2.394   0.515   5.524  0.1347  0.1477  0.2144
  156SAPE   C2517303   2.175   0.580   5.484 -0.6800  0.0757 -0.7203
  156SAPE   H5R17304   2.169   0.672   5.543 -1.7543  1.4357 -2.8003
  156SAPE   C2617305   2.083   0.567   5.384  0.9686  0.8823 -0.0179
  156SAPE   H6R17306   2.006   0.645   5.375  0.5663  0.7127  1.6062
  156SAPE   C2717307   2.084   0.460   5.273 -0.0017  0.2464 -1.3091
  156SAPE   H7R17308   1.979   0.452   5.238 -0.9692  0.7584  1.2809
  156SAPE   H7S17309   2.122   0.366   5.319  1.9542  1.1871 -0.9126
  156SAPE   C2817310   2.183   0.489   5.164 -1.3364  0.6412 -0.5254
  156SAPE   H8R17311   2.283   0.525   5.195 -1.8669  1.4088  0.3211
  156SAPE   C2917312   2.157   0.482   5.035  0.4412  0.2209  1.1680
  156SAPE   H9R17313   2.245   0.505   4.973  0.7269 -2.4784  0.4305
  156SAPE  C21017314   2.031   0.441   4.958 -0.1008 -0.1481 -0.4376
  156SAPE  H10R17315   1.946   0.428   5.028 -1.0775 -1.0809 -1.7448
  156SAPE  H10S17316   2.056   0.339   4.923 -1.6730  0.4775 -3.7530
  156SAPE  C21117317   1.997   0.522   4.835 -0.1153  0.0603 -0.2282
  156SAPE  H11R17318   1.900   0.571   4.819  0.2017  0.4479 -1.0423
  156SAPE  C21217319   2.084   0.536   4.730 -0.2512 -0.3633  0.6237
  156SAPE  H12R17320   2.037   0.584   4.643  0.2678  0.6092  0.8708
  156SAPE  C21317321   2.223   0.468   4.708  0.2947 -0.3275  0.3821
  156SAPE  H13R17322   2.256   0.408   4.795  1.5622 -1.2312 -0.6964
  156SAPE  H13S17323   2.299   0.549   4.699  1.4649 -1.2788  1.4767
  156SAPE  C21417324   2.198   0.383   4.582 -0.0989  0.5918  0.1537
  156SAPE  H14R17325   2.110   0.318   4.588  0.4566 -0.6136 -2.9673
  156SAPE  C21517326   2.253   0.392   4.460 -1.0379 -0.2096 -0.3250
  156SAPE  H15R17327   2.245   0.311   4.386  2.9624  0.5144 -1.7949
  156SAPE  C21617328   2.362   0.495   4.425 -0.2620 -0.1271 -0.4331
  156SAPE  H16R17329   2.414   0.521   4.520 -1.5468  1.6803 -0.1724
  156SAPE  H16S17330   2.318   0.591   4.392 -3.3568 -0.9588  0.8847
  156SAPE  C21717331   2.476   0.438   4.339 -0.1147  0.0578  0.6146
  156SAPE  H17R17332   2.507   0.344   4.389  2.7011  1.2024  1.2164
  156SAPE  H17S17333   2.567   0.501   4.348  1.4756 -1.9173 -0.5429
  156SAPE  C21817334   2.445   0.389   4.195 -0.3184  0.7194 -0.0997
  156SAPE  H18R17335   2.407   0.470   4.129 -1.8383 -1.4673 -2.0659
  156SAPE  H18S17336   2.376   0.302   4.183  1.0147 -0.2536 -0.9572
  156SAPE  C21917337   2.578   0.350   4.118 -0.2610  0.5476 -0.2505
  156SAPE  H19R17338   2.629   0.268   4.173 -0.8811  0.2174 -0.1505
  156SAPE  H19S17339   2.638   0.442   4.130 -0.1034  0.4889 -0.5747
  156SAPE  C22017340   2.554   0.300   3.971 -0.2687  0.2368 -0.3771
  156SAPE  H20R17341   2.510   0.380   3.908 -1.2554 -1.2897 -1.7026
  156SAPE  H20S17342   2.485   0.213   3.970 -0.7542  0.6092 -1.2102
  156SAPE  H20T17343   2.647   0.261   3.925 -0.3640  0.1465 -0.4940
  156SAPE   C3317344   1.672   0.197   5.794  0.1533  0.9144 -0.3046
  156SAPE   H3X17345   1.752   0.267   5.762  0.1809  0.6429 -0.8567
  156SAPE   H3Y17346   1.606   0.179   5.706 -0.0512 -0.1849  0.0545
  156SAPE   C3417347   1.745   0.061   5.843 -0.5654 -1.1218  0.2891
  156SAPE   H4X17348   1.676  -0.005   5.900 -2.1921  0.7043  0.5347
  156SAPE   H4Y17349   1.824   0.097   5.911 -2.1813 -1.3660  2.4077
  156SAPE   C3517350   1.808   0.000   5.722 -1.3987  0.5893 -0.8312
  156SAPE   H5X17351   1.889  -0.067   5.757 -0.0254  2.6952  0.2315
  156SAPE   H5Y17352   1.849   0.083   5.660  0.1606 -1.0163 -2.0498
  156SAPE   C3617353   1.720  -0.093   5.641  0.2403  0.0847 -0.3481
  156SAPE   H6X17354   1.628  -0.034   5.621  1.5031  1.6822 -1.6811
  156SAPE   H6Y17355   1.697  -0.188   5.694  1.0581 -0.5894 -1.1816
  156SAPE   C3717356   1.797  -0.124   5.504 -0.0916  0.5352  0.2539
  156SAPE   H7X17357   1.886  -0.185   5.530  0.1749 -0.0550 -1.8418
  156SAPE   H7Y17358   1.826  -0.023   5.468  0.0120  1.1495  1.9776
  156SAPE   C3817359   1.713  -0.210   5.409 -0.0144  0.1585 -0.6804
  156SAPE   H8X17360   1.612  -0.167   5.394 -0.1895  0.2622  0.6504
  156SAPE   H8Y17361   1.691  -0.311   5.450  0.4446  1.1162  2.1382
  156SAPE   C3917362   1.791  -0.222   5.277 -0.1961 -0.0886  0.5553
  156SAPE   H9X17363   1.875  -0.295   5.284 -0.7074 -0.8030 -0.4495
  156SAPE   H9Y17364   1.827  -0.127   5.233 -0.8830 -0.4796 -0.9375
  156SAPE  C31017365   1.693  -0.284   5.175 -0.3410  0.5942 -0.3046
  156SAPE  H10X17366   1.603  -0.219   5.182 -0.3797  0.3600  3.1553
  156SAPE  H10Y17367   1.651  -0.386   5.187  0.9851 -0.2539 -2.4398
  156SAPE  C31117368   1.754  -0.279   5.032  0.4443  0.5529 -0.1226
  156SAPE  H11X17369   1.851  -0.335   5.035 -0.6068 -1.4650 -1.4786
  156SAPE  H11Y17370   1.771  -0.175   4.996 -0.2931  1.1979  1.2985
  156SAPE  C31217371   1.652  -0.350   4.936 -0.2728 -0.2943 -0.3246
  156SAPE  H12X17372   1.566  -0.281   4.930  0.6163  0.7577 -1.6376
  156SAPE  H12Y17373   1.628  -0.448   4.985  1.0976 -0.7453 -0.5136
  156SAPE  C31317374   1.705  -0.370   4.791 -0.4399  0.1508 -0.6920
  156SAPE  H13X17375   1.642  -0.447   4.742  0.1049 -1.5136  1.1272
  156SAPE  H13Y17376   1.812  -0.400   4.798  0.3181  2.6569 -0.4730
  156SAPE  C31417377   1.709  -0.240   4.706  0.1053  0.8718  0.3914
  156SAPE  H14X17378   1.781  -0.170   4.755  0.9086 -0.1845  0.7731
  156SAPE  H14Y17379   1.604  -0.204   4.710 -0.6472 -0.8176 -1.9924
  156SAPE  C31517380   1.735  -0.274   4.553  0.1612  0.3424  0.4626
  156SAPE  H15X17381   1.707  -0.380   4.541  0.2750  0.3775 -0.1069
  156SAPE  H15Y17382   1.844  -0.265   4.535  0.0932 -1.4613 -1.0344
  156SAPE  C31617383   1.652  -0.187   4.448 -0.5931 -0.5226 -0.0973
  156SAPE  H16X17384   1.683  -0.084   4.473 -1.7073  0.2914 -1.8905
  156SAPE  H16Y17385   1.544  -0.197   4.470 -1.0360 -0.1827 -1.9510
  156SAPE  C31717386   1.700  -0.209   4.306  0.7241  1.0751 -0.1127
  156SAPE  H17X17387   1.649  -0.301   4.271  0.1826  2.1430 -2.3040
  156SAPE  H17Y17388   1.810  -0.224   4.304  0.6730  0.7352 -1.6355
  156SAPE  C31817389   1.645  -0.098   4.222 -0.0816 -0.2904  0.6326
  156SAPE  H18X17390   1.643  -0.109   4.112 -0.9771  1.2062  0.4689
  156SAPE  H18Y17391   1.704  -0.010   4.256  2.2111 -1.4930 -0.0463
  156SAPE  H18Z17392   1.543  -0.067   4.253  0.3090  0.2977  1.3813
  157SAPE     N17393   5.332   2.451   6.034  0.2342 -0.1104  0.0123
  157SAPE   HN117394   5.354   2.460   6.136 -2.3443 -1.4143  0.7554
  157SAPE   HN217395   5.235   2.486   6.023 -0.5059 -1.3484  2.0462
  157SAPE   HN317396   5.342   2.351   6.008  2.0794  0.4484 -1.7660
  157SAPE   C1217397   5.429   2.530   5.952 -0.3799  0.9782  0.0339
  157SAPE  H12A17398   5.423   2.628   6.003 -3.5247  0.9092  0.0281
  157SAPE  H12B17399   5.398   2.540   5.845 -2.0995 -1.7896  0.1927
  157SAPE   C1117400   5.565   2.457   5.968 -0.3779 -0.4669  0.0624
  157SAPE  H11A17401   5.654   2.501   5.917 -0.8036 -2.2642 -2.4158
  157SAPE  H11B17402   5.547   2.367   5.905  2.5578  0.3361 -2.1476
  157SAPE     P17403   5.657   2.541   6.198  0.1303  0.3095  0.1235
  157SAPE   O1317404   5.554   2.640   6.213  0.7228 -0.3043  0.1105
  157SAPE   O1417405   5.712   2.482   6.325  0.4711 -0.5596 -0.2357
  157SAPE   O1217406   5.605   2.429   6.104  1.0087 -0.2956  0.4351
  157SAPE   O1117407   5.786   2.608   6.127  0.2917 -0.1446 -0.4229
  157SAPE    C117408   5.879   2.528   6.069 -0.2086 -0.2022 -0.6529
  157SAPE    HA17409   5.886   2.426   6.113  2.2169  0.8932  1.7879
  157SAPE    HB17410   5.879   2.529   5.958  0.9530  1.5307 -0.6816
  157SAPE    C217411   6.020   2.577   6.123 -0.1231 -0.6972 -0.2507
  157SAPE    HS17412   6.006   2.596   6.231  1.6071 -1.4443  0.1289
  157SAPE   O2117413   6.047   2.691   6.047 -0.3135  0.0238  0.6023
  157SAPE   C2117414   6.100   2.795   6.110  0.5275 -0.6020  0.5529
  157SAPE   O2217415   6.125   2.806   6.228 -0.2081  0.6935 -0.3839
  157SAPE   C2217416   6.157   2.893   6.002  1.0087  0.3801  0.5302
  157SAPE   H2R17417   6.227   2.836   5.937  0.9614  0.7249  0.1762
  157SAPE   H2S17418   6.066   2.931   5.951 -0.4932 -1.2060  1.8874
  157SAPE    C317419   6.143   2.476   6.107  0.2505  0.9238  0.3494
  157SAPE    HX17420   6.115   2.389   6.170 -1.7901  1.2503 -0.0434
  157SAPE    HY17421   6.237   2.512   6.155  0.5236  0.0739  0.4666
  157SAPE   O3117422   6.157   2.423   5.972  0.2926 -0.0097  0.2129
  157SAPE   C3117423   6.237   2.503   5.899 -0.4907  0.5170 -0.4569
  157SAPE   O3217424   6.307   2.589   5.941  0.1400 -0.4110  0.3314
  157SAPE   C3217425   6.219   2.473   5.750 -0.2174  0.3295  0.0399
  157SAPE   H2X17426   6.128   2.410   5.740 -0.0674  0.2669 -1.0979
  157SAPE   H2Y17427   6.318   2.436   5.717 -1.0671  0.0195 -2.4312
  157SAPE   C2317428   6.225   3.007   6.068 -0.0353  0.2424 -0.9129
  157SAPE   H3R17429   6.309   2.954   6.117  2.2464  0.5034 -4.1830
  157SAPE   H3S17430   6.160   3.060   6.140 -0.7879  0.6071 -1.8284
  157SAPE   C2417431   6.281   3.114   5.973  0.3843 -0.1772 -0.6682
  157SAPE   H4R17432   6.345   3.067   5.895  2.2772 -2.1859  1.9306
  157SAPE   H4S17433   6.347   3.182   6.031  1.9466 -3.4895  1.7528
  157SAPE   C2517434   6.160   3.176   5.914 -0.4869 -0.0572 -0.9242
  157SAPE   H5R17435   6.087   3.214   5.987 -1.3072  0.6374 -2.0530
  157SAPE   C2617436   6.126   3.178   5.785 -0.7343 -0.0679  0.6163
  157SAPE   H6R17437   6.038   3.237   5.755  0.8818  0.8260 -2.8842
  157SAPE   C2717438   6.213   3.130   5.670 -0.2060 -0.2096 -0.0390
  157SAPE   H7R17439   6.257   3.032   5.697 -0.0456  0.0084  0.4958
  157SAPE   H7S17440   6.300   3.198   5.671  0.9580 -1.6463  1.0524
  157SAPE   C2817441   6.145   3.132   5.532 -0.1438 -0.1188 -0.4126
  157SAPE   H8R17442   6.115   3.035   5.492  1.2513 -0.6470 -0.2278
  157SAPE   C2917443   6.131   3.242   5.448 -0.7519  0.2942 -0.3467
  157SAPE   H9R17444   6.090   3.241   5.346  1.5487  2.6577 -1.4268
  157SAPE  C21017445   6.168   3.385   5.487 -0.4273  0.9658 -0.4975
  157SAPE  H10R17446   6.193   3.392   5.595 -2.1653 -1.5167  0.1512
  157SAPE  H10S17447   6.074   3.445   5.478 -0.2631  1.3149  0.0714
  157SAPE  C21117448   6.278   3.461   5.419  0.1166  0.2965  0.2955
  157SAPE  H11R17449   6.347   3.508   5.490 -0.8218  0.6328  1.0003
  157SAPE  C21217450   6.290   3.474   5.281 -0.0185 -0.1269 -0.5953
  157SAPE  H12R17451   6.381   3.524   5.243  0.5892 -1.7886 -1.4085
  157SAPE  C21317452   6.189   3.447   5.172 -0.0952  0.1960 -0.1827
  157SAPE  H13R17453   6.191   3.336   5.163  0.1111 -0.5479  5.5098
  157SAPE  H13S17454   6.234   3.497   5.083  0.3367  1.1798  0.5665
  157SAPE  C21417455   6.047   3.488   5.201 -0.4041 -0.0389  0.1916
  157SAPE  H14R17456   6.025   3.517   5.305 -2.1534 -0.1340 -0.1124
  157SAPE  C21517457   5.946   3.474   5.110 -0.2195  0.3031 -0.3052
  157SAPE  H15R17458   5.841   3.497   5.133  0.0697 -0.2382  1.6824
  157SAPE  C21617459   5.963   3.429   4.969  0.0144  0.2600 -0.6741
  157SAPE  H16R17460   5.955   3.318   4.974  1.5209  0.1302 -0.6411
  157SAPE  H16S17461   6.065   3.454   4.934  0.0863  0.1903 -0.5177
  157SAPE  C21717462   5.867   3.498   4.880 -0.2447 -0.3686 -0.2927
  157SAPE  H17R17463   5.861   3.605   4.911 -1.0914 -0.6699  0.6476
  157SAPE  H17S17464   5.763   3.460   4.885  0.4109 -2.2924 -0.7040
  157SAPE  C21817465   5.903   3.468   4.737  0.5601  0.7106 -0.2177
  157SAPE  H18R17466   5.933   3.361   4.736  1.5298  0.9333  1.5620
  157SAPE  H18S17467   6.001   3.515   4.715  0.8855 -0.4812 -1.4516
  157SAPE  C21917468   5.800   3.511   4.639 -0.2498 -0.2434  0.3604
  157SAPE  H19R17469   5.773   3.616   4.660 -1.0055 -0.2653 -0.4571
  157SAPE  H19S17470   5.710   3.447   4.652  0.2134 -0.7154  1.3997
  157SAPE  C22017471   5.853   3.494   4.493  0.1136 -0.5408 -0.5074
  157SAPE  H20R17472   5.894   3.393   4.475 -2.2098 -1.2857 -2.0515
  157SAPE  H20S17473   5.926   3.571   4.460 -0.1148 -0.8457 -1.8059
  157SAPE  H20T17474   5.768   3.504   4.422 -2.1032 -1.0193  1.9479
  157SAPE   C3317475   6.192   2.605   5.675  0.3343 -0.1838  0.4457
  157SAPE   H3X17476   6.221   2.590   5.568  2.7832 -0.2809  1.0553
  157SAPE   H3Y17477   6.272   2.674   5.709  0.3976  0.6279 -1.2155
  157SAPE   C3417478   6.063   2.682   5.694 -0.0203 -0.3680 -0.0883
  157SAPE   H4X17479   6.078   2.771   5.629 -0.3203 -0.6550 -0.5606
  157SAPE   H4Y17480   6.052   2.709   5.801  0.6683 -3.0493  0.7459
  157SAPE   C3517481   5.931   2.613   5.656  0.1754 -0.2087 -0.5913
  157SAPE   H5X17482   5.853   2.684   5.693 -1.3354 -1.4737 -1.2202
  157SAPE   H5Y17483   5.923   2.513   5.705 -1.5033  0.7566  1.2341
  157SAPE   C3617484   5.927   2.588   5.503  0.0465 -0.8923  0.0021
  157SAPE   H6X17485   6.018   2.530   5.477 -0.4635 -1.3317 -0.8057
  157SAPE   H6Y17486   5.928   2.687   5.453  0.7220 -0.1974  1.3206
  157SAPE   C3717487   5.798   2.509   5.456  0.3962  0.3999 -0.6903
  157SAPE   H7X17488   5.710   2.549   5.510  1.8538  1.2262  1.1909
  157SAPE   H7Y17489   5.816   2.406   5.493  0.2336  1.2418  1.9687
  157SAPE   C3817490   5.776   2.505   5.306 -0.4866  0.1686 -0.2613
  157SAPE   H8X17491   5.735   2.600   5.265  0.0065  1.2175  1.5782
  157SAPE   H8Y17492   5.696   2.430   5.294 -0.4688 -0.1278  1.2968
  157SAPE   C3917493   5.895   2.449   5.224  0.0541  0.0334  0.2511
  157SAPE   H9X17494   5.928   2.353   5.269 -1.7741  0.1978  2.0761
  157SAPE   H9Y17495   5.972   2.528   5.236 -1.9285  2.1490 -0.2771
  157SAPE  C31017496   5.866   2.422   5.073 -0.5069 -0.0376  0.1973
  157SAPE  H10X17497   5.773   2.364   5.054 -0.3139 -0.6201  0.9845
  157SAPE  H10Y17498   5.949   2.358   5.037 -0.9342  0.2396 -1.3541
  157SAPE  C31117499   5.883   2.547   4.986  0.3118 -0.2686  0.9882
  157SAPE  H11X17500   5.968   2.607   5.025 -0.0516  0.1071  1.2178
  157SAPE  H11Y17501   5.796   2.615   5.000  0.0526 -0.1912 -0.7323
  157SAPE  C31217502   5.901   2.513   4.836  0.9282 -0.2130 -0.2807
  157SAPE  H12X17503   5.817   2.457   4.791 -0.1174  0.0299  1.2768
  157SAPE  H12Y17504   5.978   2.432   4.837  1.5170  0.3190  1.2465
  157SAPE  C31317505   5.942   2.633   4.756  0.3820 -0.0700 -0.0675
  157SAPE  H13X17506   6.014   2.694   4.814 -1.2711  0.7832  1.1547
  157SAPE  H13Y17507   5.862   2.703   4.723  0.4658  0.1934  0.2788
  157SAPE  C31417508   6.020   2.588   4.626  0.1422 -0.1658 -0.0978
  157SAPE  H14X17509   6.106   2.521   4.647  1.0739  0.8094 -0.7261
  157SAPE  H14Y17510   6.059   2.687   4.595  2.0317 -0.2619  1.7800
  157SAPE  C31517511   5.935   2.520   4.524 -0.1998 -0.7140 -0.1620
  157SAPE  H15X17512   5.867   2.438   4.555 -0.2520 -0.5773  0.0935
  157SAPE  H15Y17513   6.012   2.469   4.462 -0.0308 -2.2384  1.2307
  157SAPE  C31617514   5.860   2.628   4.443  0.3873 -0.7108 -0.0589
  157SAPE  H16X17515   5.932   2.691   4.387 -1.7681  1.1576 -0.9095
  157SAPE  H16Y17516   5.790   2.688   4.505 -0.3339 -1.9550  0.3531
  157SAPE  C31717517   5.795   2.569   4.319 -0.0130 -0.3196  0.1303
  157SAPE  H17X17518   5.725   2.489   4.350 -1.1449  0.7105  0.3175
  157SAPE  H17Y17519   5.878   2.526   4.260  1.3191  2.9054 -0.5572
  157SAPE  C31817520   5.729   2.677   4.232 -0.4993  0.0531  0.0620
  157SAPE  H18X17521   5.808   2.751   4.204 -0.4302 -1.1080 -3.2294
  157SAPE  H18Y17522   5.646   2.736   4.275 -0.4497 -0.0039  0.2382
  157SAPE  H18Z17523   5.707   2.636   4.131 -1.0018  2.6493 -0.9745
  158SAPE     N17524   2.887   6.241   5.937 -0.5692  0.0408 -0.4591
  158SAPE   HN117525   2.921   6.145   5.917  0.7334  0.3809  0.0353
  158SAPE   HN217526   2.788   6.218   5.958 -0.0319 -2.0395  0.0053
  158SAPE   HN317527   2.892   6.295   5.848 -0.8137 -2.1560 -1.8827
  158SAPE   C1217528   2.959   6.294   6.057 -0.6977 -0.1099  0.3037
  158SAPE  H12A17529   2.981   6.209   6.125 -2.8440  0.9366  2.4351
  158SAPE  H12B17530   2.894   6.366   6.111 -2.1580  0.3146 -1.8749
  158SAPE   C1117531   3.092   6.357   6.009 -0.3616 -0.0383 -0.6806
  158SAPE  H11A17532   3.171   6.279   5.997 -0.4429 -0.4927  1.3666
  158SAPE  H11B17533   3.134   6.419   6.091 -0.9592 -2.0284  1.2292
  158SAPE     P17534   3.064   6.592   5.892  0.2195 -0.1320 -0.0346
  158SAPE   O1317535   3.009   6.636   5.759  0.1857 -0.0866 -0.1384
  158SAPE   O1417536   2.975   6.634   6.009 -0.1136  0.1233  0.0716
  158SAPE   O1217537   3.073   6.436   5.888  0.1121  0.4170  0.3391
  158SAPE   O1117538   3.211   6.631   5.916 -0.3047 -0.1312  0.1558
  158SAPE    C117539   3.318   6.560   5.865  0.1486 -0.0105  0.1563
  158SAPE    HA17540   3.381   6.538   5.954 -1.3854  3.1048  2.2130
  158SAPE    HB17541   3.292   6.462   5.819  2.1661  0.3360 -1.9098
  158SAPE    C217542   3.406   6.633   5.764 -0.0265 -0.5027  0.3325
  158SAPE    HS17543   3.328   6.659   5.689  0.7983  0.1173 -0.3400
  158SAPE   O2117544   3.508   6.543   5.705 -0.5916  0.0938 -0.3093
  158SAPE   C2117545   3.462   6.465   5.603  0.4645  0.6072 -0.1947
  158SAPE   O2217546   3.350   6.475   5.555  0.4013  1.0249 -0.2988
  158SAPE   C2217547   3.583   6.377   5.561 -0.1083  0.5931  0.0143
  158SAPE   H2R17548   3.655   6.441   5.505  0.5475  0.0830  0.2636
  158SAPE   H2S17549   3.632   6.346   5.655 -0.6696  0.3719  0.2377
  158SAPE    C317550   3.470   6.762   5.818  0.2286 -0.1932 -0.1284
  158SAPE    HX17551   3.538   6.744   5.904  1.8297  3.7062 -0.3578
  158SAPE    HY17552   3.390   6.826   5.860 -1.0576 -1.7685 -0.0785
  158SAPE   O3117553   3.538   6.836   5.710  0.1230  0.1087  0.0866
  158SAPE   C3117554   3.657   6.799   5.685 -0.0681  0.5229 -0.7024
  158SAPE   O3217555   3.726   6.729   5.751 -0.3483  0.1540 -0.0189
  158SAPE   C3217556   3.694   6.845   5.543 -0.2469  0.3330  0.7330
  158SAPE   H2X17557   3.805   6.856   5.541 -0.2194  0.3416  1.7038
  158SAPE   H2Y17558   3.652   6.947   5.536 -0.0113  0.3990  0.2533
  158SAPE   C2317559   3.552   6.264   5.469 -0.4752 -0.2217  0.4487
  158SAPE   H3R17560   3.470   6.214   5.525  1.1644 -1.2595  2.0362
  158SAPE   H3S17561   3.637   6.194   5.462 -0.7647 -0.4105 -3.3741
  158SAPE   C2417562   3.518   6.311   5.332  0.4161 -0.4197 -0.2836
  158SAPE   H4R17563   3.597   6.384   5.304  0.6451  0.9989  3.4045
  158SAPE   H4S17564   3.427   6.375   5.329 -0.5606 -1.7804 -0.1996
  158SAPE   C2517565   3.488   6.209   5.233 -0.4826  0.4278 -0.7407
  158SAPE   H5R17566   3.417   6.131   5.263  0.2612 -0.7874 -2.0157
  158SAPE   C2617567   3.552   6.195   5.121 -0.1853 -0.0199  0.0333
  158SAPE   H6R17568   3.521   6.109   5.061  0.7167 -1.1555  1.1353
  158SAPE   C2717569   3.670   6.268   5.064  0.1506  0.4119  0.0734
  158SAPE   H7R17570   3.748   6.190   5.049 -0.6639 -0.7688  1.7467
  158SAPE   H7S17571   3.702   6.341   5.141  0.4087  0.5451 -0.1573
  158SAPE   C2817572   3.620   6.326   4.939  0.0782  0.3340  0.2617
  158SAPE   H8R17573   3.558   6.415   4.955 -0.4006  0.0498 -0.0067
  158SAPE   C2917574   3.624   6.276   4.813 -0.3685  1.0370  0.3136
  158SAPE   H9R17575   3.563   6.319   4.732 -0.5780 -2.7304 -1.8032
  158SAPE  C21017576   3.687   6.149   4.776 -0.0010  0.6604 -0.0349
  158SAPE  H10R17577   3.611   6.078   4.736  2.0000 -1.5821 -0.0849
  158SAPE  H10S17578   3.714   6.098   4.871  0.2707 -0.2321 -0.5815
  158SAPE  C21117579   3.799   6.173   4.680 -0.1017  0.0550 -0.3101
  158SAPE  H11R17580   3.880   6.233   4.722  1.9844 -2.3067 -0.7309
  158SAPE  C21217581   3.813   6.121   4.556 -0.2341 -0.0180  0.2791
  158SAPE  H12R17582   3.889   6.169   4.492 -1.8638 -0.4191 -2.1104
  158SAPE  C21317583   3.728   6.024   4.479  0.6481  0.5054  0.0910
  158SAPE  H13R17584   3.642   5.985   4.537  0.2480  1.3307  0.0669
  158SAPE  H13S17585   3.791   5.934   4.460  3.2677  2.5095 -1.3827
  158SAPE  C21417586   3.665   6.075   4.353  0.0576  0.0864  0.0445
  158SAPE  H14R17587   3.571   6.128   4.370 -1.5964 -2.1809 -1.4444
  158SAPE  C21517588   3.722   6.078   4.230 -0.0827 -0.7180 -0.4998
  158SAPE  H15R17589   3.655   6.109   4.148  1.0719  0.9752 -0.8555
  158SAPE  C21617590   3.852   6.003   4.205  0.2154 -0.2031 -0.2590
  158SAPE  H16R17591   3.907   5.958   4.291 -1.3426 -0.1475  0.7985
  158SAPE  H16S17592   3.926   6.071   4.158 -1.0209  1.2096 -0.2228
  158SAPE  C21717593   3.816   5.888   4.106  0.0576 -0.1682  0.4134
  158SAPE  H17R17594   3.752   5.926   4.024 -0.2590  1.8572  1.5313
  158SAPE  H17S17595   3.760   5.812   4.165 -1.5889  0.1552 -0.6980
  158SAPE  C21817596   3.941   5.821   4.041  0.4781  0.5140  0.7327
  158SAPE  H18R17597   3.908   5.720   4.009 -0.5536  1.6666 -2.2791
  158SAPE  H18S17598   4.019   5.805   4.119 -0.4293  1.6828  1.9281
  158SAPE  C21917599   4.008   5.902   3.925  0.3409 -0.1587  0.2721
  158SAPE  H19R17600   4.015   6.010   3.952 -0.9211 -0.4896  2.1008
  158SAPE  H19S17601   3.939   5.878   3.841 -0.0166  0.2698  0.4364
  158SAPE  C22017602   4.142   5.861   3.871 -0.0432 -0.5289  0.4951
  158SAPE  H20R17603   4.148   5.757   3.831 -2.2318 -0.2521 -0.6853
  158SAPE  H20S17604   4.227   5.864   3.943 -0.3505 -0.9411  0.8838
  158SAPE  H20T17605   4.168   5.920   3.781 -0.2164  0.0605  0.8268
  158SAPE   C3317606   3.653   6.761   5.420  0.8458  0.1985  0.1464
  158SAPE   H3X17607   3.542   6.748   5.423  0.7320  1.1366  0.2109
  158SAPE   H3Y17608   3.704   6.662   5.419  1.7054  0.6323 -0.7635
  158SAPE   C3417609   3.688   6.830   5.283  0.0785 -0.5672 -0.5662
  158SAPE   H4X17610   3.797   6.817   5.263 -0.1225 -1.2623 -1.2497
  158SAPE   H4Y17611   3.669   6.939   5.295 -0.1748 -0.6489 -0.1979
  158SAPE   C3517612   3.618   6.759   5.167  0.5627 -0.2434  0.2306
  158SAPE   H5X17613   3.510   6.782   5.179  0.2870 -1.3991  0.0702
  158SAPE   H5Y17614   3.634   6.649   5.172 -0.7701 -0.7334 -3.4243
  158SAPE   C3617615   3.667   6.810   5.029 -0.2883 -0.9859 -0.3728
  158SAPE   H6X17616   3.778   6.820   5.025 -0.5349  2.7428 -1.1061
  158SAPE   H6Y17617   3.617   6.909   5.021 -0.9225 -1.3052 -0.3906
  158SAPE   C3717618   3.630   6.712   4.918 -0.0441  0.2463 -0.0251
  158SAPE   H7X17619   3.519   6.706   4.908 -0.0370 -0.2265  0.1851
  158SAPE   H7Y17620   3.665   6.618   4.965 -0.7742  0.6912  1.4785
  158SAPE   C3817621   3.701   6.738   4.781 -0.5746 -0.0390  0.2756
  158SAPE   H8X17622   3.811   6.746   4.788 -0.3295 -1.6618 -0.9716
  158SAPE   H8Y17623   3.663   6.834   4.741 -0.4846 -0.5830 -1.1891
  158SAPE   C3917624   3.670   6.615   4.694  0.0406 -0.4944  0.5015
  158SAPE   H9X17625   3.573   6.571   4.726 -0.0685 -0.4399  0.2425
  158SAPE   H9Y17626   3.753   6.543   4.709  0.3544 -0.7802 -2.0834
  158SAPE  C31017627   3.647   6.658   4.545 -0.1926  0.2142  0.8461
  158SAPE  H10X17628   3.735   6.713   4.505 -1.2891  2.3406  1.2523
  158SAPE  H10Y17629   3.568   6.734   4.526 -1.0591 -1.2247 -1.7915
  158SAPE  C31117630   3.617   6.540   4.448  0.1746  0.1178  0.1099
  158SAPE  H11X17631   3.533   6.479   4.486  0.3157 -0.8656 -1.0963
  158SAPE  H11Y17632   3.706   6.473   4.442 -0.4441 -0.6546 -0.6395
  158SAPE  C31217633   3.588   6.567   4.307 -0.0253 -0.2485 -0.2954
  158SAPE  H12X17634   3.689   6.588   4.267  0.1391 -0.7673 -0.1659
  158SAPE  H12Y17635   3.520   6.645   4.269  1.8281 -0.0427 -3.5469
  158SAPE  C31317636   3.564   6.430   4.234 -0.6756  0.3582  0.5130
  158SAPE  H13X17637   3.651   6.363   4.252  0.3119  1.8628  1.5514
  158SAPE  H13Y17638   3.563   6.443   4.123  0.7424 -1.4797  0.2468
  158SAPE  C31417639   3.434   6.355   4.274 -0.6747  0.4759 -0.0715
  158SAPE  H14X17640   3.373   6.430   4.330  0.0058 -0.0383  1.4117
  158SAPE  H14Y17641   3.460   6.297   4.365 -0.5949  1.6471  0.6743
  158SAPE  C31517642   3.375   6.277   4.167  0.0955  0.1225 -0.5966
  158SAPE  H15X17643   3.437   6.187   4.147 -0.1011  0.1902 -1.5908
  158SAPE  H15Y17644   3.389   6.340   4.077 -1.1602 -0.3218 -1.1217
  158SAPE  C31617645   3.230   6.236   4.188  0.1704  0.0693 -0.0607
  158SAPE  H16X17646   3.172   6.329   4.211  0.5214 -0.0192  1.2452
  158SAPE  H16Y17647   3.223   6.192   4.289 -2.3965  1.8169  0.6267
  158SAPE  C31717648   3.166   6.165   4.071  0.5161 -0.4625  0.3104
  158SAPE  H17X17649   3.242   6.103   4.018  0.6577 -0.1675  0.1665
  158SAPE  H17Y17650   3.143   6.243   3.995 -0.2578  0.8171  1.7902
  158SAPE  C31817651   3.025   6.090   4.097 -0.2239  0.8784  0.8213
  158SAPE  H18X17652   3.015   6.012   4.176 -2.2830  0.2578  0.0200
  158SAPE  H18Y17653   3.014   6.023   4.009  1.3170  0.1156  1.1651
  158SAPE  H18Z17654   2.940   6.161   4.103 -0.3658  1.0719 -2.1866
  159SAPE     N17655   3.670   1.804   1.442  0.2156  0.2842  0.4023
  159SAPE   HN117656   3.609   1.751   1.376  1.2090 -0.1076 -0.2202
  159SAPE   HN217657   3.600   1.855   1.500 -0.9893 -1.0099  0.1290
  159SAPE   HN317658   3.721   1.880   1.393 -1.1113  0.8476 -0.1570
  159SAPE   C1217659   3.740   1.723   1.548  0.5710  0.1905 -0.5296
  159SAPE  H12A17660   3.842   1.766   1.552 -0.3154  2.2483  1.5449
  159SAPE  H12B17661   3.745   1.620   1.505 -1.0407  0.1078 -0.5740
  159SAPE   C1117662   3.670   1.734   1.685 -0.0741  0.0260 -0.5946
  159SAPE  H11A17663   3.734   1.680   1.758  0.0062 -0.4900 -1.0410
  159SAPE  H11B17664   3.570   1.685   1.687 -0.8554  1.5802  0.7312
  159SAPE     P17665   3.643   1.930   1.859 -0.1255 -0.2094  0.6027
  159SAPE   O1317666   3.723   2.049   1.871 -0.2188 -0.8242  0.0074
  159SAPE   O1417667   3.500   1.945   1.877  0.0155 -0.4148  0.0084
  159SAPE   O1217668   3.679   1.872   1.716  0.2434  0.0640 -0.2727
  159SAPE   O1117669   3.707   1.827   1.962  0.1548 -0.1501 -0.5567
  159SAPE    C117670   3.849   1.828   1.965  0.4432  0.2711 -0.3688
  159SAPE    HA17671   3.893   1.733   1.927 -1.1386 -0.6596  0.0487
  159SAPE    HB17672   3.904   1.906   1.907  2.1618 -0.7780 -0.2069
  159SAPE    C217673   3.885   1.850   2.118 -0.3708 -0.6653  0.2906
  159SAPE    HS17674   3.993   1.869   2.138 -0.4290 -1.2656  1.2500
  159SAPE   O2117675   3.852   1.733   2.195 -0.3604 -0.5302 -0.1722
  159SAPE   C2117676   3.926   1.627   2.160  0.3152 -0.2119 -1.1336
  159SAPE   O2217677   4.028   1.632   2.088  0.0219 -0.1812 -0.0264
  159SAPE   C2217678   3.855   1.507   2.222  0.6774  0.1050 -0.1654
  159SAPE   H2R17679   3.751   1.500   2.186  0.6509 -2.1952  0.1970
  159SAPE   H2S17680   3.914   1.421   2.183  2.1162  0.2995  1.4543
  159SAPE    C317681   3.828   1.985   2.169  0.2040 -0.0239  0.2476
  159SAPE    HX17682   3.717   1.988   2.165  0.2217 -0.2576 -0.5859
  159SAPE    HY17683   3.862   2.068   2.104 -1.0742  0.2037 -0.1487
  159SAPE   O3117684   3.866   2.016   2.304 -0.5035  0.0419  0.1215
  159SAPE   C3117685   3.806   1.951   2.404  0.1884  0.6624 -0.4864
  159SAPE   O3217686   3.708   1.880   2.392  0.0691  0.3611 -0.1518
  159SAPE   C3217687   3.869   1.999   2.535  0.0863  0.0668 -0.1653
  159SAPE   H2X17688   3.836   2.103   2.553 -1.4927 -0.0703 -1.9531
  159SAPE   H2Y17689   3.979   2.000   2.519  0.0289  0.2058 -0.5476
  159SAPE   C2317690   3.857   1.511   2.377  0.4561  0.0416  0.2102
  159SAPE   H3R17691   3.787   1.589   2.412  0.3802 -0.1624  0.5152
  159SAPE   H3S17692   3.958   1.537   2.413  1.3627 -0.6073 -1.7137
  159SAPE   C2417693   3.799   1.375   2.422 -0.1474  0.0530 -0.0188
  159SAPE   H4R17694   3.875   1.305   2.380  0.9120  1.8083 -1.1806
  159SAPE   H4S17695   3.706   1.354   2.365 -0.4534  0.9920  0.1080
  159SAPE   C2517696   3.788   1.385   2.573 -0.1220  0.9601  0.4059
  159SAPE   H5R17697   3.883   1.359   2.624 -0.4822 -2.2620 -0.3538
  159SAPE   C2617698   3.699   1.429   2.662 -0.7652  0.2531 -0.5678
  159SAPE   H6R17699   3.740   1.428   2.764  0.1773  1.8968 -0.8950
  159SAPE   C2717700   3.567   1.494   2.628 -0.5890 -0.2305  0.3471
  159SAPE   H7R17701   3.475   1.452   2.673 -2.9936  2.4774 -1.6315
  159SAPE   H7S17702   3.537   1.473   2.523 -1.8239  0.9167  0.4381
  159SAPE   C2817703   3.573   1.642   2.658 -0.3945  0.6420 -0.3796
  159SAPE   H8R17704   3.633   1.698   2.585  0.2245 -1.2537 -1.3879
  159SAPE   C2917705   3.512   1.698   2.766 -1.0696 -0.4898 -0.0809
  159SAPE   H9R17706   3.530   1.806   2.768 -0.1309 -0.6140 -1.0146
  159SAPE  C21017707   3.424   1.630   2.867  0.1617  0.3132 -0.5881
  159SAPE  H10R17708   3.357   1.552   2.824  1.3527 -0.3755 -1.2510
  159SAPE  H10S17709   3.356   1.703   2.916  0.3220 -1.0109  1.7789
  159SAPE  C21117710   3.500   1.548   2.976  0.2442 -0.5706 -0.3717
  159SAPE  H11R17711   3.534   1.451   2.938 -0.7317 -0.7552 -0.7982
  159SAPE  C21217712   3.518   1.581   3.104 -0.1334 -0.0809 -0.1525
  159SAPE  H12R17713   3.576   1.515   3.170 -0.6321  0.3951  0.7948
  159SAPE  C21317714   3.477   1.703   3.177  0.2567 -0.4331 -0.4139
  159SAPE  H13R17715   3.482   1.685   3.286  0.8474  0.8733 -0.2033
  159SAPE  H13S17716   3.374   1.723   3.140  0.1837  1.5593  0.7412
  159SAPE  C21417717   3.563   1.822   3.145  0.2136  0.2086  0.1095
  159SAPE  H14R17718   3.606   1.824   3.044 -1.1327 -1.1085 -0.5188
  159SAPE  C21517719   3.583   1.925   3.232  0.1505 -0.1621 -0.1120
  159SAPE  H15R17720   3.653   2.004   3.200  2.3407 -0.8650  2.5255
  159SAPE  C21617721   3.527   1.957   3.371  0.1266 -0.0223 -0.3531
  159SAPE  H16R17722   3.446   1.881   3.383 -0.6960  0.2885 -3.2740
  159SAPE  H16S17723   3.485   2.059   3.381  1.4024  0.3049  2.5086
  159SAPE  C21717724   3.628   1.938   3.492 -0.3319  0.5786  0.7399
  159SAPE  H17R17725   3.730   1.973   3.463 -0.6178 -2.4088 -5.4222
  159SAPE  H17S17726   3.639   1.828   3.501 -0.3597  0.5150  0.0398
  159SAPE  C21817727   3.574   1.996   3.626  0.3930  0.0118  0.2353
  159SAPE  H18R17728   3.472   1.951   3.636  1.0032 -1.1653  1.4452
  159SAPE  H18S17729   3.544   2.102   3.619 -1.5249 -0.3773  1.7524
  159SAPE  C21917730   3.666   1.955   3.745  0.2592 -0.5464  0.6108
  159SAPE  H19R17731   3.767   1.995   3.719 -0.0989 -1.2014 -2.1656
  159SAPE  H19S17732   3.688   1.847   3.735  3.3293 -0.0431  1.1266
  159SAPE  C22017733   3.612   1.979   3.887  0.0820  0.4272  0.3408
  159SAPE  H20R17734   3.621   2.081   3.929 -3.4332  1.3959 -0.9400
  159SAPE  H20S17735   3.660   1.901   3.950  1.2528  0.6985 -0.1879
  159SAPE  H20T17736   3.505   1.950   3.891  0.5439 -1.9789 -1.6823
  159SAPE   C3317737   3.820   1.896   2.645 -0.5964 -0.2555 -0.2841
  159SAPE   H3X17738   3.851   1.793   2.619  1.2036  0.5439 -1.5724
  159SAPE   H3Y17739   3.710   1.899   2.655 -0.5209 -1.0086  0.9864
  159SAPE   C3417740   3.902   1.915   2.774 -0.7014 -0.3429 -0.2743
  159SAPE   H4X17741   3.888   2.018   2.812  1.3237  0.6207 -1.9736
  159SAPE   H4Y17742   4.007   1.910   2.739  0.0528  1.0795  1.6226
  159SAPE   C3517743   3.866   1.814   2.882 -0.0628 -0.8493  0.5340
  159SAPE   H5X17744   3.911   1.724   2.834  1.1460  0.4503 -0.8944
  159SAPE   H5Y17745   3.756   1.803   2.889 -0.0165 -1.2324  0.6732
  159SAPE   C3617746   3.924   1.827   3.015 -0.1983  0.3882  0.2714
  159SAPE   H6X17747   3.888   1.911   3.079 -1.4596 -0.2389  0.4043
  159SAPE   H6Y17748   4.033   1.848   3.010  0.0318 -0.6633  0.5502
  159SAPE   C3717749   3.920   1.693   3.095  0.4612 -1.1398  0.2244
  159SAPE   H7X17750   4.011   1.635   3.070  1.1114 -0.4635  1.0059
  159SAPE   H7Y17751   3.828   1.635   3.070 -0.9319 -0.7717  3.8296
  159SAPE   C3817752   3.899   1.713   3.249  0.5942  0.7757  0.6293
  159SAPE   H8X17753   3.806   1.770   3.269  0.7773  1.2376  0.1772
  159SAPE   H8Y17754   3.986   1.767   3.292  0.1985  1.8515  0.1371
  159SAPE   C3917755   3.886   1.578   3.315  0.2794 -0.0522 -0.7772
  159SAPE   H9X17756   3.970   1.510   3.289  1.3711  0.9138  0.1046
  159SAPE   H9Y17757   3.793   1.524   3.286 -0.2252 -0.7986  1.9934
  159SAPE  C31017758   3.883   1.599   3.468  0.7230 -0.6934 -0.1097
  159SAPE  H10X17759   3.804   1.676   3.487  0.1565 -1.0707 -0.8785
  159SAPE  H10Y17760   3.981   1.642   3.497 -0.3165  1.3129  0.6824
  159SAPE  C31117761   3.850   1.471   3.552  0.8780 -0.4086  0.4132
  159SAPE  H11X17762   3.930   1.400   3.524  1.3364  0.7409 -1.3477
  159SAPE  H11Y17763   3.755   1.433   3.509  0.5712  0.8922 -0.1091
  159SAPE  C31217764   3.852   1.494   3.703  0.4209  0.0412  0.0928
  159SAPE  H12X17765   3.781   1.573   3.739  3.2085  1.7945  2.2123
  159SAPE  H12Y17766   3.951   1.535   3.731 -1.2953  2.1121  4.0026
  159SAPE  C31317767   3.820   1.371   3.795 -0.1278 -0.4727 -0.0250
  159SAPE  H13X17768   3.878   1.282   3.761  0.8317  0.1980 -0.1866
  159SAPE  H13Y17769   3.712   1.347   3.784 -0.3185 -0.0587  0.8399
  159SAPE  C31417770   3.845   1.407   3.943 -0.5472  0.5015  0.3327
  159SAPE  H14X17771   3.767   1.480   3.971 -1.6011 -0.5787  0.2857
  159SAPE  H14Y17772   3.944   1.458   3.949  1.0399 -2.1214 -1.3954
  159SAPE  C31517773   3.848   1.284   4.037 -0.5904  0.6995 -0.4652
  159SAPE  H15X17774   3.881   1.317   4.138  0.9129 -0.7028 -0.4693
  159SAPE  H15Y17775   3.926   1.211   4.006 -1.8531 -1.5911  1.4643
  159SAPE  C31617776   3.717   1.213   4.037  0.2378 -0.1911  0.5643
  159SAPE  H16X17777   3.703   1.192   3.929 -0.2529  2.1119  0.1391
  159SAPE  H16Y17778   3.629   1.274   4.067 -1.0860 -2.2124  1.0217
  159SAPE  C31717779   3.720   1.071   4.109 -0.2279 -0.3519  0.2800
  159SAPE  H17X17780   3.771   1.098   4.203  0.2824 -0.5052  0.0530
  159SAPE  H17Y17781   3.786   1.007   4.046 -1.9493 -0.4782 -1.5161
  159SAPE  C31817782   3.579   1.022   4.128  0.7165  0.3330  0.2717
  159SAPE  H18X17783   3.526   1.080   4.208  0.9223  2.0085 -0.7705
  159SAPE  H18Y17784   3.584   0.918   4.168 -0.7359 -0.4668 -1.4791
  159SAPE  H18Z17785   3.522   1.014   4.033  1.2824 -2.8780  0.0800
  160SAPE     N17786   4.638   4.227   1.717  0.3647  0.6178  0.3393
  160SAPE   HN117787   4.692   4.277   1.643 -2.4218  2.7899 -0.4094
  160SAPE   HN217788   4.609   4.135   1.679 -0.2872  0.3246  1.5029
  160SAPE   HN317789   4.547   4.276   1.722  0.7228  1.3004  0.2884
  160SAPE   C1217790   4.715   4.228   1.848 -0.4904 -0.4431  0.0150
  160SAPE  H12A17791   4.653   4.188   1.931 -0.5355  1.8315  1.1620
  160SAPE  H12B17792   4.747   4.334   1.856 -3.3752  0.7310 -2.0616
  160SAPE   C1117793   4.831   4.139   1.825  0.1202  0.3719 -0.3104
  160SAPE  H11A17794   4.790   4.047   1.777 -1.2516  2.0688 -2.6522
  160SAPE  H11B17795   4.878   4.099   1.917 -1.0294  0.6739  0.4237
  160SAPE     P17796   5.071   4.154   1.732 -0.0088  0.2615 -0.0271
  160SAPE   O1317797   5.081   4.015   1.687 -0.1305 -0.0702  0.6087
  160SAPE   O1417798   5.142   4.258   1.653 -0.4665 -0.0919  0.4223
  160SAPE   O1217799   4.917   4.202   1.733  0.4572 -0.1145  0.4683
  160SAPE   O1117800   5.108   4.174   1.883  0.4718 -0.2239  0.3948
  160SAPE    C117801   5.063   4.288   1.954  1.0510 -0.3360 -0.4088
  160SAPE    HA17802   5.072   4.387   1.903 -1.0030 -0.1013 -0.4066
  160SAPE    HB17803   4.956   4.288   1.983  1.1143 -0.2316 -0.1764
  160SAPE    C217804   5.145   4.299   2.082  0.6914  0.8677  0.5189
  160SAPE    HS17805   5.251   4.296   2.050  0.8205 -2.1845  0.9407
  160SAPE   O2117806   5.117   4.191   2.177  0.4267  0.2315 -0.1035
  160SAPE   C2117807   5.212   4.171   2.272 -0.4373 -0.2689  0.2046
  160SAPE   O2217808   5.318   4.226   2.275 -0.6496 -0.4197  0.0871
  160SAPE   C2217809   5.172   4.061   2.363 -0.5788  0.7669 -0.3097
  160SAPE   H2R17810   5.067   4.039   2.336 -0.1427 -0.1725 -1.3286
  160SAPE   H2S17811   5.235   3.969   2.358  1.2318  1.7966  1.8953
  160SAPE    C317812   5.118   4.432   2.164 -0.3664 -0.3534 -0.0473
  160SAPE    HX17813   5.126   4.519   2.096 -0.9327 -0.1776  0.1048
  160SAPE    HY17814   5.195   4.430   2.244  2.2979 -2.2483 -2.4643
  160SAPE   O3117815   4.990   4.433   2.236  0.6450  0.9825  0.1708
  160SAPE   C3117816   4.883   4.482   2.175 -0.3399  0.5840  0.0718
  160SAPE   O3217817   4.882   4.525   2.062  0.0956 -0.0699  0.1132
  160SAPE   C3217818   4.759   4.482   2.257 -0.0225  0.2757 -0.2141
  160SAPE   H2X17819   4.772   4.424   2.351  0.4473 -2.5052 -1.8762
  160SAPE   H2Y17820   4.679   4.441   2.192 -0.2394  0.2333  0.0786
  160SAPE   C2317821   5.182   4.120   2.506 -0.3658  0.7940  0.2581
  160SAPE   H3R17822   5.287   4.150   2.528  0.5388 -0.0283 -2.5344
  160SAPE   H3S17823   5.139   4.033   2.561 -0.3902  1.0140  0.5909
  160SAPE   C2417824   5.090   4.240   2.532  0.5906  0.1020  0.0130
  160SAPE   H4R17825   4.985   4.213   2.512  0.5335 -0.5425  1.0953
  160SAPE   H4S17826   5.117   4.328   2.469  1.1094 -0.7699 -0.9990
  160SAPE   C2517827   5.092   4.262   2.682 -0.2354  0.6386  0.0262
  160SAPE   H5R17828   5.013   4.212   2.740  0.5290  2.4584  2.7834
  160SAPE   C2617829   5.166   4.351   2.754  0.0103  0.0548  0.0483
  160SAPE   H6R17830   5.155   4.354   2.863  2.1527  3.6552  0.3251
  160SAPE   C2717831   5.273   4.451   2.702  0.3188  0.2524 -0.8030
  160SAPE   H7R17832   5.284   4.526   2.784 -0.1513 -2.0115  1.4566
  160SAPE   H7S17833   5.236   4.492   2.605 -0.9657 -0.8612 -0.8196
  160SAPE   C2817834   5.414   4.394   2.678  0.2649  0.3668 -0.2259
  160SAPE   H8R17835   5.434   4.290   2.706 -1.8294 -0.2612 -0.8640
  160SAPE   C2917836   5.513   4.455   2.613 -0.4254  0.0189 -0.7412
  160SAPE   H9R17837   5.605   4.396   2.601 -0.8453 -1.0370  0.8943
  160SAPE  C21017838   5.504   4.598   2.567 -0.4485  0.3204 -0.1214
  160SAPE  H10R17839   5.401   4.638   2.570 -0.5793 -0.0404  0.4663
  160SAPE  H10S17840   5.534   4.605   2.460 -2.4754  4.3840 -0.5744
  160SAPE  C21117841   5.595   4.687   2.643 -0.6034 -0.5465 -0.1481
  160SAPE  H11R17842   5.569   4.690   2.749  1.9892 -0.8578  0.5749
  160SAPE  C21217843   5.701   4.756   2.592  0.7321 -0.4510 -0.9871
  160SAPE  H12R17844   5.755   4.826   2.659  0.0121 -0.3043 -0.5498
  160SAPE  C21317845   5.749   4.766   2.453 -0.3642 -0.1040 -0.1208
  160SAPE  H13R17846   5.664   4.777   2.384  0.0375 -0.7580 -0.7329
  160SAPE  H13S17847   5.785   4.662   2.434 -0.9128 -0.7919  2.2178
  160SAPE  C21417848   5.863   4.860   2.429  0.2312 -0.0479  0.1738
  160SAPE  H14R17849   5.843   4.939   2.356  1.6329 -1.4653 -1.8590
  160SAPE  C21517850   5.981   4.851   2.488 -0.4608  0.1032  0.3613
  160SAPE  H15R17851   6.051   4.936   2.478  0.8997 -0.8199  1.5482
  160SAPE  C21617852   6.024   4.739   2.580 -0.2987 -0.4977  0.3773
  160SAPE  H16R17853   6.126   4.721   2.539 -0.7756  0.3435 -1.3042
  160SAPE  H16S17854   5.968   4.644   2.570 -0.0206 -0.5083 -1.3289
  160SAPE  C21717855   6.042   4.784   2.724  0.6201 -0.0916  0.0449
  160SAPE  H17R17856   6.046   4.700   2.797  1.8305  0.5618  0.7486
  160SAPE  H17S17857   5.960   4.851   2.757  1.5853  0.9871  0.2876
  160SAPE  C21817858   6.177   4.852   2.742  0.3312  0.5587  0.0978
  160SAPE  H18R17859   6.179   4.928   2.660  0.4447 -1.0296 -1.4188
  160SAPE  H18S17860   6.256   4.780   2.713  0.9979  0.8378  1.1395
  160SAPE  C21917861   6.206   4.901   2.887  0.0191  0.4272  0.8491
  160SAPE  H19R17862   6.209   4.816   2.958  3.0675 -1.4406 -1.3020
  160SAPE  H19S17863   6.128   4.975   2.915 -1.5951 -0.3194 -1.4042
  160SAPE  C22017864   6.344   4.974   2.892  0.7670 -0.2821 -0.1787
  160SAPE  H20R17865   6.345   5.044   2.978  1.3604  0.7283 -0.9950
  160SAPE  H20S17866   6.364   5.046   2.810  0.8607  1.2523  1.1378
  160SAPE  H20T17867   6.427   4.899   2.896  0.8606 -0.1608  0.2889
  160SAPE   C3317868   4.696   4.623   2.294 -0.8743 -0.0516  0.1265
  160SAPE   H3X17869   4.588   4.617   2.321 -0.4612 -0.8320  1.6836
  160SAPE   H3Y17870   4.692   4.691   2.206 -0.6580 -1.8945 -1.3572
  160SAPE   C3417871   4.763   4.688   2.415  0.0392 -0.1204 -0.2113
  160SAPE   H4X17872   4.703   4.775   2.450  2.1359  1.0139  0.7855
  160SAPE   H4Y17873   4.867   4.725   2.402  0.4133 -1.3981 -1.0197
  160SAPE   C3517874   4.758   4.605   2.541  0.0151  0.1163 -0.0676
  160SAPE   H5X17875   4.832   4.523   2.538 -0.0922  0.0082  0.2045
  160SAPE   H5Y17876   4.656   4.565   2.523 -0.3112  1.9028 -2.9024
  160SAPE   C3617877   4.761   4.681   2.669  0.1782  0.4314  0.4072
  160SAPE   H6X17878   4.683   4.760   2.677  1.0055  1.1764  1.5717
  160SAPE   H6Y17879   4.862   4.725   2.683 -0.0832  0.9076  0.8142
  160SAPE   C3717880   4.737   4.597   2.798 -0.2715  0.7369 -0.7667
  160SAPE   H7X17881   4.807   4.511   2.790 -1.0549 -0.0332  0.4891
  160SAPE   H7Y17882   4.632   4.563   2.805 -0.2844  0.9488  0.1615
  160SAPE   C3817883   4.782   4.679   2.918  0.6235  0.4084 -0.1818
  160SAPE   H8X17884   4.714   4.767   2.914 -0.5797 -0.5479 -2.5831
  160SAPE   H8Y17885   4.887   4.706   2.895  0.7323  0.2316  0.1019
  160SAPE   C3917886   4.773   4.621   3.060 -0.7055 -0.4836 -0.6373
  160SAPE   H9X17887   4.832   4.526   3.059  0.9699  0.4993  0.1380
  160SAPE   H9Y17888   4.666   4.596   3.077 -1.2476  0.4003 -2.4878
  160SAPE  C31017889   4.830   4.725   3.157  0.1193 -0.3675 -0.3096
  160SAPE  H10X17890   4.782   4.824   3.145  2.6332  1.3385  2.2407
  160SAPE  H10Y17891   4.938   4.748   3.140  0.3161 -1.3930 -0.5735
  160SAPE  C31117892   4.810   4.677   3.307  0.6389  0.3112  0.0119
  160SAPE  H11X17893   4.862   4.579   3.315  1.7814  1.0216  1.7962
  160SAPE  H11Y17894   4.703   4.656   3.325  0.5466  1.3741  0.7601
  160SAPE  C31217895   4.857   4.778   3.409 -0.4981  1.0567 -0.2308
  160SAPE  H12X17896   4.827   4.885   3.407  1.1616  1.5648  0.2917
  160SAPE  H12Y17897   4.967   4.765   3.411 -0.7879 -2.5405  2.6046
  160SAPE  C31317898   4.816   4.712   3.546  0.3520  0.0339  0.3051
  160SAPE  H13X17899   4.844   4.605   3.530 -1.4309 -0.5309  0.6713
  160SAPE  H13Y17900   4.705   4.719   3.551  0.2980 -0.5481  0.0598
  160SAPE  C31417901   4.886   4.770   3.663 -0.6102 -0.5187 -0.2319
  160SAPE  H14X17902   4.857   4.875   3.682  3.8269  0.5845  1.8137
  160SAPE  H14Y17903   4.997   4.774   3.655 -0.5180  4.0059  0.8675
  160SAPE  C31517904   4.852   4.708   3.800 -0.4204 -0.8363 -0.3537
  160SAPE  H15X17905   4.900   4.607   3.798  0.9082 -0.2199 -1.8835
  160SAPE  H15Y17906   4.742   4.692   3.811 -0.7849  1.7737  0.3835
  160SAPE  C31617907   4.910   4.791   3.914 -0.2711  0.3851  0.8494
  160SAPE  H16X17908   4.853   4.886   3.910  0.1792  0.7544  2.3465
  160SAPE  H16Y17909   5.018   4.802   3.891 -0.2078  2.2045  1.8119
  160SAPE  C31717910   4.875   4.721   4.044 -0.1949  0.3436 -0.1145
  160SAPE  H17X17911   4.939   4.632   4.036 -0.3666  0.2322 -0.2566
  160SAPE  H17Y17912   4.765   4.702   4.045 -0.3256  1.0235 -0.4985
  160SAPE  C31817913   4.926   4.797   4.175  0.4190  0.3926  0.3426
  160SAPE  H18X17914   4.930   4.729   4.263 -2.1432  0.3960  0.5393
  160SAPE  H18Y17915   4.864   4.883   4.206 -2.9008 -1.3047 -1.0153
  160SAPE  H18Z17916   5.030   4.836   4.164  0.1319  0.6810 -1.8609
  161SAPE     N17917   1.977   4.396   1.890  0.6032 -0.5007 -0.7239
  161SAPE   HN117918   1.928   4.358   1.973  2.0257 -0.6997  0.0640
  161SAPE   HN217919   1.952   4.346   1.802  3.6416  0.5836 -2.3472
  161SAPE   HN317920   2.078   4.373   1.904  0.7163  0.3181 -0.1122
  161SAPE   C1217921   1.942   4.549   1.885 -0.7804  0.4265 -0.5850
  161SAPE  H12A17922   2.010   4.599   1.813  1.7641  0.0132  1.3751
  161SAPE  H12B17923   1.966   4.581   1.989  1.1798 -0.2141 -0.7837
  161SAPE   C1117924   1.799   4.568   1.842 -0.2271 -0.5620 -0.0764
  161SAPE  H11A17925   1.779   4.520   1.744 -1.2895 -1.2846  0.4762
  161SAPE  H11B17926   1.778   4.675   1.821 -1.8012 -0.8103  0.1568
  161SAPE     P17927   1.661   4.608   2.059 -0.4495  0.1635  0.1708
  161SAPE   O1317928   1.624   4.524   2.173 -0.2064  0.5620  0.0223
  161SAPE   O1417929   1.765   4.711   2.084  0.1830 -0.2895 -0.3091
  161SAPE   O1217930   1.704   4.522   1.936 -0.6805 -0.0646  0.1274
  161SAPE   O1117931   1.535   4.686   2.019 -0.0090 -0.0717 -0.5667
  161SAPE    C117932   1.499   4.815   2.066 -0.9093  0.0531 -0.6648
  161SAPE    HA17933   1.583   4.887   2.067  0.6111 -1.6589  0.2543
  161SAPE    HB17934   1.421   4.860   2.000  0.2949  0.2289 -2.0206
  161SAPE    C217935   1.432   4.830   2.211  0.2093  0.1532 -0.3546
  161SAPE    HS17936   1.376   4.926   2.211 -0.7255 -0.3656  0.7061
  161SAPE   O2117937   1.531   4.822   2.316  0.4304  0.2449  0.4809
  161SAPE   C2117938   1.598   4.921   2.346 -0.0278 -0.4289  0.3888
  161SAPE   O2217939   1.596   5.036   2.298  0.1759 -0.6618  0.6373
  161SAPE   C2217940   1.683   4.883   2.466  0.4709 -0.0884  0.1973
  161SAPE   H2R17941   1.730   4.784   2.448 -2.5957 -1.8859  1.2031
  161SAPE   H2S17942   1.752   4.968   2.483 -0.0406 -0.1518  3.3238
  161SAPE    C317943   1.323   4.723   2.233  0.1957 -0.4033  0.0528
  161SAPE    HX17944   1.361   4.621   2.213  1.4396  0.1773 -0.7049
  161SAPE    HY17945   1.244   4.735   2.156  2.5779  2.0592 -2.2092
  161SAPE   O3117946   1.271   4.732   2.366  0.2408 -0.0804 -0.0558
  161SAPE   C3117947   1.294   4.635   2.448 -1.0857 -0.1951  0.0169
  161SAPE   O3217948   1.340   4.525   2.418 -0.2086 -0.1599 -0.3240
  161SAPE   C3217949   1.267   4.686   2.593  0.3954 -0.0290  0.4446
  161SAPE   H2X17950   1.156   4.683   2.595  0.3780 -1.6738 -0.9779
  161SAPE   H2Y17951   1.310   4.789   2.597 -0.2573  0.3716 -1.5804
  161SAPE   C2317952   1.608   4.869   2.600  0.2563 -0.4159  0.8342
  161SAPE   H3R17953   1.580   4.761   2.607 -0.6096 -0.3293 -0.7284
  161SAPE   H3S17954   1.516   4.931   2.605  1.5169  1.9096 -2.0109
  161SAPE   C2417955   1.691   4.907   2.725 -0.9146  0.3862 -0.1618
  161SAPE   H4R17956   1.698   5.017   2.730 -2.2761  0.4545  0.7243
  161SAPE   H4S17957   1.789   4.857   2.711 -1.9506 -1.1165 -2.6573
  161SAPE   C2517958   1.624   4.851   2.848 -0.0859 -0.1555  0.4015
  161SAPE   H5R17959   1.535   4.908   2.876  0.6574  1.8244 -1.0179
  161SAPE   C2617960   1.655   4.732   2.904  0.1107  0.9563  0.0931
  161SAPE   H6R17961   1.592   4.688   2.982  2.7240 -2.6545  0.4384
  161SAPE   C2717962   1.764   4.634   2.862  0.1074  0.9085  0.0034
  161SAPE   H7R17963   1.844   4.646   2.938  0.4084 -1.8366  0.2046
  161SAPE   H7S17964   1.806   4.664   2.764 -0.3308  0.0460 -0.4586
  161SAPE   C2817965   1.731   4.484   2.853  0.0855 -0.2071  0.0798
  161SAPE   H8R17966   1.666   4.453   2.769  0.1254  0.2866 -0.1355
  161SAPE   C2917967   1.764   4.386   2.945  1.0108  0.3370 -0.4707
  161SAPE   H9R17968   1.745   4.280   2.925  2.2263  0.0745 -0.3169
  161SAPE  C21017969   1.844   4.405   3.067 -1.0191  0.5177 -1.0625
  161SAPE  H10R17970   1.941   4.455   3.045 -0.3100 -0.1387  0.3811
  161SAPE  H10S17971   1.885   4.307   3.099  0.0916  0.5591 -2.2581
  161SAPE  C21117972   1.787   4.483   3.183 -0.3246 -0.1349 -0.6407
  161SAPE  H11R17973   1.753   4.585   3.162  1.2101  0.4566 -0.3943
  161SAPE  C21217974   1.785   4.432   3.312  0.9581  0.4848  0.7752
  161SAPE  H12R17975   1.718   4.493   3.374 -2.5153 -1.6669 -0.5298
  161SAPE  C21317976   1.817   4.306   3.380  0.7020 -0.6643 -0.4353
  161SAPE  H13R17977   1.827   4.225   3.305  1.6150  1.5647 -2.8533
  161SAPE  H13S17978   1.727   4.282   3.440 -0.3304 -1.3544 -2.1897
  161SAPE  C21417979   1.935   4.313   3.475 -0.5641  0.0070  0.2186
  161SAPE  H14R17980   2.021   4.253   3.442 -1.1420 -0.9718  0.4461
  161SAPE  C21517981   1.946   4.384   3.588  0.8982  0.4641  0.1369
  161SAPE  H15R17982   2.041   4.375   3.642  0.8417 -0.8333  0.0504
  161SAPE  C21617983   1.837   4.462   3.658  0.8236  0.3173  0.4149
  161SAPE  H16R17984   1.731   4.438   3.634  1.5946 -1.2846 -1.5698
  161SAPE  H16S17985   1.844   4.571   3.638 -0.4078  0.6549  1.6068
  161SAPE  C21717986   1.835   4.459   3.813  0.5665 -0.1512  0.4660
  161SAPE  H17R17987   1.934   4.495   3.848  1.4658 -1.6201 -0.4579
  161SAPE  H17S17988   1.842   4.352   3.843  3.8388  0.1213  1.0495
  161SAPE  C21817989   1.719   4.541   3.880  0.5397 -0.5518  0.4625
  161SAPE  H18R17990   1.629   4.494   3.835  1.2816 -1.5845  0.0236
  161SAPE  H18S17991   1.730   4.642   3.837 -0.8180 -0.5992 -0.0545
  161SAPE  C21917992   1.715   4.535   4.031 -0.2330 -0.4042  0.0044
  161SAPE  H19R17993   1.804   4.581   4.080  0.0013  0.3906 -1.1267
  161SAPE  H19S17994   1.724   4.428   4.056  0.8534 -1.0105 -2.6723
  161SAPE  C22017995   1.584   4.601   4.092 -0.3521  0.2353 -0.2594
  161SAPE  H20R17996   1.594   4.711   4.097  0.2649  0.1370  2.3538
  161SAPE  H20S17997   1.563   4.567   4.196  1.4440  0.4926  0.2202
  161SAPE  H20T17998   1.492   4.570   4.038 -1.8358 -0.5497  2.4709
  161SAPE   C3317999   1.333   4.607   2.714 -0.0328 -0.7676  0.0303
  161SAPE   H3X18000   1.441   4.631   2.711 -0.2795  0.4027 -2.3774
  161SAPE   H3Y18001   1.299   4.502   2.697  0.5810 -0.8680 -0.5989
  161SAPE   C3418002   1.269   4.633   2.847  0.1235 -0.4451  0.6210
  161SAPE   H4X18003   1.161   4.613   2.834  0.4594 -2.4480  0.6158
  161SAPE   H4Y18004   1.286   4.741   2.869  0.7082 -0.6855  1.4333
  161SAPE   C3518005   1.329   4.547   2.960 -0.1568 -0.1820 -0.2919
  161SAPE   H5X18006   1.436   4.526   2.939 -0.1137 -0.3439  0.0955
  161SAPE   H5Y18007   1.270   4.453   2.959 -0.9684  0.3133 -1.2164
  161SAPE   C3618008   1.312   4.616   3.101 -0.4618 -0.2722 -0.1636
  161SAPE   H6X18009   1.207   4.645   3.125  0.0431  1.8372 -0.3500
  161SAPE   H6Y18010   1.363   4.714   3.106 -1.2905  0.2037 -0.7546
  161SAPE   C3718011   1.378   4.538   3.214 -0.5451 -0.7197  0.0765
  161SAPE   H7X18012   1.489   4.546   3.214 -0.5811 -0.1566 -0.7599
  161SAPE   H7Y18013   1.351   4.431   3.204 -3.0011 -0.0496 -1.3459
  161SAPE   C3818014   1.317   4.571   3.352 -0.2172 -0.7330 -0.4501
  161SAPE   H8X18015   1.211   4.539   3.345 -0.2882 -0.4830 -0.5493
  161SAPE   H8Y18016   1.309   4.681   3.368 -1.1119 -0.9509  0.7480
  161SAPE   C3918017   1.380   4.506   3.469  0.1091 -0.5768 -0.2050
  161SAPE   H9X18018   1.491   4.504   3.468  0.2238  0.8630  2.3375
  161SAPE   H9Y18019   1.352   4.398   3.469 -0.6787 -0.3807 -1.0985
  161SAPE  C31018020   1.325   4.565   3.604 -0.3099  0.0953 -0.3640
  161SAPE  H10X18021   1.316   4.482   3.677  1.5163 -0.2792 -0.5067
  161SAPE  H10Y18022   1.227   4.616   3.593 -0.5916 -0.1472  0.8731
  161SAPE  C31118023   1.411   4.672   3.670 -0.0847  0.0236  0.2010
  161SAPE  H11X18024   1.421   4.762   3.607 -0.5510  0.1214  0.2688
  161SAPE  H11Y18025   1.517   4.641   3.684  0.8648  2.2247 -1.6625
  161SAPE  C31218026   1.349   4.742   3.796 -0.0580  0.0450  0.7066
  161SAPE  H12X18027   1.335   4.671   3.880 -2.7478 -0.7811 -0.3429
  161SAPE  H12Y18028   1.245   4.764   3.764 -0.3473 -0.4380  1.2944
  161SAPE  C31318029   1.428   4.867   3.852  0.1361 -0.0660 -0.8807
  161SAPE  H13X18030   1.434   4.952   3.781 -1.8557 -0.7227 -1.9017
  161SAPE  H13Y18031   1.532   4.842   3.881  0.3267 -1.0908 -2.3652
  161SAPE  C31418032   1.358   4.929   3.974 -0.4404  0.2101 -0.0943
  161SAPE  H14X18033   1.363   4.864   4.064 -3.4452  0.2532  0.1992
  161SAPE  H14Y18034   1.250   4.937   3.953 -0.6800  2.1238  1.5506
  161SAPE  C31518035   1.416   5.064   4.016 -0.3641  0.5816  0.5605
  161SAPE  H15X18036   1.453   5.117   3.926  1.2315  0.5988  1.1888
  161SAPE  H15Y18037   1.507   5.044   4.078 -0.9546 -1.8184  0.7535
  161SAPE  C31618038   1.323   5.151   4.103 -0.6033  0.0014  0.9669
  161SAPE  H16X18039   1.290   5.094   4.193 -1.7014 -1.0515 -0.0779
  161SAPE  H16Y18040   1.240   5.176   4.034 -1.8305 -2.6188  1.3488
  161SAPE  C31718041   1.386   5.276   4.164  0.3192  0.3875  0.5081
  161SAPE  H17X18042   1.411   5.348   4.083  0.4914 -0.2818 -0.0500
  161SAPE  H17Y18043   1.473   5.237   4.221  1.3349  1.4340 -0.2834
  161SAPE  C31818044   1.280   5.346   4.251  0.3480  0.3653 -0.2577
  161SAPE  H18X18045   1.292   5.456   4.266 -0.9983  0.3298  1.3823
  161SAPE  H18Y18046   1.303   5.298   4.349  2.3031 -0.0050 -0.8555
  161SAPE  H18Z18047   1.176   5.321   4.222  0.9834 -1.0637 -1.4328
  162SAPE     N18048   3.138   1.712   1.768  0.5269  0.1972  0.4847
  162SAPE   HN118049   3.046   1.751   1.798  1.0004  0.7769  1.2196
  162SAPE   HN218050   3.180   1.797   1.726 -0.8401  0.9747  0.6240
  162SAPE   HN318051   3.127   1.627   1.709  2.5401  0.1041  0.1670
  162SAPE   C1218052   3.216   1.679   1.888 -0.2413 -0.3560 -1.0772
  162SAPE  H12A18053   3.168   1.604   1.954 -0.1133 -1.0143 -1.7147
  162SAPE  H12B18054   3.227   1.772   1.948  0.1968 -1.6332  0.9104
  162SAPE   C1118055   3.354   1.628   1.851  0.2956 -0.8767 -0.6729
  162SAPE  H11A18056   3.394   1.589   1.947  0.1919  0.0264 -0.2540
  162SAPE  H11B18057   3.411   1.717   1.817 -1.6360  0.8386  0.3750
  162SAPE     P18058   3.312   1.385   1.739  0.0999  0.0920 -0.1747
  162SAPE   O1318059   3.161   1.389   1.721 -0.4689 -0.0267  0.1093
  162SAPE   O1418060   3.399   1.319   1.638  0.2560  0.0217  0.2319
  162SAPE   O1218061   3.354   1.533   1.748 -0.4386 -0.0501 -0.1143
  162SAPE   O1118062   3.345   1.326   1.882  0.4276  0.3034  0.0774
  162SAPE    C118063   3.273   1.213   1.936  0.1546  0.5588 -0.7324
  162SAPE    HA18064   3.219   1.148   1.864 -2.5324 -1.4074  2.7546
  162SAPE    HB18065   3.345   1.149   1.990  0.2166  0.9367 -0.3595
  162SAPE    C218066   3.169   1.247   2.050 -0.1172 -0.0478  0.1169
  162SAPE    HS18067   3.095   1.315   2.004  0.6178  0.0222 -0.9982
  162SAPE   O2118068   3.235   1.316   2.150  0.1247 -0.1337  0.2847
  162SAPE   C2118069   3.196   1.439   2.196  0.2010 -0.3176 -0.4077
  162SAPE   O2218070   3.090   1.495   2.168 -0.5254 -0.2780  0.5433
  162SAPE   C2218071   3.295   1.484   2.303 -0.1202 -0.0347 -0.7140
  162SAPE   H2R18072   3.298   1.404   2.380 -4.0135 -0.7820 -1.1276
  162SAPE   H2S18073   3.397   1.492   2.259 -0.0936  0.1156 -0.6259
  162SAPE    C318074   3.104   1.113   2.098 -0.2514  0.0418  0.0004
  162SAPE    HX18075   3.179   1.041   2.136  1.5631  1.1430 -1.3262
  162SAPE    HY18076   3.050   1.059   2.016 -2.0741 -0.1643  1.2717
  162SAPE   O3118077   3.001   1.145   2.196 -0.0442 -0.3204 -0.4109
  162SAPE   C3118078   2.888   1.187   2.138  0.2960  0.5343 -0.1080
  162SAPE   O3218079   2.872   1.213   2.022 -0.5831  0.3916  0.3541
  162SAPE   C3218080   2.777   1.189   2.240  0.0528  0.3859  0.9291
  162SAPE   H2X18081   2.751   1.295   2.266  0.3359  0.4850  0.8123
  162SAPE   H2Y18082   2.815   1.135   2.329  1.9884 -1.1868 -0.7651
  162SAPE   C2318083   3.259   1.623   2.364 -0.3504 -0.4288  0.1673
  162SAPE   H3R18084   3.219   1.679   2.277 -1.7470 -0.5770  0.6761
  162SAPE   H3S18085   3.346   1.670   2.415 -1.6517  1.2303  0.9476
  162SAPE   C2418086   3.134   1.624   2.456 -0.4471 -0.2608 -0.4742
  162SAPE   H4R18087   3.059   1.571   2.395  0.2743 -1.7277 -0.1182
  162SAPE   H4S18088   3.097   1.725   2.484  0.2993 -0.6227  2.1452
  162SAPE   C2518089   3.162   1.545   2.582  0.5665  0.3733 -0.3798
  162SAPE   H5R18090   3.244   1.591   2.638  0.9842 -1.4214  0.5198
  162SAPE   C2618091   3.089   1.440   2.639  0.2116 -1.2909 -0.1664
  162SAPE   H6R18092   3.118   1.417   2.743  0.5873  1.6673  0.4878
  162SAPE   C2718093   2.966   1.373   2.585 -0.2700  0.2169  0.4587
  162SAPE   H7R18094   2.955   1.402   2.479  4.9409 -2.5196 -1.1911
  162SAPE   H7S18095   2.882   1.412   2.647 -0.2246 -0.3446  0.8808
  162SAPE   C2818096   2.968   1.223   2.590 -0.6779 -0.2488  0.1359
  162SAPE   H8R18097   3.039   1.188   2.514 -1.0034  0.3544 -0.4662
  162SAPE   C2918098   2.909   1.130   2.668 -0.4117 -0.6726  0.3688
  162SAPE   H9R18099   2.941   1.025   2.662 -0.7304 -0.7542  0.0611
  162SAPE  C21018100   2.808   1.160   2.773 -0.6203 -0.0889  0.1535
  162SAPE  H10R18101   2.741   1.241   2.736  3.0552  2.4808 -1.5143
  162SAPE  H10S18102   2.861   1.202   2.861  0.1249 -1.4349  0.3803
  162SAPE  C21118103   2.737   1.029   2.810  0.3368  1.1006  0.3191
  162SAPE  H11R18104   2.681   0.987   2.726 -0.2717  0.6688  0.9284
  162SAPE  C21218105   2.721   0.969   2.935  0.1848 -0.3847  0.3781
  162SAPE  H12R18106   2.655   0.882   2.937 -0.0515 -0.2508 -0.8285
  162SAPE  C21318107   2.783   1.003   3.066  0.1117  0.2263 -0.1819
  162SAPE  H13R18108   2.872   0.936   3.070 -0.4193 -0.4359  1.6772
  162SAPE  H13S18109   2.712   0.963   3.141  0.3363  1.4195  0.6928
  162SAPE  C21418110   2.806   1.146   3.117 -0.5140  0.8385  0.9260
  162SAPE  H14R18111   2.733   1.220   3.081 -1.1305  0.0152  0.4470
  162SAPE  C21518112   2.913   1.183   3.190  0.2192  0.3209  0.9432
  162SAPE  H15R18113   2.924   1.290   3.212 -1.2633  0.9223 -0.9891
  162SAPE  C21618114   3.030   1.095   3.241  0.0137  0.6474 -0.5340
  162SAPE  H16R18115   3.126   1.147   3.220  0.9794 -1.2688 -1.0387
  162SAPE  H16S18116   3.037   1.000   3.185 -0.2262  0.0452  0.4367
  162SAPE  C21718117   3.024   1.054   3.391  0.0943 -0.4271  0.7922
  162SAPE  H17R18118   3.041   1.138   3.462  0.3094 -0.9982  1.4284
  162SAPE  H17S18119   3.110   0.985   3.410  0.2911 -0.3394  0.2453
  162SAPE  C21818120   2.898   0.986   3.434 -0.0401  0.7156 -0.0126
  162SAPE  H18R18121   2.873   0.900   3.369 -1.2827 -0.2362  1.6128
  162SAPE  H18S18122   2.808   1.049   3.417 -0.5143 -0.4624 -2.2792
  162SAPE  C21918123   2.896   0.931   3.579  0.1451 -0.2133 -0.6306
  162SAPE  H19R18124   2.792   0.908   3.610  0.7209 -0.5842  1.1444
  162SAPE  H19S18125   2.906   1.016   3.650 -3.0409  0.0197 -0.2945
  162SAPE  C22018126   2.996   0.823   3.622 -0.6193 -0.5417 -0.2086
  162SAPE  H20R18127   2.968   0.724   3.580  3.2704 -1.6045 -0.7469
  162SAPE  H20S18128   3.019   0.814   3.730  1.4141 -1.0138 -0.6389
  162SAPE  H20T18129   3.095   0.844   3.574 -0.1451 -0.2067  0.8884
  162SAPE   C3318130   2.662   1.103   2.186 -0.6121  0.5587 -0.5658
  162SAPE   H3X18131   2.690   0.996   2.180 -1.1384  0.4342 -0.7625
  162SAPE   H3Y18132   2.638   1.130   2.081 -0.9972  0.4049 -0.5154
  162SAPE   C3418133   2.535   1.089   2.266 -0.0538 -0.3118 -0.2467
  162SAPE   H4X18134   2.469   1.024   2.205  0.2343 -1.1422  0.3235
  162SAPE   H4Y18135   2.483   1.187   2.252  0.6522 -0.2003 -2.5695
  162SAPE   C3518136   2.558   1.029   2.407  0.3383 -0.6531 -0.3434
  162SAPE   H5X18137   2.593   1.113   2.470  0.4171 -1.0202  0.1053
  162SAPE   H5Y18138   2.638   0.956   2.383  0.4941 -0.9201  0.9286
  162SAPE   C3618139   2.432   0.957   2.453  0.0522  0.4258 -0.0924
  162SAPE   H6X18140   2.402   0.879   2.379  0.1466 -0.6329  0.9609
  162SAPE   H6Y18141   2.354   1.035   2.464 -0.0689  0.2994 -0.0581
  162SAPE   C3718142   2.453   0.875   2.578  0.4178  0.0832 -0.5559
  162SAPE   H7X18143   2.473   0.939   2.666  1.5139 -1.2629  0.2195
  162SAPE   H7Y18144   2.543   0.811   2.564  0.9344  0.7904 -0.5319
  162SAPE   C3818145   2.334   0.786   2.609 -0.0371 -0.4506 -0.0215
  162SAPE   H8X18146   2.324   0.713   2.526 -0.6808 -0.2359 -0.1399
  162SAPE   H8Y18147   2.239   0.843   2.615 -0.9464 -2.0208  1.2332
  162SAPE   C3918148   2.344   0.709   2.747  0.0002  0.8126 -0.0524
  162SAPE   H9X18149   2.334   0.795   2.816  0.8465  0.3929  0.6189
  162SAPE   H9Y18150   2.441   0.657   2.763  0.0489  1.6222  2.7880
  162SAPE  C31018151   2.226   0.618   2.785  0.3876 -0.0727  0.2807
  162SAPE  H10X18152   2.238   0.525   2.726 -0.4638 -0.4549  0.6852
  162SAPE  H10Y18153   2.136   0.675   2.754  1.4123  1.2905 -0.2828
  162SAPE  C31118154   2.223   0.574   2.930 -0.3620 -0.3308  0.7494
  162SAPE  H11X18155   2.327   0.545   2.954 -0.5865 -1.1223  0.8096
  162SAPE  H11Y18156   2.165   0.480   2.937 -1.2360 -0.0865 -1.9681
  162SAPE  C31218157   2.150   0.667   3.035  0.0020 -0.0869 -0.2538
  162SAPE  H12X18158   2.049   0.680   2.990 -0.2246 -3.1538 -0.8831
  162SAPE  H12Y18159   2.200   0.766   3.043 -0.1520 -0.0374  0.1388
  162SAPE  C31318160   2.126   0.594   3.163 -0.3022  0.1947  0.0369
  162SAPE  H13X18161   2.227   0.561   3.195 -0.5992  2.1212  3.4119
  162SAPE  H13Y18162   2.062   0.504   3.145  0.8979 -0.7260  0.2863
  162SAPE  C31418163   2.050   0.666   3.278 -0.3308 -0.0500  0.2612
  162SAPE  H14X18164   1.956   0.702   3.230  1.0565  0.5835 -2.1303
  162SAPE  H14Y18165   2.113   0.751   3.312  0.1262 -0.8741  1.5757
  162SAPE  C31518166   2.026   0.564   3.392 -0.1786  0.0988 -0.6055
  162SAPE  H15X18167   2.127   0.519   3.403 -0.3560  0.1251  1.5774
  162SAPE  H15Y18168   1.955   0.486   3.356  1.1796 -1.3048 -0.3654
  162SAPE  C31618169   1.986   0.623   3.528  0.4643  1.3170 -0.3973
  162SAPE  H16X18170   2.073   0.681   3.565  0.4535  0.9277  0.2524
  162SAPE  H16Y18171   1.974   0.538   3.598 -0.2741  0.6175 -1.3504
  162SAPE  C31718172   1.861   0.706   3.529 -0.2839 -0.1385 -0.2083
  162SAPE  H17X18173   1.777   0.658   3.474 -0.4396 -0.8878  0.6644
  162SAPE  H17Y18174   1.884   0.798   3.470 -0.3382 -0.6519 -1.0516
  162SAPE  C31818175   1.803   0.730   3.663 -0.4581  0.4874  0.1352
  162SAPE  H18X18176   1.724   0.808   3.667  0.6002  1.5266  2.5533
  162SAPE  H18Y18177   1.883   0.762   3.732 -0.5651 -1.3922  1.1974
  162SAPE  H18Z18178   1.756   0.643   3.714  1.1099  0.5212  1.7270
  163SAPE     N18179   0.470   5.058   1.878 -0.2792 -0.3512 -0.3023
  163SAPE   HN118180   0.418   5.009   1.803  0.5246 -1.6419 -0.0365
  163SAPE   HN218181   0.451   5.158   1.855  0.0849 -0.2554 -0.1992
  163SAPE   HN318182   0.571   5.037   1.862 -0.6297 -1.3846 -1.2212
  163SAPE   C1218183   0.423   5.016   2.015 -0.3962 -0.3844 -0.0857
  163SAPE  H12A18184   0.318   5.052   2.027 -0.0615  0.0530  1.8419
  163SAPE  H12B18185   0.494   5.066   2.085 -0.4456 -0.7031  0.1987
  163SAPE   C1118186   0.432   4.862   2.037  0.0452  0.5839  0.0565
  163SAPE  H11A18187   0.375   4.846   2.131 -0.0646  0.4835 -0.0260
  163SAPE  H11B18188   0.536   4.826   2.054  0.0235  0.7436  0.5316
  163SAPE     P18189   0.411   4.629   1.921 -0.0657 -0.1091 -0.6159
  163SAPE   O1318190   0.295   4.543   1.888  0.2011 -0.5578  0.0113
  163SAPE   O1418191   0.526   4.624   1.827  0.7955 -0.2979 -0.3077
  163SAPE   O1218192   0.366   4.786   1.929 -0.4200 -0.3186 -0.0080
  163SAPE   O1118193   0.459   4.602   2.070 -0.3311  0.0551 -0.0863
  163SAPE    C118194   0.390   4.512   2.158  0.4942  0.7361 -0.4414
  163SAPE    HA18195   0.282   4.534   2.173  0.0472 -1.8667  0.7156
  163SAPE    HB18196   0.407   4.406   2.127 -0.3362  0.5860 -0.4005
  163SAPE    C218197   0.447   4.542   2.297 -0.1324 -0.9178  0.7640
  163SAPE    HS18198   0.435   4.453   2.363  2.5579  0.5583  3.4919
  163SAPE   O2118199   0.384   4.660   2.357  0.1701  0.5481 -0.3531
  163SAPE   C2118200   0.324   4.646   2.471 -0.0431  0.1751  0.1384
  163SAPE   O2218201   0.310   4.539   2.534  0.3743 -0.2835 -0.3985
  163SAPE   C2218202   0.259   4.773   2.512  0.1113  0.2699 -0.0846
  163SAPE   H2R18203   0.226   4.831   2.424  0.8760  1.1440  0.1966
  163SAPE   H2S18204   0.177   4.748   2.583  0.5205  1.6896  0.9395
  163SAPE    C318205   0.598   4.571   2.306 -0.0854  0.3037 -0.3491
  163SAPE    HX18206   0.594   4.673   2.263 -1.9326 -0.7107 -2.8880
  163SAPE    HY18207   0.653   4.509   2.231  2.1360 -0.0593  1.4578
  163SAPE   O3118208   0.646   4.552   2.441  0.3039  0.0029 -0.7048
  163SAPE   C3118209   0.690   4.662   2.496 -1.1370 -0.3005  1.0165
  163SAPE   O3218210   0.703   4.773   2.444 -0.0705 -0.3319 -0.8016
  163SAPE   C3218211   0.703   4.636   2.648  0.6342 -0.2191 -0.0880
  163SAPE   H2X18212   0.648   4.542   2.671 -0.3357 -0.0748 -1.6670
  163SAPE   H2Y18213   0.645   4.716   2.699  2.3933 -0.1615  1.9662
  163SAPE   C2318214   0.356   4.857   2.607  0.4962  0.2394  0.6664
  163SAPE   H3R18215   0.319   4.962   2.619  0.6298  0.4025 -0.2528
  163SAPE   H3S18216   0.450   4.870   2.550 -0.5791 -1.8110 -1.7785
  163SAPE   C2418217   0.363   4.793   2.745 -1.2138 -0.8068 -0.6117
  163SAPE   H4R18218   0.411   4.693   2.739  2.6578  0.8264  0.0687
  163SAPE   H4S18219   0.255   4.784   2.771 -1.1001 -0.2938  0.0672
  163SAPE   C2518220   0.430   4.883   2.849  0.4698  0.9245  0.1560
  163SAPE   H5R18221   0.403   4.990   2.847 -2.3499  0.2802 -1.1083
  163SAPE   C2618222   0.509   4.843   2.952 -0.2508 -0.6734  0.3571
  163SAPE   H6R18223   0.561   4.923   3.006  2.0342 -2.3113  0.6976
  163SAPE   C2718224   0.538   4.698   2.989  0.5843 -0.5206  0.4016
  163SAPE   H7R18225   0.639   4.682   3.034  1.5124  0.0507 -1.3582
  163SAPE   H7S18226   0.525   4.630   2.903 -0.5349 -1.6607  1.4456
  163SAPE   C2818227   0.422   4.656   3.077 -0.1658  0.0006 -0.3426
  163SAPE   H8R18228   0.335   4.625   3.019  0.7130 -2.4061 -0.4618
  163SAPE   C2918229   0.427   4.643   3.213  0.6265 -0.2707 -0.0242
  163SAPE   H9R18230   0.339   4.594   3.257  1.1520 -1.0220  0.2275
  163SAPE  C21018231   0.538   4.678   3.314 -0.1420 -0.5631  0.3345
  163SAPE  H10R18232   0.499   4.751   3.388  2.6662  0.8959  0.5144
  163SAPE  H10S18233   0.618   4.727   3.254 -0.5141 -1.5790 -1.0500
  163SAPE  C21118234   0.602   4.561   3.380 -1.0360 -0.1377 -0.1159
  163SAPE  H11R18235   0.596   4.474   3.313 -0.9032 -0.4054  0.2181
  163SAPE  C21218236   0.659   4.543   3.500  0.1176 -0.4604  0.6569
  163SAPE  H12R18237   0.706   4.449   3.531 -1.0088 -1.1482  0.3563
  163SAPE  C21318238   0.677   4.659   3.607 -0.2413 -0.4625  0.0740
  163SAPE  H13R18239   0.591   4.660   3.678  0.6253 -1.9875  1.1997
  163SAPE  H13S18240   0.694   4.750   3.546  0.8957 -1.4989 -1.1954
  163SAPE  C21418241   0.805   4.624   3.680  0.0650 -0.3156 -0.5492
  163SAPE  H14R18242   0.896   4.668   3.638 -1.1680  1.7974 -1.1648
  163SAPE  C21518243   0.814   4.568   3.804  0.4667 -0.5923  0.3023
  163SAPE  H15R18244   0.910   4.565   3.858  0.2313 -0.8028  0.7155
  163SAPE  C21618245   0.697   4.520   3.884 -0.0309  0.4484 -0.4362
  163SAPE  H16R18246   0.598   4.538   3.838 -1.0150 -0.5511  1.1777
  163SAPE  H16S18247   0.702   4.571   3.983  0.0638 -0.0973 -0.1522
  163SAPE  C21718248   0.695   4.376   3.941 -0.0416 -0.0562  0.1974
  163SAPE  H17R18249   0.621   4.365   4.023 -0.1931 -2.1268 -0.1588
  163SAPE  H17S18250   0.797   4.362   3.983  0.0234 -1.5751 -0.4044
  163SAPE  C21818251   0.658   4.273   3.833 -0.1737 -0.1933  0.0708
  163SAPE  H18R18252   0.736   4.289   3.755 -1.4806 -0.6697 -1.3846
  163SAPE  H18S18253   0.567   4.305   3.777 -0.1073  3.5496  1.8160
  163SAPE  C21918254   0.669   4.129   3.887  0.2254 -0.6195  1.1530
  163SAPE  H19R18255   0.649   4.147   3.994 -1.2496 -1.8975  1.1295
  163SAPE  H19S18256   0.778   4.105   3.886  0.2640 -0.7046 -1.5993
  163SAPE  C22018257   0.585   4.029   3.818  0.1254 -0.0809  0.1833
  163SAPE  H20R18258   0.483   4.070   3.800  0.6276  0.2130 -2.3789
  163SAPE  H20S18259   0.586   3.930   3.867  0.3593 -0.5769 -0.8010
  163SAPE  H20T18260   0.626   4.010   3.716 -0.2654 -0.5639  0.1142
  163SAPE   C3318261   0.849   4.637   2.684 -1.0044 -0.0593 -1.1751
  163SAPE   H3X18262   0.856   4.678   2.787 -0.3298 -1.2767 -0.7106
  163SAPE   H3Y18263   0.896   4.723   2.632 -0.7064  0.7126  0.3136
  163SAPE   C3418264   0.921   4.499   2.666  1.0228 -0.3819  0.1226
  163SAPE   H4X18265   1.028   4.520   2.686  1.3853 -0.4257 -1.6379
  163SAPE   H4Y18266   0.923   4.454   2.565  2.2711  1.0645 -0.5309
  163SAPE   C3518267   0.884   4.378   2.761 -0.2225  0.4730  0.2217
  163SAPE   H5X18268   0.969   4.306   2.758  2.7500  3.6990  0.4499
  163SAPE   H5Y18269   0.796   4.338   2.707  0.1217 -0.4674  0.3227
  163SAPE   C3618270   0.847   4.408   2.903  0.5093  0.1735 -0.8508
  163SAPE   H6X18271   0.785   4.319   2.925 -0.5355 -0.2590 -4.8937
  163SAPE   H6Y18272   0.800   4.507   2.924  2.2233  0.5428  1.7309
  163SAPE   C3718273   0.968   4.400   2.998 -0.7561  0.2402  0.6499
  163SAPE   H7X18274   1.037   4.487   2.998  0.0335 -0.3568  0.0602
  163SAPE   H7Y18275   1.021   4.306   2.970 -3.4776 -1.1143 -0.3529
  163SAPE   C3818276   0.912   4.379   3.142  0.4969  0.5015  0.0498
  163SAPE   H8X18277   0.834   4.300   3.134 -1.3326  2.2004  0.3453
  163SAPE   H8Y18278   0.869   4.473   3.183 -1.8632 -1.0916  1.4552
  163SAPE   C3918279   1.017   4.327   3.239 -0.9139  0.6181  0.6693
  163SAPE   H9X18280   1.104   4.396   3.234  1.1656 -1.9447 -0.7270
  163SAPE   H9Y18281   1.068   4.233   3.212  1.6515  2.3235 -0.8756
  163SAPE  C31018282   0.968   4.315   3.379  0.1121  0.1331  0.4864
  163SAPE  H10X18283   0.898   4.229   3.384 -0.5536  0.2273 -3.6478
  163SAPE  H10Y18284   0.905   4.402   3.405  0.2730  0.3960  0.0046
  163SAPE  C31118285   1.074   4.275   3.473 -0.2454 -0.0128  0.4472
  163SAPE  H11X18286   1.154   4.350   3.456 -1.3824  1.2433  0.4087
  163SAPE  H11Y18287   1.114   4.176   3.444  0.9090  0.8177 -0.9348
  163SAPE  C31218288   1.025   4.234   3.615  0.6916  0.0586  0.2504
  163SAPE  H12X18289   0.944   4.158   3.612 -0.7249  1.5048  0.2912
  163SAPE  H12Y18290   0.971   4.326   3.647  0.5709 -0.6495  2.1641
  163SAPE  C31318291   1.133   4.190   3.710 -0.4992 -0.1232 -0.2446
  163SAPE  H13X18292   1.212   4.263   3.684  0.7903 -0.1346  3.2132
  163SAPE  H13Y18293   1.152   4.085   3.679 -3.4617 -0.9815  0.5258
  163SAPE  C31418294   1.091   4.196   3.856 -0.3924  0.2845 -0.7399
  163SAPE  H14X18295   1.021   4.114   3.883  0.4849  0.2357  1.6119
  163SAPE  H14Y18296   1.019   4.278   3.881 -2.4078 -0.4395 -3.6847
  163SAPE  C31518297   1.205   4.211   3.953 -0.0254  0.8016  0.5678
  163SAPE  H15X18298   1.286   4.276   3.917  0.7679 -0.6879 -0.4551
  163SAPE  H15Y18299   1.251   4.110   3.941 -1.8113 -0.2147  1.6629
  163SAPE  C31618300   1.176   4.238   4.096 -0.0503  0.7719  1.1200
  163SAPE  H16X18301   1.249   4.176   4.152  0.5596  0.5601  0.1134
  163SAPE  H16Y18302   1.074   4.207   4.127  0.0234  1.6427  2.3038
  163SAPE  C31718303   1.200   4.389   4.128 -0.6498  0.6325  0.0360
  163SAPE  H17X18304   1.294   4.415   4.075  0.4088  1.1214  2.0583
  163SAPE  H17Y18305   1.230   4.390   4.235  1.1370 -1.8591 -0.3423
  163SAPE  C31818306   1.074   4.481   4.098  0.0668 -0.4590  0.3870
  163SAPE  H18X18307   1.053   4.494   3.990  1.3815  1.3395  0.2957
  163SAPE  H18Y18308   1.095   4.584   4.132  3.7287 -0.6308 -0.8832
  163SAPE  H18Z18309   0.982   4.431   4.135  1.3030 -2.2045  1.3004
  164SAPE     N18310   4.487   2.154   1.570  0.0342  0.3887  0.2627
  164SAPE   HN118311   4.437   2.239   1.602  2.3276  0.9587  2.7035
  164SAPE   HN218312   4.582   2.155   1.613  0.1453  1.8233  0.0351
  164SAPE   HN318313   4.497   2.164   1.467 -0.1447 -0.2141  0.1841
  164SAPE   C1218314   4.404   2.035   1.597 -0.8706  0.4018  0.4971
  164SAPE  H12A18315   4.455   1.945   1.557 -2.6114  0.5192 -2.2243
  164SAPE  H12B18316   4.301   2.051   1.558 -0.5868  0.6632 -0.1498
  164SAPE   C1118317   4.396   2.027   1.751  0.6468 -0.0929 -0.3519
  164SAPE  H11A18318   4.313   1.960   1.785 -0.0691  0.5870 -0.7221
  164SAPE  H11B18319   4.359   2.122   1.796 -1.0932 -1.0368  0.3165
  164SAPE     P18320   4.586   2.050   1.932 -0.3278  0.2020  0.0067
  164SAPE   O1318321   4.702   1.968   1.976  0.1799 -0.4351 -0.0612
  164SAPE   O1418322   4.605   2.193   1.912 -0.0024 -0.0854  0.7247
  164SAPE   O1218323   4.528   1.986   1.802 -0.3075 -0.1535  0.2894
  164SAPE   O1118324   4.469   2.042   2.043  0.8094 -0.2387  0.3330
  164SAPE    C118325   4.400   1.916   2.058  0.2717 -0.1622  0.6235
  164SAPE    HA18326   4.290   1.929   2.046  0.1825 -2.2895 -1.5524
  164SAPE    HB18327   4.433   1.841   1.983  0.4337 -0.2103  0.7434
  164SAPE    C218328   4.436   1.835   2.188 -0.2854 -0.0471 -0.0164
  164SAPE    HS18329   4.370   1.746   2.192 -2.1642  1.2776  3.8915
  164SAPE   O2118330   4.401   1.926   2.291 -0.8354 -0.3886  0.2369
  164SAPE   C2118331   4.280   1.924   2.332 -1.0129 -0.1594  0.4785
  164SAPE   O2218332   4.194   1.848   2.290  0.1892 -0.6267 -0.1425
  164SAPE   C2218333   4.278   2.027   2.445 -0.0493 -0.1257 -0.5115
  164SAPE   H2R18334   4.377   2.077   2.449 -0.5229  0.7835  2.0744
  164SAPE   H2S18335   4.198   2.100   2.424 -0.4007  0.2775  1.8823
  164SAPE    C318336   4.588   1.794   2.206  0.0553 -0.0484 -0.5100
  164SAPE    HX18337   4.669   1.868   2.190  1.2660 -1.3620 -0.7006
  164SAPE    HY18338   4.607   1.716   2.129 -1.3401  0.0392 -0.9713
  164SAPE   O3118339   4.622   1.747   2.335  0.2014  0.4126  0.6027
  164SAPE   C3118340   4.734   1.680   2.351 -0.4074  0.5978 -1.4313
  164SAPE   O3218341   4.824   1.659   2.272  0.6751 -0.1032  0.1954
  164SAPE   C3218342   4.739   1.621   2.493 -0.6212  0.7361 -0.3075
  164SAPE   H2X18343   4.814   1.541   2.503 -2.1922 -0.7655 -0.0889
  164SAPE   H2Y18344   4.639   1.581   2.522 -0.6121  0.5731 -0.5018
  164SAPE   C2318345   4.241   1.949   2.576 -0.2953  0.0838  0.2740
  164SAPE   H3R18346   4.174   1.867   2.543 -1.1021  1.3234 -1.3267
  164SAPE   H3S18347   4.176   2.011   2.642  0.4887  1.7036 -0.4244
  164SAPE   C2418348   4.360   1.893   2.649  0.4341 -0.4557 -0.9264
  164SAPE   H4R18349   4.411   1.986   2.682 -1.6236  0.6433 -0.6980
  164SAPE   H4S18350   4.420   1.830   2.579  0.6153 -2.2927  0.7804
  164SAPE   C2518351   4.313   1.807   2.766  0.8429 -0.2620 -0.1877
  164SAPE   H5R18352   4.295   1.704   2.735 -0.2086  0.7308 -3.2224
  164SAPE   C2618353   4.296   1.846   2.896  0.1425 -1.1811  0.8147
  164SAPE   H6R18354   4.264   1.761   2.957  2.1273  0.0694  3.8107
  164SAPE   C2718355   4.314   1.984   2.963 -0.0667  0.1265 -0.5023
  164SAPE   H7R18356   4.242   2.049   2.910 -0.7225 -0.9736 -0.9821
  164SAPE   H7S18357   4.417   2.025   2.951  0.4407 -0.6504  0.8951
  164SAPE   C2818358   4.295   1.974   3.109  0.1645  0.7711  0.4325
  164SAPE   H8R18359   4.362   1.904   3.161  1.1663  1.6621  0.3765
  164SAPE   C2918360   4.195   2.035   3.178  0.9941 -0.3714 -0.1445
  164SAPE   H9R18361   4.189   2.028   3.287  1.6151  0.3401 -0.0609
  164SAPE  C21018362   4.086   2.126   3.116  0.0521  0.3445  0.2803
  164SAPE  H10R18363   4.047   2.083   3.021 -1.0992  1.6464  0.1356
  164SAPE  H10S18364   4.132   2.218   3.075 -2.5539  0.9936 -1.4084
  164SAPE  C21118365   3.983   2.174   3.217  0.0583 -0.2115  0.2225
  164SAPE  H11R18366   3.884   2.146   3.179  0.8844 -3.3477  0.0617
  164SAPE  C21218367   3.993   2.234   3.342  0.1423 -0.8622  0.6163
  164SAPE  H12R18368   3.909   2.282   3.393 -1.9773 -1.0855 -2.3766
  164SAPE  C21318369   4.125   2.273   3.406 -0.9728 -0.0208  0.8090
  164SAPE  H13R18370   4.191   2.321   3.330  1.6625 -2.0974  1.6209
  164SAPE  H13S18371   4.179   2.181   3.438  0.7939  0.1314 -1.4204
  164SAPE  C21418372   4.132   2.372   3.515 -0.3278 -1.0680  0.0044
  164SAPE  H14R18373   4.183   2.467   3.490  0.3068 -1.0829  1.1781
  164SAPE  C21518374   4.116   2.354   3.646 -0.3470  0.0806  0.3476
  164SAPE  H15R18375   4.149   2.432   3.716  1.3995  1.2578 -1.6610
  164SAPE  C21618376   4.067   2.232   3.721 -0.1749 -0.2117  0.5814
  164SAPE  H16R18377   3.993   2.173   3.662  0.6469 -1.7151  1.0193
  164SAPE  H16S18378   4.010   2.261   3.812 -0.7252  0.1685  0.1242
  164SAPE  C21718379   4.180   2.137   3.770 -0.1623  0.2983  0.1074
  164SAPE  H17R18380   4.249   2.200   3.831  0.3326 -1.4821  1.4851
  164SAPE  H17S18381   4.235   2.104   3.679  0.1746 -0.5730  0.6163
  164SAPE  C21818382   4.134   2.008   3.836 -0.0803  0.2950 -0.8105
  164SAPE  H18R18383   4.229   1.951   3.845 -1.3177 -1.6839  0.4912
  164SAPE  H18S18384   4.058   1.951   3.778 -1.2407  1.5208 -0.5321
  164SAPE  C21918385   4.068   2.033   3.967  0.2376 -0.2526  0.0106
  164SAPE  H19R18386   3.968   2.070   3.935  1.2151  1.4704 -1.2567
  164SAPE  H19S18387   4.128   2.112   4.017  0.8614 -0.0602 -1.0091
  164SAPE  C22018388   4.048   1.911   4.060  0.5067 -0.4253  0.0067
  164SAPE  H20R18389   3.971   1.841   4.023  1.8097 -1.0040 -1.7287
  164SAPE  H20S18390   4.023   1.959   4.157 -0.2090  0.4695 -0.5949
  164SAPE  H20T18391   4.144   1.858   4.073  0.6848  0.0407  0.6391
  164SAPE   C3318392   4.761   1.732   2.604  0.4783 -0.5168  0.5671
  164SAPE   H3X18393   4.714   1.831   2.590  0.5002  0.0344  3.6825
  164SAPE   H3Y18394   4.868   1.762   2.611  0.2459  0.0106  2.5601
  164SAPE   C3418395   4.711   1.680   2.741 -0.3294  0.3244  0.1355
  164SAPE   H4X18396   4.756   1.578   2.750  1.7026  1.0630 -0.9364
  164SAPE   H4Y18397   4.600   1.677   2.744 -0.3770  1.8488  0.3079
  164SAPE   C3518398   4.752   1.760   2.861  0.1448 -0.5503  0.1920
  164SAPE   H5X18399   4.701   1.859   2.858 -1.0684 -1.1632 -2.0948
  164SAPE   H5Y18400   4.860   1.785   2.854  0.0041  0.0304 -0.0501
  164SAPE   C3618401   4.715   1.698   2.994  0.4896 -0.4560  0.7304
  164SAPE   H6X18402   4.770   1.601   2.999  0.9861 -0.2040  0.2897
  164SAPE   H6Y18403   4.605   1.685   3.000 -0.2129  2.0551 -3.0750
  164SAPE   C3718404   4.756   1.781   3.114  0.7335 -0.2524  0.0333
  164SAPE   H7X18405   4.708   1.879   3.094  0.3015 -0.9721 -2.9470
  164SAPE   H7Y18406   4.865   1.801   3.104  1.1610 -2.9374 -1.8429
  164SAPE   C3818407   4.738   1.708   3.247 -0.2410 -0.1393 -0.8108
  164SAPE   H8X18408   4.718   1.602   3.220  0.8525  0.0102 -2.3163
  164SAPE   H8Y18409   4.641   1.750   3.283  0.8967  1.8731  0.1083
  164SAPE   C3918410   4.836   1.760   3.354  0.4484  0.1928 -0.3880
  164SAPE   H9X18411   4.832   1.871   3.353 -1.8663  0.1493 -0.8082
  164SAPE   H9Y18412   4.943   1.738   3.331  1.3206  1.2002  2.2835
  164SAPE  C31018413   4.794   1.689   3.487  0.2408  0.0007  0.4326
  164SAPE  H10X18414   4.692   1.717   3.521  0.6862 -0.5247  2.2907
  164SAPE  H10Y18415   4.870   1.734   3.554  0.0405 -0.2542  0.8341
  164SAPE  C31118416   4.821   1.536   3.488  0.8455  0.3504 -0.2333
  164SAPE  H11X18417   4.929   1.523   3.465  0.4803 -0.3821 -1.6544
  164SAPE  H11Y18418   4.757   1.485   3.412  0.2876 -1.9442  1.6629
  164SAPE  C31218419   4.772   1.478   3.616  0.9618  0.4694  0.1629
  164SAPE  H12X18420   4.748   1.371   3.596 -1.4204  0.7736  1.0086
  164SAPE  H12Y18421   4.670   1.518   3.633  0.4494  0.3769 -2.2933
  164SAPE  C31318422   4.854   1.482   3.746  0.5135 -0.0370 -0.2158
  164SAPE  H13X18423   4.895   1.584   3.759  0.7869 -0.2045  0.2348
  164SAPE  H13Y18424   4.939   1.412   3.732  0.3391 -0.1217 -0.8878
  164SAPE  C31418425   4.782   1.440   3.871  0.3801  0.3688 -0.3282
  164SAPE  H14X18426   4.707   1.361   3.851 -1.0375  1.0745  1.8290
  164SAPE  H14Y18427   4.733   1.531   3.913 -0.2813  0.5616 -1.4959
  164SAPE  C31518428   4.869   1.379   3.978  0.5090  0.0274 -0.3851
  164SAPE  H15X18429   4.934   1.458   4.022  0.9522 -0.2903 -0.4589
  164SAPE  H15Y18430   4.938   1.309   3.927  0.6317 -1.2945  1.4807
  164SAPE  C31618431   4.783   1.295   4.081  0.0610  0.8192  0.3252
  164SAPE  H16X18432   4.728   1.203   4.051 -0.0960  0.5189  1.4780
  164SAPE  H16Y18433   4.700   1.365   4.106 -0.7141 -0.1514  0.5642
  164SAPE  C31718434   4.858   1.249   4.203  0.9460  0.0041 -0.4824
  164SAPE  H17X18435   4.929   1.330   4.229  1.8948 -0.7505 -0.6622
  164SAPE  H17Y18436   4.927   1.166   4.177  1.8771  0.7268 -0.3609
  164SAPE  C31818437   4.767   1.206   4.318 -0.8490 -0.3424 -0.5424
  164SAPE  H18X18438   4.831   1.178   4.405  0.2897  0.1001 -1.2249
  164SAPE  H18Y18439   4.701   1.120   4.293 -0.4816 -1.0669  0.8383
  164SAPE  H18Z18440   4.701   1.282   4.364  1.9240  0.5502  2.3266
  165SAPE     N18441   4.299   5.279   1.462  0.5111  0.1593 -0.1760
  165SAPE   HN118442   4.372   5.250   1.531  0.8294 -1.9014 -1.2983
  165SAPE   HN218443   4.218   5.317   1.515 -1.7071 -3.2500 -0.8147
  165SAPE   HN318444   4.265   5.196   1.409  1.9327 -0.9154  0.5178
  165SAPE   C1218445   4.351   5.394   1.365 -0.3942  0.5789  0.6134
  165SAPE  H12A18446   4.399   5.342   1.280  0.3066 -0.4940  1.6385
  165SAPE  H12B18447   4.427   5.447   1.426  1.8344 -1.8319  0.1287
  165SAPE   C1118448   4.239   5.488   1.328 -0.3275 -0.3471  0.2838
  165SAPE  H11A18449   4.146   5.443   1.287  0.4108 -3.2117  1.4594
  165SAPE  H11B18450   4.270   5.547   1.239 -0.4628 -1.2491 -0.3751
  165SAPE     P18451   4.092   5.671   1.430  0.1409 -0.1027 -0.2063
  165SAPE   O1318452   4.150   5.805   1.431  0.3589  0.1040  0.0060
  165SAPE   O1418453   3.999   5.641   1.318 -0.8148  0.0149  0.3360
  165SAPE   O1218454   4.207   5.567   1.440 -0.5015 -0.0529 -0.4812
  165SAPE   O1118455   4.031   5.650   1.572  0.0020 -0.1161 -0.0241
  165SAPE    C118456   3.947   5.750   1.624 -0.5466  0.1081  0.3962
  165SAPE    HA18457   4.007   5.844   1.634 -0.6131  0.2175 -0.2092
  165SAPE    HB18458   3.863   5.773   1.555 -1.0589  2.9104  1.7656
  165SAPE    C218459   3.874   5.711   1.757 -0.1511 -0.3666  0.4458
  165SAPE    HS18460   3.836   5.809   1.793  0.4179 -0.3853  1.1202
  165SAPE   O2118461   3.957   5.649   1.857  1.0347  0.6018 -0.1852
  165SAPE   C2118462   3.973   5.708   1.971 -0.4151 -0.0440 -0.2830
  165SAPE   O2218463   3.916   5.815   2.005 -0.7233  0.1898  0.5302
  165SAPE   C2218464   4.059   5.631   2.069  0.0111  0.2045  0.5139
  165SAPE   H2R18465   4.141   5.599   2.002  0.4964  0.8743  0.7783
  165SAPE   H2S18466   4.093   5.699   2.150  1.2838 -0.5892  0.6698
  165SAPE    C318467   3.745   5.632   1.716  0.9366 -0.3667 -0.5165
  165SAPE    HX18468   3.777   5.555   1.642  1.7098 -1.0053  0.4682
  165SAPE    HY18469   3.674   5.699   1.663 -0.0283 -1.7822 -1.1000
  165SAPE   O3118470   3.677   5.561   1.829  0.1124 -0.2028 -0.2899
  165SAPE   C3118471   3.611   5.643   1.915  0.2070  0.1009  0.5972
  165SAPE   O3218472   3.617   5.764   1.910 -0.2181  0.1980 -0.2673
  165SAPE   C3218473   3.532   5.565   2.015 -0.3425  0.2419  0.0685
  165SAPE   H2X18474   3.608   5.533   2.089  0.4420 -2.1256 -1.6226
  165SAPE   H2Y18475   3.489   5.474   1.969 -1.7877  0.4814  0.8990
  165SAPE   C2318476   3.987   5.503   2.135 -0.2841 -0.6321 -0.9443
  165SAPE   H3R18477   4.066   5.441   2.183  0.8908  0.0972 -1.8855
  165SAPE   H3S18478   3.936   5.454   2.049 -2.2191 -2.0200  0.8822
  165SAPE   C2418479   3.883   5.539   2.250  0.1499 -0.5870 -0.5381
  165SAPE   H4R18480   3.807   5.607   2.205  0.4051  0.2315  0.2453
  165SAPE   H4S18481   3.927   5.599   2.332 -0.4553  0.6445 -1.0948
  165SAPE   C2518482   3.831   5.404   2.297 -0.2277 -0.6875 -1.1975
  165SAPE   H5R18483   3.747   5.354   2.248 -0.0667 -1.1905 -0.9706
  165SAPE   C2618484   3.869   5.332   2.409  0.3559 -0.0473  0.4209
  165SAPE   H6R18485   3.808   5.244   2.437 -0.2458  1.2482  3.7041
  165SAPE   C2718486   3.972   5.375   2.509 -0.1096  0.0212  0.0654
  165SAPE   H7R18487   4.050   5.434   2.455 -0.7225 -0.0088 -0.8708
  165SAPE   H7S18488   4.030   5.288   2.547  0.1914  0.0248 -0.3799
  165SAPE   C2818489   3.921   5.450   2.627 -0.1246  0.8650 -0.6241
  165SAPE   H8R18490   3.891   5.554   2.609  0.5698  1.0375 -0.8327
  165SAPE   C2918491   3.904   5.396   2.752  0.5173 -0.6450  0.2226
  165SAPE   H9R18492   3.862   5.462   2.829 -0.1010  1.0535 -1.4956
  165SAPE  C21018493   3.954   5.269   2.809 -0.0221 -0.2939  0.4078
  165SAPE  H10R18494   3.984   5.207   2.722 -1.2637  0.3556 -0.5137
  165SAPE  H10S18495   3.873   5.216   2.864  0.0485  1.1121  1.9408
  165SAPE  C21118496   4.067   5.296   2.907 -1.0681  0.0367 -1.1094
  165SAPE  H11R18497   4.162   5.323   2.857 -0.1085  1.1897  1.1922
  165SAPE  C21218498   4.070   5.296   3.038  0.3701 -0.3781 -0.6440
  165SAPE  H12R18499   4.165   5.315   3.092 -1.1129  2.0895  1.3306
  165SAPE  C21318500   3.953   5.264   3.122 -0.0759  0.0570 -0.3781
  165SAPE  H13R18501   3.934   5.154   3.128 -1.9278  0.4189  1.2445
  165SAPE  H13S18502   3.861   5.295   3.069  0.2113  0.7894 -0.4643
  165SAPE  C21418503   3.959   5.341   3.255 -0.5099  0.9226  0.3455
  165SAPE  H14R18504   3.917   5.443   3.255 -0.5480  0.9358  1.7605
  165SAPE  C21518505   4.010   5.298   3.371  0.1092  0.1137  0.0612
  165SAPE  H15R18506   4.010   5.368   3.457 -0.3998  0.6238 -0.3439
  165SAPE  C21618507   4.064   5.164   3.388 -0.2999 -0.3124 -0.2604
  165SAPE  H16R18508   4.162   5.170   3.440 -0.8380  1.5477  0.5935
  165SAPE  H16S18509   4.072   5.100   3.297  0.8578 -1.0098  0.3083
  165SAPE  C21718510   3.976   5.088   3.488 -0.2670 -0.2670  0.2568
  165SAPE  H17R18511   3.869   5.098   3.461 -0.1965  0.8997  0.3590
  165SAPE  H17S18512   4.001   5.136   3.585 -0.4744 -0.1167  0.2361
  165SAPE  C21818513   4.007   4.940   3.495  0.3418  0.4982  0.4314
  165SAPE  H18R18514   4.116   4.918   3.493  0.0947 -0.7970  0.0905
  165SAPE  H18S18515   3.968   4.899   3.399  0.4815  0.0867  0.5491
  165SAPE  C21918516   3.942   4.865   3.616 -0.5123  0.3770  0.5525
  165SAPE  H19R18517   3.963   4.759   3.590 -1.2028  0.1469  0.9137
  165SAPE  H19S18518   3.832   4.883   3.613 -0.5149  0.4936 -3.0097
  165SAPE  C22018519   3.991   4.897   3.754 -0.5658  0.8659  0.0308
  165SAPE  H20R18520   3.935   4.833   3.826 -2.0714  3.7357  1.5912
  165SAPE  H20S18521   3.984   5.004   3.782  1.1152  0.9902  0.0263
  165SAPE  H20T18522   4.098   4.870   3.765  0.1084  3.7990  1.4010
  165SAPE   C3318523   3.404   5.629   2.084 -0.0365  0.0523  0.4065
  165SAPE   H3X18524   3.324   5.644   2.009 -0.2964  1.7878  0.9941
  165SAPE   H3Y18525   3.431   5.729   2.123  2.3053 -0.8541  1.2720
  165SAPE   C3418526   3.346   5.546   2.201  0.4515 -0.3770  0.8668
  165SAPE   H4X18527   3.310   5.454   2.150  1.4019  1.2258 -2.9768
  165SAPE   H4Y18528   3.263   5.611   2.236 -0.4284 -1.1143  0.2061
  165SAPE   C3518529   3.446   5.525   2.318  0.4726  0.6544  0.3021
  165SAPE   H5X18530   3.484   5.623   2.355 -1.0869  0.7420  1.8410
  165SAPE   H5Y18531   3.538   5.475   2.282  0.8334 -0.0739  2.1411
  165SAPE   C3618532   3.379   5.452   2.437 -0.3449 -0.4607 -0.3082
  165SAPE   H6X18533   3.328   5.361   2.399  0.1429 -1.0065  0.3136
  165SAPE   H6Y18534   3.300   5.511   2.488 -1.3417 -1.4169 -0.7063
  165SAPE   C3718535   3.473   5.428   2.554  0.0863  0.4832 -0.2891
  165SAPE   H7X18536   3.510   5.523   2.597  2.1957  0.6498 -2.2536
  165SAPE   H7Y18537   3.559   5.366   2.522  0.6375  0.8809  0.4081
  165SAPE   C3818538   3.416   5.355   2.678  0.7150 -0.0801  0.8215
  165SAPE   H8X18539   3.383   5.251   2.657  0.3414  0.3569 -0.9334
  165SAPE   H8Y18540   3.334   5.420   2.714  1.1058  1.0528 -0.2586
  165SAPE   C3918541   3.522   5.346   2.790 -0.2654 -0.3816  1.6879
  165SAPE   H9X18542   3.552   5.448   2.820 -0.7107 -0.2761  1.7785
  165SAPE   H9Y18543   3.608   5.298   2.738 -2.5505  0.1198 -3.0147
  165SAPE  C31018544   3.469   5.268   2.906 -0.1724  0.3453  0.7499
  165SAPE  H10X18545   3.547   5.214   2.963 -0.2772  0.6384  1.1840
  165SAPE  H10Y18546   3.395   5.195   2.868 -1.3044  1.6054  0.4247
  165SAPE  C31118547   3.405   5.354   3.011  0.2680 -0.1529 -0.7353
  165SAPE  H11X18548   3.321   5.295   3.053  0.6950 -0.9403 -0.9595
  165SAPE  H11Y18549   3.357   5.433   2.950 -1.2002 -0.9935 -0.7156
  165SAPE  C31218550   3.508   5.410   3.114 -0.5071 -0.0148  0.5855
  165SAPE  H12X18551   3.573   5.489   3.070  0.6145 -1.1209  0.2025
  165SAPE  H12Y18552   3.573   5.325   3.146  1.4009  0.6002 -1.4209
  165SAPE  C31318553   3.445   5.450   3.240  0.0607 -0.0715 -0.2601
  165SAPE  H13X18554   3.416   5.357   3.293  2.9449 -1.0238 -0.1744
  165SAPE  H13Y18555   3.353   5.505   3.210 -0.6840 -0.9613  0.3550
  165SAPE  C31418556   3.525   5.546   3.320  0.1159  1.2625 -0.1241
  165SAPE  H14X18557   3.504   5.650   3.286 -3.1211  0.1305 -2.0919
  165SAPE  H14Y18558   3.633   5.520   3.310 -0.3169 -1.2294  0.8977
  165SAPE  C31518559   3.499   5.533   3.472  0.3727  0.4641  0.3853
  165SAPE  H15X18560   3.543   5.433   3.491  0.4450  0.0404 -1.8271
  165SAPE  H15Y18561   3.393   5.521   3.504  0.4954  1.4106  1.1829
  165SAPE  C31618562   3.579   5.640   3.553  0.1184  0.1537  0.4341
  165SAPE  H16X18563   3.546   5.745   3.537  1.5102  0.8391  1.8256
  165SAPE  H16Y18564   3.680   5.635   3.505 -0.7510 -0.8294 -1.3824
  165SAPE  C31718565   3.583   5.603   3.705  0.5361 -0.4761  0.0942
  165SAPE  H17X18566   3.632   5.504   3.715  2.1184  0.2844  0.2144
  165SAPE  H17Y18567   3.476   5.613   3.733  0.9167  0.8531  1.1795
  165SAPE  C31818568   3.655   5.700   3.808  0.3929  0.0157  0.1844
  165SAPE  H18X18569   3.597   5.794   3.800  0.8560  0.1999 -1.1370
  165SAPE  H18Y18570   3.759   5.701   3.769  0.4324 -1.4949  0.2036
  165SAPE  H18Z18571   3.645   5.671   3.915 -3.5075  1.0424  0.2356
  166SAPE     N18572   3.059   4.085   1.420  0.4244 -0.1755 -0.2268
  166SAPE   HN118573   3.153   4.066   1.379  0.0650 -0.9599 -0.7223
  166SAPE   HN218574   3.039   3.996   1.471  1.0101 -1.0035 -1.4018
  166SAPE   HN318575   2.986   4.089   1.346 -0.6177  0.5073  0.8007
  166SAPE   C1218576   3.036   4.197   1.522  0.5596 -0.4364  0.2967
  166SAPE  H12A18577   3.103   4.186   1.610  0.2317  2.6432  1.0603
  166SAPE  H12B18578   2.932   4.198   1.561  0.3467  3.3728 -0.0058
  166SAPE   C1118579   3.054   4.325   1.446 -0.6566 -0.0053 -0.2375
  166SAPE  H11A18580   2.970   4.328   1.373 -1.2031  1.1142  0.4003
  166SAPE  H11B18581   3.148   4.318   1.388  0.4300 -2.6688  1.6465
  166SAPE     P18582   3.126   4.546   1.578 -0.4312 -0.5121 -0.2631
  166SAPE   O1318583   3.267   4.497   1.567  0.1090 -0.0031  0.1905
  166SAPE   O1418584   3.089   4.686   1.525  0.0315 -0.2020  0.9908
  166SAPE   O1218585   3.024   4.440   1.525  0.6771  0.6775  0.0625
  166SAPE   O1118586   3.089   4.547   1.733 -0.6782  0.1258  0.1086
  166SAPE    C118587   3.074   4.421   1.804 -0.7527 -0.0294 -0.2089
  166SAPE    HA18588   2.984   4.371   1.763 -0.1632 -0.0514 -1.5368
  166SAPE    HB18589   3.163   4.360   1.775 -0.6990 -0.0338 -0.0363
  166SAPE    C218590   3.058   4.429   1.957 -0.0293  0.4035  0.0437
  166SAPE    HS18591   3.021   4.329   1.989  1.1705 -0.8882 -2.2876
  166SAPE   O2118592   2.980   4.542   1.996 -0.4935  0.1817 -0.1561
  166SAPE   C2118593   2.864   4.555   1.945  0.2007 -0.0574  0.4900
  166SAPE   O2218594   2.804   4.475   1.876 -0.2065  0.1445 -1.0058
  166SAPE   C2218595   2.798   4.684   1.986  0.5450 -0.2656  0.1210
  166SAPE   H2R18596   2.802   4.747   1.895  0.2352 -1.0119 -0.4219
  166SAPE   H2S18597   2.690   4.669   2.006  0.1614 -0.0017 -1.5619
  166SAPE    C318598   3.205   4.432   2.011  0.5552 -0.2933 -0.0133
  166SAPE    HX18599   3.264   4.511   1.960  0.9294 -1.4239 -1.3720
  166SAPE    HY18600   3.252   4.335   1.986 -1.7003 -1.9368  1.6185
  166SAPE   O3118601   3.199   4.434   2.150 -0.0872  0.3809 -0.0084
  166SAPE   C3118602   3.203   4.559   2.202  0.1526 -0.2270 -0.0936
  166SAPE   O3218603   3.203   4.663   2.140 -0.2595  0.2216 -0.4936
  166SAPE   C3218604   3.211   4.542   2.351 -0.2843 -0.6537  0.1355
  166SAPE   H2X18605   3.267   4.449   2.375  0.9345  0.1790  0.5688
  166SAPE   H2Y18606   3.104   4.536   2.380 -0.5956  0.1005 -0.7934
  166SAPE   C2318607   2.867   4.750   2.108 -0.4835 -0.3258 -0.0040
  166SAPE   H3R18608   2.821   4.851   2.105 -1.6478 -0.8432  0.1391
  166SAPE   H3S18609   2.976   4.771   2.097 -0.5305  1.7359  2.5196
  166SAPE   C2418610   2.833   4.692   2.248  0.5752 -0.0410 -0.2616
  166SAPE   H4R18611   2.876   4.590   2.257  0.4915 -0.0352  0.2504
  166SAPE   H4S18612   2.723   4.683   2.244  0.2263  2.9212  0.2438
  166SAPE   C2518613   2.875   4.781   2.362 -0.1743  0.2660  0.0352
  166SAPE   H5R18614   2.969   4.836   2.350 -0.5668  1.3704  1.6380
  166SAPE   C2618615   2.815   4.803   2.485  0.4940 -0.2321  0.0385
  166SAPE   H6R18616   2.858   4.861   2.568 -1.1547  1.6606 -0.3453
  166SAPE   C2718617   2.691   4.737   2.536  0.1492 -0.2403 -0.5295
  166SAPE   H7R18618   2.664   4.655   2.466 -3.4390  0.2080  0.1309
  166SAPE   H7S18619   2.598   4.797   2.528  0.5099  0.2919 -0.9174
  166SAPE   C2818620   2.714   4.685   2.671 -0.3227  0.0235 -0.1809
  166SAPE   H8R18621   2.780   4.598   2.667  1.1124  1.0743 -0.2973
  166SAPE   C2918622   2.659   4.724   2.791 -0.2883  0.0840  0.0010
  166SAPE   H9R18623   2.709   4.671   2.874  2.5451 -1.4635 -2.5112
  166SAPE  C21018624   2.557   4.835   2.815 -0.3472  0.5593  0.6123
  166SAPE  H10R18625   2.504   4.854   2.719 -2.2203 -0.8972  1.2874
  166SAPE  H10S18626   2.614   4.929   2.834 -1.0473  1.6365 -2.0544
  166SAPE  C21118627   2.463   4.785   2.921  0.3373  0.2155  0.1261
  166SAPE  H11R18628   2.377   4.730   2.879  0.1068  0.3985  0.3558
  166SAPE  C21218629   2.450   4.823   3.047  0.4656 -0.3379  0.1790
  166SAPE  H12R18630   2.368   4.771   3.098  0.2350 -0.2080 -0.0552
  166SAPE  C21318631   2.535   4.911   3.129  0.4615  0.3958 -0.3565
  166SAPE  H13R18632   2.473   4.969   3.201  0.1884  0.1671 -0.4029
  166SAPE  H13S18633   2.567   4.991   3.059 -2.1567  1.4951 -0.4438
  166SAPE  C21418634   2.646   4.832   3.189 -0.3527 -0.1827 -0.0698
  166SAPE  H14R18635   2.734   4.835   3.124 -1.0170  2.0672 -0.9763
  166SAPE  C21518636   2.644   4.760   3.301 -0.1632  0.0644 -0.2969
  166SAPE  H15R18637   2.730   4.704   3.341 -0.7198 -1.9996 -1.8032
  166SAPE  C21618638   2.524   4.746   3.386  0.0112 -0.1319 -0.0207
  166SAPE  H16R18639   2.439   4.803   3.342 -1.1626 -0.9739  1.0543
  166SAPE  H16S18640   2.535   4.797   3.484 -1.0481  1.7246 -0.8092
  166SAPE  C21718641   2.489   4.594   3.400  0.0240 -0.7974  0.3576
  166SAPE  H17R18642   2.582   4.534   3.390  2.0191  2.3071 -1.5229
  166SAPE  H17S18643   2.416   4.569   3.320  0.7099  2.5686 -1.5249
  166SAPE  C21818644   2.422   4.546   3.531  0.8290 -0.1131 -0.0239
  166SAPE  H18R18645   2.477   4.576   3.623  1.2505 -1.4109  0.1762
  166SAPE  H18S18646   2.419   4.435   3.521 -0.9339  0.0710 -2.1618
  166SAPE  C21918647   2.284   4.610   3.534  0.2863 -0.2233  0.0842
  166SAPE  H19R18648   2.222   4.581   3.447 -0.8968  2.6491 -0.1641
  166SAPE  H19S18649   2.300   4.719   3.517  0.6573 -0.2818  0.0343
  166SAPE  C22018650   2.211   4.587   3.662 -0.2248  0.6123  0.4341
  166SAPE  H20R18651   2.109   4.632   3.662 -0.5025  0.1151 -1.5917
  166SAPE  H20S18652   2.270   4.636   3.743 -0.3781 -1.4794  1.8884
  166SAPE  H20T18653   2.206   4.477   3.678 -2.0659  0.2631 -1.9401
  166SAPE   C3318654   3.278   4.663   2.425 -1.0785  0.4431  0.1702
  166SAPE   H3X18655   3.259   4.762   2.378  0.0949  0.6273  0.0646
  166SAPE   H3Y18656   3.387   4.643   2.425 -1.0473  0.5628 -1.2002
  166SAPE   C3418657   3.241   4.657   2.574  0.6031 -0.0809  0.3251
  166SAPE   H4X18658   3.134   4.686   2.566  0.6596 -0.2345 -1.5748
  166SAPE   H4Y18659   3.297   4.740   2.622  0.1551 -0.2206  1.1084
  166SAPE   C3518660   3.273   4.532   2.650  0.5111  0.0118 -0.5903
  166SAPE   H5X18661   3.380   4.520   2.678  0.1616  0.9029  1.3257
  166SAPE   H5Y18662   3.251   4.437   2.597 -0.4254 -1.8001  2.7347
  166SAPE   C3618663   3.180   4.546   2.772 -0.5265  0.1422 -0.8920
  166SAPE   H6X18664   3.166   4.449   2.825 -0.7189  0.7118  0.1323
  166SAPE   H6Y18665   3.077   4.570   2.738 -1.8299 -1.0395  1.9628
  166SAPE   C3718666   3.232   4.647   2.879  0.8224  0.6029  0.3568
  166SAPE   H7X18667   3.252   4.742   2.825  2.2294  0.0031 -0.2435
  166SAPE   H7Y18668   3.324   4.602   2.924  1.1012 -2.6206 -2.9995
  166SAPE   C3818669   3.134   4.662   2.994  0.0014 -0.1442 -0.0755
  166SAPE   H8X18670   3.133   4.573   3.060  0.3925 -0.6374 -0.7215
  166SAPE   H8Y18671   3.033   4.684   2.953 -0.8374 -1.1619  1.3828
  166SAPE   C3918672   3.165   4.784   3.078  0.2407 -0.2705  0.4626
  166SAPE   H9X18673   3.199   4.867   3.012  0.9351 -0.0992  1.0236
  166SAPE   H9Y18674   3.254   4.759   3.140  0.9821 -0.6430 -0.7111
  166SAPE  C31018675   3.048   4.835   3.157  0.5364 -0.6257  0.2387
  166SAPE  H10X18676   3.003   4.759   3.225 -3.7462  0.0462 -1.5062
  166SAPE  H10Y18677   2.970   4.855   3.081  0.6521 -0.5331  0.1457
  166SAPE  C31118678   3.068   4.970   3.232  0.3511 -0.0252  0.3698
  166SAPE  H11X18679   3.089   5.059   3.169 -2.2485  1.1992  1.0771
  166SAPE  H11Y18680   3.152   4.954   3.303  1.0240 -0.5097 -0.5256
  166SAPE  C31218681   2.936   5.002   3.302 -0.2756  1.3350  0.1049
  166SAPE  H12X18682   2.903   4.911   3.356  1.3799 -0.5396 -1.8243
  166SAPE  H12Y18683   2.858   5.028   3.228 -0.7853 -0.0288  0.1488
  166SAPE  C31318684   2.970   5.107   3.409 -0.1092 -0.1123 -0.3616
  166SAPE  H13X18685   2.986   5.213   3.377  0.9395  0.2184  1.1379
  166SAPE  H13Y18686   3.068   5.078   3.453  0.1331  1.8192  0.4815
  166SAPE  C31418687   2.869   5.105   3.525 -0.1225  0.0811  0.0568
  166SAPE  H14X18688   2.878   5.194   3.591 -2.3081  0.3009  0.1364
  166SAPE  H14Y18689   2.896   5.015   3.584 -0.4545 -0.7359 -1.0288
  166SAPE  C31518690   2.729   5.107   3.475  0.7954  0.8289  0.6315
  166SAPE  H15X18691   2.660   5.114   3.561 -1.0272 -0.1973 -0.6721
  166SAPE  H15Y18692   2.699   5.015   3.420  0.3760  2.5517 -2.2518
  166SAPE  C31618693   2.689   5.226   3.386 -0.6103  0.6334 -0.1509
  166SAPE  H16X18694   2.748   5.224   3.292  0.8389  0.2190  0.7385
  166SAPE  H16Y18695   2.717   5.316   3.445 -2.2282  0.6659  0.5946
  166SAPE  C31718696   2.537   5.231   3.358 -0.0142  0.7134  0.3490
  166SAPE  H17X18697   2.483   5.268   3.448  0.0197 -0.1315  0.7279
  166SAPE  H17Y18698   2.516   5.125   3.334  1.2582  0.8446 -1.4841
  166SAPE  C31818699   2.483   5.315   3.246 -0.5456 -0.5712 -0.0647
  166SAPE  H18X18700   2.374   5.334   3.254 -0.8761 -0.2120 -3.5969
  166SAPE  H18Y18701   2.514   5.278   3.146  2.8895 -0.3261  0.7616
  166SAPE  H18Z18702   2.533   5.415   3.246 -2.3722  0.3850  0.0335
  167SAPE     N18703   5.448   0.949   1.558  0.3068 -0.1441 -0.4871
  167SAPE   HN118704   5.359   0.901   1.532  2.0987 -3.6892 -0.8072
  167SAPE   HN218705   5.496   0.987   1.475 -0.3283 -2.6234 -2.1014
  167SAPE   HN318706   5.495   0.862   1.590  0.2322  0.1473  0.4521
  167SAPE   C1218707   5.420   1.053   1.658 -0.1533 -0.0341 -0.2118
  167SAPE  H12A18708   5.504   1.126   1.652 -0.0109 -0.2324 -0.6278
  167SAPE  H12B18709   5.411   1.004   1.758  0.3796  0.1615 -0.0638
  167SAPE   C1118710   5.289   1.130   1.628  0.7638 -0.0616  0.7225
  167SAPE  H11A18711   5.300   1.170   1.525 -2.2036 -0.1111  0.2862
  167SAPE  H11B18712   5.263   1.217   1.692  0.5688  1.4217 -1.2728
  167SAPE     P18713   5.095   0.989   1.750 -0.3317 -0.1346 -0.0674
  167SAPE   O1318714   4.967   1.062   1.757  0.2386 -0.0630  0.1049
  167SAPE   O1418715   5.097   0.838   1.726 -0.4954 -0.2381 -0.0427
  167SAPE   O1218716   5.174   1.045   1.632 -0.2794  0.3622  0.3028
  167SAPE   O1118717   5.179   1.020   1.874  0.2489  0.9323  0.6586
  167SAPE    C118718   5.163   1.123   1.968 -0.0162  0.1751  0.5247
  167SAPE    HA18719   5.263   1.160   1.998  0.5244  0.5026 -1.5723
  167SAPE    HB18720   5.114   1.214   1.928  0.8022 -0.1413 -1.3012
  167SAPE    C218721   5.080   1.084   2.089  0.2062  0.0556 -0.0103
  167SAPE    HS18722   5.081   1.164   2.166  1.5698 -0.0203  0.0881
  167SAPE   O2118723   5.144   0.966   2.142  0.3195  0.1811 -0.3102
  167SAPE   C2118724   5.156   0.957   2.268  0.1808  0.2732 -0.4474
  167SAPE   O2218725   5.117   1.045   2.345 -0.0536 -0.3934 -0.2317
  167SAPE   C2218726   5.226   0.833   2.318  0.4797 -0.0294 -0.0147
  167SAPE   H2R18727   5.252   0.770   2.230 -1.9062  0.7326 -1.3499
  167SAPE   H2S18728   5.319   0.875   2.361  0.9206  1.1486 -1.9973
  167SAPE    C318729   4.935   1.038   2.054 -0.0320 -0.3456  0.4025
  167SAPE    HX18730   4.938   0.936   2.009  0.9901  0.6488 -1.9647
  167SAPE    HY18731   4.889   1.109   1.982 -0.4181 -0.0170  0.9632
  167SAPE   O3118732   4.855   1.032   2.168 -0.7821 -0.3308 -0.6675
  167SAPE   C3118733   4.816   1.153   2.211  0.1005  0.0324  0.2958
  167SAPE   O3218734   4.837   1.264   2.154  0.1799  0.2148  0.2615
  167SAPE   C3218735   4.741   1.141   2.347 -0.4706  0.3365 -0.3034
  167SAPE   H2X18736   4.801   1.079   2.417 -0.1682  2.9781  1.9349
  167SAPE   H2Y18737   4.659   1.076   2.309 -1.4043  1.8406 -0.9645
  167SAPE   C2318738   5.153   0.771   2.436 -0.4796 -0.0008 -0.0385
  167SAPE   H3R18739   5.052   0.729   2.417  0.1197 -0.9763 -1.1918
  167SAPE   H3S18740   5.149   0.850   2.514 -1.8103  2.0888 -2.0998
  167SAPE   C2418741   5.232   0.654   2.500 -0.1485 -1.2043  0.6185
  167SAPE   H4R18742   5.241   0.578   2.420  4.1420 -0.0143 -0.3221
  167SAPE   H4S18743   5.177   0.608   2.585 -2.2793  1.6497  0.9463
  167SAPE   C2518744   5.379   0.684   2.539 -0.1800  0.3656  0.0705
  167SAPE   H5R18745   5.447   0.704   2.454  1.7243 -0.7606  1.2432
  167SAPE   C2618746   5.438   0.670   2.656 -0.0172 -0.0560 -0.3354
  167SAPE   H6R18747   5.543   0.702   2.659 -0.2354  0.7127 -0.5932
  167SAPE   C2718748   5.374   0.631   2.790  0.3325 -0.2460  0.0355
  167SAPE   H7R18749   5.268   0.601   2.778  0.1401 -2.0763  4.5602
  167SAPE   H7S18750   5.387   0.713   2.863  0.3665 -2.3621  2.5284
  167SAPE   C2818751   5.447   0.516   2.855 -0.5367  0.7417  0.9554
  167SAPE   H8R18752   5.507   0.452   2.789  0.6253  1.2902  1.4478
  167SAPE   C2918753   5.462   0.513   2.992  0.3220 -0.4792 -0.1825
  167SAPE   H9R18754   5.522   0.432   3.038 -0.8585 -2.5434 -2.0879
  167SAPE  C21018755   5.406   0.588   3.107  0.3534 -0.4752  0.8795
  167SAPE  H10R18756   5.343   0.514   3.161  0.5270 -1.8873 -0.7972
  167SAPE  H10S18757   5.338   0.675   3.091  1.5079  0.0764 -1.3808
  167SAPE  C21118758   5.512   0.637   3.196  0.5752 -0.0960  0.0647
  167SAPE  H11R18759   5.610   0.644   3.147 -0.2720 -1.4943 -1.9801
  167SAPE  C21218760   5.484   0.698   3.315  0.0021  0.3215 -0.3834
  167SAPE  H12R18761   5.564   0.722   3.387 -0.2537  2.2965 -0.6950
  167SAPE  C21318762   5.344   0.724   3.368 -0.2218  0.0012  0.1661
  167SAPE  H13R18763   5.326   0.640   3.438 -0.9484 -0.1616 -0.2042
  167SAPE  H13S18764   5.264   0.709   3.292  1.1100 -1.1989 -1.0444
  167SAPE  C21418765   5.297   0.846   3.441 -0.2505 -0.5656  0.3544
  167SAPE  H14R18766   5.317   0.846   3.549  3.2223  1.8499 -0.0955
  167SAPE  C21518767   5.228   0.956   3.389  0.2315  0.3805  0.2847
  167SAPE  H15R18768   5.209   1.044   3.453  1.5142  1.3053 -0.5600
  167SAPE  C21618769   5.205   0.979   3.238 -0.6079  0.6582 -0.0055
  167SAPE  H16R18770   5.260   0.903   3.178  0.1166  0.9505  0.2728
  167SAPE  H16S18771   5.246   1.079   3.214  0.3778  0.3957  0.5358
  167SAPE  C21718772   5.058   0.965   3.199  0.6108 -0.2212  0.3995
  167SAPE  H17R18773   4.993   1.043   3.243 -1.7202 -0.3448 -2.5110
  167SAPE  H17S18774   5.016   0.864   3.220 -1.1585  0.7457  1.7511
  167SAPE  C21818775   5.033   1.003   3.055 -0.7263  0.1372 -0.3384
  167SAPE  H18R18776   5.095   1.094   3.039 -0.4029 -0.0658 -0.2657
  167SAPE  H18S18777   4.923   1.015   3.045 -1.0324 -1.7421  0.4120
  167SAPE  C21918778   5.100   0.900   2.954  0.1530  0.2381  0.2811
  167SAPE  H19R18779   5.069   0.799   2.988 -0.6485  0.9337  1.6998
  167SAPE  H19S18780   5.210   0.903   2.941  0.0985 -1.6103 -1.0222
  167SAPE  C22018781   5.036   0.922   2.813 -0.2367 -0.2761 -0.6804
  167SAPE  H20R18782   4.930   0.893   2.823 -0.1028  0.0340  3.2424
  167SAPE  H20S18783   5.086   0.873   2.726  0.1227  1.3653 -1.4578
  167SAPE  H20T18784   5.045   1.032   2.796  1.2704 -0.1104  0.8966
  167SAPE   C3318785   4.701   1.274   2.412  0.3178  0.0460 -0.9221
  167SAPE   H3X18786   4.648   1.334   2.335  0.7731  0.2325 -1.0958
  167SAPE   H3Y18787   4.798   1.318   2.442  0.8912 -1.1622 -0.9393
  167SAPE   C3418788   4.618   1.264   2.545  0.2837 -0.0442  1.0256
  167SAPE   H4X18789   4.551   1.176   2.531  1.3341 -0.7502  0.3136
  167SAPE   H4Y18790   4.574   1.365   2.559  2.2314  1.0986 -0.6967
  167SAPE   C3518791   4.711   1.236   2.664  0.3649  0.0638 -0.5975
  167SAPE   H5X18792   4.807   1.292   2.664 -0.6855  1.9817 -1.9736
  167SAPE   H5Y18793   4.743   1.130   2.661 -0.5065 -0.1891 -1.8760
  167SAPE   C3618794   4.629   1.271   2.792 -0.1079  0.4766  0.1525
  167SAPE   H6X18795   4.531   1.219   2.786  0.2398 -0.1483 -0.1610
  167SAPE   H6Y18796   4.607   1.380   2.789 -1.6644  0.3950  3.5677
  167SAPE   C3718797   4.715   1.238   2.913 -0.2610 -0.5355  0.4713
  167SAPE   H7X18798   4.794   1.316   2.921  0.0208 -0.4963 -2.0960
  167SAPE   H7Y18799   4.774   1.146   2.892  0.6943 -0.0634  0.9942
  167SAPE   C3818800   4.638   1.222   3.049  0.3697  0.1236  0.6074
  167SAPE   H8X18801   4.598   1.121   3.026  0.9036  0.1514 -0.5227
  167SAPE   H8Y18802   4.560   1.301   3.060  2.1681  2.3006 -1.1981
  167SAPE   C3918803   4.727   1.234   3.172  0.2298  0.2109 -0.1768
  167SAPE   H9X18804   4.756   1.341   3.183  0.2199  0.1879  0.0819
  167SAPE   H9Y18805   4.819   1.172   3.180 -0.3975 -0.6519  0.5708
  167SAPE  C31018806   4.652   1.197   3.299 -0.4602  0.3132  0.5351
  167SAPE  H10X18807   4.546   1.230   3.309 -0.6836 -0.4575  0.8150
  167SAPE  H10Y18808   4.714   1.240   3.380  0.0024 -1.1500  0.9816
  167SAPE  C31118809   4.654   1.038   3.323  0.8669 -0.1533 -0.0009
  167SAPE  H11X18810   4.760   1.005   3.329  1.2541  0.4106 -2.5109
  167SAPE  H11Y18811   4.604   0.989   3.236  2.1638  0.4372 -1.1129
  167SAPE  C31218812   4.580   1.010   3.457  0.7966  0.0177  0.5937
  167SAPE  H12X18813   4.567   0.901   3.475 -2.2833  0.1142 -0.4732
  167SAPE  H12Y18814   4.478   1.054   3.449  1.5322  1.5660 -0.6942
  167SAPE  C31318815   4.646   1.065   3.583  0.4940  0.0088 -0.3329
  167SAPE  H13X18816   4.585   1.043   3.673  1.3479  4.1243  1.5325
  167SAPE  H13Y18817   4.642   1.176   3.592  2.6464  0.0159  1.4885
  167SAPE  C31418818   4.790   1.004   3.607  0.6535  0.2687  0.2413
  167SAPE  H14X18819   4.845   1.018   3.511 -1.0054  1.8485 -0.5402
  167SAPE  H14Y18820   4.778   0.896   3.632  0.5684 -0.1384 -1.3999
  167SAPE  C31518821   4.872   1.070   3.712  0.0884 -0.3673  0.4723
  167SAPE  H15X18822   4.816   1.092   3.806  1.8455 -0.9436  1.7104
  167SAPE  H15Y18823   4.893   1.163   3.656 -1.1703 -1.6349 -2.3241
  167SAPE  C31618824   4.997   0.989   3.756 -0.7070  0.6779 -0.0129
  167SAPE  H16X18825   5.023   0.912   3.680 -0.1359  1.0797 -0.2315
  167SAPE  H16Y18826   4.982   0.933   3.850  2.0789  1.4331  0.9738
  167SAPE  C31718827   5.123   1.079   3.780 -0.6047  0.7228 -0.6614
  167SAPE  H17X18828   5.097   1.151   3.861  1.0095 -0.0125  0.5630
  167SAPE  H17Y18829   5.148   1.143   3.692 -1.4021  1.8566 -0.0896
  167SAPE  C31818830   5.241   0.999   3.829  0.0890  0.0370 -0.9164
  167SAPE  H18X18831   5.217   0.952   3.927 -1.2256  0.8591 -0.8088
  167SAPE  H18Y18832   5.339   1.050   3.827  0.6108 -0.7954  1.0692
  167SAPE  H18Z18833   5.255   0.907   3.770  2.4871  0.3046 -0.8535
  168SAPE     N18834   0.299   1.532   1.856  0.1669 -0.6216  0.5642
  168SAPE   HN118835   0.231   1.490   1.790  0.6511 -0.2268 -0.2015
  168SAPE   HN218836   0.246   1.598   1.917  0.1263  1.8725 -1.9540
  168SAPE   HN318837   0.370   1.584   1.800  0.3717 -0.9639  0.5007
  168SAPE   C1218838   0.367   1.416   1.928 -0.1926 -0.5879  0.1124
  168SAPE  H12A18839   0.298   1.329   1.938  0.2483 -0.9762 -0.1620
  168SAPE  H12B18840   0.391   1.449   2.032  0.4944 -1.4244  0.2283
  168SAPE   C1118841   0.489   1.360   1.858 -0.0322  0.1265 -0.9324
  168SAPE  H11A18842   0.546   1.298   1.930  0.7136  1.0179 -0.7313
  168SAPE  H11B18843   0.556   1.447   1.840  3.2375 -2.0616 -0.2187
  168SAPE     P18844   0.505   1.153   1.705 -0.1818 -0.5742 -0.4036
  168SAPE   O1318845   0.383   1.094   1.651 -0.6700  0.1876 -0.0548
  168SAPE   O1418846   0.614   1.149   1.606  0.2013 -0.2421 -0.1148
  168SAPE   O1218847   0.455   1.296   1.742 -0.6572  0.0501  0.0852
  168SAPE   O1118848   0.551   1.078   1.839 -0.0863  0.0638  0.5018
  168SAPE    C118849   0.504   0.946   1.864  0.6243 -0.3109  0.0859
  168SAPE    HA18850   0.423   0.909   1.798 -0.6634  0.7335  1.0092
  168SAPE    HB18851   0.582   0.868   1.869 -0.3927 -1.3168  0.7704
  168SAPE    C218852   0.442   0.939   2.006 -0.0002  0.0883  0.0200
  168SAPE    HS18853   0.353   1.006   2.003 -1.1687 -1.4331 -0.7899
  168SAPE   O2118854   0.547   0.984   2.102  0.7953  0.3309  1.1596
  168SAPE   C2118855   0.489   1.017   2.220 -0.0687 -0.8645 -0.3629
  168SAPE   O2218856   0.376   1.057   2.232 -0.2563 -0.5015 -0.2719
  168SAPE   C2218857   0.601   0.988   2.329 -0.2614 -0.0394 -0.5291
  168SAPE   H2R18858   0.619   0.881   2.306  0.2421  0.4696 -2.7327
  168SAPE   H2S18859   0.690   1.049   2.302  1.3074  0.8888  5.2453
  168SAPE    C318860   0.398   0.799   2.038  0.2979 -0.6153  0.1385
  168SAPE    HX18861   0.493   0.741   2.045  2.0308  1.8148 -1.3747
  168SAPE    HY18862   0.335   0.754   1.959  0.7891  1.6591 -1.6665
  168SAPE   O3118863   0.337   0.784   2.170 -0.1088 -0.1503  0.5278
  168SAPE   C3118864   0.206   0.803   2.167  0.8552  0.0509  0.1745
  168SAPE   O3218865   0.140   0.832   2.066 -0.4482 -0.3459 -0.2051
  168SAPE   C3218866   0.136   0.775   2.303 -0.1131  0.5011  1.0266
  168SAPE   H2X18867   0.144   0.667   2.326 -0.4323  0.2916  0.1803
  168SAPE   H2Y18868   0.028   0.790   2.279  0.1171  1.8110  0.7334
  168SAPE   C2318869   0.558   1.017   2.470 -0.1175  0.0868  0.0182
  168SAPE   H3R18870   0.459   0.967   2.479  1.2504 -2.7743  0.3758
  168SAPE   H3S18871   0.544   1.126   2.482  1.7944  0.4423 -0.6374
  168SAPE   C2418872   0.649   0.965   2.584 -0.7698 -0.0152 -0.0589
  168SAPE   H4R18873   0.732   1.040   2.588 -0.5273 -0.1701 -1.6314
  168SAPE   H4S18874   0.690   0.873   2.537  1.0908  1.1950 -0.9466
  168SAPE   C2518875   0.583   0.944   2.717 -0.2447 -0.2278  0.2754
  168SAPE   H5R18876   0.477   0.918   2.718 -0.9018  2.2337  1.4146
  168SAPE   C2618877   0.653   0.943   2.831 -0.4460 -0.5503 -0.2519
  168SAPE   H6R18878   0.598   0.933   2.926  1.2422 -3.2474  0.5623
  168SAPE   C2718879   0.803   0.966   2.854  0.4269  0.4561  0.4195
  168SAPE   H7R18880   0.863   0.977   2.762 -0.4910  0.8578 -0.1453
  168SAPE   H7S18881   0.855   0.884   2.908  0.5709  1.3507  1.6924
  168SAPE   C2818882   0.833   1.085   2.943 -0.5550  0.1737  0.6460
  168SAPE   H8R18883   0.821   1.182   2.894 -0.3296  1.0040  2.1742
  168SAPE   C2918884   0.840   1.095   3.078 -0.5029  0.2279 -0.1157
  168SAPE   H9R18885   0.860   1.192   3.125 -0.9800 -0.3337  1.3046
  168SAPE  C21018886   0.824   0.985   3.184  1.0199 -0.1340 -0.1304
  168SAPE  H10R18887   0.838   0.886   3.136 -0.7511 -1.2250  1.4620
  168SAPE  H10S18888   0.717   0.982   3.213  0.2177 -0.1900 -2.8314
  168SAPE  C21118889   0.908   1.007   3.307 -0.0115  0.5488  0.1283
  168SAPE  H11R18890   1.000   1.065   3.291  2.0322 -2.1865  1.1934
  168SAPE  C21218891   0.878   0.986   3.430 -0.1789 -0.1208 -0.1858
  168SAPE  H12R18892   0.950   1.019   3.506  1.2629  1.0936 -1.9795
  168SAPE  C21318893   0.746   0.919   3.482 -0.2105  0.0484  0.3769
  168SAPE  H13R18894   0.664   0.921   3.407  2.1291 -1.1734 -2.4135
  168SAPE  H13S18895   0.701   0.985   3.559 -0.9751  1.6832 -1.3960
  168SAPE  C21418896   0.769   0.776   3.523 -0.7152 -0.1318 -0.3335
  168SAPE  H14R18897   0.792   0.707   3.441 -0.2797 -0.6221  0.2001
  168SAPE  C21518898   0.761   0.721   3.645  0.1563  0.0606  0.3422
  168SAPE  H15R18899   0.786   0.614   3.653 -1.0479 -0.1704  1.1485
  168SAPE  C21618900   0.751   0.790   3.780 -0.1666  0.1165  0.1015
  168SAPE  H16R18901   0.658   0.760   3.833 -0.4967 -0.6813 -0.8926
  168SAPE  H16S18902   0.748   0.898   3.756 -0.4630 -0.2286 -1.6204
  168SAPE  C21718903   0.880   0.752   3.854 -0.8244  0.5097 -0.5365
  168SAPE  H17R18904   0.884   0.642   3.870  0.6474  0.4328 -1.2914
  168SAPE  H17S18905   0.865   0.779   3.961  1.4006 -1.5727  0.3962
  168SAPE  C21818906   1.002   0.832   3.813 -0.4158 -0.2112  0.2728
  168SAPE  H18R18907   0.973   0.938   3.796 -2.6572 -0.6672  0.9597
  168SAPE  H18S18908   1.052   0.789   3.723  1.1154  0.1419  0.9253
  168SAPE  C21918909   1.104   0.837   3.927 -0.0789 -0.3090  0.8987
  168SAPE  H19R18910   1.210   0.851   3.896 -0.2417 -1.2278 -0.1793
  168SAPE  H19S18911   1.105   0.738   3.978  2.0791 -1.4640 -1.1968
  168SAPE  C22018912   1.077   0.956   4.028 -0.4049  0.6574  0.7266
  168SAPE  H20R18913   0.995   0.924   4.095  1.0223  1.6382  3.0655
  168SAPE  H20S18914   1.059   1.056   3.983 -0.0135  0.9252  1.1472
  168SAPE  H20T18915   1.171   0.986   4.080 -0.1427  1.9148 -0.4017
  168SAPE   C3318916   0.196   0.864   2.410  0.4869 -0.1363 -0.3193
  168SAPE   H3X18917   0.195   0.969   2.375 -1.2297  0.3465  1.0359
  168SAPE   H3Y18918   0.300   0.847   2.446  0.0517  1.2443  1.7591
  168SAPE   C3418919   0.109   0.856   2.540  0.0930 -0.6990  0.2449
  168SAPE   H4X18920   0.014   0.904   2.506  1.1241 -0.2317 -2.1636
  168SAPE   H4Y18921   0.153   0.927   2.614 -1.2634 -0.8604  1.2557
  168SAPE   C3518922   0.086   0.717   2.601  0.1360 -0.1600  0.7432
  168SAPE   H5X18923   0.185   0.668   2.597  0.4766  0.2305  3.1313
  168SAPE   H5Y18924  -0.003   0.676   2.547 -0.3805  0.6937  0.9192
  168SAPE   C3618925   0.057   0.726   2.751  0.7913  0.5592 -0.4113
  168SAPE   H6X18926   0.041   0.622   2.788 -0.9669  1.0428  0.2697
  168SAPE   H6Y18927  -0.038   0.778   2.775 -0.0899 -1.7586  1.5877
  168SAPE   C3718928   0.167   0.769   2.843 -0.3882  0.6410 -0.6413
  168SAPE   H7X18929   0.197   0.875   2.825 -1.0363  1.1983  1.2862
  168SAPE   H7Y18930   0.261   0.715   2.815  0.8866  1.9759  0.8512
  168SAPE   C3818931   0.142   0.740   2.991 -0.7185  0.5734 -0.4961
  168SAPE   H8X18932   0.108   0.635   3.006 -0.3281  0.6269  0.8577
  168SAPE   H8Y18933   0.061   0.806   3.025  0.0212  2.1599 -1.6865
  168SAPE   C3918934   0.272   0.764   3.064  0.0871 -0.2591  0.5093
  168SAPE   H9X18935   0.322   0.850   3.014 -0.8172 -0.8397 -1.5094
  168SAPE   H9Y18936   0.336   0.675   3.049  0.2992  0.0386 -0.4296
  168SAPE  C31018937   0.247   0.777   3.206 -0.0356  0.5948 -0.9128
  168SAPE  H10X18938   0.171   0.703   3.240  1.2844  0.8996  3.2374
  168SAPE  H10Y18939   0.208   0.875   3.243 -0.9272 -0.5444  1.3759
  168SAPE  C31118940   0.378   0.736   3.286  0.3205  0.4725 -0.1032
  168SAPE  H11X18941   0.458   0.802   3.247  1.9589 -0.3215  1.7526
  168SAPE  H11Y18942   0.388   0.626   3.271  0.5202  0.3171  1.0743
  168SAPE  C31218943   0.368   0.750   3.439 -0.0441 -0.5840 -0.7894
  168SAPE  H12X18944   0.444   0.700   3.504  0.3764 -0.1631 -0.9462
  168SAPE  H12Y18945   0.279   0.696   3.476  2.3325 -4.0954  0.3341
  168SAPE  C31318946   0.369   0.902   3.490 -0.2277  0.5081  0.0786
  168SAPE  H13X18947   0.294   0.959   3.431 -0.4548 -0.2261 -0.3658
  168SAPE  H13Y18948   0.466   0.947   3.462 -0.3950  2.0310  1.8021
  168SAPE  C31418949   0.353   0.918   3.640  0.2957 -0.5360  0.5738
  168SAPE  H14X18950   0.435   0.863   3.693  1.5843  2.4670  1.9209
  168SAPE  H14Y18951   0.257   0.870   3.666  0.3654 -1.5403 -0.8855
  168SAPE  C31518952   0.342   1.056   3.683 -0.2248 -0.8317  0.4992
  168SAPE  H15X18953   0.269   1.110   3.619  1.1739  0.4764 -0.0432
  168SAPE  H15Y18954   0.436   1.107   3.654  0.0423 -1.6909 -0.1780
  168SAPE  C31618955   0.325   1.075   3.837 -0.0025  0.2947  0.5538
  168SAPE  H16X18956   0.417   1.042   3.889  1.1616 -0.3655 -1.8400
  168SAPE  H16Y18957   0.246   1.002   3.865  0.2420 -0.0941  0.2250
  168SAPE  C31718958   0.284   1.215   3.876 -0.0542  0.5285 -0.3934
  168SAPE  H17X18959   0.343   1.293   3.823 -1.2908  1.2638 -0.7282
  168SAPE  H17Y18960   0.304   1.222   3.986 -2.8865 -0.3321  0.2616
  168SAPE  C31818961   0.136   1.240   3.861 -0.1182 -0.1883 -0.5691
  168SAPE  H18X18962   0.091   1.235   3.963  0.2392  2.1686 -0.2335
  168SAPE  H18Y18963   0.090   1.162   3.798  0.8557 -1.2067 -0.0488
  168SAPE  H18Z18964   0.120   1.342   3.818 -1.2628 -0.2837 -0.3881
  169SAPE     N18965   4.435   0.762   1.494 -0.2969  0.0717  0.0210
  169SAPE   HN118966   4.439   0.664   1.458 -1.0412 -0.1312  0.4764
  169SAPE   HN218967   4.347   0.802   1.457 -1.0153 -1.8739 -0.4945
  169SAPE   HN318968   4.520   0.815   1.467  0.6305 -1.3234  0.0653
  169SAPE   C1218969   4.438   0.748   1.640 -0.4006 -0.3528  0.0169
  169SAPE  H12A18970   4.487   0.841   1.676  0.3017 -1.1257  1.1304
  169SAPE  H12B18971   4.506   0.662   1.658  0.4484 -0.0868 -1.6736
  169SAPE   C1118972   4.300   0.739   1.703 -0.2107 -0.1025  0.4937
  169SAPE  H11A18973   4.253   0.838   1.687  1.5092  0.7820  0.6153
  169SAPE  H11B18974   4.318   0.725   1.812  0.7007  1.5409  0.5954
  169SAPE     P18975   4.065   0.637   1.638  0.3581 -0.4488 -0.5442
  169SAPE   O1318976   4.021   0.770   1.586  0.7783 -1.1908  0.7316
  169SAPE   O1418977   4.006   0.515   1.573  0.1393  0.8567 -0.2951
  169SAPE   O1218978   4.223   0.631   1.651  0.2598  0.2364 -0.2318
  169SAPE   O1118979   4.024   0.632   1.791  0.2141  0.0628 -0.0290
  169SAPE    C118980   3.891   0.667   1.841 -0.7723  0.9526  0.5866
  169SAPE    HA18981   3.869   0.775   1.827 -1.4355  0.7921  0.3212
  169SAPE    HB18982   3.812   0.611   1.787  0.9305 -0.1936 -0.8128
  169SAPE    C218983   3.883   0.638   1.996  0.4566 -0.3747  0.1913
  169SAPE    HS18984   3.916   0.534   2.015 -0.7922 -0.4188  2.3919
  169SAPE   O2118985   3.752   0.658   2.044  0.3151  0.4271 -0.4273
  169SAPE   C2118986   3.666   0.555   2.042 -0.0523 -0.4334 -0.0979
  169SAPE   O2218987   3.693   0.439   2.006 -0.7377 -1.2643  0.5142
  169SAPE   C2218988   3.526   0.602   2.095  0.1155 -0.2617 -0.0317
  169SAPE   H2R18989   3.475   0.674   2.027 -1.7223 -0.2077  1.3344
  169SAPE   H2S18990   3.477   0.503   2.105  2.2297 -1.4942 -1.1062
  169SAPE    C318991   3.978   0.730   2.071  0.4841  0.2062  0.0953
  169SAPE    HX18992   3.941   0.834   2.062 -1.5345 -0.6205 -2.3139
  169SAPE    HY18993   4.076   0.720   2.020  0.3379 -1.7486  0.1402
  169SAPE   O3118994   3.986   0.680   2.204  0.1504 -0.0525 -0.7592
  169SAPE   C3118995   4.017   0.771   2.300 -0.5006  0.8548  0.2620
  169SAPE   O3218996   4.065   0.879   2.277 -0.5638  0.7866  0.7497
  169SAPE   C3218997   4.001   0.710   2.443  0.6942 -0.2355 -0.2963
  169SAPE   H2X18998   4.098   0.722   2.495  0.0019  0.5821  0.8343
  169SAPE   H2Y18999   3.992   0.600   2.428  0.8572 -0.2688 -0.1499
  169SAPE   C2319000   3.539   0.682   2.235  0.1835  0.3990  0.5103
  169SAPE   H3R19001   3.442   0.733   2.256 -0.3631 -0.5713  0.4040
  169SAPE   H3S19002   3.616   0.762   2.239  0.6346 -0.0026  0.0174
  169SAPE   C2419003   3.551   0.584   2.354  0.3572 -0.0252  0.1161
  169SAPE   H4R19004   3.631   0.632   2.414 -0.2103  2.0228 -0.6859
  169SAPE   H4S19005   3.591   0.489   2.311 -0.1499 -0.4530  0.5764
  169SAPE   C2519006   3.429   0.553   2.435  0.9106 -0.6136 -0.0827
  169SAPE   H5R19007   3.350   0.493   2.387  0.5288 -1.0460  1.0613
  169SAPE   C2619008   3.412   0.615   2.558 -0.4906 -0.0839 -0.4398
  169SAPE   H6R19009   3.319   0.599   2.614 -0.8106  0.1030 -0.9134
  169SAPE   C2719010   3.518   0.687   2.637 -0.0690 -0.0960 -0.0044
  169SAPE   H7R19011   3.467   0.752   2.711 -0.8530 -0.6368 -0.0667
  169SAPE   H7S19012   3.567   0.760   2.568 -0.7552 -0.2268 -0.6353
  169SAPE   C2819013   3.618   0.600   2.710  0.9115  0.4246  0.2278
  169SAPE   H8R19014   3.690   0.551   2.644  2.0324  0.4627  1.3892
  169SAPE   C2919015   3.623   0.587   2.847  0.0870  0.3769 -0.6063
  169SAPE   H9R19016   3.689   0.511   2.891  0.7323  0.9519 -0.5655
  169SAPE  C21019017   3.533   0.647   2.949  0.0417 -0.5112 -0.1836
  169SAPE  H10R19018   3.429   0.652   2.912 -0.7001  0.4141  1.8435
  169SAPE  H10S19019   3.566   0.753   2.957 -0.9587 -0.2937  1.6394
  169SAPE  C21119020   3.521   0.587   3.087  0.5292 -0.0942 -0.0842
  169SAPE  H11R19021   3.486   0.482   3.084 -2.0797  0.7182 -1.2155
  169SAPE  C21219022   3.558   0.644   3.204  0.3379  0.9645 -0.3502
  169SAPE  H12R19023   3.549   0.565   3.280 -0.6391 -0.8703 -2.2399
  169SAPE  C21319024   3.599   0.778   3.256  0.1415  0.1720 -0.7558
  169SAPE  H13R19025   3.672   0.815   3.181 -1.2553  0.6474 -1.9215
  169SAPE  H13S19026   3.656   0.770   3.351 -1.2329 -4.4981 -0.0372
  169SAPE  C21419027   3.491   0.879   3.278  0.8124 -0.2956 -0.0912
  169SAPE  H14R19028   3.437   0.903   3.185 -2.4215  0.9763  1.9443
  169SAPE  C21519029   3.480   0.967   3.380 -0.2738  0.7665  0.8957
  169SAPE  H15R19030   3.402   1.045   3.379 -1.0369  0.0154  0.7960
  169SAPE  C21619031   3.558   0.962   3.505  0.4582  0.4884 -1.0537
  169SAPE  H16R19032   3.619   1.051   3.529 -0.4559  1.1002 -0.9509
  169SAPE  H16S19033   3.635   0.882   3.503  0.8395  0.7422  0.9465
  169SAPE  C21719034   3.467   0.933   3.629 -0.0640 -0.0150 -0.0263
  169SAPE  H17R19035   3.535   0.895   3.708 -0.4510 -0.6859 -0.0175
  169SAPE  H17S19036   3.391   0.858   3.598 -0.6872  0.9442 -0.8877
  169SAPE  C21819037   3.392   1.065   3.668 -0.0146  0.0409 -0.5121
  169SAPE  H18R19038   3.346   1.108   3.577  0.6399 -0.9230 -1.3224
  169SAPE  H18S19039   3.469   1.134   3.709  0.9312 -0.6285 -1.1126
  169SAPE  C21919040   3.294   1.044   3.784  0.2349  0.3919 -0.1114
  169SAPE  H19R19041   3.343   1.014   3.879 -3.4505 -1.1396  1.4811
  169SAPE  H19S19042   3.228   0.957   3.765  1.5999 -1.2712  2.1765
  169SAPE  C22019043   3.216   1.165   3.824  0.8555 -0.0134  0.3114
  169SAPE  H20R19044   3.169   1.140   3.922  2.5622  1.9032  1.7082
  169SAPE  H20S19045   3.133   1.188   3.754  0.4818 -0.9126  0.4424
  169SAPE  H20T19046   3.278   1.257   3.837  0.0951  0.4550  0.6582
  169SAPE   C3319047   3.889   0.784   2.518  0.5925  0.2725  0.7212
  169SAPE   H3X19048   3.870   0.727   2.612  0.2486 -0.7952  0.0187
  169SAPE   H3Y19049   3.793   0.775   2.464 -0.3663 -2.2792  2.6525
  169SAPE   C3419050   3.914   0.933   2.548  0.2326  0.2362 -0.6618
  169SAPE   H4X19051   3.911   0.981   2.448 -1.4273 -1.9976 -1.7553
  169SAPE   H4Y19052   4.015   0.962   2.583  0.2554  1.6014 -1.7578
  169SAPE   C3519053   3.816   1.008   2.643  0.0263  0.2030 -0.5604
  169SAPE   H5X19054   3.711   0.971   2.639  0.1397 -0.2645  0.4729
  169SAPE   H5Y19055   3.826   1.116   2.619 -1.3995  0.8915  1.6345
  169SAPE   C3619056   3.850   1.000   2.792  0.6279 -0.3886  0.1419
  169SAPE   H6X19057   3.945   1.056   2.807 -1.8100  4.1012  0.3913
  169SAPE   H6Y19058   3.865   0.895   2.827 -0.5629 -0.2404  1.1727
  169SAPE   C3719059   3.755   1.083   2.875  0.7705  0.7329  0.0501
  169SAPE   H7X19060   3.655   1.036   2.886  0.0780  2.5200  2.3091
  169SAPE   H7Y19061   3.731   1.176   2.820  2.0396  1.4299  0.6471
  169SAPE   C3819062   3.817   1.127   3.012 -0.2020  0.0441  0.5570
  169SAPE   H8X19063   3.748   1.198   3.062  1.9431  1.8460  1.1323
  169SAPE   H8Y19064   3.908   1.184   2.981  0.6733 -1.3831  0.4374
  169SAPE   C3919065   3.858   1.015   3.109  0.6811 -0.2327 -0.5087
  169SAPE   H9X19066   3.963   0.983   3.089 -0.0712 -2.3075 -1.4239
  169SAPE   H9Y19067   3.800   0.924   3.081  1.2100 -0.9371  0.6121
  169SAPE  C31019068   3.839   1.056   3.256  0.7632 -0.2055 -0.6378
  169SAPE  H10X19069   3.870   0.988   3.338 -0.2180  2.0812  1.7699
  169SAPE  H10Y19070   3.728   1.061   3.264  0.7217  2.2125 -1.9387
  169SAPE  C31119071   3.891   1.191   3.302 -0.2910 -0.7922 -0.2892
  169SAPE  H11X19072   3.853   1.201   3.406  0.8336  1.3454 -0.0361
  169SAPE  H11Y19073   3.846   1.277   3.248  3.3851  0.8508 -1.0300
  169SAPE  C31219074   4.043   1.204   3.296 -0.4385  0.3398 -0.2183
  169SAPE  H12X19075   4.080   1.305   3.322  1.3022 -0.4546  0.5974
  169SAPE  H12Y19076   4.063   1.185   3.189 -0.4714 -0.6702 -0.0553
  169SAPE  C31319077   4.117   1.109   3.392  0.5346 -0.2191  0.6115
  169SAPE  H13X19078   4.223   1.139   3.402  0.8171 -1.5220  1.8046
  169SAPE  H13Y19079   4.108   1.010   3.342  1.4139  0.0195 -0.0460
  169SAPE  C31419080   4.065   1.111   3.539 -0.5079 -0.4478  0.0192
  169SAPE  H14X19081   3.961   1.071   3.533 -1.4040  1.9741 -2.0961
  169SAPE  H14Y19082   4.053   1.216   3.573  3.3320  0.5294 -1.1232
  169SAPE  C31519083   4.153   1.024   3.632 -0.4610 -0.5108 -1.0997
  169SAPE  H15X19084   4.262   1.047   3.635 -0.8282  1.2965 -0.3513
  169SAPE  H15Y19085   4.128   0.925   3.588 -1.8547  0.8034 -3.5105
  169SAPE  C31619086   4.106   1.026   3.778  0.5231 -0.3335 -0.2126
  169SAPE  H16X19087   4.109   1.128   3.822  0.5489 -0.1562 -0.6182
  169SAPE  H16Y19088   4.162   0.950   3.837  1.3030  0.9145  0.7014
  169SAPE  C31719089   3.954   0.991   3.802  0.1212 -0.8936 -0.6547
  169SAPE  H17X19090   3.889   1.076   3.770  1.0054 -0.1230 -0.4442
  169SAPE  H17Y19091   3.931   0.971   3.909 -0.0436 -2.9302 -1.0311
  169SAPE  C31819092   3.912   0.859   3.727 -0.2664 -0.1189 -0.5832
  169SAPE  H18X19093   3.990   0.783   3.748 -0.0192  0.5612  1.1114
  169SAPE  H18Y19094   3.904   0.873   3.617 -1.5015  2.5515 -0.2343
  169SAPE  H18Z19095   3.811   0.830   3.764  1.3120 -2.0140  2.6167
  170SAPE     N19096   6.198   4.612   1.738  0.9152 -0.3439 -0.2949
  170SAPE   HN119097   6.184   4.692   1.672  1.6674 -1.1854 -1.5302
  170SAPE   HN219098   6.108   4.563   1.759 -0.0566  1.1404 -0.8174
  170SAPE   HN319099   6.233   4.647   1.829 -0.2904 -0.7421  0.3474
  170SAPE   C1219100   6.300   4.511   1.694  0.2129  0.5201 -0.4937
  170SAPE  H12A19101   6.292   4.495   1.584 -3.6794  0.0616 -0.2674
  170SAPE  H12B19102   6.281   4.414   1.744 -1.0143  0.4173 -1.1274
  170SAPE   C1119103   6.440   4.561   1.729 -1.2068 -0.7682  0.5292
  170SAPE  H11A19104   6.449   4.669   1.705 -1.0404 -0.4807  1.8346
  170SAPE  H11B19105   6.514   4.510   1.664 -0.6757  0.8331 -0.1670
  170SAPE     P19106   6.593   4.448   1.918 -0.1172  0.5404 -0.0488
  170SAPE   O1319107   6.512   4.324   1.945 -0.0714  0.4123 -0.1949
  170SAPE   O1419108   6.714   4.455   1.824 -0.1933 -0.2863 -0.4168
  170SAPE   O1219109   6.483   4.555   1.864 -0.1382 -0.2850 -0.1096
  170SAPE   O1119110   6.629   4.512   2.058 -0.2918  0.3245 -0.0147
  170SAPE    C119111   6.676   4.647   2.070  0.3821  0.4170  0.3224
  170SAPE    HA19112   6.677   4.706   1.977 -0.5732  3.3387  2.0515
  170SAPE    HB19113   6.609   4.702   2.140  1.0484  1.2974  0.2737
  170SAPE    C219114   6.818   4.651   2.130 -0.1780 -0.1988 -1.0131
  170SAPE    HS19115   6.885   4.595   2.061  1.4720  1.1014 -0.5478
  170SAPE   O2119116   6.811   4.601   2.267  0.3182 -0.3330  0.3632
  170SAPE   C2119117   6.833   4.478   2.285 -0.3725  0.6518  0.5579
  170SAPE   O2219118   6.853   4.398   2.194 -0.4081  0.1834 -0.4226
  170SAPE   C2219119   6.814   4.444   2.435 -0.3616 -0.2552  0.4350
  170SAPE   H2R19120   6.839   4.534   2.494  1.6360  0.9461 -2.0264
  170SAPE   H2S19121   6.708   4.418   2.455 -0.1554 -2.3442 -0.7887
  170SAPE    C319122   6.869   4.793   2.137  0.7504 -0.1429  0.2886
  170SAPE    HX19123   6.901   4.824   2.035 -1.2996 -0.8047 -0.6051
  170SAPE    HY19124   6.970   4.785   2.182  2.0196  0.4777 -2.2330
  170SAPE   O3119125   6.783   4.888   2.203 -0.2799 -0.4846  0.7392
  170SAPE   C3119126   6.851   5.001   2.258  0.2971  0.2628 -0.2192
  170SAPE   O3219127   6.973   5.003   2.247  0.5459  0.4280 -0.0434
  170SAPE   C3219128   6.762   5.113   2.282  0.5083  0.0718  0.2529
  170SAPE   H2X19129   6.669   5.080   2.334 -1.2660  1.9805 -1.5225
  170SAPE   H2Y19130   6.730   5.144   2.181 -0.3245  2.0996  1.0880
  170SAPE   C2319131   6.897   4.321   2.467  0.0283  0.7494  0.3070
  170SAPE   H3R19132   7.000   4.331   2.427 -0.1056  0.4121 -0.1354
  170SAPE   H3S19133   6.856   4.234   2.410  0.9438  0.5315 -0.0329
  170SAPE   C2419134   6.884   4.293   2.613 -0.8245 -0.3678 -0.4722
  170SAPE   H4R19135   6.781   4.262   2.642 -0.0772 -2.9947 -0.3996
  170SAPE   H4S19136   6.917   4.378   2.676 -2.7345 -0.9125  1.4230
  170SAPE   C2519137   6.964   4.169   2.643 -0.6733  0.0335 -0.0359
  170SAPE   H5R19138   6.965   4.089   2.568 -0.3105  1.0704 -1.1697
  170SAPE   C2619139   7.030   4.154   2.761 -0.3005  0.5829  0.3365
  170SAPE   H6R19140   7.083   4.061   2.786  0.2291  1.0918  1.1480
  170SAPE   C2719141   7.023   4.253   2.874  0.1723 -0.2878 -0.7990
  170SAPE   H7R19142   6.987   4.211   2.970  1.0030 -1.1238 -0.8448
  170SAPE   H7S19143   6.935   4.320   2.869  0.9534  0.6843 -3.1127
  170SAPE   C2819144   7.160   4.325   2.882 -0.1070 -0.5300 -0.1027
  170SAPE   H8R19145   7.172   4.406   2.809 -1.4299 -0.7521 -0.5947
  170SAPE   C2919146   7.261   4.282   2.956 -0.0587  0.3423  0.3445
  170SAPE   H9R19147   7.358   4.332   2.949  0.0333 -0.0152 -1.4378
  170SAPE  C21019148   7.260   4.161   3.046 -0.3549  0.9855  0.4212
  170SAPE  H10R19149   7.320   4.075   3.008  0.4046  0.6379  2.3087
  170SAPE  H10S19150   7.157   4.122   3.063  0.2033 -0.9307 -0.2717
  170SAPE  C21119151   7.319   4.195   3.180 -0.2179 -0.2815  0.0492
  170SAPE  H11R19152   7.422   4.233   3.173 -0.0617 -0.4167  1.3528
  170SAPE  C21219153   7.256   4.203   3.299  0.1099 -0.5652  0.2174
  170SAPE  H12R19154   7.309   4.237   3.389  0.3279  1.0678 -0.4876
  170SAPE  C21319155   7.116   4.178   3.325  0.2483 -0.1746  0.3225
  170SAPE  H13R19156   7.100   4.142   3.429 -1.4290 -3.7273 -0.9821
  170SAPE  H13S19157   7.075   4.089   3.272 -1.0996 -0.3383  1.5404
  170SAPE  C21419158   7.031   4.295   3.278  0.0633  0.2300 -0.3737
  170SAPE  H14R19159   7.064   4.332   3.180  1.1607  0.1111 -0.0548
  170SAPE  C21519160   6.938   4.356   3.352  0.6364 -0.3262 -0.1159
  170SAPE  H15R19161   6.880   4.436   3.304 -0.0119 -0.6434  0.1351
  170SAPE  C21619162   6.897   4.321   3.495 -0.0237  0.0528  0.6966
  170SAPE  H16R19163   6.900   4.212   3.516 -0.1596 -0.0267  0.3174
  170SAPE  H16S19164   6.793   4.359   3.505  0.2697  0.6159  1.7480
  170SAPE  C21719165   6.978   4.400   3.602  0.3042 -0.2949  0.1812
  170SAPE  H17R19166   6.962   4.508   3.581  3.8615 -0.0973 -2.3129
  170SAPE  H17S19167   7.087   4.387   3.584  0.7886  1.2292  1.7335
  170SAPE  C21819168   6.944   4.344   3.743 -0.0506 -0.2071 -0.4823
  170SAPE  H18R19169   6.923   4.236   3.731 -0.8241 -0.0618 -0.4895
  170SAPE  H18S19170   6.844   4.383   3.771 -0.4747 -0.4156 -1.6515
  170SAPE  C21919171   7.058   4.365   3.840 -0.3417  0.3909 -0.1493
  170SAPE  H19R19172   7.071   4.473   3.863  1.2981  0.0671  0.5961
  170SAPE  H19S19173   7.163   4.353   3.809 -0.8455 -0.5960 -1.5305
  170SAPE  C22019174   7.042   4.284   3.970  0.6377 -0.1327 -0.2583
  170SAPE  H20R19175   7.051   4.174   3.953 -0.1957 -0.2852  0.1988
  170SAPE  H20S19176   6.940   4.302   4.011  0.3089  1.0829 -1.5289
  170SAPE  H20T19177   7.115   4.323   4.043  0.3622 -0.6481  0.3064
  170SAPE   C3319178   6.817   5.231   2.364 -0.1146 -0.6092 -0.3538
  170SAPE   H3X19179   6.766   5.321   2.323  1.2090  0.4516  0.2477
  170SAPE   H3Y19180   6.924   5.249   2.341  0.1251 -0.5922  0.7639
  170SAPE   C3419181   6.808   5.227   2.516  0.6039  0.5911 -0.2462
  170SAPE   H4X19182   6.722   5.168   2.553  0.6364  1.0044  0.5077
  170SAPE   H4Y19183   6.783   5.329   2.554 -1.4234  0.7960 -1.9374
  170SAPE   C3519184   6.936   5.178   2.585 -0.4051  0.2549 -0.1668
  170SAPE   H5X19185   7.025   5.242   2.568 -1.5896  1.8732 -0.4439
  170SAPE   H5Y19186   6.956   5.077   2.542 -3.0950  0.8257 -3.1027
  170SAPE   C3619187   6.918   5.160   2.738  0.0895 -0.0838 -0.1400
  170SAPE   H6X19188   6.892   5.257   2.786 -2.4418 -0.6394 -0.2494
  170SAPE   H6Y19189   7.018   5.128   2.777 -0.4814  0.0478  1.5159
  170SAPE   C3719190   6.826   5.053   2.776  0.5212  0.5489 -0.4274
  170SAPE   H7X19191   6.864   4.951   2.756 -1.7520 -0.7947  1.5553
  170SAPE   H7Y19192   6.728   5.060   2.724 -0.4670 -1.5973  1.0220
  170SAPE   C3819193   6.794   5.049   2.925  0.2681  0.0571  0.2389
  170SAPE   H8X19194   6.720   4.976   2.963 -0.9023  2.0223  1.9771
  170SAPE   H8Y19195   6.753   5.151   2.939 -0.5839 -0.5459  2.7954
  170SAPE   C3919196   6.928   5.035   3.009  0.4617  0.5028  0.3661
  170SAPE   H9X19197   6.998   5.118   2.989 -1.7228  2.0040 -1.6473
  170SAPE   H9Y19198   6.977   4.941   2.977 -1.3919 -1.2999  2.4393
  170SAPE  C31019199   6.906   5.021   3.163  0.4576  0.5885 -0.0279
  170SAPE  H10X19200   6.814   4.959   3.174  0.8469 -0.1712 -0.8617
  170SAPE  H10Y19201   6.875   5.118   3.207  0.1187  0.6176 -0.3285
  170SAPE  C31119202   7.011   4.944   3.239 -0.1213 -0.7276 -0.3330
  170SAPE  H11X19203   7.110   4.992   3.258 -0.2742 -1.1659  1.9258
  170SAPE  H11Y19204   7.028   4.853   3.177 -2.4430 -1.4151 -0.0761
  170SAPE  C31219205   6.964   4.888   3.374 -0.8107 -0.6680  0.1054
  170SAPE  H12X19206   7.040   4.835   3.435 -2.5601 -0.6979  2.4111
  170SAPE  H12Y19207   6.886   4.817   3.340 -0.4934 -0.1433 -1.8583
  170SAPE  C31319208   6.908   4.993   3.469 -0.1103  0.3098  0.1116
  170SAPE  H13X19209   6.822   5.045   3.423 -0.6725 -1.0344 -0.4268
  170SAPE  H13Y19210   6.997   5.056   3.487 -0.6094  1.6217 -1.7216
  170SAPE  C31419211   6.870   4.924   3.599 -0.2791 -0.2119 -0.3884
  170SAPE  H14X19212   6.955   4.860   3.631  2.1798  2.5712 -0.9598
  170SAPE  H14Y19213   6.784   4.858   3.574 -0.4877 -1.3464  2.8321
  170SAPE  C31519214   6.834   5.012   3.717  0.6190  0.0811 -0.3450
  170SAPE  H15X19215   6.748   5.078   3.694 -0.2135 -0.2080  1.6966
  170SAPE  H15Y19216   6.923   5.076   3.740  0.3798 -0.2221  1.5520
  170SAPE  C31619217   6.788   4.938   3.840  0.9691 -0.7877  0.3519
  170SAPE  H16X19218   6.855   4.851   3.852  0.1851 -1.9826 -2.9743
  170SAPE  H16Y19219   6.687   4.897   3.816  0.7400  0.5421 -1.1946
  170SAPE  C31719220   6.761   5.021   3.967  0.7147 -0.2994  0.0232
  170SAPE  H17X19221   6.724   4.947   4.041 -1.1966  0.3914 -0.1913
  170SAPE  H17Y19222   6.680   5.094   3.945 -0.7178 -2.2774 -1.5468
  170SAPE  C31819223   6.868   5.108   4.030  0.3056 -0.1022 -0.4416
  170SAPE  H18X19224   6.963   5.057   4.056  1.2962  1.8698 -0.0182
  170SAPE  H18Y19225   6.834   5.155   4.125  1.1802 -2.0923  0.9207
  170SAPE  H18Z19226   6.891   5.195   3.965 -1.8025  0.2100 -0.8607
  171SAPE     N19227   6.274   1.737   1.918 -0.3635 -0.2123  0.2241
  171SAPE   HN119228   6.205   1.689   1.857  0.3540  0.4778 -1.1935
  171SAPE   HN219229   6.354   1.674   1.938 -0.5868 -2.0332 -3.6659
  171SAPE   HN319230   6.227   1.781   1.999  0.2778  1.2383 -0.1648
  171SAPE   C1219231   6.329   1.854   1.840  0.2847  1.0578  0.3742
  171SAPE  H12A19232   6.400   1.812   1.766  0.0816  2.3978 -0.6114
  171SAPE  H12B19233   6.381   1.922   1.911 -0.6628  0.6249  1.5113
  171SAPE   C1119234   6.219   1.932   1.774 -0.0901 -0.4107 -0.0533
  171SAPE  H11A19235   6.156   1.874   1.704 -0.4688  1.3107 -1.2087
  171SAPE  H11B19236   6.271   2.010   1.714  1.1105 -1.1283  0.0331
  171SAPE     P19237   6.075   2.136   1.879 -0.1197  0.3942  0.0631
  171SAPE   O1319238   6.112   2.214   1.756 -0.2090  0.3469 -0.5661
  171SAPE   O1419239   5.930   2.136   1.915 -0.8820 -0.4633 -0.1848
  171SAPE   O1219240   6.134   1.988   1.875 -0.7096 -0.2785 -0.3103
  171SAPE   O1119241   6.170   2.187   1.996 -0.0896  0.3014  0.2265
  171SAPE    C119242   6.162   2.161   2.132  0.3276 -0.1867 -0.1473
  171SAPE    HA19243   6.077   2.094   2.157  2.9510 -3.6321  0.2395
  171SAPE    HB19244   6.250   2.104   2.167 -0.1962 -0.6030  0.5227
  171SAPE    C219245   6.145   2.296   2.217 -0.8811 -0.4506  0.2594
  171SAPE    HS19246   6.244   2.348   2.219 -1.3960  0.6825 -1.5804
  171SAPE   O2119247   6.096   2.273   2.351  0.6206 -0.4212  0.4548
  171SAPE   C2119248   6.184   2.204   2.428  0.2037 -0.4719 -0.1350
  171SAPE   O2219249   6.304   2.184   2.403 -0.2677 -0.1464  0.2258
  171SAPE   C2219250   6.126   2.156   2.562 -0.3628  0.0902  0.4296
  171SAPE   H2R19251   6.042   2.228   2.571  0.1013  0.4607  2.1987
  171SAPE   H2S19252   6.096   2.049   2.565 -0.0372 -0.0179 -0.0849
  171SAPE    C319253   6.044   2.398   2.150 -0.3065  0.3015 -0.1707
  171SAPE    HX19254   5.949   2.340   2.155 -1.0587  1.5942  1.6636
  171SAPE    HY19255   6.051   2.423   2.042 -2.9126 -2.4278 -1.1133
  171SAPE   O3119256   6.020   2.520   2.222 -0.1820 -0.2016  1.1280
  171SAPE   C3119257   6.113   2.618   2.207 -0.4927 -0.6256 -0.3629
  171SAPE   O3219258   6.231   2.601   2.170  0.2739 -0.2220  0.0588
  171SAPE   C3219259   6.057   2.753   2.257 -0.0552  0.0692  0.2088
  171SAPE   H2X19260   5.949   2.739   2.280  0.0719  0.6561  1.2218
  171SAPE   H2Y19261   6.056   2.823   2.171 -1.8846  3.2748  2.6253
  171SAPE   C2319262   6.225   2.183   2.680  0.8192  0.8122  0.1681
  171SAPE   H3R19263   6.323   2.140   2.653  1.2531  2.4098 -0.9129
  171SAPE   H3S19264   6.189   2.128   2.770 -0.3517 -0.9137 -1.2946
  171SAPE   C2419265   6.236   2.335   2.703  0.5531 -0.3029 -0.2925
  171SAPE   H4R19266   6.134   2.378   2.710  1.1405  0.9701  4.3871
  171SAPE   H4S19267   6.296   2.395   2.631  1.5692  0.2132  0.9376
  171SAPE   C2519268   6.272   2.373   2.840 -0.6972 -0.2034 -0.1606
  171SAPE   H5R19269   6.200   2.429   2.901  0.7971 -0.4921  1.9912
  171SAPE   C2619270   6.398   2.369   2.895  0.7445 -0.0480 -0.4259
  171SAPE   H6R19271   6.414   2.394   3.001  1.1114  2.7704 -1.0716
  171SAPE   C2719272   6.527   2.311   2.833  0.3643 -0.1334 -0.5200
  171SAPE   H7R19273   6.602   2.393   2.833 -1.0850  1.2735  0.8694
  171SAPE   H7S19274   6.504   2.290   2.727 -0.6182  2.3822 -0.8942
  171SAPE   C2819275   6.571   2.187   2.899 -0.2392  0.5527 -0.1604
  171SAPE   H8R19276   6.558   2.182   3.008  2.0249  0.9946  0.1833
  171SAPE   C2919277   6.646   2.093   2.834 -0.3094 -0.1524 -0.6338
  171SAPE   H9R19278   6.674   2.001   2.887  0.6891 -0.2548 -1.2950
  171SAPE  C21019279   6.672   2.100   2.682 -0.7145 -0.5276  0.2129
  171SAPE  H10R19280   6.722   2.196   2.660  0.1356 -0.5369  1.9467
  171SAPE  H10S19281   6.576   2.089   2.628  0.4377  0.0571 -2.0533
  171SAPE  C21119282   6.770   2.008   2.616  1.4473  0.8654  0.4227
  171SAPE  H11R19283   6.726   1.921   2.565 -1.6145  1.8724  1.1741
  171SAPE  C21219284   6.905   2.010   2.615 -0.9494  0.2101 -0.1357
  171SAPE  H12R19285   6.952   1.927   2.560 -3.3244 -0.7594 -0.8247
  171SAPE  C21319286   6.991   2.105   2.690  0.8427 -0.4014  0.7787
  171SAPE  H13R19287   6.966   2.102   2.799 -1.6620 -0.5100  0.2424
  171SAPE  H13S19288   6.975   2.213   2.669  0.3213 -0.5865  0.2111
  171SAPE  C21419289   7.139   2.078   2.678 -0.3551  0.1904 -0.0694
  171SAPE  H14R19290   7.175   2.073   2.574  0.1716 -1.2936  0.1595
  171SAPE  C21519291   7.228   2.060   2.773  0.7151  0.1711  0.2938
  171SAPE  H15R19292   7.335   2.059   2.752  0.6166 -0.2280 -0.2020
  171SAPE  C21619293   7.194   2.031   2.922 -0.1432  0.1956  0.8325
  171SAPE  H16R19294   7.096   2.063   2.961  0.3602  1.0929  1.3766
  171SAPE  H16S19295   7.273   2.082   2.981  0.4862 -0.0958  0.2628
  171SAPE  C21719296   7.211   1.881   2.953  0.1362 -0.6650  0.5635
  171SAPE  H17R19297   7.316   1.859   2.926 -0.9583 -1.9870 -3.4070
  171SAPE  H17S19298   7.158   1.816   2.880  0.3162 -0.5814  0.3573
  171SAPE  C21819299   7.170   1.844   3.100  0.2186 -0.0028  0.2198
  171SAPE  H18R19300   7.059   1.854   3.098  0.2617  0.4152 -0.7780
  171SAPE  H18S19301   7.213   1.919   3.168 -0.5492 -1.0509  1.9492
  171SAPE  C21919302   7.227   1.714   3.157 -0.2099  0.3819 -0.6763
  171SAPE  H19R19303   7.228   1.636   3.078  3.0438 -1.0154  0.5507
  171SAPE  H19S19304   7.160   1.688   3.242  0.8931 -0.3673  0.0042
  171SAPE  C22019305   7.368   1.727   3.216 -0.3591  0.2456 -0.1214
  171SAPE  H20R19306   7.426   1.778   3.136 -1.3891  0.3698 -0.8084
  171SAPE  H20S19307   7.412   1.629   3.243  1.6111  0.8885 -0.8173
  171SAPE  H20T19308   7.366   1.794   3.305 -1.4500 -0.2402  0.2339
  171SAPE   C3319309   6.133   2.800   2.375 -0.3525 -0.2418  0.4715
  171SAPE   H3X19310   6.098   2.902   2.401  1.9319  0.7951 -0.2922
  171SAPE   H3Y19311   6.241   2.804   2.350 -0.5616  1.1703 -0.2955
  171SAPE   C3419312   6.100   2.719   2.506 -0.3325 -0.1634  0.4856
  171SAPE   H4X19313   6.151   2.620   2.502 -0.7235 -0.3484  0.1015
  171SAPE   H4Y19314   5.992   2.698   2.499  0.1503 -2.4627 -4.4551
  171SAPE   C3519315   6.146   2.784   2.637 -0.0059 -0.0659  0.3109
  171SAPE   H5X19316   6.110   2.889   2.639  1.4223  0.4675  2.3191
  171SAPE   H5Y19317   6.257   2.782   2.634  0.0437 -2.0472  1.7485
  171SAPE   C3619318   6.107   2.703   2.762 -0.3007  0.7618  0.1830
  171SAPE   H6X19319   6.117   2.598   2.724 -4.2673 -0.0106  0.7518
  171SAPE   H6Y19320   5.998   2.712   2.784  0.2205 -0.7894  4.1483
  171SAPE   C3719321   6.192   2.725   2.887  0.6876 -0.5542 -0.1287
  171SAPE   H7X19322   6.214   2.834   2.885  0.4125 -0.4989 -0.1978
  171SAPE   H7Y19323   6.288   2.670   2.877 -0.7760 -2.9823 -2.2311
  171SAPE   C3819324   6.110   2.677   3.007  0.4122 -0.3032  0.2254
  171SAPE   H8X19325   6.064   2.576   2.993 -2.2450  0.9128 -0.5567
  171SAPE   H8Y19326   6.033   2.754   3.029  2.3617  2.9069 -3.0307
  171SAPE   C3919327   6.196   2.669   3.133  0.6584  0.3227 -1.0573
  171SAPE   H9X19328   6.237   2.773   3.129 -0.2099  0.7557  0.7441
  171SAPE   H9Y19329   6.280   2.596   3.123  0.3437 -0.0088 -1.3065
  171SAPE  C31019330   6.125   2.636   3.265 -0.1649 -0.0989  0.3769
  171SAPE  H10X19331   6.087   2.532   3.252 -2.3408  0.5757  0.9476
  171SAPE  H10Y19332   6.038   2.705   3.265 -0.7225 -0.7883 -0.2483
  171SAPE  C31119333   6.204   2.642   3.393  0.4264  0.7418 -0.4717
  171SAPE  H11X19334   6.134   2.604   3.471  2.8860  2.3128  2.7609
  171SAPE  H11Y19335   6.219   2.745   3.432 -0.1412  0.5521  0.2851
  171SAPE  C31219336   6.329   2.550   3.410 -0.7553 -0.0110  0.3077
  171SAPE  H12X19337   6.402   2.581   3.332  0.8945 -3.2291  0.4117
  171SAPE  H12Y19338   6.303   2.442   3.399  1.4758 -0.4524 -1.2242
  171SAPE  C31319339   6.388   2.579   3.551 -0.1999  0.9864 -0.1507
  171SAPE  H13X19340   6.310   2.568   3.630  0.7050 -0.3239  0.6057
  171SAPE  H13Y19341   6.421   2.685   3.541  0.2360  0.6340 -3.5112
  171SAPE  C31419342   6.509   2.487   3.586 -0.0439 -0.3055 -0.4082
  171SAPE  H14X19343   6.579   2.497   3.501 -1.1214  0.6122 -1.2156
  171SAPE  H14Y19344   6.479   2.381   3.595  0.9816 -0.6438 -0.8822
  171SAPE  C31519345   6.570   2.541   3.720 -0.4666  0.7277  0.5077
  171SAPE  H15X19346   6.511   2.524   3.812 -2.3822 -1.2980 -0.9817
  171SAPE  H15Y19347   6.583   2.649   3.696 -0.2751  0.0419 -3.0423
  171SAPE  C31619348   6.699   2.466   3.740  0.6048 -0.0312  0.0586
  171SAPE  H16X19349   6.769   2.473   3.654  1.3374 -1.6466  0.4794
  171SAPE  H16Y19350   6.665   2.361   3.749 -2.0580  0.7065 -0.3525
  171SAPE  C31719351   6.771   2.499   3.876  0.2170  0.3730 -0.5037
  171SAPE  H17X19352   6.861   2.439   3.900  0.8033  0.5499 -2.1202
  171SAPE  H17Y19353   6.688   2.481   3.948 -0.7633 -1.5257 -2.0139
  171SAPE  C31819354   6.801   2.644   3.901  0.0995 -0.4378  0.5233
  171SAPE  H18X19355   6.829   2.669   4.006  3.3305  0.8086 -0.4988
  171SAPE  H18Y19356   6.718   2.715   3.883  0.0029 -0.9201 -1.0373
  171SAPE  H18Z19357   6.881   2.683   3.834 -0.1196  0.0959  0.5684
  172SAPE     N19358   0.216   3.579   1.972 -0.4924  0.0916 -0.2835
  172SAPE   HN119359   0.294   3.598   2.038  0.6820 -1.4183 -1.1700
  172SAPE   HN219360   0.202   3.654   1.901  3.3149  1.5050  0.2242
  172SAPE   HN319361   0.128   3.593   2.026 -0.8138  0.3281 -0.8612
  172SAPE   C1219362   0.210   3.438   1.929  0.2060 -1.1683  0.5888
  172SAPE  H12A19363   0.255   3.440   1.827 -1.3686 -0.0478 -0.1343
  172SAPE  H12B19364   0.105   3.401   1.924  0.3055 -1.3865  0.1000
  172SAPE   C1119365   0.300   3.345   2.014  0.6074  0.0128  0.1449
  172SAPE  H11A19366   0.258   3.342   2.117 -0.7504 -0.4769 -0.4072
  172SAPE  H11B19367   0.402   3.389   2.017  0.6574 -0.1445  0.8612
  172SAPE     P19368   0.419   3.125   1.937  0.0284 -0.1781 -0.0515
  172SAPE   O1319369   0.359   2.995   1.896 -0.2329  0.3390 -0.2883
  172SAPE   O1419370   0.520   3.173   1.850 -0.1700  0.0785 -0.1313
  172SAPE   O1219371   0.299   3.219   1.953  0.0918  0.0712 -0.5248
  172SAPE   O1119372   0.483   3.112   2.078  0.8051 -0.5445  0.0615
  172SAPE    C119373   0.410   3.051   2.188  0.1529 -0.4998  0.2982
  172SAPE    HA19374   0.316   3.108   2.205  1.5947  1.8931  0.6488
  172SAPE    HB19375   0.375   2.947   2.170 -0.8631 -0.5783  2.3618
  172SAPE    C219376   0.488   3.058   2.326 -0.2883 -1.0784  0.2610
  172SAPE    HS19377   0.421   3.057   2.415  2.4072 -1.8863  2.4192
  172SAPE   O2119378   0.569   3.177   2.332 -0.0862 -0.0314  0.8207
  172SAPE   C2119379   0.513   3.289   2.347  0.3426 -0.0881  0.4190
  172SAPE   O2219380   0.388   3.305   2.358 -1.2352  0.4293  0.3988
  172SAPE   C2219381   0.621   3.399   2.355  0.1838 -0.3142  0.0853
  172SAPE   H2R19382   0.721   3.370   2.317 -0.2137  0.6085 -1.7934
  172SAPE   H2S19383   0.596   3.470   2.273 -0.1623  0.1286  0.5706
  172SAPE    C319384   0.585   2.937   2.336 -0.8808 -0.3422 -0.1417
  172SAPE    HX19385   0.658   2.949   2.253  0.2454 -1.5830  0.6175
  172SAPE    HY19386   0.509   2.856   2.329 -0.2623 -1.5389  4.2471
  172SAPE   O3119387   0.645   2.917   2.467 -0.1212 -0.2506 -0.3298
  172SAPE   C3119388   0.568   2.886   2.566  0.2535 -0.3710  0.6508
  172SAPE   O3219389   0.455   2.839   2.557 -0.3699  0.5529  0.1658
  172SAPE   C3219390   0.634   2.933   2.695  0.1953  0.0761  0.4929
  172SAPE   H2X19391   0.567   3.015   2.728  0.0147 -0.5194  1.6851
  172SAPE   H2Y19392   0.739   2.963   2.676 -0.1588  0.4351 -1.0054
  172SAPE   C2319393   0.630   3.471   2.491 -0.0227 -0.9836 -0.3603
  172SAPE   H3R19394   0.533   3.495   2.540  0.7743  1.5098  0.1652
  172SAPE   H3S19395   0.675   3.570   2.467  2.6259 -1.5862  1.7002
  172SAPE   C2419396   0.720   3.390   2.585  0.3289 -0.1314  0.7204
  172SAPE   H4R19397   0.811   3.362   2.528 -0.7705  0.9912 -1.7383
  172SAPE   H4S19398   0.659   3.301   2.611 -0.4201 -0.5887 -2.2610
  172SAPE   C2519399   0.747   3.466   2.708 -0.2296  0.3267  0.4739
  172SAPE   H5R19400   0.818   3.548   2.693 -0.0295 -0.0668 -0.8418
  172SAPE   C2619401   0.700   3.437   2.832  0.5913 -0.0789  0.0240
  172SAPE   H6R19402   0.732   3.518   2.899  1.6741  0.8577 -1.5390
  172SAPE   C2719403   0.611   3.323   2.865  0.3036 -0.6894 -0.3256
  172SAPE   H7R19404   0.657   3.269   2.951 -2.3960 -0.4483  1.4225
  172SAPE   H7S19405   0.596   3.256   2.778  1.0409 -1.6705  0.2861
  172SAPE   C2819406   0.472   3.362   2.909  0.1257  1.2727  0.0933
  172SAPE   H8R19407   0.404   3.396   2.829 -1.3706 -0.5369  0.5564
  172SAPE   C2919408   0.429   3.365   3.036  0.2821 -0.1521  0.5291
  172SAPE   H9R19409   0.323   3.389   3.056  0.8817  2.1334  1.2271
  172SAPE  C21019410   0.510   3.333   3.161 -0.4328 -0.3852  0.4484
  172SAPE  H10R19411   0.618   3.345   3.141 -0.5839 -0.9292 -0.7815
  172SAPE  H10S19412   0.499   3.226   3.188 -0.3100 -0.7196 -0.7636
  172SAPE  C21119413   0.456   3.420   3.276 -0.1794 -0.1238  0.1095
  172SAPE  H11R19414   0.508   3.517   3.287 -2.4665  1.1494  0.2322
  172SAPE  C21219415   0.376   3.375   3.370  0.3279  0.6124 -0.0705
  172SAPE  H12R19416   0.344   3.435   3.457  2.2471 -1.0222  1.8890
  172SAPE  C21319417   0.306   3.239   3.377 -0.1069 -0.2431  0.4631
  172SAPE  H13R19418   0.370   3.156   3.414  0.1577 -0.6057 -0.7641
  172SAPE  H13S19419   0.287   3.204   3.273  0.8487  0.7892 -0.0826
  172SAPE  C21419420   0.180   3.239   3.463  0.4404  0.3397  0.7962
  172SAPE  H14R19421   0.083   3.265   3.419 -0.1684  1.6068  2.7882
  172SAPE  C21519422   0.174   3.223   3.595 -0.2772 -0.7604  1.1223
  172SAPE  H15R19423   0.073   3.211   3.638 -1.3883  0.8230 -0.8506
  172SAPE  C21619424   0.294   3.197   3.683  0.3548 -0.2080 -0.0886
  172SAPE  H16R19425   0.361   3.285   3.675  0.8289 -0.7183 -2.4974
  172SAPE  H16S19426   0.344   3.107   3.640 -1.1578 -0.9591 -0.3457
  172SAPE  C21719427   0.290   3.181   3.836  0.0147  0.2605 -0.6146
  172SAPE  H17R19428   0.243   3.273   3.877  0.7101 -0.3221  1.6513
  172SAPE  H17S19429   0.389   3.180   3.886 -0.3195  2.9616  0.3058
  172SAPE  C21819430   0.215   3.055   3.887 -0.1501  0.2226  0.3280
  172SAPE  H18R19431   0.265   2.967   3.840  1.1580  0.6234  0.9246
  172SAPE  H18S19432   0.109   3.063   3.853 -0.2327 -0.7891  0.3194
  172SAPE  C21919433   0.216   3.033   4.046  0.7443 -0.8816  1.4952
  172SAPE  H19R19434   0.313   2.982   4.066  0.6902 -0.8552  1.8296
  172SAPE  H19S19435   0.129   2.969   4.070 -1.2861  1.4957  0.8406
  172SAPE  C22019436   0.197   3.155   4.129  0.3018 -1.1714 -0.4394
  172SAPE  H20R19437   0.266   3.230   4.085 -1.5103 -0.1573 -1.7254
  172SAPE  H20S19438   0.227   3.137   4.234 -0.2579  0.7490  0.0924
  172SAPE  H20T19439   0.097   3.204   4.131  1.1375  0.6138  0.8531
  172SAPE   C3319440   0.634   2.809   2.792 -0.0611 -0.1669  0.1261
  172SAPE   H3X19441   0.718   2.823   2.862 -1.7558  1.9318  1.8542
  172SAPE   H3Y19442   0.645   2.710   2.742  0.7585 -1.1320  2.1083
  172SAPE   C3419443   0.517   2.808   2.897  0.1205 -0.1048 -0.0612
  172SAPE   H4X19444   0.542   2.728   2.970  1.3588 -1.4461 -1.8864
  172SAPE   H4Y19445   0.422   2.790   2.842  0.2594 -0.0915 -0.3051
  172SAPE   C3519446   0.502   2.941   2.979  0.2064 -0.1934  1.2749
  172SAPE   H5X19447   0.425   2.991   2.917  3.0416 -0.0304 -2.4514
  172SAPE   H5Y19448   0.597   2.998   2.965 -0.3688  0.0456 -2.3536
  172SAPE   C3619449   0.449   2.940   3.125  0.1984 -0.0682  0.3946
  172SAPE   H6X19450   0.417   3.041   3.158  1.1692 -0.2498  1.9865
  172SAPE   H6Y19451   0.530   2.903   3.191  0.2903  0.4250  0.5639
  172SAPE   C3719452   0.321   2.856   3.137 -0.2823  1.0457 -0.7441
  172SAPE   H7X19453   0.359   2.753   3.116  2.3189  2.1270 -1.7789
  172SAPE   H7Y19454   0.249   2.888   3.058 -2.2905 -0.0949  0.5320
  172SAPE   C3819455   0.258   2.866   3.277  0.5870 -0.8925  0.6374
  172SAPE   H8X19456   0.156   2.826   3.260 -0.3468  1.5051  0.1865
  172SAPE   H8Y19457   0.249   2.974   3.302  1.4541 -0.3398 -1.2520
  172SAPE   C3919458   0.331   2.793   3.390 -0.4965 -0.3878  0.8926
  172SAPE   H9X19459   0.430   2.843   3.393 -1.4280  1.5357  0.9238
  172SAPE   H9Y19460   0.346   2.691   3.347  2.5170  0.6008 -0.7207
  172SAPE  C31019461   0.270   2.785   3.528  0.2600  0.2909  0.6503
  172SAPE  H10X19462   0.163   2.756   3.520 -0.4465  2.9625 -0.6784
  172SAPE  H10Y19463   0.260   2.886   3.574 -1.7131  1.7235 -2.5646
  172SAPE  C31119464   0.338   2.681   3.620  0.4093  1.0115 -0.6199
  172SAPE  H11X19465   0.296   2.707   3.719 -3.5835 -0.4400 -1.7262
  172SAPE  H11Y19466   0.449   2.695   3.622  0.5846 -0.2487 -0.7963
  172SAPE  C31219467   0.293   2.536   3.589 -0.0990  0.1973 -0.1948
  172SAPE  H12X19468   0.299   2.500   3.484  2.8602  0.9379 -0.3468
  172SAPE  H12Y19469   0.186   2.535   3.620  0.1443  0.6773  0.6977
  172SAPE  C31319470   0.377   2.441   3.678  0.1411 -0.0974  0.8983
  172SAPE  H13X19471   0.338   2.466   3.779 -1.3886  0.1646  0.2731
  172SAPE  H13Y19472   0.486   2.461   3.672 -0.0435  1.3487  1.8472
  172SAPE  C31419473   0.357   2.295   3.631 -0.0868  0.0083 -0.0760
  172SAPE  H14X19474   0.402   2.279   3.531  0.1356 -1.8773  0.2845
  172SAPE  H14Y19475   0.248   2.274   3.624 -0.1433  0.3340 -0.1635
  172SAPE  C31519476   0.417   2.201   3.737 -0.3708 -0.7191  0.0463
  172SAPE  H15X19477   0.442   2.103   3.692  0.1376 -0.7513  0.3979
  172SAPE  H15Y19478   0.345   2.181   3.819  1.9391  2.1048  3.0008
  172SAPE  C31619479   0.547   2.247   3.806  0.5397 -0.0331  0.0197
  172SAPE  H16X19480   0.521   2.299   3.900  1.6846 -1.3314  1.0910
  172SAPE  H16Y19481   0.616   2.319   3.756  0.2211  0.8794  0.8717
  172SAPE  C31719482   0.645   2.127   3.831  0.2187  0.8906 -0.7284
  172SAPE  H17X19483   0.734   2.159   3.890  0.3808 -2.2363  0.9564
  172SAPE  H17Y19484   0.678   2.094   3.730  1.5231  2.8960 -1.0260
  172SAPE  C31819485   0.575   2.007   3.913 -0.1310 -0.5084 -0.4398
  172SAPE  H18X19486   0.479   1.972   3.872 -1.0178  0.2857  0.8613
  172SAPE  H18Y19487   0.541   2.045   4.012 -0.3009  0.3319 -0.8117
  172SAPE  H18Z19488   0.634   1.913   3.921  2.0259  0.8796  1.1555
  173SLPC     N19489   4.421   4.205   6.374 -0.5032 -0.2759  0.3486
  173SLPC   C1319490   4.280   4.198   6.416 -0.2101 -0.6317 -0.3861
  173SLPC  H13A19491   4.256   4.268   6.494  0.6828 -2.8404  2.0109
  173SLPC  H13B19492   4.205   4.210   6.339 -0.8809  1.8076  0.5685
  173SLPC  H13C19493   4.264   4.107   6.472  1.5282 -1.2431 -0.8040
  173SLPC   C1419494   4.510   4.181   6.491 -0.2635 -0.0485  0.4543
  173SLPC  H14A19495   4.513   4.268   6.556 -0.9806  0.0346  0.3838
  173SLPC  H14B19496   4.494   4.085   6.538 -0.1516 -1.5969 -2.4507
  173SLPC  H14C19497   4.612   4.165   6.461 -0.1456  1.8783 -0.3198
  173SLPC   C1519498   4.436   4.345   6.319 -0.1695 -0.3292 -0.3996
  173SLPC  H15A19499   4.539   4.359   6.290 -0.8477  0.2700 -2.7147
  173SLPC  H15B19500   4.375   4.349   6.230 -1.0254 -0.1541  0.1827
  173SLPC  H15C19501   4.405   4.421   6.389  0.8783  0.6947 -1.0114
  173SLPC   C1219502   4.452   4.102   6.265 -1.1789  0.0233 -0.0227
  173SLPC  H12A19503   4.377   4.104   6.187  0.8685 -0.5915 -2.1119
  173SLPC  H12B19504   4.460   4.003   6.306  1.0146 -0.1010 -0.6103
  173SLPC   C1119505   4.584   4.134   6.181 -0.6237  0.0043  0.3557
  173SLPC  H11A19506   4.567   4.232   6.130  0.7355 -0.0594 -0.2601
  173SLPC  H11B19507   4.582   4.050   6.108 -1.0333  1.8643 -1.8880
  173SLPC     P19508   4.809   4.256   6.249 -0.1620  0.0193  0.2036
  173SLPC   O1319509   4.744   4.380   6.314 -0.5992 -0.4405 -0.0524
  173SLPC   O1419510   4.936   4.218   6.311  0.2630  0.1958 -0.6194
  173SLPC   O1219511   4.706   4.137   6.255  0.3360  0.8884  0.6333
  173SLPC   O1119512   4.829   4.271   6.092 -0.0886 -0.0258  0.0394
  173SLPC    C119513   4.919   4.194   6.016 -1.3858  0.5586 -0.0006
  173SLPC    HA19514   5.016   4.174   6.067 -0.5242  2.4298 -0.8145
  173SLPC    HB19515   4.870   4.100   5.982  0.0210  0.0389 -0.7254
  173SLPC    C219516   4.962   4.257   5.883 -0.8826  0.6577 -0.1005
  173SLPC    HS19517   5.025   4.187   5.824 -2.4830 -0.5731 -0.4063
  173SLPC   O2119518   5.027   4.385   5.904 -0.0273 -0.1879  0.0539
  173SLPC   C2119519   5.167   4.380   5.897  0.9154  0.1228 -0.1635
  173SLPC   O2219520   5.232   4.275   5.884  0.3851  0.2681  0.5161
  173SLPC   C2219521   5.226   4.519   5.911  0.3052  0.0389 -0.5806
  173SLPC   H2R19522   5.223   4.538   6.020 -1.3283 -2.1661 -0.1734
  173SLPC   H2S19523   5.332   4.507   5.877  0.1967 -0.2892 -0.8122
  173SLPC    C319524   4.830   4.272   5.808 -0.4308 -0.5472  0.1145
  173SLPC    HX19525   4.765   4.344   5.863  0.9979  1.6103 -0.8869
  173SLPC    HY19526   4.777   4.174   5.807  1.3563 -1.5721  0.9374
  173SLPC   O3119527   4.845   4.333   5.682  0.4662  0.3214 -0.0380
  173SLPC   C3119528   4.897   4.251   5.588 -0.7395  0.2391  0.5593
  173SLPC   O3219529   4.949   4.142   5.611 -0.0262 -1.0695  0.7934
  173SLPC   C3219530   4.883   4.311   5.447 -1.4795  0.3283  0.2384
  173SLPC   H2X19531   4.979   4.365   5.434 -1.4827  0.9033  2.2320
  173SLPC   H2Y19532   4.794   4.378   5.443 -1.4334  0.6993  3.1850
  173SLPC   C2319533   5.157   4.636   5.829 -0.4202  0.0804  0.0882
  173SLPC   H3R19534   5.224   4.724   5.840  0.5022 -0.7725  1.5619
  173SLPC   H3S19535   5.062   4.665   5.879 -0.1226  3.1202 -0.8929
  173SLPC   C2419536   5.107   4.611   5.680 -0.0077 -0.1643  0.2960
  173SLPC   H4R19537   5.040   4.699   5.668  0.6165  0.0985 -1.6264
  173SLPC   H4S19538   5.040   4.523   5.669  0.0281 -0.1122 -0.3879
  173SLPC   C2519539   5.217   4.588   5.578  0.4692 -0.0759 -0.6292
  173SLPC   H5R19540   5.257   4.485   5.590  0.6813  0.0448 -0.3003
  173SLPC   H5S19541   5.309   4.647   5.600  0.9009 -0.2170 -1.9439
  173SLPC   C2619542   5.177   4.602   5.430  0.3220  0.1352  0.0764
  173SLPC   H6R19543   5.071   4.571   5.429  0.0844  0.7635  1.9930
  173SLPC   H6S19544   5.237   4.525   5.375 -0.4143 -0.8086  0.5657
  173SLPC   C2719545   5.189   4.750   5.369  0.5268 -0.3158  0.0908
  173SLPC   H7R19546   5.297   4.773   5.357 -0.2153  2.2978 -3.2663
  173SLPC   H7S19547   5.142   4.811   5.449  0.8376  2.3539 -1.6159
  173SLPC   C2819548   5.099   4.774   5.247  0.2315  0.1904 -0.3437
  173SLPC   H8R19549   5.002   4.735   5.283  1.0011 -2.1441 -0.6480
  173SLPC   H8S19550   5.119   4.712   5.157 -0.7287  0.6348 -0.8788
  173SLPC   C2919551   5.087   4.919   5.202 -0.1804  0.1185 -0.1263
  173SLPC   H9R19552   5.077   4.995   5.281  0.8743 -0.2861  0.4159
  173SLPC  C21019553   5.093   4.956   5.077  0.0756 -0.1999  0.4000
  173SLPC  H10R19554   5.088   5.065   5.068  0.8158 -0.1934 -0.0807
  173SLPC  C21119555   5.080   4.869   4.949  0.2726  0.5358  0.3044
  173SLPC  H11R19556   5.053   4.945   4.873 -1.0391 -1.0306 -0.8785
  173SLPC  H11S19557   4.993   4.801   4.962  0.1071  0.8756  1.0806
  173SLPC  C21219558   5.199   4.775   4.909 -0.6591 -0.8760  0.3620
  173SLPC  H12R19559   5.270   4.756   4.990  0.8917  0.8704 -0.5091
  173SLPC  C21319560   5.209   4.709   4.789  0.5524  0.2464  0.2665
  173SLPC  H13R19561   5.299   4.648   4.773 -1.0845 -2.4301  0.6976
  173SLPC  C21419562   5.114   4.733   4.667 -0.3867  0.1254  0.3514
  173SLPC  H14R19563   5.017   4.773   4.703 -0.3122  0.1613  0.5169
  173SLPC  H14S19564   5.088   4.637   4.617 -1.9981  1.6092 -1.8066
  173SLPC  C21519565   5.171   4.819   4.555 -0.3778 -0.8709 -0.2535
  173SLPC  H15R19566   5.213   4.909   4.605  1.0691 -0.5682 -1.9319
  173SLPC  H15S19567   5.093   4.838   4.478  0.1977  1.7036 -0.2977
  173SLPC  C21619568   5.279   4.745   4.483  0.2874 -0.5699 -0.5671
  173SLPC  H16R19569   5.251   4.643   4.449  0.1605 -0.1304 -1.8671
  173SLPC  H16S19570   5.366   4.717   4.544  0.0478  0.4238  0.2589
  173SLPC  C21719571   5.324   4.828   4.360 -0.3897  0.0176 -0.4336
  173SLPC  H17R19572   5.376   4.917   4.402  0.0870 -0.1703 -0.6225
  173SLPC  H17S19573   5.250   4.867   4.288 -0.2982 -0.8439 -1.0056
  173SLPC  C21819574   5.412   4.748   4.266 -0.3168 -0.0337  0.1845
  173SLPC  H18R19575   5.462   4.807   4.186 -1.4359 -1.8274 -1.9387
  173SLPC  H18S19576   5.349   4.671   4.216 -0.3421  0.7103 -0.9620
  173SLPC  H18T19577   5.493   4.687   4.310 -0.2829 -0.3071 -0.2572
  173SLPC   C3319578   4.894   4.207   5.341  0.0484  0.4165 -0.3878
  173SLPC   H3X19579   4.807   4.138   5.337  1.6758 -1.6775 -1.6269
  173SLPC   H3Y19580   4.975   4.133   5.358 -0.1155  0.8095  2.6527
  173SLPC   C3419581   4.912   4.270   5.203 -0.3225 -0.4211  0.0902
  173SLPC   H4X19582   4.954   4.198   5.129  0.4424 -0.5142  0.6023
  173SLPC   H4Y19583   4.983   4.356   5.210 -0.5130 -0.4058  3.5683
  173SLPC   C3519584   4.781   4.342   5.155  0.0622  0.6934 -0.1798
  173SLPC   H5X19585   4.749   4.400   5.244 -0.7158 -0.5114  0.3423
  173SLPC   H5Y19586   4.707   4.263   5.128 -0.9375  1.2182  0.9603
  173SLPC   C3619587   4.808   4.447   5.045 -0.2715  0.9245 -0.4590
  173SLPC   H6X19588   4.892   4.512   5.078  0.3999 -0.8027  1.4434
  173SLPC   H6Y19589   4.733   4.527   5.026  1.4898  1.8427 -4.3970
  173SLPC   C3719590   4.854   4.384   4.910 -0.1417  0.2560  0.1213
  173SLPC   H7X19591   4.800   4.288   4.894  0.4208 -0.1206  0.4585
  173SLPC   H7Y19592   4.964   4.374   4.914 -0.2818 -1.3278  0.8171
  173SLPC   C3819593   4.803   4.476   4.800  0.6046 -0.6503 -0.3500
  173SLPC   H8X19594   4.851   4.574   4.819 -2.6203  0.4819  3.3285
  173SLPC   H8Y19595   4.695   4.485   4.823  0.7133  0.2771 -0.1591
  173SLPC   C3919596   4.842   4.418   4.668  0.6023  0.7833  0.0097
  173SLPC   H9X19597   4.805   4.315   4.648 -3.0057  1.7800  0.8745
  173SLPC   H9Y19598   4.950   4.433   4.647  0.1418  1.8826 -1.7366
  173SLPC  C31019599   4.781   4.495   4.551 -0.1613 -0.0604  0.1449
  173SLPC  H10X19600   4.829   4.595   4.544 -0.2850 -0.0578 -0.9236
  173SLPC  H10Y19601   4.675   4.514   4.577  0.1711  0.1915  1.3554
  173SLPC  C31119602   4.786   4.432   4.412  0.2876 -0.2618 -0.2409
  173SLPC  H11X19603   4.881   4.381   4.386 -1.1542 -1.9736 -2.4954
  173SLPC  H11Y19604   4.779   4.521   4.346 -0.2896 -1.2949 -1.6125
  173SLPC  C31219605   4.685   4.324   4.377 -0.0585  0.8596  0.7231
  173SLPC  H12X19606   4.586   4.360   4.413 -0.6420  0.1356 -0.1048
  173SLPC  H12Y19607   4.703   4.231   4.435 -0.4181  0.3674  0.0701
  173SLPC  C31319608   4.686   4.283   4.225  0.0606  0.1939 -0.8185
  173SLPC  H13X19609   4.783   4.243   4.190 -1.3717 -4.2648 -0.3495
  173SLPC  H13Y19610   4.671   4.379   4.171 -0.9366  1.0848  0.9429
  173SLPC  C31419611   4.580   4.178   4.183 -0.3545 -0.2674  0.0658
  173SLPC  H14X19612   4.573   4.168   4.073 -3.0494  0.9830  0.0450
  173SLPC  H14Y19613   4.477   4.216   4.200  0.7282  2.5658  0.8735
  173SLPC  C31519614   4.612   4.047   4.250 -0.1845  0.5402  0.0510
  173SLPC  H15X19615   4.592   4.059   4.359 -0.2935 -1.9794  0.3637
  173SLPC  H15Y19616   4.719   4.017   4.241 -0.3132  0.6665 -2.6242
  173SLPC  C31619617   4.515   3.935   4.199 -0.7828 -0.1537 -0.4170
  173SLPC  H16X19618   4.535   3.933   4.090 -0.0121  0.4007 -0.2946
  173SLPC  H16Y19619   4.414   3.976   4.219  0.6910  3.0224  1.2893
  173SLPC  C31719620   4.558   3.801   4.269 -0.6451  0.1987 -0.3708
  173SLPC  H17X19621   4.532   3.793   4.377 -0.7298 -1.3913 -0.4877
  173SLPC  H17Y19622   4.669   3.798   4.261 -0.7528 -3.1674 -2.7607
  173SLPC  C31819623   4.505   3.677   4.201  0.3110  0.1882  0.1919
  173SLPC  H18X19624   4.501   3.588   4.267  2.7305  0.9306  1.4207
  173SLPC  H18Y19625   4.566   3.652   4.111  0.0638  2.5602 -0.7176
  173SLPC  H18Z19626   4.403   3.700   4.162  0.6053  0.6661 -0.3141
  174SLPC     N19627   0.868   2.201   6.924 -0.1046 -0.9471 -0.3405
  174SLPC   C1319628   0.935   2.080   6.886 -0.6431 -0.3196 -0.1987
  174SLPC  H13A19629   0.930   1.997   6.955  0.1293 -1.1128 -1.0683
  174SLPC  H13B19630   0.923   2.046   6.784 -0.4242 -3.1685  0.6335
  174SLPC  H13C19631   1.042   2.094   6.888 -0.3539 -2.1475 -1.1230
  174SLPC   C1419632   0.893   2.235   7.070 -0.0510 -0.8174  0.0853
  174SLPC  H14A19633   0.828   2.310   7.113  0.9680 -0.5964  1.3090
  174SLPC  H14B19634   0.878   2.151   7.135 -2.8044  0.2797  1.0036
  174SLPC  H14C19635   0.994   2.273   7.077 -0.0796 -0.8066  0.4103
  174SLPC   C1519636   0.716   2.185   6.919  0.6142 -0.0661 -0.7196
  174SLPC  H15A19637   0.665   2.281   6.920  0.3835 -0.1658  1.4406
  174SLPC  H15B19638   0.687   2.143   6.824 -2.3193  0.3602 -0.1089
  174SLPC  H15C19639   0.676   2.121   6.996 -0.5186 -0.6419 -1.7558
  174SLPC   C1219640   0.919   2.328   6.847 -0.4216 -0.5112 -0.3447
  174SLPC  H12A19641   1.008   2.365   6.897  0.3183 -0.6176 -1.5358
  174SLPC  H12B19642   0.841   2.403   6.854  0.5260  0.5676 -0.8303
  174SLPC   C1119643   0.954   2.330   6.692 -0.2646 -0.1147  0.5153
  174SLPC  H11A19644   1.050   2.279   6.671  1.6443  3.6063 -0.7077
  174SLPC  H11B19645   0.971   2.437   6.667 -1.9506  0.2203  0.7245
  174SLPC     P19646   0.722   2.347   6.572 -0.2368  0.0138  0.1749
  174SLPC   O1319647   0.602   2.264   6.587  0.0046  0.0713  0.0071
  174SLPC   O1419648   0.726   2.485   6.631  0.4018 -0.2352 -0.0881
  174SLPC   O1219649   0.848   2.258   6.621  0.0597 -0.5892  0.9165
  174SLPC   O1119650   0.735   2.368   6.414  0.3915 -0.2804  0.0312
  174SLPC    C119651   0.845   2.298   6.344  0.3979 -0.8745  0.8301
  174SLPC    HA19652   0.945   2.331   6.379  0.8518 -1.0051 -0.3030
  174SLPC    HB19653   0.834   2.188   6.355 -1.6902 -0.9406 -1.1441
  174SLPC    C219654   0.843   2.325   6.195  0.2390 -0.9709  0.3374
  174SLPC    HS19655   0.838   2.434   6.178 -1.0809 -1.2855 -1.6279
  174SLPC   O2119656   0.738   2.250   6.138 -0.0244 -0.3409 -0.0245
  174SLPC   C2119657   0.682   2.314   6.030  0.6789  0.9332 -0.0775
  174SLPC   O2219658   0.716   2.425   5.996 -0.2859 -0.2497  0.5309
  174SLPC   C2219659   0.569   2.224   5.969 -0.6558  0.7790 -0.0542
  174SLPC   H2R19660   0.592   2.115   5.964 -2.1563  0.4925 -1.7741
  174SLPC   H2S19661   0.483   2.225   6.040  0.8628 -0.0465  1.8760
  174SLPC    C319662   0.975   2.275   6.132 -0.1073  0.0642 -0.3176
  174SLPC    HX19663   0.986   2.170   6.167 -0.4875 -0.3378 -1.3640
  174SLPC    HY19664   1.062   2.333   6.169  1.3064 -2.7720  1.1038
  174SLPC   O3119665   0.985   2.262   5.990  0.6448 -0.5496  0.1148
  174SLPC   C3119666   1.013   2.385   5.933 -0.2393 -0.0953  0.6089
  174SLPC   O3219667   1.034   2.485   6.000 -0.3610  0.1875  0.3311
  174SLPC   C3219668   1.009   2.361   5.777  0.1210 -0.0057  0.4120
  174SLPC   H2X19669   0.924   2.291   5.762  2.2891 -2.5171 -0.9789
  174SLPC   H2Y19670   1.101   2.311   5.741 -0.3065 -1.5244  1.3396
  174SLPC   C2319671   0.528   2.279   5.835 -0.0705  0.0397  0.1002
  174SLPC   H3R19672   0.542   2.389   5.838  1.2565 -0.0843 -0.5655
  174SLPC   H3S19673   0.421   2.270   5.807  0.3600 -1.0988 -1.2902
  174SLPC   C2419674   0.612   2.237   5.713  0.0206  0.0318  0.3410
  174SLPC   H4R19675   0.582   2.138   5.672 -0.4803  0.8064 -1.2569
  174SLPC   H4S19676   0.721   2.233   5.733  0.2616 -1.8138 -1.0607
  174SLPC   C2519677   0.600   2.339   5.597 -0.5196 -0.2885  0.0782
  174SLPC   H5R19678   0.701   2.359   5.555  0.5663  2.9528  3.6534
  174SLPC   H5S19679   0.572   2.442   5.629 -1.8358 -0.9119  1.0154
  174SLPC   C2619680   0.513   2.290   5.488  0.3088 -0.1530  0.6505
  174SLPC   H6R19681   0.414   2.260   5.528 -0.9690 -0.4198 -2.4372
  174SLPC   H6S19682   0.554   2.204   5.430  0.3901 -0.6810  1.4740
  174SLPC   C2719683   0.494   2.402   5.382 -0.0523 -0.1021  0.3145
  174SLPC   H7R19684   0.582   2.471   5.377  0.3648 -0.6726 -0.3619
  174SLPC   H7S19685   0.422   2.479   5.416  2.5980  2.2181  1.1037
  174SLPC   C2819686   0.482   2.340   5.242  0.1349 -0.4690 -0.1404
  174SLPC   H8R19687   0.394   2.272   5.240  0.8097 -1.4026  0.6817
  174SLPC   H8S19688   0.564   2.267   5.221  1.7678  1.8060 -2.1948
  174SLPC   C2919689   0.486   2.440   5.122  0.5086  0.3457  0.4602
  174SLPC   H9R19690   0.579   2.496   5.101 -0.3717  1.1558 -1.5552
  174SLPC  C21019691   0.399   2.453   5.025  0.1098  0.7259 -0.1314
  174SLPC  H10R19692   0.428   2.514   4.939  2.2571 -1.2276 -0.8932
  174SLPC  C21119693   0.270   2.381   5.019  0.1814  0.0014  0.2463
  174SLPC  H11R19694   0.186   2.444   5.054  0.6971 -0.0524  1.6465
  174SLPC  H11S19695   0.265   2.291   5.085  1.9528 -1.9790 -2.1436
  174SLPC  C21219696   0.236   2.346   4.883  0.3224  0.3654 -0.3611
  174SLPC  H12R19697   0.179   2.420   4.824 -0.8417 -0.5452 -0.4209
  174SLPC  C21319698   0.291   2.247   4.809 -0.1214 -0.0106  0.2287
  174SLPC  H13R19699   0.248   2.240   4.708 -0.4797 -2.4241  0.4716
  174SLPC  C21419700   0.379   2.136   4.861 -0.4650 -0.1880 -0.4886
  174SLPC  H14R19701   0.349   2.034   4.830 -1.4572  0.1098 -0.5286
  174SLPC  H14S19702   0.385   2.131   4.972  3.5007  1.2331 -0.4472
  174SLPC  C21519703   0.523   2.153   4.804  0.6718  0.2566 -0.4019
  174SLPC  H15R19704   0.590   2.071   4.835 -0.0390 -0.6050 -1.0903
  174SLPC  H15S19705   0.562   2.255   4.826  0.5139  0.5546 -1.4288
  174SLPC  C21619706   0.510   2.142   4.649 -0.7998 -0.0933  0.2111
  174SLPC  H16R19707   0.429   2.206   4.610  0.9824  1.1960 -1.5907
  174SLPC  H16S19708   0.484   2.039   4.618  1.1189 -0.1220 -1.5372
  174SLPC  C21719709   0.653   2.167   4.588  0.1747  0.5859 -0.0103
  174SLPC  H17R19710   0.728   2.095   4.628 -0.1664  1.0011  1.4210
  174SLPC  H17S19711   0.696   2.260   4.631 -0.2744  0.5413  0.5473
  174SLPC  C21819712   0.644   2.172   4.435  0.4772  0.7994 -0.6343
  174SLPC  H18R19713   0.579   2.257   4.405 -1.3501 -0.5967 -0.7677
  174SLPC  H18S19714   0.608   2.077   4.389  0.5300  1.1288 -1.3672
  174SLPC  H18T19715   0.745   2.190   4.392  0.5755  2.6536  0.2953
  174SLPC   C3319716   0.972   2.491   5.692 -0.6733  0.9593 -0.0603
  174SLPC   H3X19717   1.062   2.554   5.709  0.7789 -0.4856 -1.8301
  174SLPC   H3Y19718   0.877   2.539   5.721 -0.9757  1.6828 -2.0652
  174SLPC   C3419719   0.972   2.468   5.537 -0.2405 -0.3584 -0.3165
  174SLPC   H4X19720   0.916   2.374   5.524 -0.1961 -0.5227  0.6513
  174SLPC   H4Y19721   1.078   2.461   5.503 -1.2295 -0.5713 -3.7373
  174SLPC   C3519722   0.898   2.578   5.460 -0.1158  0.3514  0.5000
  174SLPC   H5X19723   0.957   2.672   5.467  0.3643  0.4505 -3.2526
  174SLPC   H5Y19724   0.808   2.594   5.523  1.1189  0.2862  2.3619
  174SLPC   C3619725   0.867   2.543   5.318  0.4160 -0.0431  0.6590
  174SLPC   H6X19726   0.831   2.633   5.263  2.4273 -0.2406 -1.0799
  174SLPC   H6Y19727   0.781   2.473   5.310  1.0962 -0.9882  1.4492
  174SLPC   C3719728   0.982   2.490   5.230  0.3663  0.4612 -0.1639
  174SLPC   H7X19729   0.989   2.381   5.250  0.8463  0.5065 -0.0701
  174SLPC   H7Y19730   1.076   2.545   5.253 -0.5793  0.9383  3.1252
  174SLPC   C3819731   0.960   2.507   5.079  0.6196 -0.2679 -0.0304
  174SLPC   H8X19732   0.932   2.613   5.061  1.7839 -0.3085 -2.3821
  174SLPC   H8Y19733   0.875   2.438   5.058  0.0719 -1.3847  4.6440
  174SLPC   C3919734   1.082   2.496   4.997  0.0184 -0.6325 -0.2567
  174SLPC   H9X19735   1.144   2.410   5.029  0.0211 -0.6923 -0.4203
  174SLPC   H9Y19736   1.151   2.578   5.025 -1.6885  0.1218  2.0302
  174SLPC  C31019737   1.067   2.488   4.844  0.4359  0.1982 -0.4543
  174SLPC  H10X19738   1.170   2.495   4.804  0.3282 -1.9873 -1.2754
  174SLPC  H10Y19739   1.008   2.568   4.794  1.1317 -0.9840 -3.4081
  174SLPC  C31119740   1.010   2.351   4.790 -0.0865  0.0936  0.0634
  174SLPC  H11X19741   0.909   2.332   4.832 -0.0165 -0.6511 -0.1066
  174SLPC  H11Y19742   1.077   2.269   4.822  1.4250  0.7128 -1.3438
  174SLPC  C31219743   0.989   2.344   4.636 -0.3921 -0.2624 -0.5695
  174SLPC  H12X19744   0.893   2.392   4.608 -0.8061 -1.7424 -1.8047
  174SLPC  H12Y19745   0.973   2.235   4.624  0.9052 -1.1002  3.7596
  174SLPC  C31319746   1.104   2.389   4.548  0.2896  0.0262 -0.2051
  174SLPC  H13X19747   1.203   2.364   4.592 -1.2210 -3.9675  1.3541
  174SLPC  H13Y19748   1.100   2.500   4.545 -0.7369 -0.0045 -2.5977
  174SLPC  C31419749   1.068   2.360   4.403  0.6642  0.6340 -0.7905
  174SLPC  H14X19750   0.989   2.431   4.371  0.5118  0.6000 -0.5029
  174SLPC  H14Y19751   1.030   2.255   4.396  0.6159  0.6677 -1.0116
  174SLPC  C31519752   1.189   2.376   4.307  0.5532  0.2478 -0.7346
  174SLPC  H15X19753   1.259   2.291   4.322 -0.1773 -0.4830 -1.3328
  174SLPC  H15Y19754   1.235   2.474   4.332  1.5018 -0.0605 -1.2405
  174SLPC  C31619755   1.146   2.375   4.159  0.7107 -0.7097  0.4188
  174SLPC  H16X19756   1.070   2.294   4.165 -0.2218  0.1423  0.2564
  174SLPC  H16Y19757   1.226   2.345   4.087  0.4692 -0.5053  0.0638
  174SLPC  C31719758   1.086   2.507   4.114 -0.1470 -0.3967  0.1944
  174SLPC  H17X19759   1.166   2.578   4.084  0.5424 -0.9849  0.6234
  174SLPC  H17Y19760   1.031   2.568   4.190 -1.3719 -1.8039  0.4721
  174SLPC  C31819761   0.999   2.493   3.992  0.0024  0.8105 -1.0493
  174SLPC  H18X19762   1.032   2.418   3.917 -1.4171 -0.1741 -0.7294
  174SLPC  H18Y19763   0.991   2.594   3.945 -0.3467  1.3802  0.1921
  174SLPC  H18Z19764   0.900   2.452   4.023  0.0313  0.8788 -0.8718
  175SLPC     N19765   4.501   0.273   6.583  0.1552  0.9559 -0.6766
  175SLPC   C1319766   4.380   0.231   6.659 -0.0448  0.2531  0.3639
  175SLPC  H13A19767   4.412   0.150   6.723  1.8302  1.4573  1.0123
  175SLPC  H13B19768   4.344   0.308   6.726  2.0835  0.0104  1.9021
  175SLPC  H13C19769   4.299   0.193   6.598 -0.2956 -0.0863  0.9024
  175SLPC   C1419770   4.554   0.148   6.515  0.1115 -0.3206 -0.6410
  175SLPC  H14A19771   4.648   0.161   6.464  1.6047 -2.2659  1.3947
  175SLPC  H14B19772   4.554   0.062   6.581 -2.2741  0.2389  0.1942
  175SLPC  H14C19773   4.477   0.119   6.445 -0.5201 -0.1042 -0.0556
  175SLPC   C1519774   4.597   0.309   6.683 -0.6479 -0.2894  0.6681
  175SLPC  H15A19775   4.601   0.244   6.769  1.1481  0.9164  1.5732
  175SLPC  H15B19776   4.699   0.318   6.647 -0.2371 -2.7094  1.0455
  175SLPC  H15C19777   4.577   0.403   6.731 -0.5389 -0.0851  0.3213
  175SLPC   C1219778   4.474   0.391   6.497 -0.0744 -0.1052 -0.6198
  175SLPC  H12A19779   4.464   0.484   6.552 -1.3066 -0.4098 -0.3107
  175SLPC  H12B19780   4.378   0.381   6.449 -1.3862  0.8700  1.6755
  175SLPC   C1119781   4.578   0.415   6.384 -0.1425  0.1964 -0.2972
  175SLPC  H11A19782   4.560   0.515   6.339 -1.4534 -0.4014 -1.1541
  175SLPC  H11B19783   4.566   0.344   6.300  3.3152  0.3972 -1.1160
  175SLPC     P19784   4.823   0.340   6.366 -0.0873  0.0017 -0.5258
  175SLPC   O1319785   4.946   0.332   6.443  0.2408 -0.2048 -0.3103
  175SLPC   O1419786   4.772   0.210   6.314 -0.4634 -0.5724 -0.2469
  175SLPC   O1219787   4.709   0.416   6.440 -0.0054 -0.2852 -0.4659
  175SLPC   O1119788   4.841   0.432   6.234  0.3132 -0.0535  0.0814
  175SLPC    C119789   4.865   0.573   6.246  0.2999  0.0423  1.1283
  175SLPC    HA19790   4.779   0.631   6.287  0.4048  0.8530  0.2381
  175SLPC    HB19791   4.960   0.588   6.303  0.5241  3.0070  0.1158
  175SLPC    C219792   4.902   0.630   6.099  0.2031  0.1642 -0.3813
  175SLPC    HS19793   4.900   0.741   6.092 -0.8829  0.2364  0.7641
  175SLPC   O2119794   4.816   0.574   5.998 -0.4626 -0.2353  0.5627
  175SLPC   C2119795   4.683   0.588   6.008 -0.4374  0.0575 -0.0646
  175SLPC   O2219796   4.621   0.642   6.094  0.0514  0.1263 -0.3779
  175SLPC   C2219797   4.611   0.529   5.886 -0.2424  0.0601 -0.2561
  175SLPC   H2R19798   4.555   0.441   5.924  0.3938 -0.4799 -0.5405
  175SLPC   H2S19799   4.549   0.613   5.847  1.6025  1.8380  0.4211
  175SLPC    C319800   5.029   0.565   6.067  0.1668 -0.3561  0.2319
  175SLPC    HX19801   5.020   0.454   6.069  2.9291 -0.6934 -1.1532
  175SLPC    HY19802   5.108   0.595   6.140  1.6423  1.6936 -2.0325
  175SLPC   O3119803   5.078   0.605   5.937  0.8305  0.6926  0.2712
  175SLPC   C3119804   5.160   0.524   5.877  0.5514 -1.4385  0.5223
  175SLPC   O3219805   5.202   0.421   5.921 -1.0523 -0.0573 -0.0390
  175SLPC   C3219806   5.195   0.585   5.739  0.4382 -0.6912 -0.5223
  175SLPC   H2X19807   5.298   0.628   5.741 -0.8430  2.7265 -0.6218
  175SLPC   H2Y19808   5.130   0.675   5.730  1.6195  0.4847  1.7989
  175SLPC   C2319809   4.703   0.472   5.775  0.1038  0.3825  0.7548
  175SLPC   H3R19810   4.773   0.403   5.827 -0.7155  0.7213  2.3693
  175SLPC   H3S19811   4.775   0.547   5.735  0.4582 -1.0468 -1.4625
  175SLPC   C2419812   4.620   0.425   5.659 -0.7238  0.1649  0.5579
  175SLPC   H4R19813   4.534   0.492   5.638 -2.3941 -1.6679  1.2782
  175SLPC   H4S19814   4.577   0.325   5.678  0.0418 -0.5358 -1.1858
  175SLPC   C2519815   4.694   0.433   5.525  0.0553 -0.0793  0.6214
  175SLPC   H5R19816   4.787   0.372   5.529  0.5665  0.7317  1.1713
  175SLPC   H5S19817   4.729   0.537   5.512 -3.0100  1.0122  0.3031
  175SLPC   C2619818   4.599   0.391   5.410  0.1978 -0.0921  0.1768
  175SLPC   H6R19819   4.524   0.472   5.422  1.9307  1.2739  3.0362
  175SLPC   H6S19820   4.561   0.291   5.437 -1.6867  0.4916 -0.1886
  175SLPC   C2719821   4.666   0.406   5.272  0.1925  0.0385 -0.2881
  175SLPC   H7R19822   4.755   0.345   5.246  1.3430  1.0098  1.1792
  175SLPC   H7S19823   4.676   0.514   5.250  1.4202 -0.0226 -0.0797
  175SLPC   C2819824   4.561   0.353   5.166 -0.3636 -0.3556  0.1608
  175SLPC   H8R19825   4.456   0.382   5.186 -0.4703 -0.0953 -0.7112
  175SLPC   H8S19826   4.565   0.243   5.180 -0.6195 -0.0820  2.8908
  175SLPC   C2919827   4.598   0.406   5.028  0.0730 -0.4544 -0.2585
  175SLPC   H9R19828   4.620   0.514   5.021 -2.1258  0.2098  1.8576
  175SLPC  C21019829   4.591   0.327   4.914 -0.3749  0.2768  0.2665
  175SLPC  H10R19830   4.620   0.381   4.823 -0.0341  0.3154  0.3939
  175SLPC  C21119831   4.542   0.187   4.901  0.3666  0.4575  0.2561
  175SLPC  H11R19832   4.528   0.126   4.993 -0.3192  1.0926  0.5753
  175SLPC  H11S19833   4.608   0.132   4.830  0.1376  1.1183 -0.4814
  175SLPC  C21219834   4.401   0.184   4.839  0.1442  0.6660 -0.4546
  175SLPC  H12R19835   4.326   0.221   4.910 -0.4388 -1.2463 -0.0353
  175SLPC  C21319836   4.363   0.149   4.714 -0.8693 -0.3735 -0.1933
  175SLPC  H13R19837   4.257   0.125   4.698 -0.3282 -2.2273 -1.2473
  175SLPC  C21419838   4.459   0.097   4.615  0.9869  0.6974 -0.0609
  175SLPC  H14R19839   4.558   0.074   4.658 -0.0267  0.3592  2.2695
  175SLPC  H14S19840   4.473   0.184   4.547 -2.3378  0.1707 -1.6697
  175SLPC  C21519841   4.402  -0.017   4.526 -0.4453 -1.0075  0.1909
  175SLPC  H15R19842   4.311   0.018   4.473 -0.0730 -1.1174 -0.5336
  175SLPC  H15S19843   4.370  -0.097   4.596 -2.6909 -0.2146  0.1691
  175SLPC  C21619844   4.502  -0.048   4.416 -0.2512  0.0786 -0.3273
  175SLPC  H16R19845   4.603  -0.058   4.461 -0.3220  2.1467  0.4049
  175SLPC  H16S19846   4.505   0.036   4.344  0.0311 -0.3681 -0.8432
  175SLPC  C21719847   4.471  -0.156   4.311 -0.5156 -0.3801 -0.5361
  175SLPC  H17R19848   4.397  -0.111   4.241 -1.4305  1.9350  1.7793
  175SLPC  H17S19849   4.428  -0.252   4.347  2.2364 -1.2055  0.8319
  175SLPC  C21819850   4.594  -0.193   4.233  0.8021  0.2317  0.3432
  175SLPC  H18R19851   4.567  -0.253   4.143  0.6355  1.0072 -0.1305
  175SLPC  H18S19852   4.671  -0.247   4.292  1.4102 -0.5881 -1.1397
  175SLPC  H18T19853   4.640  -0.107   4.181  0.0896  0.0296 -0.6599
  175SLPC   C3319854   5.181   0.476   5.629 -0.1243  0.0040 -0.0538
  175SLPC   H3X19855   5.147   0.382   5.676  0.5359 -0.0975  0.2433
  175SLPC   H3Y19856   5.285   0.465   5.591  0.7368  1.1153  1.8308
  175SLPC   C3419857   5.090   0.519   5.509  0.0148  0.9269  0.2969
  175SLPC   H4X19858   5.117   0.621   5.474 -0.1256  0.6548 -0.6204
  175SLPC   H4Y19859   4.984   0.529   5.539 -0.5329  1.7295 -1.7508
  175SLPC   C3519860   5.113   0.438   5.383  1.0938  0.5496  0.0914
  175SLPC   H5X19861   5.072   0.335   5.386 -0.2190  1.0807  1.9942
  175SLPC   H5Y19862   5.221   0.424   5.364  0.7198 -0.9209 -1.1562
  175SLPC   C3619863   5.060   0.518   5.260  0.8306 -0.0238 -0.3172
  175SLPC   H6X19864   5.109   0.618   5.265  0.2822  0.1876  2.5572
  175SLPC   H6Y19865   4.950   0.529   5.274  1.1149  1.7832  0.8798
  175SLPC   C3719866   5.091   0.448   5.124 -0.0831  0.9040 -0.3992
  175SLPC   H7X19867   5.086   0.339   5.147 -1.4289  0.9902 -0.2141
  175SLPC   H7Y19868   5.195   0.475   5.096 -0.2435  1.3217 -0.5928
  175SLPC   C3819869   4.992   0.487   5.010 -0.2690  0.0567 -0.3333
  175SLPC   H8X19870   4.997   0.598   5.005  0.0445  0.0831  0.5008
  175SLPC   H8Y19871   4.888   0.470   5.046 -0.6494 -0.6925 -1.6903
  175SLPC   C3919872   5.032   0.426   4.872 -0.1756 -0.2651 -0.8057
  175SLPC   H9X19873   5.035   0.314   4.873 -0.5870 -0.2931 -1.8398
  175SLPC   H9Y19874   5.137   0.449   4.843  0.0571  0.2285  0.3639
  175SLPC  C31019875   4.947   0.482   4.754  0.7365 -0.3785  0.3965
  175SLPC  H10X19876   4.971   0.590   4.743  0.6538 -0.3506  0.4905
  175SLPC  H10Y19877   4.841   0.474   4.784  0.5749  0.6725  0.1608
  175SLPC  C31119878   4.989   0.422   4.621  0.1817  0.0029 -0.1656
  175SLPC  H11X19879   4.961   0.315   4.624  1.3900 -0.3194 -0.0683
  175SLPC  H11Y19880   5.100   0.426   4.617  0.1868  1.2145  0.6231
  175SLPC  C31219881   4.927   0.494   4.490  0.3927 -0.0100 -0.3928
  175SLPC  H12X19882   4.989   0.449   4.410  2.5281  2.9141 -0.5294
  175SLPC  H12Y19883   4.950   0.601   4.503  2.2353 -0.3920 -0.3389
  175SLPC  C31319884   4.778   0.463   4.469  0.7286 -0.6572  0.2334
  175SLPC  H13X19885   4.702   0.506   4.536 -2.8028 -2.5448 -2.2490
  175SLPC  H13Y19886   4.771   0.352   4.471 -2.9312 -0.5282  0.4922
  175SLPC  C31419887   4.732   0.507   4.327  0.0991  0.1408 -0.4377
  175SLPC  H14X19888   4.631   0.465   4.308  0.3782 -1.4395  1.3097
  175SLPC  H14Y19889   4.794   0.460   4.247  2.1438  0.0317  1.0982
  175SLPC  C31519890   4.729   0.660   4.304  0.1662  0.3943  0.0618
  175SLPC  H15X19891   4.728   0.714   4.402  0.0585 -1.6370  1.2268
  175SLPC  H15Y19892   4.636   0.682   4.247 -1.4060 -2.9703  1.0816
  175SLPC  C31619893   4.851   0.707   4.223  0.9303 -0.0356 -0.6135
  175SLPC  H16X19894   4.852   0.658   4.123  0.8275  0.0063 -0.6347
  175SLPC  H16Y19895   4.940   0.676   4.281 -0.5815  0.4997  2.1529
  175SLPC  C31719896   4.849   0.860   4.192  0.2758 -0.1190  0.6977
  175SLPC  H17X19897   4.817   0.916   4.283 -0.2272  1.5510 -0.4638
  175SLPC  H17Y19898   4.770   0.874   4.116 -0.4240 -1.7072  1.0947
  175SLPC  C31819899   4.995   0.894   4.146  0.6014  0.2784 -0.0482
  175SLPC  H18X19900   5.068   0.864   4.223 -2.1168 -0.3195  2.4603
  175SLPC  H18Y19901   4.998   1.004   4.131 -0.8970  0.4993  1.0806
  175SLPC  H18Z19902   5.009   0.836   4.052  0.2113  0.0474  0.0318
  176SLPC     N19903   6.399   5.620   6.321  0.3290 -0.1821  0.2756
  176SLPC   C1319904   6.456   5.694   6.441 -0.0960 -0.3447  0.4683
  176SLPC  H13A19905   6.389   5.775   6.466  0.0189 -0.3509  0.8092
  176SLPC  H13B19906   6.456   5.636   6.533 -0.9152 -1.1945 -0.0520
  176SLPC  H13C19907   6.558   5.728   6.428  0.1826 -1.0340  0.7733
  176SLPC   C1419908   6.257   5.569   6.353 -0.4074  0.7267  0.1334
  176SLPC  H14A19909   6.230   5.510   6.267  4.2807  0.2543 -1.2789
  176SLPC  H14B19910   6.262   5.516   6.448  3.6689  1.7173  0.6336
  176SLPC  H14C19911   6.192   5.653   6.374 -1.1442  0.2691 -0.2503
  176SLPC   C1519912   6.485   5.501   6.298  0.5821  0.3854 -0.0020
  176SLPC  H15A19913   6.494   5.441   6.387 -1.6814 -0.4127 -0.2406
  176SLPC  H15B19914   6.435   5.452   6.216 -2.2663  1.7424  0.7717
  176SLPC  H15C19915   6.584   5.522   6.260  1.7087  1.9469  3.4198
  176SLPC   C1219916   6.400   5.710   6.200 -0.5552  0.0252 -0.6222
  176SLPC  H12A19917   6.387   5.641   6.118 -1.7266 -0.8187  0.2399
  176SLPC  H12B19918   6.497   5.751   6.177 -0.0144 -0.7490  0.2364
  176SLPC   C1119919   6.289   5.813   6.181  0.3347  0.1325  0.4624
  176SLPC  H11A19920   6.190   5.763   6.182  1.7747 -3.1469 -1.8549
  176SLPC  H11B19921   6.297   5.868   6.084 -1.4387  0.8632  0.6983
  176SLPC     P19922   6.328   6.049   6.299 -0.3342  0.1489 -0.3823
  176SLPC   O1319923   6.264   6.115   6.411  0.6772 -0.5635  0.0867
  176SLPC   O1419924   6.473   6.059   6.285 -0.3315 -0.0297  0.5652
  176SLPC   O1219925   6.284   5.900   6.295  0.0494 -0.3402 -0.1639
  176SLPC   O1119926   6.270   6.115   6.168 -0.2968  0.3193  0.1254
  176SLPC    C119927   6.135   6.157   6.166  0.3962 -0.4719  0.3752
  176SLPC    HA19928   6.074   6.064   6.164  0.2336 -0.3667  0.4175
  176SLPC    HB19929   6.093   6.208   6.256 -0.7974 -0.0575 -0.4009
  176SLPC    C219930   6.086   6.228   6.036 -0.1956 -0.8484  0.1530
  176SLPC    HS19931   5.978   6.210   6.018 -0.2250 -2.1825  1.4368
  176SLPC   O2119932   6.168   6.196   5.921  0.4538 -0.1459  0.0855
  176SLPC   C2119933   6.124   6.089   5.860 -0.3391 -0.7690 -0.4060
  176SLPC   O2219934   6.043   6.007   5.900 -0.4447  0.2232  0.0393
  176SLPC   C2219935   6.201   6.066   5.735  0.4313  0.1785 -0.5909
  176SLPC   H2R19936   6.273   6.149   5.718 -1.1359  1.8077  0.4114
  176SLPC   H2S19937   6.254   5.972   5.763 -1.8490 -0.5253  1.7632
  176SLPC    C319938   6.083   6.383   6.050 -0.1297 -0.7095  0.1798
  176SLPC    HX19939   6.185   6.425   6.062 -0.5438  0.3875 -0.0170
  176SLPC    HY19940   6.035   6.400   6.149  1.3146  1.5055  0.5731
  176SLPC   O3119941   6.007   6.449   5.947  0.4324  0.8406  0.1789
  176SLPC   C3119942   6.083   6.500   5.853 -0.6486  0.1525  0.3118
  176SLPC   O3219943   6.209   6.489   5.852 -0.3197 -0.0757 -0.2622
  176SLPC   C3219944   5.994   6.569   5.741  0.6410  0.0020 -0.0497
  176SLPC   H2X19945   6.049   6.656   5.699 -1.1948  0.3560 -1.8930
  176SLPC   H2Y19946   5.902   6.601   5.795  0.8307  0.4094  0.0328
  176SLPC   C2319947   6.112   6.025   5.618 -0.7497 -0.1195 -0.3713
  176SLPC   H3R19948   6.035   5.948   5.640 -1.0296  0.3658  0.3961
  176SLPC   H3S19949   6.183   5.986   5.542  0.8540  2.8216 -0.5347
  176SLPC   C2419950   6.049   6.146   5.558  0.6822  0.0529 -0.0129
  176SLPC   H4R19951   6.137   6.205   5.524  0.0176 -0.0078 -1.9073
  176SLPC   H4S19952   5.982   6.199   5.628 -3.6963 -3.3071 -1.2121
  176SLPC   C2519953   5.971   6.122   5.429 -0.5440 -0.4493 -0.1053
  176SLPC   H5R19954   5.876   6.067   5.436  0.3210 -1.8787  0.8001
  176SLPC   H5S19955   6.046   6.059   5.377 -0.7684 -1.0900  0.3409
  176SLPC   C2619956   5.942   6.241   5.348 -0.0770  0.6530  0.2405
  176SLPC   H6R19957   6.040   6.282   5.316  0.5043 -0.2758  0.7935
  176SLPC   H6S19958   5.873   6.311   5.399 -0.6832 -0.1308  0.5042
  176SLPC   C2719959   5.855   6.197   5.224  0.6570  0.2784  0.1396
  176SLPC   H7R19960   5.752   6.183   5.264  0.7624  0.5898  0.5174
  176SLPC   H7S19961   5.881   6.095   5.188  1.1271  0.3962  0.1368
  176SLPC   C2819962   5.854   6.286   5.101  0.2083 -0.1623 -0.0232
  176SLPC   H8R19963   5.815   6.219   5.021  1.0192 -2.1282  1.1487
  176SLPC   H8S19964   5.961   6.298   5.074  0.5903 -0.9083  1.0974
  176SLPC   C2919965   5.796   6.425   5.115 -0.0869 -0.2938  0.3621
  176SLPC   H9R19966   5.822   6.476   5.209  2.1250 -0.7315  0.0462
  176SLPC  C21019967   5.731   6.486   5.011 -0.7916  0.3299 -0.2545
  176SLPC  H10R19968   5.684   6.584   5.028 -1.7217  0.0458 -1.0766
  176SLPC  C21119969   5.711   6.437   4.868 -0.2025  1.0088 -0.1034
  176SLPC  H11R19970   5.647   6.507   4.811 -0.8725  0.7540  0.3255
  176SLPC  H11S19971   5.654   6.343   4.887 -0.4995  1.4908  1.5305
  176SLPC  C21219972   5.836   6.417   4.790  0.2472 -0.1949  0.8373
  176SLPC  H12R19973   5.918   6.369   4.846  0.6117  0.4923  0.8997
  176SLPC  C21319974   5.863   6.451   4.661  0.1090 -0.2301 -0.1266
  176SLPC  H13R19975   5.966   6.439   4.624  0.4108  1.8313 -0.0843
  176SLPC  C21419976   5.767   6.495   4.554 -0.3021 -0.6248 -0.1826
  176SLPC  H14R19977   5.764   6.606   4.549  1.1745 -0.5411  0.3338
  176SLPC  H14S19978   5.660   6.472   4.573 -0.3888  0.0229  0.1464
  176SLPC  C21519979   5.804   6.449   4.410 -0.2836  0.5113 -0.0035
  176SLPC  H15R19980   5.809   6.338   4.415  0.7632  0.4944 -0.9099
  176SLPC  H15S19981   5.901   6.483   4.368 -1.2452  0.6875 -2.2457
  176SLPC  C21619982   5.682   6.480   4.315 -0.3575 -0.3224 -0.0639
  176SLPC  H16R19983   5.678   6.590   4.300  1.6943 -0.2996 -0.7043
  176SLPC  H16S19984   5.593   6.448   4.374  0.5323  0.8851  2.0750
  176SLPC  C21719985   5.677   6.389   4.194 -0.3612 -0.8348 -0.1952
  176SLPC  H17R19986   5.678   6.290   4.245  0.8805  0.4009  2.3496
  176SLPC  H17S19987   5.762   6.405   4.125  0.4408 -1.2390  0.6799
  176SLPC  C21819988   5.546   6.416   4.124  0.9040 -0.4799  0.8416
  176SLPC  H18R19989   5.455   6.368   4.165  1.3464 -3.1289 -1.0170
  176SLPC  H18S19990   5.564   6.386   4.018  0.5042  2.6228 -0.2098
  176SLPC  H18T19991   5.527   6.523   4.102  0.0236 -1.0922 -1.8192
  176SLPC   C3319992   5.948   6.481   5.624  0.0599 -0.3882 -0.0649
  176SLPC   H3X19993   5.889   6.400   5.672 -0.2276  0.1339  0.4781
  176SLPC   H3Y19994   6.043   6.440   5.583  2.2996  1.4184  2.8253
  176SLPC   C3419995   5.862   6.564   5.527  0.2466  0.5198  0.0885
  176SLPC   H4X19996   5.786   6.624   5.581 -0.0068  0.0145  0.2997
  176SLPC   H4Y19997   5.807   6.496   5.458  1.4485 -2.5221  1.9196
  176SLPC   C3519998   5.941   6.655   5.431  0.7960  0.0124  0.5550
  176SLPC   H5X19999   6.000   6.595   5.358  1.5306  1.1349  0.2033
  176SLPC   H5Y20000   6.009   6.722   5.489  1.4714 -0.0285 -0.1806
  176SLPC   C3620001   5.855   6.756   5.353  0.1924 -0.3129 -0.3794
  176SLPC   H6X20002   5.799   6.808   5.433  0.5718 -1.5522  0.7359
  176SLPC   H6Y20003   5.776   6.703   5.296 -1.3545  0.7335  0.7436
  176SLPC   C3720004   5.938   6.848   5.253 -0.2000  0.4732  0.6916
  176SLPC   H7X20005   6.032   6.883   5.300  0.5998 -1.4408  0.6319
  176SLPC   H7Y20006   5.870   6.933   5.233 -1.9082 -1.0700 -0.4484
  176SLPC   C3820007   5.981   6.762   5.129  0.1828 -0.6402  0.1881
  176SLPC   H8X20008   5.896   6.695   5.105 -0.5928  0.8700 -1.5840
  176SLPC   H8Y20009   6.071   6.705   5.158  1.5946  2.0125  1.3672
  176SLPC   C3920010   6.026   6.848   5.010  0.0963 -0.7908  0.5381
  176SLPC   H9X20011   6.098   6.928   5.037 -0.8198 -0.0029  0.7415
  176SLPC   H9Y20012   5.935   6.904   4.978 -2.3405 -2.2894  4.1825
  176SLPC  C31020013   6.070   6.757   4.892  0.6322 -0.1667 -0.7803
  176SLPC  H10X20014   6.003   6.669   4.889 -0.0206  0.3207 -0.9408
  176SLPC  H10Y20015   6.177   6.729   4.904  0.6151  0.3974  0.8798
  176SLPC  C31120016   6.071   6.840   4.760 -1.0724  0.6737  0.3507
  176SLPC  H11X20017   6.118   6.940   4.772 -2.2566  1.3748 -0.6558
  176SLPC  H11Y20018   5.968   6.854   4.722 -0.6712  1.9257 -0.3249
  176SLPC  C31220019   6.147   6.762   4.645  0.2197  0.7110 -0.7037
  176SLPC  H12X20020   6.107   6.659   4.640  1.1192  0.2039  1.3745
  176SLPC  H12Y20021   6.253   6.744   4.675  0.0098 -0.1902 -0.4814
  176SLPC  C31320022   6.134   6.827   4.506  0.8088  0.1466  0.2455
  176SLPC  H13X20023   6.204   6.775   4.438 -0.6710 -1.7518  0.0865
  176SLPC  H13Y20024   6.171   6.929   4.527  0.9898 -0.2210  1.9113
  176SLPC  C31420025   5.999   6.799   4.447 -0.0172 -0.1581 -0.4903
  176SLPC  H14X20026   5.931   6.852   4.517  1.1630  0.2319  0.4097
  176SLPC  H14Y20027   5.979   6.690   4.458  1.4180 -0.2242  2.9093
  176SLPC  C31520028   5.987   6.857   4.309 -0.2570  0.0014  0.1457
  176SLPC  H15X20029   5.887   6.828   4.271  0.3326 -1.0744 -0.6631
  176SLPC  H15Y20030   6.064   6.811   4.243 -2.2437 -2.3525 -0.6596
  176SLPC  C31620031   6.001   7.006   4.301  0.8434 -0.1903 -0.8032
  176SLPC  H16X20032   6.098   7.049   4.335 -0.3581  3.6944 -1.7537
  176SLPC  H16Y20033   5.925   7.052   4.369  2.5865 -0.4894  1.4871
  176SLPC  C31720034   5.990   7.065   4.163 -0.7482 -0.2449 -0.4111
  176SLPC  H17X20035   6.074   7.021   4.106 -1.2259 -1.1317 -0.4534
  176SLPC  H17Y20036   6.018   7.172   4.160 -0.8764 -0.2156 -0.6109
  176SLPC  C31820037   5.861   7.049   4.085 -0.5291 -0.4293 -0.1243
  176SLPC  H18X20038   5.771   7.077   4.144  0.1981  0.0985  0.7681
  176SLPC  H18Y20039   5.853   6.944   4.051 -1.0659  0.0770 -1.6100
  176SLPC  H18Z20040   5.875   7.118   4.000 -1.8086  0.1475  0.1157
  177SLPC     N20041   1.222   5.808   6.030  0.6611  0.2266  0.0506
  177SLPC   C1320042   1.219   5.902   5.908  0.5021 -0.4098 -0.3089
  177SLPC  H13A20043   1.315   5.902   5.857  1.1454  0.3025  0.8663
  177SLPC  H13B20044   1.155   5.862   5.830  0.0809  1.0161 -0.7204
  177SLPC  H13C20045   1.180   6.000   5.930  0.6583 -0.4145 -0.0146
  177SLPC   C1420046   1.312   5.873   6.135  0.1883  0.1516 -0.1935
  177SLPC  H14A20047   1.262   5.968   6.153  0.4202  0.0336  1.1288
  177SLPC  H14B20048   1.319   5.813   6.224  2.1342  1.5434  0.6769
  177SLPC  H14C20049   1.412   5.899   6.104  0.6654 -1.1346  0.2259
  177SLPC   C1520050   1.285   5.689   5.978  0.2144 -0.3933  0.0131
  177SLPC  H15A20051   1.316   5.619   6.054  1.1778 -2.5797 -2.2346
  177SLPC  H15B20052   1.232   5.627   5.908 -0.2939  0.4754 -0.3929
  177SLPC  H15C20053   1.378   5.722   5.933  0.7191 -0.1633  1.1866
  177SLPC   C1220054   1.085   5.777   6.080  0.2825 -0.5901 -0.8087
  177SLPC  H12A20055   1.050   5.865   6.133  2.5770  0.2086 -0.4692
  177SLPC  H12B20056   1.100   5.701   6.155  1.5880  0.6158  0.2146
  177SLPC   C1120057   0.963   5.747   5.982  0.1968  0.2823  0.4480
  177SLPC  H11A20058   0.954   5.833   5.913 -2.6337 -1.7820 -1.9661
  177SLPC  H11B20059   0.867   5.738   6.038  1.0020 -0.1418  1.8339
  177SLPC     P20060   1.005   5.618   5.749  0.3119  0.2486  0.3272
  177SLPC   O1320061   1.113   5.511   5.737 -0.7656 -0.8913  0.9842
  177SLPC   O1420062   0.863   5.579   5.707  0.0570  0.2806 -0.4774
  177SLPC   O1220063   0.989   5.630   5.903 -0.0029 -0.3817 -0.1065
  177SLPC   O1120064   1.046   5.761   5.701  0.5682 -0.1284 -0.4000
  177SLPC    C120065   0.956   5.866   5.670 -0.0931  0.4245  0.2531
  177SLPC    HA20066   0.856   5.851   5.715  0.2824 -0.0184  0.9765
  177SLPC    HB20067   0.995   5.961   5.712 -0.2905  0.7524 -0.2985
  177SLPC    C220068   0.932   5.887   5.511 -0.2221  0.1867  0.3210
  177SLPC    HS20069   0.879   5.984   5.502  1.1887  1.3025  2.9589
  177SLPC   O2120070   0.866   5.767   5.453  0.9122 -0.0065  0.3258
  177SLPC   C2120071   0.733   5.763   5.480  0.2325 -0.0259  0.6275
  177SLPC   O2220072   0.670   5.855   5.526  0.0751  0.3147 -0.3623
  177SLPC   C2220073   0.658   5.642   5.418  0.5375 -0.1031 -0.1027
  177SLPC   H2R20074   0.701   5.620   5.318 -1.1611 -2.4091 -0.4170
  177SLPC   H2S20075   0.684   5.550   5.475  0.5282 -0.8289 -1.2191
  177SLPC    C320076   1.063   5.908   5.428 -0.4907  0.0372  0.1269
  177SLPC    HX20077   1.112   5.809   5.437 -1.6137 -0.4344  1.3188
  177SLPC    HY20078   1.140   5.975   5.472 -0.2059 -1.8338  2.7156
  177SLPC   O3120079   1.036   5.940   5.290 -0.2571 -0.1616 -0.1889
  177SLPC   C3120080   1.143   5.921   5.216 -0.0085 -0.6988  0.4928
  177SLPC   O3220081   1.247   5.865   5.249  0.0034  0.1187  0.6095
  177SLPC   C3220082   1.136   6.008   5.088  0.5007 -0.0977 -0.1721
  177SLPC   H2X20083   1.204   6.095   5.098 -1.8457  1.7533  0.5021
  177SLPC   H2Y20084   1.033   6.048   5.079  0.8284  0.3290 -2.7232
  177SLPC   C2320085   0.504   5.651   5.423  0.5193 -0.2264  1.1694
  177SLPC   H3R20086   0.482   5.728   5.346  1.2804 -0.7847  0.3651
  177SLPC   H3S20087   0.466   5.697   5.516 -0.2322 -2.6650  2.1456
  177SLPC   C2420088   0.415   5.529   5.408  0.6333 -0.8050 -0.0615
  177SLPC   H4R20089   0.305   5.550   5.404  1.1367  2.2504 -0.5018
  177SLPC   H4S20090   0.445   5.472   5.498  0.6891 -0.8803 -0.1273
  177SLPC   C2520091   0.428   5.444   5.286  0.0188  0.0732  0.1024
  177SLPC   H5R20092   0.375   5.346   5.289 -0.7821  0.5223  1.0424
  177SLPC   H5S20093   0.533   5.412   5.271  0.2103  0.0346  1.4490
  177SLPC   C2620094   0.398   5.525   5.157 -0.1369  0.6139  0.0010
  177SLPC   H6R20095   0.388   5.633   5.177  1.8418  0.9661 -0.6081
  177SLPC   H6S20096   0.309   5.481   5.106 -0.7448 -2.4127  3.2842
  177SLPC   C2720097   0.504   5.510   5.052 -0.7262  0.5705 -0.2287
  177SLPC   H7R20098   0.484   5.416   4.996 -0.5045  0.2050  0.2960
  177SLPC   H7S20099   0.601   5.492   5.104 -0.4379 -1.3596 -1.3183
  177SLPC   C2820100   0.520   5.626   4.955  0.0928 -0.5376 -0.2344
  177SLPC   H8R20101   0.548   5.718   5.009  1.6304 -1.1725  0.0941
  177SLPC   H8S20102   0.422   5.668   4.922  0.1338  1.5488  2.0698
  177SLPC   C2920103   0.622   5.580   4.860 -0.1807  0.6977 -0.0762
  177SLPC   H9R20104   0.726   5.583   4.895  0.6737 -1.3302 -2.2096
  177SLPC  C21020105   0.609   5.559   4.731  0.3902 -0.0568 -0.1900
  177SLPC  H10R20106   0.693   5.511   4.679 -0.6185 -1.5158 -0.5449
  177SLPC  C21120107   0.475   5.564   4.659 -0.2655  0.3755  0.5280
  177SLPC  H11R20108   0.486   5.606   4.557 -1.4008  0.3719  0.3907
  177SLPC  H11S20109   0.411   5.641   4.708  2.1864  2.0856  1.2559
  177SLPC  C21220110   0.411   5.424   4.663 -0.2014 -0.2224 -0.2690
  177SLPC  H12R20111   0.462   5.346   4.722  1.2294 -0.7439 -2.0930
  177SLPC  C21320112   0.297   5.380   4.603  0.4686  0.2467 -0.6088
  177SLPC  H13R20113   0.252   5.283   4.630 -0.6620  0.7554 -0.5866
  177SLPC  C21420114   0.217   5.470   4.511 -0.2539 -0.0676  0.4237
  177SLPC  H14R20115   0.239   5.577   4.534 -0.8790  0.0034  0.7157
  177SLPC  H14S20116   0.115   5.472   4.554  0.0646  0.8443  1.1835
  177SLPC  C21520117   0.228   5.442   4.361  0.6982  0.1753 -0.1930
  177SLPC  H15R20118   0.217   5.334   4.336 -1.3590  0.1583  0.5516
  177SLPC  H15S20119   0.325   5.477   4.320 -0.5242  0.6387 -2.8890
  177SLPC  C21620120   0.124   5.528   4.288  0.2247 -0.3342  0.5357
  177SLPC  H16R20121   0.125   5.631   4.328 -3.2139  0.5907 -1.3697
  177SLPC  H16S20122   0.025   5.478   4.294 -0.5946  1.0074 -1.1278
  177SLPC  C21720123   0.148   5.540   4.134  0.1879 -0.0726 -0.0872
  177SLPC  H17R20124   0.127   5.444   4.081 -1.8702  0.8153 -0.9977
  177SLPC  H17S20125   0.251   5.573   4.109  0.6417 -0.8314  0.7131
  177SLPC  C21820126   0.056   5.648   4.074 -0.7670 -0.2689 -0.2022
  177SLPC  H18R20127   0.073   5.744   4.127 -0.3469 -0.6981  0.4514
  177SLPC  H18S20128  -0.048   5.616   4.096 -0.6455 -1.2454 -0.9273
  177SLPC  H18T20129   0.066   5.666   3.965  1.3153 -0.0707 -0.0152
  177SLPC   C3320130   1.185   5.934   4.962 -0.1765 -0.3608 -0.0651
  177SLPC   H3X20131   1.291   5.902   4.973 -0.3306 -2.5532 -3.3782
  177SLPC   H3Y20132   1.197   6.009   4.881  2.4473 -1.0614 -0.4044
  177SLPC   C3420133   1.101   5.827   4.912 -0.2063  0.1054  0.5165
  177SLPC   H4X20134   0.994   5.853   4.901  0.2850  2.1408 -0.0073
  177SLPC   H4Y20135   1.106   5.733   4.971 -0.3828 -0.8710 -0.9770
  177SLPC   C3520136   1.147   5.794   4.764 -0.0877 -0.0688 -0.3680
  177SLPC   H5X20137   1.241   5.736   4.766 -0.4293 -0.7070 -1.6626
  177SLPC   H5Y20138   1.144   5.893   4.714 -3.0261  1.1912  1.9717
  177SLPC   C3620139   1.045   5.698   4.696  0.7228  0.4146 -0.3423
  177SLPC   H6X20140   0.955   5.758   4.672  0.1520 -0.4092 -0.2885
  177SLPC   H6Y20141   1.016   5.609   4.756 -0.8248  0.7922 -0.4786
  177SLPC   C3720142   1.100   5.635   4.569 -0.7246 -0.1683 -0.2904
  177SLPC   H7X20143   1.167   5.548   4.585  1.0842  0.9515 -1.3647
  177SLPC   H7Y20144   1.172   5.702   4.516 -0.2928 -0.6397 -0.3113
  177SLPC   C3820145   0.992   5.590   4.475  0.1066  0.5923 -0.5133
  177SLPC   H8X20146   0.938   5.524   4.546  0.5247  0.9218  0.1271
  177SLPC   H8Y20147   1.038   5.534   4.391  1.5457 -0.2083  0.7543
  177SLPC   C3920148   0.888   5.692   4.411 -0.2311 -0.2661 -0.2583
  177SLPC   H9X20149   0.943   5.781   4.373 -1.1943  0.4115 -0.1208
  177SLPC   H9Y20150   0.813   5.726   4.486  0.3176 -1.3485  0.8222
  177SLPC  C31020151   0.811   5.627   4.290  0.5516 -0.1347  0.6450
  177SLPC  H10X20152   0.885   5.554   4.251 -1.2806 -0.4726 -2.5762
  177SLPC  H10Y20153   0.776   5.690   4.205 -3.3723 -2.2612  0.4851
  177SLPC  C31120154   0.687   5.550   4.336  0.3402 -0.0784  0.0351
  177SLPC  H11X20155   0.603   5.618   4.362 -0.8970 -0.0087 -3.5359
  177SLPC  H11Y20156   0.719   5.477   4.413  0.2748 -0.5266 -0.3504
  177SLPC  C31220157   0.633   5.457   4.223 -0.2666  0.2049 -0.2456
  177SLPC  H12X20158   0.554   5.394   4.269 -0.3218 -1.0095 -1.9103
  177SLPC  H12Y20159   0.711   5.383   4.193  1.9187  2.4730 -0.5617
  177SLPC  C31320160   0.566   5.528   4.107 -0.1865  0.5663 -0.2911
  177SLPC  H13X20161   0.648   5.571   4.047 -1.0078  0.7587 -1.3035
  177SLPC  H13Y20162   0.498   5.599   4.159 -1.2743 -0.2441 -0.5714
  177SLPC  C31420163   0.475   5.437   4.017 -0.2800 -0.1118  0.7548
  177SLPC  H14X20164   0.392   5.393   4.076 -0.3907 -0.7676  0.1235
  177SLPC  H14Y20165   0.537   5.355   3.974 -2.5304 -1.8378  0.6036
  177SLPC  C31520166   0.417   5.501   3.890 -0.6191  0.0896 -0.0962
  177SLPC  H15X20167   0.494   5.526   3.814 -0.2606  0.6474  0.4418
  177SLPC  H15Y20168   0.365   5.592   3.928 -0.8514 -0.5539  1.1736
  177SLPC  C31620169   0.305   5.414   3.828 -0.1067 -0.0571  1.0058
  177SLPC  H16X20170   0.213   5.409   3.890 -1.4583 -0.7263 -0.9446
  177SLPC  H16Y20171   0.345   5.311   3.812  0.6349  0.0143  2.2790
  177SLPC  C31720172   0.246   5.470   3.690 -0.9007 -0.7077  0.7536
  177SLPC  H17X20173   0.331   5.459   3.618 -0.0568  2.4651  1.1030
  177SLPC  H17Y20174   0.224   5.578   3.703 -0.0124 -0.3773 -0.2993
  177SLPC  C31820175   0.115   5.405   3.641 -0.3382  0.0922  0.5045
  177SLPC  H18X20176   0.038   5.389   3.720 -0.5987 -1.2430 -0.0034
  177SLPC  H18Y20177   0.123   5.296   3.620 -1.0628 -0.0165  0.7630
  177SLPC  H18Z20178   0.078   5.443   3.544 -4.1014 -2.4764  0.6978
  178SLPC     N20179   2.331   2.420   6.266  0.3581 -0.0451  1.0670
  178SLPC   C1320180   2.216   2.419   6.162  0.4060  0.2539  0.3648
  178SLPC  H13A20181   2.257   2.415   6.061  1.8649  1.5181  0.8703
  178SLPC  H13B20182   2.139   2.345   6.178  1.5629 -1.4359 -1.3597
  178SLPC  H13C20183   2.166   2.513   6.176 -0.0722 -0.0864  0.9541
  178SLPC   C1420184   2.408   2.554   6.248 -0.3407  0.5898  0.3949
  178SLPC  H14A20185   2.339   2.634   6.270 -0.3636  0.1629  1.9975
  178SLPC  H14B20186   2.491   2.563   6.317  1.5148  0.1315 -1.6616
  178SLPC  H14C20187   2.454   2.565   6.151  0.8195  0.1303  0.8720
  178SLPC   C1520188   2.409   2.300   6.249  0.6755  0.5105 -0.7387
  178SLPC  H15A20189   2.470   2.298   6.160  1.3840 -0.6571 -0.2599
  178SLPC  H15B20190   2.475   2.293   6.335 -0.9666  0.2094  0.5458
  178SLPC  H15C20191   2.342   2.217   6.233  0.2186  0.5765  0.6831
  178SLPC   C1220192   2.271   2.426   6.412  0.0731 -0.0674 -0.2645
  178SLPC  H12A20193   2.357   2.410   6.476  0.2924  2.1302  0.0550
  178SLPC  H12B20194   2.206   2.340   6.419  0.0113  0.0721  1.0923
  178SLPC   C1120195   2.187   2.550   6.450  0.2963  0.9468 -0.3242
  178SLPC  H11A20196   2.245   2.642   6.430 -0.9444  0.8320 -6.5509
  178SLPC  H11B20197   2.156   2.548   6.557  1.0801 -1.4348 -0.0779
  178SLPC     P20198   1.933   2.520   6.383 -0.2177  0.0383  0.1273
  178SLPC   O1320199   1.930   2.408   6.482 -0.3006  0.1764 -0.0932
  178SLPC   O1420200   1.841   2.629   6.408 -0.2887  0.0383 -0.3528
  178SLPC   O1220201   2.072   2.576   6.369 -0.3820  0.3755  0.6904
  178SLPC   O1120202   1.916   2.449   6.243  0.4506 -0.2685 -0.4447
  178SLPC    C120203   1.888   2.520   6.128  0.9387  0.5609 -0.0041
  178SLPC    HA20204   1.912   2.628   6.136 -0.8906  1.0580 -0.7567
  178SLPC    HB20205   1.946   2.469   6.048  1.1227 -0.6747  0.8945
  178SLPC    C220206   1.746   2.523   6.091  0.5076 -0.3082 -0.0056
  178SLPC    HS20207   1.688   2.554   6.181  0.7072 -0.5358  0.2020
  178SLPC   O2120208   1.705   2.394   6.035  0.5768  0.4830 -0.1318
  178SLPC   C2120209   1.571   2.367   6.034 -0.3503  0.2390 -0.4473
  178SLPC   O2220210   1.485   2.442   6.073  0.5448  0.2139 -0.0380
  178SLPC   C2220211   1.556   2.225   5.955  0.2443  0.4469 -0.4951
  178SLPC   H2R20212   1.564   2.253   5.848 -0.8502 -3.2322 -1.7140
  178SLPC   H2S20213   1.639   2.162   5.992 -0.7870 -0.9489 -0.4659
  178SLPC    C320214   1.729   2.629   5.978  0.1264 -1.2953  0.0274
  178SLPC    HX20215   1.763   2.721   6.031 -0.6086 -1.8465  1.5221
  178SLPC    HY20216   1.626   2.640   5.939  0.3263  1.7594  0.1380
  178SLPC   O3120217   1.821   2.606   5.871 -0.0114 -0.0804 -0.4852
  178SLPC   C3120218   1.773   2.547   5.768  1.2147 -0.4379 -0.6983
  178SLPC   O3220219   1.662   2.497   5.755 -0.2320 -0.1108  0.2513
  178SLPC   C3220220   1.873   2.554   5.654  0.5116  0.6783  0.4768
  178SLPC   H2X20221   1.979   2.562   5.684  0.5408 -1.3725  1.0833
  178SLPC   H2Y20222   1.834   2.639   5.594 -1.6049 -2.3403 -2.8775
  178SLPC   C2320223   1.418   2.152   5.991  0.5751 -1.2271 -0.4432
  178SLPC   H3R20224   1.393   2.187   6.093  2.6879 -0.6119 -0.0746
  178SLPC   H3S20225   1.438   2.044   6.011  0.7370 -1.6236 -2.5108
  178SLPC   C2420226   1.301   2.163   5.889  0.0060 -0.2138 -0.3867
  178SLPC   H4R20227   1.269   2.269   5.878  1.7984  0.2781 -1.1785
  178SLPC   H4S20228   1.211   2.103   5.915  0.4341 -1.3541 -1.4285
  178SLPC   C2520229   1.340   2.122   5.749 -0.2792  0.6693 -0.0355
  178SLPC   H5R20230   1.255   2.062   5.711 -0.9033  0.9232  0.9376
  178SLPC   H5S20231   1.433   2.062   5.743 -1.2725 -0.9536  0.1851
  178SLPC   C2620232   1.356   2.234   5.644  0.0140 -0.5023  0.1597
  178SLPC   H6R20233   1.410   2.313   5.700 -0.9531 -0.9441  1.7990
  178SLPC   H6S20234   1.256   2.271   5.613 -0.0435  0.3997  1.3547
  178SLPC   C2720235   1.427   2.180   5.520  0.4911 -0.5237  0.5358
  178SLPC   H7R20236   1.384   2.080   5.495  1.5089 -0.6014 -1.0787
  178SLPC   H7S20237   1.528   2.154   5.556 -0.7467 -2.0555  3.1950
  178SLPC   C2820238   1.430   2.279   5.400 -0.0119 -0.3690  0.3824
  178SLPC   H8R20239   1.508   2.250   5.327 -2.3207  0.7442 -2.7531
  178SLPC   H8S20240   1.461   2.377   5.440  0.4880 -1.3080  2.4623
  178SLPC   C2920241   1.293   2.275   5.327  0.4800  0.3379 -0.1238
  178SLPC   H9R20242   1.215   2.334   5.378 -0.4548 -1.2782  0.3797
  178SLPC  C21020243   1.265   2.198   5.220  0.2685 -0.0499  0.2190
  178SLPC  H10R20244   1.174   2.218   5.162  0.3537 -0.3657 -0.0311
  178SLPC  C21120245   1.355   2.116   5.130 -0.2815  0.3784 -0.0004
  178SLPC  H11R20246   1.463   2.135   5.148 -0.6587  0.6239  2.2734
  178SLPC  H11S20247   1.340   2.142   5.023 -0.3898 -0.8204 -0.2838
  178SLPC  C21220248   1.334   1.967   5.165 -0.8458  0.2528  0.0401
  178SLPC  H12R20249   1.316   1.934   5.268 -1.9640 -1.1183 -0.5611
  178SLPC  C21320250   1.333   1.864   5.071 -0.2820  0.2847 -1.1788
  178SLPC  H13R20251   1.333   1.761   5.107 -2.3064 -0.3872 -2.8952
  178SLPC  C21420252   1.365   1.881   4.927 -0.1153 -0.4335 -0.1173
  178SLPC  H14R20253   1.342   1.985   4.897  0.5574  0.2416  1.5800
  178SLPC  H14S20254   1.293   1.808   4.884 -1.7516 -0.0013  1.7094
  178SLPC  C21520255   1.509   1.842   4.902 -0.4291  0.8968  0.0775
  178SLPC  H15R20256   1.518   1.736   4.934 -0.5327  0.5242 -1.1007
  178SLPC  H15S20257   1.580   1.898   4.967  2.4283 -2.0419 -0.2470
  178SLPC  C21620258   1.549   1.837   4.751 -1.0796 -0.0317 -0.1025
  178SLPC  H16R20259   1.656   1.808   4.742 -0.1541  2.4424  1.5603
  178SLPC  H16S20260   1.536   1.940   4.711 -0.4777  0.6258  1.2978
  178SLPC  C21720261   1.468   1.742   4.655  0.0370  0.8156 -0.1177
  178SLPC  H17R20262   1.359   1.767   4.655 -0.0597  0.4619  0.8479
  178SLPC  H17S20263   1.475   1.636   4.685 -0.5486  0.7647 -0.1352
  178SLPC  C21820264   1.508   1.741   4.511 -0.5004  0.1593 -0.1458
  178SLPC  H18R20265   1.597   1.677   4.493  0.1681  0.6427  1.3068
  178SLPC  H18S20266   1.531   1.836   4.458  0.3719 -0.9568 -1.8545
  178SLPC  H18T20267   1.429   1.695   4.446 -1.2840  1.1832  0.0620
  178SLPC   C3320268   1.862   2.434   5.562  0.2353 -0.4463  0.2367
  178SLPC   H3X20269   1.758   2.394   5.566 -1.0333  2.6751  3.4833
  178SLPC   H3Y20270   1.920   2.346   5.596  0.0073 -0.6676  0.0594
  178SLPC   C3420271   1.909   2.461   5.418  0.7634  0.0872  0.4973
  178SLPC   H4X20272   1.928   2.360   5.375 -4.0859 -1.1014  0.6484
  178SLPC   H4Y20273   1.990   2.537   5.424 -0.6257  1.5317  4.4898
  178SLPC   C3520274   1.789   2.515   5.335  0.5810 -0.1137 -0.1806
  178SLPC   H5X20275   1.773   2.623   5.353  1.2348 -0.3572  2.1951
  178SLPC   H5Y20276   1.686   2.486   5.364  0.1848  0.7476 -0.6873
  178SLPC   C3620277   1.801   2.481   5.183 -0.7953  0.1209 -0.4462
  178SLPC   H6X20278   1.843   2.379   5.178 -2.2862 -0.4711 -1.6457
  178SLPC   H6Y20279   1.885   2.551   5.161  0.2810  0.1130  3.1218
  178SLPC   C3720280   1.671   2.503   5.104  0.0619  0.2103 -0.4541
  178SLPC   H7X20281   1.622   2.598   5.135  1.6651  0.8660  0.1704
  178SLPC   H7Y20282   1.595   2.426   5.131 -3.7670  2.7928 -2.8199
  178SLPC   C3820283   1.683   2.509   4.957  0.1030  0.4180 -0.4152
  178SLPC   H8X20284   1.760   2.442   4.913  0.4957  0.4802  0.1638
  178SLPC   H8Y20285   1.701   2.613   4.923  1.0911  0.6036  0.6527
  178SLPC   C3920286   1.550   2.468   4.891  0.0047 -0.1864 -0.2497
  178SLPC   H9X20287   1.464   2.514   4.944  1.1542 -1.2659  2.7906
  178SLPC   H9Y20288   1.531   2.359   4.901  0.7432 -0.1062  3.1777
  178SLPC  C31020289   1.543   2.500   4.746 -0.3010 -0.5923  0.1978
  178SLPC  H10X20290   1.558   2.607   4.721 -0.1374 -0.8741 -0.9847
  178SLPC  H10Y20291   1.443   2.472   4.706  0.2782 -0.4178 -1.4507
  178SLPC  C31120292   1.654   2.432   4.665 -0.4063 -0.3635  0.2334
  178SLPC  H11X20293   1.673   2.328   4.698 -1.1160 -1.0726 -1.4649
  178SLPC  H11Y20294   1.747   2.487   4.690  0.8494 -1.6819 -1.3043
  178SLPC  C31220295   1.624   2.416   4.513 -0.0593  0.2435 -0.2958
  178SLPC  H12X20296   1.722   2.393   4.466  0.9739  0.3587  1.7115
  178SLPC  H12Y20297   1.588   2.510   4.465  1.2773 -0.0927 -2.0649
  178SLPC  C31320298   1.536   2.290   4.481 -0.1472  0.5695  0.1457
  178SLPC  H13X20299   1.433   2.313   4.515 -0.4870  0.6549 -0.8910
  178SLPC  H13Y20300   1.567   2.206   4.547  0.0951  0.3197 -0.2816
  178SLPC  C31420301   1.543   2.249   4.337 -0.1104  0.2943 -0.6881
  178SLPC  H14X20302   1.646   2.243   4.295 -0.9422 -2.4299 -2.5971
  178SLPC  H14Y20303   1.477   2.316   4.277  0.8772  0.9372 -1.0943
  178SLPC  C31520304   1.499   2.099   4.320 -0.2919 -0.8146  0.1874
  178SLPC  H15X20305   1.397   2.081   4.362 -0.2763  1.8753  1.5888
  178SLPC  H15Y20306   1.573   2.038   4.374 -1.3610 -0.6386  1.9215
  178SLPC  C31620307   1.507   2.056   4.171  0.3044 -0.2984  0.1555
  178SLPC  H16X20308   1.611   2.060   4.132  0.4766 -4.4867 -0.2557
  178SLPC  H16Y20309   1.464   2.143   4.117  0.6891 -1.1472 -1.6049
  178SLPC  C31720310   1.446   1.919   4.122  0.5336 -0.1511 -0.6551
  178SLPC  H17X20311   1.355   1.893   4.180  0.3764  0.8335 -0.4359
  178SLPC  H17Y20312   1.524   1.841   4.134 -1.4112 -2.1133 -0.1682
  178SLPC  C31820313   1.400   1.934   3.973  0.3613 -0.5024  0.3342
  178SLPC  H18X20314   1.483   1.966   3.907 -1.0632  1.0790 -0.7566
  178SLPC  H18Y20315   1.323   2.014   3.964 -0.1382 -1.2434 -3.2466
  178SLPC  H18Z20316   1.357   1.837   3.940  0.4757 -0.3408 -0.2844
  179SLPC     N20317   1.903   1.284   1.519  0.1154 -0.0414 -0.3237
  179SLPC   C1320318   2.016   1.199   1.501  0.7849  0.0314 -0.0464
  179SLPC  H13A20319   2.008   1.106   1.557  0.1242 -0.6310 -1.2127
  179SLPC  H13B20320   2.037   1.185   1.396 -0.8361  1.7354 -0.6392
  179SLPC  H13C20321   2.105   1.248   1.539  0.1756 -0.0874  1.6043
  179SLPC   C1420322   1.801   1.258   1.411  0.0557  0.2115 -0.3344
  179SLPC  H14A20323   1.704   1.302   1.427  0.5706  0.5202  2.6288
  179SLPC  H14B20324   1.840   1.288   1.315 -0.3052 -0.8061 -0.8041
  179SLPC  H14C20325   1.786   1.151   1.406 -2.8542  0.4593  1.0878
  179SLPC   C1520326   1.930   1.434   1.519  0.1010  0.4286  0.5643
  179SLPC  H15A20327   1.993   1.456   1.434 -1.8344 -0.4500 -1.1981
  179SLPC  H15B20328   1.847   1.503   1.519 -0.7973 -0.6015 -0.5492
  179SLPC  H15C20329   1.992   1.455   1.604 -0.7573  0.6350  1.1514
  179SLPC   C1220330   1.849   1.239   1.656  0.4056  0.1007 -0.5390
  179SLPC  H12A20331   1.930   1.264   1.723  1.0535  0.8698 -1.5788
  179SLPC  H12B20332   1.844   1.132   1.647  1.3061  0.1468 -1.7258
  179SLPC   C1120333   1.711   1.294   1.703 -0.3629 -0.5038 -0.2254
  179SLPC  H11A20334   1.683   1.253   1.802 -2.9706 -1.7373 -1.4048
  179SLPC  H11B20335   1.628   1.255   1.640 -0.2727 -3.3750  1.2785
  179SLPC     P20336   1.768   1.500   1.847  0.2246  0.0762  0.0951
  179SLPC   O1320337   1.901   1.437   1.876 -0.0395 -0.3817 -0.0708
  179SLPC   O1420338   1.764   1.644   1.826 -0.4766  0.2543  0.0658
  179SLPC   O1220339   1.708   1.440   1.718 -0.3766  0.3654  0.2220
  179SLPC   O1120340   1.667   1.472   1.958  0.2011 -0.1288 -0.2731
  179SLPC    C120341   1.538   1.536   1.947 -0.2120  0.1708  0.2866
  179SLPC    HA20342   1.552   1.646   1.944 -0.6159  0.2020 -0.3977
  179SLPC    HB20343   1.486   1.509   1.853 -0.0386 -2.1113  0.7923
  179SLPC    C220344   1.441   1.507   2.065 -0.0776  0.0996 -0.2215
  179SLPC    HS20345   1.339   1.537   2.032 -0.3653 -1.0173 -0.3851
  179SLPC   O2120346   1.488   1.574   2.181 -0.1914  0.0941  0.2770
  179SLPC   C2120347   1.446   1.699   2.185  0.1290 -0.2323 -0.5743
  179SLPC   O2220348   1.374   1.759   2.108  0.0919 -0.1318  0.0694
  179SLPC   C2220349   1.509   1.769   2.311 -0.8915  0.3417 -0.0697
  179SLPC   H2R20350   1.610   1.728   2.335 -2.0725 -1.6973  1.7568
  179SLPC   H2S20351   1.526   1.876   2.287  2.2045  0.3092  1.5024
  179SLPC    C320352   1.437   1.347   2.089 -0.2579  0.1949  0.7693
  179SLPC    HX20353   1.536   1.312   2.127  0.3222 -1.3106 -1.8560
  179SLPC    HY20354   1.429   1.312   1.984 -2.0255 -1.4530  1.4066
  179SLPC   O3120355   1.329   1.297   2.180  0.1888 -0.3438  0.4518
  179SLPC   C3120356   1.248   1.200   2.136  0.3252 -0.1051  1.1122
  179SLPC   O3220357   1.256   1.147   2.026 -0.0266  0.5565 -0.3566
  179SLPC   C3220358   1.146   1.160   2.233  0.1929 -0.3156  0.0666
  179SLPC   H2X20359   1.160   1.052   2.256 -1.6175 -0.3771  1.1350
  179SLPC   H2Y20360   1.044   1.167   2.188  0.3454  0.2538 -0.2001
  179SLPC   C2320361   1.426   1.744   2.442 -0.2882  0.0030  0.6217
  179SLPC   H3R20362   1.474   1.801   2.524  2.5260 -0.7703 -0.3700
  179SLPC   H3S20363   1.424   1.638   2.477 -2.6333  0.5852  2.4819
  179SLPC   C2420364   1.281   1.790   2.437  0.3113  0.5622 -0.3759
  179SLPC   H4R20365   1.242   1.755   2.535 -0.0022 -0.6076 -0.9057
  179SLPC   H4S20366   1.216   1.751   2.357  0.1946  1.2353 -0.6151
  179SLPC   C2520367   1.259   1.947   2.425  0.6523  0.4412 -0.4592
  179SLPC   H5R20368   1.149   1.953   2.409  0.4476 -1.5363 -0.0057
  179SLPC   H5S20369   1.302   1.975   2.327 -2.9375  0.5224 -2.1796
  179SLPC   C2620370   1.295   2.036   2.544  0.6022 -0.0420 -0.4807
  179SLPC   H6R20371   1.397   2.017   2.583 -0.6062 -0.5309  2.7683
  179SLPC   H6S20372   1.239   2.010   2.637  1.7184 -0.7776  0.0040
  179SLPC   C2720373   1.256   2.187   2.526  0.0694  0.1942 -0.0169
  179SLPC   H7R20374   1.149   2.200   2.499  0.1278 -0.9552 -0.8673
  179SLPC   H7S20375   1.315   2.234   2.446  0.3471  1.3638  0.8512
  179SLPC   C2820376   1.290   2.268   2.652  0.4144  0.2570 -0.2608
  179SLPC   H8R20377   1.301   2.374   2.622 -1.3114  0.1041 -1.6387
  179SLPC   H8S20378   1.397   2.245   2.673  0.8602 -0.1106 -2.6215
  179SLPC   C2920379   1.207   2.242   2.777  0.0341  0.0325  0.5973
  179SLPC   H9R20380   1.101   2.263   2.754 -0.3130 -2.0560  0.0123
  179SLPC  C21020381   1.238   2.180   2.887  0.8112 -0.5301 -0.1258
  179SLPC  H10R20382   1.166   2.174   2.970  1.7108 -3.2048  0.5784
  179SLPC  C21120383   1.370   2.132   2.936 -0.0426  1.2348  0.4296
  179SLPC  H11R20384   1.444   2.153   2.856  1.4016  0.7588  1.5893
  179SLPC  H11S20385   1.364   2.022   2.948  1.0227  1.1391  0.1488
  179SLPC  C21220386   1.426   2.198   3.065 -0.3171  0.0591  0.5382
  179SLPC  H12R20387   1.505   2.268   3.036  1.0215 -1.5815  0.0977
  179SLPC  C21320388   1.374   2.184   3.186 -0.7566  0.0251 -0.4089
  179SLPC  H13R20389   1.420   2.249   3.261 -1.0463  0.8324 -0.9264
  179SLPC  C21420390   1.271   2.084   3.225  0.5766 -0.7501 -0.3642
  179SLPC  H14R20391   1.261   1.996   3.159  0.5941 -0.2149 -1.0907
  179SLPC  H14S20392   1.174   2.136   3.213  0.2053 -1.5686 -0.9827
  179SLPC  C21520393   1.266   2.046   3.373  0.8986 -0.0065 -0.2697
  179SLPC  H15R20394   1.355   1.983   3.396  0.5695 -0.3637  0.0521
  179SLPC  H15S20395   1.181   1.976   3.390 -0.1305  1.2504 -0.0909
  179SLPC  C21620396   1.249   2.162   3.474  0.0081 -0.1574 -0.1387
  179SLPC  H16R20397   1.178   2.233   3.427  1.6532  0.3637 -1.9651
  179SLPC  H16S20398   1.340   2.225   3.485  0.1673 -0.7776  3.2181
  179SLPC  C21720399   1.210   2.117   3.617  0.2536  0.2097  1.2280
  179SLPC  H17R20400   1.281   2.154   3.694 -2.5839  2.1792  3.0597
  179SLPC  H17S20401   1.220   2.007   3.615 -0.4970  0.1420 -0.6509
  179SLPC  C21820402   1.067   2.160   3.667 -0.4364 -0.3653  0.8834
  179SLPC  H18R20403   1.051   2.269   3.652 -1.5993 -0.8046 -1.7683
  179SLPC  H18S20404   1.061   2.156   3.778  2.1838  1.4871  1.1752
  179SLPC  H18T20405   0.986   2.108   3.610 -1.2150  0.8277  0.8651
  179SLPC   C3320406   1.159   1.238   2.374 -0.7575 -0.1097 -0.5219
  179SLPC   H3X20407   1.150   1.344   2.343 -0.6561 -0.4414 -1.7502
  179SLPC   H3Y20408   1.259   1.220   2.420 -0.7342 -0.2714 -0.6315
  179SLPC   C3420409   1.045   1.201   2.471 -0.2943 -0.2851  0.2145
  179SLPC   H4X20410   1.032   1.091   2.478 -0.3415 -0.3147 -0.3017
  179SLPC   H4Y20411   0.946   1.226   2.429 -1.1411 -2.2380  0.9548
  179SLPC   C3520412   1.067   1.273   2.605  0.1260  0.4036  0.0550
  179SLPC   H5X20413   1.065   1.384   2.595  1.5750  0.3779 -0.8681
  179SLPC   H5Y20414   0.982   1.247   2.671  0.7367 -0.0342  0.6890
  179SLPC   C3620415   1.185   1.217   2.686 -0.1220 -0.2054 -0.6733
  179SLPC   H6X20416   1.278   1.243   2.633 -0.5504  0.0807 -1.2951
  179SLPC   H6Y20417   1.175   1.107   2.673 -0.4296 -0.1407 -1.0073
  179SLPC   C3720418   1.188   1.263   2.833 -0.0602 -0.7934 -0.4193
  179SLPC   H7X20419   1.084   1.287   2.864  0.3139 -1.2690  1.3162
  179SLPC   H7Y20420   1.240   1.361   2.829 -3.0860  0.9808  0.3633
  179SLPC   C3820421   1.252   1.165   2.928 -0.1700  0.5066 -0.4948
  179SLPC   H8X20422   1.362   1.153   2.915 -0.0934 -0.2769  0.7110
  179SLPC   H8Y20423   1.215   1.062   2.910  0.1024  0.4656 -0.8390
  179SLPC   C3920424   1.244   1.202   3.075 -0.2180  0.5405  0.5943
  179SLPC   H9X20425   1.140   1.212   3.110 -1.0730 -1.8198 -0.9699
  179SLPC   H9Y20426   1.284   1.303   3.097 -1.9794  1.0292  1.7406
  179SLPC  C31020427   1.308   1.098   3.163  0.0042  0.0328 -0.6751
  179SLPC  H10X20428   1.415   1.088   3.136 -0.0391 -0.4122 -0.6982
  179SLPC  H10Y20429   1.262   0.998   3.150 -0.0452 -0.3906  2.1441
  179SLPC  C31120430   1.293   1.142   3.311 -0.1073 -0.0825 -0.5378
  179SLPC  H11X20431   1.187   1.176   3.318 -0.5592 -1.5524  0.3421
  179SLPC  H11Y20432   1.363   1.224   3.337 -1.7056  0.8941  0.9584
  179SLPC  C31220433   1.298   1.020   3.404 -0.0598  0.5724  0.2813
  179SLPC  H12X20434   1.406   0.996   3.418 -0.5795 -3.0195 -0.8445
  179SLPC  H12Y20435   1.243   0.936   3.358  2.8909  0.5587 -3.7145
  179SLPC  C31320436   1.238   1.038   3.549  0.1021 -0.5875  0.1075
  179SLPC  H13X20437   1.206   0.943   3.598 -0.0661 -1.2274 -1.1992
  179SLPC  H13Y20438   1.147   1.099   3.539 -0.2812 -1.0351  0.8021
  179SLPC  C31420439   1.327   1.119   3.645  0.0603 -0.4390 -0.6965
  179SLPC  H14X20440   1.276   1.117   3.744  0.3561  0.3439 -0.5221
  179SLPC  H14Y20441   1.326   1.225   3.611 -1.8819 -0.2440 -0.1708
  179SLPC  C31520442   1.472   1.067   3.651  0.0058  0.4963 -0.2545
  179SLPC  H15X20443   1.524   1.096   3.557  0.7319 -1.6198 -0.5735
  179SLPC  H15Y20444   1.462   0.956   3.659 -2.3597  0.7280  0.5605
  179SLPC  C31620445   1.556   1.118   3.766  0.0359  0.2876 -0.5067
  179SLPC  H16X20446   1.544   1.228   3.774  1.5520  0.4848 -0.6541
  179SLPC  H16Y20447   1.663   1.094   3.746  0.1896 -0.9051  1.4669
  179SLPC  C31720448   1.533   1.056   3.909 -0.7798 -0.2383 -0.2889
  179SLPC  H17X20449   1.524   0.948   3.885 -0.2819 -0.1253 -1.0297
  179SLPC  H17Y20450   1.437   1.095   3.947 -0.8914 -0.5620 -0.2346
  179SLPC  C31820451   1.643   1.089   4.010 -0.2741 -0.4127  0.4798
  179SLPC  H18X20452   1.626   1.036   4.106 -1.4580  0.0790  0.5590
  179SLPC  H18Y20453   1.643   1.200   4.023  0.6992 -0.2859 -0.4889
  179SLPC  H18Z20454   1.743   1.060   3.973 -0.4552 -1.5810  0.8799
  180SLPC     N20455   6.272   5.515   1.564  0.2776 -0.0820  0.6835
  180SLPC   C1320456   6.212   5.577   1.675  0.6689 -0.1941 -0.6090
  180SLPC  H13A20457   6.105   5.571   1.668  0.6493  1.5295 -2.7841
  180SLPC  H13B20458   6.251   5.547   1.771 -0.7402  1.9988  0.7390
  180SLPC  H13C20459   6.234   5.683   1.683  0.2980 -0.0825 -1.0180
  180SLPC   C1420460   6.214   5.566   1.432 -0.0672  0.5101 -1.3997
  180SLPC  H14A20461   6.107   5.560   1.418 -0.4906  3.1011  0.1934
  180SLPC  H14B20462   6.247   5.668   1.421  0.5122  0.8195  2.1597
  180SLPC  H14C20463   6.258   5.513   1.348  2.3239  1.4052 -0.8051
  180SLPC   C1520464   6.231   5.373   1.578 -0.3564 -0.5112 -0.0904
  180SLPC  H15A20465   6.274   5.307   1.503  0.0103 -1.6558  1.0899
  180SLPC  H15B20466   6.248   5.336   1.678 -1.5603 -0.0426  0.2993
  180SLPC  H15C20467   6.125   5.354   1.568 -0.1743 -1.0407 -1.1591
  180SLPC   C1220468   6.429   5.529   1.564  0.0959  0.2256 -0.4428
  180SLPC  H12A20469   6.458   5.480   1.472 -1.6346  1.7321 -1.8617
  180SLPC  H12B20470   6.467   5.482   1.654 -1.3129  0.4856  0.3245
  180SLPC   C1120471   6.491   5.668   1.558  0.3556  0.3686  0.1542
  180SLPC  H11A20472   6.447   5.721   1.472  1.6092  0.1598 -0.6360
  180SLPC  H11B20473   6.600   5.649   1.545  0.6822 -0.6157  3.3351
  180SLPC     P20474   6.512   5.872   1.733 -0.2806  0.3813  0.2959
  180SLPC   O1320475   6.584   5.944   1.625  0.1119 -0.3408 -0.1062
  180SLPC   O1420476   6.398   5.940   1.801  0.1734 -0.4151 -0.0259
  180SLPC   O1220477   6.465   5.728   1.685 -0.6038  0.3521  0.5400
  180SLPC   O1120478   6.620   5.821   1.839 -0.1603 -0.1522  0.0588
  180SLPC    C120479   6.607   5.859   1.979  0.2888  0.3983 -0.1510
  180SLPC    HA20480   6.707   5.858   2.026 -0.0942  0.2788  0.6737
  180SLPC    HB20481   6.560   5.957   2.003 -0.0558 -0.1757  1.6512
  180SLPC    C220482   6.528   5.741   2.057 -0.7080  0.2097 -0.5826
  180SLPC    HS20483   6.418   5.747   2.046 -0.8834  1.8687  1.5136
  180SLPC   O2120484   6.547   5.757   2.196 -0.1882 -0.4612 -0.0340
  180SLPC   C2120485   6.484   5.867   2.252 -0.7572 -0.6150  0.5352
  180SLPC   O2220486   6.401   5.936   2.195  0.2906 -0.3881  0.1227
  180SLPC   C2220487   6.539   5.877   2.393 -0.1088 -0.4950 -0.2335
  180SLPC   H2R20488   6.494   5.792   2.447 -1.1286  0.9815  1.3504
  180SLPC   H2S20489   6.648   5.855   2.395 -0.1373 -0.5543  0.5672
  180SLPC    C320490   6.587   5.603   2.009 -0.7357 -0.0590 -0.4206
  180SLPC    HX20491   6.698   5.606   2.005 -0.7401 -0.3054 -0.8020
  180SLPC    HY20492   6.551   5.581   1.906 -1.8680  2.3887 -0.6128
  180SLPC   O3120493   6.557   5.491   2.100  0.2857  0.2179  0.6888
  180SLPC   C3120494   6.445   5.426   2.099 -0.2756  0.4066  0.0375
  180SLPC   O3220495   6.353   5.426   2.022 -0.6075  0.0121 -0.0447
  180SLPC   C3220496   6.435   5.338   2.229  0.3230  0.5616 -0.5072
  180SLPC   H2X20497   6.524   5.273   2.230  0.6932  1.0467 -1.2532
  180SLPC   H2Y20498   6.340   5.280   2.228  1.0334 -0.6736  0.8812
  180SLPC   C2320499   6.536   6.024   2.444  0.3005 -1.3135 -0.0824
  180SLPC   H3R20500   6.436   6.071   2.430  0.6778 -0.8781 -1.4907
  180SLPC   H3S20501   6.601   6.092   2.385  0.3921 -1.8771 -0.6419
  180SLPC   C2420502   6.569   6.020   2.592  0.3992  0.3999 -0.1780
  180SLPC   H4R20503   6.668   5.972   2.605  0.6158  0.5018 -1.3363
  180SLPC   H4S20504   6.492   5.952   2.634  0.1989 -0.0502 -1.2386
  180SLPC   C2520505   6.580   6.153   2.669  0.6160 -0.3086 -0.4835
  180SLPC   H5R20506   6.502   6.225   2.636  0.9948  0.0458 -0.6073
  180SLPC   H5S20507   6.674   6.203   2.640  0.0034  1.4723  0.4762
  180SLPC   C2620508   6.580   6.125   2.820  0.6381 -0.1127 -1.1850
  180SLPC   H6R20509   6.500   6.051   2.837  1.0354 -0.5191 -1.0546
  180SLPC   H6S20510   6.561   6.222   2.870  2.7541  0.9516 -2.3066
  180SLPC   C2720511   6.712   6.075   2.870  0.1574 -0.5306 -0.2256
  180SLPC   H7R20512   6.790   6.139   2.823 -1.3103  2.2645  0.8929
  180SLPC   H7S20513   6.718   5.971   2.832 -1.2450 -0.9335  0.5858
  180SLPC   C2820514   6.732   6.081   3.030  0.2855 -0.0761  0.7002
  180SLPC   H8R20515   6.746   6.187   3.061  0.0417  0.0270  0.4588
  180SLPC   H8S20516   6.831   6.034   3.052  0.1852 -0.5628  0.1317
  180SLPC   C2920517   6.621   6.008   3.099  0.3103 -0.2570  0.9881
  180SLPC   H9R20518   6.574   5.925   3.044 -1.4315  1.3702 -0.1002
  180SLPC  C21020519   6.553   6.052   3.208 -0.0394 -0.0856 -0.0677
  180SLPC  H10R20520   6.467   5.990   3.238 -0.3286 -0.5087 -1.7101
  180SLPC  C21120521   6.592   6.172   3.299 -0.3201  0.1283 -0.4270
  180SLPC  H11R20522   6.686   6.213   3.256 -0.5413  0.2488 -0.8010
  180SLPC  H11S20523   6.623   6.139   3.401 -0.2592  1.7342  0.1093
  180SLPC  C21220524   6.484   6.279   3.301  0.4535  0.0993  0.2351
  180SLPC  H12R20525   6.472   6.329   3.204  2.3363 -2.8376 -1.6510
  180SLPC  C21320526   6.397   6.304   3.407  0.3842 -0.1945 -0.2989
  180SLPC  H13R20527   6.325   6.387   3.397  0.2857  0.0798  2.1217
  180SLPC  C21420528   6.400   6.238   3.545  0.1464  0.5458 -0.4939
  180SLPC  H14R20529   6.428   6.314   3.621  0.5154  1.1680 -1.2412
  180SLPC  H14S20530   6.485   6.167   3.543 -1.0012 -0.9904 -4.5433
  180SLPC  C21520531   6.269   6.173   3.599 -0.4457 -0.0031 -0.0419
  180SLPC  H15R20532   6.189   6.250   3.604 -0.4022  0.0148  0.3840
  180SLPC  H15S20533   6.281   6.125   3.698  0.9708 -0.1095 -0.2372
  180SLPC  C21620534   6.220   6.067   3.502  0.6378 -0.6713  0.6985
  180SLPC  H16R20535   6.296   5.987   3.486  2.3118  0.4139  2.7576
  180SLPC  H16S20536   6.182   6.117   3.411  0.4567  1.4273  1.8638
  180SLPC  C21720537   6.112   5.984   3.565  1.1142  0.3908 -0.5467
  180SLPC  H17R20538   6.135   5.936   3.662  0.2084  3.8427  1.5194
  180SLPC  H17S20539   6.080   5.908   3.490  0.7429 -0.9281  0.8927
  180SLPC  C21820540   5.988   6.070   3.603  0.3220 -0.3351  0.0853
  180SLPC  H18R20541   5.911   6.022   3.668 -1.7281  0.4498 -1.6342
  180SLPC  H18S20542   5.939   6.103   3.509  0.6383  0.1132  0.0757
  180SLPC  H18T20543   6.012   6.159   3.666  0.4636  0.3947 -0.9775
  180SLPC   C3320544   6.441   5.431   2.352 -0.1865  0.6939  0.4018
  180SLPC   H3X20545   6.351   5.497   2.355 -1.0028 -0.4126  1.1363
  180SLPC   H3Y20546   6.529   5.498   2.352  0.0497  0.3887  0.0045
  180SLPC   C3420547   6.449   5.347   2.481  0.0973 -0.4608 -0.0582
  180SLPC   H4X20548   6.539   5.283   2.482 -1.0834 -2.2035  0.1374
  180SLPC   H4Y20549   6.361   5.278   2.480 -0.9198  0.6702  2.9155
  180SLPC   C3520550   6.434   5.438   2.599 -0.1860 -0.5613 -0.5854
  180SLPC   H5X20551   6.337   5.492   2.602  0.6847  1.0774 -0.7534
  180SLPC   H5Y20552   6.511   5.518   2.603  0.5758 -1.3285  0.6821
  180SLPC   C3620553   6.453   5.371   2.738  0.6524  0.3488 -0.4545
  180SLPC   H6X20554   6.549   5.314   2.743 -0.8208 -2.1649  1.0166
  180SLPC   H6Y20555   6.375   5.292   2.744  0.5919  0.3833 -0.7970
  180SLPC   C3720556   6.449   5.466   2.857 -0.1527  0.4833  0.1381
  180SLPC   H7X20557   6.362   5.535   2.841 -0.8410 -0.8630 -2.4686
  180SLPC   H7Y20558   6.538   5.530   2.875 -0.2055 -0.0254  2.5328
  180SLPC   C3820559   6.418   5.395   2.988 -0.4921  0.5345 -0.1251
  180SLPC   H8X20560   6.319   5.345   2.974 -1.0899  1.8399 -0.6675
  180SLPC   H8Y20561   6.396   5.475   3.061  2.1403  0.3644  0.9658
  180SLPC   C3920562   6.531   5.298   3.034  0.4079  0.2989 -0.2847
  180SLPC   H9X20563   6.630   5.348   3.042 -0.0748  1.1428  0.6387
  180SLPC   H9Y20564   6.535   5.214   2.962  2.3671  1.1895 -1.3022
  180SLPC  C31020565   6.504   5.231   3.175 -0.2384  0.3013 -0.4904
  180SLPC  H10X20566   6.531   5.123   3.172 -3.2799 -0.5363 -0.5033
  180SLPC  H10Y20567   6.395   5.240   3.196 -0.8672 -2.9898 -1.7411
  180SLPC  C31120568   6.571   5.301   3.288 -0.5485 -0.3913  0.3851
  180SLPC  H11X20569   6.546   5.409   3.281 -0.5071 -0.4158 -0.2201
  180SLPC  H11Y20570   6.680   5.281   3.280 -0.5041  0.0940 -0.4226
  180SLPC  C31220571   6.533   5.227   3.415  0.1587  0.3815 -0.2044
  180SLPC  H12X20572   6.597   5.137   3.422 -0.4998  0.0194  2.2511
  180SLPC  H12Y20573   6.426   5.196   3.409 -1.2446  3.7513  3.1187
  180SLPC  C31320574   6.554   5.311   3.545  0.1450 -0.1864 -0.4890
  180SLPC  H13X20575   6.492   5.403   3.539 -0.4438 -0.3712  1.6747
  180SLPC  H13Y20576   6.663   5.331   3.537  0.3010 -1.0286 -0.5561
  180SLPC  C31420577   6.502   5.227   3.660 -0.0909 -0.3036  0.2796
  180SLPC  H14X20578   6.514   5.117   3.650 -1.8856 -0.4077 -1.5592
  180SLPC  H14Y20579   6.391   5.233   3.663 -0.4672 -2.6156 -2.7528
  180SLPC  C31520580   6.553   5.269   3.798  0.4183  0.5511  0.0761
  180SLPC  H15X20581   6.660   5.245   3.813  0.2517  1.1678  2.6780
  180SLPC  H15Y20582   6.489   5.198   3.855 -0.1622  0.8574 -0.1810
  180SLPC  C31620583   6.531   5.418   3.845  0.1917 -0.3846 -0.1893
  180SLPC  H16X20584   6.426   5.448   3.824  0.2325  0.2310  0.4630
  180SLPC  H16Y20585   6.605   5.476   3.786 -0.3120  0.8024  0.3258
  180SLPC  C31720586   6.555   5.459   3.994 -0.6157  0.0636  0.5362
  180SLPC  H17X20587   6.523   5.565   3.996  1.3677  0.7380  3.4295
  180SLPC  H17Y20588   6.666   5.458   4.002 -0.4117  3.1712 -0.3584
  180SLPC  C31820589   6.492   5.372   4.100 -0.8777 -0.0082 -0.0385
  180SLPC  H18X20590   6.518   5.394   4.205  1.0640  1.1070 -0.7013
  180SLPC  H18Y20591   6.510   5.265   4.077 -1.5130 -0.3995  1.1979
  180SLPC  H18Z20592   6.381   5.386   4.101 -1.1528 -1.9830  0.6459
  181SLPC     N20593   0.564   1.521   1.415  0.1567  0.4588  0.6524
  181SLPC   C1320594   0.498   1.653   1.416 -0.0193  0.7857  0.1197
  181SLPC  H13A20595   0.456   1.674   1.318 -1.2626 -0.3622  0.3864
  181SLPC  H13B20596   0.413   1.659   1.482  1.5391 -0.3999  2.3492
  181SLPC  H13C20597   0.574   1.725   1.443  1.4184  1.9125 -5.4911
  181SLPC   C1420598   0.684   1.531   1.324  0.1392  0.2295 -0.1540
  181SLPC  H14A20599   0.655   1.579   1.232  2.6429  2.3651  0.0913
  181SLPC  H14B20600   0.754   1.596   1.372  1.2335 -0.3820 -0.8808
  181SLPC  H14C20601   0.730   1.434   1.310 -1.5896 -0.7505  0.5825
  181SLPC   C1520602   0.467   1.418   1.345  0.3270 -1.0759 -0.1991
  181SLPC  H15A20603   0.506   1.318   1.362  1.0600 -0.4994  1.7096
  181SLPC  H15B20604   0.372   1.437   1.392  0.9706  0.9028  0.3880
  181SLPC  H15C20605   0.468   1.429   1.237  1.2758  0.1523 -0.0808
  181SLPC   C1220606   0.602   1.476   1.556  0.2819 -0.2279 -0.3197
  181SLPC  H12A20607   0.633   1.373   1.562 -0.4528 -0.3990  0.9617
  181SLPC  H12B20608   0.518   1.491   1.622 -1.4116  1.7081 -2.6984
  181SLPC   C1120609   0.728   1.545   1.612 -0.2432 -0.3252  0.2290
  181SLPC  H11A20610   0.805   1.528   1.533 -0.7297  0.0174 -0.3251
  181SLPC  H11B20611   0.773   1.502   1.705  3.4792  3.8764  0.7559
  181SLPC     P20612   0.621   1.749   1.737 -0.4552  0.1647  0.3368
  181SLPC   O1320613   0.639   1.895   1.740 -0.0290  0.2139 -0.4331
  181SLPC   O1420614   0.483   1.700   1.716 -0.2638  0.6006  0.0345
  181SLPC   O1220615   0.720   1.690   1.626 -0.0007 -0.1015 -0.1159
  181SLPC   O1120616   0.672   1.685   1.868 -0.2970 -0.2940  0.5474
  181SLPC    C120617   0.806   1.711   1.919 -0.1945  0.1982 -0.1562
  181SLPC    HA20618   0.862   1.615   1.912 -0.8342 -0.6900  4.2219
  181SLPC    HB20619   0.866   1.784   1.861 -0.5195 -0.1433 -0.9494
  181SLPC    C220620   0.807   1.753   2.069 -0.5928 -0.3918 -1.2310
  181SLPC    HS20621   0.907   1.797   2.088 -0.5713 -0.7830 -0.3894
  181SLPC   O2120622   0.772   1.640   2.152  0.5227  0.1857  0.0288
  181SLPC   C2120623   0.868   1.551   2.161  0.3204  0.1197 -0.6484
  181SLPC   O2220624   0.984   1.565   2.130 -0.4908  0.2620  0.0460
  181SLPC   C2220625   0.828   1.430   2.246  0.5493  0.3180 -0.4194
  181SLPC   H2R20626   0.911   1.356   2.240  0.1188 -0.1556 -0.6638
  181SLPC   H2S20627   0.834   1.470   2.349  0.0274  3.4101 -1.4853
  181SLPC    C320628   0.713   1.875   2.096  0.0112 -0.0728  0.0016
  181SLPC    HX20629   0.612   1.839   2.068  0.1258 -1.7556  1.5576
  181SLPC    HY20630   0.743   1.963   2.034  1.3247  0.6428  1.5577
  181SLPC   O3120631   0.703   1.924   2.237 -0.1746 -0.1211  0.4339
  181SLPC   C3120632   0.813   1.970   2.292 -0.5094 -0.0972  0.1088
  181SLPC   O3220633   0.923   1.994   2.239  0.2269  0.8058 -0.0938
  181SLPC   C3220634   0.794   1.991   2.442 -0.5438  0.0913  0.5292
  181SLPC   H2X20635   0.758   2.095   2.457  2.0105  0.9607  1.2371
  181SLPC   H2Y20636   0.897   1.986   2.486 -0.1757  1.6359 -0.0807
  181SLPC   C2320637   0.693   1.359   2.217  1.0270  0.0988 -0.5862
  181SLPC   H3R20638   0.716   1.252   2.199 -0.7501 -0.2996 -0.6215
  181SLPC   H3S20639   0.652   1.395   2.120 -2.0309 -1.2419  0.0952
  181SLPC   C2420640   0.578   1.368   2.323 -0.3186  0.0989  0.3410
  181SLPC   H4R20641   0.611   1.323   2.420  0.8248  0.5197  0.1652
  181SLPC   H4S20642   0.493   1.302   2.294  0.2449  0.2598 -1.8325
  181SLPC   C2520643   0.513   1.497   2.348  1.0002  0.3310 -0.6292
  181SLPC   H5R20644   0.459   1.537   2.260  1.1290 -0.5465 -1.1116
  181SLPC   H5S20645   0.580   1.584   2.365  0.2288  0.7319  0.4475
  181SLPC   C2620646   0.414   1.485   2.466 -0.2975  0.7450  0.3384
  181SLPC   H6R20647   0.472   1.458   2.557  1.8624 -2.0731 -1.6871
  181SLPC   H6S20648   0.353   1.397   2.436  1.4702 -0.7098  0.8156
  181SLPC   C2720649   0.332   1.619   2.493  0.0255 -0.0239 -0.2019
  181SLPC   H7R20650   0.261   1.618   2.408  1.2262 -0.4514 -1.2387
  181SLPC   H7S20651   0.408   1.699   2.482 -0.7196  0.9127  1.1694
  181SLPC   C2820652   0.263   1.634   2.632 -0.3686 -0.1878 -0.4409
  181SLPC   H8R20653   0.245   1.739   2.664  1.5661 -0.1908  0.8095
  181SLPC   H8S20654   0.344   1.601   2.701  1.0481  2.2501 -0.8124
  181SLPC   C2920655   0.146   1.545   2.657 -0.8670 -0.0439  0.0915
  181SLPC   H9R20656   0.132   1.480   2.570  0.4241  2.0972 -1.8329
  181SLPC  C21020657   0.059   1.552   2.762  0.4362 -0.0202  0.1442
  181SLPC  H10R20658  -0.004   1.463   2.772  0.0287  0.1869 -0.5146
  181SLPC  C21120659   0.089   1.635   2.885  0.7131 -0.0633  0.5954
  181SLPC  H11R20660   0.190   1.680   2.878 -0.9123  4.1186  0.9987
  181SLPC  H11S20661   0.109   1.566   2.969 -0.2746 -1.4325 -0.2494
  181SLPC  C21220662  -0.014   1.740   2.927  0.0103  0.3002 -0.5257
  181SLPC  H12R20663  -0.060   1.792   2.841  0.7749 -0.6363 -1.5320
  181SLPC  C21320664  -0.029   1.782   3.053 -0.0717  0.4646 -0.4420
  181SLPC  H13R20665  -0.100   1.862   3.078  0.8985  1.2731 -0.2258
  181SLPC  C21420666   0.036   1.721   3.172 -0.1175  0.3544  0.2278
  181SLPC  H14R20667   0.054   1.813   3.231  3.4973 -0.7671  1.1526
  181SLPC  H14S20668   0.133   1.676   3.141 -1.6365 -2.1595 -1.2020
  181SLPC  C21520669  -0.034   1.619   3.259 -0.3298  0.0280  0.9523
  181SLPC  H15R20670  -0.035   1.524   3.201 -1.1819  1.9043 -2.3686
  181SLPC  H15S20671  -0.134   1.664   3.277 -0.3614  0.3884 -0.0448
  181SLPC  C21620672   0.040   1.582   3.388  0.0812  0.1941 -0.4471
  181SLPC  H16R20673   0.030   1.674   3.449 -2.0523 -0.3040  0.0444
  181SLPC  H16S20674   0.148   1.571   3.368  0.4093  3.7778 -1.2985
  181SLPC  C21720675  -0.017   1.451   3.451 -0.1482 -0.8564 -0.1457
  181SLPC  H17R20676  -0.044   1.385   3.366  0.3791  1.2207 -2.0126
  181SLPC  H17S20677  -0.111   1.469   3.508  1.1475 -1.4216  2.3311
  181SLPC  C21820678   0.079   1.392   3.550 -0.1190  0.8276  0.7406
  181SLPC  H18R20679   0.079   1.458   3.639 -0.8229  1.3521  0.3521
  181SLPC  H18S20680   0.184   1.383   3.515 -0.2221 -2.1244  0.8841
  181SLPC  H18T20681   0.033   1.298   3.587  0.9389 -0.3288 -0.7324
  181SLPC   C3320682   0.703   1.881   2.508 -0.1821  0.7923 -0.5071
  181SLPC   H3X20683   0.606   1.868   2.455 -0.5733 -0.1033  0.4006
  181SLPC   H3Y20684   0.689   1.926   2.608  2.3741 -0.1063  0.3236
  181SLPC   C3420685   0.775   1.747   2.537  0.6612 -0.1905  0.0745
  181SLPC   H4X20686   0.876   1.773   2.575  0.2457  0.2531  0.9107
  181SLPC   H4Y20687   0.787   1.692   2.442 -0.3072 -0.4361  0.0825
  181SLPC   C3520688   0.703   1.658   2.643  0.7781 -0.9294 -0.1329
  181SLPC   H5X20689   0.595   1.641   2.624  0.7547 -3.3508  1.6903
  181SLPC   H5Y20690   0.701   1.712   2.740  1.7699  0.9249 -1.0927
  181SLPC   C3620691   0.755   1.517   2.651 -0.0906  0.6122  0.2786
  181SLPC   H6X20692   0.866   1.515   2.663  0.5105  1.5995 -3.7342
  181SLPC   H6Y20693   0.729   1.475   2.552  3.0417  2.4735 -1.4945
  181SLPC   C3720694   0.679   1.433   2.758 -0.4490  1.2300  0.1574
  181SLPC   H7X20695   0.687   1.322   2.750  2.3508  1.4321 -1.1105
  181SLPC   H7Y20696   0.570   1.451   2.744 -1.1744 -1.5824  1.4572
  181SLPC   C3820697   0.706   1.475   2.907  0.4579 -0.0579 -0.9505
  181SLPC   H8X20698   0.654   1.395   2.963 -0.3466  1.3452  0.3780
  181SLPC   H8Y20699   0.650   1.563   2.946  1.8509  0.0117  1.0169
  181SLPC   C3920700   0.849   1.485   2.953  0.4923  0.5077 -0.1190
  181SLPC   H9X20701   0.902   1.568   2.902 -0.2443  0.8619 -0.3167
  181SLPC   H9Y20702   0.910   1.403   2.908 -0.3208 -0.1981  0.0412
  181SLPC  C31020703   0.870   1.522   3.099  1.1028 -0.3036  0.2104
  181SLPC  H10X20704   0.831   1.440   3.164  0.9109  0.1942  0.7262
  181SLPC  H10Y20705   0.809   1.611   3.125 -0.2606 -0.9414 -0.7294
  181SLPC  C31120706   1.017   1.545   3.133 -0.3807 -0.0855 -0.6311
  181SLPC  H11X20707   1.033   1.652   3.108 -0.6622  0.2137  0.4229
  181SLPC  H11Y20708   1.080   1.480   3.069 -1.2977 -0.0650 -1.5836
  181SLPC  C31220709   1.060   1.542   3.281  1.4091  0.5734  0.5295
  181SLPC  H12X20710   1.170   1.528   3.275  1.3764  0.8594 -2.1014
  181SLPC  H12Y20711   1.016   1.447   3.318  0.1399  0.9307 -0.0121
  181SLPC  C31320712   0.998   1.653   3.371 -0.4634 -0.0254 -0.5103
  181SLPC  H13X20713   0.888   1.639   3.381 -0.0783 -2.0890  1.5140
  181SLPC  H13Y20714   1.026   1.751   3.327 -0.7928 -0.9419 -2.8785
  181SLPC  C31420715   1.052   1.648   3.517 -1.1972 -0.0742  0.0236
  181SLPC  H14X20716   1.161   1.669   3.525 -1.5582  1.4502  1.7179
  181SLPC  H14Y20717   1.039   1.540   3.542  1.1343  0.0070  1.9611
  181SLPC  C31520718   0.984   1.744   3.615 -0.1500  0.0744  0.6337
  181SLPC  H15X20719   0.880   1.706   3.623 -1.6305  3.3399 -1.1783
  181SLPC  H15Y20720   0.979   1.845   3.570  0.8669 -0.7616 -1.5036
  181SLPC  C31620721   1.053   1.746   3.753  0.0561 -0.2872  0.4962
  181SLPC  H16X20722   1.158   1.782   3.741 -0.6044  1.1821 -1.0846
  181SLPC  H16Y20723   1.052   1.640   3.789  0.6079 -0.0023  1.3924
  181SLPC  C31720724   0.963   1.834   3.846  0.1417 -0.5497  0.3767
  181SLPC  H17X20725   0.861   1.791   3.844 -0.3901  0.6941 -0.9915
  181SLPC  H17Y20726   0.957   1.934   3.798  1.3043 -1.3130 -1.4578
  181SLPC  C31820727   1.005   1.840   3.995  0.5934  0.5384  0.2493
  181SLPC  H18X20728   0.918   1.871   4.057  0.5151 -2.4191  1.7614
  181SLPC  H18Y20729   1.092   1.909   3.998  0.2869  0.9059  2.3186
  181SLPC  H18Z20730   1.036   1.739   4.028 -1.3689 -1.1120 -2.5261
  182SLPC     N20731   2.481   4.796   1.348  0.8663 -0.4452 -0.2209
  182SLPC   C1320732   2.560   4.918   1.388 -0.3522 -0.3591  0.2892
  182SLPC  H13A20733   2.529   5.008   1.337  3.9561  0.1378 -1.8908
  182SLPC  H13B20734   2.548   4.938   1.494 -0.7520 -0.4897  0.2706
  182SLPC  H13C20735   2.663   4.903   1.363 -0.5403 -2.0036  0.4156
  182SLPC   C1420736   2.514   4.763   1.203  0.1398 -0.6048  0.6895
  182SLPC  H14A20737   2.482   4.838   1.133 -1.4983 -1.3741  0.5646
  182SLPC  H14B20738   2.620   4.747   1.188  0.0672 -0.8730  0.4428
  182SLPC  H14C20739   2.461   4.675   1.169  2.4748 -1.2691 -1.4746
  182SLPC   C1520740   2.340   4.836   1.366 -0.0926 -0.1909 -0.2849
  182SLPC  H15A20741   2.282   4.749   1.338  3.0079 -3.0102  1.3255
  182SLPC  H15B20742   2.310   4.859   1.467 -2.8691  0.5509 -1.1717
  182SLPC  H15C20743   2.314   4.924   1.308  1.5318  2.2587  2.4171
  182SLPC   C1220744   2.507   4.686   1.446 -0.7558  1.0477  0.1858
  182SLPC  H12A20745   2.481   4.725   1.543  0.2248 -0.9070  1.3093
  182SLPC  H12B20746   2.613   4.667   1.447 -1.0962 -1.1135  0.3387
  182SLPC   C1120747   2.435   4.548   1.434  0.2198  0.1716 -0.1852
  182SLPC  H11A20748   2.481   4.471   1.500  0.2033  0.5561  0.2778
  182SLPC  H11B20749   2.452   4.512   1.330  0.2323  0.1665 -0.1814
  182SLPC     P20750   2.225   4.564   1.600 -0.1135  0.0175 -0.1451
  182SLPC   O1320751   2.125   4.667   1.587  0.1133 -0.3020  0.0038
  182SLPC   O1420752   2.179   4.431   1.642  0.3894 -0.1238  0.3568
  182SLPC   O1220753   2.296   4.556   1.459  0.6131 -0.3540  0.4784
  182SLPC   O1120754   2.338   4.613   1.697 -0.0719 -0.6274  0.0862
  182SLPC    C120755   2.410   4.526   1.796  0.2309  0.0948  0.1276
  182SLPC    HA20756   2.363   4.425   1.804  2.1058 -0.8086  0.2634
  182SLPC    HB20757   2.516   4.510   1.768 -0.2816 -2.5615 -0.5648
  182SLPC    C220758   2.374   4.591   1.933 -0.1794 -0.2979  0.0560
  182SLPC    HS20759   2.265   4.609   1.942  0.0255  0.9361  0.2646
  182SLPC   O2120760   2.447   4.713   1.944  0.7325  0.2335 -0.0433
  182SLPC   C2120761   2.411   4.806   2.030 -0.0995  0.2201 -0.0386
  182SLPC   O2220762   2.312   4.797   2.100 -0.1782 -0.6818  0.1035
  182SLPC   C2220763   2.505   4.932   2.021  0.2649 -0.1022 -0.0024
  182SLPC   H2R20764   2.602   4.895   1.982  0.3757 -0.4985  0.6439
  182SLPC   H2S20765   2.462   5.009   1.952 -0.7917  0.0792  0.8214
  182SLPC    C320766   2.428   4.497   2.034  0.2789  0.3796 -0.1222
  182SLPC    HX20767   2.533   4.471   2.009 -0.2563 -1.5015 -0.5975
  182SLPC    HY20768   2.375   4.399   2.031 -1.1861  1.0929  0.9438
  182SLPC   O3120769   2.434   4.536   2.177 -0.1662 -0.8015 -0.1487
  182SLPC   C3120770   2.323   4.519   2.246  0.0341  0.2115  0.6590
  182SLPC   O3220771   2.215   4.483   2.197  0.2421 -0.2914 -0.7691
  182SLPC   C3220772   2.344   4.572   2.392 -0.3152 -0.1399  0.6136
  182SLPC   H2X20773   2.334   4.682   2.384  0.0242  0.1144  2.9219
  182SLPC   H2Y20774   2.443   4.546   2.436 -1.1161 -0.5284  2.2556
  182SLPC   C2320775   2.536   4.996   2.160 -0.5987 -0.0271  0.3466
  182SLPC   H3R20776   2.589   4.925   2.227 -0.7790  0.1681  0.6967
  182SLPC   H3S20777   2.440   5.025   2.209  0.3437  3.1730  0.5191
  182SLPC   C2420778   2.601   5.134   2.146  0.8809 -0.3017  0.2606
  182SLPC   H4R20779   2.535   5.197   2.082 -0.6889 -2.9418 -0.8853
  182SLPC   H4S20780   2.695   5.132   2.088 -0.4251  1.0833 -2.0663
  182SLPC   C2520781   2.621   5.219   2.275 -0.0844  0.1136  0.1382
  182SLPC   H5R20782   2.531   5.208   2.340 -0.9195 -1.0935 -1.1747
  182SLPC   H5S20783   2.630   5.327   2.253 -1.0529  0.2259  0.2647
  182SLPC   C2620784   2.740   5.177   2.359 -0.2283 -0.1220  0.3795
  182SLPC   H6R20785   2.828   5.193   2.294  0.4653 -0.4166  1.2284
  182SLPC   H6S20786   2.725   5.068   2.378 -0.5069  0.0663  1.2650
  182SLPC   C2720787   2.769   5.247   2.491 -0.2004 -0.2151  0.7108
  182SLPC   H7R20788   2.736   5.352   2.501  0.9551  0.2236  0.0562
  182SLPC   H7S20789   2.876   5.266   2.514  0.1979  2.4713 -2.5407
  182SLPC   C2820790   2.711   5.170   2.607 -0.0249 -0.1515 -0.2030
  182SLPC   H8R20791   2.749   5.065   2.612 -1.4434 -0.6676  0.2152
  182SLPC   H8S20792   2.600   5.159   2.598 -0.2038  0.3285  1.2771
  182SLPC   C2920793   2.735   5.247   2.735  0.4685  0.3015 -0.2837
  182SLPC   H9R20794   2.669   5.334   2.747 -1.4089 -1.2186  1.1446
  182SLPC  C21020795   2.808   5.211   2.846 -0.4176 -0.1749 -0.2675
  182SLPC  H10R20796   2.796   5.277   2.933  2.4766  1.9019 -1.2718
  182SLPC  C21120797   2.885   5.081   2.862  0.2919  0.3580 -0.1338
  182SLPC  H11R20798   2.864   5.008   2.781 -0.0396  0.4773 -0.1580
  182SLPC  H11S20799   2.858   5.026   2.955 -0.5578  0.9487 -0.0159
  182SLPC  C21220800   3.030   5.103   2.880  0.6739  0.3052 -0.2885
  182SLPC  H12R20801   3.061   5.157   2.971  0.7344  1.6131 -1.0690
  182SLPC  C21320802   3.125   5.085   2.788  0.1651  0.1705  0.3550
  182SLPC  H13R20803   3.232   5.107   2.800  0.6805 -1.0030 -1.6337
  182SLPC  C21420804   3.095   5.030   2.649 -0.0556 -0.4734 -0.2105
  182SLPC  H14R20805   2.989   5.019   2.618  0.3028 -0.7378 -1.4191
  182SLPC  H14S20806   3.144   4.932   2.631  1.9095  0.4548 -0.1427
  182SLPC  C21520807   3.165   5.113   2.540  0.0317 -0.0549  0.3149
  182SLPC  H15R20808   3.275   5.116   2.557  0.0729 -0.0032  0.0410
  182SLPC  H15S20809   3.122   5.215   2.539  1.6906  0.7126  1.5716
  182SLPC  C21620810   3.157   5.047   2.403 -0.4399 -0.5289  1.0476
  182SLPC  H16R20811   3.061   4.996   2.379  0.8379 -2.0483 -1.2588
  182SLPC  H16S20812   3.232   4.966   2.390 -0.3330 -0.2940  0.1788
  182SLPC  C21720813   3.176   5.143   2.278 -0.1337 -0.4534 -0.0942
  182SLPC  H17R20814   3.280   5.161   2.243  0.4063 -0.8543  1.2373
  182SLPC  H17S20815   3.132   5.243   2.295  0.0193 -0.0770 -1.7436
  182SLPC  C21820816   3.103   5.088   2.154 -0.0599  0.1144  0.7728
  182SLPC  H18R20817   3.159   4.999   2.117  1.0189  0.8592  0.5656
  182SLPC  H18S20818   3.108   5.165   2.074  0.4049 -0.1944  0.4983
  182SLPC  H18T20819   2.995   5.068   2.169 -1.1442  2.6387 -2.5077
  182SLPC   C3320820   2.239   4.510   2.484 -0.7106 -0.8293 -0.6828
  182SLPC   H3X20821   2.250   4.399   2.482  0.7640 -0.7907  1.7661
  182SLPC   H3Y20822   2.138   4.541   2.449  0.5298  1.4736 -2.5505
  182SLPC   C3420823   2.257   4.566   2.635  0.0550  0.3687  0.3616
  182SLPC   H4X20824   2.213   4.667   2.647  0.5967  0.4340  2.1139
  182SLPC   H4Y20825   2.367   4.564   2.654  0.2104  2.0402 -0.1964
  182SLPC   C3520826   2.208   4.454   2.731  0.2120  0.2114  0.7207
  182SLPC   H5X20827   2.251   4.357   2.700  0.2401  0.5161 -0.2198
  182SLPC   H5Y20828   2.098   4.453   2.710  0.3049 -0.5914  0.2436
  182SLPC   C3620829   2.235   4.492   2.872  0.3357 -0.2999 -0.2378
  182SLPC   H6X20830   2.182   4.588   2.888 -0.9740 -0.8815 -0.9334
  182SLPC   H6Y20831   2.343   4.509   2.895 -0.4799  1.0718  3.1217
  182SLPC   C3720832   2.202   4.383   2.971 -0.7830 -1.4274 -0.9962
  182SLPC   H7X20833   2.284   4.308   2.962 -0.9396 -1.6771 -0.3644
  182SLPC   H7Y20834   2.110   4.324   2.949 -0.5429 -1.2656 -2.5729
  182SLPC   C3820835   2.208   4.443   3.114  0.1082  1.2646 -0.1024
  182SLPC   H8X20836   2.138   4.529   3.126  0.6602  1.8606 -0.9703
  182SLPC   H8Y20837   2.305   4.492   3.137  0.7387 -0.6482  1.5220
  182SLPC   C3920838   2.175   4.335   3.221  0.3907  0.3669  0.3828
  182SLPC   H9X20839   2.090   4.278   3.179  0.4738 -0.2589  1.0555
  182SLPC   H9Y20840   2.152   4.371   3.323 -0.2993 -0.3728  0.4931
  182SLPC  C31020841   2.293   4.243   3.245  0.1320  0.8825  0.1099
  182SLPC  H10X20842   2.374   4.304   3.291  0.5856  0.1528  0.2963
  182SLPC  H10Y20843   2.322   4.198   3.148 -1.3953 -2.0433  0.8911
  182SLPC  C31120844   2.273   4.130   3.348 -0.5946  0.0701  0.4138
  182SLPC  H11X20845   2.361   4.065   3.328  0.8765  1.8362  0.9143
  182SLPC  H11Y20846   2.174   4.082   3.330  0.1678 -0.7358 -2.0242
  182SLPC  C31220847   2.292   4.179   3.496 -0.0123  0.2616  0.6462
  182SLPC  H12X20848   2.222   4.255   3.536  1.0970 -0.0260  3.3770
  182SLPC  H12Y20849   2.395   4.220   3.498 -0.0589  0.6901 -2.1372
  182SLPC  C31320850   2.285   4.061   3.592  0.2850 -0.0890 -0.3188
  182SLPC  H13X20851   2.317   3.964   3.548 -2.0024 -1.4434  0.7643
  182SLPC  H13Y20852   2.180   4.040   3.623  0.6188 -0.3066  0.6757
  182SLPC  C31420853   2.351   4.092   3.725 -0.4248  0.4444  0.4700
  182SLPC  H14X20854   2.302   4.186   3.758 -0.8887 -0.1134  1.4016
  182SLPC  H14Y20855   2.460   4.105   3.710 -0.4055 -2.0927 -2.4400
  182SLPC  C31520856   2.325   3.981   3.841  0.1398 -0.3139 -0.8602
  182SLPC  H15X20857   2.214   3.970   3.843 -0.0890  1.0702  2.6825
  182SLPC  H15Y20858   2.366   4.030   3.932  1.9810 -1.9889 -0.7401
  182SLPC  C31620859   2.404   3.858   3.808 -0.0034 -0.1207  0.1642
  182SLPC  H16X20860   2.465   3.885   3.719 -1.0270  0.4261 -0.3929
  182SLPC  H16Y20861   2.334   3.792   3.752  0.2179  1.2320 -1.7949
  182SLPC  C31720862   2.495   3.796   3.915  0.4735 -0.0989 -0.2413
  182SLPC  H17X20863   2.444   3.776   4.011  1.8763 -0.4210  0.4591
  182SLPC  H17Y20864   2.572   3.873   3.939  0.3813 -0.3775  0.9970
  182SLPC  C31820865   2.576   3.673   3.875 -0.1672  0.0268 -0.1546
  182SLPC  H18X20866   2.506   3.598   3.833 -0.6133  0.4785 -0.2421
  182SLPC  H18Y20867   2.643   3.637   3.956  0.8157  2.2808  0.1124
  182SLPC  H18Z20868   2.642   3.709   3.793  0.0633 -0.1213 -0.0337
  183SLPC     N20869   4.278   0.360   1.911 -0.1718  0.2328 -0.1854
  183SLPC   C1320870   4.366   0.413   1.800  0.3938 -0.4257 -0.7743
  183SLPC  H13A20871   4.420   0.333   1.752  0.2209 -1.1495  0.1996
  183SLPC  H13B20872   4.307   0.463   1.725  0.3262 -0.1360 -0.5313
  183SLPC  H13C20873   4.440   0.485   1.831 -0.1489 -0.0889 -0.2261
  183SLPC   C1420874   4.169   0.281   1.844 -0.2163  0.0909  0.2960
  183SLPC  H14A20875   4.209   0.189   1.804 -0.9436 -0.3893  0.6438
  183SLPC  H14B20876   4.091   0.249   1.912  0.8491 -0.3132  1.3736
  183SLPC  H14C20877   4.117   0.331   1.764 -2.3665 -2.2784  0.0716
  183SLPC   C1520878   4.211   0.469   1.991 -0.0317  0.0090 -0.2651
  183SLPC  H15A20879   4.149   0.528   1.924  2.2148  2.2919 -0.4780
  183SLPC  H15B20880   4.155   0.425   2.073  0.4258 -0.9609 -0.4587
  183SLPC  H15C20881   4.284   0.542   2.024  0.1691  1.0081 -2.7315
  183SLPC   C1220882   4.351   0.275   2.014 -0.2512 -0.3092  0.0419
  183SLPC  H12A20883   4.374   0.185   1.959  0.9471  0.3804 -0.6067
  183SLPC  H12B20884   4.285   0.252   2.097  1.5629  1.1470  2.0179
  183SLPC   C1120885   4.497   0.306   2.056 -0.1157  0.2137  0.6102
  183SLPC  H11A20886   4.517   0.229   2.134 -1.6334 -1.4621 -0.6026
  183SLPC  H11B20887   4.501   0.406   2.106  2.7203  0.4043  0.1622
  183SLPC     P20888   4.707   0.391   1.925 -0.1039 -0.1180  0.2638
  183SLPC   O1320889   4.812   0.313   1.855 -0.1219 -0.2243  0.2225
  183SLPC   O1420890   4.664   0.517   1.863 -0.1438  0.1490 -0.4570
  183SLPC   O1220891   4.588   0.291   1.946  0.0647  0.3662 -0.2962
  183SLPC   O1120892   4.752   0.424   2.068 -0.5142 -0.2371  0.6909
  183SLPC    C120893   4.847   0.528   2.086 -0.1646 -0.6421  0.0521
  183SLPC    HA20894   4.950   0.487   2.075 -0.1001 -0.8295  1.2367
  183SLPC    HB20895   4.844   0.613   2.014  1.0845 -1.0209 -0.4813
  183SLPC    C220896   4.827   0.604   2.224 -0.1124  0.0800 -0.1470
  183SLPC    HS20897   4.902   0.685   2.234  0.6181 -0.4598 -1.0534
  183SLPC   O2120898   4.835   0.516   2.334  0.3734  0.2916  0.4740
  183SLPC   C2120899   4.952   0.462   2.365  0.4455  0.5856 -0.4417
  183SLPC   O2220900   5.053   0.457   2.296 -0.6609  0.2458 -0.1561
  183SLPC   C2220901   4.951   0.410   2.510 -0.1964  0.0011 -0.2730
  183SLPC   H2R20902   4.907   0.309   2.515 -1.3233  0.5359  0.9849
  183SLPC   H2S20903   5.058   0.394   2.537 -0.0614 -1.6058 -1.6011
  183SLPC    C320904   4.692   0.682   2.226  0.3147 -0.4077 -0.3276
  183SLPC    HX20905   4.603   0.619   2.206  0.4018 -1.6879  2.6889
  183SLPC    HY20906   4.706   0.758   2.146  0.4449  0.3447  0.3920
  183SLPC   O3120907   4.674   0.764   2.346 -0.0730 -0.4695  0.2088
  183SLPC   C3120908   4.612   0.710   2.443 -0.8116  0.2911  0.0147
  183SLPC   O3220909   4.576   0.593   2.437  0.0658 -0.3995  0.3313
  183SLPC   C3220910   4.580   0.809   2.552  0.6617  0.0183 -0.5163
  183SLPC   H2X20911   4.616   0.913   2.536 -1.7123  1.2711  1.6263
  183SLPC   H2Y20912   4.641   0.772   2.637  2.5614 -0.1630 -1.8759
  183SLPC   C2320913   4.896   0.504   2.615  0.5955  0.1999 -0.2894
  183SLPC   H3R20914   4.787   0.526   2.613  0.1479 -1.6971  0.8190
  183SLPC   H3S20915   4.953   0.600   2.618  0.2879  0.3804 -0.1650
  183SLPC   C2420916   4.927   0.442   2.759 -0.5846 -0.2761 -0.3612
  183SLPC   H4R20917   5.037   0.429   2.759 -0.5364  0.0074 -1.3968
  183SLPC   H4S20918   4.875   0.344   2.761 -0.9893 -0.0910 -1.1808
  183SLPC   C2520919   4.888   0.536   2.876  0.0973 -0.2548 -1.2297
  183SLPC   H5R20920   4.789   0.583   2.865  0.7710  1.2344 -1.1415
  183SLPC   H5S20921   4.952   0.624   2.898 -0.4766 -0.2383  0.5330
  183SLPC   C2620922   4.899   0.449   3.007  0.0774 -0.2860 -1.3121
  183SLPC   H6R20923   5.007   0.430   3.025 -0.0255 -0.6941 -1.1101
  183SLPC   H6S20924   4.852   0.356   2.969 -0.9689  0.8512 -2.8994
  183SLPC   C2720925   4.821   0.492   3.132  0.3875  0.4458 -0.0437
  183SLPC   H7R20926   4.815   0.413   3.210 -3.0362  0.4575 -0.1592
  183SLPC   H7S20927   4.717   0.510   3.098  0.4838  1.4101  0.1243
  183SLPC   C2820928   4.891   0.615   3.186  0.9430 -0.5061  0.1238
  183SLPC   H8R20929   4.924   0.675   3.098 -1.0512  0.3107 -0.1094
  183SLPC   H8S20930   4.989   0.590   3.232  0.2335 -3.1863  0.3446
  183SLPC   C2920931   4.792   0.685   3.275  0.2306 -0.7086 -0.4845
  183SLPC   H9R20932   4.738   0.774   3.238 -1.1574 -0.1660  2.5594
  183SLPC  C21020933   4.780   0.652   3.405 -0.2861  0.4659  1.3152
  183SLPC  H10R20934   4.704   0.699   3.469 -1.5062 -0.1109  0.3373
  183SLPC  C21120935   4.858   0.551   3.481  0.4186  0.2401  0.1445
  183SLPC  H11R20936   4.969   0.556   3.473  0.5113 -0.2655  0.9263
  183SLPC  H11S20937   4.824   0.456   3.435  1.6114 -0.1791  0.1069
  183SLPC  C21220938   4.821   0.536   3.627  0.5884 -0.8280  0.4084
  183SLPC  H12R20939   4.725   0.489   3.652  1.2274 -2.9845 -0.9298
  183SLPC  C21320940   4.908   0.562   3.723  0.2316  0.0820  0.2594
  183SLPC  H13R20941   4.876   0.553   3.828 -2.8513 -1.2625 -0.6840
  183SLPC  C21420942   5.048   0.616   3.709 -0.1140 -0.4993 -0.1049
  183SLPC  H14R20943   5.068   0.669   3.805  1.9497 -3.3386  1.1979
  183SLPC  H14S20944   5.056   0.683   3.621  0.8677  1.2921  1.2743
  183SLPC  C21520945   5.151   0.505   3.715 -0.1545  0.4400 -0.2106
  183SLPC  H15R20946   5.138   0.442   3.624 -1.3641  0.8812 -0.3666
  183SLPC  H15S20947   5.119   0.440   3.800 -1.5200  1.1477 -0.1466
  183SLPC  C21620948   5.290   0.562   3.742 -0.6284 -0.0640 -0.0732
  183SLPC  H16R20949   5.279   0.625   3.833  1.3224 -1.5712  1.3103
  183SLPC  H16S20950   5.308   0.612   3.645  3.9566 -3.1381 -1.0907
  183SLPC  C21720951   5.398   0.457   3.778 -0.1636 -0.4441 -0.4971
  183SLPC  H17R20952   5.394   0.371   3.708  1.3951 -1.8420  1.0469
  183SLPC  H17S20953   5.380   0.414   3.879  1.6611  0.0982  0.1054
  183SLPC  C21820954   5.541   0.520   3.767 -0.4299  0.2006  1.0345
  183SLPC  H18R20955   5.555   0.603   3.840  1.7511  0.8666 -0.0759
  183SLPC  H18S20956   5.563   0.548   3.662 -0.4368 -2.0897  0.3783
  183SLPC  H18T20957   5.614   0.448   3.809 -0.3575 -0.4454 -0.1576
  183SLPC   C3320958   4.431   0.795   2.599 -0.0060 -0.5059  0.1340
  183SLPC   H3X20959   4.410   0.686   2.598 -0.8428 -0.4508  2.9731
  183SLPC   H3Y20960   4.375   0.848   2.519  0.1838  0.4765  0.6337
  183SLPC   C3420961   4.419   0.850   2.743 -0.1219 -0.5050 -0.1783
  183SLPC   H4X20962   4.448   0.956   2.752 -2.5148  0.2030  0.0265
  183SLPC   H4Y20963   4.479   0.781   2.806 -0.9266 -2.7124 -1.6935
  183SLPC   C3520964   4.273   0.835   2.804  0.4666 -0.5496  0.3448
  183SLPC   H5X20965   4.245   0.727   2.797  1.0515 -0.6131 -1.9465
  183SLPC   H5Y20966   4.199   0.898   2.751  1.2996  1.1953  1.1869
  183SLPC   C3620967   4.272   0.891   2.951 -0.6651  0.3021  0.1771
  183SLPC   H6X20968   4.166   0.894   2.982 -1.2518 -3.1082 -1.1571
  183SLPC   H6Y20969   4.307   0.997   2.947  0.4551 -0.0649 -0.0262
  183SLPC   C3720970   4.364   0.823   3.057 -0.1134 -0.1286 -0.4172
  183SLPC   H7X20971   4.471   0.852   3.054 -0.3437  0.7691 -0.3643
  183SLPC   H7Y20972   4.354   0.721   3.016 -1.1939  0.5727 -1.9922
  183SLPC   C3820973   4.313   0.825   3.203 -0.0802  0.6545 -1.0809
  183SLPC   H8X20974   4.208   0.790   3.211  0.2574 -0.3986 -1.1298
  183SLPC   H8Y20975   4.311   0.927   3.247 -1.1115  0.0837  0.2567
  183SLPC   C3920976   4.389   0.719   3.291 -0.1699 -0.0516 -0.7501
  183SLPC   H9X20977   4.498   0.738   3.292 -0.3573  1.1932  1.1732
  183SLPC   H9Y20978   4.365   0.619   3.248 -1.9207  0.0652 -0.1403
  183SLPC  C31020979   4.345   0.709   3.437  0.3293 -0.5444  0.0510
  183SLPC  H10X20980   4.240   0.675   3.452  0.2407 -0.2042  0.2044
  183SLPC  H10Y20981   4.354   0.811   3.481 -1.4823 -0.3366 -0.0085
  183SLPC  C31120982   4.427   0.616   3.529  0.1611  0.1229  0.1324
  183SLPC  H11X20983   4.535   0.612   3.502  0.1760  3.1468 -0.6569
  183SLPC  H11Y20984   4.379   0.516   3.520 -2.5980  1.3382  0.2562
  183SLPC  C31220985   4.438   0.646   3.678  0.2968  0.1945  0.0032
  183SLPC  H12X20986   4.511   0.729   3.688 -0.1239  0.8625 -2.1427
  183SLPC  H12Y20987   4.480   0.560   3.735 -1.2660 -0.1248  0.7376
  183SLPC  C31320988   4.299   0.672   3.741 -0.4611 -0.4360  0.0278
  183SLPC  H13X20989   4.237   0.582   3.721 -1.0304  0.0101 -0.2133
  183SLPC  H13Y20990   4.250   0.756   3.689 -2.5277 -1.6556 -0.1008
  183SLPC  C31420991   4.313   0.703   3.898 -0.3083  1.1814 -0.6668
  183SLPC  H14X20992   4.351   0.612   3.948 -0.3567  1.9359  0.8060
  183SLPC  H14Y20993   4.215   0.721   3.946  0.4382  1.1507  0.9188
  183SLPC  C31520994   4.418   0.814   3.934 -0.0947  0.0012 -0.0116
  183SLPC  H15X20995   4.432   0.905   3.872 -0.9079 -0.8277 -1.4494
  183SLPC  H15Y20996   4.519   0.768   3.937 -0.6353 -1.2433 -0.4056
  183SLPC  C31620997   4.411   0.870   4.076  0.2345  0.0928  0.5137
  183SLPC  H16X20998   4.501   0.932   4.095  0.0542  1.2460 -1.9393
  183SLPC  H16Y20999   4.393   0.786   4.147  0.2146 -0.3049  0.0422
  183SLPC  C31721000   4.295   0.968   4.095  0.7353  0.4610 -0.3510
  183SLPC  H17X21001   4.263   0.987   4.199 -0.1902  0.4896 -0.6260
  183SLPC  H17Y21002   4.212   0.912   4.046  1.2535  0.7634 -1.6136
  183SLPC  C31821003   4.315   1.107   4.016 -0.4482 -0.1399 -0.8425
  183SLPC  H18X21004   4.322   1.099   3.905 -1.6873  1.9980 -1.1430
  183SLPC  H18Y21005   4.392   1.167   4.070 -0.9058 -0.9248  0.7412
  183SLPC  H18Z21006   4.228   1.167   4.052  1.4226  2.2943 -0.0770
  184SLPC     N21007   3.455   6.783   1.174 -0.2244 -0.5292 -1.1078
  184SLPC   C1321008   3.497   6.842   1.044  0.1719 -0.8196  0.0160
  184SLPC  H13A21009   3.431   6.813   0.964 -0.2868 -2.2586  0.8870
  184SLPC  H13B21010   3.506   6.950   1.050 -0.1610 -0.8426  1.0774
  184SLPC  H13C21011   3.597   6.813   1.019  0.4597  1.1943 -1.4494
  184SLPC   C1421012   3.492   6.637   1.165  0.1833  0.1821 -0.5917
  184SLPC  H14A21013   3.595   6.618   1.139  0.3650 -0.2009  0.3723
  184SLPC  H14B21014   3.480   6.581   1.256 -0.3765 -2.5994 -2.2376
  184SLPC  H14C21015   3.424   6.598   1.091 -0.7332  0.4897  0.0695
  184SLPC   C1521016   3.309   6.788   1.183 -0.3640 -0.8009 -0.3038
  184SLPC  H15A21017   3.271   6.737   1.271  0.6387 -1.9426 -0.5111
  184SLPC  H15B21018   3.288   6.894   1.179 -1.5871 -1.0594 -2.1191
  184SLPC  H15C21019   3.269   6.743   1.093 -2.9611 -1.2236  0.9563
  184SLPC   C1221020   3.526   6.840   1.294  0.3806 -0.4079  0.1825
  184SLPC  H12A21021   3.544   6.946   1.289 -0.5287 -0.2402  0.2738
  184SLPC  H12B21022   3.629   6.806   1.298  0.9665  1.3502  0.5543
  184SLPC   C1121023   3.476   6.818   1.438  0.4542  0.4215  0.6430
  184SLPC  H11A21024   3.556   6.852   1.508  0.9745  0.5604 -0.0128
  184SLPC  H11B21025   3.464   6.707   1.437  2.3741  0.1775 -0.0678
  184SLPC     P21026   3.243   6.808   1.561 -0.0698 -0.1074  0.0840
  184SLPC   O1321027   3.127   6.896   1.588 -0.8221 -0.3407  0.1553
  184SLPC   O1421028   3.210   6.680   1.499  0.3443  0.2327 -0.0894
  184SLPC   O1221029   3.355   6.882   1.464  0.0411 -0.6197 -0.0861
  184SLPC   O1121030   3.327   6.791   1.694 -0.6114  0.0814  0.1320
  184SLPC    C121031   3.400   6.891   1.764  0.3578  0.2995 -0.5030
  184SLPC    HA21032   3.510   6.874   1.757  0.8472  2.7400  0.0780
  184SLPC    HB21033   3.372   6.993   1.727 -0.3154  1.0228  1.8462
  184SLPC    C221034   3.365   6.888   1.913 -0.4708 -0.3588 -0.8882
  184SLPC    HS21035   3.390   6.789   1.956  0.5316 -0.6858 -2.1801
  184SLPC   O2121036   3.223   6.922   1.926 -0.5829 -0.6425 -0.0322
  184SLPC   C2121037   3.147   6.834   1.986 -0.1927  0.7916 -0.2767
  184SLPC   O2221038   3.190   6.745   2.056  0.2412  0.4622  0.2002
  184SLPC   C2221039   2.998   6.870   1.969  0.3629 -0.1445 -0.5563
  184SLPC   H2R21040   2.987   6.910   1.866  0.3169 -0.7729 -0.7974
  184SLPC   H2S21041   2.951   6.770   1.983  0.4885 -0.1887 -0.4469
  184SLPC    C321042   3.442   7.002   1.978  0.5257 -0.1597 -0.3995
  184SLPC    HX21043   3.382   7.093   1.958  0.5462 -0.3003 -1.1156
  184SLPC    HY21044   3.543   7.016   1.934  1.3717 -4.0456 -0.1084
  184SLPC   O3121045   3.465   6.966   2.120  0.0697 -0.2680  0.0513
  184SLPC   C3121046   3.388   7.009   2.211 -0.6064 -0.1780 -0.8168
  184SLPC   O3221047   3.307   7.100   2.199  0.0397 -0.0305  0.9413
  184SLPC   C3221048   3.413   6.922   2.339 -0.0345 -0.3753 -0.4767
  184SLPC   H2X21049   3.509   6.871   2.319  0.0947 -0.3384  0.0293
  184SLPC   H2Y21050   3.328   6.851   2.343  0.2920 -0.8008 -1.0898
  184SLPC   C2321051   2.970   6.977   2.077  0.3196 -0.5284 -0.0898
  184SLPC   H3R21052   2.864   7.002   2.053  0.4116 -1.6339 -1.8166
  184SLPC   H3S21053   3.033   7.067   2.061  1.3659 -1.0195  1.0889
  184SLPC   C2421054   3.007   6.927   2.215 -0.8577 -0.2436  0.6258
  184SLPC   H4R21055   2.967   6.991   2.296  1.5690  0.9743  0.9493
  184SLPC   H4S21056   3.116   6.930   2.235 -1.1710 -0.9592  2.6526
  184SLPC   C2521057   2.949   6.783   2.242 -0.1608  0.3409 -0.1895
  184SLPC   H5R21058   3.007   6.701   2.196  0.1881 -1.1523  2.7330
  184SLPC   H5S21059   2.853   6.781   2.185  1.9922  0.7746 -4.2029
  184SLPC   C2621060   2.942   6.748   2.393 -0.5436  0.6497  0.6644
  184SLPC   H6R21061   2.887   6.652   2.396  2.3551 -1.0875  1.8852
  184SLPC   H6S21062   2.874   6.809   2.457 -0.7222  0.6441  0.4813
  184SLPC   C2721063   3.078   6.740   2.469  0.4995 -0.3784  0.2267
  184SLPC   H7R21064   3.121   6.839   2.443 -0.5355 -0.5104 -2.2218
  184SLPC   H7S21065   3.152   6.676   2.418 -0.6377 -1.2816 -0.3258
  184SLPC   C2821066   3.079   6.717   2.625  0.8348 -0.5255 -0.1915
  184SLPC   H8R21067   3.184   6.717   2.661  1.3871  0.5494 -1.6792
  184SLPC   H8S21068   3.043   6.614   2.646  2.5229 -1.3142 -0.9361
  184SLPC   C2921069   2.990   6.803   2.711  0.3990  0.4358 -0.0028
  184SLPC   H9R21070   2.957   6.896   2.660 -0.2065  1.6093  2.3989
  184SLPC  C21021071   2.972   6.798   2.847 -0.3272  0.0762 -0.4423
  184SLPC  H10R21072   2.914   6.880   2.892  0.1602  0.6541 -0.8574
  184SLPC  C21121073   3.031   6.692   2.942  0.4541  0.0932  0.7753
  184SLPC  H11R21074   3.117   6.651   2.884 -0.4124  0.3714 -0.7725
  184SLPC  H11S21075   2.959   6.612   2.969 -0.0328  1.1699  2.8495
  184SLPC  C21221076   3.081   6.744   3.072  1.0328 -0.3525  0.2169
  184SLPC  H12R21077   3.107   6.851   3.075 -0.3436 -0.0135  0.3361
  184SLPC  C21321078   3.085   6.679   3.190  0.3925  0.7349  0.3802
  184SLPC  H13R21079   3.144   6.725   3.271  2.4754 -0.8323 -0.1611
  184SLPC  C21421080   3.060   6.533   3.207  0.9166  0.2634  0.4022
  184SLPC  H14R21081   3.112   6.474   3.128 -0.8891 -1.8840  0.7246
  184SLPC  H14S21082   2.952   6.511   3.201  1.4126 -2.8029  0.8911
  184SLPC  C21521083   3.105   6.484   3.343 -0.0195  0.1848 -0.2395
  184SLPC  H15R21084   3.213   6.510   3.346  0.0972 -0.2873 -0.3076
  184SLPC  H15S21085   3.107   6.373   3.346 -1.4913  0.1523  1.6900
  184SLPC  C21621086   3.025   6.536   3.461 -0.6290  0.3433 -0.0165
  184SLPC  H16R21087   2.929   6.481   3.458 -0.3802 -0.0637 -0.8006
  184SLPC  H16S21088   2.999   6.644   3.451  0.7938  0.8356  1.1487
  184SLPC  C21721089   3.095   6.507   3.596  1.3872 -0.8319 -0.3512
  184SLPC  H17R21090   3.204   6.520   3.575  1.4119 -0.5308 -0.0391
  184SLPC  H17S21091   3.069   6.402   3.621 -0.6822  0.1494  2.0307
  184SLPC  C21821092   3.053   6.597   3.709  0.0815  0.2544 -0.2248
  184SLPC  H18R21093   3.108   6.693   3.699 -0.8427  0.8478  0.1806
  184SLPC  H18S21094   3.075   6.551   3.808 -1.2454 -0.8548 -0.4149
  184SLPC  H18T21095   2.944   6.620   3.699  0.3449  0.4406 -5.1568
  184SLPC   C3321096   3.415   7.005   2.474  0.4776  0.5337  0.4115
  184SLPC   H3X21097   3.313   7.049   2.485  0.8435  0.8188  3.8787
  184SLPC   H3Y21098   3.486   7.087   2.451  2.7302 -1.8367 -1.6750
  184SLPC   C3421099   3.455   6.928   2.600  0.1439  0.0297 -0.5703
  184SLPC   H4X21100   3.549   6.871   2.580  0.5540  0.0656  1.1148
  184SLPC   H4Y21101   3.381   6.846   2.603  0.1798  0.0162  0.3853
  184SLPC   C3521102   3.447   7.000   2.734 -0.7136  0.0872 -0.2817
  184SLPC   H5X21103   3.356   7.063   2.743 -2.0033 -1.7737  0.2334
  184SLPC   H5Y21104   3.534   7.068   2.744 -0.9232  0.1805  1.0574
  184SLPC   C3621105   3.446   6.899   2.852  0.3252  0.4961  0.1845
  184SLPC   H6X21106   3.530   6.826   2.846  1.6195  1.4144  4.2425
  184SLPC   H6Y21107   3.347   6.846   2.851  0.5151  0.1400 -0.0527
  184SLPC   C3721108   3.468   6.978   2.980 -0.0809  0.0285 -0.0613
  184SLPC   H7X21109   3.403   7.068   2.984 -1.0243 -0.6628  1.0247
  184SLPC   H7Y21110   3.572   7.017   2.976  0.4790 -1.2013  1.3688
  184SLPC   C3821111   3.460   6.891   3.110  0.2699 -0.5473 -0.0325
  184SLPC   H8X21112   3.551   6.826   3.121  0.9511  0.3413 -0.3147
  184SLPC   H8Y21113   3.371   6.829   3.087  0.5147 -1.0963  0.4615
  184SLPC   C3921114   3.434   6.970   3.234  0.6073 -0.3624  0.2805
  184SLPC   H9X21115   3.330   7.007   3.228  0.0979 -1.5216  1.5515
  184SLPC   H9Y21116   3.507   7.053   3.234  1.1548 -0.7865 -1.7586
  184SLPC  C31021117   3.443   6.887   3.363 -0.1989  0.0590  0.4949
  184SLPC  H10X21118   3.545   6.842   3.365  0.2617  1.0907  1.0422
  184SLPC  H10Y21119   3.370   6.804   3.352  2.0566 -2.0044  0.3198
  184SLPC  C31121120   3.403   6.963   3.494  0.2927 -0.1601  0.4549
  184SLPC  H11X21121   3.299   7.003   3.491  0.3109 -0.1390 -0.9933
  184SLPC  H11Y21122   3.478   7.043   3.510 -0.0544  0.9608 -2.7015
  184SLPC  C31221123   3.399   6.869   3.612 -0.7157 -0.1734 -0.9463
  184SLPC  H12X21124   3.491   6.812   3.586  0.9542  2.0116 -0.2164
  184SLPC  H12Y21125   3.306   6.810   3.609 -3.0370  3.0833  0.7544
  184SLPC  C31321126   3.418   6.935   3.749  0.2513  0.6696  0.3782
  184SLPC  H13X21127   3.331   7.003   3.758 -0.3325 -0.1091  0.6352
  184SLPC  H13Y21128   3.504   7.006   3.757 -0.4269  1.2886  2.8995
  184SLPC  C31421129   3.410   6.852   3.877  0.2217 -0.8932  0.2153
  184SLPC  H14X21130   3.311   6.802   3.885 -0.1296 -0.1222  0.8103
  184SLPC  H14Y21131   3.414   6.934   3.952 -0.4648  1.6325 -2.3055
  184SLPC  C31521132   3.526   6.745   3.885  0.4108  0.6827 -0.8427
  184SLPC  H15X21133   3.549   6.701   3.785  0.8527  0.5510 -0.6829
  184SLPC  H15Y21134   3.493   6.659   3.947  0.2275  1.5106  0.2398
  184SLPC  C31621135   3.663   6.805   3.939  0.1688 -0.4445 -0.2827
  184SLPC  H16X21136   3.647   6.828   4.046 -0.8135  1.1499 -0.7244
  184SLPC  H16Y21137   3.677   6.899   3.881 -1.6145  0.0542  0.0475
  184SLPC  C31721138   3.785   6.723   3.914 -0.6758  1.2305  0.2478
  184SLPC  H17X21139   3.882   6.775   3.933 -0.8541  1.7360 -0.1816
  184SLPC  H17Y21140   3.790   6.701   3.806  0.6298 -0.5365  0.6125
  184SLPC  C31821141   3.803   6.593   4.001 -0.2021  0.1584 -0.3326
  184SLPC  H18X21142   3.874   6.524   3.951 -3.2304 -1.1783 -3.1641
  184SLPC  H18Y21143   3.699   6.554   4.005 -0.0796 -0.0443  1.7905
  184SLPC  H18Z21144   3.838   6.624   4.102 -2.5520  1.2340  0.2178
  185POPC     N21145   5.441   3.982   6.203  0.2786 -0.5286  0.2984
  185POPC   C1221146   5.451   3.893   6.075 -0.5037  0.2969 -0.1257
  185POPC  H12A21147   5.457   3.964   5.994 -1.2098 -0.5385 -0.9427
  185POPC  H12B21148   5.364   3.831   6.057 -0.9121  1.0771 -0.9692
  185POPC   C1321149   5.429   3.897   6.327 -0.3927 -0.0680  0.4646
  185POPC  H13A21150   5.451   3.936   6.425  0.8365 -0.5217  0.3828
  185POPC  H13B21151   5.324   3.873   6.332 -0.6021 -0.1310 -2.3280
  185POPC  H13C21152   5.480   3.805   6.301 -0.1344  0.1552  0.1590
  185POPC   C1421153   5.552   4.078   6.209 -0.2063 -0.1819 -0.3811
  185POPC  H14A21154   5.562   4.153   6.131  0.2218  0.0741 -0.0886
  185POPC  H14B21155   5.551   4.129   6.304  2.5445 -0.9777  0.1850
  185POPC  H14C21156   5.646   4.025   6.215 -1.1659 -1.7655  1.4204
  185POPC   C1521157   5.319   4.060   6.193 -0.8183  0.3064 -0.6110
  185POPC  H15A21158   5.313   4.108   6.096  0.8753  3.0348  0.5252
  185POPC  H15B21159   5.306   4.129   6.275 -1.2517  1.4924 -1.6382
  185POPC  H15C21160   5.238   3.990   6.201 -2.2824  1.8853 -0.9710
  185POPC   C1121161   5.580   3.801   6.084 -1.0488  0.2806 -0.1131
  185POPC  H11A21162   5.665   3.871   6.096 -1.3652  0.6973 -0.2428
  185POPC  H11B21163   5.582   3.752   5.984  0.5930 -1.5601  0.7777
  185POPC     P21164   5.493   3.570   6.192 -0.5431  0.0268 -0.4609
  185POPC   O1321165   5.354   3.598   6.215  0.1771 -1.3950 -0.2978
  185POPC   O1421166   5.562   3.477   6.282 -0.6380  0.0712  0.2307
  185POPC   O1221167   5.574   3.704   6.184  0.1047  0.1370  0.6920
  185POPC   O1121168   5.520   3.510   6.048  0.1922 -0.2982 -0.2700
  185POPC    C121169   5.437   3.512   5.931  0.2807 -0.3330 -0.1823
  185POPC    HA21170   5.462   3.595   5.862 -0.4093  0.1285  0.1109
  185POPC    HB21171   5.328   3.527   5.948 -0.4709  0.1362 -4.3416
  185POPC    C221172   5.441   3.375   5.863 -0.5816 -1.0651 -0.3699
  185POPC    HS21173   5.413   3.300   5.940 -0.6788  0.3452  1.0131
  185POPC   O2121174   5.573   3.347   5.812  0.2794 -0.4518  0.0347
  185POPC   C2121175   5.609   3.222   5.797  0.6961 -0.2578 -0.6333
  185POPC   O2221176   5.542   3.128   5.830  0.7685 -0.0400  0.3299
  185POPC   C2221177   5.750   3.203   5.736 -0.0377 -0.4006  0.0106
  185POPC   H2R21178   5.813   3.244   5.817 -2.2214  1.4057  0.9233
  185POPC   H2S21179   5.754   3.276   5.652  1.1448  0.2795  0.6443
  185POPC    C321180   5.325   3.377   5.753 -0.7401  0.3953  0.4045
  185POPC    HX21181   5.230   3.391   5.810 -0.3324  1.7928  0.7972
  185POPC    HY21182   5.319   3.277   5.705  0.7778  0.4844  0.0006
  185POPC   O3121183   5.330   3.491   5.660  0.5386  0.2684  0.9163
  185POPC   C3121184   5.407   3.471   5.548  0.0132  0.4421 -0.3787
  185POPC   O3221185   5.463   3.372   5.521 -0.3659  0.1145  0.6724
  185POPC   C3221186   5.399   3.604   5.470 -0.0498 -0.1234 -0.7367
  185POPC   H2X21187   5.427   3.688   5.536 -0.5564  0.1542 -0.8689
  185POPC   H2Y21188   5.299   3.638   5.436  0.4722  1.1019 -1.1148
  185POPC   C2321189   5.787   3.059   5.707 -0.4288  0.0555  0.0020
  185POPC   H3R21190   5.766   3.006   5.802  1.2937 -1.8358 -0.6132
  185POPC   H3S21191   5.893   3.062   5.674 -0.9532  2.3251 -1.7384
  185POPC   C2421192   5.715   2.990   5.590 -0.5892  0.7239 -0.4733
  185POPC   H4R21193   5.612   2.980   5.629 -0.6274 -1.6245 -1.0402
  185POPC   H4S21194   5.751   2.889   5.561 -1.2585  0.2803  0.1850
  185POPC   C2521195   5.717   3.077   5.469 -0.2754  0.0284  0.2191
  185POPC   H5R21196   5.807   3.048   5.410  0.7834  1.4702  1.0417
  185POPC   H5S21197   5.738   3.185   5.484  1.1940 -0.1599 -0.3316
  185POPC   C2621198   5.603   3.063   5.373 -0.0122 -0.0734  0.0971
  185POPC   H6R21199   5.513   3.113   5.414 -0.4013 -0.8827  0.2538
  185POPC   H6S21200   5.581   2.955   5.357  1.4766 -0.4580  0.4618
  185POPC   C2721201   5.642   3.125   5.241 -0.2947  0.7177  0.5252
  185POPC   H7R21202   5.731   3.069   5.204 -0.5370  0.1994  0.7197
  185POPC   H7S21203   5.676   3.230   5.255 -0.3945  1.1679 -2.1300
  185POPC   C2821204   5.533   3.114   5.128  0.2172 -0.1549 -0.0720
  185POPC   H8R21205   5.566   3.178   5.044 -0.7328  1.4783  0.7443
  185POPC   H8S21206   5.438   3.159   5.165 -0.7936 -2.7083  0.6574
  185POPC   C2921207   5.497   2.974   5.076 -0.0925 -0.3230 -0.1978
  185POPC   H9121208   5.415   2.922   5.129 -1.6616  2.3856  0.2687
  185POPC  C21021209   5.554   2.921   4.964  0.3322 -0.6209 -0.3932
  185POPC  H10121210   5.508   2.827   4.930 -3.6424  0.8226  0.4020
  185POPC  C21121211   5.657   2.980   4.866  0.0558  0.7282  0.6016
  185POPC  H11R21212   5.736   2.903   4.858 -1.8427 -1.3158  0.3598
  185POPC  H11S21213   5.688   3.081   4.900 -2.1965  1.7786 -0.1923
  185POPC  C21221214   5.601   2.984   4.724  0.1738  0.1894  0.4508
  185POPC  H12R21215   5.514   3.053   4.730 -2.1039 -2.5335  1.3181
  185POPC  H12S21216   5.565   2.882   4.698 -1.0530  1.2802 -2.6669
  185POPC  C21321217   5.697   3.033   4.623  0.3586 -0.0770  1.0167
  185POPC  H13R21218   5.794   2.979   4.611  0.7450  0.8260 -0.1149
  185POPC  H13S21219   5.726   3.131   4.665  0.1880  0.9850 -1.1773
  185POPC  C21421220   5.634   3.060   4.485  0.0309  0.2637 -0.4895
  185POPC  H14R21221   5.545   3.125   4.481 -2.3083 -2.5552  1.6193
  185POPC  H14S21222   5.596   2.964   4.445  2.6658 -1.8594  1.6857
  185POPC  C21521223   5.752   3.105   4.400  0.3582  0.2677 -1.3599
  185POPC  H15R21224   5.821   3.018   4.397  0.7738  0.5237  0.0612
  185POPC  H15S21225   5.810   3.188   4.445  0.8389  0.0248 -1.5207
  185POPC  C21621226   5.708   3.135   4.251  0.2048 -0.4498  0.7006
  185POPC  H16R21227   5.612   3.191   4.256  0.0433 -0.0859 -3.2347
  185POPC  H16S21228   5.677   3.043   4.198 -3.4873 -0.0097  1.8293
  185POPC  C21721229   5.804   3.217   4.166 -0.0227  0.3265 -0.3765
  185POPC  H17R21230   5.911   3.194   4.183  0.0525  0.2087 -0.9939
  185POPC  H17S21231   5.809   3.325   4.189  0.2456  0.3952 -0.7437
  185POPC  C21821232   5.781   3.192   4.018  0.3043 -0.1427 -0.0879
  185POPC  H18R21233   5.805   3.084   4.007  2.5470  0.0812  1.7976
  185POPC  H18S21234   5.851   3.247   3.951  0.4980 -0.3530 -0.0613
  185POPC  H18T21235   5.679   3.217   3.983  0.3857  1.4307  0.6978
  185POPC   C3321236   5.489   3.587   5.345  0.2158  0.6716  0.3038
  185POPC   H3X21237   5.597   3.563   5.358 -0.2343 -1.2142  0.8199
  185POPC   H3Y21238   5.490   3.689   5.301 -0.3444  0.4688 -0.1989
  185POPC   C3421239   5.427   3.485   5.244 -0.7302  0.0015  0.3422
  185POPC   H4X21240   5.318   3.488   5.262 -0.4272  0.9799  2.2729
  185POPC   H4Y21241   5.464   3.382   5.268 -0.5018  0.3343  1.4906
  185POPC   C3521242   5.469   3.520   5.099 -0.1778  0.1836 -0.1789
  185POPC   H5X21243   5.579   3.512   5.085  0.2067  1.4202  1.6941
  185POPC   H5Y21244   5.432   3.623   5.078  0.1026  0.2202 -0.5011
  185POPC   C3621245   5.397   3.432   4.990  0.7853 -0.2044 -0.1554
  185POPC   H6X21246   5.293   3.422   5.027  0.8387  1.0152  0.3592
  185POPC   H6Y21247   5.453   3.336   4.987  0.8636 -0.1697  0.1915
  185POPC   C3721248   5.396   3.487   4.841 -0.0451  0.5127 -0.6202
  185POPC   H7X21249   5.486   3.550   4.830  0.7818 -0.1167  1.9708
  185POPC   H7Y21250   5.303   3.548   4.839 -1.4088 -1.3440  1.1103
  185POPC   C3821251   5.386   3.375   4.732 -0.1269 -0.2098 -0.4346
  185POPC   H8X21252   5.315   3.297   4.767  0.9397 -1.3256 -0.7266
  185POPC   H8Y21253   5.478   3.316   4.720 -1.3475 -1.9253 -1.7481
  185POPC   C3921254   5.339   3.420   4.589  0.1381  0.9773  0.2394
  185POPC   H9X21255   5.281   3.515   4.591 -0.1919  0.7935  2.7461
  185POPC   H9Y21256   5.259   3.352   4.553  0.9992  1.1331 -2.1823
  185POPC  C31021257   5.454   3.434   4.484 -0.4714  0.3188 -0.1585
  185POPC  H10X21258   5.514   3.341   4.491  0.8511  1.2133  1.0799
  185POPC  H10Y21259   5.521   3.516   4.516  0.7035 -1.3361  1.9012
  185POPC  C31121260   5.407   3.457   4.341 -0.3906 -1.0633  0.8944
  185POPC  H11X21261   5.325   3.532   4.337  0.0548 -0.6167 -0.0272
  185POPC  H11Y21262   5.365   3.360   4.304  1.5972 -1.3622 -0.7716
  185POPC  C31221263   5.526   3.501   4.259 -0.0861  0.5818 -0.6530
  185POPC  H12X21264   5.612   3.435   4.285  0.1127  0.4991 -1.4879
  185POPC  H12Y21265   5.547   3.606   4.289  0.2201  0.2114  0.4787
  185POPC  C31321266   5.503   3.493   4.113  0.5209  0.2929  0.1213
  185POPC  H13X21267   5.485   3.387   4.085 -0.1768  0.3416  0.3639
  185POPC  H13Y21268   5.596   3.523   4.059  1.3992 -2.9660 -0.3916
  185POPC  C31421269   5.396   3.600   4.062  0.6644  0.1583  0.1145
  185POPC  H14X21270   5.427   3.701   4.096 -2.3073  1.0582  0.4255
  185POPC  H14Y21271   5.308   3.578   4.126  1.0534 -0.6356  0.3946
  185POPC  C31521272   5.365   3.581   3.910 -0.4049 -0.3169  0.3980
  185POPC  H15X21273   5.304   3.491   3.893  0.9334 -1.8694  3.0129
  185POPC  H15Y21274   5.458   3.563   3.852 -0.3899  1.4619 -0.1997
  185POPC  C31621275   5.304   3.705   3.849 -0.1277 -0.1711  0.0773
  185POPC  H16X21276   5.302   3.701   3.738 -0.2758 -1.4686  0.1061
  185POPC  H16Y21277   5.363   3.793   3.880 -1.5691  1.4038 -1.4764
  185POPC  H16Z21278   5.201   3.717   3.888 -0.1773  0.0330 -0.1178
  186POPC     N21279   0.093   1.699   6.460  0.1792 -0.1820 -0.0159
  186POPC   C1221280   0.087   1.771   6.329  0.0943 -0.1688 -0.3246
  186POPC  H12A21281   0.188   1.770   6.291 -0.0685  0.8391 -0.7990
  186POPC  H12B21282   0.060   1.875   6.337  1.0161  0.1451 -1.1192
  186POPC   C1321283   0.175   1.576   6.439 -0.7721 -0.0058  0.5349
  186POPC  H13A21284   0.130   1.513   6.364 -0.9389 -1.1551  1.5710
  186POPC  H13B21285   0.268   1.616   6.400 -1.2191  1.0737  0.5461
  186POPC  H13C21286   0.204   1.528   6.532 -1.4450 -2.7678 -0.5881
  186POPC   C1421287   0.175   1.781   6.556 -0.6434 -0.5113 -0.3256
  186POPC  H14A21288   0.117   1.867   6.585 -0.6481  1.1168 -4.5175
  186POPC  H14B21289   0.191   1.718   6.642 -1.7667  0.2246  0.4489
  186POPC  H14C21290   0.271   1.811   6.515 -0.3048 -1.2481 -0.0935
  186POPC   C1521291  -0.032   1.657   6.528 -0.4345 -0.5294 -0.0457
  186POPC  H15A21292  -0.105   1.599   6.473  0.2021  1.5186 -3.2720
  186POPC  H15B21293  -0.088   1.740   6.568  1.8649  1.0670  0.0479
  186POPC  H15C21294   0.009   1.594   6.605 -1.6814 -2.5663 -0.9544
  186POPC   C1121295  -0.003   1.707   6.226 -0.6302  0.5542  0.1080
  186POPC  H11A21296  -0.019   1.771   6.137  0.3568  0.3227 -0.2479
  186POPC  H11B21297  -0.106   1.712   6.268 -0.2949 -3.2636  1.8117
  186POPC     P21298   0.123   1.533   6.078 -0.2176 -0.0536 -0.0401
  186POPC   O1321299   0.054   1.498   5.950 -0.2434 -0.1326  0.2228
  186POPC   O1421300   0.218   1.428   6.136 -0.3686 -0.5195  0.3237
  186POPC   O1221301   0.018   1.572   6.194 -0.1635 -0.1592 -0.3801
  186POPC   O1121302   0.200   1.667   6.063 -0.2687  0.0119  0.2253
  186POPC    C121303   0.323   1.679   5.994  0.0811  0.5402 -0.6215
  186POPC    HA21304   0.391   1.590   6.000 -0.4997  0.1372  0.1858
  186POPC    HB21305   0.385   1.756   6.044 -0.1335  0.9776 -1.0312
  186POPC    C221306   0.304   1.713   5.842  0.0240  0.2260 -0.2832
  186POPC    HS21307   0.233   1.798   5.841 -0.8928 -0.4895  1.1068
  186POPC   O2121308   0.249   1.596   5.777 -0.4490 -0.0386 -0.3103
  186POPC   C2121309   0.162   1.623   5.678 -0.3655  0.1822 -0.4901
  186POPC   O2221310   0.131   1.732   5.637 -0.0261  0.3198 -0.3588
  186POPC   C2221311   0.096   1.497   5.630 -0.2233 -0.3257 -0.2131
  186POPC   H2R21312  -0.008   1.506   5.669  0.1725 -0.4234  0.8967
  186POPC   H2S21313   0.138   1.413   5.689  1.2016 -0.3011 -1.1370
  186POPC    C321314   0.436   1.754   5.780  0.2715  0.2893 -0.0119
  186POPC    HX21315   0.502   1.667   5.801  0.6355  0.0457 -1.9933
  186POPC    HY21316   0.486   1.841   5.827 -2.3968  3.2081 -2.2424
  186POPC   O3121317   0.418   1.767   5.641  0.3997  0.1503  0.0123
  186POPC   C3121318   0.401   1.895   5.604 -0.1598  0.0672  0.0162
  186POPC   O3221319   0.361   1.986   5.679  0.2039  0.4456  0.0176
  186POPC   C3221320   0.426   1.922   5.457  0.4017 -0.3348  0.2081
  186POPC   H2X21321   0.516   1.867   5.425  0.0482 -0.9995  0.3294
  186POPC   H2Y21322   0.437   2.032   5.448 -1.5029 -0.0378  0.9452
  186POPC   C2321323   0.106   1.474   5.485 -0.0173 -0.3485  0.0892
  186POPC   H3R21324   0.056   1.558   5.433  1.0624  0.9676  1.0938
  186POPC   H3S21325   0.037   1.389   5.463 -0.5732 -0.4774  2.0952
  186POPC   C2421326   0.244   1.477   5.428  0.2971  0.5499  0.0540
  186POPC   H4R21327   0.305   1.390   5.459 -0.9929 -0.2828  0.3519
  186POPC   H4S21328   0.315   1.559   5.451  1.9376 -1.1295  1.2848
  186POPC   C2521329   0.231   1.448   5.279  0.1918 -0.1269  0.6048
  186POPC   H5R21330   0.167   1.530   5.240 -0.1259 -0.6940 -0.0891
  186POPC   H5S21331   0.170   1.356   5.267 -0.6803  0.3348  1.3088
  186POPC   C2621332   0.359   1.458   5.189 -0.1351  0.5290 -0.7376
  186POPC   H6R21333   0.437   1.384   5.217  0.3290  0.8725 -1.0954
  186POPC   H6S21334   0.408   1.556   5.206 -0.4507  0.4350  0.9207
  186POPC   C2721335   0.314   1.446   5.036  0.3791 -0.0372 -1.1845
  186POPC   H7R21336   0.253   1.537   5.019  0.9568  0.4975 -0.4508
  186POPC   H7S21337   0.258   1.350   5.032  0.3284 -0.0497 -0.3213
  186POPC   C2821338   0.427   1.434   4.930 -0.8745 -0.3788 -0.0108
  186POPC   H8R21339   0.491   1.346   4.953 -0.7799 -0.5970 -1.0440
  186POPC   H8S21340   0.493   1.521   4.946  1.4167 -1.8320 -0.9949
  186POPC   C2921341   0.370   1.421   4.789  0.0363  0.9330  0.1836
  186POPC   H9121342   0.331   1.321   4.766  1.5210  0.6490 -1.2847
  186POPC  C21021343   0.356   1.520   4.696  0.0454 -0.4669  0.0400
  186POPC  H10121344   0.313   1.496   4.598 -0.4181  1.4643 -0.2786
  186POPC  C21121345   0.403   1.665   4.717 -0.0919  0.5676  0.0897
  186POPC  H11R21346   0.488   1.691   4.651  0.0968 -1.0360 -0.3311
  186POPC  H11S21347   0.429   1.684   4.823 -0.4545 -0.5298  0.3950
  186POPC  C21221348   0.283   1.757   4.693 -0.7339  0.3700  0.3799
  186POPC  H12R21349   0.311   1.855   4.737  0.6190  0.5764 -0.8605
  186POPC  H12S21350   0.189   1.729   4.746 -0.5589 -1.5384 -0.2436
  186POPC  C21321351   0.269   1.791   4.541  0.4697 -0.2568 -0.0198
  186POPC  H13R21352   0.207   1.718   4.484  0.7538 -2.5062  2.3650
  186POPC  H13S21353   0.370   1.795   4.496  0.8308 -0.2998  0.7737
  186POPC  C21421354   0.205   1.932   4.513 -0.3908 -0.1729 -0.1151
  186POPC  H14R21355   0.266   2.012   4.560 -1.7132  1.1928 -0.6085
  186POPC  H14S21356   0.101   1.937   4.552 -1.0068 -0.8174 -1.6087
  186POPC  C21521357   0.200   1.973   4.364  0.0672 -0.0421  0.3438
  186POPC  H15R21358   0.116   1.917   4.318  1.7536 -2.3204 -0.1333
  186POPC  H15S21359   0.295   1.933   4.323  0.7320  0.2389  1.5680
  186POPC  C21621360   0.176   2.122   4.345  0.1289  0.8022 -0.6765
  186POPC  H16R21361   0.258   2.186   4.385 -0.7249  2.3531 -1.3396
  186POPC  H16S21362   0.085   2.150   4.403  0.3907  0.2044  0.0484
  186POPC  C21721363   0.153   2.152   4.199 -0.3951 -0.1991  0.3308
  186POPC  H17R21364   0.122   2.258   4.211  0.4836  0.1944 -0.7252
  186POPC  H17S21365   0.073   2.086   4.160 -0.8785  0.6494 -0.1298
  186POPC  C21821366   0.279   2.156   4.118 -0.5300  0.2186  0.1388
  186POPC  H18R21367   0.335   2.062   4.135  0.3801  0.6567 -0.4095
  186POPC  H18S21368   0.341   2.243   4.144  1.6880 -0.9031 -1.1367
  186POPC  H18T21369   0.258   2.165   4.010  5.4002 -0.1590 -1.3563
  186POPC   C3321370   0.316   1.873   5.358 -0.0056 -0.1795 -0.1929
  186POPC   H3X21371   0.221   1.930   5.373  0.5461  0.9392 -0.7679
  186POPC   H3Y21372   0.294   1.766   5.375 -1.2294 -0.0231 -0.6625
  186POPC   C3421373   0.355   1.884   5.214 -0.4712 -0.0608  0.1731
  186POPC   H4X21374   0.438   1.811   5.202 -0.8313 -0.3326 -0.7635
  186POPC   H4Y21375   0.386   1.986   5.181 -2.4090  0.3637 -0.4888
  186POPC   C3521376   0.235   1.843   5.120 -0.4266  0.1282 -0.1124
  186POPC   H5X21377   0.173   1.775   5.181  0.8431  0.3576  1.5034
  186POPC   H5Y21378   0.270   1.788   5.030  1.0012 -0.7085  0.9200
  186POPC   C3621379   0.141   1.959   5.081  0.8555 -0.9931 -0.2095
  186POPC   H6X21380   0.209   2.041   5.048  1.2032 -0.7945  0.9450
  186POPC   H6Y21381   0.089   2.003   5.169  0.5134 -1.0133 -0.4014
  186POPC   C3721382   0.038   1.916   4.969 -0.0595 -0.2249 -0.0245
  186POPC   H7X21383  -0.042   1.852   5.012 -0.2743  1.6724  2.6615
  186POPC   H7Y21384   0.090   1.860   4.889 -1.0178  0.4501 -1.1533
  186POPC   C3821385  -0.024   2.033   4.900  0.2225  0.0437 -0.0094
  186POPC   H8X21386   0.059   2.106   4.885 -1.0305  1.7707  1.1555
  186POPC   H8Y21387  -0.088   2.088   4.971  2.7145  1.2640  1.4523
  186POPC   C3921388  -0.085   1.999   4.767 -0.5809  0.2140 -0.5034
  186POPC   H9X21389  -0.174   1.937   4.792  0.0870 -0.4574  0.2282
  186POPC   H9Y21390  -0.017   1.929   4.714 -1.8888 -2.0114  0.5987
  186POPC  C31021391  -0.110   2.127   4.686  0.2081 -0.2142  0.4798
  186POPC  H10X21392  -0.012   2.174   4.662  0.2340 -0.9004 -0.8021
  186POPC  H10Y21393  -0.176   2.191   4.749  0.5609 -1.0169  1.6999
  186POPC  C31121394  -0.175   2.109   4.544 -0.0039 -0.8594  0.0307
  186POPC  H11X21395  -0.108   2.040   4.491  2.0022  1.9274 -1.3001
  186POPC  H11Y21396  -0.169   2.211   4.500 -1.1191 -0.7819  0.0141
  186POPC  C31221397  -0.319   2.066   4.538  0.2360  0.9871  0.9337
  186POPC  H12X21398  -0.338   1.960   4.564 -0.6790  1.4450  2.2266
  186POPC  H12Y21399  -0.338   2.074   4.429  2.7869 -0.4896  0.2974
  186POPC  C31321400  -0.416   2.148   4.619 -0.4884  0.3579 -0.6538
  186POPC  H13X21401  -0.383   2.254   4.611  2.1432 -0.5302 -2.9636
  186POPC  H13Y21402  -0.400   2.111   4.722  1.3658 -0.3905 -1.1793
  186POPC  C31421403  -0.566   2.147   4.589  0.1380  0.2973  0.1298
  186POPC  H14X21404  -0.628   2.208   4.658  0.1552 -0.7004  1.0483
  186POPC  H14Y21405  -0.593   2.039   4.593  0.6304  0.1810  0.4273
  186POPC  C31521406  -0.594   2.201   4.451 -0.2423  0.5362  0.6479
  186POPC  H15X21407  -0.525   2.153   4.379 -4.2580  0.2581 -3.5056
  186POPC  H15Y21408  -0.589   2.312   4.446  0.2874  0.4703 -0.3505
  186POPC  C31621409  -0.739   2.177   4.400  0.4141  0.0699 -0.2063
  186POPC  H16X21410  -0.814   2.209   4.475  1.4588  0.1871  0.8055
  186POPC  H16Y21411  -0.761   2.069   4.386 -1.3284  0.4335 -0.5109
  186POPC  H16Z21412  -0.766   2.242   4.313  1.2582  0.9911  0.2029
  187POPC     N21413   4.402   3.591   1.599 -0.0644  0.2261  0.6211
  187POPC   C1221414   4.378   3.553   1.743  0.1795  0.0052  0.4657
  187POPC  H12A21415   4.468   3.509   1.783  0.8085 -0.9370 -1.8032
  187POPC  H12B21416   4.313   3.468   1.738 -0.7738  0.7251  0.2734
  187POPC   C1321417   4.488   3.484   1.531 -0.0261  0.1992  0.1880
  187POPC  H13A21418   4.441   3.387   1.546 -0.9579  1.0464  3.6455
  187POPC  H13B21419   4.508   3.510   1.428  1.6207  2.0635  0.9270
  187POPC  H13C21420   4.588   3.476   1.572 -0.1071  1.2320  0.6019
  187POPC   C1421421   4.274   3.601   1.526 -0.2591 -0.3561  0.7010
  187POPC  H14A21422   4.294   3.618   1.421  1.8169 -2.2849  0.7165
  187POPC  H14B21423   4.217   3.509   1.525 -1.1412  0.0833  3.3852
  187POPC  H14C21424   4.208   3.675   1.570 -1.1937  0.0418 -1.2634
  187POPC   C1521425   4.470   3.718   1.587 -0.3571 -1.0331 -0.3765
  187POPC  H15A21426   4.403   3.790   1.631 -1.0174 -2.1028  0.4142
  187POPC  H15B21427   4.494   3.748   1.486  0.7633 -3.0193 -0.7613
  187POPC  H15C21428   4.566   3.726   1.637  0.4327  1.7915 -2.1070
  187POPC   C1121429   4.319   3.656   1.842  0.1336  0.4030  0.0343
  187POPC  H11A21430   4.395   3.735   1.853  1.4782 -0.5740 -1.6910
  187POPC  H11B21431   4.311   3.598   1.936 -0.2054  0.0732 -0.1930
  187POPC     P21432   4.149   3.843   1.807  0.1692 -0.4736  0.0842
  187POPC   O1321433   4.004   3.849   1.779  0.4985  0.4256 -0.1364
  187POPC   O1421434   4.239   3.926   1.725 -0.6600  0.1864 -0.0029
  187POPC   O1221435   4.194   3.699   1.784  0.1610 -0.2541  0.0931
  187POPC   O1121436   4.178   3.867   1.953 -0.4128 -0.1563  0.5022
  187POPC    C121437   4.093   3.914   2.048 -0.0042  0.2840 -0.3993
  187POPC    HA21438   3.990   3.926   2.006 -0.6289  0.0091  1.0172
  187POPC    HB21439   4.118   4.017   2.081 -1.8302  0.9643 -1.0128
  187POPC    C221440   4.079   3.816   2.166  0.2769 -0.3341  0.0564
  187POPC    HS21441   4.023   3.725   2.136 -1.9327  1.5677 -1.9064
  187POPC   O2121442   4.017   3.889   2.270 -0.4138 -0.0991  0.1971
  187POPC   C2121443   3.884   3.894   2.264  0.6861  0.0144  0.9595
  187POPC   O2221444   3.812   3.847   2.179  0.1872  0.6392 -0.0285
  187POPC   C2221445   3.838   3.974   2.390 -0.2228  0.0497  0.5229
  187POPC   H2R21446   3.731   3.946   2.407  0.2636 -0.5156  3.0279
  187POPC   H2S21447   3.841   4.082   2.365  0.6751 -0.0461  0.2004
  187POPC    C321448   4.223   3.771   2.216  0.9738  0.3289  0.0783
  187POPC    HX21449   4.265   3.871   2.238  0.9628  0.7808 -1.8011
  187POPC    HY21450   4.273   3.726   2.127  1.2502 -1.3993  1.0572
  187POPC   O3121451   4.224   3.675   2.337 -0.0467 -0.0251  0.3483
  187POPC   C3121452   4.341   3.673   2.397  0.7066 -0.2853  0.6069
  187POPC   O3221453   4.442   3.719   2.349  0.2443  0.8977 -0.3458
  187POPC   C3221454   4.331   3.595   2.536  1.0819 -0.0863 -0.4765
  187POPC   H2X21455   4.359   3.490   2.513 -0.2700 -0.5239 -0.2202
  187POPC   H2Y21456   4.228   3.596   2.577  1.7291 -1.9334  1.3841
  187POPC   C2321457   3.915   3.961   2.521  0.2759 -0.1466 -0.7898
  187POPC   H3R21458   3.882   4.032   2.600  0.8342 -1.5425  0.7564
  187POPC   H3S21459   4.020   3.983   2.495 -0.0782  1.8023 -0.7203
  187POPC   C2421460   3.902   3.822   2.591 -0.1313 -0.2225  0.0802
  187POPC   H4R21461   3.981   3.757   2.547 -0.0750  0.9225 -1.6337
  187POPC   H4S21462   3.805   3.775   2.565 -0.0743  0.0530 -0.6647
  187POPC   C2521463   3.922   3.817   2.745  0.0453  0.1408 -0.7747
  187POPC   H5R21464   4.016   3.868   2.774  0.9879 -1.3833 -1.0513
  187POPC   H5S21465   3.924   3.710   2.773  0.1182  0.7593  1.8358
  187POPC   C2621466   3.807   3.874   2.819 -0.2511  0.2878 -0.3124
  187POPC   H6R21467   3.721   3.804   2.818  1.2076 -1.6897  1.6961
  187POPC   H6S21468   3.775   3.969   2.772 -1.4640 -1.5317 -3.4930
  187POPC   C2721469   3.839   3.897   2.975 -0.1951 -0.2542  0.1407
  187POPC   H7R21470   3.922   3.971   2.983  1.8219 -2.5680  2.1161
  187POPC   H7S21471   3.876   3.798   3.010 -0.2982  0.2584  1.8124
  187POPC   C2821472   3.719   3.942   3.060  0.0722  1.0239  0.5249
  187POPC   H8R21473   3.662   4.025   3.013 -0.9210  2.0292  3.2976
  187POPC   H8S21474   3.751   3.984   3.158 -1.8918  1.9619  0.8218
  187POPC   C2921475   3.625   3.831   3.093  0.2997  0.2788  0.0314
  187POPC   H9121476   3.592   3.762   3.014 -1.9653 -0.1367  1.2497
  187POPC  C21021477   3.586   3.796   3.215  0.3425  0.2038  0.4407
  187POPC  H10121478   3.507   3.720   3.210  0.4804  0.1170 -2.9902
  187POPC  C21121479   3.614   3.868   3.346  0.2498  0.1728  0.1437
  187POPC  H11R21480   3.628   3.978   3.340 -0.5806  0.3914  1.6046
  187POPC  H11S21481   3.712   3.832   3.385  0.7648 -0.4113 -1.5993
  187POPC  C21221482   3.522   3.839   3.458  0.2213  0.0131 -0.6404
  187POPC  H12R21483   3.419   3.864   3.423 -0.1519 -0.4539  0.0916
  187POPC  H12S21484   3.547   3.903   3.546 -3.6040  0.4268  0.3292
  187POPC  C21321485   3.518   3.690   3.504  0.8961  0.3943  0.2201
  187POPC  H13R21486   3.618   3.670   3.549  2.1233  1.9995 -1.6003
  187POPC  H13S21487   3.506   3.621   3.417 -1.1029  1.3742 -0.3346
  187POPC  C21421488   3.412   3.640   3.598 -0.2248  0.2382 -0.6875
  187POPC  H14R21489   3.399   3.531   3.610  2.0158 -0.1665 -1.5519
  187POPC  H14S21490   3.313   3.677   3.564 -0.0402  2.1701  0.6498
  187POPC  C21521491   3.438   3.696   3.737  0.7354  0.6430  0.5514
  187POPC  H15R21492   3.433   3.806   3.723  2.0649  0.4748 -1.7950
  187POPC  H15S21493   3.533   3.659   3.783 -0.7739  0.4921  3.8471
  187POPC  C21621494   3.317   3.657   3.828  0.0634  0.2979 -0.4394
  187POPC  H16R21495   3.323   3.547   3.841  0.0151  0.4059  0.5666
  187POPC  H16S21496   3.224   3.660   3.766 -0.7222 -0.1099  0.7008
  187POPC  C21721497   3.283   3.733   3.960  0.6770  0.2956 -0.0882
  187POPC  H17R21498   3.207   3.676   4.018  0.4805  1.7862  1.1686
  187POPC  H17S21499   3.244   3.836   3.948  0.6887  0.4797  1.2495
  187POPC  C21821500   3.400   3.739   4.060 -0.4295  0.3645 -0.9478
  187POPC  H18R21501   3.429   3.635   4.087 -0.0631  0.5309 -0.7031
  187POPC  H18S21502   3.359   3.791   4.149  0.4641  0.5924 -0.6662
  187POPC  H18T21503   3.495   3.789   4.033  0.5979 -1.7610 -1.4256
  187POPC   C3321504   4.421   3.655   2.642 -0.1359  0.2880 -0.2463
  187POPC   H3X21505   4.440   3.762   2.619  1.5143  0.3721  1.2380
  187POPC   H3Y21506   4.519   3.603   2.635 -0.8393 -1.2580  0.7184
  187POPC   C3421507   4.372   3.632   2.789  0.4647 -0.2845  0.7023
  187POPC   H4X21508   4.418   3.543   2.838  0.1398 -0.1413  1.2782
  187POPC   H4Y21509   4.264   3.604   2.789 -0.0216  1.2636  2.9923
  187POPC   C3521510   4.391   3.760   2.881  0.4124 -0.1063 -0.1177
  187POPC   H5X21511   4.324   3.839   2.842  1.2991 -0.2238 -1.9913
  187POPC   H5Y21512   4.498   3.790   2.877 -0.0084  1.4326 -0.3210
  187POPC   C3621513   4.336   3.731   3.027 -0.2688 -0.1363 -0.1401
  187POPC   H6X21514   4.376   3.801   3.104  0.3607 -2.1780  1.4790
  187POPC   H6Y21515   4.377   3.638   3.070 -0.6933 -0.1149  0.3164
  187POPC   C3721516   4.183   3.738   3.031  0.0492  0.4544  0.6127
  187POPC   H7X21517   4.142   3.665   2.957 -0.5769  1.2689  0.1347
  187POPC   H7Y21518   4.149   3.839   3.000 -3.1797 -1.1491 -1.6413
  187POPC   C3821519   4.125   3.707   3.163  0.3883  1.3510  0.3857
  187POPC   H8X21520   4.189   3.621   3.191 -2.1226 -0.6663  0.2692
  187POPC   H8Y21521   4.019   3.680   3.176  0.5907  0.0781 -0.4386
  187POPC   C3921522   4.141   3.823   3.255  0.5755  0.1338 -0.0708
  187POPC   H9X21523   4.074   3.906   3.222  3.9786  2.5575 -1.4719
  187POPC   H9Y21524   4.242   3.867   3.265  0.1476  1.0854  0.1629
  187POPC  C31021525   4.105   3.782   3.404 -1.5738  0.1671  0.4802
  187POPC  H10X21526   4.012   3.722   3.397 -0.3915 -1.6052 -1.0775
  187POPC  H10Y21527   4.102   3.881   3.454  1.5345  0.9911 -0.7676
  187POPC  C31121528   4.218   3.689   3.461  0.6252 -0.2653 -0.1771
  187POPC  H11X21529   4.320   3.725   3.434  0.9890  1.4537  2.9756
  187POPC  H11Y21530   4.202   3.589   3.415 -0.1914 -0.3163  0.1894
  187POPC  C31221531   4.208   3.668   3.612  0.2726 -0.6335 -0.4776
  187POPC  H12X21532   4.121   3.602   3.633 -0.6139 -0.1138 -2.3120
  187POPC  H12Y21533   4.200   3.768   3.660 -0.5898 -0.3285 -1.2430
  187POPC  C31321534   4.343   3.596   3.666  0.6642 -0.4761 -0.0177
  187POPC  H13X21535   4.437   3.653   3.659  2.0669 -2.8173 -2.0755
  187POPC  H13Y21536   4.356   3.498   3.614 -0.9433  1.1362 -3.7713
  187POPC  C31421537   4.337   3.564   3.815  1.0458  0.3274 -0.5533
  187POPC  H14X21538   4.257   3.500   3.856  2.0993 -0.7203 -0.0806
  187POPC  H14Y21539   4.337   3.660   3.870  3.4664  0.6687 -1.0458
  187POPC  C31521540   4.461   3.484   3.858 -0.4004 -0.2214  0.0848
  187POPC  H15X21541   4.455   3.389   3.802  1.6292 -0.1058 -0.4203
  187POPC  H15Y21542   4.454   3.465   3.967  0.7317 -0.0236  0.2056
  187POPC  C31621543   4.589   3.567   3.833  0.2696  0.6343 -0.2331
  187POPC  H16X21544   4.570   3.674   3.854  1.1086  0.7666 -0.1024
  187POPC  H16Y21545   4.609   3.557   3.724  0.1708  1.6899 -0.3527
  187POPC  H16Z21546   4.682   3.539   3.889  0.2798  2.1389  0.5521
  188POPC     N21547   4.131   2.860   1.470 -0.4427 -0.0819 -0.2851
  188POPC   C1221548   4.229   2.896   1.579 -0.6730 -0.8237 -0.2611
  188POPC  H12A21549   4.295   2.969   1.534 -2.1686  4.0837  4.3217
  188POPC  H12B21550   4.287   2.811   1.610  0.6801  0.5655  1.2413
  188POPC   C1321551   4.209   2.799   1.360 -0.0787  0.7352  0.5647
  188POPC  H13A21552   4.281   2.869   1.321  0.8842 -0.7316 -0.4398
  188POPC  H13B21553   4.275   2.725   1.402 -0.0390  0.0686 -0.6104
  188POPC  H13C21554   4.150   2.740   1.291  0.1012  0.2572  0.8150
  188POPC   C1421555   4.034   2.766   1.523  0.7371  0.2568 -0.0642
  188POPC  H14A21556   4.076   2.680   1.575  1.5648  0.6841 -0.0024
  188POPC  H14B21557   3.975   2.813   1.600  0.7377  0.1666 -0.0082
  188POPC  H14C21558   3.966   2.727   1.449 -0.4072  0.0364  1.0710
  188POPC   C1521559   4.060   2.983   1.412 -0.1611  0.4683 -0.2855
  188POPC  H15A21560   4.001   3.020   1.495 -1.6671 -1.4660 -0.4309
  188POPC  H15B21561   3.993   2.955   1.333 -2.2375 -1.8043  2.0966
  188POPC  H15C21562   4.129   3.058   1.376 -0.3070  0.6380 -0.2088
  188POPC   C1121563   4.180   2.955   1.715 -0.3099  0.5931  0.0439
  188POPC  H11A21564   4.265   2.968   1.785 -0.2513  1.4299 -0.1790
  188POPC  H11B21565   4.108   2.879   1.753  2.4062 -2.5148 -0.4974
  188POPC     P21566   4.232   3.202   1.680 -0.2223 -0.2278 -0.3353
  188POPC   O1321567   4.165   3.327   1.646  0.3793  0.2120  0.3638
  188POPC   O1421568   4.346   3.165   1.590 -0.0933 -0.1558 -0.6546
  188POPC   O1221569   4.118   3.082   1.694  0.1237  0.3687 -0.2372
  188POPC   O1121570   4.302   3.226   1.821 -0.4813  0.3272 -0.0214
  188POPC    C121571   4.231   3.202   1.938  0.1845  0.0609 -0.0052
  188POPC    HA21572   4.228   3.097   1.976 -0.0875  0.1439  0.2091
  188POPC    HB21573   4.125   3.236   1.927 -0.0657  0.1624  2.2371
  188POPC    C221574   4.281   3.290   2.056 -0.6095  0.5095 -0.0293
  188POPC    HS21575   4.295   3.395   2.023 -2.4537  0.9988  0.5920
  188POPC   O2121576   4.409   3.238   2.094  0.8914  0.4667  0.1455
  188POPC   C2121577   4.479   3.308   2.172  0.2979  0.0321 -0.0844
  188POPC   O2221578   4.453   3.422   2.215  0.4190 -0.1637  0.3430
  188POPC   C2221579   4.605   3.238   2.222  0.3338  0.2315  0.1729
  188POPC   H2R21580   4.671   3.302   2.284 -0.3651 -0.6629  1.9168
  188POPC   H2S21581   4.662   3.216   2.129  0.4534 -0.5045  0.4135
  188POPC    C321582   4.171   3.285   2.164  0.1808 -0.3697  0.2220
  188POPC    HX21583   4.078   3.335   2.130 -1.2810 -0.7410  3.3428
  188POPC    HY21584   4.208   3.342   2.252  1.2912 -2.2110  0.9951
  188POPC   O3121585   4.145   3.147   2.192 -0.1699  0.0085 -0.0080
  188POPC   C3121586   4.054   3.143   2.292  0.5882 -0.3806 -0.1218
  188POPC   O3221587   4.018   3.244   2.353 -0.1177  0.2210 -0.0406
  188POPC   C3221588   4.013   2.995   2.322  0.3464 -0.6499 -0.1572
  188POPC   H2X21589   4.101   2.933   2.296  0.6854 -0.4174  0.4375
  188POPC   H2Y21590   3.929   2.968   2.255 -0.0970 -0.4883  0.3254
  188POPC   C2321591   4.585   3.103   2.298 -0.0819  0.8729  0.4666
  188POPC   H3R21592   4.687   3.062   2.317 -0.9014 -1.0761  0.9076
  188POPC   H3S21593   4.521   3.044   2.229  0.3165  0.6313  0.2961
  188POPC   C2421594   4.519   3.112   2.441 -0.1251 -0.9471  0.0453
  188POPC   H4R21595   4.595   3.160   2.507 -1.2946  0.2848  0.5336
  188POPC   H4S21596   4.499   3.005   2.462 -1.9300 -0.4531  1.1303
  188POPC   C2521597   4.379   3.180   2.439  0.0827  0.1129 -1.4241
  188POPC   H5R21598   4.309   3.121   2.376 -1.1487  0.2482 -0.2222
  188POPC   H5S21599   4.393   3.283   2.398  3.4391  1.1295  1.7231
  188POPC   C2621600   4.310   3.179   2.576 -0.2286  0.2641  0.6456
  188POPC   H6R21601   4.300   3.072   2.604  1.5416 -0.1538 -0.1963
  188POPC   H6S21602   4.205   3.215   2.584  0.6852  3.1368  0.9116
  188POPC   C2721603   4.383   3.254   2.689 -0.1497  0.8169 -0.4909
  188POPC   H7R21604   4.400   3.359   2.660  0.5913  1.1686  1.1391
  188POPC   H7S21605   4.480   3.205   2.712 -0.9224  0.1448  1.6034
  188POPC   C2821606   4.298   3.264   2.820 -1.1328 -0.3900  0.7583
  188POPC   H8R21607   4.214   3.329   2.788 -0.9604  1.6455  4.0028
  188POPC   H8S21608   4.367   3.323   2.883  2.3109 -1.9872 -1.2021
  188POPC   C2921609   4.247   3.139   2.883 -0.2199 -0.1009 -0.3676
  188POPC   H9121610   4.328   3.068   2.907  0.6260  0.6134 -1.0119
  188POPC  C21021611   4.123   3.113   2.910  0.3222  0.0834 -0.3042
  188POPC  H10121612   4.107   3.014   2.955  0.9338 -0.3293 -0.9627
  188POPC  C21121613   4.006   3.204   2.897 -0.6300 -0.3499  0.4586
  188POPC  H11R21614   3.916   3.139   2.895 -2.5842  2.1296 -2.1850
  188POPC  H11S21615   4.018   3.258   2.800  0.2325 -1.0868  0.1471
  188POPC  C21221616   3.987   3.306   3.009  0.5748  0.0654  0.6219
  188POPC  H12R21617   3.910   3.379   2.976  1.2741  1.1075  1.2526
  188POPC  H12S21618   4.076   3.369   3.028  1.3154 -0.5465 -0.7374
  188POPC  C21321619   3.923   3.258   3.145 -0.2793  0.3591 -0.1527
  188POPC  H13R21620   3.975   3.167   3.183 -0.4833  0.3538  0.1151
  188POPC  H13S21621   3.817   3.227   3.132 -0.7168  1.2098  1.1617
  188POPC  C21421622   3.913   3.364   3.255 -0.2668 -0.1865 -0.0617
  188POPC  H14R21623   3.864   3.455   3.214 -0.2079  2.0119  4.2013
  188POPC  H14S21624   4.018   3.391   3.279 -0.5689 -0.0341  1.1283
  188POPC  C21521625   3.832   3.329   3.372  0.8639  0.0105  0.3676
  188POPC  H15R21626   3.746   3.264   3.345  0.7047  0.3360  0.0675
  188POPC  H15S21627   3.789   3.421   3.418 -1.6901 -1.4895  1.1754
  188POPC  C21621628   3.907   3.248   3.484 -0.5831 -0.2568  0.2404
  188POPC  H16R21629   4.002   3.203   3.448  1.3330  1.6795  2.5840
  188POPC  H16S21630   3.826   3.176   3.509  0.8536 -2.1249 -0.2348
  188POPC  C21721631   3.944   3.347   3.594  0.0211  0.5626  0.0547
  188POPC  H17R21632   3.853   3.394   3.638  0.0531  0.9085 -0.2495
  188POPC  H17S21633   4.007   3.432   3.560 -1.5476  1.6559 -0.2319
  188POPC  C21821634   4.023   3.269   3.694  0.4692  0.1830 -0.1870
  188POPC  H18R21635   4.119   3.232   3.650  0.0915  0.0804 -0.9473
  188POPC  H18S21636   3.964   3.182   3.730 -1.2355  0.8637 -1.2234
  188POPC  H18T21637   4.055   3.334   3.778 -0.2196  1.6956 -1.0535
  188POPC   C3321638   3.985   2.963   2.469  0.3175  0.4268 -0.3606
  188POPC   H3X21639   4.077   2.981   2.529  0.6004 -1.0386 -0.3330
  188POPC   H3Y21640   3.966   2.854   2.477 -1.0233  0.6288 -0.4562
  188POPC   C3421641   3.869   3.039   2.528  0.1137 -0.4726 -0.6414
  188POPC   H4X21642   3.776   3.018   2.472  0.1051 -0.2115 -0.7243
  188POPC   H4Y21643   3.898   3.146   2.537  1.2417 -0.7465 -0.8055
  188POPC   C3521644   3.838   2.993   2.669  0.4271 -0.0323 -0.5766
  188POPC   H5X21645   3.764   3.064   2.713 -0.1548 -2.0988  2.0892
  188POPC   H5Y21646   3.933   2.981   2.725  0.1214 -0.9571 -0.2364
  188POPC   C3621647   3.766   2.854   2.685 -1.0175  0.1277 -0.0658
  188POPC   H6X21648   3.832   2.770   2.653  2.4273  3.1712 -1.6576
  188POPC   H6Y21649   3.691   2.849   2.603 -0.2365  0.5102 -0.8117
  188POPC   C3721650   3.712   2.814   2.828 -0.1875 -0.4658 -0.1145
  188POPC   H7X21651   3.672   2.711   2.819 -0.8153 -0.5239  2.5014
  188POPC   H7Y21652   3.624   2.881   2.843 -0.1175 -0.1280 -1.1334
  188POPC   C3821653   3.808   2.838   2.949 -0.4229  0.1174  0.5651
  188POPC   H8X21654   3.881   2.920   2.934  0.3840 -0.3473  1.7822
  188POPC   H8Y21655   3.885   2.758   2.945 -1.6810 -1.2028  1.3703
  188POPC   C3921656   3.722   2.857   3.074 -0.4794 -0.4739 -0.5883
  188POPC   H9X21657   3.658   2.767   3.090 -0.6685 -0.4098 -0.9797
  188POPC   H9Y21658   3.658   2.947   3.060 -0.3241 -0.1355  0.6910
  188POPC  C31021659   3.813   2.854   3.194 -0.6050 -0.3112  0.2397
  188POPC  H10X21660   3.886   2.937   3.194 -0.8396 -0.0854 -0.8317
  188POPC  H10Y21661   3.862   2.755   3.185 -0.2345 -0.1533  0.5203
  188POPC  C31121662   3.742   2.867   3.323  0.0262 -0.5683 -0.3429
  188POPC  H11X21663   3.638   2.826   3.325  0.5257 -1.8645 -0.0705
  188POPC  H11Y21664   3.713   2.973   3.340  0.0689 -0.3327 -1.6392
  188POPC  C31221665   3.811   2.808   3.446  0.0794 -1.3051  0.2788
  188POPC  H12X21666   3.917   2.841   3.445 -0.0808 -0.7690 -0.5416
  188POPC  H12Y21667   3.801   2.698   3.435 -0.5962 -1.2945  0.7288
  188POPC  C31321668   3.745   2.837   3.588  1.3550  0.1768  0.0667
  188POPC  H13X21669   3.640   2.805   3.606  1.8061 -1.0176  0.6618
  188POPC  H13Y21670   3.745   2.944   3.616  1.4769  0.5575 -1.2833
  188POPC  C31421671   3.804   2.765   3.705 -0.6547  0.0195 -0.4450
  188POPC  H14X21672   3.782   2.657   3.691 -1.4565  0.0076  0.7685
  188POPC  H14Y21673   3.757   2.781   3.804  0.5971 -2.9360  0.7527
  188POPC  C31521674   3.954   2.775   3.722  0.0923 -0.0315  0.3834
  188POPC  H15X21675   3.995   2.871   3.759  0.8530 -1.1091  2.5413
  188POPC  H15Y21676   3.991   2.736   3.625 -0.5887 -1.3031  0.6077
  188POPC  C31621677   3.990   2.665   3.824 -0.1545  0.0181 -0.2655
  188POPC  H16X21678   3.956   2.565   3.791 -0.3610 -0.9049  2.4746
  188POPC  H16Y21679   3.957   2.687   3.928 -1.9706  0.2798 -0.8735
  188POPC  H16Z21680   4.101   2.655   3.820  0.0091  1.2551  0.4660
  189SAPI   C1221681   6.373   1.870   5.897  0.4802  0.1302  0.1822
  189SAPI    H221682   6.325   1.946   5.963 -0.7110  1.4233 -2.0756
  189SAPI    O221683   6.484   1.933   5.828  0.3704 -0.4338 -0.4798
  189SAPI   HO221684   6.452   2.008   5.778 -1.1845 -2.3021 -2.4905
  189SAPI   C1321685   6.430   1.759   5.993  0.4910 -0.7487 -0.1079
  189SAPI    H321686   6.338   1.707   6.028 -1.3939  2.1559 -0.3768
  189SAPI    O321687   6.502   1.816   6.094 -1.1492  0.0154  0.1562
  189SAPI   HO321688   6.552   1.884   6.048  0.6023 -1.8879 -0.8805
  189SAPI   C1421689   6.504   1.655   5.914 -0.0634 -0.1537 -0.1538
  189SAPI    H421690   6.592   1.711   5.875  1.1984 -0.0169  2.5758
  189SAPI    O421691   6.559   1.558   6.010  0.2214 -0.3578 -0.0909
  189SAPI   HO421692   6.636   1.584   6.060 -0.3459 -0.8656  1.0863
  189SAPI   C1521693   6.435   1.591   5.802  1.1672  0.0478  0.3971
  189SAPI    H521694   6.359   1.523   5.847  0.0733  1.0864  0.1727
  189SAPI    O521695   6.525   1.517   5.717 -0.1436  0.0902 -0.2650
  189SAPI   HO521696   6.477   1.491   5.637  1.2963 -0.6927 -0.9013
  189SAPI   C1621697   6.354   1.689   5.717  0.6050  0.3065  0.0331
  189SAPI    H621698   6.422   1.739   5.645  0.5328 -1.8668 -1.6558
  189SAPI    O621699   6.257   1.625   5.634 -0.3596 -0.2306  0.3799
  189SAPI   HO621700   6.214   1.688   5.576 -0.5074 -1.0075 -0.3824
  189SAPI   C1121701   6.281   1.804   5.790 -0.6640 -0.9684  0.0801
  189SAPI    H121702   6.193   1.757   5.839 -0.7041 -1.2256 -0.2295
  189SAPI     P21703   6.161   2.035   5.716 -0.0090  0.3894 -0.4048
  189SAPI   O1321704   6.255   2.142   5.727 -0.2429 -0.1616  0.0861
  189SAPI   O1421705   6.063   2.012   5.831  0.0628  0.3553 -0.7901
  189SAPI   O1221706   6.239   1.897   5.683  0.4859  0.2221  0.0343
  189SAPI   O1121707   6.075   2.059   5.586 -0.5453 -0.4944 -0.4871
  189SAPI    C121708   6.128   2.115   5.465  0.4439 -0.8233 -0.5007
  189SAPI    HA21709   6.053   2.179   5.413  4.9247  3.7166 -2.2308
  189SAPI    HB21710   6.206   2.193   5.481 -2.2328  1.9379 -0.0491
  189SAPI    C221711   6.173   2.021   5.353 -0.0487  0.3172 -1.0888
  189SAPI    HS21712   6.097   1.939   5.353  0.2960 -0.0277  0.0653
  189SAPI   O2121713   6.305   1.967   5.398  0.6928  0.3103  1.1127
  189SAPI   C2121714   6.328   1.841   5.361  0.2738  0.1844  0.4963
  189SAPI   O2221715   6.240   1.766   5.327  0.1788 -0.1698 -0.5672
  189SAPI   C2221716   6.473   1.807   5.372  0.4189  0.3679 -0.3465
  189SAPI   H2R21717   6.514   1.882   5.443  2.2626 -0.4503 -0.5089
  189SAPI   H2S21718   6.475   1.705   5.416 -1.8495  0.2609 -0.3255
  189SAPI    C321719   6.172   2.076   5.215 -0.4127 -0.3612  0.4068
  189SAPI    HX21720   6.232   2.170   5.218 -2.3192  0.8686  1.1353
  189SAPI    HY21721   6.068   2.113   5.201 -1.6900 -3.0379  2.0867
  189SAPI   O3121722   6.220   1.983   5.113  0.2262 -0.4945 -0.4811
  189SAPI   C3121723   6.123   1.894   5.080 -0.4727  0.6137 -0.0244
  189SAPI   O3221724   6.007   1.901   5.111  0.5234  0.0808  0.3491
  189SAPI   C3221725   6.192   1.785   5.008 -0.1564 -0.1715  0.3459
  189SAPI   H2X21726   6.153   1.690   5.052  0.7149 -0.5332  0.3567
  189SAPI   H2Y21727   6.295   1.784   5.049 -0.2318 -1.4133  0.5529
  189SAPI   C2321728   6.562   1.797   5.245 -0.1377 -1.2052  0.4791
  189SAPI   H3R21729   6.620   1.892   5.237  0.2408 -1.5548 -1.4011
  189SAPI   H3S21730   6.499   1.791   5.154 -0.3717 -0.3510  0.5783
  189SAPI   C2421731   6.658   1.670   5.259  0.1718 -0.2830 -0.3102
  189SAPI   H4R21732   6.701   1.686   5.360  1.2445 -1.0392 -0.6368
  189SAPI   H4S21733   6.740   1.673   5.185 -0.2830 -2.4906 -0.9728
  189SAPI   C2521734   6.590   1.537   5.238  0.4519 -0.0228  0.1326
  189SAPI   H5R21735   6.522   1.501   5.316 -0.0186  0.4075 -0.0762
  189SAPI   C2621736   6.587   1.464   5.128 -0.3536 -0.8513 -0.0504
  189SAPI   H6R21737   6.524   1.373   5.122 -0.3029 -0.8136 -1.7208
  189SAPI   C2721738   6.668   1.481   4.996 -0.2161  0.1944 -0.1183
  189SAPI   H7R21739   6.658   1.388   4.937  1.9631  0.9372 -1.7856
  189SAPI   H7S21740   6.777   1.491   5.015 -0.1525  0.4820 -0.5908
  189SAPI   C2821741   6.620   1.588   4.896 -1.0835 -0.2162  0.0025
  189SAPI   H8R21742   6.572   1.673   4.946  0.9628  0.9473  0.1043
  189SAPI   C2921743   6.652   1.614   4.769 -0.0908  0.4535  0.0908
  189SAPI   H9R21744   6.597   1.700   4.728  0.3576  2.1966  2.8615
  189SAPI  C21021745   6.719   1.523   4.673  0.1784  0.1937 -0.1725
  189SAPI  H10R21746   6.730   1.421   4.716  0.1398 -0.1915 -1.0518
  189SAPI  H10S21747   6.827   1.545   4.660  0.3118 -0.2882  0.0787
  189SAPI  C21121748   6.638   1.505   4.542  0.0812  0.3248 -0.7806
  189SAPI  H11R21749   6.531   1.488   4.559  0.4093  0.4671  1.7855
  189SAPI  C21221750   6.680   1.492   4.418 -0.6039  0.8945  0.8336
  189SAPI  H12R21751   6.607   1.475   4.337  0.7115 -0.6217 -0.0816
  189SAPI  C21321752   6.824   1.525   4.365  0.2159  0.4670  0.0912
  189SAPI  H13R21753   6.903   1.484   4.431  1.1996 -1.4413 -2.1223
  189SAPI  H13S21754   6.832   1.636   4.359 -0.8545  0.5822  0.4606
  189SAPI  C21421755   6.842   1.463   4.230  0.0768  0.3853  0.2450
  189SAPI  H14R21756   6.801   1.361   4.221 -0.2239  0.5672 -0.4905
  189SAPI  C21521757   6.924   1.512   4.131  0.0211  0.2319  0.1159
  189SAPI  H15R21758   6.925   1.460   4.034 -1.2062  0.5418 -0.0897
  189SAPI  C21621759   7.015   1.628   4.144 -1.0656 -0.4585 -0.4226
  189SAPI  H16R21760   7.006   1.682   4.241 -0.4208 -1.2324  0.0827
  189SAPI  H16S21761   6.996   1.697   4.059 -1.3722  0.6135  0.4892
  189SAPI  C21721762   7.166   1.581   4.139  0.6471  0.1284 -0.4599
  189SAPI  H17R21763   7.184   1.522   4.047  0.5324 -1.7455  0.6648
  189SAPI  H17S21764   7.200   1.527   4.230 -2.7660 -2.3267 -0.4312
  189SAPI  C21821765   7.257   1.708   4.130 -0.0495  0.3058 -0.1883
  189SAPI  H18R21766   7.270   1.757   4.229  2.7582 -2.8294  1.1762
  189SAPI  H18S21767   7.205   1.778   4.061 -0.1552  1.0615  0.6374
  189SAPI  C21921768   7.396   1.685   4.079  0.0975  0.3165 -0.2588
  189SAPI  H19R21769   7.463   1.773   4.083  1.0445 -0.3835 -0.2752
  189SAPI  H19S21770   7.382   1.660   3.972  0.0972  2.3533 -0.7711
  189SAPI  C22021771   7.477   1.572   4.147 -0.6437  0.5937  0.5386
  189SAPI  H20R21772   7.413   1.491   4.188  1.3969 -0.5410  1.6057
  189SAPI  H20S21773   7.534   1.615   4.232  0.4246  0.6620 -0.1895
  189SAPI  H20T21774   7.552   1.526   4.079 -1.2424 -1.3900  1.1577
  189SAPI   C3321775   6.174   1.809   4.852 -0.9451  0.2717  0.3538
  189SAPI   H3X21776   6.200   1.909   4.810  0.4646  0.1886  0.9980
  189SAPI   H3Y21777   6.065   1.797   4.833 -1.0888 -0.0287  1.2995
  189SAPI   C3421778   6.257   1.698   4.781  0.4715  0.9912  0.0689
  189SAPI   H4X21779   6.242   1.619   4.858  2.3947  0.0942 -0.4105
  189SAPI   H4Y21780   6.364   1.725   4.770  0.7346  0.1917  0.5606
  189SAPI   C3521781   6.199   1.656   4.647  0.5746  0.0749 -0.1292
  189SAPI   H5X21782   6.088   1.654   4.645  0.5544 -1.9298  0.2356
  189SAPI   H5Y21783   6.234   1.554   4.619 -1.1299 -0.4532 -0.4776
  189SAPI   C3621784   6.260   1.746   4.531 -0.1591  0.0930 -0.0803
  189SAPI   H6X21785   6.371   1.733   4.530 -0.4105 -2.7378  0.3175
  189SAPI   H6Y21786   6.224   1.850   4.548 -1.6768 -0.1233 -1.6545
  189SAPI   C3721787   6.201   1.698   4.393  0.3930 -0.8561  0.2333
  189SAPI   H7X21788   6.090   1.699   4.400  0.3873 -2.5770  1.0326
  189SAPI   H7Y21789   6.237   1.598   4.362  1.1637 -0.5748  0.2001
  189SAPI   C3821790   6.231   1.797   4.279  0.0713  0.2498 -0.6752
  189SAPI   H8X21791   6.209   1.896   4.323 -0.8148 -1.1022  2.1569
  189SAPI   H8Y21792   6.157   1.778   4.198 -0.2330 -1.2833 -0.0775
  189SAPI   C3921793   6.375   1.790   4.225  0.5757 -0.2570  0.2077
  189SAPI   H9X21794   6.409   1.698   4.173  0.1059  0.4915 -1.4972
  189SAPI   H9Y21795   6.447   1.813   4.307  0.5974 -2.6128  0.9126
  189SAPI  C31021796   6.390   1.897   4.122  0.9417 -0.3411 -0.5853
  189SAPI  H10X21797   6.349   1.997   4.148 -0.9949 -1.4961  1.0273
  189SAPI  H10Y21798   6.331   1.868   4.033 -0.8680  2.8206 -0.5559
  189SAPI  C31121799   6.536   1.906   4.065  0.1152  0.0237  0.4614
  189SAPI  H11X21800   6.571   1.820   4.005  0.8386  1.2969 -1.0151
  189SAPI  H11Y21801   6.615   1.912   4.144 -0.7379 -1.2233  1.4509
  189SAPI  C31221802   6.559   2.039   3.979 -0.1275 -0.8065  0.0413
  189SAPI  H12X21803   6.552   2.127   4.046 -0.4087  0.1758 -1.2465
  189SAPI  H12Y21804   6.471   2.050   3.912 -0.4900 -0.7384  0.5176
  189SAPI  C31321805   6.674   2.030   3.890 -0.0706 -0.1497  0.8902
  189SAPI  H13X21806   6.763   2.033   3.957  0.3986  1.5245  0.2332
  189SAPI  H13Y21807   6.682   2.126   3.834 -0.2394  0.6456  2.1804
  189SAPI  C31421808   6.666   1.919   3.783 -0.0738 -0.9199 -0.5812
  189SAPI  H14X21809   6.570   1.946   3.735 -1.3697 -1.0729  1.8128
  189SAPI  H14Y21810   6.651   1.816   3.821 -0.8547 -0.3434  0.7488
  189SAPI  C31521811   6.768   1.932   3.675 -0.1930  0.8077  0.2327
  189SAPI  H15X21812   6.774   2.036   3.636 -1.3236  0.4529 -0.9465
  189SAPI  H15Y21813   6.726   1.874   3.590 -0.5209 -1.3657  1.7827
  189SAPI  C31621814   6.908   1.882   3.710 -0.0598  0.9465  0.6808
  189SAPI  H16X21815   6.910   1.773   3.728  0.9015  0.2833 -2.6462
  189SAPI  H16Y21816   6.934   1.936   3.803 -4.1277  1.1360  1.8931
  189SAPI  C31721817   7.009   1.915   3.598 -0.3399 -0.4532  0.8520
  189SAPI  H17X21818   7.035   2.022   3.578 -0.6573 -0.5372 -0.0337
  189SAPI  H17Y21819   6.964   1.867   3.509 -0.2964  0.5046  0.3008
  189SAPI  C31821820   7.146   1.847   3.619  0.3193  0.4003  0.2506
  189SAPI  H18X21821   7.218   1.894   3.549 -0.7833  0.3703 -0.9555
  189SAPI  H18Y21822   7.136   1.738   3.602 -0.2235  0.6661 -1.4095
  189SAPI  H18Z21823   7.175   1.859   3.725  2.5657 -0.4508 -0.2297
  190SAPI   C1221824   0.548   3.918   6.537  0.0220 -0.1338 -0.2597
  190SAPI    H221825   0.494   3.824   6.557  1.3896 -1.0710 -0.8003
  190SAPI    O221826   0.455   4.025   6.531  0.4076 -0.1720  0.8701
  190SAPI   HO221827   0.387   4.001   6.596  0.2303  0.3883  0.8955
  190SAPI   C1321828   0.641   3.936   6.651 -0.4551 -0.5017 -0.4594
  190SAPI    H321829   0.716   3.855   6.642 -2.4549 -2.4466 -0.2207
  190SAPI    O321830   0.574   3.928   6.772  0.1989  0.7946  0.2668
  190SAPI   HO321831   0.624   3.863   6.821  1.2138  2.2945  1.3067
  190SAPI   C1421832   0.706   4.069   6.644  0.1907 -0.7259  0.3233
  190SAPI    H421833   0.633   4.149   6.670  1.1048 -0.1011  1.0634
  190SAPI    O421834   0.798   4.092   6.753 -0.0365  0.2091 -0.2921
  190SAPI   HO421835   0.744   4.074   6.830  0.1522 -1.1270 -0.4606
  190SAPI   C1521836   0.765   4.103   6.511 -0.0043  0.6544 -0.0416
  190SAPI    H521837   0.867   4.060   6.520  0.8122  2.6939  1.1540
  190SAPI    O521838   0.791   4.244   6.498  0.1544  0.3529 -0.4672
  190SAPI   HO521839   0.883   4.262   6.516  0.3977 -0.5146 -0.8117
  190SAPI   C1621840   0.707   4.041   6.389 -0.3106 -0.1890 -0.6580
  190SAPI    H621841   0.629   4.110   6.350 -0.8345  0.4125  1.3358
  190SAPI    O621842   0.790   4.033   6.275 -0.0286 -0.1531 -0.2418
  190SAPI   HO621843   0.818   3.941   6.272 -0.8537 -0.4008 -0.8813
  190SAPI   C1121844   0.629   3.911   6.412 -0.4362 -0.0936  0.5049
  190SAPI    H121845   0.708   3.833   6.421  1.0809  1.1295 -1.3872
  190SAPI     P21846   0.522   3.715   6.260 -0.1605 -0.2980 -0.4356
  190SAPI   O1321847   0.380   3.688   6.227  0.9461  0.2685 -0.5244
  190SAPI   O1421848   0.573   3.630   6.364  0.2476  0.7065  0.4776
  190SAPI   O1221849   0.544   3.878   6.303  0.5141 -0.3606 -0.1114
  190SAPI   O1121850   0.613   3.694   6.130  0.4797 -0.6269  0.0470
  190SAPI    C121851   0.617   3.800   6.034 -0.4744  0.6163 -0.2023
  190SAPI    HA21852   0.514   3.806   5.993 -1.2018  0.4943  1.5408
  190SAPI    HB21853   0.662   3.895   6.070 -1.5102  1.4778 -1.1232
  190SAPI    C221854   0.712   3.764   5.907  0.1906  0.4737  0.2354
  190SAPI    HS21855   0.726   3.854   5.844 -2.5712  0.2785 -0.7913
  190SAPI   O2121856   0.648   3.661   5.820  0.1871 -0.8401 -0.6073
  190SAPI   C2121857   0.550   3.710   5.743  0.4012  0.4325 -0.9109
  190SAPI   O2221858   0.513   3.824   5.731 -0.1483 -0.2234 -0.3461
  190SAPI   C2221859   0.487   3.584   5.672  0.3071  0.6199 -0.7128
  190SAPI   H2R21860   0.573   3.527   5.629  0.0002 -0.0811 -0.4029
  190SAPI   H2S21861   0.432   3.528   5.750  0.7958  2.3456  0.9475
  190SAPI    C321862   0.847   3.708   5.957  0.8295 -0.1674 -0.0847
  190SAPI    HX21863   0.820   3.632   6.034  0.9496 -2.8383 -2.4982
  190SAPI    HY21864   0.905   3.788   6.007 -1.5715  0.5240  1.8021
  190SAPI   O3121865   0.909   3.646   5.842 -0.1974  0.5664  0.1591
  190SAPI   C3121866   0.990   3.726   5.773 -0.1415  1.2247 -0.1679
  190SAPI   O3221867   1.019   3.843   5.791  0.0324  1.1816 -0.0083
  190SAPI   C3221868   1.027   3.646   5.646  0.3097 -0.4259 -0.0893
  190SAPI   H2X21869   0.965   3.554   5.643 -0.6190  0.1542  0.8502
  190SAPI   H2Y21870   1.137   3.630   5.645  0.1307 -1.7731  0.5790
  190SAPI   C2321871   0.389   3.619   5.566  0.1146 -0.2643 -0.2052
  190SAPI   H3R21872   0.444   3.688   5.498 -2.8942  2.2396 -0.3081
  190SAPI   H3S21873   0.311   3.685   5.609 -0.1014 -1.4832  1.3719
  190SAPI   C2421874   0.324   3.499   5.489 -0.0289  0.5585 -0.2501
  190SAPI   H4R21875   0.254   3.549   5.419 -0.8188  2.0391  1.4943
  190SAPI   H4S21876   0.273   3.430   5.559  0.0631 -0.6185 -1.3060
  190SAPI   C2521877   0.412   3.402   5.415  0.3020 -0.4334 -0.1618
  190SAPI   H5R21878   0.490   3.371   5.487 -0.4415  0.2956  0.9886
  190SAPI   C2621879   0.429   3.377   5.283  0.4532 -0.2184 -0.5312
  190SAPI   H6R21880   0.501   3.299   5.253 -1.0713 -1.0926 -2.1403
  190SAPI   C2721881   0.335   3.434   5.175  0.2560 -0.3203  0.1662
  190SAPI   H7R21882   0.289   3.533   5.196  0.3467  0.4098 -2.6332
  190SAPI   H7S21883   0.260   3.356   5.148  0.5500  0.1486 -2.2207
  190SAPI   C2821884   0.408   3.466   5.048 -0.0321 -0.4389 -0.0617
  190SAPI   H8R21885   0.475   3.552   5.064 -0.1304 -0.6327  1.4879
  190SAPI   C2921886   0.414   3.393   4.937  0.2250 -0.2422  0.6321
  190SAPI   H9R21887   0.459   3.442   4.849 -1.7250 -0.8604 -0.7703
  190SAPI  C21021888   0.334   3.269   4.903 -0.3355  0.4046  0.3174
  190SAPI  H10R21889   0.278   3.242   4.995  0.5843  0.7369  0.9828
  190SAPI  H10S21890   0.407   3.187   4.885 -0.9835 -0.6437  2.2093
  190SAPI  C21121891   0.236   3.297   4.797  0.1385 -0.1728  0.7663
  190SAPI  H11R21892   0.158   3.365   4.834  0.3672  1.3175 -1.2950
  190SAPI  C21221893   0.243   3.283   4.660 -0.1488  0.7842 -0.0593
  190SAPI  H12R21894   0.162   3.324   4.598  0.5226 -0.4953 -1.8743
  190SAPI  C21321895   0.352   3.216   4.577  0.0178 -0.6743 -0.4079
  190SAPI  H13R21896   0.432   3.168   4.637  1.1843 -0.2346 -1.5535
  190SAPI  H13S21897   0.401   3.284   4.504 -0.8783  0.8874  0.3975
  190SAPI  C21421898   0.277   3.114   4.494 -0.2375 -1.1533  0.0159
  190SAPI  H14R21899   0.171   3.125   4.468 -0.5967 -2.8282  0.6351
  190SAPI  C21521900   0.319   2.993   4.449  0.1171 -0.0868  0.2609
  190SAPI  H15R21901   0.254   2.920   4.399 -1.5299  1.4208  0.1174
  190SAPI  C21621902   0.462   2.945   4.485  0.0867  0.3530  0.1793
  190SAPI  H16R21903   0.463   2.834   4.481  0.2073  0.3704 -0.3323
  190SAPI  H16S21904   0.487   2.965   4.591  0.9280 -2.9484  0.7010
  190SAPI  C21721905   0.579   3.005   4.401  0.1681 -0.2173 -0.3430
  190SAPI  H17R21906   0.670   2.949   4.430 -0.9515 -2.8133 -1.5079
  190SAPI  H17S21907   0.602   3.108   4.435 -0.0573 -0.4145  0.4205
  190SAPI  C21821908   0.565   3.009   4.247  0.3242 -0.5398  0.9609
  190SAPI  H18R21909   0.484   3.080   4.220  0.2023 -0.1888  2.1720
  190SAPI  H18S21910   0.545   2.910   4.200  0.6715  0.6062 -1.7826
  190SAPI  C21921911   0.689   3.072   4.178  0.0391  0.5844 -0.2663
  190SAPI  H19R21912   0.694   3.175   4.220 -0.9543  1.7360 -2.7739
  190SAPI  H19S21913   0.652   3.081   4.073 -3.2773 -0.2003  0.6943
  190SAPI  C22021914   0.827   2.999   4.196  0.0965  0.1165  0.1616
  190SAPI  H20R21915   0.804   2.900   4.151 -0.7779  1.6615 -3.0739
  190SAPI  H20S21916   0.851   3.002   4.305  2.3522  1.1880 -0.3082
  190SAPI  H20T21917   0.902   3.063   4.145 -0.2776  1.7360  1.5369
  190SAPI   C3321918   0.995   3.719   5.515  0.1618 -0.4165  0.3235
  190SAPI   H3X21919   1.014   3.665   5.420 -2.9301 -0.4752 -0.3637
  190SAPI   H3Y21920   1.054   3.813   5.512 -1.1524  0.3786 -1.3980
  190SAPI   C3421921   0.849   3.759   5.488  0.0008  0.6193  0.4662
  190SAPI   H4X21922   0.825   3.843   5.556  1.1329  0.4547  1.1056
  190SAPI   H4Y21923   0.777   3.678   5.513  1.0891 -0.1364  1.2450
  190SAPI   C3521924   0.830   3.824   5.347  0.0550  0.3170 -0.3602
  190SAPI   H5X21925   0.838   3.747   5.267 -0.8190  1.0110 -1.1502
  190SAPI   H5Y21926   0.912   3.886   5.307  1.7609 -2.0677 -0.7971
  190SAPI   C3621927   0.703   3.908   5.332 -0.2316  0.6584 -0.6781
  190SAPI   H6X21928   0.708   4.000   5.394  0.0475  0.0105  0.2817
  190SAPI   H6Y21929   0.622   3.853   5.385  0.3765  1.1127  0.7750
  190SAPI   C3721930   0.676   3.941   5.188  0.0176  0.5225  0.4138
  190SAPI   H7X21931   0.752   4.006   5.138 -1.6807  0.0979 -3.0488
  190SAPI   H7Y21932   0.585   4.005   5.190  0.0174  0.5479 -0.0816
  190SAPI   C3821933   0.654   3.826   5.083  0.4468  0.3423  0.5587
  190SAPI   H8X21934   0.592   3.753   5.138  0.5001 -0.1545 -0.0372
  190SAPI   H8Y21935   0.747   3.771   5.057  1.4267  2.1354  0.0822
  190SAPI   C3921936   0.608   3.885   4.951 -0.6411  0.2090  0.4530
  190SAPI   H9X21937   0.677   3.962   4.909  0.5092 -0.5866  0.8452
  190SAPI   H9Y21938   0.509   3.932   4.968 -1.0769  0.8199 -2.9960
  190SAPI  C31021939   0.591   3.778   4.841 -0.6644  0.0594 -0.0167
  190SAPI  H10X21940   0.570   3.681   4.892 -0.5678  0.5704  1.0309
  190SAPI  H10Y21941   0.686   3.757   4.788 -0.8658  1.1407 -0.8279
  190SAPI  C31121942   0.485   3.806   4.733 -0.3476  0.1780 -0.2015
  190SAPI  H11X21943   0.524   3.754   4.643 -0.1015 -0.2930  0.1710
  190SAPI  H11Y21944   0.490   3.912   4.701  2.5726  0.2987  0.3889
  190SAPI  C31221945   0.345   3.761   4.782  0.6098  0.5316  0.2188
  190SAPI  H12X21946   0.311   3.840   4.853  1.9373  1.7733 -0.4795
  190SAPI  H12Y21947   0.349   3.671   4.847 -2.1175  1.3550  1.6903
  190SAPI  C31321948   0.237   3.736   4.672  0.0901  0.3635  0.3799
  190SAPI  H13X21949   0.278   3.644   4.625 -0.0049 -0.3474  1.6513
  190SAPI  H13Y21950   0.249   3.821   4.601 -0.8229  0.9557  0.9143
  190SAPI  C31421951   0.093   3.717   4.719  0.2199  0.6533  0.4571
  190SAPI  H14X21952   0.070   3.813   4.770  0.5715  0.2228  1.4524
  190SAPI  H14Y21953   0.094   3.637   4.796 -0.7515 -2.2970 -2.3731
  190SAPI  C31521954  -0.018   3.690   4.610  0.4880 -0.8371 -0.0965
  190SAPI  H15X21955  -0.113   3.696   4.668  0.1063  0.0968 -0.7818
  190SAPI  H15Y21956   0.002   3.586   4.576  3.0487 -0.5893  0.4734
  190SAPI  C31621957  -0.017   3.793   4.490  1.1594 -0.0981 -0.1915
  190SAPI  H16X21958   0.085   3.811   4.450  1.9482 -0.3171  1.6587
  190SAPI  H16Y21959  -0.062   3.885   4.533  1.3032 -0.2293  0.2342
  190SAPI  C31721960  -0.097   3.747   4.364 -0.3918 -0.2617 -0.5830
  190SAPI  H17X21961  -0.088   3.820   4.281 -0.2170  0.5515  0.1477
  190SAPI  H17Y21962  -0.201   3.736   4.401 -0.5692  1.8790 -0.3280
  190SAPI  C31821963  -0.037   3.608   4.314 -0.2878 -0.1870  0.4137
  190SAPI  H18X21964  -0.066   3.531   4.388  0.9354 -1.1062 -0.0189
  190SAPI  H18Y21965   0.074   3.620   4.311 -0.4863  1.9834 -1.4437
  190SAPI  H18Z21966  -0.084   3.585   4.216  0.2973  0.2699  0.0112
  191SAPI   C1221967   3.453   2.880   1.832 -0.5257 -0.2958 -0.2749
  191SAPI    H221968   3.432   2.859   1.939 -1.5008 -0.6181 -0.5123
  191SAPI    O221969   3.331   2.829   1.773  0.1099 -0.5083  0.2427
  191SAPI   HO221970   3.351   2.735   1.774 -0.2498 -0.5935 -0.2387
  191SAPI   C1321971   3.476   3.029   1.790  0.0970  0.8701 -0.2132
  191SAPI    H321972   3.571   3.064   1.837  1.3314 -0.9456 -1.2348
  191SAPI    O321973   3.366   3.109   1.839  0.1515 -0.2305  0.3614
  191SAPI   HO321974   3.406   3.142   1.920 -2.1505 -2.0266  2.3786
  191SAPI   C1421975   3.496   3.039   1.643  0.1600  0.5591 -0.6410
  191SAPI    H421976   3.395   3.020   1.602 -0.5102 -0.3631  1.2948
  191SAPI    O421977   3.541   3.166   1.592 -0.0230  0.0642  0.0094
  191SAPI   HO421978   3.459   3.212   1.573 -0.7064 -1.4092 -0.8223
  191SAPI   C1521979   3.574   2.928   1.582 -0.1964 -0.4768  0.7016
  191SAPI    H521980   3.677   2.969   1.583 -0.8968  1.3834  0.8926
  191SAPI    O521981   3.548   2.907   1.439 -0.1911  0.7095 -0.1482
  191SAPI   HO521982   3.452   2.900   1.432 -0.2333 -0.1036  0.9902
  191SAPI   C1621983   3.594   2.790   1.652  0.0143 -0.1465 -0.7456
  191SAPI    H621984   3.518   2.721   1.608  1.5804 -0.9413 -2.2982
  191SAPI    O621985   3.724   2.743   1.620  0.3110 -0.6991 -0.5259
  191SAPI   HO621986   3.728   2.655   1.659 -0.3584 -1.4630 -2.0832
  191SAPI   C1121987   3.576   2.794   1.801  0.3791  0.6957  0.3267
  191SAPI    H121988   3.667   2.842   1.843  0.6134  1.0545 -0.5656
  191SAPI     P21989   3.619   2.609   1.998 -0.0160 -0.1995 -0.3405
  191SAPI   O1321990   3.748   2.670   2.032  0.1443 -0.0862 -0.5684
  191SAPI   O1421991   3.607   2.461   2.009 -0.0080 -0.1232 -0.4534
  191SAPI   O1221992   3.562   2.663   1.856  0.6397 -0.4498  0.1737
  191SAPI   O1121993   3.510   2.666   2.101  0.1890 -0.2930  0.1608
  191SAPI    C121994   3.393   2.602   2.136  0.4385  0.1416  0.4397
  191SAPI    HA21995   3.345   2.560   2.044 -0.8295 -1.4138  1.7418
  191SAPI    HB21996   3.411   2.523   2.213  1.1363  0.8802  1.0450
  191SAPI    C221997   3.289   2.695   2.194 -0.0963  0.6748  0.9357
  191SAPI    HS21998   3.294   2.783   2.126  2.7407  0.9719  1.3955
  191SAPI   O2121999   3.331   2.732   2.328 -0.7022  0.1699  0.6189
  191SAPI   C2122000   3.355   2.863   2.352  0.2355  0.8177  0.4128
  191SAPI   O2222001   3.307   2.957   2.285 -0.0777  0.1177 -0.0922
  191SAPI   C2222002   3.450   2.873   2.460 -0.1899  0.2598  0.7128
  191SAPI   H2R22003   3.477   2.773   2.500 -3.1507  0.5002  3.7861
  191SAPI   H2S22004   3.535   2.930   2.416  1.2542 -0.2373  2.7104
  191SAPI    C322005   3.156   2.622   2.211 -0.5125 -0.4128  0.0685
  191SAPI    HX22006   3.159   2.530   2.274  0.6950 -0.2020  0.3401
  191SAPI    HY22007   3.116   2.591   2.112 -0.9561 -1.6729  0.6228
  191SAPI   O3122008   3.061   2.712   2.270 -0.0472 -0.4888 -0.3151
  191SAPI   C3122009   2.938   2.664   2.292  0.5431 -0.0102 -0.0296
  191SAPI   O3222010   2.897   2.561   2.241 -0.0346 -0.1199 -0.3592
  191SAPI   C3222011   2.855   2.745   2.389 -0.1401  0.3091 -0.2160
  191SAPI   H2X22012   2.761   2.769   2.336  0.6400  3.2152 -0.4356
  191SAPI   H2Y22013   2.911   2.839   2.411 -0.2821  0.0133  1.6334
  191SAPI   C2322014   3.388   2.943   2.585 -0.7787 -0.1331 -0.4521
  191SAPI   H3R22015   3.347   3.035   2.536 -0.9300  0.4659  0.7617
  191SAPI   H3S22016   3.472   2.974   2.650  1.5404 -0.8824 -2.9088
  191SAPI   C2422017   3.277   2.875   2.670 -0.0315  0.3750 -0.3454
  191SAPI   H4R22018   3.189   2.840   2.611 -2.4662  0.7279  2.8370
  191SAPI   H4S22019   3.253   2.954   2.744  0.1909  1.3637 -1.3080
  191SAPI   C2522020   3.338   2.760   2.746 -0.6830  0.0198  0.3470
  191SAPI   H5R22021   3.376   2.675   2.687  1.1804 -1.0769  2.9490
  191SAPI   C2622022   3.355   2.743   2.875  0.2773  0.0476  0.0703
  191SAPI   H6R22023   3.401   2.647   2.905 -1.4245 -0.4537  1.2334
  191SAPI   C2722024   3.328   2.837   2.987  0.1119 -0.0366 -0.2091
  191SAPI   H7R22025   3.323   2.943   2.953 -1.3694  0.6405  1.9210
  191SAPI   H7S22026   3.395   2.830   3.075 -1.1540 -0.0198  0.7841
  191SAPI   C2822027   3.184   2.808   3.035 -0.9172 -0.2232  0.0988
  191SAPI   H8R22028   3.113   2.828   2.954 -0.4776 -0.9134 -0.4759
  191SAPI   C2922029   3.146   2.772   3.153  0.2772  0.1136  0.0905
  191SAPI   H9R22030   3.039   2.752   3.165  0.9797 -3.7097  1.3139
  191SAPI  C21022031   3.236   2.742   3.267 -0.5289  0.2033  0.1269
  191SAPI  H10R22032   3.262   2.833   3.326 -0.1743  0.8720 -1.0177
  191SAPI  H10S22033   3.337   2.711   3.234 -0.4580 -2.5894  2.6254
  191SAPI  C21122034   3.172   2.635   3.356 -0.0973  0.6786  0.2791
  191SAPI  H11R22035   3.121   2.559   3.295  3.9520 -2.3245  0.2255
  191SAPI  C21222036   3.178   2.641   3.494  0.5322  0.3615  0.1808
  191SAPI  H12R22037   3.127   2.567   3.557  1.9905  0.4596  1.5286
  191SAPI  C21322038   3.271   2.742   3.573 -0.2358  0.4628  0.6260
  191SAPI  H13R22039   3.350   2.782   3.506 -1.4054 -1.0843 -1.8305
  191SAPI  H13S22040   3.328   2.679   3.644 -1.3741 -1.0994  0.2275
  191SAPI  C21422041   3.192   2.853   3.637  0.0041 -0.0686 -0.2728
  191SAPI  H14R22042   3.114   2.898   3.573 -2.5048 -3.2103  0.3437
  191SAPI  C21522043   3.209   2.896   3.764 -1.2616  1.0735  0.1432
  191SAPI  H15R22044   3.138   2.976   3.790 -2.9970 -0.3157 -0.1135
  191SAPI  C21622045   3.301   2.839   3.866  0.0307  0.6147 -0.2687
  191SAPI  H16R22046   3.347   2.927   3.917 -0.7790  0.7716  0.2093
  191SAPI  H16S22047   3.383   2.780   3.820 -0.3870 -1.4651  1.5111
  191SAPI  C21722048   3.237   2.750   3.961  0.0353  0.2744  0.3768
  191SAPI  H17R22049   3.136   2.785   3.990 -0.4530  0.4361 -1.4156
  191SAPI  H17S22050   3.298   2.744   4.054 -0.4828  1.3723  0.7985
  191SAPI  C21822051   3.232   2.600   3.906 -0.2685 -0.7495  0.1073
  191SAPI  H18R22052   3.332   2.564   3.875  0.9582  0.7243  2.1910
  191SAPI  H18S22053   3.171   2.617   3.814 -0.9079 -0.2568  0.6169
  191SAPI  C21922054   3.153   2.503   3.996  0.0226  0.4642  0.5255
  191SAPI  H19R22055   3.101   2.546   4.085 -1.9936 -0.2835 -0.2174
  191SAPI  H19S22056   3.225   2.430   4.037 -0.2705 -0.4575 -0.5459
  191SAPI  C22022057   3.040   2.435   3.922 -0.2199 -0.0791 -0.1594
  191SAPI  H20R22058   2.952   2.502   3.926 -0.0749  0.3817 -2.8801
  191SAPI  H20S22059   3.011   2.339   3.969 -0.9978  0.9060  1.4738
  191SAPI  H20T22060   3.054   2.408   3.815 -3.0703  0.9300 -0.8844
  191SAPI   C3322061   2.825   2.665   2.523 -0.0418 -0.1173  0.3192
  191SAPI   H3X22062   2.782   2.564   2.505  0.1006 -0.7307  2.8746
  191SAPI   H3Y22063   2.760   2.716   2.598  1.1966 -0.8969  2.0095
  191SAPI   C3422064   2.961   2.623   2.592  0.3290 -0.2879 -0.3390
  191SAPI   H4X22065   3.009   2.715   2.631 -1.6808 -0.3806  2.6873
  191SAPI   H4Y22066   3.027   2.565   2.525 -0.4419 -2.3184  0.5875
  191SAPI   C3522067   2.943   2.529   2.720 -0.2337  0.1621  0.5489
  191SAPI   H5X22068   3.045   2.498   2.750 -0.8842 -1.4343  1.2218
  191SAPI   H5Y22069   2.892   2.436   2.688 -1.3970  0.1339  2.3362
  191SAPI   C3622070   2.861   2.597   2.831 -0.0420  0.0929  0.6435
  191SAPI   H6X22071   2.765   2.638   2.793 -0.0115  0.6769  1.1970
  191SAPI   H6Y22072   2.933   2.677   2.858  0.6655 -0.2069 -0.2645
  191SAPI   C3722073   2.846   2.505   2.948  0.5807  0.8567 -0.0628
  191SAPI   H7X22074   2.947   2.462   2.966  0.1726 -0.1462 -0.1003
  191SAPI   H7Y22075   2.789   2.415   2.915  1.0069  1.1853 -1.7696
  191SAPI   C3822076   2.782   2.560   3.076 -0.5127 -0.3709 -0.5908
  191SAPI   H8X22077   2.690   2.614   3.043  0.0077  1.3068  0.5783
  191SAPI   H8Y22078   2.856   2.633   3.115 -0.2930 -0.9097  0.0064
  191SAPI   C3922079   2.745   2.457   3.178 -0.1908 -0.3182 -0.7132
  191SAPI   H9X22080   2.829   2.392   3.211  0.7966  0.2735 -1.9930
  191SAPI   H9Y22081   2.656   2.401   3.143  0.5329 -0.5927 -2.1567
  191SAPI  C31022082   2.711   2.520   3.316  0.7257 -0.3145  0.3027
  191SAPI  H10X22083   2.625   2.588   3.297  0.9016 -0.2140 -0.1639
  191SAPI  H10Y22084   2.793   2.587   3.350  2.5925 -1.7572 -1.1206
  191SAPI  C31122085   2.706   2.427   3.432 -0.0464 -0.4476 -0.0506
  191SAPI  H11X22086   2.802   2.373   3.448  0.4785  0.5594  0.2648
  191SAPI  H11Y22087   2.631   2.348   3.408  0.8282 -0.4500 -3.2594
  191SAPI  C31222088   2.669   2.501   3.564  0.1560  0.1853  0.0545
  191SAPI  H12X22089   2.568   2.537   3.532  0.4268  1.1475  0.2389
  191SAPI  H12Y22090   2.744   2.580   3.582 -0.2042  0.0711  2.3240
  191SAPI  C31322091   2.657   2.428   3.700  0.5371  0.0086  0.3997
  191SAPI  H13X22092   2.758   2.385   3.722  1.1945  0.7365 -1.0807
  191SAPI  H13Y22093   2.585   2.345   3.685  1.2794 -0.6367  0.3537
  191SAPI  C31422094   2.597   2.521   3.811  0.3406  0.5582  0.0727
  191SAPI  H14X22095   2.495   2.546   3.776  1.0066  0.1500 -2.3002
  191SAPI  H14Y22096   2.653   2.616   3.820  0.2651  0.9346 -2.6950
  191SAPI  C31522097   2.585   2.446   3.946 -0.1822  0.5486  0.7180
  191SAPI  H15X22098   2.683   2.455   3.998  0.2174  0.0875  0.0566
  191SAPI  H15Y22099   2.567   2.341   3.916  1.1546  0.5805 -0.2615
  191SAPI  C31622100   2.470   2.483   4.033  0.1062 -0.0610 -0.6826
  191SAPI  H16X22101   2.376   2.456   3.981  1.1820 -1.6623 -1.8614
  191SAPI  H16Y22102   2.463   2.594   4.044  2.5620  0.0033  1.1113
  191SAPI  C31722103   2.466   2.414   4.176 -0.0198 -0.3014  0.5686
  191SAPI  H17X22104   2.510   2.473   4.260 -0.0694 -1.9255  1.7910
  191SAPI  H17Y22105   2.513   2.314   4.172 -1.7900 -1.1651  0.0206
  191SAPI  C31822106   2.327   2.386   4.230  0.3884 -0.3332 -0.2512
  191SAPI  H18X22107   2.333   2.303   4.304  0.7787 -1.2282 -1.2650
  191SAPI  H18Y22108   2.258   2.348   4.152  1.8784 -0.7665 -1.4040
  191SAPI  H18Z22109   2.275   2.468   4.285  1.6325  0.6902 -0.5508
  192SAPI   C1222110   2.281   0.841   1.482 -0.3494  0.5161  0.0948
  192SAPI    H222111   2.278   0.799   1.585  3.2978 -1.5777 -0.4631
  192SAPI    O222112   2.189   0.942   1.479 -0.1611  0.0397 -0.2439
  192SAPI   HO222113   2.130   0.923   1.552 -0.4326 -0.9368 -0.7029
  192SAPI   C1322114   2.429   0.891   1.460  0.7399  0.6139 -0.2983
  192SAPI    H322115   2.485   0.795   1.460 -0.5160 -0.1700  1.5396
  192SAPI    O322116   2.480   0.989   1.558 -0.0272  0.1245 -0.0391
  192SAPI   HO322117   2.574   0.978   1.574  0.2111  1.1260 -0.6474
  192SAPI   C1422118   2.428   0.956   1.317  0.1941 -0.0927 -0.0924
  192SAPI    H422119   2.371   1.052   1.323 -0.0385 -0.2752  0.6855
  192SAPI    O422120   2.565   0.980   1.281 -0.1187 -0.3055 -0.3479
  192SAPI   HO422121   2.620   0.901   1.280  0.5184  0.0772  1.0680
  192SAPI   C1522122   2.352   0.881   1.205 -0.0075 -0.4015  0.6101
  192SAPI    H522123   2.431   0.816   1.162  1.4554  2.0564 -0.6804
  192SAPI    O522124   2.309   0.964   1.094  0.4105  0.1498  0.3718
  192SAPI   HO522125   2.380   0.971   1.029 -0.0286 -3.2192 -0.6840
  192SAPI   C1622126   2.236   0.780   1.242  0.1105 -0.3863  0.3688
  192SAPI    H622127   2.146   0.844   1.229  1.5977  1.2129 -3.4741
  192SAPI    O622128   2.219   0.669   1.154  0.0273  0.7298  0.2088
  192SAPI   HO622129   2.305   0.631   1.133  0.2203  1.4443 -0.3409
  192SAPI   C1122130   2.251   0.724   1.386  0.0054 -0.4794  0.2962
  192SAPI    H122131   2.336   0.653   1.400  1.6394  1.2583 -0.4136
  192SAPI     P22132   2.112   0.491   1.412 -0.1224  0.0585  0.0686
  192SAPI   O1322133   2.206   0.440   1.314  0.3301  0.4467  0.1249
  192SAPI   O1422134   1.968   0.460   1.387  0.7982  0.1915  0.1252
  192SAPI   O1222135   2.134   0.660   1.428  0.9044  0.2039 -0.1261
  192SAPI   O1122136   2.159   0.420   1.551  0.1212  0.0213  0.2215
  192SAPI    C122137   2.254   0.488   1.631  0.1604 -0.0051 -0.5750
  192SAPI    HA22138   2.337   0.534   1.574 -1.2860 -1.2389 -3.9268
  192SAPI    HB22139   2.200   0.566   1.688 -0.0464 -0.9235  0.5273
  192SAPI    C222140   2.315   0.392   1.739 -0.2114 -0.0887  0.0638
  192SAPI    HS22141   2.243   0.332   1.798 -2.0095 -1.0920 -2.9521
  192SAPI   O2122142   2.414   0.460   1.822 -0.0720  0.2158  0.2302
  192SAPI   C2122143   2.385   0.487   1.941  0.7604  0.2630 -0.4985
  192SAPI   O2222144   2.282   0.448   2.006 -0.3119  0.3516  0.3847
  192SAPI   C2222145   2.497   0.574   2.000  0.0020 -0.3686  0.5138
  192SAPI   H2R22146   2.588   0.510   1.990 -0.7391 -1.5313  0.9672
  192SAPI   H2S22147   2.515   0.663   1.936  1.6973 -1.8847 -1.2319
  192SAPI    C322148   2.390   0.282   1.661  0.9071  1.0580  0.5592
  192SAPI    HX22149   2.457   0.297   1.574  0.6853 -0.6224  0.0599
  192SAPI    HY22150   2.301   0.238   1.612  0.7113  2.5486 -0.4987
  192SAPI   O3122151   2.436   0.179   1.749 -0.0684 -0.4558 -0.3264
  192SAPI   C3122152   2.568   0.192   1.785 -0.2206 -0.7255 -0.1001
  192SAPI   O3222153   2.648   0.282   1.751 -0.3399 -0.0228 -0.6876
  192SAPI   C3222154   2.604   0.069   1.876 -0.5992 -0.4674  0.2306
  192SAPI   H2X22155   2.650   0.109   1.968 -1.2724 -0.5215  0.6025
  192SAPI   H2Y22156   2.681   0.011   1.822  0.6590 -0.7956  2.3010
  192SAPI   C2322157   2.489   0.602   2.150  0.6765  0.6815  0.4016
  192SAPI   H3R22158   2.398   0.663   2.171 -0.4521 -0.4160 -1.0992
  192SAPI   H3S22159   2.576   0.657   2.193  1.4447 -0.2314  0.0414
  192SAPI   C2422160   2.489   0.465   2.230  0.8835  0.3218  0.1589
  192SAPI   H4R22161   2.573   0.395   2.213 -1.3149 -1.8747 -2.8230
  192SAPI   H4S22162   2.411   0.394   2.195  0.1216 -0.3282  2.8999
  192SAPI   C2522163   2.456   0.509   2.371 -0.1356  0.0343  0.1186
  192SAPI   H5R22164   2.381   0.590   2.382  0.7922  0.6756  2.4212
  192SAPI   C2622165   2.525   0.457   2.480 -0.5281  0.2758 -1.0759
  192SAPI   H6R22166   2.484   0.495   2.575 -1.6422  3.4475 -2.6704
  192SAPI   C2722167   2.634   0.359   2.484 -0.8232 -0.1759 -0.4132
  192SAPI   H7R22168   2.717   0.410   2.538 -0.8873  1.3477 -1.6755
  192SAPI   H7S22169   2.666   0.331   2.381  2.2125 -1.7254  0.8458
  192SAPI   C2822170   2.602   0.234   2.555 -0.1265  0.1777  0.2888
  192SAPI   H8R22171   2.549   0.166   2.487 -2.2526  2.3995 -0.4300
  192SAPI   C2922172   2.616   0.197   2.688  0.2959 -0.6244  0.4031
  192SAPI   H9R22173   2.570   0.102   2.719 -1.1025 -0.6912 -1.6316
  192SAPI  C21022174   2.685   0.272   2.801 -0.1740 -1.7277 -0.5134
  192SAPI  H10R22175   2.737   0.360   2.755  0.8792 -1.5812  0.8929
  192SAPI  H10S22176   2.767   0.223   2.857  1.2736  0.7008 -0.3751
  192SAPI  C21122177   2.574   0.329   2.883 -0.0699 -0.2421  0.1092
  192SAPI  H11R22178   2.519   0.418   2.850  0.7114 -0.0917 -0.8224
  192SAPI  C21222179   2.549   0.291   3.005  0.1439 -0.4525  0.2930
  192SAPI  H12R22180   2.465   0.340   3.057  1.0357  0.5447  0.8402
  192SAPI  C21322181   2.618   0.177   3.070  0.6553  0.0105 -0.4880
  192SAPI  H13R22182   2.652   0.099   2.999  0.6331  1.1011 -1.7347
  192SAPI  H13S22183   2.548   0.128   3.141 -1.4831  1.7015 -1.3111
  192SAPI  C21422184   2.736   0.223   3.155 -0.8008 -0.2930  0.7321
  192SAPI  H14R22185   2.835   0.210   3.108 -0.5917 -0.8592  1.3055
  192SAPI  C21522186   2.739   0.270   3.278 -0.1072  0.7680  0.1774
  192SAPI  H15R22187   2.833   0.303   3.323 -0.6815  1.6081  0.8147
  192SAPI  C21622188   2.618   0.279   3.370 -0.6128  0.0182 -0.1009
  192SAPI  H16R22189   2.654   0.244   3.469  2.5321 -0.1148 -1.1873
  192SAPI  H16S22190   2.537   0.215   3.331 -0.3758 -0.0082 -0.5507
  192SAPI  C21722191   2.571   0.425   3.407  0.1029 -0.1406 -0.0588
  192SAPI  H17R22192   2.656   0.464   3.468  0.3084 -1.8024  0.7675
  192SAPI  H17S22193   2.478   0.428   3.468 -1.0536  0.1083 -1.7720
  192SAPI  C21822194   2.541   0.501   3.283  0.2275 -0.1301  0.2590
  192SAPI  H18R22195   2.470   0.440   3.224  2.3668 -2.6499  0.0802
  192SAPI  H18S22196   2.632   0.524   3.224  1.5472 -1.4374  1.6633
  192SAPI  C21922197   2.489   0.642   3.307  1.0714  0.0519 -0.0654
  192SAPI  H19R22198   2.409   0.641   3.384  0.4654 -0.8258 -0.6857
  192SAPI  H19S22199   2.447   0.668   3.207  0.8233 -1.0679 -0.2610
  192SAPI  C22022200   2.603   0.737   3.346 -0.2114  0.3487  0.5172
  192SAPI  H20R22201   2.675   0.731   3.262  1.0101 -0.5547  1.5718
  192SAPI  H20S22202   2.645   0.706   3.445  0.9511 -0.5498 -0.2303
  192SAPI  H20T22203   2.552   0.835   3.358 -2.3837 -0.2819 -2.5819
  192SAPI   C3322204   2.482  -0.017   1.915 -0.3272 -0.3695 -0.3355
  192SAPI   H3X22205   2.524  -0.115   1.949 -0.7183 -1.3437 -2.4606
  192SAPI   H3Y22206   2.416  -0.043   1.829  1.7665 -2.2675 -1.4967
  192SAPI   C3422207   2.407   0.042   2.034  0.1631 -0.8245 -0.9269
  192SAPI   H4X22208   2.304   0.002   2.024  0.0136 -0.2882 -1.6920
  192SAPI   H4Y22209   2.387   0.149   2.009 -1.0851 -0.9422 -0.5244
  192SAPI   C3522210   2.455   0.027   2.182 -0.2798 -0.4257  0.4311
  192SAPI   H5X22211   2.382   0.089   2.239 -3.2819 -0.6116 -2.8667
  192SAPI   H5Y22212   2.565   0.043   2.191  0.3592 -3.7323  0.0137
  192SAPI   C3622213   2.426  -0.115   2.218  0.4682  0.3122 -1.5396
  192SAPI   H6X22214   2.475  -0.193   2.156  1.6150  0.4934 -0.8774
  192SAPI   H6Y22215   2.321  -0.151   2.208  0.0089  0.7380  1.0102
  192SAPI   C3722216   2.459  -0.146   2.363  0.0558  0.2066 -0.8181
  192SAPI   H7X22217   2.402  -0.235   2.398  1.5843  0.2395  2.0252
  192SAPI   H7Y22218   2.417  -0.056   2.412  0.0426  1.3205 -2.7510
  192SAPI   C3822219   2.609  -0.156   2.398 -0.1087 -0.4272 -0.1914
  192SAPI   H8X22220   2.652  -0.057   2.372  0.2819 -0.0176  1.8305
  192SAPI   H8Y22221   2.649  -0.246   2.348 -0.9153 -2.3922  2.4503
  192SAPI   C3922222   2.624  -0.154   2.548  0.2008 -0.5211  0.1012
  192SAPI   H9X22223   2.577  -0.062   2.589  1.0370  1.4122 -2.9377
  192SAPI   H9Y22224   2.732  -0.152   2.574 -0.0239  0.0854  1.0322
  192SAPI  C31022225   2.567  -0.269   2.637  0.5791 -0.2557  0.6815
  192SAPI  H10X22226   2.573  -0.367   2.586  0.3578  0.3286 -0.5058
  192SAPI  H10Y22227   2.459  -0.256   2.658  0.6902  0.6137  0.7521
  192SAPI  C31122228   2.644  -0.276   2.777  1.0288  0.2525 -0.1500
  192SAPI  H11X22229   2.750  -0.246   2.763  2.0423 -1.4407  2.9716
  192SAPI  H11Y22230   2.661  -0.384   2.796 -2.5341 -0.4954 -0.4563
  192SAPI  C31222231   2.557  -0.204   2.882  0.6044 -0.2685  0.3308
  192SAPI  H12X22232   2.454  -0.242   2.868  0.1707  1.0378 -0.1134
  192SAPI  H12Y22233   2.568  -0.098   2.853  0.7290 -0.2676  0.3818
  192SAPI  C31322234   2.604  -0.231   3.030 -0.0919 -0.3312  0.2326
  192SAPI  H13X22235   2.697  -0.175   3.052  0.6873 -0.2039 -3.0096
  192SAPI  H13Y22236   2.623  -0.339   3.049  0.6253  0.0012  1.5394
  192SAPI  C31422237   2.495  -0.182   3.124  0.4050 -0.0309 -0.7655
  192SAPI  H14X22238   2.396  -0.223   3.092 -0.3298  1.3421 -0.3530
  192SAPI  H14Y22239   2.485  -0.072   3.113  4.4618  0.3720 -1.6998
  192SAPI  C31522240   2.526  -0.212   3.278  0.6971  0.1887 -0.9996
  192SAPI  H15X22241   2.558  -0.319   3.282  0.7811  0.2175 -0.8948
  192SAPI  H15Y22242   2.425  -0.202   3.322 -0.2099  0.1971 -2.9595
  192SAPI  C31622243   2.613  -0.111   3.350 -0.1358  0.7706  0.2761
  192SAPI  H16X22244   2.572  -0.009   3.340 -0.7787  0.4025 -1.2160
  192SAPI  H16Y22245   2.715  -0.118   3.306  0.1807 -0.1285  1.1182
  192SAPI  C31722246   2.639  -0.164   3.487 -0.0027  0.3822 -0.1732
  192SAPI  H17X22247   2.707  -0.251   3.497  0.1266  0.5159  0.1324
  192SAPI  H17Y22248   2.541  -0.181   3.537 -0.1058 -1.1906 -0.8590
  192SAPI  C31822249   2.698  -0.049   3.576 -0.3543 -0.1298 -0.0261
  192SAPI  H18X22250   2.616   0.023   3.597  0.2285  0.4735  0.2403
  192SAPI  H18Y22251   2.783   0.006   3.530  0.7721 -2.3248 -0.7128
  192SAPI  H18Z22252   2.722  -0.099   3.672 -0.4192 -0.5831 -0.2455
  193SOD    SOD22253   6.172   1.914   0.567  0.1559  0.3857  0.2635
  194SOD    SOD22254   1.124   4.247   6.261 -0.1328 -0.0357  0.4076
  195SOD    SOD22255   3.155   2.982   1.838  0.7478 -0.0175 -0.2285
  196SOD    SOD22256   0.285   2.969   8.124 -0.0233 -0.5484 -0.4407
  197SOD    SOD22257   3.034   4.027   8.369 -0.0773 -0.2915 -0.7673
  198SOD    SOD22258   3.803   3.477   1.841 -0.5157 -0.2061  0.4116
  199SOD    SOD22259   0.569   6.704   0.489 -0.1381 -0.5193  0.6718
  200SOD    SOD22260   1.262   0.983   1.099  0.0316 -0.0669 -0.1648
  201SOD    SOD22261   6.688   3.065   8.733 -0.0048  0.0853 -0.0164
  202SOD    SOD22262   6.452   4.534   7.375  0.0977  0.0985  0.1024
  203SOD    SOD22263   2.857   0.788   6.068 -0.2218  0.2192 -0.1389
  204SOD    SOD22264   3.549   6.205   7.116 -0.0922  0.1332 -0.6355
  205SOD    SOD22265   3.708   5.446   1.298  0.6480 -0.1351  0.1813
  206SOD    SOD22266   0.142   3.200   1.228 -0.1010  0.0024 -0.7348
  207SOD    SOD22267   5.292   0.275   6.070 -0.4551  0.0876  0.3988
  208SOD    SOD22268   0.028   6.107   6.060 -0.1591  0.4019 -0.6054
  209SOD    SOD22269   0.916   3.828   2.120 -0.1553 -0.3469 -0.7597
  210SOD    SOD22270   6.321   3.571   6.487  0.2409 -0.0465 -0.6004
  211SOD    SOD22271   1.012   6.018   8.288  0.6205 -0.0550  0.6732
  212SOD    SOD22272   5.133   3.602   6.248 -0.0344  0.0611 -0.8779
  213SOD    SOD22273   1.906   4.630   1.161  0.5429  0.5153  0.9053
  214SOD    SOD22274   5.757   2.976   8.286 -0.1539  0.1359  0.2065
  215SOD    SOD22275   0.198   0.572   5.837 -0.0391 -0.3508 -0.4528
  216SOD    SOD22276   4.630   6.038   6.597 -0.4359 -0.5367 -0.1661
  217SOD    SOD22277   6.302   0.896   6.010  0.7864  0.0150 -0.2946
  218SOD    SOD22278   3.839   6.417   1.052 -0.3860 -0.1916  0.1810
  219SOD    SOD22279   3.017   2.298   0.130 -0.6208 -0.3830 -0.1458
  220SOD    SOD22280   3.296   1.711   8.258  0.6066 -0.1892  0.0217
  221SOD    SOD22281   3.502   2.547   0.098  0.3243  0.0570 -0.5498
  222SOD    SOD22282   2.776   0.532   6.633  0.1306 -0.1055 -0.2128
  223SOD    SOD22283   5.096   6.082   8.238 -0.2580 -0.6248  0.0439
  224SOD    SOD22284   1.527   2.934   0.948  0.4424 -0.2305  0.1429
  225SOD    SOD22285   6.781   0.867   6.987 -0.1454  0.1917  0.0724
  226SOD    SOD22286   1.543   0.468   7.254 -0.0485  0.3362  0.6312
  227SOD    SOD22287   4.876   2.700   1.932  0.0796 -0.2538 -0.0479
  228SOD    SOD22288   6.665   6.388   7.005 -0.3088  0.0559  0.8060
  229SOD    SOD22289   1.942   1.233   6.375 -0.1465  0.2156  0.1403
  230SOD    SOD22290   1.389   4.736   1.463  0.1181  0.4000 -0.1737
  231SOD    SOD22291   2.538   2.197   1.768  0.1668  1.1112  0.0326
  232SOD    SOD22292   3.023   2.789   6.578 -0.0114 -0.1701 -0.2021
  233SOD    SOD22293   0.465   1.060   7.966  0.7938  0.3334 -0.1141
  234CLA    CLA22294   5.354   6.212   7.914  0.1159 -0.1281 -0.2096
  235CLA    CLA22295   6.728   0.620   6.962  0.1443 -0.2446  0.4316
  236CLA    CLA22296   1.171   0.685   7.438  0.0574  0.0835  0.0909
  237CLA    CLA22297   5.691   0.614   0.471  0.4110 -0.3015 -0.2138
  238CLA    CLA22298   2.724   3.072   6.513  0.1682 -0.2257 -0.0847
  239CLA    CLA22299   3.760   5.035   8.288 -0.2728  0.1675  0.1241
  240CLA    CLA22300   1.451   3.387   7.129  0.6332  0.0786  0.1950
  241CLA    CLA22301   6.699   5.656   7.627 -0.0633 -0.3543 -0.0792
  242CLA    CLA22302   4.214   4.510   0.959  0.0809 -0.1044  0.4662
  243CLA    CLA22303   0.692   6.788   7.693 -0.0183  0.0736 -0.0616
  244CLA    CLA22304   4.086   2.113   7.502 -0.2114  0.0279  0.3229
  245CLA    CLA22305   5.614   3.393   0.370 -0.3622 -0.2202 -0.2395
  246CLA    CLA22306   4.275   4.438   7.229  0.3917 -0.0312  0.2131
  247CLA    CLA22307   5.529   3.596   1.131 -0.1453  0.0343 -0.0461
  248CLA    CLA22308   4.171   2.298   0.195  0.3121 -0.0414 -0.1147
  249CLA    CLA22309   3.463   3.443   0.567  0.0292  0.9383 -0.7327
  250CLA    CLA22310   2.766   4.439   7.211 -0.0783 -0.2193  0.0698
  251TIP3   OH222311   5.746   3.692   8.726  0.1820 -0.0951  0.4434
  251TIP3    H122312   5.742   3.600   8.700  1.9624 -0.0590 -0.0316
  251TIP3    H222313   5.683   3.698   8.799 -0.5330 -1.4929 -0.0075
  252TIP3   OH222314   2.263   2.797   7.505  0.4603  0.0488  0.4823
  252TIP3    H122315   2.336   2.858   7.497  0.4475  0.2030  1.4122
  252TIP3    H222316   2.304   2.712   7.523  0.4459 -0.0552  0.0319
  253TIP3   OH222317   5.094   6.028   6.684 -0.5237 -0.0444  0.2337
  253TIP3    H122318   5.140   5.958   6.639 -1.0658 -0.1874 -0.0987
  253TIP3    H222319   5.129   6.109   6.645  1.1848 -0.0476  1.6345
  254TIP3   OH222320   1.869   4.180   6.477  0.0483  0.1985 -0.6534
  254TIP3    H122321   1.845   4.271   6.461 -0.5510 -0.1357 -1.8477
  254TIP3    H222322   1.929   4.158   6.406 -0.3961 -0.5392 -0.8180
  255TIP3   OH222323   3.781   6.646   0.571  0.0367  0.1430  0.1377
  255TIP3    H122324   3.784   6.699   0.651  1.5564  0.4543 -0.0996
  255TIP3    H222325   3.706   6.588   0.584 -0.8892  1.4601  0.9636
  256TIP3   OH222326   0.724   5.859   6.761  0.0160  0.0237  0.1095
  256TIP3    H122327   0.678   5.943   6.761  0.9970  0.6023  1.4656
  256TIP3    H222328   0.680   5.808   6.830  0.0148 -0.2267 -0.0763
  257TIP3   OH222329   3.175   4.561   1.250  0.0289 -0.3615  0.1910
  257TIP3    H122330   3.232   4.512   1.191 -0.0984  1.1790 -1.2969
  257TIP3    H222331   3.232   4.627   1.290 -0.4681  0.5271 -0.5290
  258TIP3   OH222332   4.864   4.336   6.581  0.0710 -0.5950 -0.0389
  258TIP3    H122333   4.783   4.371   6.542 -0.1886  0.5799  1.4693
  258TIP3    H222334   4.903   4.283   6.512  0.2203  2.2612 -2.3278
  259TIP3   OH222335   1.861   0.036   8.810 -0.0521  0.4879 -0.1311
  259TIP3    H122336   1.829  -0.054   8.820  1.0115  0.0043 -0.8766
  259TIP3    H222337   1.920   0.032   8.735  0.5345  1.6695  0.2422
  260TIP3   OH222338   3.657   6.380   1.213  0.9093 -0.1831  0.0711
  260TIP3    H122339   3.646   6.395   1.307 -1.0896 -0.7324 -0.0408
  260TIP3    H222340   3.573   6.347   1.183  1.4497  0.1096 -1.9657
  261TIP3   OH222341   4.743   4.854   6.682 -0.1114 -0.5006  0.5730
  261TIP3    H122342   4.787   4.813   6.757  1.1463 -1.6492 -0.7288
  261TIP3    H222343   4.797   4.829   6.607 -2.0013 -0.3962 -0.8760
  262TIP3   OH222344   3.628   0.213   6.867 -0.2043 -0.0580 -0.8764
  262TIP3    H122345   3.548   0.199   6.816 -0.6812 -1.4277  0.2092
  262TIP3    H222346   3.599   0.215   6.958  0.9361  0.0326 -0.4969
  263TIP3   OH222347   2.782   1.125   8.277 -0.3917 -0.3811 -0.7956
  263TIP3    H122348   2.825   1.098   8.195 -3.9660 -1.3522 -2.5550
  263TIP3    H222349   2.760   1.042   8.320  2.4049  0.1130  1.8716
  264TIP3   OH222350   5.569   1.690   0.482 -0.1184 -0.2651  0.3454
  264TIP3    H122351   5.652   1.735   0.468  0.0383 -0.5260  0.4336
  264TIP3    H222352   5.546   1.656   0.396  0.1004 -0.5924  0.4152
  265TIP3   OH222353   3.577   0.763   1.289  0.3154  0.1889 -0.2299
  265TIP3    H122354   3.614   0.675   1.300  1.4942  0.9003  2.2816
  265TIP3    H222355   3.493   0.760   1.334  0.7642  0.5658  0.6486
  266TIP3   OH222356   6.307   0.847   0.489  0.3846  0.1106  0.0064
  266TIP3    H122357   6.278   0.779   0.549 -0.2574  0.0418 -0.3762
  266TIP3    H222358   6.375   0.894   0.537  0.1335 -0.1739  0.6426
  267TIP3   OH222359   3.150   3.904   0.608 -0.2111  0.3231  0.2860
  267TIP3    H122360   3.185   3.984   0.649  0.0315 -0.1113  0.9500
  267TIP3    H222361   3.228   3.855   0.582 -0.3657  0.6468 -0.8223
  268TIP3   OH222362   4.818   2.668   8.507 -0.4135  0.0993  0.1119
  268TIP3    H122363   4.750   2.714   8.458 -1.0787 -0.2879  0.6540
  268TIP3    H222364   4.789   2.673   8.598  0.0896 -0.4099  0.3019
  269TIP3   OH222365   6.297   6.069   2.001  0.5900 -0.1764  0.2242
  269TIP3    H122366   6.335   6.039   1.919  2.5281 -1.9508  1.6790
  269TIP3    H222367   6.317   6.000   2.064 -1.7493  0.6336  1.9918
  270TIP3   OH222368   3.029   2.783   7.292  0.2262 -0.0114  0.0100
  270TIP3    H122369   3.072   2.740   7.218 -0.5037 -0.5450 -0.1080
  270TIP3    H222370   3.007   2.871   7.260  2.4821  0.8128  0.5155
  271TIP3   OH222371   5.231   2.547   7.658 -0.3111  0.0003  0.0488
  271TIP3    H122372   5.200   2.611   7.722 -1.7449 -0.2117 -0.3947
  271TIP3    H222373   5.233   2.596   7.576  0.6263  0.0262  0.0847
  272TIP3   OH222374   6.052   0.721   7.486 -0.0625  0.3712  0.7668
  272TIP3    H122375   6.091   0.720   7.399  1.3156  2.8608  1.2569
  272TIP3    H222376   5.958   0.731   7.471 -0.1717 -1.7954 -0.3940
  273TIP3   OH222377   3.287   3.647   1.354  0.6705 -0.0912  0.4228
  273TIP3    H122378   3.206   3.609   1.387  0.7835 -1.1018 -0.3955
  273TIP3    H222379   3.260   3.699   1.278  0.7284  0.0018  0.4651
  274TIP3   OH222380   5.895   2.410   7.916 -0.2884  0.1094  0.0658
  274TIP3    H122381   5.855   2.393   7.830 -0.6031 -0.0996  0.2536
  274TIP3    H222382   5.933   2.327   7.943 -0.9605 -0.0529  0.5291
  275TIP3   OH222383   3.418   2.106   6.856  0.0783 -0.5167  0.0226
  275TIP3    H122384   3.392   2.133   6.768  0.5353  0.7069  0.2374
  275TIP3    H222385   3.362   2.031   6.876 -1.5241  0.4810 -0.5061
  276TIP3   OH222386   3.219   4.187   6.837 -0.2007 -0.0651  0.2817
  276TIP3    H122387   3.230   4.092   6.832  1.5378  0.0588  1.0043
  276TIP3    H222388   3.129   4.202   6.808 -0.5148 -1.9208  0.1461
  277TIP3   OH222389   0.674   4.317   8.145  0.1631  0.1084 -0.1262
  277TIP3    H122390   0.654   4.382   8.078  0.9404  0.1632 -0.3148
  277TIP3    H222391   0.764   4.338   8.173  0.4804 -0.9807 -0.3054
  278TIP3   OH222392   1.589   3.711   0.440 -0.9299 -0.2714  0.5939
  278TIP3    H122393   1.587   3.684   0.532  1.4494  1.7976  1.3675
  278TIP3    H222394   1.643   3.645   0.397 -0.9264 -0.5198  0.9686
  279TIP3   OH222395   3.333   6.074   0.953 -0.4228 -0.6159 -0.0710
  279TIP3    H122396   3.422   6.057   0.985 -0.2346 -2.7414 -1.5329
  279TIP3    H222397   3.328   6.028   0.870 -2.1548  1.4607 -1.2298
  280TIP3   OH222398   2.315   1.625   1.008 -0.1659 -0.1571  0.0365
  280TIP3    H122399   2.255   1.551   1.014 -1.2257  0.5525 -1.1373
  280TIP3    H222400   2.342   1.642   1.098 -1.8038 -0.4528  0.6162
  281TIP3   OH222401   4.488   3.716   0.480  0.0931  0.1286 -0.1881
  281TIP3    H122402   4.430   3.779   0.522 -0.3587 -1.1220  1.1778
  281TIP3    H222403   4.562   3.708   0.539  0.8439  0.4379 -1.0701
  282TIP3   OH222404   0.391   0.908   8.625 -0.0959 -0.5061 -0.1629
  282TIP3    H122405   0.445   0.985   8.642 -0.4966 -0.5637  1.5388
  282TIP3    H222406   0.374   0.871   8.712 -0.1162 -2.3801 -0.9102
  283TIP3   OH222407   1.671   6.599   8.622 -0.4339 -0.1067  0.0033
  283TIP3    H122408   1.719   6.587   8.704  0.1558 -3.6302 -0.6954
  283TIP3    H222409   1.739   6.621   8.558 -0.5626  0.3425  0.0186
  284TIP3   OH222410   1.687   3.701   7.930 -0.4044  0.3165  0.6716
  284TIP3    H122411   1.670   3.651   7.850  2.7906 -1.6494  1.0633
  284TIP3    H222412   1.724   3.784   7.898  1.6590 -0.7833 -0.0150
  285TIP3   OH222413   1.182   6.085   0.184  0.3186 -0.0557 -0.3615
  285TIP3    H122414   1.187   6.000   0.229 -0.2934  0.5978  0.9974
  285TIP3    H222415   1.107   6.077   0.126  0.3852 -0.5163 -0.3872
  286TIP3   OH222416   3.116   1.779   0.411  0.2584  0.3108  0.4541
  286TIP3    H122417   3.038   1.819   0.373  0.2940 -1.0464 -1.1126
  286TIP3    H222418   3.184   1.791   0.345  0.9362 -0.0479  1.0739
  287TIP3   OH222419   3.584   5.455   6.347 -0.0739 -0.6086  0.3619
  287TIP3    H122420   3.642   5.398   6.396 -0.5928 -1.9910 -0.5635
  287TIP3    H222421   3.546   5.514   6.413  1.4540 -0.4497  1.1382
  288TIP3   OH222422   0.201   3.865   7.323 -0.6736 -0.2708  0.5491
  288TIP3    H122423   0.272   3.825   7.273 -0.1336 -1.5035  2.2021
  288TIP3    H222424   0.148   3.911   7.258  2.2829  1.7776 -0.6458
  289TIP3   OH222425   1.423   5.500   7.605 -0.4486 -0.0715 -0.1495
  289TIP3    H122426   1.399   5.559   7.533 -1.0384 -0.9455 -0.6796
  289TIP3    H222427   1.518   5.501   7.606 -0.4006 -0.8504 -1.6331
  290TIP3   OH222428   6.671   2.582   7.613  0.5216  0.3147 -0.6554
  290TIP3    H122429   6.580   2.606   7.630  0.2582  0.4232 -2.1238
  290TIP3    H222430   6.678   2.492   7.646 -0.1049  0.3208 -0.4870
  291TIP3   OH222431   3.935   4.637   7.877  0.1751  0.5585 -0.4602
  291TIP3    H122432   3.993   4.691   7.823 -1.0039  1.9831 -0.3456
  291TIP3    H222433   3.957   4.662   7.967 -1.7126  2.3514 -0.4448
  292TIP3   OH222434   3.612   5.105   6.699 -0.4535  0.0136  0.2641
  292TIP3    H122435   3.667   5.134   6.772  1.6445 -2.2015 -0.2811
  292TIP3    H222436   3.642   5.157   6.624 -1.2328  0.9046  0.5566
  293TIP3   OH222437   3.475   3.902   7.375 -0.1503 -0.2857 -0.3919
  293TIP3    H122438   3.395   3.883   7.325 -0.5096 -0.4517  0.2400
  293TIP3    H222439   3.444   3.944   7.455  0.2098 -2.5392  0.9930
  294TIP3   OH222440   3.394   6.502   7.388 -0.4385 -0.7395  0.7629
  294TIP3    H122441   3.459   6.536   7.326 -1.1749 -2.9406 -1.3628
  294TIP3    H222442   3.429   6.526   7.474  0.8249  2.1397 -0.4058
  295TIP3   OH222443   1.968   1.044   7.631  0.5697  0.1598 -0.1112
  295TIP3    H122444   1.879   1.077   7.643  0.4885  0.1421 -0.6167
  295TIP3    H222445   2.011   1.058   7.715  0.7592  2.2419 -0.5004
  296TIP3   OH222446   2.828   5.134   0.377  0.0273 -0.3800  0.0280
  296TIP3    H122447   2.858   5.069   0.315 -0.0292 -1.1891  0.8292
  296TIP3    H222448   2.738   5.108   0.398 -0.3156  0.4799 -0.3261
  297TIP3   OH222449   1.923   1.830   1.742 -0.4016  0.4958  0.3287
  297TIP3    H122450   1.857   1.781   1.791  0.0592  0.6214  1.0992
  297TIP3    H222451   1.880   1.914   1.722 -0.6250  0.4091  0.4377
  298TIP3   OH222452   1.378   5.531   8.448  0.0946 -0.7878 -0.5707
  298TIP3    H122453   1.424   5.605   8.487 -0.0509  0.5623 -2.8068
  298TIP3    H222454   1.446   5.480   8.405 -0.1018 -0.4321 -1.3294
  299TIP3   OH222455   3.697   3.009   1.241  0.1660 -0.0511  0.5113
  299TIP3    H122456   3.627   2.994   1.303  0.7362  0.6769  1.3565
  299TIP3    H222457   3.663   3.076   1.181  0.0023  0.0315  0.6968
  300TIP3   OH222458   5.140   5.526   0.097  0.3935  0.1479 -0.2679
  300TIP3    H122459   5.076   5.544   0.166 -0.1080 -1.9718 -0.1038
  300TIP3    H222460   5.204   5.597   0.104  0.1194  0.2408  2.0929
  301TIP3   OH222461   3.134   1.205   1.052  0.2579  0.5654 -0.3213
  301TIP3    H122462   3.115   1.287   1.098 -0.7018 -0.6501  1.5926
  301TIP3    H222463   3.098   1.137   1.109 -0.2174 -1.1285 -2.5089
  302TIP3   OH222464   2.897   3.232   6.989 -0.1422 -0.1127 -0.1463
  302TIP3    H122465   2.821   3.202   6.940  0.5363 -1.0664 -0.6527
  302TIP3    H222466   2.935   3.302   6.936 -1.0627  0.8730  0.4631
  303TIP3   OH222467   2.606   2.028   1.066  0.1257  0.3760  0.6058
  303TIP3    H122468   2.526   2.030   1.013  1.0676  0.8382 -0.8699
  303TIP3    H222469   2.608   2.112   1.111 -0.2910  0.3077  0.7485
  304TIP3   OH222470   4.858   5.061   0.468 -0.1342 -0.4444 -0.0640
  304TIP3    H122471   4.770   5.092   0.490 -0.7162 -1.8579 -0.2616
  304TIP3    H222472   4.883   5.110   0.391 -0.7684 -0.0375 -0.0181
  305TIP3   OH222473   6.321   6.563   1.034 -0.1346 -0.0389  0.3303
  305TIP3    H122474   6.298   6.502   1.105 -1.5563 -0.1044 -0.1652
  305TIP3    H222475   6.363   6.636   1.079 -1.1457 -0.0142  1.2722
  306TIP3   OH222476   6.652   1.856   1.339  0.3626  0.3862 -0.3575
  306TIP3    H122477   6.628   1.802   1.414  1.5780 -0.0745 -0.2754
  306TIP3    H222478   6.568   1.884   1.302 -0.2951 -1.0789 -0.0519
  307TIP3   OH222479   2.888   4.641   0.769 -0.3782 -0.3182 -0.4786
  307TIP3    H122480   2.903   4.725   0.813  0.1109 -0.6345 -0.0342
  307TIP3    H222481   2.856   4.583   0.838  0.8572 -0.9515 -0.4204
  308TIP3   OH222482   6.526   4.066   1.840  0.4644 -0.1707 -0.2405
  308TIP3    H122483   6.544   4.021   1.923  3.3923  0.9002 -0.1679
  308TIP3    H222484   6.522   4.159   1.864  2.6436  0.2835 -1.3699
  309TIP3   OH222485   1.790   6.238   1.192  0.0038  0.1001 -0.3000
  309TIP3    H122486   1.848   6.315   1.192 -0.2468  0.2895 -0.0270
  309TIP3    H222487   1.779   6.217   1.284  2.0552 -1.7706 -0.3822
  310TIP3   OH222488   0.903   1.046   0.185  0.3262  0.5786  0.1189
  310TIP3    H122489   0.869   1.016   0.101  0.6455 -1.1789  0.5773
  310TIP3    H222490   0.996   1.060   0.170  0.8899 -2.0351  0.6848
  311TIP3   OH222491   5.572   1.200   7.444  0.0688 -0.2095 -0.3954
  311TIP3    H122492   5.563   1.226   7.353 -1.3056 -1.1559 -0.5580
  311TIP3    H222493   5.661   1.226   7.468  1.1975 -1.7864 -2.5857
  312TIP3   OH222494   0.899   6.696   0.150 -0.4340 -0.6026  0.0514
  312TIP3    H122495   0.950   6.634   0.098  0.2800 -0.5198  0.6355
  312TIP3    H222496   0.851   6.748   0.085 -1.0135 -1.7231 -0.4449
  313TIP3   OH222497   1.819   1.930   0.495  0.6584  0.6439  0.0213
  313TIP3    H122498   1.780   1.909   0.579  0.7856  0.9940  0.1683
  313TIP3    H222499   1.860   2.015   0.507  1.8825  0.0856  0.0093
  314TIP3   OH222500   6.517   2.734   6.582 -0.1957  0.0671  0.4769
  314TIP3    H122501   6.500   2.825   6.558  1.0956 -0.1051 -1.3906
  314TIP3    H222502   6.444   2.685   6.544  0.4103  0.0912 -0.7575
  315TIP3   OH222503   6.374   1.928   7.013  0.3237 -0.3069 -0.7125
  315TIP3    H122504   6.457   1.971   6.991  1.3876 -2.4734 -1.1618
  315TIP3    H222505   6.399   1.846   7.055 -1.6269 -0.7022 -0.2116
  316TIP3   OH222506   4.297   5.554   7.309  1.1155 -0.8284 -0.4984
  316TIP3    H122507   4.345   5.479   7.275  2.1479 -0.2877 -0.2758
  316TIP3    H222508   4.351   5.630   7.285 -0.1792 -0.0975 -1.2175
  317TIP3   OH222509   3.675   2.457   1.102  0.1851  0.0489 -0.0805
  317TIP3    H122510   3.595   2.433   1.150 -0.5588  2.5004  0.0607
  317TIP3    H222511   3.652   2.539   1.058  3.0985  1.7091  1.2288
  318TIP3   OH222512   5.185   5.535   0.684 -0.3189  0.0878  0.8920
  318TIP3    H122513   5.249   5.606   0.675 -0.3531 -0.0542 -0.7985
  318TIP3    H222514   5.103   5.579   0.704 -0.0731  0.4246  1.1780
  319TIP3   OH222515   5.241   5.662   6.069 -0.4158  0.5498  0.5375
  319TIP3    H122516   5.150   5.660   6.100 -0.0398 -0.7987  1.6464
  319TIP3    H222517   5.291   5.693   6.144  0.1643  0.1813  0.3081
  320TIP3   OH222518   2.018   0.483   7.036  0.2672  0.2785  0.0319
  320TIP3    H122519   2.057   0.420   6.975 -0.6721 -0.4122  0.1263
  320TIP3    H222520   1.949   0.526   6.986  1.2285  1.6224 -0.1857
  321TIP3   OH222521   3.873   3.028   1.782 -0.2994 -0.2887 -0.4433
  321TIP3    H122522   3.873   2.961   1.850 -0.8664 -0.1156 -0.2713
  321TIP3    H222523   3.965   3.056   1.776 -0.6091  1.7190  2.2583
  322TIP3   OH222524   1.340   4.023   0.472  0.2283  0.6028  0.1991
  322TIP3    H122525   1.372   3.956   0.411  0.1726 -0.2573  1.0957
  322TIP3    H222526   1.258   4.052   0.434  0.1158 -0.0390 -0.0592
  323TIP3   OH222527   1.983   0.193   8.404 -0.3506 -0.5936 -0.8786
  323TIP3    H122528   1.910   0.240   8.444  2.5877  2.8361  1.0407
  323TIP3    H222529   2.006   0.126   8.468 -0.2583  0.0495 -0.2154
  324TIP3   OH222530   4.494   5.159   0.830  0.1783 -0.0715  0.4912
  324TIP3    H122531   4.520   5.129   0.917  1.3916  0.7293  0.4287
  324TIP3    H222532   4.565   5.130   0.773 -0.2898 -0.0155 -0.1241
  325TIP3   OH222533   2.033   2.488   0.653 -0.0856 -0.2055  0.5646
  325TIP3    H122534   2.083   2.551   0.704 -0.3307 -1.6382  2.7061
  325TIP3    H222535   1.941   2.511   0.669 -0.1550 -0.3173  0.3304
  326TIP3   OH222536   4.730   4.411   0.473 -0.4413 -0.2658 -0.2178
  326TIP3    H122537   4.795   4.362   0.423 -0.3020 -1.2560  0.8860
  326TIP3    H222538   4.766   4.500   0.479  1.4217 -1.0440  1.3310
  327TIP3   OH222539   6.694   2.225   6.428  0.0732  0.6317  0.0452
  327TIP3    H122540   6.741   2.307   6.446 -0.8469  1.1344  0.2345
  327TIP3    H222541   6.607   2.253   6.400 -0.1247 -0.2798 -0.2838
  328TIP3   OH222542   4.813   2.034   7.918 -0.5339 -0.5637 -0.0272
  328TIP3    H122543   4.727   2.005   7.886 -1.0099  0.4206  0.3169
  328TIP3    H222544   4.793   2.096   7.987  0.4477  0.2956 -0.4885
  329TIP3   OH222545   5.011   6.617   1.346  0.1800 -0.2906  0.1030
  329TIP3    H122546   4.965   6.535   1.361 -0.8662  0.3693  0.6966
  329TIP3    H222547   5.095   6.606   1.390  0.0129 -1.0074  0.2547
  330TIP3   OH222548   5.337   6.051   0.893 -0.6704  0.0061 -0.2204
  330TIP3    H122549   5.352   6.134   0.847 -0.7559 -0.2760 -0.7670
  330TIP3    H222550   5.249   6.059   0.930 -1.0124 -0.1554 -0.9736
  331TIP3   OH222551   5.293   5.699   8.080  0.5153 -0.4322  0.3115
  331TIP3    H122552   5.230   5.665   8.145  0.1385 -1.1791 -0.4193
  331TIP3    H222553   5.250   5.684   7.996  0.5950  1.3910 -0.0782
  332TIP3   OH222554   2.261   3.851   6.915  0.3594 -0.2885 -0.2826
  332TIP3    H122555   2.351   3.855   6.949  0.8293 -2.1701 -1.2182
  332TIP3    H222556   2.266   3.893   6.829  0.2390 -0.0206 -0.1609
  333TIP3   OH222557   5.649   4.958   1.100 -0.1751 -0.1460  0.6449
  333TIP3    H122558   5.716   5.026   1.109  2.0395 -2.1798  0.4206
  333TIP3    H222559   5.588   4.993   1.036  1.1196  1.4736  0.2279
  334TIP3   OH222560   0.082   0.889   6.464 -0.6275  0.4761 -0.0361
  334TIP3    H122561   0.149   0.847   6.518  0.9015  1.8021 -0.8227
  334TIP3    H222562   0.114   0.881   6.375 -1.0848  1.8693 -0.3529
  335TIP3   OH222563   4.308   6.345   0.830 -0.5605  0.4603  0.3726
  335TIP3    H122564   4.400   6.359   0.809 -0.7623  2.1646  0.5356
  335TIP3    H222565   4.274   6.297   0.754  0.0044  1.6148 -0.6430
  336TIP3   OH222566   1.853   4.636   6.036 -0.1176 -0.0715 -0.2574
  336TIP3    H122567   1.917   4.650   6.106  1.0832 -2.1867 -0.8363
  336TIP3    H222568   1.825   4.724   6.011  4.0808  1.2006 -1.3546
  337TIP3   OH222569   3.903   5.168   8.038 -0.5129  0.0702  0.3983
  337TIP3    H122570   3.864   5.134   8.118 -0.7328  0.8486  0.6287
  337TIP3    H222571   3.986   5.206   8.066 -0.6538  0.4679  0.2821
  338TIP3   OH222572   4.323   6.157   7.332 -0.0101 -0.0246  0.3481
  338TIP3    H122573   4.384   6.198   7.393  0.5741 -1.8363  1.0560
  338TIP3    H222574   4.339   6.201   7.248  1.9671 -0.1445  0.6213
  339TIP3   OH222575   1.000   1.868   7.950 -0.0530  0.5026  0.0105
  339TIP3    H122576   0.976   1.781   7.920 -0.2307  0.6572 -0.2988
  339TIP3    H222577   1.046   1.908   7.877 -2.3701  1.6707 -0.9262
  340TIP3   OH222578   1.140   3.318   0.542  0.0346 -0.5676 -0.2598
  340TIP3    H122579   1.064   3.287   0.493 -0.5386 -0.3187  0.4429
  340TIP3    H222580   1.103   3.373   0.611  0.9955  1.4790 -1.2829
  341TIP3   OH222581   1.738   4.564   1.498  0.7043  0.4456  0.2462
  341TIP3    H122582   1.671   4.631   1.482 -1.0711 -1.4549 -0.7974
  341TIP3    H222583   1.816   4.597   1.454 -0.9315  0.5474 -2.8707
  342TIP3   OH222584   0.087   5.663   0.000 -0.1726  0.3173  0.2496
  342TIP3    H122585   0.107   5.749   0.038  2.5013 -0.4257  0.7336
  342TIP3    H222586   0.081   5.679  -0.094  0.0419  1.0751  0.3599
  343TIP3   OH222587   6.409   2.609   8.773  0.9865  0.0768  0.6939
  343TIP3    H122588   6.380   2.601   8.682 -1.4329 -1.4178  1.5045
  343TIP3    H222589   6.415   2.519   8.805  2.0374  0.5580  1.9735
  344TIP3   OH222590   0.223   3.555   8.547  0.1942 -0.2045  0.6807
  344TIP3    H122591   0.259   3.615   8.482  0.1908  1.4199  2.1137
  344TIP3    H222592   0.225   3.604   8.629 -0.2230 -2.0248  1.8396
  345TIP3   OH222593   2.496   2.917   0.712  0.6956 -0.4104  0.5363
  345TIP3    H122594   2.565   2.962   0.761  1.4400  0.1786 -0.9623
  345TIP3    H222595   2.481   2.973   0.635 -1.6848 -0.3799  0.9469
  346TIP3   OH222596   3.661   2.666   0.270 -0.4723 -0.7503 -0.4853
  346TIP3    H122597   3.724   2.608   0.313 -1.4983 -1.6300 -0.1315
  346TIP3    H222598   3.712   2.745   0.249  0.1640 -0.4161  2.0268
  347TIP3   OH222599   5.602   3.275   8.636  0.3679  0.0725 -0.1158
  347TIP3    H122600   5.614   3.357   8.684 -0.3627 -0.3540  0.8387
  347TIP3    H222601   5.603   3.208   8.704  2.7366 -0.9324 -1.0374
  348TIP3   OH222602   4.708   3.811   8.293  0.3099 -0.8083 -0.0093
  348TIP3    H122603   4.757   3.730   8.285 -2.6430 -2.7190 -0.0218
  348TIP3    H222604   4.704   3.828   8.387  1.5303 -0.2313 -0.0435
  349TIP3   OH222605   0.215   3.485   0.385 -0.2206 -0.1965  0.1126
  349TIP3    H122606   0.212   3.418   0.317  0.0344  0.5413 -0.6381
  349TIP3    H222607   0.184   3.565   0.342 -1.0335  0.0590  1.1367
  350TIP3   OH222608   4.518   0.888   6.209  0.1344 -0.0695 -0.2951
  350TIP3    H122609   4.544   0.817   6.152  1.6617 -0.1703  0.4494
  350TIP3    H222610   4.600   0.914   6.253 -1.1667 -1.0871  3.0424
  351TIP3   OH222611   4.619   0.782   8.668 -0.1028  0.3377 -0.0088
  351TIP3    H122612   4.673   0.728   8.610 -0.8645 -0.2703 -0.1719
  351TIP3    H222613   4.572   0.719   8.723 -3.9710  0.4591 -2.7543
  352TIP3   OH222614   1.702   3.878   8.690  0.1523 -1.0630 -0.2739
  352TIP3    H122615   1.771   3.875   8.756  0.0677  1.4524  0.0403
  352TIP3    H222616   1.712   3.964   8.649 -2.2894 -0.9187 -0.7408
  353TIP3   OH222617   3.512   2.556   0.477 -0.7271 -0.3589 -0.2774
  353TIP3    H122618   3.557   2.507   0.546 -0.4937 -0.1115 -0.2504
  353TIP3    H222619   3.577   2.619   0.446 -0.9502 -0.2186 -0.4679
  354TIP3   OH222620   2.788   1.138   0.401  0.1170 -0.1071 -0.3067
  354TIP3    H122621   2.735   1.061   0.422  0.1864 -0.5400 -1.6297
  354TIP3    H222622   2.863   1.103   0.352  0.3529  0.7568 -0.5783
  355TIP3   OH222623   6.596   2.993   7.156  0.4078 -0.1553 -0.0310
  355TIP3    H122624   6.621   2.919   7.100 -1.9480 -0.6934 -0.4465
  355TIP3    H222625   6.638   3.069   7.115 -0.4854 -0.6735 -2.0155
  356TIP3   OH222626   3.769   1.310   7.899 -0.5269  0.2559 -0.2805
  356TIP3    H122627   3.777   1.380   7.835  0.8527  1.0364  0.7086
  356TIP3    H222628   3.722   1.240   7.852 -1.1357  1.4729 -1.5520
  357TIP3   OH222629   3.645   2.729   6.332  0.0808 -0.4710 -0.2470
  357TIP3    H122630   3.592   2.728   6.411  0.5750 -0.3888  0.0866
  357TIP3    H222631   3.704   2.803   6.343 -1.9146  1.5656 -2.0836
  358TIP3   OH222632   3.750   0.791   1.554  0.9451  0.0972  0.4464
  358TIP3    H122633   3.845   0.785   1.553  0.9992  0.7910  0.9059
  358TIP3    H222634   3.728   0.843   1.477  0.8712 -0.8334 -0.1718
  359TIP3   OH222635   5.055   6.675   6.042 -0.3730 -0.1730 -0.0550
  359TIP3    H122636   4.976   6.661   6.095 -0.6728 -0.6966 -0.6335
  359TIP3    H222637   5.022   6.691   5.954  0.1620 -0.2654 -0.2751
  360TIP3   OH222638   5.632   0.550   8.357  0.0400 -0.2143  0.2201
  360TIP3    H122639   5.597   0.609   8.290 -0.8098  1.6324  2.1510
  360TIP3    H222640   5.712   0.514   8.318 -0.8667  0.0810 -2.0780
  361TIP3   OH222641   4.072   3.526   7.861  0.7073 -0.5418 -0.1941
  361TIP3    H122642   4.112   3.587   7.799  0.2112  1.3882  1.2857
  361TIP3    H222643   3.984   3.561   7.876  0.1874 -1.9695  0.2778
  362TIP3   OH222644   1.912   6.390   7.696 -0.7574 -0.1745  0.4191
  362TIP3    H122645   1.950   6.475   7.673 -0.9328  0.2401  1.5935
  362TIP3    H222646   1.864   6.363   7.618  0.3477  0.2043 -0.4070
  363TIP3   OH222647   5.813   0.666   0.198 -0.2070  0.1538 -0.0686
  363TIP3    H122648   5.783   0.628   0.280  1.2511  1.3316  1.0655
  363TIP3    H222649   5.900   0.700   0.217  0.7657 -0.7381 -2.4764
  364TIP3   OH222650   6.677   6.173   7.431 -0.2910 -0.0488  0.1815
  364TIP3    H122651   6.723   6.152   7.511  0.6370  0.5081 -0.1855
  364TIP3    H222652   6.657   6.088   7.391 -0.1160 -0.3065  0.6371
  365TIP3   OH222653   1.355   2.607   5.879 -0.1787 -0.4109  0.1923
  365TIP3    H122654   1.377   2.531   5.933 -0.7234 -1.7352 -1.3648
  365TIP3    H222655   1.272   2.639   5.914 -0.5992 -1.3452  0.0764
  366TIP3   OH222656   0.079   6.456   6.909 -0.2980  0.4088  0.3928
  366TIP3    H122657   0.108   6.534   6.862 -0.1182 -0.7531 -1.5510
  366TIP3    H222658   0.143   6.389   6.887 -1.4695 -0.7828  0.4646
  367TIP3   OH222659   0.103   6.018   6.247 -0.2233 -0.0495 -0.2422
  367TIP3    H122660   0.188   6.010   6.289  0.0445 -2.1033 -1.0920
  367TIP3    H222661   0.040   6.014   6.320  0.3594  1.6426  0.4028
  368TIP3   OH222662   2.304   6.290   7.768 -0.1421 -0.1223 -0.2533
  368TIP3    H122663   2.307   6.194   7.763 -2.7632 -0.2328 -1.6773
  368TIP3    H222664   2.271   6.309   7.855  1.0602 -0.4353  0.2949
  369TIP3   OH222665   2.720   5.536   8.391  0.0327  0.1119 -0.4365
  369TIP3    H122666   2.729   5.612   8.334  1.5770 -0.2648 -0.7308
  369TIP3    H222667   2.643   5.490   8.357 -2.2263  2.5347  1.0043
  370TIP3   OH222668   3.225   2.233   0.593 -0.1554  0.3780  0.2142
  370TIP3    H122669   3.313   2.198   0.610 -0.3941 -0.1279  0.4205
  370TIP3    H222670   3.239   2.327   0.579  0.4275  0.2888  0.1763
  371TIP3   OH222671   2.783   5.142   7.154 -0.0555  0.5918  0.1570
  371TIP3    H122672   2.774   5.052   7.123 -3.2788  0.6911  0.4910
  371TIP3    H222673   2.878   5.155   7.161  0.5444 -2.6599 -0.1235
  372TIP3   OH222674   5.186   2.081   8.262 -0.0419 -0.3684 -0.3021
  372TIP3    H122675   5.147   2.013   8.317  0.5672 -0.9395 -0.5630
  372TIP3    H222676   5.200   2.155   8.321  0.7180 -1.0160  0.3462
  373TIP3   OH222677   6.722   5.985   0.217 -0.1591  0.3596  0.3322
  373TIP3    H122678   6.795   5.952   0.268  0.0835  1.4109  0.6760
  373TIP3    H222679   6.762   6.032   0.144 -0.4171  2.3827  1.4148
  374TIP3   OH222680   0.826   2.347   8.135  0.0923 -0.1473 -0.1875
  374TIP3    H122681   0.856   2.269   8.090 -1.9326  0.1002 -2.1193
  374TIP3    H222682   0.739   2.325   8.167 -0.4328  1.2117 -0.5780
  375TIP3   OH222683   4.422   5.511   8.059 -0.1774 -0.0611 -0.4030
  375TIP3    H122684   4.364   5.499   7.984 -0.5120  0.9949 -0.3333
  375TIP3    H222685   4.373   5.569   8.118  1.1146  1.2615 -0.5603
  376TIP3   OH222686   6.354   5.139   7.853  0.6612  0.4399  0.4270
  376TIP3    H122687   6.279   5.138   7.912  1.2509 -2.1886  1.2554
  376TIP3    H222688   6.356   5.228   7.817 -2.5201  0.7284  0.7408
  377TIP3   OH222689   6.039   1.959   0.376  0.4658 -0.1931 -0.6776
  377TIP3    H122690   5.981   1.899   0.329  0.2248  0.1642 -0.8428
  377TIP3    H222691   6.002   2.046   0.359 -0.3407 -0.1190  1.1145
  378TIP3   OH222692   4.073   3.347   1.127 -0.2865  0.6026 -0.5240
  378TIP3    H122693   4.014   3.422   1.113 -0.6145  0.1780 -1.4991
  378TIP3    H222694   4.083   3.342   1.222 -1.2346  1.1434 -0.3806
  379TIP3   OH222695   0.102   3.181   0.354 -0.1676  0.0771  0.7364
  379TIP3    H122696   0.142   3.188   0.440  1.7711  1.0870 -0.1742
  379TIP3    H222697   0.101   3.088   0.334  0.7394 -0.0451  1.2529
  380TIP3   OH222698   2.637   3.464   1.665  0.2499 -0.4322 -0.2586
  380TIP3    H122699   2.628   3.418   1.748 -2.2963  1.0865  0.4016
  380TIP3    H222700   2.573   3.421   1.607 -2.1030  2.0125  0.3391
  381TIP3   OH222701   1.364   4.711   8.353 -0.1310  0.1686 -0.3899
  381TIP3    H122702   1.364   4.629   8.303  1.5230 -0.1553  0.0786
  381TIP3    H222703   1.401   4.776   8.293  1.3801 -0.1108  0.2059
  382TIP3   OH222704   3.649   4.881   7.077 -0.3767  0.0554  0.1431
  382TIP3    H122705   3.670   4.893   7.170  2.3082  0.6476 -0.4774
  382TIP3    H222706   3.658   4.787   7.063  0.3939  0.1161  0.2222
  383TIP3   OH222707   2.729   3.479   8.587 -0.0224  0.2380  0.2224
  383TIP3    H122708   2.810   3.446   8.548  0.7831  1.8346  0.4194
  383TIP3    H222709   2.742   3.468   8.681 -0.6337 -0.7429  0.2055
  384TIP3   OH222710   3.209   3.810   7.476 -0.2669 -0.0312 -0.0161
  384TIP3    H122711   3.198   3.864   7.554 -0.4036  0.9175 -0.6828
  384TIP3    H222712   3.187   3.867   7.403  0.8240 -0.5948 -0.8255
  385TIP3   OH222713   3.248   3.236   0.908  0.5580  0.2130  0.4228
  385TIP3    H122714   3.169   3.255   0.960  0.7086 -0.4080  0.8947
  385TIP3    H222715   3.269   3.319   0.865 -1.5110 -0.0968 -1.3255
  386TIP3   OH222716   6.175   5.260   8.393  0.2290  0.0499  0.4930
  386TIP3    H122717   6.246   5.289   8.336 -0.6661 -1.8655 -1.7682
  386TIP3    H222718   6.218   5.210   8.462  1.3279  2.2983  1.5261
  387TIP3   OH222719   2.018   4.161   0.167 -0.5095  0.1343 -0.3150
  387TIP3    H122720   1.984   4.229   0.109 -1.5018 -0.9673 -1.0981
  387TIP3    H222721   1.959   4.163   0.243  0.9172  1.7187  0.8242
  388TIP3   OH222722   3.328   3.613   7.833  0.0979 -0.0698  0.8972
  388TIP3    H122723   3.362   3.525   7.853 -0.2956  0.1311  2.6723
  388TIP3    H222724   3.234   3.604   7.846 -0.1323  0.2387 -0.5081
  389TIP3   OH222725   4.384   4.213   2.008 -0.0872  0.9133 -0.0277
  389TIP3    H122726   4.407   4.151   1.940  1.0011  1.2700 -0.0027
  389TIP3    H222727   4.292   4.234   1.992  0.4183  1.7964 -2.0546
  390TIP3   OH222728   3.695   3.103   8.530 -0.5038  0.1824  0.1074
  390TIP3    H122729   3.726   3.035   8.471 -0.9322  0.6789 -0.7105
  390TIP3    H222730   3.701   3.064   8.617  2.5706  0.2796  0.0659
  391TIP3   OH222731   6.084   1.333   8.314 -0.1086 -0.6690 -0.0789
  391TIP3    H122732   6.031   1.308   8.390  0.9615 -0.0667  0.8924
  391TIP3    H222733   6.039   1.293   8.240 -1.6336 -0.5956  0.7649
  392TIP3   OH222734   4.207   0.757   1.341  0.0027  0.4332 -0.3137
  392TIP3    H122735   4.144   0.813   1.387 -0.6155 -1.4300  1.2270
  392TIP3    H222736   4.155   0.682   1.310  1.3234 -0.8510  0.4669
  393TIP3   OH222737   4.308   4.967   0.814 -0.3264 -0.2137  0.7503
  393TIP3    H122738   4.299   4.996   0.905  1.8264 -1.7884  1.5472
  393TIP3    H222739   4.394   4.999   0.788 -1.0526  0.4962 -0.9041
  394TIP3   OH222740   2.092   4.152   6.305 -0.1679 -0.0575  0.0545
  394TIP3    H122741   2.109   4.065   6.269  0.8519 -0.2388  0.9347
  394TIP3    H222742   2.179   4.190   6.318 -0.5888  1.7755 -1.8486
  395TIP3   OH222743   3.736   0.318   7.625  0.0459 -0.8082 -0.5569
  395TIP3    H122744   3.827   0.332   7.599  0.8730  1.2633  2.9125
  395TIP3    H222745   3.688   0.390   7.584  0.2135 -1.0042 -1.1149
  396TIP3   OH222746   2.179   0.946   0.604  0.2608 -0.5787 -0.1820
  396TIP3    H122747   2.243   0.981   0.666 -0.2403 -0.7502  0.4356
  396TIP3    H222748   2.230   0.887   0.548  0.9558  0.4800 -0.7175
  397TIP3   OH222749   2.967   0.139   6.605  0.1492  0.2802 -0.0296
  397TIP3    H122750   2.998   0.152   6.515  1.7123 -2.2253  0.0502
  397TIP3    H222751   2.926   0.052   6.603 -0.4593  0.5104  1.5351
  398TIP3   OH222752   1.425   2.023   8.003 -0.0148 -0.0618 -0.0082
  398TIP3    H122753   1.478   2.038   7.925  1.4018  0.0300  0.9369
  398TIP3    H222754   1.363   2.095   8.004 -0.4427 -0.3884 -1.3521
  399TIP3   OH222755   0.645   6.767   1.519 -0.1273 -0.4960  0.2605
  399TIP3    H122756   0.581   6.827   1.481  1.4693  1.3431  0.3210
  399TIP3    H222757   0.637   6.780   1.614  0.4162 -0.1263  0.2633
  400TIP3   OH222758   4.357   1.142   7.535 -0.1752  0.3139  0.2450
  400TIP3    H122759   4.394   1.054   7.535 -1.2468 -0.3113 -3.2602
  400TIP3    H222760   4.432   1.200   7.526  0.3918 -0.4990 -0.4548
  401TIP3   OH222761   3.764   0.836   8.465 -0.0886 -0.1691 -0.1992
  401TIP3    H122762   3.787   0.923   8.498 -0.6920  0.6093 -1.7345
  401TIP3    H222763   3.848   0.796   8.443  0.2429 -0.2722  1.1742
  402TIP3   OH222764   2.555   1.825   8.032 -0.4740  0.1577  0.5106
  402TIP3    H122765   2.536   1.842   8.125 -1.0099  1.6709  0.1551
  402TIP3    H222766   2.650   1.811   8.029 -0.2750  1.2330  1.1469
  403TIP3   OH222767   5.524   4.397   6.170  0.2957  0.9295  0.1561
  403TIP3    H122768   5.490   4.484   6.149  0.7704  1.3134  0.9183
  403TIP3    H222769   5.549   4.360   6.085  0.3322  1.6465 -0.1545
  404TIP3   OH222770   2.938   2.084   7.575  0.1208 -0.5250  0.5580
  404TIP3    H122771   2.925   2.170   7.535  0.0354 -1.2533 -1.0615
  404TIP3    H222772   2.852   2.043   7.574  0.5122 -1.3902 -0.5996
  405TIP3   OH222773   6.761   6.315   0.318  0.3362  0.0349  0.1103
  405TIP3    H122774   6.762   6.291   0.411  2.2493  3.3521  1.1229
  405TIP3    H222775   6.677   6.360   0.305 -1.4678 -3.2395 -0.8003
  406TIP3   OH222776   4.543   3.851   6.547  0.4941  0.3568 -0.3499
  406TIP3    H122777   4.518   3.769   6.504  2.2222 -0.3665 -0.0419
  406TIP3    H222778   4.626   3.875   6.506  0.3922  1.5405  0.1238
  407TIP3   OH222779   0.180   0.135   7.888  0.0414 -0.0233  0.3692
  407TIP3    H122780   0.207   0.227   7.882 -0.0899 -0.0058 -0.0044
  407TIP3    H222781   0.240   0.088   7.830  0.6673 -0.3036  1.2389
  408TIP3   OH222782   3.165   4.922   8.393 -0.0951 -0.0882 -0.3526
  408TIP3    H122783   3.215   4.955   8.467  0.5395 -0.1416 -0.7490
  408TIP3    H222784   3.079   4.962   8.402 -1.5170 -3.2526  2.7827
  409TIP3   OH222785   1.742   5.167   0.822 -0.2226 -0.1655  0.2469
  409TIP3    H122786   1.764   5.078   0.849  0.5361 -0.1453 -0.2515
  409TIP3    H222787   1.757   5.167   0.727 -0.5699  0.3935  0.1889
  410TIP3   OH222788   5.309   5.701   7.160 -0.0924  0.0632 -0.1038
  410TIP3    H122789   5.351   5.667   7.081 -0.3471  0.2342 -0.3163
  410TIP3    H222790   5.380   5.737   7.212 -0.0323  0.8237 -0.6959
  411TIP3   OH222791   0.420   4.451   0.592 -0.3829 -0.1205 -0.1810
  411TIP3    H122792   0.382   4.383   0.536  1.4972  0.6828 -2.6045
  411TIP3    H222793   0.509   4.420   0.610 -0.4919  0.3186  1.3046
  412TIP3   OH222794   2.699   5.918   0.904 -0.3099  0.3798  0.7884
  412TIP3    H122795   2.618   5.938   0.951 -0.8338 -0.2125  0.1409
  412TIP3    H222796   2.677   5.926   0.812  0.0179 -1.0216  0.5605
  413TIP3   OH222797   0.035   2.042   1.270  0.5537 -0.1068  0.2231
  413TIP3    H122798  -0.018   2.099   1.214  1.2065  0.7141  0.4108
  413TIP3    H222799  -0.015   1.961   1.277  1.4768 -1.1785 -3.3856
  414TIP3   OH222800   2.827   6.424   0.157 -0.0855  0.4559  0.3108
  414TIP3    H122801   2.783   6.437   0.240 -0.1965 -1.3034  0.5747
  414TIP3    H222802   2.916   6.399   0.181 -0.5202 -1.5413 -0.0072
  415TIP3   OH222803   5.795   2.101   2.139  0.4349  0.5585  0.6610
  415TIP3    H122804   5.855   2.116   2.065  2.0493 -1.6892  1.3966
  415TIP3    H222805   5.718   2.061   2.099  1.1570 -0.3475  0.0994
  416TIP3   OH222806   1.493   0.887   8.146 -0.1875 -0.3774 -0.4855
  416TIP3    H122807   1.527   0.840   8.222  0.9300  1.0106 -0.0935
  416TIP3    H222808   1.403   0.908   8.170  0.3174  0.5490  0.7354
  417TIP3   OH222809   4.822   2.712   0.906 -0.4291 -0.1226  1.0800
  417TIP3    H122810   4.807   2.627   0.864  0.1691 -0.5212  1.6530
  417TIP3    H222811   4.914   2.711   0.931 -0.7549  0.0776  2.4107
  418TIP3   OH222812   1.298   6.773   6.484 -0.0622 -0.3478 -0.6284
  418TIP3    H122813   1.214   6.777   6.439 -1.3413 -0.8270  1.5825
  418TIP3    H222814   1.301   6.852   6.538 -0.1481 -1.4124  1.0006
  419TIP3   OH222815   4.257   5.943   7.494  0.0978 -0.1497 -0.2775
  419TIP3    H122816   4.340   5.923   7.538 -0.0730 -0.3989 -0.0584
  419TIP3    H222817   4.275   6.022   7.444  0.5671 -0.3931 -0.5079
  420TIP3   OH222818   5.036   3.249   0.518  0.4273 -0.1141  0.2040
  420TIP3    H122819   5.115   3.289   0.480  0.8021 -0.5263  0.5354
  420TIP3    H222820   5.002   3.317   0.577 -0.3786  0.6736 -1.1365
  421TIP3   OH222821   3.855   4.385   0.104 -0.1847  0.7338  0.5484
  421TIP3    H122822   3.948   4.406   0.094 -0.3689  0.6867 -1.9243
  421TIP3    H222823   3.813   4.424   0.027 -1.7700 -1.7006  0.0661
  422TIP3   OH222824   2.661   4.989   7.396 -0.3335  0.0545  0.6851
  422TIP3    H122825   2.707   4.906   7.412 -1.5905 -0.8435 -0.1977
  422TIP3    H222826   2.712   5.032   7.328  1.2513  0.8163  2.2567
  423TIP3   OH222827   5.844   6.302   8.571 -0.2264  0.3845 -0.2910
  423TIP3    H122828   5.805   6.281   8.486 -2.8967  0.7636  0.7356
  423TIP3    H222829   5.914   6.238   8.582  0.1154  0.2304 -2.6777
  424TIP3   OH222830   6.326   4.631   7.963  0.1613  0.1576  0.5906
  424TIP3    H122831   6.274   4.710   7.953  0.3273  0.4036  1.5486
  424TIP3    H222832   6.345   4.603   7.873  1.2323  1.9417  0.2016
  425TIP3   OH222833   5.323   6.731   0.269  0.0151  0.2941  0.0957
  425TIP3    H122834   5.370   6.732   0.186 -0.7759  0.5500 -0.3548
  425TIP3    H222835   5.338   6.643   0.304  1.5272  0.6265  0.3847
  426TIP3   OH222836   1.041   4.946   6.461 -0.1464 -0.3350  1.0356
  426TIP3    H122837   1.041   4.896   6.380 -1.1197 -0.8224  1.3265
  426TIP3    H222838   1.113   5.008   6.450 -0.1270 -0.5303 -0.1081
  427TIP3   OH222839   5.656   3.533   7.430  0.2294  0.1013  0.2699
  427TIP3    H122840   5.634   3.580   7.349  1.2455  0.7525  0.3574
  427TIP3    H222841   5.665   3.442   7.403  0.2831  0.2714 -0.2921
  428TIP3   OH222842   2.503   4.052   0.228 -0.1543 -0.1318  0.7434
  428TIP3    H122843   2.551   4.135   0.222  1.2703 -0.9881 -0.2536
  428TIP3    H222844   2.424   4.065   0.176  0.5155  0.3188 -0.1899
  429TIP3   OH222845   6.331   5.538   8.224  0.0342 -0.3910 -0.4304
  429TIP3    H122846   6.413   5.494   8.248  0.2411 -1.2656 -2.5332
  429TIP3    H222847   6.273   5.467   8.197 -1.3056  0.2617  0.6409
  430TIP3   OH222848   0.098   4.655   7.365  0.3619  1.1424 -0.2886
  430TIP3    H122849   0.067   4.714   7.297  2.0827  0.0094 -2.1652
  430TIP3    H222850   0.193   4.668   7.368  0.4682  0.3100  1.0608
  431TIP3   OH222851   6.523   3.539   0.365 -0.5674  0.2630 -0.7385
  431TIP3    H122852   6.557   3.504   0.448 -0.1740 -1.3646 -1.5439
  431TIP3    H222853   6.597   3.585   0.326 -0.2171 -0.5143 -1.0037
  432TIP3   OH222854   3.726   1.111   6.605  0.4055  0.3551 -0.4757
  432TIP3    H122855   3.656   1.053   6.577  0.4744 -0.5432  1.0873
  432TIP3    H222856   3.682   1.181   6.654  0.4942  0.5002 -0.6015
  433TIP3   OH222857   4.501   0.329   7.619  0.1035  0.0586  0.0095
  433TIP3    H122858   4.423   0.384   7.625 -1.3929 -2.0199  0.9114
  433TIP3    H222859   4.486   0.260   7.684  2.1740 -1.0635 -0.6193
  434TIP3   OH222860   3.663   6.781   7.688  0.0279  0.6817  0.2881
  434TIP3    H122861   3.688   6.861   7.642  0.7086  1.3184  1.7267
  434TIP3    H222862   3.667   6.804   7.781  0.1958 -1.0069  0.7265
  435TIP3   OH222863   1.620   1.802   7.525 -0.2279 -0.1676 -0.4855
  435TIP3    H122864   1.629   1.714   7.560 -1.0526  0.2290  0.7760
  435TIP3    H222865   1.692   1.811   7.462 -0.5776 -1.9865 -1.1799
  436TIP3   OH222866   5.965   0.405   1.255 -0.3362 -0.7148 -0.4489
  436TIP3    H122867   5.986   0.492   1.290  0.9382 -1.2432  0.1793
  436TIP3    H222868   5.870   0.406   1.242 -0.4899  0.3852  0.6020
  437TIP3   OH222869   0.356   4.203   0.454 -0.5374 -0.6141 -0.3609
  437TIP3    H122870   0.434   4.165   0.412 -1.3401 -4.2777  1.0809
  437TIP3    H222871   0.291   4.207   0.384 -0.4441 -2.1299 -0.5656
  438TIP3   OH222872   2.374   2.393   1.707  0.4071 -0.2449 -0.1500
  438TIP3    H122873   2.285   2.365   1.686 -0.1481  1.1473  0.2238
  438TIP3    H222874   2.363   2.471   1.762  1.8527  0.5159 -0.8548
  439TIP3   OH222875   4.534   5.818   8.437 -0.7223 -0.0791 -0.5116
  439TIP3    H122876   4.486   5.846   8.515  1.8749  0.4275  1.0221
  439TIP3    H222877   4.543   5.723   8.447 -1.3991 -0.1812 -0.8249
  440TIP3   OH222878   2.018   2.899   0.772 -0.3694 -0.1025 -0.1011
  440TIP3    H122879   2.094   2.924   0.824  0.7031 -0.2780 -1.5478
  440TIP3    H222880   1.963   2.977   0.770 -0.3411 -0.0264  1.0845
  441TIP3   OH222881   3.779   5.335   1.884 -0.6520  0.2172 -0.1944
  441TIP3    H122882   3.730   5.252   1.887 -0.8443  0.3424  0.4605
  441TIP3    H222883   3.723   5.394   1.833 -0.6020 -0.0016 -0.5041
  442TIP3   OH222884   2.474   5.897   7.262 -0.4141  0.0684  0.0629
  442TIP3    H122885   2.568   5.916   7.252 -0.2939 -0.8376 -0.5569
  442TIP3    H222886   2.470   5.802   7.273 -1.2799  0.0848 -0.0849
  443TIP3   OH222887   6.271   0.058   8.282 -0.2483  0.4322 -0.1669
  443TIP3    H122888   6.269   0.151   8.260  1.3380  0.4894 -0.1721
  443TIP3    H222889   6.227   0.015   8.209 -0.6011  1.1323 -0.3750
  444TIP3   OH222890   3.358   4.773   1.342  0.6355  0.3145  0.0637
  444TIP3    H122891   3.314   4.858   1.339  0.3638  0.1529 -2.3186
  444TIP3    H222892   3.387   4.758   1.253  0.3437 -2.2968  0.3350
  445TIP3   OH222893   5.058   5.908   0.623 -0.8524 -0.4997 -0.4560
  445TIP3    H122894   5.098   5.972   0.682 -1.8628 -1.1559  0.9703
  445TIP3    H222895   5.086   5.937   0.535  0.7544  0.4325  0.3089
  446TIP3   OH222896   4.089   5.816   6.448 -0.5268  0.2497 -0.7753
  446TIP3    H122897   4.093   5.893   6.391  3.2646  1.1017  0.3302
  446TIP3    H222898   4.175   5.775   6.439 -0.9559 -1.4468  1.8134
  447TIP3   OH222899   0.145   3.992   1.483 -0.2093 -0.1501 -0.3543
  447TIP3    H122900   0.174   4.084   1.484  0.6289 -0.3591 -1.9610
  447TIP3    H222901   0.124   3.973   1.574 -1.0630  1.8379 -0.0749
  448TIP3   OH222902   3.139   4.573   0.159 -0.3441  0.1085 -0.0783
  448TIP3    H122903   3.160   4.666   0.167  0.2013 -0.1026  1.1561
  448TIP3    H222904   3.049   4.571   0.127 -0.6878  1.0567  0.7935
  449TIP3   OH222905   2.516   1.993   2.142 -0.4534  0.5792 -0.0811
  449TIP3    H122906   2.588   2.005   2.204 -1.7033 -0.7335  1.7568
  449TIP3    H222907   2.467   2.075   2.145 -0.8365  0.3275  1.1913
  450TIP3   OH222908   1.052   6.789   6.695  0.0705  0.0766  0.0245
  450TIP3    H122909   1.053   6.794   6.599  2.5419 -1.4887 -0.1072
  450TIP3    H222910   0.959   6.799   6.718 -0.7416 -0.5354 -2.5886
  451TIP3   OH222911   0.344   6.243   8.757 -0.0986  0.1844 -0.3850
  451TIP3    H122912   0.261   6.217   8.797  0.3202 -2.7556 -1.2325
  451TIP3    H222913   0.329   6.332   8.727 -1.9080  0.8756  2.1903
  452TIP3   OH222914   0.459   0.652   7.725 -0.3463  0.4774  0.1784
  452TIP3    H122915   0.464   0.597   7.647  0.3969  0.7331  0.0380
  452TIP3    H222916   0.409   0.600   7.788  0.7267 -0.5680  0.2022
  453TIP3   OH222917   4.584   5.699   6.910  0.1514 -0.2977 -0.0323
  453TIP3    H122918   4.535   5.626   6.872 -1.5347  0.0096  1.4489
  453TIP3    H222919   4.668   5.661   6.937  1.3003 -0.6027 -3.5719
  454TIP3   OH222920   1.702   4.920   1.729  0.2485 -0.3514  0.8208
  454TIP3    H122921   1.713   4.948   1.820  0.6089  0.6408  0.4922
  454TIP3    H222922   1.790   4.895   1.701  1.0134  3.0279 -0.3694
  455TIP3   OH222923   6.793   5.621   1.788 -0.1585  0.1088 -0.0344
  455TIP3    H122924   6.728   5.689   1.807 -0.0924 -0.3397  2.0749
  455TIP3    H222925   6.863   5.636   1.852  0.8082 -0.7271 -0.8614
  456TIP3   OH222926   4.507   3.982   8.316 -0.0233  0.4409 -0.4721
  456TIP3    H122927   4.537   4.066   8.283 -0.0304  0.4441 -0.4709
  456TIP3    H222928   4.566   3.918   8.278  0.7429  0.5517  0.4842
  457TIP3   OH222929   0.640   4.901   1.224 -0.2569  0.5395 -0.4621
  457TIP3    H122930   0.564   4.847   1.244  0.8230 -1.2102 -0.8263
  457TIP3    H222931   0.713   4.857   1.269  0.2482  3.5004  1.9746
  458TIP3   OH222932   6.237   5.193   8.834  0.1237 -0.5758  0.0305
  458TIP3    H122933   6.155   5.213   8.788  0.1225 -0.4012  0.1094
  458TIP3    H222934   6.303   5.248   8.792 -0.6429  3.1601  3.1200
  459TIP3   OH222935   1.396   4.082   5.984  0.1332 -0.0464 -0.7179
  459TIP3    H122936   1.463   4.073   5.917  0.8242 -1.2131  0.0919
  459TIP3    H222937   1.429   4.032   6.059 -0.5505  1.2922  0.5413
  460TIP3   OH222938   1.003   5.411   7.689  0.0533  0.1916 -0.0664
  460TIP3    H122939   0.934   5.365   7.643  0.5626 -0.0632 -0.5827
  460TIP3    H222940   0.970   5.501   7.697  0.6333  0.6757 -2.4194
  461TIP3   OH222941   4.867   4.254   8.268 -0.0389 -0.2262  0.2294
  461TIP3    H122942   4.829   4.229   8.353  1.0535  0.7692  1.0387
  461TIP3    H222943   4.878   4.349   8.273 -0.9887  0.0135 -1.4845
  462TIP3   OH222944   6.617   1.480   0.048 -0.9644  0.2117  0.0335
  462TIP3    H122945   6.615   1.576   0.042 -1.5919  0.1706 -0.4738
  462TIP3    H222946   6.673   1.454  -0.026 -0.1277  0.2153  0.6464
  463TIP3   OH222947   6.686   3.539   0.049  0.1767  0.6302  0.3233
  463TIP3    H122948   6.606   3.578   0.012  0.5312  0.3604 -0.7628
  463TIP3    H222949   6.655   3.459   0.092 -0.3201  1.2312  1.1164
  464TIP3   OH222950   5.423   5.982   8.576  0.5344  0.2326 -0.3305
  464TIP3    H122951   5.419   6.068   8.619 -1.1943 -0.3905  0.8816
  464TIP3    H222952   5.516   5.961   8.573  0.8556  1.2502  1.2396
  465TIP3   OH222953   2.983   1.642   6.889  0.0344  0.0814  0.1288
  465TIP3    H122954   2.976   1.712   6.954  0.2197  0.2648 -0.0494
  465TIP3    H222955   3.044   1.579   6.928 -1.3668 -0.8004  1.0303
  466TIP3   OH222956   3.168   1.949   0.875 -0.1257 -0.0675 -0.0945
  466TIP3    H122957   3.216   1.922   0.796  0.1745  0.2112 -0.0137
  466TIP3    H222958   3.076   1.948   0.849 -0.0241  0.0913 -0.4711
  467TIP3   OH222959   5.715   1.400   0.532 -0.1091 -0.1327  0.2574
  467TIP3    H122960   5.799   1.441   0.511  0.7975 -0.8507  2.2168
  467TIP3    H222961   5.649   1.459   0.495  1.2383  0.9596 -0.4735
  468TIP3   OH222962   0.540   2.672   7.417  0.0289  0.1038  0.3911
  468TIP3    H122963   0.536   2.748   7.475 -1.8521  0.5960 -0.3184
  468TIP3    H222964   0.525   2.597   7.475  2.0531  0.1947  1.1191
  469TIP3   OH222965   0.312   5.634   0.201 -0.0945 -0.4253 -0.4092
  469TIP3    H122966   0.358   5.608   0.121 -0.2857 -2.1479 -0.0037
  469TIP3    H222967   0.287   5.551   0.242 -1.4279  0.4348  0.6140
  470TIP3   OH222968   5.855   1.707   8.736  0.1641  0.7821  0.0267
  470TIP3    H122969   5.857   1.661   8.652 -1.0741  0.5149  0.1344
  470TIP3    H222970   5.944   1.741   8.746  0.6985 -0.3095 -0.7589
  471TIP3   OH222971   5.085   5.997   7.599 -0.2742 -0.4552  0.2766
  471TIP3    H122972   5.130   5.934   7.544 -0.6928 -0.3585 -0.1852
  471TIP3    H222973   5.004   5.954   7.625 -0.6130 -0.0761 -0.1299
  472TIP3   OH222974   5.830   0.147   6.932  0.2290  0.1860 -0.0620
  472TIP3    H122975   5.753   0.101   6.965 -0.3049  0.2345 -1.1992
  472TIP3    H222976   5.900   0.082   6.938  0.0850  0.0994  0.8551
  473TIP3   OH222977   3.712   2.952   8.782  0.6421  0.2826 -0.8607
  473TIP3    H122978   3.688   2.995   8.864  0.3305 -0.4791 -0.5373
  473TIP3    H222979   3.791   2.904   8.803  1.3814  1.2344 -1.4067
  474TIP3   OH222980   1.675   0.195   8.293 -0.4451 -0.1752 -0.0830
  474TIP3    H122981   1.757   0.235   8.321 -0.1141 -1.3031  0.6270
  474TIP3    H222982   1.610   0.228   8.355 -0.0082 -1.3971  1.0821
  475TIP3   OH222983   1.514   0.164   2.111  0.3543  0.4441 -0.3854
  475TIP3    H122984   1.557   0.082   2.136  0.2725  0.4365 -0.2677
  475TIP3    H222985   1.421   0.141   2.107  0.4477  0.2220 -1.5874
  476TIP3   OH222986   6.664   0.974   1.262  0.1065  0.5007  0.0453
  476TIP3    H122987   6.590   0.957   1.204 -1.8906 -2.0531  3.0448
  476TIP3    H222988   6.626   1.018   1.338  2.1154  1.2299  0.7045
  477TIP3   OH222989   4.152   5.402   0.043 -0.0302 -0.1192  0.1336
  477TIP3    H122990   4.174   5.494   0.026  2.3294 -0.6598 -0.1221
  477TIP3    H222991   4.117   5.370  -0.039 -0.7621  0.5149  0.1897
  478TIP3   OH222992   0.164   5.272   0.141  0.7137 -0.0409 -0.2173
  478TIP3    H122993   0.213   5.238   0.215 -0.1852 -1.9289 -0.4306
  478TIP3    H222994   0.222   5.261   0.066  0.8387 -0.0922 -0.1133
  479TIP3   OH222995   6.155   0.702   6.554  0.6189  0.0993  0.3380
  479TIP3    H122996   6.200   0.769   6.607 -0.4683  0.6841  0.5529
  479TIP3    H222997   6.129   0.749   6.474  1.7915 -0.6474 -0.5035
  480TIP3   OH222998   6.199   0.411   7.291  0.2591  0.0235  0.0135
  480TIP3    H122999   6.134   0.387   7.357 -0.4840  1.0754 -0.3086
  480TIP3    H223000   6.150   0.417   7.209  1.1234 -1.0090 -0.6155
  481TIP3   OH223001   0.050   1.809   7.742 -0.5720  0.4156 -0.0674
  481TIP3    H123002   0.054   1.794   7.648 -1.7749  2.7376 -0.5491
  481TIP3    H223003   0.019   1.726   7.778  0.1323 -0.5965 -1.6418
  482TIP3   OH223004   1.573   4.231   7.661 -0.1869  0.0514  0.0171
  482TIP3    H123005   1.515   4.306   7.667 -0.8256 -0.5130  1.1359
  482TIP3    H223006   1.600   4.229   7.569  0.1452  1.8479  0.0288
  483TIP3   OH223007   0.327   5.875   6.821  0.2544  0.4202 -0.1298
  483TIP3    H123008   0.387   5.949   6.818 -0.0254  0.6303 -0.5583
  483TIP3    H223009   0.268   5.894   6.894  0.6900  0.2215  0.2821
  484TIP3   OH223010   4.260   1.070   1.494  0.6198  0.1632  0.2156
  484TIP3    H123011   4.303   1.063   1.579  1.2013  0.5987 -0.0440
  484TIP3    H223012   4.167   1.054   1.513  0.6122  1.1515  1.0760
  485TIP3   OH223013   6.333   0.525   6.319  0.3177  0.3488  0.1942
  485TIP3    H123014   6.365   0.496   6.234 -0.3686  0.5567 -0.1424
  485TIP3    H223015   6.363   0.458   6.380  1.5882  0.6627 -0.0619
  486TIP3   OH223016   5.269   4.234   8.427  0.2825 -0.0491 -0.1121
  486TIP3    H123017   5.339   4.277   8.477 -0.4152 -0.2291  1.0647
  486TIP3    H223018   5.307   4.151   8.399  0.9750  0.4361 -0.6351
  487TIP3   OH223019   4.384   4.034   8.549 -0.5247  0.2011 -0.4030
  487TIP3    H123020   4.426   4.016   8.465  1.3803  0.6354  0.3972
  487TIP3    H223021   4.345   3.950   8.575  1.1729 -0.6654 -0.5056
  488TIP3   OH223022   1.226   2.085   7.530  0.7252 -0.0229  0.0966
  488TIP3    H123023   1.284   2.155   7.502 -1.1806  0.3321 -3.4004
  488TIP3    H223024   1.139   2.124   7.533  0.1074 -1.3691  1.8452
  489TIP3   OH223025   3.090   1.046   1.284 -0.0465 -0.3715 -0.0133
  489TIP3    H123026   3.091   1.090   1.369 -0.5534 -0.9841  0.3274
  489TIP3    H223027   3.043   0.964   1.301 -0.6409 -0.2499 -1.0109
  490TIP3   OH223028   2.853   6.462   6.679 -0.7146 -0.0537 -0.4042
  490TIP3    H123029   2.791   6.433   6.745 -0.9366  1.0697 -0.0887
  490TIP3    H223030   2.915   6.517   6.728  0.6659 -1.3192 -0.6678
  491TIP3   OH223031   1.431   5.472   6.363  1.1667  0.2558 -0.0076
  491TIP3    H123032   1.461   5.382   6.371  2.8046  0.8226  0.8481
  491TIP3    H223033   1.467   5.516   6.441 -0.0317  1.5315 -0.1274
  492TIP3   OH223034   5.421   0.001   8.527 -0.0748  0.4030  0.3812
  492TIP3    H123035   5.379  -0.061   8.468 -1.3255  0.3730  1.2566
  492TIP3    H223036   5.464   0.065   8.470  1.3096 -1.2802 -0.5415
  493TIP3   OH223037   4.661   5.258   5.986 -0.2484  0.0952  0.2472
  493TIP3    H123038   4.633   5.278   5.896  1.3956  0.7343 -0.1740
  493TIP3    H223039   4.665   5.344   6.029 -1.7041 -0.2768  1.1665
  494TIP3   OH223040   4.474   0.951   0.956  0.0398  0.2670 -0.4014
  494TIP3    H123041   4.402   1.012   0.935  0.6376  0.3928 -2.1747
  494TIP3    H223042   4.458   0.875   0.901 -0.5249 -1.1416  1.5794
  495TIP3   OH223043   2.454   6.389   8.036 -0.4590 -0.2882 -0.0173
  495TIP3    H123044   2.452   6.466   7.980  0.0374 -1.2090 -1.3412
  495TIP3    H223045   2.547   6.374   8.053 -0.5706 -0.4275  0.4826
  496TIP3   OH223046   2.138   0.071   8.205 -0.0104 -0.0259  0.3683
  496TIP3    H123047   2.068   0.124   8.243 -1.6647 -1.7618 -0.0892
  496TIP3    H223048   2.180   0.029   8.280 -1.3677 -1.1769  0.5416
  497TIP3   OH223049   1.957   0.290   1.656  0.4203  0.6462  0.2692
  497TIP3    H123050   1.974   0.203   1.621  2.7848  0.7944  0.9002
  497TIP3    H223051   2.023   0.346   1.615 -0.2006  1.8958  0.8971
  498TIP3   OH223052   2.543   1.876   6.936  0.3484  0.1029 -0.3480
  498TIP3    H123053   2.586   1.895   6.853  1.6553  0.5765  0.4188
  498TIP3    H223054   2.500   1.959   6.960  0.8550  0.2756 -0.0363
  499TIP3   OH223055   3.528   4.177   1.615 -0.1232 -0.4459 -0.2420
  499TIP3    H123056   3.595   4.123   1.657 -0.3748 -0.8599 -0.3606
  499TIP3    H223057   3.523   4.256   1.669  0.6731 -0.2797 -0.4104
  500TIP3   OH223058   5.746   0.434   7.856  0.2422 -0.3952  0.2468
  500TIP3    H123059   5.652   0.435   7.837  0.3754 -0.4024 -0.4657
  500TIP3    H223060   5.766   0.522   7.885  0.5196  0.4921 -2.3442
  501TIP3   OH223061   4.889   5.940   1.847  0.0183  0.4140 -0.0569
  501TIP3    H123062   4.799   5.910   1.835  0.7322 -2.1250  0.4030
  501TIP3    H223063   4.909   5.988   1.767 -2.0383  1.9525  0.2703
  502TIP3   OH223064   2.805   6.086   6.270 -0.0357 -0.8214 -0.1756
  502TIP3    H123065   2.735   6.117   6.212 -0.4898 -0.3914  0.5955
  502TIP3    H223066   2.789   5.992   6.278 -1.5387 -0.4829  1.3115
  503TIP3   OH223067   4.070   2.684   8.050  0.6951 -0.3064 -0.2737
  503TIP3    H123068   4.092   2.702   7.958  2.5827  1.2970  0.4203
  503TIP3    H223069   4.152   2.654   8.089  0.4154  0.8321  1.2891
  504TIP3   OH223070   5.103   2.690   8.469  0.7598  0.4892  0.5087
  504TIP3    H123071   5.130   2.732   8.387 -0.2246 -2.0176 -1.2323
  504TIP3    H223072   5.008   2.697   8.468  0.7160 -0.0159  1.2088
  505TIP3   OH223073   4.674   3.730   8.008  0.1044 -0.2418  0.5212
  505TIP3    H123074   4.750   3.787   7.998 -0.4303  0.4004  0.0002
  505TIP3    H223075   4.633   3.758   8.091  0.0298 -0.0878  0.4328
  506TIP3   OH223076   0.967   3.790   0.970  0.2891  0.3336  0.2834
  506TIP3    H123077   0.990   3.782   1.062 -1.2310  2.9696  0.9753
  506TIP3    H223078   0.916   3.712   0.951  1.6771 -0.8695  1.2615
  507TIP3   OH223079   2.743   3.177   8.487 -0.8352  0.5812 -0.3602
  507TIP3    H123080   2.804   3.242   8.452 -0.3047 -0.5326 -1.5901
  507TIP3    H223081   2.768   3.167   8.578  0.4999  0.5249 -0.7108
  508TIP3   OH223082   5.963   1.940   0.664  0.3898 -0.2506 -0.0055
  508TIP3    H123083   5.974   1.951   0.758  1.8267  1.9405 -0.3464
  508TIP3    H223084   5.889   1.997   0.641  1.2020  0.6899 -0.3955
  509TIP3   OH223085   3.921   0.784   8.036  0.4948  0.5997  0.6564
  509TIP3    H123086   3.873   0.856   7.995  0.9804  1.5224  1.6660
  509TIP3    H223087   3.999   0.825   8.073  1.3383 -0.6307  0.3256
  510TIP3   OH223088   3.227   3.240   8.371 -0.1997  0.3794  0.2743
  510TIP3    H123089   3.154   3.194   8.413 -0.0265  0.8665  1.1308
  510TIP3    H223090   3.256   3.303   8.437  2.6835 -1.5530  1.0113
  511TIP3   OH223091   1.846   6.669   0.571  0.1619  0.1651 -0.0225
  511TIP3    H123092   1.867   6.737   0.634  0.9084 -0.5678  0.5329
  511TIP3    H223093   1.772   6.705   0.521  1.2411  1.8468 -0.5046
  512TIP3   OH223094   6.276   4.951   8.575  0.5511 -0.3867 -0.6283
  512TIP3    H123095   6.217   4.934   8.501  1.8383 -3.0036 -1.2054
  512TIP3    H223096   6.219   4.984   8.644 -1.1635 -0.4443 -1.9343
  513TIP3   OH223097   6.698   0.870   7.216  0.0945 -0.5996  0.3231
  513TIP3    H123098   6.682   0.793   7.271  0.5090  0.2781  1.7215
  513TIP3    H223099   6.612   0.911   7.206  0.1002 -0.4718  0.7772
  514TIP3   OH223100   5.702   6.581   0.829  0.5917 -0.1238 -0.0789
  514TIP3    H123101   5.714   6.656   0.887 -0.8956 -0.3117  0.5289
  514TIP3    H223102   5.765   6.595   0.758  0.7296  1.4001  0.3040
  515TIP3   OH223103   3.016   4.980   1.773 -0.2768  0.0653 -0.6437
  515TIP3    H123104   3.057   4.895   1.791 -0.4160 -0.1802 -1.4355
  515TIP3    H223105   3.090   5.040   1.762 -0.1146 -0.3140 -1.7713
  516TIP3   OH223106   3.097   1.033   0.180  0.3502 -0.1499  0.7403
  516TIP3    H123107   3.181   1.035   0.135 -0.5316  0.6079 -0.9558
  516TIP3    H223108   3.114   1.078   0.263  1.6109 -0.0181  0.4343
  517TIP3   OH223109   1.536   2.631   8.268 -0.5829  0.2132  0.5379
  517TIP3    H123110   1.465   2.574   8.298 -0.2546 -0.6536 -0.2807
  517TIP3    H223111   1.495   2.688   8.203 -0.5678 -0.2025  0.1572
  518TIP3   OH223112   0.938   2.169   8.372 -0.1599 -0.7231 -0.7970
  518TIP3    H123113   0.960   2.076   8.366 -2.6534 -1.5588  1.1007
  518TIP3    H223114   1.022   2.212   8.387  0.9533 -2.8108 -0.5881
  519TIP3   OH223115   4.122   1.294   1.275  0.4437 -0.0369 -0.1927
  519TIP3    H123116   4.033   1.327   1.291 -0.1614 -1.2395 -0.9417
  519TIP3    H223117   4.162   1.291   1.362  0.2584  1.8510  0.0025
  520TIP3   OH223118   4.721   1.422   1.084  0.1103  0.0668 -0.1263
  520TIP3    H123119   4.755   1.335   1.106  1.6991  1.0734  1.7812
  520TIP3    H223120   4.686   1.455   1.167 -1.1084  0.9984 -0.9870
  521TIP3   OH223121   4.738   3.299   1.197  0.0732  0.1564  0.6009
  521TIP3    H123122   4.753   3.367   1.262  2.4891  1.6835 -1.3258
  521TIP3    H223123   4.645   3.307   1.174  0.3678  3.2733  0.0695
  522TIP3   OH223124   3.975   3.278   8.752 -0.1163 -0.1393  0.3146
  522TIP3    H123125   4.008   3.209   8.810 -1.3896 -0.7484  0.3491
  522TIP3    H223126   4.052   3.305   8.701  0.4910 -1.3233  0.5640
  523TIP3   OH223127   3.350   5.107   0.527 -0.1911 -0.1436  0.5244
  523TIP3    H123128   3.425   5.073   0.575 -1.2073 -0.3332  2.0613
  523TIP3    H223129   3.361   5.075   0.437  1.9013  0.4473  0.5313
  524TIP3   OH223130   2.550   2.418   0.732 -0.4615  0.1069  0.4706
  524TIP3    H123131   2.645   2.409   0.745 -0.5335 -1.6417  0.0946
  524TIP3    H223132   2.522   2.331   0.703 -2.4222  0.1563  2.0319
  525TIP3   OH223133   0.139   1.639   1.408 -0.0396 -0.6530  0.1492
  525TIP3    H123134   0.086   1.582   1.465  0.2327 -1.3082 -0.2356
  525TIP3    H223135   0.199   1.683   1.467 -0.9926  0.0780  0.5900
  526TIP3   OH223136   6.608   5.970   7.667  0.6989 -0.1708 -0.0150
  526TIP3    H123137   6.563   5.988   7.584 -0.1692  0.4154  0.5667
  526TIP3    H223138   6.645   5.882   7.656 -1.6477 -1.2222 -0.0953
  527TIP3   OH223139   0.035   3.747   0.989  0.1951  0.4187  0.6309
  527TIP3    H123140   0.067   3.762   1.078 -1.2914 -2.1559  1.6960
  527TIP3    H223141   0.059   3.827   0.942  3.4465  0.8045  2.5913
  528TIP3   OH223142   1.884   4.540   0.285 -0.0205  0.8187  0.1499
  528TIP3    H123143   1.830   4.465   0.260  0.5352  0.6982 -0.7039
  528TIP3    H223144   1.839   4.616   0.247  0.0660  0.7903 -0.0076
  529TIP3   OH223145   5.475   1.233   8.212  0.2953  0.1689  0.0433
  529TIP3    H123146   5.382   1.246   8.191  0.0422 -0.6294  0.6267
  529TIP3    H223147   5.494   1.300   8.278 -0.4198 -0.8902  1.4016
  530TIP3   OH223148   1.973   4.158   7.443  0.0488  0.3803 -0.5984
  530TIP3    H123149   1.983   4.217   7.368  1.8318  1.0377  0.1175
  530TIP3    H223150   2.018   4.078   7.417  1.2590  0.8486 -0.0033
  531TIP3   OH223151   1.207   2.988   1.993  0.3380  0.6479  0.2491
  531TIP3    H123152   1.295   2.985   2.030  0.7248  1.2861 -0.5894
  531TIP3    H223153   1.158   3.044   2.053  0.6325  0.6937  0.4521
  532TIP3   OH223154   0.698   1.686   6.355 -0.1958  0.1314 -0.5309
  532TIP3    H123155   0.659   1.605   6.322  0.1107 -1.2099  2.1693
  532TIP3    H223156   0.793   1.670   6.353  0.0124  1.2959 -1.9636
  533TIP3   OH223157   6.041   0.431   6.516 -0.2582 -0.0498 -0.1349
  533TIP3    H123158   6.011   0.416   6.606  1.4453 -2.4656  0.1391
  533TIP3    H223159   6.103   0.503   6.523  0.6143 -0.8524  0.8674
  534TIP3   OH223160   0.169   4.830   8.723 -0.0826  0.2581  0.2110
  534TIP3    H123161   0.118   4.900   8.763  0.8004  0.0353  1.8228
  534TIP3    H223162   0.222   4.874   8.657  1.5558  1.4636  2.1818
  535TIP3   OH223163   1.903   5.850   0.528  0.3808  0.3697  0.4066
  535TIP3    H123164   1.963   5.797   0.475  0.1006  0.4596 -0.0079
  535TIP3    H223165   1.950   5.932   0.542  1.3075 -0.3899  2.0498
  536TIP3   OH223166   3.825   2.829   7.311  0.4160 -0.5338  0.2659
  536TIP3    H123167   3.883   2.772   7.363  2.8440  1.4323 -0.0895
  536TIP3    H223168   3.757   2.855   7.372  1.1763 -1.1354  1.4222
  537TIP3   OH223169   4.161   6.646   7.157  0.3063  0.0991 -0.3831
  537TIP3    H123170   4.099   6.682   7.221  0.2105  0.4952 -0.6949
  537TIP3    H223171   4.216   6.720   7.133  1.0731 -0.3070  0.0750
  538TIP3   OH223172   4.281   6.129   0.675  0.1631  0.4053  0.3166
  538TIP3    H123173   4.217   6.078   0.626 -1.6115  0.7018  2.1808
  538TIP3    H223174   4.287   6.085   0.760  0.7877  1.6426  0.9438
  539TIP3   OH223175   0.789   0.895   8.254  0.0499 -0.9566 -0.0900
  539TIP3    H123176   0.736   0.816   8.252 -1.0111 -0.2859  0.5380
  539TIP3    H223177   0.848   0.882   8.328 -2.4081  0.2000  2.2346
  540TIP3   OH223178   0.601   0.252   7.537  0.3148  0.6063  0.1948
  540TIP3    H123179   0.645   0.172   7.567 -0.8264  0.1433  0.6873
  540TIP3    H223180   0.579   0.298   7.618  1.6039  1.8055 -0.0948
  541TIP3   OH223181   1.351   1.280   8.208  0.3403 -0.1051 -0.6621
  541TIP3    H123182   1.390   1.363   8.181 -1.9884  1.5139  0.5675
  541TIP3    H223183   1.264   1.281   8.168  0.7518 -2.6804 -1.7879
  542TIP3   OH223184   3.658   5.655   8.237  0.2763 -0.2070 -0.2905
  542TIP3    H123185   3.724   5.710   8.195 -0.3265  0.7786  0.0289
  542TIP3    H223186   3.706   5.611   8.308  0.9578 -0.7762 -1.0813
  543TIP3   OH223187   3.044   5.637   5.951 -0.7762  0.4435  0.2555
  543TIP3    H123188   2.979   5.699   5.920 -1.7162 -1.3094 -1.4986
  543TIP3    H223189   2.993   5.572   6.000 -0.3320 -0.7073 -0.7618
  544TIP3   OH223190   2.415   3.546   8.089 -0.1126  0.1043  0.2889
  544TIP3    H123191   2.442   3.486   8.020  0.0068 -1.4261  1.6158
  544TIP3    H223192   2.481   3.615   8.087  0.3991 -0.3866 -0.5323
  545TIP3   OH223193   5.210   3.925   8.132  0.2617 -0.2556 -0.1826
  545TIP3    H123194   5.244   4.000   8.084  0.9693 -1.0881 -1.0242
  545TIP3    H223195   5.241   3.849   8.083  0.3664 -1.1284  1.1717
  546TIP3   OH223196   1.694   2.283   6.513 -0.4616 -0.4785 -0.6338
  546TIP3    H123197   1.785   2.312   6.504  0.3734 -1.7045  2.5812
  546TIP3    H223198   1.653   2.350   6.566 -0.9069 -0.8633 -0.4878
  547TIP3   OH223199   0.034   4.086   6.830  0.6133  0.0641  0.0562
  547TIP3    H123200  -0.043   4.037   6.800 -0.1501  0.8840  0.6501
  547TIP3    H223201   0.105   4.023   6.824 -0.6663 -1.8035  2.6734
  548TIP3   OH223202   6.148   6.727   1.702 -0.0397 -0.1143 -0.5903
  548TIP3    H123203   6.219   6.674   1.737  0.6109  0.6454 -0.7518
  548TIP3    H223204   6.179   6.756   1.616 -1.5493 -1.8389 -1.8101
  549TIP3   OH223205   6.223   2.794   1.528  0.0116 -0.1297 -0.1951
  549TIP3    H123206   6.249   2.846   1.604 -1.9684  1.7919 -0.7369
  549TIP3    H223207   6.244   2.704   1.553  0.6413  0.5740  2.0846
  550TIP3   OH223208   6.472   6.325   7.067 -0.1461  0.4947  0.6154
  550TIP3    H123209   6.443   6.302   6.979 -0.3607  0.9554  0.5601
  550TIP3    H223210   6.399   6.300   7.123  0.5911 -1.2299  0.8669
  551TIP3   OH223211   2.159   3.187   0.929 -0.3136 -0.6660  0.0774
  551TIP3    H123212   2.182   3.256   0.992  2.2635  0.5628 -2.0013
  551TIP3    H223213   2.148   3.234   0.846 -0.3955 -2.5716 -1.0384
  552TIP3   OH223214   3.051   0.678   6.762  0.3790 -0.3033  0.5277
  552TIP3    H123215   3.050   0.736   6.685  2.0407 -1.1121 -0.1553
  552TIP3    H223216   3.027   0.592   6.728 -0.6543 -0.3170  1.2692
  553TIP3   OH223217   6.140   6.508   7.376 -0.3122 -0.4350 -0.5790
  553TIP3    H123218   6.153   6.587   7.324 -0.3010 -0.1089 -0.0844
  553TIP3    H223219   6.087   6.536   7.451  0.2734 -0.7421 -0.0354
  554TIP3   OH223220   0.429   1.536   6.258  0.1383  0.6365 -0.2890
  554TIP3    H123221   0.426   1.630   6.274 -0.7440  0.1610  3.2003
  554TIP3    H223222   0.346   1.517   6.215 -0.0439  1.3615 -0.2731
  555TIP3   OH223223   5.475   1.522   7.129 -0.3126 -0.1349  0.5962
  555TIP3    H123224   5.423   1.584   7.180 -1.1313  0.2323 -0.6273
  555TIP3    H223225   5.433   1.522   7.042 -0.7350 -2.8822  0.7318
  556TIP3   OH223226   5.573   2.648   7.530 -0.2292  0.3809  0.7357
  556TIP3    H123227   5.566   2.735   7.492  0.5880  1.0345  1.9940
  556TIP3    H223228   5.640   2.604   7.477 -0.5634  0.5558  0.1678
  557TIP3   OH223229   4.998   0.820   8.542 -0.2818 -0.1309 -0.3619
  557TIP3    H123230   5.041   0.784   8.619 -2.8619 -3.7089 -0.3575
  557TIP3    H223231   4.953   0.898   8.574  0.8562 -0.0140  1.0642
  558TIP3   OH223232   6.752   2.765   7.302 -0.2183 -0.2192 -0.3386
  558TIP3    H123233   6.691   2.803   7.365 -0.0204 -3.4650  2.0707
  558TIP3    H223234   6.696   2.735   7.231 -1.2972 -1.5647  1.0034
  559TIP3   OH223235   2.449   1.605   1.253  0.7744 -0.3460 -0.6275
  559TIP3    H123236   2.377   1.561   1.298 -0.9876  1.8707 -1.1573
  559TIP3    H223237   2.494   1.653   1.322  1.4493 -1.2611 -0.4000
  560TIP3   OH223238   5.500   1.160   0.234 -0.0936 -0.5172  0.3026
  560TIP3    H123239   5.588   1.129   0.257 -0.0680  0.4067  1.5493
  560TIP3    H223240   5.511   1.199   0.147  1.1543  1.1751  1.1701
  561TIP3   OH223241   2.765   2.388   8.264  0.0171 -0.2129 -0.1477
  561TIP3    H123242   2.857   2.414   8.270  0.5660 -1.6970 -1.3984
  561TIP3    H223243   2.754   2.357   8.174 -1.7962  0.1749 -0.1055
  562TIP3   OH223244   4.117   4.702   8.761  0.0938  0.6562 -0.5707
  562TIP3    H123245   4.094   4.611   8.778  0.0875  0.3887 -1.9121
  562TIP3    H223246   4.169   4.728   8.837 -2.5544  0.5498  1.4201
  563TIP3   OH223247   0.980   1.998   0.507  0.0488  0.0302 -0.3362
  563TIP3    H123248   0.953   2.076   0.555 -0.5036 -0.8027  0.7849
  563TIP3    H223249   1.055   1.964   0.557 -0.5818 -0.8956  0.0244
  564TIP3   OH223250   5.019   5.897   0.126  0.0474 -0.1690  0.5148
  564TIP3    H123251   5.109   5.875   0.099 -0.0641  0.7385 -0.6582
  564TIP3    H223252   4.972   5.814   0.121  0.9035 -0.7437  1.5471
  565TIP3   OH223253   4.792   2.424   0.848 -0.0343 -0.2260 -0.2905
  565TIP3    H123254   4.730   2.410   0.920 -0.6370  3.7156  0.2157
  565TIP3    H223255   4.873   2.384   0.878 -0.9017 -0.7018  1.5750
  566TIP3   OH223256   0.440   1.285   6.105 -0.6181  0.1037  0.5131
  566TIP3    H123257   0.428   1.192   6.125 -2.8645  0.6719  2.2357
  566TIP3    H223258   0.356   1.325   6.127 -0.3799  2.2970 -2.0314
  567TIP3   OH223259   3.614   3.395   6.177 -0.2289  0.5682 -0.5002
  567TIP3    H123260   3.586   3.332   6.111  2.3199  1.0608 -2.2167
  567TIP3    H223261   3.710   3.395   6.171  0.0396  1.7289  2.2115
  568TIP3   OH223262   1.277   3.783   0.020 -0.5129  0.2655  0.0418
  568TIP3    H123263   1.202   3.740  -0.021  0.5319  1.2894 -3.2838
  568TIP3    H223264   1.347   3.718   0.018 -0.4676  0.3046  0.2731
  569TIP3   OH223265   4.768   2.606   2.114 -0.0522 -0.2084  0.1714
  569TIP3    H123266   4.817   2.535   2.156  0.3743 -1.5753 -2.4816
  569TIP3    H223267   4.691   2.564   2.078  0.3817  0.5683 -1.7521
  570TIP3   OH223268   2.443   3.998   7.952  0.2632  0.0292 -0.6759
  570TIP3    H123269   2.354   3.964   7.963  0.4402  0.1400  1.4216
  570TIP3    H223270   2.473   3.960   7.869 -1.9066  0.4287 -1.7145
  571TIP3   OH223271   0.175   1.329   1.322 -0.3517 -0.7221 -0.1597
  571TIP3    H123272   0.181   1.418   1.287  0.3240 -0.3093  0.9216
  571TIP3    H223273   0.108   1.287   1.270  0.5448 -0.1342 -1.8603
  572TIP3   OH223274   3.245   6.543   0.530  0.0817  0.6532 -0.9377
  572TIP3    H123275   3.189   6.600   0.583  1.4364 -0.5541  1.9605
  572TIP3    H223276   3.194   6.463   0.518  0.5130  0.1876  0.2632
  573TIP3   OH223277   6.489   4.285   6.807 -0.1391 -0.1275 -0.6262
  573TIP3    H123278   6.418   4.318   6.751 -0.5700 -0.2644 -0.1737
  573TIP3    H223279   6.561   4.347   6.794 -0.8372  0.8539 -0.0036
  574TIP3   OH223280   5.675   6.518   7.298  0.1077  1.0689 -0.0501
  574TIP3    H123281   5.751   6.465   7.324  1.5495  3.1492  0.1926
  574TIP3    H223282   5.657   6.493   7.208  1.1453  0.6349 -0.1430
  575TIP3   OH223283   5.633   5.536   6.574  0.1448  0.7582  0.0518
  575TIP3    H123284   5.608   5.536   6.482  2.2932 -0.2178 -0.6158
  575TIP3    H223285   5.641   5.629   6.597 -2.9948  1.1221  0.1327
  576TIP3   OH223286   1.399   2.686   7.886  0.6809  0.1846 -0.0132
  576TIP3    H123287   1.383   2.736   7.966 -1.7738  0.2807 -0.4864
  576TIP3    H223288   1.330   2.713   7.826 -0.3821 -3.1810 -0.5639
  577TIP3   OH223289   3.587   1.949   0.043 -0.0520  0.1501  0.2601
  577TIP3    H123290   3.497   1.977   0.058 -0.6936 -1.4994 -0.2449
  577TIP3    H223291   3.608   1.980  -0.045 -0.9836 -1.4242 -0.5571
  578TIP3   OH223292   3.634   6.318   0.171 -0.0774  0.1450 -0.2408
  578TIP3    H123293   3.609   6.235   0.129 -0.1220  0.3691 -0.6595
  578TIP3    H223294   3.556   6.372   0.166 -0.3570 -0.1128  0.8884
  579TIP3   OH223295   5.843   6.048   1.267  0.0190 -0.4585 -0.1823
  579TIP3    H123296   5.776   6.093   1.319  0.3011 -1.2678  0.9135
  579TIP3    H223297   5.888   6.118   1.219 -0.8451  0.2056 -0.0423
  580TIP3   OH223298   0.520   2.458   6.867  0.2287  0.0444 -0.2047
  580TIP3    H123299   0.529   2.482   6.959  0.4816 -1.5830  0.2335
  580TIP3    H223300   0.600   2.491   6.825 -0.1526  1.2937  0.0157
  581TIP3   OH223301   0.612   3.774   0.920  0.0205 -0.2783  0.2339
  581TIP3    H123302   0.618   3.684   0.954  1.7380 -0.7726 -1.2237
  581TIP3    H223303   0.563   3.821   0.987  1.3455 -1.7109  2.3493
  582TIP3   OH223304   6.590   6.456   6.796  0.0869  0.0324 -0.8126
  582TIP3    H123305   6.537   6.512   6.739  1.3166  1.3407 -0.7324
  582TIP3    H223306   6.675   6.450   6.751 -0.0076 -1.7943 -0.8147
  583TIP3   OH223307   0.392   2.228   7.539  0.1680 -0.3280 -0.7285
  583TIP3    H123308   0.476   2.268   7.515 -1.0835  2.0314 -1.5274
  583TIP3    H223309   0.366   2.274   7.619 -0.5621 -0.7110 -0.7419
  584TIP3   OH223310   4.068   5.286   1.899  0.2511  0.1928 -0.4819
  584TIP3    H123311   4.063   5.192   1.916 -0.1789 -0.3118 -2.9831
  584TIP3    H223312   3.978   5.317   1.910  0.6865  0.7826  2.2346
  585TIP3   OH223313   3.475   0.182   7.067  1.0724 -0.4064 -0.6858
  585TIP3    H123314   3.384   0.164   7.042  0.5983 -1.6194  1.6044
  585TIP3    H223315   3.468   0.240   7.143  2.2085 -0.7789 -0.2803
  586TIP3   OH223316   1.880   2.207   0.485  0.2817 -0.1530 -0.7871
  586TIP3    H123317   1.899   2.243   0.398 -0.0299  0.8462 -0.4642
  586TIP3    H223318   1.931   2.262   0.545 -0.4843 -0.0120 -0.2471
  587TIP3   OH223319   1.538   6.723   8.295  0.2276 -0.2258  0.6400
  587TIP3    H123320   1.571   6.664   8.227 -1.2330 -1.5629  1.0274
  587TIP3    H223321   1.581   6.807   8.277 -0.1676 -0.5006 -2.0017
  588TIP3   OH223322   3.575   3.414   8.754 -0.3438  0.0296  0.1568
  588TIP3    H123323   3.659   3.372   8.774 -0.1003  0.3553 -0.1685
  588TIP3    H223324   3.518   3.388   8.827  0.0800 -0.0747  0.4578
  589TIP3   OH223325   3.378   2.706   0.206  0.4380 -0.4448  0.1322
  589TIP3    H123326   3.342   2.793   0.191 -1.4415 -0.7354  2.4162
  589TIP3    H223327   3.421   2.712   0.292 -0.4028 -1.9227  0.6897
  590TIP3   OH223328   6.468   4.810   6.046  0.1552 -0.4846  0.2305
  590TIP3    H123329   6.510   4.756   6.113 -1.0667 -1.5435  0.1924
  590TIP3    H223330   6.464   4.753   5.969 -0.0302  0.1100 -0.2060
  591TIP3   OH223331   5.944   0.473   7.118 -0.0639  0.1838  0.3218
  591TIP3    H123332   5.898   0.475   7.034  0.8365 -0.4352 -0.2063
  591TIP3    H223333   5.970   0.382   7.129  1.9737  0.6918  0.0573
  592TIP3   OH223334   0.388   3.624   1.176  0.2917 -0.5827 -0.0282
  592TIP3    H123335   0.466   3.578   1.206  0.3442  0.1404  0.9700
  592TIP3    H223336   0.419   3.712   1.154 -0.4665  0.1978  1.8203
  593TIP3   OH223337   5.534   4.659   1.265  0.6212  0.5517 -0.6212
  593TIP3    H123338   5.557   4.752   1.265  3.1361  0.0186  1.1583
  593TIP3    H223339   5.617   4.613   1.272 -0.6630 -1.7634  1.0266
  594TIP3   OH223340   2.775   1.597   1.436 -0.1912  0.3718 -0.3788
  594TIP3    H123341   2.791   1.685   1.401 -0.5512  0.4699 -0.3046
  594TIP3    H223342   2.768   1.611   1.531  2.5929 -0.1393 -0.0069
  595TIP3   OH223343   6.792   5.497   0.181 -0.3480  0.2387 -0.1955
  595TIP3    H123344   6.852   5.424   0.170  0.3593  0.8220 -0.2374
  595TIP3    H223345   6.818   5.560   0.114 -0.4820  0.8503  0.3174
  596TIP3   OH223346   1.741   4.036   1.269  0.3699 -0.1667  0.7872
  596TIP3    H123347   1.694   4.104   1.221  0.3575 -0.2938  0.6196
  596TIP3    H223348   1.833   4.060   1.260  0.3863 -0.3591  0.4443
  597TIP3   OH223349   3.260   5.167   5.796  0.4333 -0.1719  0.3120
  597TIP3    H123350   3.340   5.176   5.848  1.0620 -1.2800 -0.4313
  597TIP3    H223351   3.194   5.214   5.847  1.4765  0.5129  1.0939
  598TIP3   OH223352   4.401   2.566   1.306 -0.1547  0.5056 -0.5278
  598TIP3    H123353   4.406   2.576   1.211  1.2617 -0.0781 -0.5305
  598TIP3    H223354   4.346   2.488   1.318 -1.1812  1.1533 -0.8083
  599TIP3   OH223355   2.288   5.795   0.667 -0.6015 -0.5172 -0.2550
  599TIP3    H123356   2.348   5.858   0.628 -0.9711  0.5465  0.8225
  599TIP3    H223357   2.244   5.844   0.737 -0.9944 -1.9444  0.5359
  600TIP3   OH223358   4.581   4.645   1.867  0.3469  0.2971 -0.4130
  600TIP3    H123359   4.619   4.712   1.924  2.4141 -1.6579  0.6730
  600TIP3    H223360   4.655   4.609   1.820 -0.6418 -1.4883 -0.6837
  601TIP3   OH223361   3.652   6.419   1.510 -0.5842  0.3326  0.3435
  601TIP3    H123362   3.579   6.442   1.567 -1.1270 -0.9092  0.1786
  601TIP3    H223363   3.678   6.502   1.470 -1.1405  0.9818  1.2861
  602TIP3   OH223364   5.740   0.463   7.332  0.4024  0.7859 -0.5577
  602TIP3    H123365   5.794   0.462   7.253  0.0430 -0.4260 -0.8182
  602TIP3    H223366   5.752   0.376   7.370 -1.7845  0.2656 -0.9410
  603TIP3   OH223367   4.784   6.775   1.234 -0.2107 -0.4465  0.2174
  603TIP3    H123368   4.851   6.717   1.269 -0.5156 -1.2685 -0.5238
  603TIP3    H223369   4.763   6.835   1.306  1.1323 -0.3290  0.5396
  604TIP3   OH223370   4.755   5.038   7.663 -0.8426  0.0451 -0.2055
  604TIP3    H123371   4.660   5.041   7.677 -0.7656 -0.4301  0.5012
  604TIP3    H223372   4.766   4.994   7.579 -1.2204 -0.8956  0.2282
  605TIP3   OH223373   3.600   0.441   8.764 -0.6474  0.6061 -0.5569
  605TIP3    H123374   3.625   0.349   8.778 -2.6400 -0.2680 -2.3323
  605TIP3    H223375   3.671   0.477   8.711  0.9978  0.6422  1.5291
  606TIP3   OH223376   6.099   4.846   7.029  0.2051 -0.1205  0.5870
  606TIP3    H123377   6.087   4.769   6.973  1.3622 -0.2937  0.5358
  606TIP3    H223378   6.014   4.861   7.069 -0.7577  0.1964 -1.4566
  607TIP3   OH223379   5.044   4.633   8.311  0.2753 -0.2615  0.5338
  607TIP3    H123380   4.973   4.626   8.247  1.6789 -0.8671 -1.0480
  607TIP3    H223381   5.012   4.587   8.388 -0.5729 -1.6625 -0.6045
  608TIP3   OH223382   2.470   0.155   7.134  0.3948 -0.0506  0.0622
  608TIP3    H123383   2.501   0.071   7.167  0.5012 -0.0592 -0.0576
  608TIP3    H223384   2.375   0.147   7.136  0.4053 -0.3917 -0.4882
  609TIP3   OH223385   0.252   6.436   8.023 -0.0225  0.2593 -0.2560
  609TIP3    H123386   0.299   6.362   8.062 -0.7659  1.1494  2.5528
  609TIP3    H223387   0.167   6.437   8.068 -0.3001  2.4054 -0.7078
  610TIP3   OH223388   4.613   0.811   8.316 -0.0635  0.6465 -0.7501
  610TIP3    H123389   4.671   0.738   8.335 -1.1656 -0.4952 -1.5870
  610TIP3    H223390   4.671   0.882   8.288  1.0632  0.2852  0.5515
  611TIP3   OH223391   0.329   4.902   8.193 -0.3945 -0.0842 -0.4142
  611TIP3    H123392   0.315   4.880   8.286 -1.3079 -0.3920 -0.6155
  611TIP3    H223393   0.278   4.837   8.145 -0.3999  0.4319 -1.1254
  612TIP3   OH223394   3.143   2.387   6.601  0.5202 -0.1527 -0.1534
  612TIP3    H123395   3.050   2.365   6.595  0.5828 -0.1739 -1.2504
  612TIP3    H223396   3.187   2.322   6.546  1.3443 -0.9439  1.3584
  613TIP3   OH223397   5.587   0.143   8.113 -0.2495  0.2540  0.5472
  613TIP3    H123398   5.584   0.157   8.018 -1.1504  1.8135  0.7618
  613TIP3    H223399   5.495   0.147   8.140  0.1081  1.4282  1.6630
  614TIP3   OH223400   5.384   5.219   1.128 -0.1555 -0.0666  0.2625
  614TIP3    H123401   5.332   5.292   1.094  0.2377  0.0228 -0.1556
  614TIP3    H223402   5.398   5.241   1.221  0.5119  0.7329 -0.0109
  615TIP3   OH223403   4.498   6.048   6.080 -0.3683  1.1113  0.2220
  615TIP3    H123404   4.586   6.080   6.100  0.0713 -0.4120  0.8830
  615TIP3    H223405   4.445   6.127   6.070  0.1734  2.1307  3.9091
  616TIP3   OH223406   4.518   3.335   6.983 -0.4395 -0.7470  0.3746
  616TIP3    H123407   4.607   3.323   7.015 -0.3646 -0.1679  0.3858
  616TIP3    H223408   4.474   3.252   7.003  0.1519 -1.1114  0.1752
  617TIP3   OH223409   2.705   2.867   7.857 -0.1498  0.3283 -0.3630
  617TIP3    H123410   2.720   2.956   7.825  0.7684  0.2586 -0.1734
  617TIP3    H223411   2.793   2.834   7.876 -0.4809 -0.6143 -0.4157
  618TIP3   OH223412   3.661   3.580   1.646  0.0317 -0.1479  0.2487
  618TIP3    H123413   3.655   3.524   1.568  0.0536 -0.6570  0.6092
  618TIP3    H223414   3.701   3.661   1.614  2.7920 -1.3967  0.2396
  619TIP3   OH223415   0.012   3.806   2.025  0.4143 -0.1092  0.0718
  619TIP3    H123416   0.053   3.855   1.954  1.4502 -0.5034  0.3766
  619TIP3    H223417  -0.064   3.858   2.049  1.3210  1.2274  0.1931
  620TIP3   OH223418   2.324   5.707   6.153  0.1434  0.7721 -0.3620
  620TIP3    H123419   2.262   5.696   6.080 -0.7444 -1.2795  0.6151
  620TIP3    H223420   2.289   5.651   6.222  2.3078  0.7328  0.7669
  621TIP3   OH223421   5.213   3.853   0.323  0.0999  0.5850  0.1498
  621TIP3    H123422   5.127   3.863   0.282 -0.5527 -0.9565  1.0471
  621TIP3    H223423   5.270   3.824   0.253 -0.1085  1.5258 -0.4343
  622TIP3   OH223424   4.163   2.661   0.539 -0.4832 -0.4468  0.1269
  622TIP3    H123425   4.137   2.572   0.517 -1.0342 -0.0024 -1.1182
  622TIP3    H223426   4.101   2.716   0.491 -0.4133  0.6109  1.2047
  623TIP3   OH223427   0.199   2.624   8.365 -0.2228 -0.0406  0.1214
  623TIP3    H123428   0.125   2.674   8.400 -0.1854  1.2989 -1.5969
  623TIP3    H223429   0.268   2.634   8.431 -1.1209 -0.1933  1.1112
  624TIP3   OH223430   1.478   6.577   6.431  0.2752 -0.0812  0.0177
  624TIP3    H123431   1.558   6.624   6.408  0.7862 -0.3478  1.1856
  624TIP3    H223432   1.410   6.645   6.435  0.2456  0.0527 -1.6937
  625TIP3   OH223433   5.890   6.361   7.332 -0.1924 -0.5081  0.5079
  625TIP3    H123434   5.982   6.384   7.319 -0.4029  1.1757  1.6256
  625TIP3    H223435   5.892   6.267   7.353  1.4853 -0.1724  2.2172
  626TIP3   OH223436   4.964   2.069   7.677 -0.1035 -0.0869  0.1758
  626TIP3    H123437   4.946   1.978   7.653  1.4359 -0.1910 -0.7125
  626TIP3    H223438   4.908   2.085   7.753 -0.1794 -1.8707  0.5407
  627TIP3   OH223439   0.566   0.621   0.378  0.4199 -0.6988 -0.4819
  627TIP3    H123440   0.548   0.669   0.297  1.1105  0.2083 -0.1210
  627TIP3    H223441   0.661   0.607   0.376  0.7224  0.7698  0.9044
  628TIP3   OH223442   3.773   0.047   8.323 -0.6955 -0.0887  1.0054
  628TIP3    H123443   3.764  -0.044   8.296  1.3671 -0.6922  2.1305
  628TIP3    H223444   3.818   0.090   8.250  0.5236 -0.5789  1.4426
  629TIP3   OH223445   5.586   2.989   1.393 -0.2523 -0.7735  0.3556
  629TIP3    H123446   5.514   2.934   1.422  0.2764 -1.6129  0.1182
  629TIP3    H223447   5.576   3.071   1.442 -0.5577 -1.4071  1.3668
  630TIP3   OH223448   5.994   5.323   7.290  0.2124 -0.0201  0.1508
  630TIP3    H123449   5.967   5.336   7.199  0.9535  1.5936  0.1377
  630TIP3    H223450   5.951   5.394   7.338  1.2621  0.2261  0.7522
  631TIP3   OH223451   4.602   0.443   8.257 -0.0643  0.4938  0.2612
  631TIP3    H123452   4.696   0.428   8.266  0.1424  1.8125  0.3605
  631TIP3    H223453   4.586   0.444   8.163 -0.3579 -1.8181  0.2171
  632TIP3   OH223454   2.324   4.733   6.421  0.0363 -0.2683  0.4856
  632TIP3    H123455   2.255   4.667   6.426  0.1142 -0.2937  1.4779
  632TIP3    H223456   2.279   4.816   6.435 -0.0163 -0.1267 -0.4594
  633TIP3   OH223457   3.078   1.496   7.984 -0.3294  0.0004 -0.4189
  633TIP3    H123458   3.018   1.465   8.052 -0.4564 -0.3918 -0.7018
  633TIP3    H223459   3.141   1.550   8.031 -1.6450  1.5191 -0.2889
  634TIP3   OH223460   1.527   2.519   1.008 -0.4746 -0.5543  0.0344
  634TIP3    H123461   1.493   2.485   0.925 -0.9739 -0.9137  0.3848
  634TIP3    H223462   1.468   2.591   1.030 -0.4104 -0.5330  0.1343
  635TIP3   OH223463   5.562   0.680   8.589 -0.3767  0.3784 -0.7449
  635TIP3    H123464   5.595   0.622   8.521 -0.9078 -0.6761 -0.1240
  635TIP3    H223465   5.631   0.680   8.656 -0.6228  0.0048 -0.4879
  636TIP3   OH223466   5.153   0.755   7.172  0.0581 -0.2681  0.4717
  636TIP3    H123467   5.070   0.783   7.209  1.1245  0.8844  2.1334
  636TIP3    H223468   5.172   0.820   7.104 -0.0314 -0.0944  0.6123
  637TIP3   OH223469   4.373   1.424   7.249 -0.3537  0.1263  0.2742
  637TIP3    H123470   4.448   1.483   7.256 -1.0130  0.8330  1.8507
  637TIP3    H223471   4.398   1.347   7.300  0.9764 -1.6051 -2.7112
  638TIP3   OH223472   5.207   1.821   0.575 -0.1346 -1.0125 -0.3303
  638TIP3    H123473   5.199   1.731   0.607 -1.7197  0.1092  2.9823
  638TIP3    H223474   5.150   1.825   0.499 -2.1859 -2.2663  1.0375
  639TIP3   OH223475   5.829   6.140   0.731 -0.5598 -0.2023 -0.2573
  639TIP3    H123476   5.849   6.051   0.705 -0.5005  0.1743 -1.5635
  639TIP3    H223477   5.789   6.132   0.818  0.1923 -1.4118 -0.0125
  640TIP3   OH223478   6.713   6.432   1.255 -0.5006  0.3550 -0.1463
  640TIP3    H123479   6.680   6.518   1.283  1.1679  0.3199  2.2137
  640TIP3    H223480   6.790   6.417   1.309 -0.0450 -2.1304 -1.3483
  641TIP3   OH223481   3.333   5.935   0.705  0.4331 -0.2124 -0.2423
  641TIP3    H123482   3.273   5.908   0.635 -0.7658 -0.0569  0.6825
  641TIP3    H223483   3.415   5.953   0.661  0.1890 -1.7313 -1.3880
  642TIP3   OH223484   2.488   1.599   6.779  0.2172 -0.0874  0.2124
  642TIP3    H123485   2.547   1.524   6.769 -0.7743 -0.5723 -4.1100
  642TIP3    H223486   2.541   1.675   6.756  0.6397  0.3629  2.4467
  643TIP3   OH223487   0.262   6.039   0.752 -0.6480 -0.1442 -0.6562
  643TIP3    H123488   0.304   5.959   0.781 -0.7529 -0.1990 -0.6531
  643TIP3    H223489   0.170   6.015   0.742 -0.5623 -0.2117 -1.3450
  644TIP3   OH223490   3.343   0.662   7.248 -0.2188 -0.8036 -0.7042
  644TIP3    H123491   3.391   0.738   7.279  0.5142 -1.8790  0.9434
  644TIP3    H223492   3.408   0.609   7.202 -0.0178 -1.7443  0.5987
  645TIP3   OH223493   0.968   4.218   8.410 -0.6529 -0.0738 -0.1662
  645TIP3    H123494   1.009   4.149   8.463 -3.5901  0.1472  2.7174
  645TIP3    H223495   1.009   4.299   8.441  1.7551 -0.2667 -2.5269
  646TIP3   OH223496   2.009   6.150   7.752  0.3776  0.2641 -0.5089
  646TIP3    H123497   2.073   6.171   7.819  0.9220 -0.0021 -0.9343
  646TIP3    H223498   1.971   6.235   7.727  0.9571  0.4890 -0.6371
  647TIP3   OH223499   4.200   0.091   6.992  0.1008 -1.4739 -0.0964
  647TIP3    H123500   4.105   0.081   6.991 -0.1362  0.2793  0.9183
  647TIP3    H223501   4.216   0.179   6.959  1.2459 -1.1412  1.2035
  648TIP3   OH223502   1.094   2.769   0.780  0.2662  0.6402 -0.5252
  648TIP3    H123503   1.073   2.861   0.762 -0.6086  0.3013 -1.3579
  648TIP3    H223504   1.061   2.754   0.868  0.0374  1.0194 -0.5438
  649TIP3   OH223505   5.393   6.437   7.549 -0.2821 -0.0597  0.2918
  649TIP3    H123506   5.383   6.436   7.454 -1.7943 -0.0066  0.4369
  649TIP3    H223507   5.335   6.367   7.580  0.1437 -0.0311  1.1846
  650TIP3   OH223508   0.797   4.929   0.776  0.2570  0.7738 -0.7126
  650TIP3    H123509   0.856   5.003   0.793  0.4029  0.4410  0.2966
  650TIP3    H223510   0.835   4.885   0.700  1.7177  0.1689  0.3275
  651TIP3   OH223511   0.898   0.537   7.563 -0.1449 -0.3745  0.0454
  651TIP3    H123512   0.977   0.587   7.540 -0.3997 -0.1765 -0.4174
  651TIP3    H223513   0.910   0.452   7.520 -0.4262 -0.1542 -0.4794
  652TIP3   OH223514   2.036   4.028   1.248  0.0273  0.6544  0.2605
  652TIP3    H123515   2.107   3.966   1.262 -0.4410 -0.3862 -1.5403
  652TIP3    H223516   2.060   4.074   1.168 -1.3000  0.2491 -0.4083
  653TIP3   OH223517   3.408   1.331   8.791 -1.0534  0.1367 -0.2447
  653TIP3    H123518   3.499   1.346   8.817 -1.3169  0.7708  0.3397
  653TIP3    H223519   3.356   1.357   8.867 -1.6862 -1.2699 -0.1653
  654TIP3   OH223520   6.596   3.265   6.641 -0.3798  0.8985  0.1541
  654TIP3    H123521   6.553   3.294   6.721 -0.0714  0.2497  0.5640
  654TIP3    H223522   6.689   3.267   6.662 -0.3404 -0.2162  0.1473
  655TIP3   OH223523   1.815   4.634   7.593  0.2178  0.1045 -0.4612
  655TIP3    H123524   1.733   4.662   7.551 -1.0858 -1.2453  1.0331
  655TIP3    H223525   1.853   4.571   7.532 -1.4094 -1.4906  0.0537
  656TIP3   OH223526   5.209   0.926   8.363  0.4820  0.2915  0.2592
  656TIP3    H123527   5.179   0.849   8.412 -0.4642  0.0576 -0.6550
  656TIP3    H223528   5.158   0.999   8.400  0.4965  0.2832  0.2961
  657TIP3   OH223529   0.085   1.049   8.199 -0.8569  0.3204 -0.3513
  657TIP3    H123530   0.162   0.994   8.209 -2.1787 -1.1851  3.5454
  657TIP3    H223531   0.012   0.992   8.222 -3.0962  2.0030 -2.7601
  658TIP3   OH223532   0.490   1.505   8.752  0.1609 -0.3912 -0.4630
  658TIP3    H123533   0.528   1.445   8.815 -1.0197 -0.7846 -0.1076
  658TIP3    H223534   0.407   1.465   8.727 -0.2567  0.6754 -0.8513
  659TIP3   OH223535   5.727   1.137   0.616  0.0564 -0.4180  0.1817
  659TIP3    H123536   5.695   1.208   0.560  2.1764  0.5428  0.0849
  659TIP3    H223537   5.682   1.059   0.583  0.7436  0.2126 -2.4918
  660TIP3   OH223538   5.994   2.163   6.380 -0.8471 -0.3898  0.0734
  660TIP3    H123539   5.981   2.137   6.471 -0.4763  1.6396  0.7514
  660TIP3    H223540   5.956   2.091   6.329 -0.6424 -1.7948  1.7998
  661TIP3   OH223541   6.222   3.579   0.414 -0.1255  0.4399  0.2452
  661TIP3    H123542   6.316   3.557   0.409 -0.3347 -0.3784 -0.4027
  661TIP3    H223543   6.212   3.621   0.499  0.7296  0.0062  0.5789
  662TIP3   OH223544   2.714   0.902   0.525  0.0612 -0.0988 -0.1817
  662TIP3    H123545   2.768   0.840   0.573 -0.2742 -1.1947 -1.1613
  662TIP3    H223546   2.636   0.852   0.501 -1.0637  1.2331  0.5698
  663TIP3   OH223547   5.466   4.902   0.432  0.2606  0.0892 -0.0059
  663TIP3    H123548   5.377   4.892   0.465  0.5459 -1.0673  0.4747
  663TIP3    H223549   5.471   4.993   0.402 -1.1193  0.1255 -0.1890
  664TIP3   OH223550   5.075   6.225   1.446 -0.3799  0.2107  0.7743
  664TIP3    H123551   5.005   6.280   1.411  0.7271  0.7127 -0.7408
  664TIP3    H223552   5.156   6.261   1.409  0.7658 -0.0625  2.8250
  665TIP3   OH223553   1.264   0.223   7.100 -0.0631 -0.2025  0.0087
  665TIP3    H123554   1.220   0.159   7.045 -3.1891  0.9820  0.9044
  665TIP3    H223555   1.218   0.305   7.083 -0.6145  0.3995  3.6536
  666TIP3   OH223556   4.352   1.606   1.271 -0.1073 -0.0946  0.4002
  666TIP3    H123557   4.281   1.654   1.314  0.1239  1.9506 -1.3047
  666TIP3    H223558   4.307   1.542   1.215 -0.5682  0.2150  0.4101
  667TIP3   OH223559   3.587   0.361   1.722  0.0135  0.5238  0.7370
  667TIP3    H123560   3.676   0.337   1.696 -0.2198 -2.7381  2.4204
  667TIP3    H223561   3.586   0.457   1.716  2.6832  0.5781 -2.0740
  668TIP3   OH223562   6.077   2.884   7.619 -0.3227  0.7113 -0.2289
  668TIP3    H123563   6.003   2.941   7.596  1.3305  4.0815  1.9653
  668TIP3    H223564   6.143   2.902   7.553 -0.2247  0.3748 -0.2258
  669TIP3   OH223565   6.196   0.795   1.058  0.5325  0.0424 -0.2731
  669TIP3    H123566   6.206   0.770   1.150  1.8767  2.0157  0.1898
  669TIP3    H223567   6.148   0.722   1.019  1.3534 -1.6439  1.6156
  670TIP3   OH223568   2.355   2.202   2.158  0.4619 -0.0861  0.1687
  670TIP3    H123569   2.358   2.288   2.115 -1.6604 -0.2158 -0.3633
  670TIP3    H223570   2.278   2.160   2.120 -1.8609 -0.1071  4.2663
  671TIP3   OH223571   3.242   3.296   6.096 -0.1482 -0.2545  0.2298
  671TIP3    H123572   3.331   3.268   6.075  0.0993  0.1165  0.7667
  671TIP3    H223573   3.195   3.215   6.112  0.7293 -0.3929  2.4661
  672TIP3   OH223574   2.453   1.415   8.074 -0.0980  0.2420  0.2273
  672TIP3    H123575   2.411   1.414   8.160  0.9712 -1.3415  0.7703
  672TIP3    H223576   2.543   1.387   8.091 -0.1281 -1.0973 -1.5281
  673TIP3   OH223577   0.510   4.436   6.748 -0.5438  0.1670 -0.2502
  673TIP3    H123578   0.459   4.517   6.741 -0.5186  0.1376 -0.8258
  673TIP3    H223579   0.445   4.366   6.746 -0.4885  0.1291 -0.9808
  674TIP3   OH223580   3.881   5.497   1.132  0.3621 -0.2249  0.0146
  674TIP3    H123581   3.903   5.543   1.213 -1.1143  0.7550 -0.1129
  674TIP3    H223582   3.955   5.437   1.118  0.3049 -0.9786  2.4789
  675TIP3   OH223583   3.786   0.308   6.334 -0.0352  0.2916  0.0910
  675TIP3    H123584   3.862   0.252   6.348 -1.2629 -0.8229  3.1827
  675TIP3    H223585   3.725   0.253   6.285 -0.5364 -0.5188  1.5591
  676TIP3   OH223586   2.908   3.696   6.641  0.0063  0.1540 -0.1913
  676TIP3    H123587   2.874   3.759   6.578  0.3044 -0.2671 -0.7840
  676TIP3    H223588   2.846   3.698   6.713 -3.0475 -2.6974 -2.4142
  677TIP3   OH223589   0.901   1.855   1.532  0.1784 -0.5767  0.0119
  677TIP3    H123590   0.851   1.777   1.558  0.1219 -0.2280  0.9969
  677TIP3    H223591   0.978   1.853   1.589  0.0791  0.1844  0.1754
  678TIP3   OH223592   3.908   5.248   8.519  0.3053 -0.3158  0.1337
  678TIP3    H123593   3.855   5.176   8.485  1.4807 -0.7975 -0.7291
  678TIP3    H223594   3.938   5.219   8.605 -0.7752 -0.0534  0.6136
  679TIP3   OH223595   3.915   2.562   8.260 -0.2107  0.3648 -0.0376
  679TIP3    H123596   3.968   2.592   8.185  1.6709 -0.8321  0.7298
  679TIP3    H223597   3.920   2.633   8.323  0.9304  0.0903  0.2086
  680TIP3   OH223598   0.219   5.584   0.596  0.7206 -0.2517 -0.0215
  680TIP3    H123599   0.144   5.571   0.538  0.5289  0.2257  0.1148
  680TIP3    H223600   0.184   5.634   0.669  1.0295 -0.5913  0.3644
  681TIP3   OH223601   4.293   5.885   7.940  0.0718  0.1028 -0.1708
  681TIP3    H123602   4.346   5.951   7.896  0.3333  0.3352  0.4750
  681TIP3    H223603   4.231   5.935   7.994  0.0575 -0.1747  0.0748
  682TIP3   OH223604   3.526   5.002   5.787  0.2656  0.0236  1.0822
  682TIP3    H123605   3.571   4.929   5.831  1.8057  0.4541  0.2992
  682TIP3    H223606   3.533   5.075   5.849  1.3415  0.2948  0.6562
  683TIP3   OH223607   4.635   5.465   0.170  0.3716 -0.3538  0.0169
  683TIP3    H123608   4.604   5.386   0.127  1.7130 -0.0305 -1.6681
  683TIP3    H223609   4.704   5.435   0.229  0.8397 -0.4674 -0.5791
  684TIP3   OH223610   6.193   6.783   0.678  0.1168 -0.1083  0.0307
  684TIP3    H123611   6.216   6.827   0.760  0.1033 -2.2239  1.2357
  684TIP3    H223612   6.278   6.762   0.639  0.1243  1.0357 -0.6234
  685TIP3   OH223613   4.999   4.411   0.900  0.7171 -0.0771 -0.1938
  685TIP3    H123614   5.060   4.466   0.950  1.6348 -0.6375 -0.6650
  685TIP3    H223615   4.912   4.440   0.928  1.1960  0.3940  0.8737
  686TIP3   OH223616   0.665   1.115   7.537 -0.3330  0.2511  0.1397
  686TIP3    H123617   0.720   1.118   7.616  1.1715 -1.0707 -0.7979
  686TIP3    H223618   0.615   1.034   7.546  0.7572 -0.5583 -0.7973
  687TIP3   OH223619   6.007   5.425   7.675 -0.5449  0.0424 -0.3521
  687TIP3    H123620   5.964   5.510   7.676  0.8259  0.7600  0.2563
  687TIP3    H223621   6.070   5.431   7.603 -0.6853 -0.5933 -0.5386
  688TIP3   OH223622   0.503   2.380   6.287  0.3057  0.4305 -0.0740
  688TIP3    H123623   0.572   2.378   6.353  0.6080  0.3244 -0.3897
  688TIP3    H223624   0.473   2.471   6.286  0.3578  0.4494  0.1496
  689TIP3   OH223625   5.380   0.392   7.398  0.0036  0.5774  0.2034
  689TIP3    H123626   5.329   0.311   7.392 -0.4987  0.9313 -0.3916
  689TIP3    H223627   5.439   0.389   7.322  0.4866  0.4406  0.5747
  690TIP3   OH223628   0.356   0.455   8.617  0.2334 -0.1476 -0.0727
  690TIP3    H123629   0.310   0.413   8.689 -0.8755  1.6547  0.3447
  690TIP3    H223630   0.292   0.515   8.579  0.9214 -0.7395 -2.3331
  691TIP3   OH223631   3.646   2.562   7.908  0.1399  0.2445 -0.4498
  691TIP3    H123632   3.571   2.574   7.851  0.4148  0.8456 -0.6901
  691TIP3    H223633   3.610   2.560   7.997 -0.0698  1.5042 -0.4889
  692TIP3   OH223634   4.474   1.252   0.731 -0.6331 -0.5145  0.0774
  692TIP3    H123635   4.423   1.265   0.811 -1.2927  2.5017 -0.6869
  692TIP3    H223636   4.418   1.287   0.662  0.6255 -1.4757 -1.4807
  693TIP3   OH223637   4.568   6.274   7.413 -0.0222  0.1299  0.2459
  693TIP3    H123638   4.591   6.195   7.462 -0.2708  0.1167  0.3438
  693TIP3    H223639   4.590   6.254   7.322  1.2500  0.4565  0.4532
  694TIP3   OH223640   0.512   2.998   1.025 -0.2640  0.5759  0.0500
  694TIP3    H123641   0.551   2.911   1.019  0.9610  1.0699  0.3982
  694TIP3    H223642   0.507   3.029   0.934  0.2524  0.5373  0.0056
  695TIP3   OH223643   0.722   5.518   7.895 -0.1405  0.0219 -0.0280
  695TIP3    H123644   0.806   5.514   7.942  0.4041  2.6262 -0.6167
  695TIP3    H223645   0.657   5.534   7.963  0.4913  2.5379  0.1007
  696TIP3   OH223646   6.655   4.504   6.810  0.0198 -0.2638  0.5463
  696TIP3    H123647   6.688   4.503   6.720 -0.6810  2.3408  0.1876
  696TIP3    H223648   6.649   4.597   6.833 -3.2430 -0.7076  1.9902
  697TIP3   OH223649   3.017   3.870   1.005 -0.0313  0.0786 -0.0653
  697TIP3    H123650   2.975   3.840   1.085 -0.2707 -1.4872 -0.7292
  697TIP3    H223651   2.945   3.900   0.949 -0.0575 -0.5244 -0.3636
  698TIP3   OH223652   5.451   1.415   0.048  0.6572 -0.5162  0.1715
  698TIP3    H123653   5.502   1.410  -0.033  0.7915 -1.6247  0.3028
  698TIP3    H223654   5.370   1.459   0.022  1.5820  1.0885 -0.0797
  699TIP3   OH223655   2.861   2.895   0.384 -0.2927 -0.0463  0.2154
  699TIP3    H123656   2.839   2.939   0.466 -1.3138 -1.0016  0.4815
  699TIP3    H223657   2.791   2.918   0.324 -0.9866 -1.4683  0.4351
  700TIP3   OH223658   5.707   4.853   0.731  0.0034 -0.8896 -0.4557
  700TIP3    H123659   5.687   4.868   0.639 -0.1802 -0.7856 -0.3993
  700TIP3    H223660   5.623   4.827   0.770 -0.8743  2.7396  0.4859
  701TIP3   OH223661   3.592   4.544   8.489  0.1331 -0.4058  0.2270
  701TIP3    H123662   3.613   4.626   8.443 -0.6037 -0.6042 -0.4703
  701TIP3    H223663   3.537   4.496   8.429  0.3500 -1.3192  0.7436
  702TIP3   OH223664   1.714   6.772   7.019  0.3352  0.4037 -0.1481
  702TIP3    H123665   1.693   6.698   7.076 -0.0958  1.9318  1.7952
  702TIP3    H223666   1.775   6.736   6.955  0.5026 -1.5244  1.0070
  703TIP3   OH223667   5.960   4.419   1.490 -0.4240  0.0759 -0.2572
  703TIP3    H123668   6.024   4.349   1.477 -0.7200 -0.2254 -0.1239
  703TIP3    H223669   5.963   4.437   1.583 -0.3574  0.2312 -0.2900
  704TIP3   OH223670   2.446   1.346   1.966  0.6177  0.0347 -1.1193
  704TIP3    H123671   2.491   1.275   1.921  1.0142  0.6646 -1.7264
  704TIP3    H223672   2.356   1.340   1.936  0.3156 -1.0857 -0.0780
  705TIP3   OH223673   0.375   1.868   1.930 -0.5287 -0.3336  0.3640
  705TIP3    H123674   0.287   1.887   1.896 -0.4512 -0.7582 -0.0805
  705TIP3    H223675   0.421   1.828   1.857  0.1850  0.2937  0.4569
  706TIP3   OH223676   3.599   5.054   0.657 -0.3481  0.3898  0.1293
  706TIP3    H123677   3.652   5.044   0.577 -0.6424 -0.5446  0.0351
  706TIP3    H223678   3.663   5.067   0.727 -0.0201 -0.0548 -0.0806
  707TIP3   OH223679   2.800   5.348   8.035 -0.6285  0.4586 -0.0364
  707TIP3    H123680   2.821   5.279   8.099 -0.3116  0.5959  0.0105
  707TIP3    H223681   2.706   5.337   8.018 -0.9125  0.9949  1.1256
  708TIP3   OH223682   2.692   5.951   7.015  0.2202  0.0556 -0.7473
  708TIP3    H123683   2.692   5.862   6.978 -0.5247  0.0628 -0.7845
  708TIP3    H223684   2.599   5.974   7.021  0.3988  0.7136 -0.4442
  709TIP3   OH223685   2.740   2.057   1.414 -0.3102  0.8527  0.2720
  709TIP3    H123686   2.727   2.088   1.503  0.7047 -0.6740  1.0015
  709TIP3    H223687   2.716   2.131   1.359  0.8832  2.5260  1.8502
  710TIP3   OH223688   5.237   6.775   7.669 -0.1964 -0.7961 -0.5445
  710TIP3    H123689   5.321   6.814   7.643  0.0754 -0.2538  0.9910
  710TIP3    H223690   5.208   6.726   7.593  0.6939  0.3923 -1.7019
  711TIP3   OH223691   0.007   3.677   0.560 -0.6675 -0.3093 -0.5802
  711TIP3    H123692   0.077   3.737   0.533 -1.3124  0.4842 -0.5022
  711TIP3    H223693   0.041   3.590   0.537 -0.1587  0.1536 -1.6461
  712TIP3   OH223694   3.578   1.582   1.024 -0.1589 -1.2667  0.4967
  712TIP3    H123695   3.571   1.634   0.944  1.4496 -1.5166  0.1559
  712TIP3    H223696   3.521   1.627   1.087 -2.6037 -1.8710 -1.1389
  713TIP3   OH223697   2.132   1.629   0.018  0.1345  0.2532  0.0750
  713TIP3    H123698   2.187   1.592   0.088  0.5692 -0.1380 -0.4666
  713TIP3    H223699   2.143   1.569  -0.055 -1.4761 -0.1405  0.1339
  714TIP3   OH223700   3.751   6.655   7.936  0.4752 -0.0030 -0.3480
  714TIP3    H123701   3.780   6.638   7.846 -0.8137 -2.3688 -0.3946
  714TIP3    H223702   3.658   6.633   7.936  0.8967 -2.1921  2.0349
  715TIP3   OH223703   3.809   0.695   7.229 -0.4345  0.7327  0.5737
  715TIP3    H123704   3.821   0.649   7.313  0.1482 -0.2140 -0.0109
  715TIP3    H223705   3.745   0.643   7.182 -1.7118  1.9647  0.9074
  716TIP3   OH223706   6.096   3.150   0.352  0.6945  0.3499 -0.9589
  716TIP3    H123707   6.057   3.143   0.439  1.3451 -0.5552 -0.7318
  716TIP3    H223708   6.021   3.158   0.293  0.1583 -1.1227 -0.5086
  717TIP3   OH223709   3.905   5.522   7.658 -0.7519 -0.2048  0.2101
  717TIP3    H123710   3.955   5.511   7.578  1.2889 -0.8404  1.5038
  717TIP3    H223711   3.890   5.433   7.689 -1.4009  0.0394  0.6085
  718TIP3   OH223712   0.648   2.354   7.534  0.0971 -0.3397 -0.2027
  718TIP3    H123713   0.712   2.417   7.502  0.0327 -0.6408 -0.9478
  718TIP3    H223714   0.689   2.268   7.520 -1.1987 -0.6718 -2.5659
  719TIP3   OH223715   5.160   2.718   0.064  0.0212  0.4583 -0.2499
  719TIP3    H123716   5.212   2.771   0.004  0.6577  0.2077  0.0609
  719TIP3    H223717   5.226   2.673   0.119 -0.3143 -2.8062 -2.2333
  720TIP3   OH223718   0.406   1.877   7.688  0.4635 -0.2718 -0.3909
  720TIP3    H123719   0.386   1.954   7.740 -0.2784  0.8323 -2.2213
  720TIP3    H223720   0.409   1.805   7.751 -0.0166  1.0530  1.1921
  721TIP3   OH223721   3.138   5.527   1.336 -0.2778 -1.4375 -0.4135
  721TIP3    H123722   3.161   5.505   1.426 -1.0491 -1.3343 -0.1806
  721TIP3    H223723   3.083   5.454   1.306 -3.0093  0.1217  0.4314
  722TIP3   OH223724   1.720   3.948   7.789 -0.0752  1.1187  0.2874
  722TIP3    H123725   1.696   4.041   7.786  2.2480  1.9482  2.8016
  722TIP3    H223726   1.774   3.940   7.868  1.9697 -1.8682 -1.2198
  723TIP3   OH223727   0.259   4.524   1.072 -0.1911 -0.6445  0.1405
  723TIP3    H123728   0.355   4.530   1.079  0.0182 -2.2664 -0.6949
  723TIP3    H223729   0.244   4.497   0.981 -1.5170  0.5469 -0.0173
  724TIP3   OH223730   2.473   2.699   7.803  0.6382 -0.2020  0.2750
  724TIP3    H123731   2.535   2.754   7.852  0.9220 -0.3317  0.0630
  724TIP3    H223732   2.388   2.739   7.819  0.9184  0.6804 -0.4032
  725TIP3   OH223733   6.344   5.158   1.202 -0.9621 -0.2643 -0.7439
  725TIP3    H123734   6.344   5.125   1.292 -3.9422 -0.1069 -0.5938
  725TIP3    H223735   6.364   5.082   1.149  0.9303 -0.3429 -0.0082
  726TIP3   OH223736   4.893   4.506   0.096  0.1177  0.0229 -0.5732
  726TIP3    H123737   4.981   4.483   0.127 -0.5035 -0.7627  0.6375
  726TIP3    H223738   4.908   4.582   0.039  1.1714  2.3828  2.6036
  727TIP3   OH223739   6.716   6.558   6.343  0.1396  0.9788 -0.0893
  727TIP3    H123740   6.638   6.567   6.289 -0.6518  0.3464  0.9056
  727TIP3    H223741   6.721   6.640   6.393 -0.7458  0.4580  0.9039
  728TIP3   OH223742   3.532   3.511   1.415  0.3585  0.5728  0.3485
  728TIP3    H123743   3.502   3.423   1.390  1.4829  0.6055 -1.2893
  728TIP3    H223744   3.456   3.567   1.400 -0.1892 -0.0202  0.8407
  729TIP3   OH223745   2.051   6.134   1.183 -0.2033  0.0019  0.6802
  729TIP3    H123746   2.036   6.099   1.270  1.2473 -2.7183 -0.0487
  729TIP3    H223747   1.966   6.170   1.156 -0.9338 -0.0591  2.7603
  730TIP3   OH223748   3.057   2.733   0.795  0.1733 -0.2215 -0.1627
  730TIP3    H123749   3.140   2.705   0.833  0.1316  0.0866  0.1543
  730TIP3    H223750   3.057   2.694   0.707  0.9775  0.3561 -0.4327
  731TIP3   OH223751   4.717   3.015   1.229  0.1487 -0.2215  0.3299
  731TIP3    H123752   4.784   2.981   1.169 -1.9042 -1.8693 -1.1988
  731TIP3    H223753   4.723   3.110   1.220  1.0206 -0.3878 -1.2527
  732TIP3   OH223754   4.567   0.909   6.861  0.1167 -0.1710  0.2160
  732TIP3    H123755   4.503   0.978   6.877 -0.1040  0.6898 -3.5585
  732TIP3    H223756   4.531   0.858   6.789  2.2059 -1.7000  0.1390
  733TIP3   OH223757   6.627   4.670   7.293 -0.4260  0.3657 -0.1920
  733TIP3    H123758   6.625   4.766   7.295 -0.4303  0.3620  0.0445
  733TIP3    H223759   6.694   4.647   7.358 -0.7193  0.1964  0.0515
  734TIP3   OH223760   6.710   0.013   0.746 -0.1096  0.5637  0.4485
  734TIP3    H123761   6.649  -0.060   0.760 -0.0200  0.8484  2.5855
  734TIP3    H223762   6.779  -0.001   0.810  1.0236  1.3901 -0.5531
  735TIP3   OH223763   2.871   0.632   8.535  0.1564 -0.7827 -0.3983
  735TIP3    H123764   2.829   0.704   8.487  0.2716 -0.3860  0.0884
  735TIP3    H223765   2.964   0.640   8.512  0.9044  1.8698  2.8843
  736TIP3   OH223766   1.583   4.115   8.515  0.2439 -0.5506  0.1090
  736TIP3    H123767   1.674   4.142   8.508 -0.2099  0.5471 -4.3884
  736TIP3    H223768   1.578   4.034   8.464 -1.3929 -0.2156 -0.3226
  737TIP3   OH223769   5.861   3.508   6.311  0.5246  0.3988  0.0894
  737TIP3    H123770   5.765   3.509   6.314  0.3479  2.9307 -2.6637
  737TIP3    H223771   5.883   3.415   6.300 -1.7591 -0.0338 -1.5323
  738TIP3   OH223772   2.086   3.704   0.607 -0.0425 -0.0688  0.5551
  738TIP3    H123773   2.172   3.726   0.571 -0.1234  1.9606  1.4616
  738TIP3    H223774   2.101   3.692   0.701 -0.9752  2.1048  1.0418
  739TIP3   OH223775   4.958   6.240   0.345  0.0337  0.0727 -0.9022
  739TIP3    H123776   5.004   6.156   0.342  0.3721  0.2470 -0.6758
  739TIP3    H223777   4.926   6.253   0.256  1.3368  0.4482 -1.3530
  740TIP3   OH223778   6.659   3.910   6.486 -0.2330  0.3334  0.6192
  740TIP3    H123779   6.733   3.851   6.501  0.6902  1.5253  0.8620
  740TIP3    H223780   6.631   3.937   6.573 -1.3430 -0.5224  0.5645
  741TIP3   OH223781   3.867   4.868   0.319  0.1115  0.4799  0.3244
  741TIP3    H123782   3.878   4.940   0.382  1.8505 -0.1091  0.7517
  741TIP3    H223783   3.932   4.803   0.346 -1.5412 -1.3540  0.0592
  742TIP3   OH223784   3.907   2.228   1.299  0.5232  0.0731 -0.4095
  742TIP3    H123785   3.878   2.314   1.267  0.8204  0.4092  0.2022
  742TIP3    H223786   3.943   2.246   1.386 -0.6310 -0.8905  0.2821
  743TIP3   OH223787   6.276   5.867   1.298 -0.3757  0.9578 -0.3903
  743TIP3    H123788   6.368   5.861   1.322  0.1623  1.5147 -2.2187
  743TIP3    H223789   6.270   5.828   1.211 -1.6454  1.9987 -0.8117
  744TIP3   OH223790   1.455   2.114   1.262 -0.0144 -0.3145  0.9292
  744TIP3    H123791   1.467   2.157   1.177 -1.7192 -0.8638  0.3682
  744TIP3    H223792   1.541   2.121   1.304  1.9458 -2.8080 -2.1325
  745TIP3   OH223793   1.173   0.750   7.035 -0.2435  0.4250 -0.1580
  745TIP3    H123794   1.080   0.765   7.019  0.1429  1.5754 -1.6358
  745TIP3    H223795   1.178   0.661   7.070 -1.9496  0.6189  0.6616
  746TIP3   OH223796   3.848   5.953   7.393 -0.2377 -1.0352  0.6885
  746TIP3    H123797   3.925   5.921   7.347 -0.0727 -1.8078  1.4866
  746TIP3    H223798   3.828   5.886   7.458 -2.1435 -1.2988 -0.0923
  747TIP3   OH223799   3.221   2.589   6.956 -0.1411  0.2471 -0.1413
  747TIP3    H123800   3.156   2.569   7.023 -1.8755 -0.8462 -2.0738
  747TIP3    H223801   3.283   2.516   6.959  0.4775  0.7920  1.0197
  748TIP3   OH223802   5.738   1.575   6.583 -0.0845 -0.2715  0.5827
  748TIP3    H123803   5.713   1.652   6.531  0.1033 -1.0898 -0.7596
  748TIP3    H223804   5.675   1.508   6.558  0.5858 -0.9568  0.7007
  749TIP3   OH223805   1.602   4.195   2.486  0.1791  0.9156 -0.6586
  749TIP3    H123806   1.673   4.161   2.432 -0.7036  0.9085 -1.8606
  749TIP3    H223807   1.611   4.290   2.482  1.1683  0.8998  0.6675
  750TIP3   OH223808   0.117   3.389   8.308  0.2767 -0.5209 -1.2034
  750TIP3    H123809   0.194   3.441   8.331  0.0676 -0.9089  0.4812
  750TIP3    H223810   0.050   3.454   8.288  0.7403 -0.1746 -1.6648
  751TIP3   OH223811   6.296   0.347   8.216 -0.0309 -0.1489  0.4229
  751TIP3    H123812   6.246   0.389   8.146  0.6745  0.5543  0.3251
  751TIP3    H223813   6.383   0.387   8.211  0.3477 -0.8657  1.0161
  752TIP3   OH223814   0.417   0.098   1.659 -0.1348  0.3211  0.1861
  752TIP3    H123815   0.363   0.169   1.693  1.0822  0.1794  2.6740
  752TIP3    H223816   0.394   0.022   1.713  1.1718 -0.2125  0.0336
  753TIP3   OH223817   0.449   3.404   8.282  0.5273 -0.0300  0.0499
  753TIP3    H123818   0.487   3.414   8.369  0.3426  0.4404  0.0787
  753TIP3    H223819   0.475   3.484   8.236 -1.5222  0.9421  0.4787
  754TIP3   OH223820   5.544   2.842   0.312  0.3455 -0.8801 -0.4979
  754TIP3    H123821   5.466   2.897   0.315 -0.4081 -1.9410 -0.1137
  754TIP3    H223822   5.615   2.900   0.340 -0.4356 -0.1173 -0.0460
  755TIP3   OH223823   1.879   5.801   7.634 -0.1311 -0.1789 -0.1933
  755TIP3    H123824   1.904   5.803   7.726 -1.1611  0.5324  0.0941
  755TIP3    H223825   1.926   5.727   7.597  0.1166 -0.6105  0.9599
  756TIP3   OH223826   4.920   2.188   0.893 -0.0484 -0.3223  0.3543
  756TIP3    H123827   4.988   2.149   0.838  1.1119  0.2111  1.3750
  756TIP3    H223828   4.838   2.152   0.859  0.6637 -0.3612 -1.4207
  757TIP3   OH223829   6.060   6.618   7.862  0.2464 -0.4418  0.1836
  757TIP3    H123830   6.072   6.525   7.881  1.0561 -0.6103 -1.0387
  757TIP3    H223831   5.973   6.638   7.896 -0.6440 -2.0587 -0.9963
  758TIP3   OH223832   1.318   0.115   8.137 -0.0918  0.0752 -0.1248
  758TIP3    H123833   1.253   0.096   8.070  0.6687  2.1114 -1.5343
  758TIP3    H223834   1.399   0.130   8.088  0.5298  1.4576  1.2319
  759TIP3   OH223835   6.709   1.761   7.112  0.5240  0.0728 -0.1156
  759TIP3    H123836   6.793   1.779   7.070  1.3092 -0.7568  1.0413
  759TIP3    H223837   6.715   1.802   7.198 -0.6794  0.8927 -0.3989
  760TIP3   OH223838   1.332   0.454   7.284  0.2490 -0.1068  0.3605
  760TIP3    H123839   1.293   0.530   7.327  1.4638  1.4275 -1.1117
  760TIP3    H223840   1.281   0.442   7.205  1.1394  0.3376 -0.3043
  761TIP3   OH223841   0.007   6.713   6.695  0.5893  0.8279  0.0428
  761TIP3    H123842  -0.005   6.779   6.763 -1.2405 -0.6386  1.2119
  761TIP3    H223843  -0.063   6.731   6.632  1.5456  1.4270 -0.9002
  762TIP3   OH223844   6.715   2.737   2.080 -0.7541  0.2279 -0.3638
  762TIP3    H123845   6.627   2.742   2.118  0.1963  0.8600  1.9467
  762TIP3    H223846   6.768   2.795   2.136  1.8195 -2.6045  0.3798
  763TIP3   OH223847   0.289   0.487   8.257 -0.6071  0.3184 -0.1746
  763TIP3    H123848   0.319   0.414   8.203  1.6737  0.5445  0.6770
  763TIP3    H223849   0.297   0.455   8.347 -1.1120  1.1035  0.1606
  764TIP3   OH223850   6.443   4.839   6.469  0.2426 -0.5371  0.0364
  764TIP3    H123851   6.422   4.907   6.533  2.0440 -1.7884  2.0819
  764TIP3    H223852   6.386   4.858   6.394 -0.6674  2.0530  1.2783
  765TIP3   OH223853   4.664   5.773   0.589 -0.3269  0.3647 -0.5279
  765TIP3    H123854   4.703   5.687   0.571 -1.3415 -0.5259  1.2669
  765TIP3    H223855   4.599   5.785   0.520  0.3161  0.0302 -1.2046
  766TIP3   OH223856   2.815   5.943   1.818  0.3028 -0.5545  0.2046
  766TIP3    H123857   2.855   5.868   1.774  2.8763  0.2849  0.9927
  766TIP3    H223858   2.764   5.904   1.890 -1.9742 -1.7496 -1.8990
  767TIP3   OH223859   2.983   4.122   0.406 -0.9429 -0.4993 -0.5662
  767TIP3    H123860   3.073   4.151   0.392 -0.5038 -1.3104  0.4422
  767TIP3    H223861   2.943   4.193   0.456 -1.6138  0.9758 -3.0229
  768TIP3   OH223862   3.877   5.978   0.767 -0.6111  0.8362  0.2326
  768TIP3    H123863   3.960   5.939   0.796 -1.0138  0.8601  1.4938
  768TIP3    H223864   3.861   5.939   0.681 -0.1586 -0.5206  0.7294
  769TIP3   OH223865   3.628   1.479   7.306  0.3756 -0.5943 -0.0433
  769TIP3    H123866   3.553   1.505   7.252 -0.2261 -2.9212 -0.4738
  769TIP3    H223867   3.701   1.477   7.244  0.7287  1.1919  0.2697
  770TIP3   OH223868   4.817   6.389   6.989  0.7978 -0.6326 -0.8394
  770TIP3    H123869   4.873   6.436   7.050 -0.7444 -0.3833  0.4349
  770TIP3    H223870   4.847   6.298   6.993  0.0880 -0.8106  1.0626
  771TIP3   OH223871   6.102   3.410   1.532 -0.2533 -0.1165  0.3273
  771TIP3    H123872   6.194   3.404   1.508 -0.3368  1.5217 -0.5736
  771TIP3    H223873   6.103   3.423   1.627  0.3920 -0.8968  0.4336
  772TIP3   OH223874   0.359   6.425   8.401 -0.4858 -0.0196  0.7637
  772TIP3    H123875   0.308   6.426   8.320 -0.5967 -2.2294  0.7530
  772TIP3    H223876   0.370   6.517   8.423 -0.8185  0.6295 -1.5225
  773TIP3   OH223877   5.241   6.618   1.486 -0.0237 -0.1366 -0.3712
  773TIP3    H123878   5.263   6.526   1.498  1.4112 -0.3422 -3.6015
  773TIP3    H223879   5.319   6.665   1.516 -0.2098 -0.0602 -0.0069
  774TIP3   OH223880   4.721   1.022   1.735 -0.1533 -0.1281  0.1347
  774TIP3    H123881   4.670   1.103   1.739  0.0676  0.4100 -3.8806
  774TIP3    H223882   4.812   1.050   1.728 -0.1765 -0.3670 -3.3261
  775TIP3   OH223883   1.124   0.405   8.401  0.3054 -0.3918  0.0637
  775TIP3    H123884   1.164   0.319   8.409  0.5638 -0.2253  0.6168
  775TIP3    H223885   1.105   0.432   8.491 -2.3668 -1.0592 -0.1965
  776TIP3   OH223886   0.356   6.486   0.860 -0.0835 -0.4929 -0.4919
  776TIP3    H123887   0.391   6.398   0.851  0.4316 -0.2132 -1.3381
  776TIP3    H223888   0.262   6.474   0.870  0.0570 -1.1684  0.0348
  777TIP3   OH223889   2.607   3.090   7.651  0.2166 -0.0682  0.3004
  777TIP3    H123890   2.673   3.092   7.582  0.2523  0.3327  0.3393
  777TIP3    H223891   2.555   3.169   7.637  2.4110  2.0466  2.7992
  778TIP3   OH223892   4.480   5.457   7.754 -0.1110  0.0664  0.1298
  778TIP3    H123893   4.393   5.498   7.759 -0.1823 -0.2725  3.9050
  778TIP3    H223894   4.540   5.522   7.790  1.0901 -0.2000 -1.2649
  779TIP3   OH223895   1.657   2.930   6.733  0.3183  0.6048 -0.0254
  779TIP3    H123896   1.702   2.975   6.804  1.1166  1.3980 -1.0039
  779TIP3    H223897   1.727   2.894   6.679 -0.2051  1.4529 -1.3254
  780TIP3   OH223898   4.660   1.538   7.173 -0.0733 -0.5320  0.0133
  780TIP3    H123899   4.577   1.547   7.126 -2.1912 -1.5769  3.2149
  780TIP3    H223900   4.713   1.481   7.118 -2.2950 -1.5606 -1.1949
  781TIP3   OH223901   0.200   1.998   7.539 -0.0167  0.3349  0.4356
  781TIP3    H123902   0.263   1.927   7.551  0.2470  0.2776 -1.1776
  781TIP3    H223903   0.253   2.074   7.514 -0.4817  0.5847  0.1940
  782TIP3   OH223904   1.196   3.414   7.516  0.0565  0.4261  0.7280
  782TIP3    H123905   1.164   3.357   7.445  2.2902 -1.8959  1.4489
  782TIP3    H223906   1.289   3.426   7.497  0.4906  0.5516  2.7561
  783TIP3   OH223907   1.114   4.506   1.030 -0.2312  0.2013 -0.6027
  783TIP3    H123908   1.202   4.491   1.063 -0.9256  0.3790  1.5297
  783TIP3    H223909   1.120   4.589   0.984  0.7281  0.2075 -0.4929
  784TIP3   OH223910   5.932   3.417   8.797  0.0148  0.0637  0.1675
  784TIP3    H123911   5.940   3.506   8.832 -1.0039  0.8134 -1.3998
  784TIP3    H223912   5.895   3.367   8.869 -0.7780  1.2421  0.6121
  785TIP3   OH223913   1.397   3.881   8.043 -0.6123  0.1588 -0.0505
  785TIP3    H123914   1.380   3.975   8.055  0.2813  0.0815  2.3620
  785TIP3    H223915   1.311   3.840   8.047 -1.1063  0.8947 -1.9840
  786TIP3   OH223916   0.267   6.631   1.613  0.3890  0.5531 -0.1973
  786TIP3    H123917   0.202   6.569   1.645 -0.4414  2.5709  2.3630
  786TIP3    H223918   0.225   6.674   1.538 -0.3705  0.3403  0.1043
  787TIP3   OH223919   3.589   6.014   1.041 -0.0696  0.5619 -0.0721
  787TIP3    H123920   3.595   5.919   1.044 -0.0395  0.5483 -0.5264
  787TIP3    H223921   3.611   6.043   1.130  1.8188  0.2562 -0.4127
  788TIP3   OH223922   2.724   4.445   6.908 -0.8637  0.9681  0.5406
  788TIP3    H123923   2.628   4.448   6.900 -1.2744 -0.1726  3.7298
  788TIP3    H223924   2.741   4.454   7.002  2.0981 -0.0628  0.2122
  789TIP3   OH223925   3.024   6.655   6.813 -0.2019 -0.2854 -0.2296
  789TIP3    H123926   3.097   6.715   6.799 -1.1532  0.9043 -0.2418
  789TIP3    H223927   3.038   6.621   6.902  0.0577  0.3753 -0.0099
  790TIP3   OH223928   1.062   5.676   0.525  0.2682 -0.5017 -0.4014
  790TIP3    H123929   1.012   5.754   0.550  1.7099  1.2105 -2.5008
  790TIP3    H223930   0.996   5.607   0.517 -1.1029  0.5525  1.1799
  791TIP3   OH223931   4.473   0.999   0.049 -0.2303 -0.1167  0.3146
  791TIP3    H123932   4.527   1.018   0.125  0.4877  2.9276 -0.8135
  791TIP3    H223933   4.519   1.042  -0.024 -2.3831 -0.4194 -1.3097
  792TIP3   OH223934   1.081   6.429   0.758  0.1095 -0.0225  0.5698
  792TIP3    H123935   1.049   6.494   0.820  0.8494  0.1580  0.7729
  792TIP3    H223936   1.019   6.357   0.765 -0.0247  0.1481  1.2490
  793TIP3   OH223937   1.511   6.501   0.149  0.5818  0.0239  0.2748
  793TIP3    H123938   1.476   6.579   0.193 -0.5245 -0.9333  1.1436
  793TIP3    H223939   1.596   6.530   0.115 -0.2694  1.9211 -0.4086
  794TIP3   OH223940   4.938   6.156   7.017 -0.1790  0.0531  0.1071
  794TIP3    H123941   5.018   6.204   7.038 -1.1111  0.9628  1.7986
  794TIP3    H223942   4.908   6.122   7.102 -0.8745 -1.4399 -0.6928
  795TIP3   OH223943   1.017   6.584   0.971  0.1119  0.1974 -0.2254
  795TIP3    H123944   0.934   6.619   1.003  0.0485 -1.4647  1.6294
  795TIP3    H223945   1.084   6.628   1.024  0.3284  0.5261 -0.7631
  796TIP3   OH223946   0.412   1.713   6.928  0.0351  0.8256 -0.1503
  796TIP3    H123947   0.486   1.751   6.881  0.4558  0.6888  0.3921
  796TIP3    H223948   0.411   1.759   7.011  1.5486 -1.3781  1.1976
  797TIP3   OH223949   3.565   0.187   8.446 -0.3888 -0.8500 -0.1120
  797TIP3    H123950   3.605   0.274   8.443 -1.1384 -0.5133 -0.5208
  797TIP3    H223951   3.634   0.128   8.416 -0.2687 -0.2479 -1.0347
  798TIP3   OH223952   6.298   2.722   0.476 -0.1919 -0.4932 -0.3516
  798TIP3    H123953   6.263   2.715   0.386 -0.5319 -0.6134 -0.2141
  798TIP3    H223954   6.314   2.632   0.502  3.5673 -0.3830 -1.6613
  799TIP3   OH223955   5.078   6.104   7.989 -0.1561 -0.1941  0.3080
  799TIP3    H123956   5.159   6.130   7.945  0.3204 -0.0019  1.2680
  799TIP3    H223957   5.016   6.173   7.968  0.5130  0.6935  1.1608
  800TIP3   OH223958   2.147   3.919   8.567 -1.0477  0.6585 -0.2094
  800TIP3    H123959   2.104   3.847   8.613 -1.1741 -0.1140 -1.4893
  800TIP3    H223960   2.117   3.998   8.612 -2.6934  0.0542 -0.2057
  801TIP3   OH223961   4.160   3.916   7.868  0.0136  0.0204 -0.6076
  801TIP3    H123962   4.210   3.836   7.854  0.6157  0.2252  0.2955
  801TIP3    H223963   4.110   3.900   7.947  1.3076  1.0549  0.4879
  802TIP3   OH223964   4.024   3.176   0.537 -0.0990  0.7622 -0.5870
  802TIP3    H123965   4.049   3.164   0.445 -1.4462  0.9673 -1.0096
  802TIP3    H223966   3.955   3.242   0.534 -2.3981 -1.4469  0.2065
  803TIP3   OH223967   1.643   4.707   1.112 -0.7157  0.1289  0.0513
  803TIP3    H123968   1.591   4.647   1.059  0.1221  0.7429 -1.5516
  803TIP3    H223969   1.672   4.774   1.050  1.5948  0.0648  0.9667
  804TIP3   OH223970   2.489   4.731   6.627 -0.2277  0.2892 -0.4830
  804TIP3    H123971   2.476   4.792   6.699 -0.4069 -1.9476  1.4988
  804TIP3    H223972   2.416   4.748   6.568 -0.7195  1.4375  0.4175
  805TIP3   OH223973   0.524   0.875   7.297  0.1537  0.1410 -0.3414
  805TIP3    H123974   0.619   0.875   7.301  0.1133 -0.0531  1.3333
  805TIP3    H223975   0.498   0.787   7.324 -0.5002  0.0914 -1.0875
  806TIP3   OH223976   3.559   6.257   6.891 -0.2772  0.0470  0.2948
  806TIP3    H123977   3.633   6.252   6.830 -0.3821 -0.4987  0.2079
  806TIP3    H223978   3.483   6.274   6.835 -0.6052 -1.9174  0.0865
  807TIP3   OH223979   6.755   6.752   8.281  0.6271  0.1219  0.1709
  807TIP3    H123980   6.692   6.824   8.287  0.6614  0.1415  0.2978
  807TIP3    H223981   6.741   6.715   8.194 -0.1883 -0.4520  0.5341
  808TIP3   OH223982   0.233   5.105   8.605  0.0565  0.1694 -0.5291
  808TIP3    H123983   0.318   5.074   8.634 -1.0558 -0.8896  1.8561
  808TIP3    H223984   0.223   5.191   8.644 -0.3598 -0.1482  0.0913
  809TIP3   OH223985   0.712   5.219   6.891 -0.2616 -0.7635 -0.1171
  809TIP3    H123986   0.803   5.204   6.916 -0.3511  1.4352  1.9462
  809TIP3    H223987   0.717   5.285   6.822 -0.2882  0.5958  1.1408
  810TIP3   OH223988   6.163   3.223   6.969 -0.5171  0.6529  0.3475
  810TIP3    H123989   6.170   3.242   7.062 -0.4317  0.7815  0.3151
  810TIP3    H223990   6.127   3.134   6.965 -5.0007  2.2086  0.5058
  811TIP3   OH223991   3.127   6.620   8.198 -0.0839 -0.2045  0.1994
  811TIP3    H123992   3.120   6.702   8.150 -1.7496 -0.8815 -0.8269
  811TIP3    H223993   3.049   6.571   8.172  0.7355 -2.0124  0.9790
  812TIP3   OH223994   0.695   3.827   2.184  0.3828 -0.3368 -0.5628
  812TIP3    H123995   0.646   3.823   2.266  1.3461 -0.4496  0.0209
  812TIP3    H223996   0.635   3.871   2.123  0.1227  0.9061  0.5325
  813TIP3   OH223997   6.059   1.324   8.786 -0.3291  0.5435  0.4583
  813TIP3    H123998   6.037   1.234   8.761 -1.2815  0.7510  0.5202
  813TIP3    H223999   5.997   1.345   8.857 -0.5735  1.4785 -0.0155
  814TIP3   OH224000   5.880   6.374   1.996  0.4457  0.3844  0.1900
  814TIP3    H124001   5.906   6.466   2.002  2.0769 -0.1091  1.6771
  814TIP3    H224002   5.953   6.326   2.035 -1.1348 -1.4211  1.1105
  815TIP3   OH224003   1.254   5.678   6.388  0.4001  0.1632 -0.4148
  815TIP3    H124004   1.289   5.729   6.460  0.3650 -2.2337  1.4261
  815TIP3    H224005   1.315   5.605   6.378 -0.2909 -0.2398 -1.9553
  816TIP3   OH224006   3.959   3.572   7.478 -0.2270  0.3887 -0.3613
  816TIP3    H124007   3.931   3.486   7.449 -2.3629  0.1327  2.1414
  816TIP3    H224008   3.882   3.628   7.465  0.5124  1.4908 -0.1811
  817TIP3   OH224009   6.754   1.718   0.383  0.1332 -0.6424  0.1567
  817TIP3    H124010   6.807   1.641   0.404 -2.4943 -2.0384  2.1397
  817TIP3    H224011   6.783   1.742   0.295  2.3323 -2.7338  0.1811
  818TIP3   OH224012   4.954   5.629   0.986 -0.0322 -0.3735  0.2487
  818TIP3    H124013   5.044   5.654   1.008  0.3925 -0.7032 -1.0240
  818TIP3    H224014   4.903   5.707   1.006  0.7406  0.2771 -0.2273
  819TIP3   OH224015   4.242   3.322   6.405  0.5354  0.0642 -0.3595
  819TIP3    H124016   4.272   3.319   6.496 -0.2413  1.5118 -0.0275
  819TIP3    H224017   4.242   3.231   6.377 -1.2359 -0.7010  1.7943
  820TIP3   OH224018   0.170   5.659   1.580  0.1119 -0.4773  0.1685
  820TIP3    H124019   0.211   5.744   1.600 -0.5030  0.2617 -1.4795
  820TIP3    H224020   0.092   5.656   1.637 -0.4051  0.5475 -0.4440
  821TIP3   OH224021   6.673   1.252   7.703  0.2028  0.5859  0.3277
  821TIP3    H124022   6.693   1.245   7.610  2.5100  1.4141  0.7084
  821TIP3    H224023   6.578   1.235   7.708 -0.0871  1.0478 -2.2036
  822TIP3   OH224024   5.912   3.093   8.700  0.4085 -0.2787  0.1799
  822TIP3    H124025   5.886   3.073   8.790  0.3448  0.5346  0.3503
  822TIP3    H224026   5.877   3.181   8.684  1.7571  0.2404 -0.0986
  823TIP3   OH224027   5.965   6.256   1.104 -0.1820  0.6875 -0.4694
  823TIP3    H124028   6.052   6.244   1.066 -0.7380 -0.0376 -1.5458
  823TIP3    H224029   5.905   6.253   1.030 -1.5218 -2.9183  0.5521
  824TIP3   OH224030   0.623   0.377   7.302 -0.2539  0.0236  0.2880
  824TIP3    H124031   0.622   0.307   7.237 -1.9119  0.8327 -0.6226
  824TIP3    H224032   0.618   0.331   7.386  0.7266 -0.9958 -0.1785
  825TIP3   OH224033   4.067   1.562   8.268  0.8118 -0.3781 -0.6735
  825TIP3    H124034   4.051   1.494   8.334  0.0647 -0.0027 -0.4641
  825TIP3    H224035   3.987   1.613   8.265  1.4464  0.6475 -0.6700
  826TIP3   OH224036   0.736   4.233   5.949  0.1698  0.2163  0.0122
  826TIP3    H124037   0.658   4.178   5.945  1.8216 -2.2584  0.0704
  826TIP3    H224038   0.809   4.173   5.936  2.2034  2.1319  1.7627
  827TIP3   OH224039   5.727   1.223   0.871  0.2919 -0.5525 -0.1268
  827TIP3    H124040   5.699   1.144   0.917  0.4387 -0.3589  0.3023
  827TIP3    H224041   5.722   1.200   0.779  0.6642 -1.1799  0.0039
  828TIP3   OH224042   5.546   5.423   1.590 -0.8440  0.1773  0.4505
  828TIP3    H124043   5.477   5.463   1.644  1.7992  1.8471  2.9263
  828TIP3    H224044   5.601   5.376   1.654  0.4307 -0.9385 -1.3845
  829TIP3   OH224045   6.549   2.997   8.091 -0.5103  0.0087  0.4938
  829TIP3    H124046   6.537   2.912   8.048 -0.3460 -0.5771  1.5852
  829TIP3    H224047   6.604   3.047   8.030 -3.1941  0.5406 -1.7025
  830TIP3   OH224048   4.524   0.224   1.521  0.4022  0.1321 -0.0936
  830TIP3    H124049   4.499   0.168   1.595 -1.6964  0.0644 -0.7656
  830TIP3    H224050   4.612   0.196   1.498  0.6805 -0.5956  1.6776
  831TIP3   OH224051   3.176   2.647   0.014  0.0313 -0.0601 -0.4165
  831TIP3    H124052   3.109   2.671  -0.049 -0.1449 -0.7378 -0.4904
  831TIP3    H224053   3.233   2.724   0.018 -1.7915  1.2947  1.0770
  832TIP3   OH224054   3.343   1.001   7.956 -0.1100  0.3109  0.0994
  832TIP3    H124055   3.426   0.964   7.927 -0.0759  0.3940  0.0900
  832TIP3    H224056   3.280   0.976   7.888 -0.2003 -0.1916  0.3605
  833TIP3   OH224057   4.758   6.069   6.231 -0.0705 -0.3759  0.5331
  833TIP3    H124058   4.760   6.060   6.326  0.3414  0.7505  0.6415
  833TIP3    H224059   4.769   6.163   6.215  2.1081 -0.7811 -0.6779
  834TIP3   OH224060   3.241   2.921   0.380  0.4402  0.3320  0.6509
  834TIP3    H124061   3.292   2.924   0.299  0.2191 -1.4053  0.3927
  834TIP3    H224062   3.273   2.993   0.433  2.5695 -0.1927  0.1401
  835TIP3   OH224063   2.912   3.717   7.952 -0.0753  0.0041  0.0396
  835TIP3    H124064   2.989   3.773   7.959  0.1723 -0.3577  0.2656
  835TIP3    H224065   2.942   3.642   7.900 -0.6747  0.5427 -1.1288
  836TIP3   OH224066   5.504   5.942   1.090  0.0936  0.1129 -0.2445
  836TIP3    H124067   5.462   5.961   1.006 -0.6046 -2.7783 -0.6558
  836TIP3    H224068   5.459   5.998   1.153 -0.5014  1.1427 -1.5548
  837TIP3   OH224069   4.077   0.074   7.603 -0.4246 -0.1695 -0.1996
  837TIP3    H124070   4.046   0.161   7.629  1.5843  0.8843 -1.0914
  837TIP3    H224071   4.010   0.042   7.542 -0.7120  1.1916 -0.6299
  838TIP3   OH224072   3.987   5.247   1.178 -0.2816 -0.4224  0.3437
  838TIP3    H124073   3.903   5.211   1.207 -0.4619  0.5808  1.1399
  838TIP3    H224074   4.052   5.209   1.237 -0.3887  0.0233  0.7569
  839TIP3   OH224075   2.693   1.961   8.623 -0.0603 -0.0255 -0.2125
  839TIP3    H124076   2.749   1.884   8.610  0.2590  0.5963 -3.2241
  839TIP3    H224077   2.636   1.937   8.696  0.9130 -2.5921 -0.1832
  840TIP3   OH224078   3.823   2.337   1.903 -0.4833  0.4953 -0.7169
  840TIP3    H124079   3.768   2.386   1.964  0.5647  0.6067  0.1733
  840TIP3    H224080   3.800   2.246   1.919 -1.8270  0.6267 -1.7725
  841TIP3   OH224081   0.097   2.256   7.637  0.4700  0.5870 -0.1690
  841TIP3    H124082   0.002   2.268   7.639  0.4772  0.9766 -1.5343
  841TIP3    H224083   0.110   2.164   7.658 -0.4270 -0.2843 -3.0027
  842TIP3   OH224084   3.648   1.637   0.004 -0.3618 -0.6521 -0.4723
  842TIP3    H124085   3.618   1.715   0.051 -0.8352  0.7376 -2.9089
  842TIP3    H224086   3.724   1.668  -0.046  0.7342 -2.3210  0.0669
  843TIP3   OH224087   3.209   0.867   7.757 -0.4235 -0.7960 -0.4208
  843TIP3    H124088   3.247   0.780   7.772  2.9962  0.5168 -0.6451
  843TIP3    H224089   3.238   0.891   7.669  0.3988  1.2934  0.3466
  844TIP3   OH224090   6.723   0.984   8.735 -0.0237  0.6422  0.1746
  844TIP3    H124091   6.657   0.925   8.771 -1.4600  2.4753  0.6881
  844TIP3    H224092   6.780   1.003   8.809 -0.6156  1.2765  0.4758
  845TIP3   OH224093   0.288   2.399   8.728 -0.3539 -0.3293 -0.0839
  845TIP3    H124094   0.341   2.474   8.754  0.8993 -1.7813  1.8616
  845TIP3    H224095   0.330   2.365   8.650  0.8801 -0.6937  0.7110
  846TIP3   OH224096   3.855   5.151   0.545 -0.0432  0.1470  0.2709
  846TIP3    H124097   3.937   5.151   0.594 -0.4597 -0.6284  0.9858
  846TIP3    H224098   3.808   5.228   0.577  0.8140  1.1951 -0.8849
  847TIP3   OH224099   2.554   1.162   6.926  0.5531 -0.0855 -0.1468
  847TIP3    H124100   2.569   1.205   6.842 -1.0847  1.0199  0.0894
  847TIP3    H224101   2.460   1.145   6.928  0.8518 -1.8649  0.6531
  848TIP3   OH224102   1.920   0.282   1.174 -0.1031 -0.1198  0.2753
  848TIP3    H124103   1.961   0.347   1.116 -1.8158 -0.5140 -1.5252
  848TIP3    H224104   1.934   0.316   1.262  3.4028  0.0694 -0.2135
  849TIP3   OH224105   3.453   3.654   7.576  0.2330 -0.1571  0.3962
  849TIP3    H124106   3.398   3.727   7.547  2.2566  1.8788  1.4000
  849TIP3    H224107   3.432   3.643   7.668  2.8508  2.1424  1.4245
  850TIP3   OH224108   3.023   3.007   6.648  0.0214  0.3233 -0.1483
  850TIP3    H124109   3.076   3.087   6.655 -0.1430  0.3576  0.9115
  850TIP3    H224110   2.934   3.038   6.629  0.4507  0.2361 -2.6189
  851TIP3   OH224111   2.107   4.066   0.583  0.0764 -0.5021  0.0170
  851TIP3    H124112   2.155   4.011   0.646  1.3796 -1.4035 -1.6791
  851TIP3    H224113   2.021   4.025   0.577 -0.1527 -0.2733  1.3317
  852TIP3   OH224114   6.346   1.842   0.719 -0.1224  0.4428 -0.5699
  852TIP3    H124115   6.420   1.805   0.671  0.5751  0.2547  0.6256
  852TIP3    H224116   6.306   1.767   0.762  1.3808  0.9961  1.9825
  853TIP3   OH224117   0.653   1.607   8.009 -0.0692  0.3398  0.0976
  853TIP3    H124118   0.709   1.627   7.934 -0.0322  1.4375  0.4007
  853TIP3    H224119   0.569   1.648   7.988 -0.2587  0.0987  0.3695
  854TIP3   OH224120   0.883   6.003   7.428 -0.4015  0.4246  0.4147
  854TIP3    H124121   0.838   5.936   7.480  1.5783  0.4606  2.3142
  854TIP3    H224122   0.839   6.084   7.451 -0.1155  0.3155  1.3763
  855TIP3   OH224123   2.565   3.121   6.063 -0.1451 -0.0931  0.9178
  855TIP3    H124124   2.619   3.168   6.127 -1.0220  1.2188  0.7484
  855TIP3    H224125   2.482   3.168   6.063 -0.0809  0.1487 -1.3977
  856TIP3   OH224126   5.387   4.706   8.113  0.2931 -0.3752 -0.5269
  856TIP3    H124127   5.368   4.641   8.180  0.0654 -1.7027 -1.8317
  856TIP3    H224128   5.482   4.701   8.101  0.4403  0.4071  0.2033
  857TIP3   OH224129   5.512   4.885   7.120  0.1491  0.2196 -0.4626
  857TIP3    H124130   5.576   4.853   7.183 -1.3650 -1.2880  0.3696
  857TIP3    H224131   5.458   4.809   7.099 -0.6973  1.1856 -1.9899
  858TIP3   OH224132   1.230   1.417   7.558  0.3347  0.4654  0.5445
  858TIP3    H124133   1.227   1.394   7.465 -0.1675 -0.4684  0.7792
  858TIP3    H224134   1.303   1.365   7.593  0.5778  0.8806  0.6594
  859TIP3   OH224135   3.007   5.335   8.655 -0.1900 -0.4858 -0.1597
  859TIP3    H124136   3.007   5.400   8.726  1.2731  0.2887 -0.8152
  859TIP3    H224137   3.005   5.388   8.575  0.1778 -1.2752 -0.6983
  860TIP3   OH224138   4.781   3.749   1.644  0.2457  0.5843  0.2785
  860TIP3    H124139   4.854   3.758   1.704  0.3923 -0.6015  0.3041
  860TIP3    H224140   4.775   3.655   1.627  0.1887  0.8840 -1.5338
  861TIP3   OH224141   0.999   2.735   1.602  0.2352  0.6484 -0.1237
  861TIP3    H124142   1.075   2.789   1.624  0.6926  0.4956 -1.2381
  861TIP3    H224143   0.934   2.757   1.668  1.0457  1.2140  0.5143
  862TIP3   OH224144   2.551   1.822   1.394  0.1126 -0.3890 -0.4728
  862TIP3    H124145   2.627   1.841   1.448  0.4010 -1.5749 -0.4437
  862TIP3    H224146   2.580   1.841   1.304 -0.7415  2.7730 -0.1965
  863TIP3   OH224147   5.957   5.412   1.339  0.0951 -0.2790 -0.5550
  863TIP3    H124148   6.007   5.334   1.362  1.1679  0.5699  0.0752
  863TIP3    H224149   5.946   5.406   1.244 -0.7227 -1.6869 -0.4010
  864TIP3   OH224150   2.757   5.257   1.487  0.5540 -0.1002  0.4685
  864TIP3    H124151   2.668   5.289   1.478  1.0658  0.8288 -3.0263
  864TIP3    H224152   2.796   5.309   1.557 -1.2071  0.5275  1.0142
  865TIP3   OH224153   1.192   0.506   8.144  0.1164 -0.3123 -0.2790
  865TIP3    H124154   1.201   0.461   8.228  0.2965 -2.4861 -1.4102
  865TIP3    H224155   1.100   0.496   8.121  0.0222  0.4567 -0.2882
  866TIP3   OH224156   4.764   0.853   7.875  0.7226  0.1202  0.2114
  866TIP3    H124157   4.765   0.886   7.785  0.9921 -0.4557 -0.0014
  866TIP3    H224158   4.853   0.822   7.891  0.4475 -0.6403  0.3434
  867TIP3   OH224159   5.970   2.402   6.967  0.2845  0.2098  0.1366
  867TIP3    H124160   5.976   2.452   7.048  0.8579  1.7176 -0.7990
  867TIP3    H224161   6.043   2.433   6.913 -1.2941  0.8314 -1.7831
  868TIP3   OH224162   4.236   5.640   7.873 -0.2199  0.4151  0.0082
  868TIP3    H124163   4.267   5.725   7.904 -3.9775  1.8917  0.1656
  868TIP3    H224164   4.220   5.653   7.780  2.3618 -1.2939 -0.8030
  869TIP3   OH224165   0.478   6.560   1.758  0.2625 -0.2793  0.9350
  869TIP3    H124166   0.401   6.595   1.713 -0.2157 -2.1814  0.1975
  869TIP3    H224167   0.445   6.528   1.841  0.6256  0.5833  1.4273
  870TIP3   OH224168   0.753   5.820   0.703 -0.1310  0.4989 -0.3817
  870TIP3    H124169   0.720   5.734   0.676 -2.2826  1.9053 -2.5885
  870TIP3    H224170   0.710   5.836   0.787 -0.7809 -0.0222 -0.6048
  871TIP3   OH224171   2.682   5.359   0.706 -0.2913 -0.0264  1.1661
  871TIP3    H124172   2.762   5.380   0.754  0.7027  0.6357 -0.6768
  871TIP3    H224173   2.621   5.429   0.729 -1.0538 -1.4570  3.9565
  872TIP3   OH224174   1.338   2.964   1.377  0.0998  0.0742  0.6590
  872TIP3    H124175   1.354   3.058   1.380 -1.9922  0.4937  0.3621
  872TIP3    H224176   1.363   2.931   1.463  1.3748  0.7906  0.5765
  873TIP3   OH224177   5.580   6.140   0.288  0.1507  0.3018  0.0102
  873TIP3    H124178   5.643   6.174   0.352  1.3128  0.8892 -1.3737
  873TIP3    H224179   5.606   6.182   0.205 -0.9555 -0.8396 -0.9489
  874TIP3   OH224180   1.634   0.795   0.231  0.0903 -0.5292  0.0223
  874TIP3    H124181   1.663   0.733   0.164  2.6756 -0.0585  0.5859
  874TIP3    H224182   1.602   0.870   0.182 -0.3222 -1.1299 -0.6558
  875TIP3   OH224183   2.113   1.800   0.888 -0.3372  0.6482  0.3872
  875TIP3    H124184   2.199   1.775   0.922 -0.1231  0.2519 -0.3976
  875TIP3    H224185   2.072   1.716   0.864 -0.7533  0.8688  0.3255
  876TIP3   OH224186   1.615   3.707   7.409 -0.3140 -0.3260 -0.6406
  876TIP3    H124187   1.675   3.700   7.335 -1.2184  0.8340 -1.5202
  876TIP3    H224188   1.566   3.787   7.393 -0.8329 -0.2725  1.0072
  877TIP3   OH224189   3.216   2.986   6.942 -0.3471 -0.3293 -0.2174
  877TIP3    H124190   3.143   2.932   6.912 -0.3856 -0.6097  0.3673
  877TIP3    H224191   3.223   2.967   7.035  0.0162  0.2342 -0.1227
  878TIP3   OH224192   3.691   4.111   6.983 -0.1607 -0.2430 -0.1855
  878TIP3    H124193   3.673   4.061   6.903 -2.6108  0.0912  0.0824
  878TIP3    H224194   3.690   4.046   7.053 -0.3477 -0.2274 -0.1731
  879TIP3   OH224195   0.333   0.925   1.472  0.0140  0.2381 -0.1352
  879TIP3    H124196   0.347   0.988   1.543  0.1369  0.4990 -0.3863
  879TIP3    H224197   0.338   0.978   1.392  2.5615 -0.4400 -0.5150
  880TIP3   OH224198   5.764   2.809   5.960  0.2680  0.2896 -0.0296
  880TIP3    H124199   5.669   2.809   5.948  0.1034  0.1210  1.1691
  880TIP3    H224200   5.782   2.732   6.015  1.3683 -1.0050 -2.0443
  881TIP3   OH224201   5.170   0.090   7.174  0.3289 -0.3664  0.0245
  881TIP3    H124202   5.170   0.050   7.087 -0.5507 -3.4471  1.3028
  881TIP3    H224203   5.243   0.049   7.220 -1.2668 -1.4484  1.7490
  882TIP3   OH224204   3.848   3.676   1.942 -0.2890 -0.6705  0.2237
  882TIP3    H124205   3.887   3.728   1.872  0.4273 -0.2859  0.9123
  882TIP3    H224206   3.838   3.736   2.015 -0.4215 -1.2454  0.6836
  883TIP3   OH224207   3.274   0.933   8.255 -0.1174  0.3431 -0.2161
  883TIP3    H124208   3.301   0.961   8.168  0.0340  3.2972  0.6646
  883TIP3    H224209   3.269   1.014   8.306  0.0600 -1.2751  2.6099
  884TIP3   OH224210   4.213   1.329   0.540  0.1446 -0.1505  0.3188
  884TIP3    H124211   4.127   1.371   0.552 -0.1061 -0.1753 -1.2328
  884TIP3    H224212   4.270   1.400   0.511  0.3821 -0.3492  0.2994
  885TIP3   OH224213   3.506   1.931   8.241 -0.2946  0.2752 -0.2128
  885TIP3    H124214   3.559   1.851   8.237 -0.8508 -0.1135  0.0294
  885TIP3    H224215   3.478   1.946   8.151 -1.3487 -0.6132 -0.0612
  886TIP3   OH224216   5.815   5.594   7.305 -0.1321  0.1462 -0.1386
  886TIP3    H124217   5.812   5.638   7.220 -0.9768 -1.1129 -0.7979
  886TIP3    H224218   5.874   5.648   7.358 -0.2358  1.4160 -1.2495
  887TIP3   OH224219   2.605   3.265   0.265 -0.3776  0.0770 -0.3320
  887TIP3    H124220   2.651   3.266   0.349 -0.5125  1.4350 -0.2492
  887TIP3    H224221   2.642   3.340   0.217 -2.3328  1.1031 -0.3430
  888TIP3   OH224222   4.978   2.890   1.651  0.2959 -0.3691 -0.7368
  888TIP3    H124223   4.934   2.807   1.632 -1.0291 -0.2836  1.5391
  888TIP3    H224224   4.919   2.956   1.616  0.1408 -0.3394 -0.4249
  889TIP3   OH224225   0.470   5.928   0.239 -0.3931 -0.5112 -0.1144
  889TIP3    H124226   0.477   5.860   0.307  0.1532 -0.5611 -0.2164
  889TIP3    H224227   0.405   5.894   0.178  1.5080 -2.0511 -1.4122
  890TIP3   OH224228   5.696   1.733   0.885  0.4267  0.3751 -0.0686
  890TIP3    H124229   5.664   1.643   0.890 -2.5691  1.3323 -0.1196
  890TIP3    H224230   5.641   1.775   0.819  1.1022  2.4931  0.6170
  891TIP3   OH224231   2.156   4.448   7.823  0.5433 -0.0212  0.5044
  891TIP3    H124232   2.121   4.363   7.848  1.7390 -0.6116  0.2640
  891TIP3    H224233   2.169   4.442   7.729 -0.9934  1.0763  0.1773
  892TIP3   OH224234   5.493   0.972   8.298  0.1830  0.8618 -0.1989
  892TIP3    H124235   5.486   1.067   8.289 -1.2754  0.6505 -1.9869
  892TIP3    H224236   5.410   0.945   8.336  0.6182  0.2924  0.3711
  893TIP3   OH224237   3.691   2.049   7.810 -0.8913 -0.4531  0.2763
  893TIP3    H124238   3.635   1.973   7.796  1.0863 -1.8212 -0.5570
  893TIP3    H224239   3.778   2.020   7.785 -0.2789  2.5258 -1.6359
  894TIP3   OH224240   2.333   3.933   8.346  0.3637  0.5402  0.3313
  894TIP3    H124241   2.420   3.930   8.387  0.8016  3.7212 -0.0541
  894TIP3    H224242   2.273   3.947   8.419  0.3137 -0.4039  0.4790
  895TIP3   OH224243   2.658   1.520   0.253 -0.3459  0.9468  0.2909
  895TIP3    H124244   2.689   1.489   0.338  2.0758 -2.9890 -1.7446
  895TIP3    H224245   2.599   1.451   0.223 -0.7695  2.0070 -1.4318
  896TIP3   OH224246   5.866   1.541   8.515 -0.2870  0.4865 -0.3936
  896TIP3    H124247   5.877   1.446   8.521 -0.2499  0.5004 -0.2576
  896TIP3    H224248   5.916   1.566   8.437 -0.4780  0.3635 -0.5566
  897TIP3   OH224249   4.115   3.342   7.628 -0.0168  0.2538  0.1596
  897TIP3    H124250   4.078   3.416   7.581 -1.0683 -0.2987  0.1004
  897TIP3    H224251   4.196   3.322   7.580 -1.4232 -0.7593 -1.9189
  898TIP3   OH224252   5.823   4.175   0.883 -0.5643 -0.3763 -0.2833
  898TIP3    H124253   5.778   4.091   0.884 -0.5545 -0.3775  0.7421
  898TIP3    H224254   5.902   4.161   0.934 -0.7865  0.3685  0.2855
  899TIP3   OH224255   3.921   5.649   0.104  0.3897 -0.1696  0.7218
  899TIP3    H124256   3.895   5.558   0.094 -0.4377  0.0412  0.8415
  899TIP3    H224257   4.005   5.646   0.150  0.1624 -0.8527  1.1013
  900TIP3   OH224258   4.260   0.860   6.238  0.0990 -0.0853 -0.6754
  900TIP3    H124259   4.229   0.946   6.265  0.9359 -0.5318  2.0719
  900TIP3    H224260   4.355   0.868   6.239  0.1773 -0.9407 -0.7772
  901TIP3   OH224261   5.317   1.606   1.688 -0.0510 -0.0310 -0.0723
  901TIP3    H124262   5.243   1.549   1.707 -1.0247  1.5123  0.9287
  901TIP3    H224263   5.329   1.599   1.594 -1.5551 -0.2114 -0.2707
  902TIP3   OH224264   6.294   4.685   8.319  0.1131  0.1798 -0.6544
  902TIP3    H124265   6.366   4.715   8.375 -0.6293 -1.1820  1.1610
  902TIP3    H224266   6.322   4.598   8.290  0.2346  0.6458 -1.9645
  903TIP3   OH224267   1.193   5.149   1.242  0.0807  0.0459 -0.3240
  903TIP3    H124268   1.151   5.209   1.180 -0.6061  0.5355  0.5984
  903TIP3    H224269   1.285   5.174   1.241  0.7388 -1.8535 -3.3318
  904TIP3   OH224270   4.628   4.868   2.000 -0.3586 -0.3023  0.0844
  904TIP3    H124271   4.597   4.955   2.022 -0.8620 -0.1580 -1.1156
  904TIP3    H224272   4.723   4.875   1.999 -0.3981  0.2155  0.0219
  905TIP3   OH224273   2.172   1.584   6.492 -0.5283 -0.3702 -0.0391
  905TIP3    H124274   2.100   1.647   6.494 -1.2191 -1.0253  3.2637
  905TIP3    H224275   2.245   1.631   6.453 -1.5381  1.8274  0.5629
  906TIP3   OH224276   4.574   4.774   0.455  0.3618 -0.0166 -0.1280
  906TIP3    H124277   4.492   4.812   0.422 -0.0781  0.2601  1.2002
  906TIP3    H224278   4.619   4.743   0.377  0.4460  2.6417 -1.2439
  907TIP3   OH224279   5.100   0.663   1.929  0.2505 -0.1987  0.2849
  907TIP3    H124280   5.092   0.747   1.883 -0.0616  0.0203  0.7292
  907TIP3    H224281   5.070   0.598   1.865 -1.4433  0.2260  0.5856
  908TIP3   OH224282   1.005   2.736   7.425  0.7092  0.0710  0.8245
  908TIP3    H124283   0.941   2.801   7.396  0.7999  1.0121  2.6431
  908TIP3    H224284   1.086   2.759   7.379  0.1620 -0.1846 -0.2966
  909TIP3   OH224285   6.230   4.106   8.608 -0.1078 -0.0410 -0.3944
  909TIP3    H124286   6.293   4.154   8.555  0.5198 -0.1765  0.2135
  909TIP3    H224287   6.203   4.169   8.675 -0.4218 -0.0661 -0.4953
  910TIP3   OH224288   6.526   5.040   0.088  0.0706 -0.1549 -0.0284
  910TIP3    H124289   6.616   5.021   0.059 -0.4843 -2.4140 -0.4764
  910TIP3    H224290   6.494   5.104   0.024  1.3504  0.6945  0.1475
  911TIP3   OH224291   0.107   2.495   2.254 -0.1637  0.2741  0.2987
  911TIP3    H124292   0.060   2.429   2.203  0.8170 -0.7181  0.6508
  911TIP3    H224293   0.053   2.508   2.332 -1.6928  1.8275 -0.9298
  912TIP3   OH224294   6.531   5.612   6.786 -0.6777 -0.5522  0.1710
  912TIP3    H124295   6.570   5.690   6.826 -1.8918  0.0294  0.2703
  912TIP3    H224296   6.601   5.573   6.735  0.1717  0.1589  0.7713
  913TIP3   OH224297   3.922   5.601   6.493  0.4182  0.4164 -0.3692
  913TIP3    H124298   3.840   5.637   6.526  0.9800  1.1812  0.1965
  913TIP3    H224299   3.976   5.677   6.474  1.7328 -0.0936  1.1268
  914TIP3   OH224300   3.470   6.509   0.042  0.0699 -0.0158 -0.2908
  914TIP3    H124301   3.413   6.555   0.103  0.0026 -1.4669  0.7847
  914TIP3    H224302   3.411   6.471  -0.023  0.1234  1.3335 -1.1630
  915TIP3   OH224303   5.547   3.470   8.447 -0.2754 -0.1042 -0.0321
  915TIP3    H124304   5.593   3.399   8.491  0.4099  1.3996  1.8248
  915TIP3    H224305   5.454   3.451   8.461 -0.0974 -0.6600  0.4173
  916TIP3   OH224306   2.186   5.960   6.772 -0.1617 -0.3698 -0.2202
  916TIP3    H124307   2.131   6.011   6.832  0.4699  0.0219  0.0410
  916TIP3    H224308   2.239   6.026   6.726 -2.5785 -0.3817 -3.3128
  917TIP3   OH224309   0.397   2.050   2.321 -0.0621  0.2021  0.5362
  917TIP3    H124310   0.459   1.979   2.336 -2.1563 -1.3096  2.9398
  917TIP3    H224311   0.317   2.006   2.293 -0.2753  2.0339 -2.0066
  918TIP3   OH224312   0.831   1.256   8.443 -0.1365  0.0661 -0.2856
  918TIP3    H124313   0.809   1.323   8.379  0.3550  1.3430  0.8235
  918TIP3    H224314   0.750   1.242   8.492 -0.3060 -0.3311 -0.6823
  919TIP3   OH224315   4.144   3.187   7.259  0.5485  0.5588  0.7372
  919TIP3    H124316   4.104   3.205   7.174 -0.7911  0.2657  1.2870
  919TIP3    H224317   4.194   3.106   7.245  0.5259  0.6373  0.1778
  920TIP3   OH224318   2.812   6.556   8.196 -0.0183 -0.1520  0.2875
  920TIP3    H124319   2.815   6.557   8.100 -2.0849  1.2656  0.1792
  920TIP3    H224320   2.727   6.518   8.217 -0.4928  1.4556  1.4718
  921TIP3   OH224321   0.852   3.233   7.020 -0.4556  0.0547 -0.0332
  921TIP3    H124322   0.832   3.141   7.036  0.9489 -0.1407  0.8279
  921TIP3    H224323   0.901   3.233   6.938 -2.4824  0.3398 -1.2824
  922TIP3   OH224324   6.547   2.193   8.573 -0.3909  0.1674 -0.2510
  922TIP3    H124325   6.599   2.216   8.650 -1.5496  1.0889  0.2770
  922TIP3    H224326   6.599   2.223   8.499 -0.3670  1.5386  0.2883
  923TIP3   OH224327   0.529   2.837   1.743  0.4856  0.0130 -0.1362
  923TIP3    H124328   0.525   2.743   1.763  0.5880  0.0899  0.2431
  923TIP3    H224329   0.483   2.879   1.815  0.0814  0.2261 -0.5194
  924TIP3   OH224330   6.345   0.280   7.737  0.3680  0.0310 -0.2228
  924TIP3    H124331   6.372   0.340   7.807 -0.3792  0.2171 -0.0835
  924TIP3    H224332   6.399   0.306   7.662  0.6463  0.3272  0.0753
  925TIP3   OH224333   1.304   5.508   0.511  0.3232 -0.1778 -0.4724
  925TIP3    H124334   1.318   5.464   0.596 -0.7196 -1.6989 -1.0422
  925TIP3    H224335   1.228   5.564   0.526 -0.2024 -0.8626 -0.5298
  926TIP3   OH224336   2.986   6.409   1.147  0.3267 -0.2364  0.3336
  926TIP3    H124337   3.024   6.332   1.188  1.0313  0.2991  0.7043
  926TIP3    H224338   2.996   6.479   1.211  0.0936  0.2692 -0.1657
  927TIP3   OH224339   4.484   2.861   7.643  0.6720 -0.9029  0.0303
  927TIP3    H124340   4.505   2.770   7.661 -0.2136 -0.8316  1.6069
  927TIP3    H224341   4.442   2.892   7.724  2.3251  1.3220  0.1286
  928TIP3   OH224342   3.624   1.120   0.581  0.2865  0.3236 -0.0888
  928TIP3    H124343   3.693   1.179   0.612  1.7103 -0.0259 -2.4007
  928TIP3    H224344   3.640   1.037   0.627 -0.0651  0.9067  1.1247
  929TIP3   OH224345   3.679   2.832   7.583  0.9387  0.4360 -0.0480
  929TIP3    H124346   3.683   2.867   7.672 -0.9184 -2.6563  1.4208
  929TIP3    H224347   3.702   2.740   7.593  0.3053 -0.0839 -2.7265
  930TIP3   OH224348   3.511   1.693   0.339 -0.0341  0.1239 -0.0085
  930TIP3    H124349   3.568   1.757   0.382  0.6413 -1.2561  1.2146
  930TIP3    H224350   3.561   1.612   0.339 -0.5628 -0.2622 -2.2549
  931TIP3   OH224351   5.013   5.096   7.554  0.2607  0.9337  0.1098
  931TIP3    H124352   4.925   5.072   7.581  0.3272  1.8761  1.2390
  931TIP3    H224353   5.070   5.058   7.621  0.7061  0.5178 -0.4944
  932TIP3   OH224354   1.150   2.085   7.188 -0.1759 -0.7473 -0.0694
  932TIP3    H124355   1.161   2.024   7.115  1.2504 -0.4636 -0.1191
  932TIP3    H224356   1.238   2.116   7.208 -0.7554  0.6393  0.5358
  933TIP3   OH224357   5.782   6.768   7.279 -0.1851 -0.0592  0.9427
  933TIP3    H124358   5.731   6.687   7.284  0.1185 -0.2808  0.4265
  933TIP3    H224359   5.817   6.769   7.191  2.0181 -0.6973  1.7532
  934TIP3   OH224360   3.905   1.678   8.724 -0.0951  0.1118  0.0783
  934TIP3    H124361   3.983   1.720   8.688 -0.0623  0.8601  0.9808
  934TIP3    H224362   3.940   1.611   8.783 -0.1480 -0.3143 -0.3659
  935TIP3   OH224363   2.395   1.962   7.568 -0.4489 -0.0938  0.2644
  935TIP3    H124364   2.367   1.917   7.648  1.2702  0.5976  1.2944
  935TIP3    H224365   2.320   2.017   7.544 -0.5198  0.7185  2.2015
  936TIP3   OH224366   1.239   4.471   8.825 -0.0495  0.5264  0.0265
  936TIP3    H124367   1.234   4.376   8.811 -2.0073  0.8233 -1.6482
  936TIP3    H224368   1.321   4.497   8.783  0.7170 -0.4349  0.8523
  937TIP3   OH224369   0.569   2.143   1.766 -0.5425  0.6237 -1.1079
  937TIP3    H124370   0.499   2.139   1.700 -1.0683 -1.0859 -0.4904
  937TIP3    H224371   0.622   2.066   1.749  1.3665  1.9726 -1.6741
  938TIP3   OH224372   0.700   2.027   1.522 -0.0123 -0.0790 -0.3617
  938TIP3    H124373   0.788   1.991   1.511 -0.0500 -0.3809  0.2901
  938TIP3    H224374   0.659   1.970   1.587 -0.7567 -0.0529 -0.8056
  939TIP3   OH224375   4.997   2.288   7.504  0.4227  0.2181  0.4714
  939TIP3    H124376   4.998   2.209   7.558 -1.2147  0.5487  1.0626
  939TIP3    H224377   4.974   2.257   7.416 -0.3164  0.0357  0.7236
  940TIP3   OH224378   1.073   6.756   1.714 -0.5741  0.2389 -0.0624
  940TIP3    H124379   0.989   6.785   1.677 -0.0742  1.2307 -0.4534
  940TIP3    H224380   1.084   6.668   1.680 -1.5626  0.0058  0.1688
  941TIP3   OH224381   6.263   3.635   2.159 -0.3157 -0.2829 -0.2811
  941TIP3    H124382   6.201   3.596   2.221  1.2858 -0.0780  1.5521
  941TIP3    H224383   6.254   3.582   2.080 -4.2869  1.0023 -0.9240
  942TIP3   OH224384   5.696   0.980   7.856 -0.3975 -0.5541 -0.3160
  942TIP3    H124385   5.636   0.930   7.911 -1.5937 -0.1199 -1.1761
  942TIP3    H224386   5.640   1.021   7.790  0.4081  2.4436  0.6829
  943TIP3   OH224387   3.447   1.760   1.212 -0.4415  0.3608 -0.7772
  943TIP3    H124388   3.355   1.773   1.190 -0.8587 -3.5238 -2.1506
  943TIP3    H224389   3.445   1.699   1.286  1.0054 -0.1538 -1.1355
  944TIP3   OH224390   0.221   1.553   6.780 -0.2555  0.6233  0.0131
  944TIP3    H124391   0.268   1.473   6.756  0.3909  0.9844  0.0591
  944TIP3    H224392   0.290   1.616   6.800 -0.7305  1.4739 -0.9216
  945TIP3   OH224393   5.641   4.462   1.040 -0.0027  0.5766  0.3890
  945TIP3    H124394   5.712   4.461   1.105 -0.2275 -0.1250  0.6360
  945TIP3    H224395   5.614   4.554   1.036  0.6138  0.7744  0.6297
  946TIP3   OH224396   3.389   1.753   8.713  0.2581  0.2000 -0.4568
  946TIP3    H124397   3.457   1.708   8.764 -1.6041 -4.1651 -1.4048
  946TIP3    H224398   3.436   1.824   8.669  3.8926 -1.5336  0.1880
  947TIP3   OH224399   5.165   1.155   8.550 -0.2363  0.1725 -0.0719
  947TIP3    H124400   5.238   1.204   8.511  0.7320 -1.2468 -0.0834
  947TIP3    H224401   5.189   1.146   8.642 -0.9461  0.6426  0.1694
  948TIP3   OH224402   4.149   5.064   0.132 -0.4869  0.5451 -0.1660
  948TIP3    H124403   4.142   4.974   0.161 -2.3872  0.2850 -1.2625
  948TIP3    H224404   4.202   5.060   0.052 -2.2084  0.0670 -1.3388
  949TIP3   OH224405   5.156   2.853   0.682  0.3096 -0.5800 -0.0987
  949TIP3    H124406   5.113   2.932   0.716  1.1254 -0.3109  0.3327
  949TIP3    H224407   5.102   2.826   0.608  0.5999  0.9957 -0.9340
  950TIP3   OH224408   2.498   5.737   6.470 -0.2483 -0.1602 -0.1667
  950TIP3    H124409   2.493   5.671   6.540 -1.7957  1.0487  0.9519
  950TIP3    H224410   2.575   5.789   6.492 -0.0089 -0.5476 -0.0771
  951TIP3   OH224411   2.403   6.651   0.318 -0.1032 -0.4062  0.7208
  951TIP3    H124412   2.418   6.744   0.336  0.9542 -0.3593 -0.3064
  951TIP3    H224413   2.375   6.648   0.226  0.4106 -1.1455  0.5779
  952TIP3   OH224414   5.380   4.341   6.391 -0.1870 -0.5105  0.4821
  952TIP3    H124415   5.450   4.356   6.326  0.8701  0.5392  1.8057
  952TIP3    H224416   5.299   4.345   6.340  0.6163  0.0496 -0.8116
  953TIP3   OH224417   5.565   6.471   1.477 -0.1593 -0.0124  0.2122
  953TIP3    H124418   5.503   6.459   1.548  0.3543  1.2113  0.8994
  953TIP3    H224419   5.598   6.560   1.489  1.6223 -0.5803 -0.2185
  954TIP3   OH224420   6.437   2.452   7.734  0.5828 -0.3970 -0.1336
  954TIP3    H124421   6.467   2.484   7.819  0.8469  0.4873 -0.5499
  954TIP3    H224422   6.344   2.434   7.747  0.1737  1.4656 -0.1084
  955TIP3   OH224423   5.632   3.376   8.145 -0.3073  0.0930  0.4262
  955TIP3    H124424   5.680   3.434   8.204  0.3929 -0.6296  0.5904
  955TIP3    H224425   5.547   3.417   8.135  0.4996  1.7060 -0.2951
  956TIP3   OH224426   0.751   2.974   6.841  0.0010 -0.8951 -0.6860
  956TIP3    H124427   0.753   2.889   6.797  3.0009 -0.6773 -1.1116
  956TIP3    H224428   0.842   3.001   6.847 -0.6666  1.2486  1.5571
  957TIP3   OH224429   3.919   1.000   6.455 -0.2460  0.2358  0.4322
  957TIP3    H124430   3.957   0.918   6.488  1.3996  0.4623 -0.8054
  957TIP3    H224431   3.897   1.049   6.534  0.4893 -0.6299  1.1993
  958TIP3   OH224432   6.233   3.771   0.951 -0.1034  0.4932 -0.4227
  958TIP3    H124433   6.163   3.833   0.969  0.5194  1.5684 -1.5620
  958TIP3    H224434   6.286   3.770   1.031 -0.3931  1.0813 -0.2218
  959TIP3   OH224435   0.833   6.075   8.715 -0.1267 -0.0079 -0.2652
  959TIP3    H124436   0.789   6.078   8.800 -1.2944 -1.8694 -0.7345
  959TIP3    H224437   0.887   6.154   8.713 -0.6207  0.4574  1.8914
  960TIP3   OH224438   6.399   4.020   8.808  0.1056  0.1849 -0.6603
  960TIP3    H124439   6.314   4.063   8.793 -0.2983  0.4506  1.8751
  960TIP3    H224440   6.403   3.952   8.741 -1.1832  1.4283 -2.0990
  961TIP3   OH224441   1.375   4.144   6.280 -0.3495  0.4106  0.7174
  961TIP3    H124442   1.352   4.059   6.243  0.5046  0.0419  0.9976
  961TIP3    H224443   1.437   4.123   6.350  0.1698  1.2940  0.5359
  962TIP3   OH224444   1.648   2.801   6.287  0.3229 -0.2764  0.1592
  962TIP3    H124445   1.716   2.767   6.346 -1.8633 -1.6242  2.0624
  962TIP3    H224446   1.687   2.879   6.248  1.5686  1.4127  4.2791
  963TIP3   OH224447   5.978   4.763   1.498  0.0400  0.0042 -0.0767
  963TIP3    H124448   5.994   4.748   1.405  0.8114 -0.9846  0.1945
  963TIP3    H224449   6.060   4.801   1.530 -0.1680  0.1942  0.2362
  964TIP3   OH224450   6.293   4.677   1.982 -0.1626 -1.1383 -0.5298
  964TIP3    H124451   6.292   4.670   2.078 -0.1139  1.0336 -0.3047
  964TIP3    H224452   6.373   4.631   1.955  0.0389 -1.4323  0.5087
  965TIP3   OH224453   0.515   1.291   8.445  0.0832 -0.2549 -0.2810
  965TIP3    H124454   0.550   1.289   8.356 -0.0095  1.1155 -0.3808
  965TIP3    H224455   0.421   1.308   8.433  0.0223 -0.3525  0.0642
  966TIP3   OH224456   4.594   5.988   6.987  0.7787  0.4344 -0.0962
  966TIP3    H124457   4.582   5.994   6.892 -0.1018 -1.1015 -0.1032
  966TIP3    H224458   4.628   5.900   7.001  0.0098  0.3149  1.0998
  967TIP3   OH224459   2.207   2.346   7.578  0.6870 -0.6360  0.0808
  967TIP3    H124460   2.136   2.310   7.631 -0.8366  1.9376 -0.0298
  967TIP3    H224461   2.287   2.329   7.629 -0.2733 -1.5544  1.3309
  968TIP3   OH224462   6.713   2.956   1.033 -0.2411 -0.0214  0.1638
  968TIP3    H124463   6.774   3.018   1.073 -0.4370 -0.1613  0.6925
  968TIP3    H224464   6.752   2.870   1.051 -0.8250 -0.1339  0.9035
  969TIP3   OH224465   0.642   0.556   1.826  0.4831  0.4936 -0.3145
  969TIP3    H124466   0.699   0.550   1.750  0.7613 -1.2879 -0.0058
  969TIP3    H224467   0.702   0.559   1.901  0.2028  1.6138 -0.1188
  970TIP3   OH224468   6.396   1.199   6.605 -0.2020 -0.6930  0.0832
  970TIP3    H124469   6.375   1.292   6.596 -1.7198 -1.0219 -0.1388
  970TIP3    H224470   6.360   1.174   6.690  1.4485 -0.7853  0.7829
  971TIP3   OH224471   3.275   3.737   1.716 -0.2180 -0.7305  0.5943
  971TIP3    H124472   3.324   3.656   1.727 -1.1500 -1.4230 -0.2067
  971TIP3    H224473   3.210   3.718   1.649  0.2465  1.0204 -0.4289
  972TIP3   OH224474   1.768   6.014   8.087 -0.3628  0.2969  0.1891
  972TIP3    H124475   1.741   5.989   8.176  0.4272 -0.3996  0.2443
  972TIP3    H224476   1.842   6.073   8.100 -1.0349  1.1977  0.0121
  973TIP3   OH224477   2.775   6.602   7.594  0.3208  0.1233 -0.6582
  973TIP3    H124478   2.713   6.531   7.614  1.3118 -0.2271  1.4718
  973TIP3    H224479   2.742   6.677   7.645  0.8298  0.3755 -0.6940
  974TIP3   OH224480   5.875   4.750   0.334  0.0073 -0.1285 -0.4960
  974TIP3    H124481   5.791   4.742   0.380 -0.4508  0.0351 -1.2771
  974TIP3    H224482   5.870   4.836   0.291  0.1217 -0.5671 -1.4151
  975TIP3   OH224483   5.057   0.535   1.323 -0.3404 -0.0832 -0.0281
  975TIP3    H124484   5.075   0.608   1.383 -1.3357  2.3901 -2.4722
  975TIP3    H224485   5.143   0.501   1.300  0.0622 -1.1703  2.7165
  976TIP3   OH224486   2.037   4.651   8.024  0.4895  0.7048  0.6705
  976TIP3    H124487   2.047   4.726   7.965  0.6896  0.7175  0.7204
  976TIP3    H224488   2.067   4.576   7.973  2.8283  0.9963  1.4678
  977TIP3   OH224489   1.606   3.572   8.250  0.0351 -0.1035  0.7901
  977TIP3    H124490   1.591   3.567   8.156 -0.3903  1.9555  0.7012
  977TIP3    H224491   1.700   3.558   8.260  0.0731 -0.3905  0.0539
  978TIP3   OH224492   0.277   3.197   8.191  0.1859 -0.3402  0.3859
  978TIP3    H124493   0.193   3.237   8.216  0.6490  1.1157 -0.2709
  978TIP3    H224494   0.341   3.267   8.201  1.0382 -0.8959 -0.8566
  979TIP3   OH224495   4.767   4.520   7.228 -0.6967  0.4929  0.0073
  979TIP3    H124496   4.718   4.461   7.285 -0.7443 -1.3649 -1.8282
  979TIP3    H224497   4.707   4.538   7.155  0.0578  1.1796 -0.4552
  980TIP3   OH224498   5.350   1.252   1.282  0.2364 -0.0864  0.4492
  980TIP3    H124499   5.416   1.234   1.348  1.9048 -0.5108 -1.2611
  980TIP3    H224500   5.303   1.169   1.271  0.3947 -0.1962  0.6034
  981TIP3   OH224501   3.420   2.352   6.995 -0.0839  0.3486  0.0994
  981TIP3    H124502   3.398   2.266   6.960  0.7684 -0.1709  0.7759
  981TIP3    H224503   3.414   2.341   7.090 -0.8565  1.2985  0.1669
  982TIP3   OH224504   4.014   6.389   7.516 -0.6358 -0.4686  0.3792
  982TIP3    H124505   3.936   6.334   7.501 -0.5441 -0.1942 -1.1926
  982TIP3    H224506   4.031   6.431   7.432  1.5422 -0.9275  0.5375
  983TIP3   OH224507   0.995   0.794   8.437 -0.3772  0.3033  0.1173
  983TIP3    H124508   0.990   0.740   8.516 -2.5252 -3.1638 -2.0944
  983TIP3    H224509   1.070   0.759   8.388 -0.5690  0.6892 -0.4658
  984TIP3   OH224510   5.299   6.309   1.299 -0.1622 -0.2105 -0.0741
  984TIP3    H124511   5.319   6.370   1.227 -1.1614 -0.6180 -0.7244
  984TIP3    H224512   5.369   6.245   1.296 -0.5849 -0.6500 -1.2041
  985TIP3   OH224513   1.714   5.259   0.031  0.7229  0.0984 -0.4318
  985TIP3    H124514   1.785   5.207   0.068 -2.0906 -2.4346  2.0063
  985TIP3    H224515   1.681   5.311   0.105 -1.3440 -0.5689 -0.8015
  986TIP3   OH224516   5.823   1.268   0.122 -0.0275  0.5202 -0.1199
  986TIP3    H124517   5.820   1.211   0.199  1.0719  0.5589 -0.0255
  986TIP3    H224518   5.756   1.234   0.064  1.7177 -2.0241 -0.8387
  987TIP3   OH224519   0.536   3.145   0.780 -0.2296  0.1164  0.0993
  987TIP3    H124520   0.494   3.231   0.784 -0.3612 -0.0007  1.6190
  987TIP3    H224521   0.488   3.098   0.711 -1.7801  0.4243  0.9300
  988TIP3   OH224522   6.736   3.203   8.545  0.0759  0.4320  0.1877
  988TIP3    H124523   6.824   3.240   8.551 -0.7798  2.6245  0.3236
  988TIP3    H224524   6.716   3.206   8.452 -0.0295  0.4023  0.2095
  989TIP3   OH224525   3.469   4.379   1.440  0.2866  0.0335  0.6606
  989TIP3    H124526   3.520   4.320   1.495  1.0854 -0.1650 -0.2653
  989TIP3    H224527   3.386   4.389   1.486 -0.2669 -2.5856  0.3855
  990TIP3   OH224528   1.366   0.616   6.785 -1.2126 -0.0377 -0.5096
  990TIP3    H124529   1.408   0.547   6.733 -0.3319 -0.3323  0.5595
  990TIP3    H224530   1.274   0.615   6.757 -1.2131 -1.6454 -0.5176
  991TIP3   OH224531   6.313   6.082   1.131 -0.1135 -0.1601  0.1594
  991TIP3    H124532   6.240   6.081   1.069 -0.9299  0.3934  1.0767
  991TIP3    H224533   6.290   6.016   1.196  0.8495 -0.9048 -0.2259
  992TIP3   OH224534   4.426   6.083   7.810  0.2363 -0.0512 -0.0497
  992TIP3    H124535   4.454   6.115   7.724 -1.0601  2.1821  0.2654
  992TIP3    H224536   4.407   6.163   7.860  0.8325 -1.2799  2.2887
  993TIP3   OH224537   0.567   5.694   8.564  1.1442  0.1221  0.4449
  993TIP3    H124538   0.634   5.677   8.498  2.1618  0.5271  1.3339
  993TIP3    H224539   0.603   5.766   8.617  1.3972 -1.5633  2.7575
  994TIP3   OH224540   5.785   0.774   0.717  0.3313 -0.4031 -0.4715
  994TIP3    H124541   5.823   0.728   0.642  0.4222  0.9005 -1.2473
  994TIP3    H224542   5.700   0.732   0.729  0.4813 -0.8962 -1.0505
  995TIP3   OH224543   1.252   2.076   0.357  0.7041 -0.1893  0.1575
  995TIP3    H124544   1.178   2.136   0.370  0.3342 -0.7368  0.6304
  995TIP3    H224545   1.248   2.017   0.432  1.5526 -0.3010  0.1215
  996TIP3   OH224546   5.288   4.781   7.557  0.4438  0.5510  0.8411
  996TIP3    H124547   5.284   4.856   7.616  0.2859  0.0900  1.4223
  996TIP3    H224548   5.242   4.711   7.603  0.3531  0.1681  0.1912
  997TIP3   OH224549   5.295   6.514   7.825  0.4535 -0.1168 -0.1509
  997TIP3    H124550   5.315   6.422   7.845  1.4019 -0.3950 -2.1265
  997TIP3    H224551   5.346   6.533   7.746  3.1589  3.1723  2.0565
  998TIP3   OH224552   1.241   5.727   0.741  0.8868 -0.0076 -0.2449
  998TIP3    H124553   1.175   5.760   0.680  0.4606  1.1384  0.7945
  998TIP3    H224554   1.192   5.681   0.809  1.2590 -0.2553 -0.1370
  999TIP3   OH224555   2.360   5.424   7.848  0.1300  0.2421  0.4711
  999TIP3    H124556   2.363   5.411   7.753  1.6785 -0.7715  0.6166
  999TIP3    H224557   2.427   5.491   7.865 -0.8600  1.1859  0.7663
 1000TIP3   OH224558   0.544   1.788   6.557  0.6653 -0.6220 -0.0563
 1000TIP3    H124559   0.602   1.757   6.487  0.4347 -0.5917 -0.2606
 1000TIP3    H224560   0.528   1.710   6.610 -0.9849 -1.1955 -1.3116
 1001TIP3   OH224561   4.601   0.559   1.374  0.4695 -0.2307 -0.2424
 1001TIP3    H124562   4.671   0.539   1.437 -1.1006 -0.1432  1.6017
 1001TIP3    H224563   4.647   0.572   1.291  2.6330 -0.2878  0.8793
 1002TIP3   OH224564   4.823   4.589   8.553 -0.3678  0.3763  0.2807
 1002TIP3    H124565   4.736   4.562   8.525  0.1861 -0.6253 -0.5842
 1002TIP3    H224566   4.831   4.680   8.526 -1.7503  1.0260  1.9082
 1003TIP3   OH224567   1.742   0.575   0.115 -0.3728 -0.0382  0.1046
 1003TIP3    H124568   1.826   0.542   0.147  1.1301  2.5315 -0.8459
 1003TIP3    H224569   1.720   0.518   0.042  3.1382  1.9197 -2.8285
 1004TIP3   OH224570   0.598   4.066   8.042 -0.0256  0.7505  0.1916
 1004TIP3    H124571   0.638   4.142   8.085  1.8402  1.7820 -3.0352
 1004TIP3    H224572   0.668   4.001   8.038 -0.0932  0.7343 -1.3056
 1005TIP3   OH224573   4.542   4.344   1.418 -0.3215  0.4253  0.2053
 1005TIP3    H124574   4.591   4.416   1.457 -0.6325 -1.1329  3.8602
 1005TIP3    H224575   4.451   4.373   1.419 -0.4277  0.1428  1.5410
 1006TIP3   OH224576   2.523   1.079   5.932  0.3187 -0.0989 -0.0645
 1006TIP3    H124577   2.488   0.990   5.925 -0.6244  0.3978 -3.0324
 1006TIP3    H224578   2.499   1.121   5.849  2.5562  2.2915  0.3698
 1007TIP3   OH224579   2.551   2.691   6.881  0.2575 -0.0434  0.5125
 1007TIP3    H124580   2.547   2.624   6.813  2.1682  0.6194 -0.3212
 1007TIP3    H224581   2.464   2.729   6.883 -0.3538 -1.3339 -0.2453
 1008TIP3   OH224582   4.753   1.971   0.076 -0.3647 -0.1191  0.0232
 1008TIP3    H124583   4.806   2.036   0.123 -1.4202  0.6992  0.1138
 1008TIP3    H224584   4.758   1.999  -0.016 -1.7618  0.8036  0.2038
 1009TIP3   OH224585   0.890   3.020   7.469  0.2071  0.7846  0.5200
 1009TIP3    H124586   0.969   3.005   7.521 -0.0957  0.0483  0.7755
 1009TIP3    H224587   0.910   3.098   7.417  1.6219 -0.1835 -0.4444
 1010TIP3   OH224588   6.356   6.153   0.544  0.5435  0.0866 -0.7502
 1010TIP3    H124589   6.383   6.149   0.452  0.1469 -0.2664 -0.8594
 1010TIP3    H224590   6.268   6.190   0.541  0.2471 -0.5851 -0.5782
 1011TIP3   OH224591   5.740   5.011   0.346 -0.2456  0.5105  0.1111
 1011TIP3    H124592   5.648   5.014   0.320 -0.1471 -2.8375 -1.2072
 1011TIP3    H224593   5.759   5.098   0.379 -3.1689  2.1098 -1.9895
 1012TIP3   OH224594   1.949   5.391   1.718 -0.1958 -0.2877 -0.1681
 1012TIP3    H124595   2.023   5.350   1.761 -1.9980 -3.7497 -0.0226
 1012TIP3    H224596   1.877   5.385   1.781 -1.5266 -0.5081 -1.6271
 1013TIP3   OH224597   3.374   0.582   8.108 -0.3593 -0.1802 -0.6631
 1013TIP3    H124598   3.389   0.488   8.099 -1.1262 -0.2955 -0.7688
 1013TIP3    H224599   3.416   0.606   8.191  2.7109  0.0150 -2.1527
 1014TIP3   OH224600   0.660   5.720   6.498 -0.2868  0.2524  0.0899
 1014TIP3    H124601   0.589   5.714   6.562 -0.3483  0.9074  0.0951
 1014TIP3    H224602   0.715   5.792   6.530 -0.5954  0.9236 -0.8539
 1015TIP3   OH224603   4.298   2.298   6.350  0.2212 -0.2082 -0.2303
 1015TIP3    H124604   4.312   2.352   6.272  2.8078  0.6106  0.6949
 1015TIP3    H224605   4.222   2.337   6.393 -1.0693 -0.5000 -2.1335
 1016TIP3   OH224606   2.841   2.797   8.188 -0.5033  0.0365 -0.0898
 1016TIP3    H124607   2.799   2.883   8.187 -0.0212  0.2658 -0.6529
 1016TIP3    H224608   2.852   2.777   8.282  1.8316  1.8022  0.1071
 1017TIP3   OH224609   0.011   0.582   6.543 -0.4236  0.2779 -0.3256
 1017TIP3    H124610  -0.018   0.669   6.570  0.0603  0.4995 -0.5123
 1017TIP3    H224611   0.105   0.593   6.525 -0.7361  0.1610 -2.1730
 1018TIP3   OH224612   2.796   3.910   0.247 -0.3756  0.0914  0.1162
 1018TIP3    H124613   2.710   3.948   0.232 -0.3240  0.1174 -0.1234
 1018TIP3    H224614   2.798   3.891   0.341 -0.9055 -0.5374  0.0127
 1019TIP3   OH224615   0.909   1.824   0.012  0.0683 -0.5349  0.2939
 1019TIP3    H124616   0.860   1.896   0.053  0.0423 -1.8851  2.8377
 1019TIP3    H224617   0.999   1.838   0.042  0.2071 -1.1235  0.1490
 1020TIP3   OH224618   6.680   0.651   7.683 -0.2202 -0.1147  0.4830
 1020TIP3    H124619   6.604   0.709   7.672  0.6356  1.3275  1.9284
 1020TIP3    H224620   6.746   0.705   7.727  1.1018 -1.7998  0.6558
 1021TIP3   OH224621   6.241   0.680   0.033  0.3754 -0.7361 -0.1196
 1021TIP3    H124622   6.169   0.649  -0.021 -0.2688  2.0290 -1.0042
 1021TIP3    H224623   6.311   0.701  -0.029  0.3823  0.5313  0.2846
 1022TIP3   OH224624   0.615   0.957   1.361  0.4173  0.8131 -0.0934
 1022TIP3    H124625   0.611   1.048   1.391 -1.9695  1.3857 -1.8266
 1022TIP3    H224626   0.549   0.912   1.414  1.5109  0.0923  0.6741
 1023TIP3   OH224627   5.450   5.329   8.647 -0.9237 -0.3053  0.1701
 1023TIP3    H124628   5.405   5.349   8.729 -2.4281  1.4031 -0.9917
 1023TIP3    H224629   5.526   5.278   8.673 -1.3153  0.2563  2.6336
 1024TIP3   OH224630   3.816   4.374   7.901 -0.0955  0.4798 -0.7211
 1024TIP3    H124631   3.728   4.372   7.939  0.8347 -0.9655  1.5542
 1024TIP3    H224632   3.851   4.460   7.924  1.1105 -0.9373  3.6846
 1025TIP3   OH224633   5.270   4.122   6.895  0.0299 -0.3090  0.3083
 1025TIP3    H124634   5.188   4.157   6.930  0.6661  1.1735  0.3652
 1025TIP3    H224635   5.290   4.177   6.819  1.2690 -0.2881  0.6279
 1026TIP3   OH224636   4.037   4.059   1.296 -0.1356 -0.0471 -0.3259
 1026TIP3    H124637   4.073   4.034   1.381 -1.2496 -1.1818 -0.1486
 1026TIP3    H224638   4.091   4.013   1.232 -0.1961 -0.3728 -0.1471
 1027TIP3   OH224639   1.303   6.652   8.398 -0.0507 -0.2642  0.5157
 1027TIP3    H124640   1.251   6.642   8.318 -0.6583 -1.3592  1.0243
 1027TIP3    H224641   1.389   6.682   8.367 -1.1219  2.2219 -0.2770
 1028TIP3   OH224642   2.529   3.561   7.490 -0.3575 -0.1472  0.4180
 1028TIP3    H124643   2.454   3.606   7.528  0.0803  0.0690  1.0424
 1028TIP3    H224644   2.539   3.599   7.403  1.0638  2.2470  1.5429
 1029TIP3   OH224645   3.006   3.269   7.560  0.4589  0.0606  0.7969
 1029TIP3    H124646   3.066   3.245   7.630  2.2321 -2.5928 -1.4244
 1029TIP3    H224647   3.041   3.350   7.524 -1.1511  2.1577  3.5174
 1030TIP3   OH224648   4.485   0.091   1.249  0.0786 -0.0194 -0.7231
 1030TIP3    H124649   4.470   0.112   1.341  0.5585  1.7033 -1.0038
 1030TIP3    H224650   4.568   0.133   1.228  1.0253 -2.1115 -1.4456
 1031TIP3   OH224651   5.276   2.818   8.671  0.7093 -0.2751 -0.3440
 1031TIP3    H124652   5.195   2.791   8.628  0.6122 -0.6482  0.0549
 1031TIP3    H224653   5.305   2.895   8.623 -0.4739  0.5404  0.1946
 1032TIP3   OH224654   6.322   1.143   6.346  0.3458  0.3349 -0.5142
 1032TIP3    H124655   6.355   1.229   6.321  1.1628  0.6695  1.5154
 1032TIP3    H224656   6.333   1.140   6.441 -1.4159 -1.2838 -0.3012
 1033TIP3   OH224657   3.296   0.896   1.866 -0.3899 -0.6569 -0.1835
 1033TIP3    H124658   3.294   0.817   1.920  0.3143 -1.6543 -1.5408
 1033TIP3    H224659   3.205   0.913   1.844 -0.5376 -1.1673  0.0275
 1034TIP3   OH224660   6.109   3.261   6.652  0.3953  0.1770  1.0547
 1034TIP3    H124661   6.178   3.204   6.686  0.9050  1.1556  1.7166
 1034TIP3    H224662   6.150   3.309   6.580 -0.2992 -0.9307 -0.1105
 1035TIP3   OH224663   6.324   1.930   1.198  0.2702 -0.8371  0.0010
 1035TIP3    H124664   6.344   1.943   1.105 -0.0130 -0.0363  0.0423
 1035TIP3    H224665   6.344   1.838   1.215  1.4281 -0.7193 -0.5856
 1036TIP3   OH224666   1.692   2.371   8.096  0.2423  0.1718  0.1439
 1036TIP3    H124667   1.606   2.395   8.063  0.5309 -0.3636 -1.0722
 1036TIP3    H224668   1.730   2.453   8.128 -1.2044  0.1878  1.9550
 1037TIP3   OH224669   5.356   4.422   7.237 -0.2507 -0.1734  0.2273
 1037TIP3    H124670   5.430   4.380   7.193 -0.7030  0.5901 -1.3456
 1037TIP3    H224671   5.302   4.349   7.269 -0.3699 -0.8177 -1.3248
 1038TIP3   OH224672   5.690   1.640   6.262  0.7017  0.4730  0.6012
 1038TIP3    H124673   5.605   1.603   6.287  1.2127 -0.2035  1.4163
 1038TIP3    H224674   5.681   1.661   6.169  0.0618 -0.8008  0.3517
 1039TIP3   OH224675   1.225   1.319   1.177 -0.2602 -0.2736 -0.5728
 1039TIP3    H124676   1.217   1.231   1.213 -1.5304  0.0481  0.0194
 1039TIP3    H224677   1.163   1.320   1.104 -0.4835  0.2048 -0.3822
 1040TIP3   OH224678   2.992   3.039   8.305 -1.3968  0.1850 -0.2203
 1040TIP3    H124679   2.982   3.080   8.391 -2.6519 -1.7730  0.6201
 1040TIP3    H224680   2.904   3.040   8.267 -0.8179  1.2516 -1.6349
 1041TIP3   OH224681   1.434   3.136   8.004 -0.1088 -0.5334  0.6530
 1041TIP3    H124682   1.482   3.214   8.028  1.9045 -2.0094  1.7163
 1041TIP3    H224683   1.463   3.116   7.915  0.4575 -0.8281  0.8994
 1042TIP3   OH224684   0.322   5.429   7.277 -0.1852 -0.1899 -0.0949
 1042TIP3    H124685   0.244   5.441   7.331  0.6794 -0.5898  1.3112
 1042TIP3    H224686   0.305   5.480   7.198 -1.0438  1.3401  1.0318
 1043TIP3   OH224687   5.781   3.674   0.418 -0.2960 -0.3412  0.1599
 1043TIP3    H124688   5.750   3.597   0.371  0.0373 -0.7017  0.5208
 1043TIP3    H224689   5.723   3.680   0.494  0.7708 -1.2901  1.0875
 1044TIP3   OH224690   4.620   2.763   8.311 -0.4173 -0.0301  0.6085
 1044TIP3    H124691   4.689   2.822   8.280 -0.8300 -0.2466 -0.8083
 1044TIP3    H224692   4.565   2.749   8.234 -1.3885 -0.7807  1.4167
 1045TIP3   OH224693   4.249   4.369   8.397 -0.5330  0.3906  0.0305
 1045TIP3    H124694   4.293   4.375   8.312  1.9009  0.5329  1.2198
 1045TIP3    H224695   4.188   4.443   8.398 -0.9790  0.1079 -1.7427
 1046TIP3   OH224696   5.961   4.194   0.138  0.1165  0.1777 -0.0388
 1046TIP3    H124697   5.941   4.108   0.102 -0.3078  0.1620  0.2308
 1046TIP3    H224698   6.029   4.177   0.203  0.1239  0.0640 -0.0754
 1047TIP3   OH224699   6.201   2.693   6.449  0.4233 -0.1537  0.1739
 1047TIP3    H124700   6.154   2.610   6.438 -1.7625  0.9599  0.4063
 1047TIP3    H224701   6.198   2.735   6.363  1.8483 -0.4477 -0.0400
 1048TIP3   OH224702   1.956   5.001   1.378 -0.0249  0.1051 -0.2594
 1048TIP3    H124703   1.880   5.033   1.427  1.1104 -0.0552  1.7048
 1048TIP3    H224704   2.031   5.041   1.421  1.1916 -1.9896 -0.2673
 1049TIP3   OH224705   2.773   2.606   7.412  0.0702 -0.2135  0.0654
 1049TIP3    H124706   2.710   2.610   7.341 -0.9196  2.1496  0.9826
 1049TIP3    H224707   2.814   2.693   7.414  0.4165 -0.3713  2.0531
 1050TIP3   OH224708   2.329   5.163   7.565  0.0261  0.7717  0.4451
 1050TIP3    H124709   2.276   5.165   7.645  0.0684  3.2940  0.4896
 1050TIP3    H224710   2.374   5.248   7.564 -0.3235  1.0329 -2.4863
 1051TIP3   OH224711   6.475   4.167   5.820 -0.2585  0.2526  0.2509
 1051TIP3    H124712   6.557   4.147   5.867  1.1557 -0.8094 -2.4627
 1051TIP3    H224713   6.423   4.087   5.828 -0.4436  0.4248  0.8032
 1052TIP3   OH224714   1.545   5.894   7.970  0.0247  0.3864  0.1233
 1052TIP3    H124715   1.495   5.911   7.890 -1.1812 -0.4844  0.6542
 1052TIP3    H224716   1.604   5.969   7.978 -0.9387  1.2763 -0.7457
 1053TIP3   OH224717   4.961   3.631   8.282  0.0307  0.4100  0.2057
 1053TIP3    H124718   4.985   3.543   8.255  1.1122  0.2949  1.4546
 1053TIP3    H224719   4.976   3.685   8.204 -3.0062 -0.7968 -1.3890
 1054TIP3   OH224720   4.935   3.089   1.894  0.7256 -1.0330  0.8257
 1054TIP3    H124721   4.877   3.029   1.846  1.0946 -0.5551 -0.2293
 1054TIP3    H224722   4.881   3.167   1.910  0.7822 -0.9713  0.7088
 1055TIP3   OH224723   3.942   5.376   6.289  0.0228  0.2696 -0.0970
 1055TIP3    H124724   4.031   5.353   6.262  0.3790  0.9205  0.4708
 1055TIP3    H224725   3.955   5.441   6.358 -0.9000  0.4911 -0.1240
 1056TIP3   OH224726   5.030   6.245   1.106 -0.0251  0.9221 -0.3853
 1056TIP3    H124727   5.071   6.183   1.166  0.3329 -0.0760 -1.6416
 1056TIP3    H224728   4.937   6.221   1.107  0.1331  0.2543 -0.9760
 1057TIP3   OH224729   0.885   1.137   1.179  0.3989  0.3501  0.5246
 1057TIP3    H124730   0.851   1.142   1.269 -0.2282 -1.9126  0.4776
 1057TIP3    H224731   0.810   1.107   1.127  0.3805  2.8714 -1.0589
 1058TIP3   OH224732   5.163   0.871   6.926  0.1847  0.0608  0.5696
 1058TIP3    H124733   5.237   0.879   6.866  1.1994  0.8641  1.8741
 1058TIP3    H224734   5.104   0.942   6.901  0.1893 -0.1319 -0.0042
 1059TIP3   OH224735   2.814   5.302   1.831  0.4579  0.2720  0.2334
 1059TIP3    H124736   2.746   5.359   1.797  0.7090 -0.4290 -1.5330
 1059TIP3    H224737   2.894   5.329   1.785  0.9928 -0.1568  0.8813
 1060TIP3   OH224738   2.693   5.355   7.563  0.0301  0.0866 -0.7126
 1060TIP3    H124739   2.737   5.365   7.479  1.2343 -1.0234 -0.2414
 1060TIP3    H224740   2.715   5.434   7.612  0.9421 -0.1431 -0.7408
 1061TIP3   OH224741   4.459   4.014   1.800 -0.3131  0.3928  0.3083
 1061TIP3    H124742   4.374   3.981   1.770 -1.0870  2.1373  0.4451
 1061TIP3    H224743   4.508   3.935   1.825 -1.8874 -0.6565  0.2352
 1062TIP3   OH224744   1.388   3.429   1.401 -0.2693  0.1846 -0.2782
 1062TIP3    H124745   1.446   3.396   1.470 -1.8991 -0.0597  1.0273
 1062TIP3    H224746   1.368   3.352   1.348 -1.4482 -0.3226  0.8369
 1063TIP3   OH224747   1.691   1.102   7.526  0.2262 -0.2286  0.3539
 1063TIP3    H124748   1.725   1.014   7.509 -1.1871 -0.5000 -1.3119
 1063TIP3    H224749   1.628   1.118   7.456 -0.9989  1.3532  1.7179
 1064TIP3   OH224750   1.520   0.687   7.706  0.4747  0.5840 -0.0201
 1064TIP3    H124751   1.606   0.700   7.747  0.5673 -1.0124  0.3851
 1064TIP3    H224752   1.500   0.595   7.723 -1.7240  1.1338  0.6488
 1065TIP3   OH224753   3.617   6.722   8.777  0.5351  0.5450 -0.6496
 1065TIP3    H124754   3.565   6.648   8.808  1.4825 -0.2487 -0.9028
 1065TIP3    H224755   3.576   6.749   8.695  0.4182  0.0338 -0.7601
 1066TIP3   OH224756   1.786   4.278   7.969  0.4829  0.0795 -0.7480
 1066TIP3    H124757   1.868   4.265   7.922  0.9281  2.9443 -0.9122
 1066TIP3    H224758   1.749   4.357   7.931 -0.7930  0.6335  1.4939
 1067TIP3   OH224759   6.546   5.394   8.213 -0.6666  0.0697  0.2661
 1067TIP3    H124760   6.639   5.417   8.222 -0.7485  0.7776 -0.5730
 1067TIP3    H224761   6.546   5.299   8.204 -0.0519  0.0269  0.6571
 1068TIP3   OH224762   5.612   0.825   0.119  0.6029 -0.5692  0.7986
 1068TIP3    H124763   5.704   0.827   0.144  0.1772 -0.3552  2.4500
 1068TIP3    H224764   5.580   0.742   0.153 -0.1370 -0.0051  1.5181
 1069TIP3   OH224765   5.591   1.096   1.372 -0.1503  0.1013  0.0045
 1069TIP3    H124766   5.686   1.100   1.371 -0.1738  0.9982  0.5047
 1069TIP3    H224767   5.567   1.060   1.287  0.6821 -1.4530  0.3925
 1070TIP3   OH224768   6.480   1.778   8.423 -0.1142  0.7101  0.1268
 1070TIP3    H124769   6.504   1.817   8.339  2.0081 -0.2306  0.2384
 1070TIP3    H224770   6.533   1.699   8.430 -0.6076  0.4839  2.1243
 1071TIP3   OH224771   2.909   1.752   6.342  0.2447  0.0609 -0.4963
 1071TIP3    H124772   2.833   1.776   6.395 -0.9603  0.9625 -2.5225
 1071TIP3    H224773   2.983   1.757   6.403 -1.1954 -0.0917  1.3466
 1072TIP3   OH224774   2.992   1.094   7.400  0.0313 -0.1585  0.3054
 1072TIP3    H124775   3.087   1.097   7.394 -0.0034  2.5507 -0.3280
 1072TIP3    H224776   2.965   1.031   7.333  1.3345  0.0936 -0.4820
 1073TIP3   OH224777   3.015   5.955   6.950 -0.5053 -0.4031  0.3353
 1073TIP3    H124778   2.972   5.979   7.032 -4.2387 -0.4051 -1.3851
 1073TIP3    H224779   3.061   6.035   6.923 -2.9324  1.1195  0.3871
 1074TIP3   OH224780   3.686   6.397   7.131  0.0220 -0.3691 -0.3126
 1074TIP3    H124781   3.754   6.358   7.077 -1.7127 -0.9121 -2.2436
 1074TIP3    H224782   3.660   6.477   7.083  0.2528  0.5936  1.1129
 1075TIP3   OH224783   2.106   4.821   1.943  0.2851  0.4291  0.3443
 1075TIP3    H124784   2.170   4.840   1.874  0.7526 -0.9549  0.3837
 1075TIP3    H224785   2.158   4.812   2.023 -0.3756  3.4918  1.2503
 1076TIP3   OH224786   3.865   2.605   6.714 -1.0112 -0.2435 -0.2007
 1076TIP3    H124787   3.882   2.671   6.647 -0.8734 -0.4709 -0.3927
 1076TIP3    H224788   3.875   2.522   6.669 -2.2142 -0.3963 -0.2117
 1077TIP3   OH224789   1.417   4.011   0.059 -0.4784 -0.0625 -0.1883
 1077TIP3    H124790   1.373   3.931   0.033 -0.8066  0.4046 -1.0884
 1077TIP3    H224791   1.453   3.991   0.146 -2.3423 -0.4980  0.5285
 1078TIP3   OH224792   2.629   1.965   6.413 -0.4789 -0.6248 -0.2724
 1078TIP3    H124793   2.605   1.884   6.369 -2.8691  0.1216 -0.4608
 1078TIP3    H224794   2.661   2.022   6.343 -1.6078 -0.4120 -0.6358
 1079TIP3   OH224795   3.304   4.794   7.923  0.0258  0.4708  0.7233
 1079TIP3    H124796   3.344   4.835   8.000 -0.1371 -0.1772  1.1587
 1079TIP3    H224797   3.366   4.811   7.852  0.9184 -0.2363  1.3207
 1080TIP3   OH224798   3.527   2.292   7.824  0.0616 -0.0438 -0.7803
 1080TIP3    H124799   3.540   2.345   7.746  2.3925  3.0166  1.3982
 1080TIP3    H224800   3.603   2.233   7.826  1.1204  1.2881  0.0810
 1081TIP3   OH224801   3.895   0.156   6.956 -0.3175  0.0295 -0.1749
 1081TIP3    H124802   3.882   0.201   7.039  0.0853  1.8379 -1.0370
 1081TIP3    H224803   3.807   0.146   6.920 -0.4196  0.0126  0.0770
 1082TIP3   OH224804   0.639   3.693   0.224  0.1483  0.2352  0.3152
 1082TIP3    H124805   0.689   3.741   0.290  0.8842  0.5616 -0.4634
 1082TIP3    H224806   0.670   3.728   0.140  1.5344 -2.3446 -0.3551
 1083TIP3   OH224807   3.732   3.113   8.124 -0.2339  0.1649  0.3003
 1083TIP3    H124808   3.710   3.197   8.084  0.2459 -0.4040 -1.2093
 1083TIP3    H224809   3.828   3.113   8.129 -0.1440 -0.8313 -0.9720
 1084TIP3   OH224810   3.316   3.895   0.321  0.1326 -0.3767 -0.1683
 1084TIP3    H124811   3.342   3.967   0.379  1.9815 -0.4970 -0.7685
 1084TIP3    H224812   3.383   3.829   0.333 -0.7436 -1.3951 -0.7243
 1085TIP3   OH224813   5.361   5.491   1.794 -0.1103 -0.4538  0.2331
 1085TIP3    H124814   5.301   5.541   1.739  0.6364  0.4552  0.2193
 1085TIP3    H224815   5.324   5.497   1.882 -0.5341 -0.6850  0.0725
 1086TIP3   OH224816   6.594   6.584   7.617  0.5198 -0.5014  0.4870
 1086TIP3    H124817   6.577   6.521   7.548 -0.2092 -0.5698  0.7207
 1086TIP3    H224818   6.526   6.568   7.682  0.4958  0.3275  0.6854
 1087TIP3   OH224819   0.903   1.240   1.784 -0.3065 -0.4414 -0.2473
 1087TIP3    H124820   0.913   1.173   1.716 -0.4877  0.5796 -1.3106
 1087TIP3    H224821   0.860   1.194   1.856 -0.8738 -1.3629 -1.1421
 1088TIP3   OH224822   2.269   4.111   7.536  0.6099 -0.6217  0.1751
 1088TIP3    H124823   2.181   4.111   7.574  0.3777  3.2369  0.0117
 1088TIP3    H224824   2.324   4.155   7.602  1.5160  0.6547 -1.3630
 1089TIP3   OH224825   5.277   0.078   8.171 -0.3281 -0.4388  0.2364
 1089TIP3    H124826   5.203   0.134   8.149 -0.8946 -0.9411  0.8083
 1089TIP3    H224827   5.262  -0.003   8.121 -0.0127 -0.4341  0.1318
 1090TIP3   OH224828   0.973   6.566   2.112  0.7401  0.3883 -0.3975
 1090TIP3    H124829   0.913   6.516   2.056 -0.0941 -0.3631  1.1053
 1090TIP3    H224830   1.045   6.591   2.054 -0.8165  0.9656 -2.1535
 1091TIP3   OH224831   5.101   1.544   8.110  0.5279 -0.1994  0.1907
 1091TIP3    H124832   5.064   1.581   8.190  0.6241  2.4678 -0.8664
 1091TIP3    H224833   5.180   1.597   8.094  1.6512 -2.0261 -0.6007
 1092TIP3   OH224834   1.465   2.015   7.725 -0.0620  0.7842  0.0638
 1092TIP3    H124835   1.552   1.979   7.743 -0.2498 -0.5086 -1.4156
 1092TIP3    H224836   1.414   1.941   7.692 -1.1504  1.9217 -0.9331
 1093TIP3   OH224837   0.907   5.664   1.072 -0.2038  0.1860  0.0281
 1093TIP3    H124838   0.816   5.665   1.102  0.0823 -0.8636  0.9961
 1093TIP3    H224839   0.929   5.757   1.061 -0.9353  0.5280  1.2124
 1094TIP3   OH224840   5.843   4.454   6.731 -0.2790 -0.1854  0.1539
 1094TIP3    H124841   5.916   4.433   6.673 -1.2343 -0.5672 -0.9437
 1094TIP3    H224842   5.864   4.409   6.813  1.3942  0.8546  0.3574
 1095TIP3   OH224843   2.079   4.359   0.819  0.1785 -0.1191  0.1099
 1095TIP3    H124844   1.985   4.378   0.823  0.2321  0.0852  0.4177
 1095TIP3    H224845   2.117   4.434   0.775  0.2373 -0.0550  0.2680
 1096TIP3   OH224846   1.529   5.784   5.825  0.1089 -0.3776  0.3969
 1096TIP3    H124847   1.508   5.775   5.732 -0.2876 -2.0263  0.6219
 1096TIP3    H224848   1.565   5.873   5.833 -1.4991  0.4520 -1.0083
 1097TIP3   OH224849   2.187   2.339   8.222 -0.3216 -0.1907 -0.4980
 1097TIP3    H124850   2.283   2.341   8.223 -0.3129 -0.5552 -0.7832
 1097TIP3    H224851   2.162   2.419   8.269  0.1217 -0.4758  0.2412
 1098TIP3   OH224852   4.947   3.251   0.249 -0.1044 -0.1928  0.8612
 1098TIP3    H124853   4.994   3.268   0.331  0.8436  0.1651  0.2575
 1098TIP3    H224854   4.915   3.161   0.258  1.6392 -0.8510  0.8584
 1099TIP3   OH224855   3.875   1.710   7.872  0.0064 -0.3696  0.3997
 1099TIP3    H124856   3.964   1.698   7.906  1.0859 -0.0454 -2.1078
 1099TIP3    H224857   3.868   1.648   7.800 -0.6275  1.7091 -1.4543
 1100TIP3   OH224858   5.077   2.179   8.638  0.6816  0.3239  0.2493
 1100TIP3    H124859   5.099   2.222   8.555  1.5964 -1.1344 -0.2905
 1100TIP3    H224860   4.982   2.168   8.634  0.9033 -1.4030 -1.4767
 1101TIP3   OH224861   0.730   1.121   0.757 -0.5393 -0.0013 -1.0373
 1101TIP3    H124862   0.689   1.110   0.671 -2.6249  2.3635 -0.4401
 1101TIP3    H224863   0.736   1.216   0.769 -0.5382 -0.2653  1.5367
 1102TIP3   OH224864   2.122   3.121   6.698 -0.4669 -0.3665 -0.7928
 1102TIP3    H124865   2.196   3.135   6.757 -0.6839 -0.0117 -0.6012
 1102TIP3    H224866   2.096   3.209   6.671 -1.8087 -0.3608  0.3876
 1103TIP3   OH224867   3.223   3.260   6.931 -0.3708 -0.0764 -0.3799
 1103TIP3    H124868   3.186   3.172   6.925 -2.0221  0.5587  0.0076
 1103TIP3    H224869   3.254   3.279   6.842  0.0122 -1.0393 -0.4604
 1104TIP3   OH224870   3.830   5.032   6.492 -0.2166 -0.3893 -0.0561
 1104TIP3    H124871   3.830   4.976   6.570 -1.5356  0.0067  0.2598
 1104TIP3    H224872   3.917   5.020   6.453  0.7727 -0.0065  1.9031
 1105TIP3   OH224873   5.788   1.096   8.321 -0.6186  0.1971  0.4168
 1105TIP3    H124874   5.771   1.115   8.229 -2.3639  0.7907  0.8273
 1105TIP3    H224875   5.710   1.050   8.351 -0.3816  0.6241  1.7681
 1106TIP3   OH224876   2.732   3.048   8.204 -0.0428 -0.0131  0.9528
 1106TIP3    H124877   2.680   3.107   8.259 -0.8937 -0.0560  0.2080
 1106TIP3    H224878   2.727   3.086   8.117 -1.1938 -1.5449  0.3070
 1107TIP3   OH224879   1.810   4.215   8.287  0.4552 -0.2226  0.1108
 1107TIP3    H124880   1.736   4.175   8.242 -0.5844  1.5410  0.1769
 1107TIP3    H224881   1.810   4.306   8.259  2.9386 -0.2524 -0.2755
 1108TIP3   OH224882   5.053   4.312   6.977  0.3084 -0.0198  0.3166
 1108TIP3    H124883   4.963   4.310   6.944  0.8560 -0.1700 -1.2659
 1108TIP3    H224884   5.057   4.390   7.032 -1.4858 -1.4286  2.6226
 1109TIP3   OH224885   4.723   2.984   8.825  0.3475  0.1530 -0.1006
 1109TIP3    H124886   4.666   2.913   8.853  0.1092  0.5228  0.3716
 1109TIP3    H224887   4.800   2.977   8.881  1.2018 -0.9019 -1.3376
 1110TIP3   OH224888   0.884   0.118   1.281 -0.3193 -0.0761 -0.3558
 1110TIP3    H124889   0.931   0.169   1.215 -0.7465 -0.3585 -0.8792
 1110TIP3    H224890   0.855   0.184   1.345 -0.1230  0.2285 -0.5749
 1111TIP3   OH224891   2.110   3.358   8.512  0.2172 -0.0711 -0.4109
 1111TIP3    H124892   2.188   3.407   8.539 -0.2712  0.4160  0.1520
 1111TIP3    H224893   2.106   3.371   8.417  0.9351 -0.2820 -0.4802
 1112TIP3   OH224894   5.904   5.853   0.344  0.0777  0.1930  0.1079
 1112TIP3    H124895   5.861   5.769   0.330  1.1648 -0.2046 -1.1577
 1112TIP3    H224896   5.924   5.884   0.255  1.6186  0.7345  0.6103
 1113TIP3   OH224897   0.435   5.661   6.688  0.6775  0.1828 -0.0243
 1113TIP3    H124898   0.417   5.728   6.754 -0.3364 -1.8146  1.8475
 1113TIP3    H224899   0.358   5.661   6.632 -0.6393 -1.2561  1.6850
 1114TIP3   OH224900   6.480   3.418   8.682  0.0036  0.0609  0.2205
 1114TIP3    H124901   6.467   3.333   8.725  0.0021  1.3353  2.9265
 1114TIP3    H224902   6.572   3.416   8.654  0.6934 -0.0623  2.2807
 1115TIP3   OH224903   3.838   4.734   0.045  0.2835  0.1307  0.0982
 1115TIP3    H124904   3.828   4.792   0.121 -0.6575  0.1996 -0.0661
 1115TIP3    H224905   3.925   4.695   0.056 -0.1796 -0.5572  1.7288
 1116TIP3   OH224906   5.741   0.224   6.392  0.3141 -0.7489  0.3481
 1116TIP3    H124907   5.750   0.131   6.413 -0.2912 -1.0261 -0.5305
 1116TIP3    H224908   5.774   0.231   6.302  1.9401  0.2107  0.9711
 1117TIP3   OH224909   2.194   0.078   6.684  0.1321 -0.1548 -0.4272
 1117TIP3    H124910   2.207   0.155   6.628  1.1841 -0.2399 -0.3219
 1117TIP3    H224911   2.107   0.046   6.660 -1.0753  2.0395  0.7536
 1118TIP3   OH224912   1.263   3.566   2.149 -0.1870  0.1384 -0.0698
 1118TIP3    H124913   1.226   3.649   2.119  1.7266  1.6089  1.4159
 1118TIP3    H224914   1.258   3.571   2.245  0.6231 -1.1729  0.0655
 1119TIP3   OH224915   3.979   5.473   0.497 -0.0585 -0.0714 -0.1686
 1119TIP3    H124916   4.013   5.413   0.430  0.9969  0.1219  0.1683
 1119TIP3    H224917   3.888   5.489   0.472  0.6155  0.8467 -2.1521
 1120TIP3   OH224918   0.366   3.012   1.538  0.1168  0.5736 -0.1009
 1120TIP3    H124919   0.377   2.993   1.631  0.1690 -1.1960 -0.4267
 1120TIP3    H224920   0.304   2.946   1.507  1.0508  0.3274 -1.5603
 1121TIP3   OH224921   0.611   0.153   7.944 -0.0245 -0.3628  0.3772
 1121TIP3    H124922   0.700   0.181   7.967  0.2694 -0.5935 -0.4352
 1121TIP3    H224923   0.624   0.081   7.881 -0.7823  0.2761 -0.5384
 1122TIP3   OH224924   0.039   6.405   8.200  0.3059  0.1000  0.0209
 1122TIP3    H124925  -0.015   6.326   8.189 -0.3471  0.2931  1.6413
 1122TIP3    H224926   0.014   6.440   8.285  2.7200  0.4297  0.6654
 1123TIP3   OH224927   3.357   4.622   5.816  0.3651  0.3635 -0.8676
 1123TIP3    H124928   3.353   4.669   5.733  0.4943  1.9601  0.0008
 1123TIP3    H224929   3.403   4.681   5.875 -0.2477 -0.4946  0.5184
 1124TIP3   OH224930   2.061   2.568   1.864  0.6211 -0.3844  0.3560
 1124TIP3    H124931   1.986   2.627   1.854  0.6555 -0.2897  0.6587
 1124TIP3    H224932   2.137   2.622   1.847  0.6054 -0.5725 -0.3497
 1125TIP3   OH224933   4.160   1.875   8.802 -0.2658 -0.4985 -0.0089
 1125TIP3    H124934   4.118   1.877   8.889  1.7030 -0.1369  0.9879
 1125TIP3    H224935   4.150   1.964   8.769 -2.3102 -0.9728 -0.8821
 1126TIP3   OH224936   3.881   1.607   6.845  0.9062 -0.7077 -0.0363
 1126TIP3    H124937   3.950   1.569   6.790  0.9446 -0.4420 -0.1734
 1126TIP3    H224938   3.845   1.679   6.792  1.5566  0.1331  0.6485
 1127TIP3   OH224939   5.928   4.778   8.423 -0.3453 -0.4100 -0.7453
 1127TIP3    H124940   5.856   4.824   8.379 -0.3672 -0.0816 -0.3721
 1127TIP3    H224941   5.895   4.761   8.511  0.7629  1.5934  0.1272
 1128TIP3   OH224942   0.865   0.832   0.622  0.4835  0.1461 -0.1051
 1128TIP3    H124943   0.791   0.888   0.599 -0.3343 -0.6633  0.4823
 1128TIP3    H224944   0.934   0.894   0.647 -0.4975  0.9156  0.8245
 1129TIP3   OH224945   0.029   1.510   7.728 -0.2940 -0.5291 -0.0322
 1129TIP3    H124946   0.061   1.562   7.654  0.4676 -0.4463  0.3458
 1129TIP3    H224947  -0.028   1.444   7.688  1.9051 -1.9644 -0.9946
 1130TIP3   OH224948   5.443   3.217   2.016  0.3477  0.2244 -0.3010
 1130TIP3    H124949   5.492   3.196   1.937 -0.2305 -1.3592 -0.2637
 1130TIP3    H224950   5.463   3.146   2.077  1.5183  1.8771  1.3643
 1131TIP3   OH224951   2.021   5.134   8.002 -0.5552 -0.3408 -0.3235
 1131TIP3    H124952   2.051   5.225   7.996  1.8981 -1.1385 -1.1281
 1131TIP3    H224953   1.931   5.141   8.033 -0.7442  2.4038 -1.2148
 1132TIP3   OH224954   3.879   5.988   6.911  0.0332 -0.2489 -0.5143
 1132TIP3    H124955   3.961   6.037   6.908  0.5259 -1.0867 -2.6173
 1132TIP3    H224956   3.873   5.946   6.826 -0.4754 -3.6728  1.0499
 1133TIP3   OH224957   3.058   4.938   6.712 -0.1623  0.4761 -0.0863
 1133TIP3    H124958   3.034   4.993   6.638 -0.6622  0.0363 -0.2608
 1133TIP3    H224959   2.978   4.932   6.764  0.5660  1.9634  1.2714
 1134TIP3   OH224960   5.291   3.476   8.420  0.1315  0.1651 -0.0377
 1134TIP3    H124961   5.218   3.530   8.451 -0.2794 -0.9913  1.1660
 1134TIP3    H224962   5.267   3.387   8.448  1.5084 -0.4008 -0.5748
 1135TIP3   OH224963   2.237   0.649   8.553  0.5411  0.6836 -1.1667
 1135TIP3    H124964   2.280   0.624   8.635 -1.4322  0.5343 -0.1159
 1135TIP3    H224965   2.309   0.669   8.494  2.0453  0.4744  0.4940
 1136TIP3   OH224966   0.559   4.874   6.617  0.3863 -0.3959 -0.1340
 1136TIP3    H124967   0.561   4.907   6.527 -1.7539  0.8689  0.2234
 1136TIP3    H224968   0.485   4.813   6.618  1.9858 -2.4604  0.1838
 1137TIP3   OH224969   6.212   3.503   1.917 -0.4117  0.6581  0.2579
 1137TIP3    H124970   6.138   3.529   1.862  1.3505  2.9658 -1.2344
 1137TIP3    H224971   6.243   3.422   1.878  0.6205  2.0996 -2.1579
 1138TIP3   OH224972   1.176   4.161   0.759 -0.1280  0.0724 -0.0961
 1138TIP3    H124973   1.142   4.133   0.844 -2.4607 -0.4775 -1.1265
 1138TIP3    H224974   1.269   4.138   0.762 -0.6651 -2.2470  1.3744
 1139TIP3   OH224975   5.447   0.450   0.409 -0.2539 -0.0951  0.0815
 1139TIP3    H124976   5.377   0.515   0.410 -0.1137  0.0569  0.0055
 1139TIP3    H224977   5.527   0.501   0.416 -0.0954 -0.1972 -0.9013
 1140TIP3   OH224978   4.902   4.892   1.882 -0.1903 -0.1496 -0.4780
 1140TIP3    H124979   4.988   4.858   1.858 -0.7939 -1.8865 -0.2951
 1140TIP3    H224980   4.919   4.983   1.907  2.0540 -1.1244  2.1037
 1141TIP3   OH224981   0.319   0.445   6.008 -0.0523 -0.3494 -0.1881
 1141TIP3    H124982   0.299   0.477   6.096 -0.7952 -1.4591  0.0654
 1141TIP3    H224983   0.386   0.378   6.021  1.3372  0.8651 -0.6973
 1142TIP3   OH224984   0.652   5.347   7.687  0.5799 -0.1330 -0.3430
 1142TIP3    H124985   0.682   5.416   7.746 -1.6242 -0.1950  0.9845
 1142TIP3    H224986   0.693   5.367   7.603  1.8858  1.3762  0.5986
 1143TIP3   OH224987   3.766   2.212   0.199  0.8341 -0.8960  0.2487
 1143TIP3    H124988   3.729   2.273   0.135  1.5370  0.0883  0.7647
 1143TIP3    H224989   3.831   2.263   0.247  1.1946 -1.9576  0.9316
 1144TIP3   OH224990   3.802   0.923   1.321 -0.8280 -0.0707 -0.1336
 1144TIP3    H124991   3.853   0.888   1.248 -0.3843 -0.7826  0.5072
 1144TIP3    H224992   3.711   0.908   1.296 -0.6777 -0.3703 -0.5080
 1145TIP3   OH224993   5.096   2.753   0.926 -0.5035 -0.7833 -0.2726
 1145TIP3    H124994   5.182   2.739   0.965 -0.9050  0.6807  1.2467
 1145TIP3    H224995   5.114   2.783   0.837  0.5101 -1.6079 -0.3550
 1146TIP3   OH224996   1.145   6.293   7.996 -0.1744  0.0057 -0.1215
 1146TIP3    H124997   1.220   6.295   8.055 -1.5852  0.8604  1.7621
 1146TIP3    H224998   1.157   6.368   7.938  1.0346 -0.6134 -0.6990
 1147TIP3   OH224999   6.759   4.960   0.967  0.3703 -0.2546 -0.6939
 1147TIP3    H125000   6.751   4.874   1.007 -0.6151  0.8916  1.7843
 1147TIP3    H225001   6.674   4.974   0.924 -0.8472  0.7394  1.8142
 1148TIP3   OH225002   1.885   0.060   6.614  0.2947 -0.5381  0.1001
 1148TIP3    H125003   1.797   0.072   6.650  0.5585 -0.5517  0.7639
 1148TIP3    H225004   1.872   0.054   6.520 -0.3082  0.5574  0.0998
 1149TIP3   OH225005   4.649   2.576   8.787 -0.0063  0.0635 -0.2991
 1149TIP3    H125006   4.648   2.516   8.861 -0.5481 -0.8295 -1.0142
 1149TIP3    H225007   4.650   2.520   8.709 -0.7920  0.9486 -0.9876
 1150TIP3   OH225008   0.092   4.062   8.698 -0.4897 -0.7274  0.1692
 1150TIP3    H125009   0.149   4.053   8.622 -2.5387 -1.6074 -1.3760
 1150TIP3    H225010   0.023   4.121   8.668 -0.1778  0.6843  2.1245
 1151TIP3   OH225011   1.961   4.198   8.550 -0.3459 -0.1115 -0.0639
 1151TIP3    H125012   1.951   4.286   8.513 -1.9205  0.3718  1.3503
 1151TIP3    H225013   1.915   4.140   8.489  0.4115  0.0735 -0.8298
 1152TIP3   OH225014   4.159   3.698   7.649  0.3158  0.3774 -0.3093
 1152TIP3    H125015   4.087   3.668   7.592  0.0963 -1.5404  0.8901
 1152TIP3    H225016   4.157   3.794   7.641 -0.5992  0.2468 -2.4038
 1153TIP3   OH225017   4.092   5.871   7.294 -0.5987  0.1571 -0.2816
 1153TIP3    H125018   4.152   5.910   7.230 -0.5581 -0.9503 -0.9582
 1153TIP3    H225019   4.126   5.899   7.379  1.1166 -0.7318 -0.6232
 1154TIP3   OH225020   2.394   4.005   5.989 -0.3566 -0.7461  0.2794
 1154TIP3    H125021   2.315   4.038   5.946 -1.7258 -0.1546  3.0113
 1154TIP3    H225022   2.443   4.083   6.014 -0.2049 -1.0209  0.8532
 1155TIP3   OH225023   6.692   5.386   7.813  0.0910  0.5028 -0.6660
 1155TIP3    H125024   6.712   5.474   7.781  2.3240  0.2700 -0.1078
 1155TIP3    H225025   6.707   5.329   7.738  0.7444  0.4093 -0.4708
 1156TIP3   OH225026   3.444   5.060   8.812  0.0339  0.4122 -0.1694
 1156TIP3    H125027   3.525   5.108   8.795  1.2041 -1.1474  0.7380
 1156TIP3    H225028   3.450   4.981   8.757 -1.3724  0.7443 -0.8650
 1157TIP3   OH225029   4.548   6.337   0.635 -0.0272  0.2449  0.6514
 1157TIP3    H125030   4.591   6.305   0.555 -1.0393  0.6810 -0.0948
 1157TIP3    H225031   4.600   6.301   0.706  2.4218  1.8322 -0.1719
 1158TIP3   OH225032   3.950   2.049   8.030 -0.0999 -0.3634  0.3870
 1158TIP3    H125033   3.917   2.019   7.946  0.0401 -0.5468  0.3975
 1158TIP3    H225034   3.929   2.142   8.032  0.8403 -0.1290 -0.2952
 1159TIP3   OH225035   0.619   6.303   0.277 -0.0777  0.2246  0.3303
 1159TIP3    H125036   0.637   6.361   0.351  1.5139 -0.0998  0.2358
 1159TIP3    H225037   0.621   6.360   0.200  1.7434  0.0591  0.2103
 1160TIP3   OH225038   0.133   3.632   1.296  0.0512  0.5623  0.0355
 1160TIP3    H125039   0.215   3.607   1.254  0.7067 -0.5809  1.9011
 1160TIP3    H225040   0.115   3.721   1.264  1.0582  0.1643 -1.7624
 1161TIP3   OH225041   4.477   6.591   8.517  0.4866 -0.5007 -0.0857
 1161TIP3    H125042   4.540   6.520   8.499 -0.8695 -2.4438  2.2246
 1161TIP3    H225043   4.395   6.561   8.477  0.4059  0.8988 -1.0407
 1162TIP3   OH225044   2.646   6.786   1.045 -0.0545 -0.1589  0.0970
 1162TIP3    H125045   2.612   6.706   1.003 -1.0647  0.2758  0.0638
 1162TIP3    H225046   2.741   6.773   1.047 -0.2772 -1.9263  1.2268
 1163TIP3   OH225047   5.012   3.445   6.115 -0.8252 -0.2899  0.5425
 1163TIP3    H125048   5.025   3.373   6.053 -0.7717  1.8358 -2.1276
 1163TIP3    H225049   4.936   3.492   6.081  0.7732  2.4551  0.4911
 1164TIP3   OH225050   1.060   1.210   1.526  0.2158 -0.1255 -0.1851
 1164TIP3    H125051   1.118   1.153   1.576  0.2997  0.0824 -0.0405
 1164TIP3    H225052   1.084   1.299   1.554 -2.3758 -0.0690  2.4467
 1165TIP3   OH225053   5.193   0.617   6.785 -0.4840 -0.4376 -0.7560
 1165TIP3    H125054   5.188   0.567   6.866 -1.2209  1.0207  0.1210
 1165TIP3    H225055   5.155   0.702   6.806  1.4862  0.8226 -1.9811
 1166TIP3   OH225056   6.748   1.534   7.234 -0.1099 -0.0907  0.2282
 1166TIP3    H125057   6.706   1.600   7.179  1.5238  0.7889 -0.0362
 1166TIP3    H225058   6.838   1.529   7.200  0.7102 -0.1250  2.2616
 1167TIP3   OH225059   2.763   4.459   1.477  0.4375  0.3250 -0.1481
 1167TIP3    H125060   2.726   4.413   1.553 -1.0519  2.8229  0.7717
 1167TIP3    H225061   2.858   4.453   1.488  0.2482 -0.8319  0.9721
 1168TIP3   OH225062   1.689   6.006   7.630  0.1582  0.3948 -0.3024
 1168TIP3    H125063   1.713   6.067   7.701  0.1676  0.4008 -0.3105
 1168TIP3    H225064   1.754   5.936   7.637 -0.9455 -0.5729  0.9002
 1169TIP3   OH225065   3.211   0.087   0.790 -0.5849 -0.1369  0.4961
 1169TIP3    H125066   3.195   0.134   0.872 -0.4565 -0.5046  0.7358
 1169TIP3    H225067   3.230   0.156   0.726  0.3210  0.1071  1.0074
 1170TIP3   OH225068   1.260   1.997   1.403 -0.4089  0.5253 -0.4024
 1170TIP3    H125069   1.317   1.926   1.432 -0.5297  0.3378 -0.6206
 1170TIP3    H225070   1.315   2.048   1.343 -0.4711  0.3432 -0.6145
 1171TIP3   OH225071   5.034   0.781   7.852 -0.2920 -0.4162 -0.9147
 1171TIP3    H125072   5.095   0.767   7.924 -1.2584  1.3382  0.3271
 1171TIP3    H225073   5.081   0.838   7.791 -0.5104  0.6289 -0.1395
 1172TIP3   OH225074   3.501   3.188   2.063 -0.4307 -0.7706 -0.6649
 1172TIP3    H125075   3.456   3.223   2.140 -2.6222 -1.6362 -1.4890
 1172TIP3    H225076   3.562   3.123   2.099 -1.0748 -0.8185  0.3957
 1173TIP3   OH225077   4.968   0.668   0.385 -0.3319 -0.1041 -0.7306
 1173TIP3    H125078   4.974   0.645   0.478  0.6419 -0.2461 -0.8125
 1173TIP3    H225079   4.917   0.597   0.347 -1.9906  0.6917 -0.0826
 1174TIP3   OH225080   0.878   5.356   0.040  0.8024  0.4538  0.2227
 1174TIP3    H125081   0.816   5.403   0.096  0.5534  0.6949 -0.2478
 1174TIP3    H225082   0.827   5.285   0.001  0.3360  1.6921 -1.5305
 1175TIP3   OH225083   1.078   2.865   1.345 -0.0259 -0.2689 -0.3234
 1175TIP3    H125084   1.139   2.936   1.368  1.1759 -1.0338 -1.0512
 1175TIP3    H225085   1.017   2.862   1.419  0.9989  0.3218  0.5902
 1176TIP3   OH225086   5.039   4.519   7.161  0.3340  0.5062 -0.0404
 1176TIP3    H125087   4.946   4.521   7.185  0.9352  0.3789  2.5233
 1176TIP3    H225088   5.085   4.542   7.241  2.5076  2.2862 -1.6792
 1177TIP3   OH225089   2.232   1.389   7.078 -0.2118 -0.6377  0.0774
 1177TIP3    H125090   2.285   1.355   7.151 -1.2418 -2.1623  0.1612
 1177TIP3    H225091   2.261   1.339   7.002  0.8988  0.9941 -0.6263
 1178TIP3   OH225092   5.953   6.605   7.559  0.4377 -0.7288  0.2957
 1178TIP3    H125093   5.971   6.696   7.579  0.8871 -1.1122  1.7171
 1178TIP3    H225094   5.859   6.595   7.573  0.2457 -0.3122 -0.6341
 1179TIP3   OH225095   5.923   5.960   8.159  0.7076  0.0328  0.2511
 1179TIP3    H125096   6.018   5.947   8.149  0.6883  0.4751 -0.6267
 1179TIP3    H225097   5.885   5.874   8.140  0.9463 -0.2145  0.8786
 1180TIP3   OH225098   0.166   4.472   8.439  0.1325  0.5530  0.3483
 1180TIP3    H125099   0.079   4.434   8.426  0.5693 -0.5876  0.6237
 1180TIP3    H225100   0.190   4.506   8.353 -0.5901  0.8998  0.2738
 1181TIP3   OH225101   3.295   6.242   6.752 -0.3427 -0.1670  0.2083
 1181TIP3    H125102   3.239   6.275   6.822 -0.3457 -0.8210  0.5281
 1181TIP3    H225103   3.287   6.147   6.758  0.1339 -0.2470 -0.2912
 1182TIP3   OH225104   6.190   3.683   0.673 -0.2321  0.2966 -0.1705
 1182TIP3    H125105   6.207   3.693   0.767 -1.1219  0.8008 -0.0515
 1182TIP3    H225106   6.095   3.688   0.665 -0.1733  0.1520 -1.0903
 1183TIP3   OH225107   3.981   3.328   7.055  0.5240  0.0659  0.0365
 1183TIP3    H125108   3.909   3.378   7.093  1.3839 -0.4226  2.5382
 1183TIP3    H225109   3.987   3.358   6.965 -1.8092  1.2033  0.1995
 1184TIP3   OH225110   5.808   2.622   0.224  0.3951  0.2017  0.0135
 1184TIP3    H125111   5.721   2.617   0.263  0.7482  1.0431  0.9400
 1184TIP3    H225112   5.849   2.697   0.266  2.2558 -1.2736  1.0061
 1185TIP3   OH225113   6.390   2.328   1.279  0.3997  0.0804 -0.0128
 1185TIP3    H125114   6.314   2.380   1.306 -0.5495 -1.0704 -0.3972
 1185TIP3    H225115   6.361   2.282   1.200  1.0311 -1.3984  0.5721
 1186TIP3   OH225116   3.593   2.105   7.242  0.0371 -0.8114  0.0266
 1186TIP3    H125117   3.674   2.083   7.289  0.0186  0.7975  0.8952
 1186TIP3    H225118   3.622   2.132   7.155  0.3458 -1.0670  0.0475
 1187TIP3   OH225119   2.932   0.597   6.217 -0.1038 -0.8689  0.1717
 1187TIP3    H125120   3.016   0.618   6.256 -0.8828 -0.7885  1.9160
 1187TIP3    H225121   2.911   0.510   6.250 -0.2205 -1.3478 -1.1203
 1188TIP3   OH225122   4.898   4.031   7.021  0.2644 -1.1077 -0.1598
 1188TIP3    H125123   4.887   4.077   6.938  1.8313  0.3033  0.3578
 1188TIP3    H225124   4.965   3.965   7.003  0.4171 -0.9706 -0.1042
 1189TIP3   OH225125   6.494   2.297   5.926 -0.5328 -0.0118  0.0222
 1189TIP3    H125126   6.539   2.226   5.973  0.3658  1.0818  0.8636
 1189TIP3    H225127   6.424   2.253   5.878  1.0295 -1.6991 -0.8357
 1190TIP3   OH225128   5.226   1.178   8.827 -0.5038  0.4288  0.3549
 1190TIP3    H125129   5.286   1.107   8.850  2.5793  1.1245 -4.1878
 1190TIP3    H225130   5.264   1.256   8.868 -1.6824  0.1568  2.0978
 1191TIP3   OH225131   4.734   1.394   8.440  0.8021 -0.1494 -0.1783
 1191TIP3    H125132   4.688   1.461   8.388 -1.0403  0.0629  1.6189
 1191TIP3    H225133   4.746   1.434   8.526 -2.8320 -2.9044  1.8787
 1192TIP3   OH225134   5.281   4.087   0.473  0.0836 -0.0708 -0.1191
 1192TIP3    H125135   5.258   4.078   0.565 -3.4605 -0.1924 -0.8837
 1192TIP3    H225136   5.228   4.021   0.428  0.5423  1.0209 -2.3982
 1193TIP3   OH225137   0.667   3.911   0.676 -0.5599 -0.1100  0.3916
 1193TIP3    H125138   0.739   3.947   0.727 -1.0510  1.5067 -0.0137
 1193TIP3    H225139   0.630   3.843   0.733  0.8201 -0.4719  0.8914
 1194TIP3   OH225140   2.967   5.120   1.135 -0.0724 -0.7701 -0.0978
 1194TIP3    H125141   3.052   5.089   1.166 -0.2575 -0.6528  0.5349
 1194TIP3    H225142   2.977   5.215   1.128 -0.3233 -0.6931  0.5315
 1195TIP3   OH225143   4.626   6.764   8.714  0.2328 -0.0512  0.8385
 1195TIP3    H125144   4.717   6.741   8.691 -0.1374 -0.7494  0.0125
 1195TIP3    H225145   4.583   6.679   8.726 -0.0937  0.2845  2.1626
 1196TIP3   OH225146   4.939   6.292   7.494  0.0917 -0.8007  0.4069
 1196TIP3    H125147   4.990   6.350   7.550  0.1261  0.0097 -0.4515
 1196TIP3    H225148   4.847   6.313   7.515  0.0909  0.4006 -0.7277
 1197TIP3   OH225149   4.264   6.126   6.429  0.1364  0.3448 -0.3373
 1197TIP3    H125150   4.305   6.167   6.352 -0.3642 -1.1438 -1.4310
 1197TIP3    H225151   4.175   6.106   6.401 -0.5444  1.1093  1.1483
 1198TIP3   OH225152   2.533   4.834   0.213 -0.3290  0.8791  0.2050
 1198TIP3    H125153   2.543   4.929   0.209 -0.7371  0.9108 -0.1969
 1198TIP3    H225154   2.590   4.800   0.144  0.4024  0.7840  0.8555
 1199TIP3   OH225155   3.211   4.955   0.749 -0.0144 -0.4167 -0.4188
 1199TIP3    H125156   3.294   4.955   0.702  0.3038 -1.2726  0.1331
 1199TIP3    H225157   3.227   5.010   0.825 -0.5980  1.1615 -1.3895
 1200TIP3   OH225158   4.655   2.288   8.053 -0.3864 -0.1281 -0.3593
 1200TIP3    H125159   4.627   2.347   8.124 -0.9621 -0.2822 -0.4579
 1200TIP3    H225160   4.592   2.216   8.055 -0.0012 -0.4752 -0.5934
 1201TIP3   OH225161   3.314   4.362   6.572  0.3843 -0.3003  0.1472
 1201TIP3    H125162   3.316   4.451   6.608 -1.6630  0.6779 -1.9551
 1201TIP3    H225163   3.225   4.331   6.590 -0.1509 -0.4215 -2.4497
 1202TIP3   OH225164   2.363   6.078   0.544 -0.3022  0.0365 -0.0104
 1202TIP3    H125165   2.286   6.119   0.504 -1.8506 -3.5359 -1.0296
 1202TIP3    H225166   2.420   6.056   0.470  0.0266 -0.5151  0.3958
 1203TIP3   OH225167   3.227   3.987   8.535 -0.1686 -0.2893  0.2132
 1203TIP3    H125168   3.277   3.906   8.543 -0.7083 -0.8350 -1.6554
 1203TIP3    H225169   3.293   4.056   8.533  0.6597 -1.0467 -2.9942
 1204TIP3   OH225170   6.098   1.611   1.350  0.1485  0.0585 -0.0546
 1204TIP3    H125171   6.149   1.580   1.275 -0.0750  0.2414 -0.2816
 1204TIP3    H225172   6.145   1.576   1.426 -0.5841 -1.5539 -0.3216
 1205TIP3   OH225173   0.391   2.029   7.998  0.5141  0.2184 -0.0740
 1205TIP3    H125174   0.389   1.934   7.987 -0.2703  0.2887 -0.5631
 1205TIP3    H225175   0.391   2.042   8.093 -0.2298 -0.2578 -0.0077
 1206TIP3   OH225176   3.167   0.125   0.405  0.2846  0.6205 -0.2543
 1206TIP3    H125177   3.185   0.207   0.360  2.8865  0.7017  0.7400
 1206TIP3    H225178   3.218   0.059   0.358 -0.4754 -0.1167 -0.0698
 1207TIP3   OH225179   3.794   3.992   0.827 -0.3522 -0.3262 -0.1207
 1207TIP3    H125180   3.791   4.020   0.919  0.3599  2.0708 -0.7403
 1207TIP3    H225181   3.887   3.992   0.805 -0.5972  2.4227 -1.6501
 1208TIP3   OH225182   3.834   1.879   1.073  0.0022 -0.2601  0.4950
 1208TIP3    H125183   3.759   1.917   1.028  0.2716  0.1905  0.4261
 1208TIP3    H225184   3.910   1.906   1.021  0.1425 -1.5367 -0.0041
 1209TIP3   OH225185   1.568   3.628   7.676  0.8585 -0.0132  0.2972
 1209TIP3    H125186   1.588   3.667   7.590 -1.8930 -1.0844 -0.9560
 1209TIP3    H225187   1.472   3.625   7.679  0.9111 -1.8592  2.5725
 1210TIP3   OH225188   0.254   5.511   8.585  0.3695 -0.2170 -0.0747
 1210TIP3    H125189   0.243   5.470   8.499 -0.3340  0.8787 -0.5267
 1210TIP3    H225190   0.185   5.577   8.589  0.7957  0.1825  1.0843
 1211TIP3   OH225191   1.295   4.331   8.417  0.5698 -0.0331 -0.2023
 1211TIP3    H125192   1.380   4.372   8.401  1.2679 -0.7071  1.5158
 1211TIP3    H225193   1.253   4.387   8.483  0.8890 -1.1861  1.0270
 1212TIP3   OH225194   4.892   1.874   1.240  0.1961 -0.0771  0.1289
 1212TIP3    H125195   4.886   1.788   1.199 -0.6723 -0.0902  0.2621
 1212TIP3    H225196   4.967   1.916   1.198 -0.1811 -0.3957 -0.8885
 1213TIP3   OH225197   2.344   2.101   1.903 -0.2941 -0.2267  0.2139
 1213TIP3    H125198   2.252   2.101   1.931 -0.5983 -2.2320 -0.6390
 1213TIP3    H225199   2.368   2.009   1.899  1.7875  0.2584  0.4160
 1214TIP3   OH225200   3.373   3.494   6.239 -0.1998  0.1519  0.8494
 1214TIP3    H125201   3.463   3.463   6.231 -0.2731  0.1956 -0.1870
 1214TIP3    H225202   3.322   3.433   6.186 -0.5668  1.0794  0.1194
 1215TIP3   OH225203   4.916   0.786   0.119  0.4476  0.3270 -0.2900
 1215TIP3    H125204   4.846   0.730   0.085 -0.8218  2.1176 -0.7606
 1215TIP3    H225205   4.915   0.771   0.214  0.4902 -0.8147 -0.4601
 1216TIP3   OH225206   4.534   0.764   0.498  0.2013 -0.0686 -0.1754
 1216TIP3    H125207   4.540   0.674   0.466  1.3876 -0.6876  1.6420
 1216TIP3    H225208   4.508   0.755   0.590 -2.7434  1.6065 -0.7129
 1217TIP3   OH225209   5.779   6.355   8.295  0.3150 -0.4812  0.3595
 1217TIP3    H125210   5.684   6.356   8.308  0.0421 -2.4530 -1.0444
 1217TIP3    H225211   5.796   6.425   8.233 -0.1220  0.2679  1.0645
 1218TIP3   OH225212   2.531   5.083   0.438 -0.0968  0.1309  0.3674
 1218TIP3    H125213   2.448   5.037   0.451  0.9052 -1.3808  1.9402
 1218TIP3    H225214   2.567   5.092   0.526  1.5449  0.4492 -0.3044
 1219TIP3   OH225215   6.014   5.487   8.415  0.2484  0.4632  0.7787
 1219TIP3    H125216   6.072   5.410   8.415 -0.1390  0.0832 -1.6524
 1219TIP3    H225217   5.926   5.451   8.425  0.2111  0.8222  1.8818
 1220TIP3   OH225218   6.075   1.398   7.834  0.2344 -0.2575  0.0219
 1220TIP3    H125219   6.141   1.349   7.882 -1.8178 -2.4967  0.7419
 1220TIP3    H225220   6.091   1.377   7.742  1.7267  0.8872 -0.0198
 1221TIP3   OH225221   4.803   2.590   0.549  0.1270 -0.0216 -0.3592
 1221TIP3    H125222   4.725   2.593   0.603 -1.2826  0.0603 -2.2863
 1221TIP3    H225223   4.818   2.497   0.533  0.4828 -0.0404  0.0538
 1222TIP3   OH225224   5.862   4.005   6.506 -0.4660  0.3946 -0.5513
 1222TIP3    H125225   5.855   3.929   6.448 -0.5622 -0.0201  0.0005
 1222TIP3    H225226   5.876   4.079   6.447 -0.3133 -0.0591 -1.0893
 1223TIP3   OH225227   3.855   4.513   6.595  0.2267  0.1054  0.5220
 1223TIP3    H125228   3.766   4.492   6.625 -0.0612  2.4141  1.5206
 1223TIP3    H225229   3.900   4.541   6.675  1.2229  0.9017 -0.2948
 1224TIP3   OH225230   2.724   5.853   6.619 -0.3930  0.0935 -0.1210
 1224TIP3    H125231   2.762   5.782   6.671  0.2702  0.5089 -0.0256
 1224TIP3    H225232   2.760   5.933   6.658 -1.2966  0.4963 -0.0955
 1225TIP3   OH225233   2.484   4.823   8.491  0.2353 -0.1851  0.0684
 1225TIP3    H125234   2.463   4.748   8.435  1.6410 -1.0086  0.5773
 1225TIP3    H225235   2.444   4.802   8.575 -1.0858  0.6179 -0.3259
 1226TIP3   OH225236   3.994   3.634   8.497 -0.2655 -0.0428 -0.5508
 1226TIP3    H125237   3.920   3.638   8.436  0.3278 -2.8316 -1.5984
 1226TIP3    H225238   3.980   3.553   8.546  0.4995  0.9725  1.4397
 1227TIP3   OH225239   2.711   0.997   6.645  0.3019 -0.0358  0.5579
 1227TIP3    H125240   2.782   1.045   6.600  0.8054 -1.7795 -0.6088
 1227TIP3    H225241   2.638   1.059   6.646  0.5905  0.4474 -1.8487
 1228TIP3   OH225242   3.652   0.449   8.426 -0.3120 -0.1729  0.1526
 1228TIP3    H125243   3.684   0.488   8.507 -0.5595  0.1278  0.1065
 1228TIP3    H225244   3.724   0.460   8.364 -0.3258  0.0847  0.1805
 1229TIP3   OH225245   1.731   5.248   6.338  0.2031  0.1338  0.9094
 1229TIP3    H125246   1.642   5.220   6.358  0.0094  0.7634  0.9532
 1229TIP3    H225247   1.723   5.300   6.259  0.5342  0.1771  0.9021
 1230TIP3   OH225248   0.117   3.929   8.162 -0.4408 -0.5189 -0.1128
 1230TIP3    H125249   0.196   3.971   8.129  0.1268 -1.2292  0.3238
 1230TIP3    H225250   0.050   3.949   8.096  0.1656 -0.1543 -0.6277
 1231TIP3   OH225251   2.591   4.794   6.069  0.1994 -0.2165 -0.2551
 1231TIP3    H125252   2.654   4.866   6.064  1.5979 -1.1185  2.5126
 1231TIP3    H225253   2.598   4.750   5.984  0.8029  1.6624 -1.2333
 1232TIP3   OH225254   2.116   3.549   7.955 -0.2105  0.3421 -0.5032
 1232TIP3    H125255   2.112   3.553   8.051 -0.6970  0.1579 -0.5117
 1232TIP3    H225256   2.094   3.458   7.934 -1.2400  0.6516 -0.8339
 1233TIP3   OH225257   2.755   6.769   5.741  0.0625  0.4318 -0.2859
 1233TIP3    H125258   2.830   6.718   5.771 -0.9996 -0.6307  0.6653
 1233TIP3    H225259   2.728   6.727   5.660 -0.2733  0.0202  0.0366
 1234TIP3   OH225260   1.859   5.586   6.557 -0.2756 -0.5565 -0.9037
 1234TIP3    H125261   1.873   5.610   6.649  0.7429  0.4902 -1.3069
 1234TIP3    H225262   1.930   5.629   6.510  1.5564 -4.0634 -1.7626
 1235TIP3   OH225263   2.317   3.502   1.643  0.0220 -0.1764  0.1470
 1235TIP3    H125264   2.269   3.443   1.701 -0.2759 -0.0817  0.0008
 1235TIP3    H225265   2.350   3.446   1.573 -2.5251  0.1759 -1.4701
 1236TIP3   OH225266   4.807   1.566   0.282 -0.1944  0.1862 -0.0917
 1236TIP3    H125267   4.890   1.542   0.241  0.4546  0.3178  1.1084
 1236TIP3    H225268   4.828   1.577   0.374 -1.7309 -0.6481  0.3914
 1237TIP3   OH225269   6.663   2.182   0.049 -0.4216 -0.0468  0.0007
 1237TIP3    H125270   6.715   2.201   0.126 -0.6538 -1.0782  0.4283
 1237TIP3    H225271   6.726   2.153  -0.017 -0.0740  2.0035 -0.6339
 1238TIP3   OH225272   3.973   1.983   7.755 -0.2416  0.2862  0.4452
 1238TIP3    H125273   4.058   1.961   7.792  0.3023 -1.4418 -1.6311
 1238TIP3    H225274   3.991   2.005   7.664 -2.0893 -1.2320 -0.3651
 1239TIP3   OH225275   4.767   0.657   6.563 -0.3179  0.3246 -0.1393
 1239TIP3    H125276   4.787   0.716   6.490  1.8986  0.1945  0.3015
 1239TIP3    H225277   4.750   0.573   6.521 -0.6202  0.6072 -0.5931
 1240TIP3   OH225278   3.340   6.312   7.927  0.6840  0.0010  0.0794
 1240TIP3    H125279   3.378   6.225   7.912  0.3743  0.0847 -1.3546
 1240TIP3    H225280   3.311   6.341   7.840  0.6146  1.4667  0.5622
 1241TIP3   OH225281   1.761   2.895   7.206 -0.3516  0.5376  0.1180
 1241TIP3    H125282   1.669   2.883   7.182 -0.6039  0.0721  1.2919
 1241TIP3    H225283   1.789   2.810   7.240  0.0866  1.0875  1.1737
 1242TIP3   OH225284   2.993   2.809   6.864  0.0506 -0.4101 -0.1708
 1242TIP3    H125285   3.014   2.718   6.845  0.5783  0.1837 -2.8293
 1242TIP3    H225286   2.906   2.822   6.826  0.5364  0.5192 -0.9879
 1243TIP3   OH225287   0.698   4.660   6.134 -0.7439 -0.2600 -0.1441
 1243TIP3    H125288   0.639   4.734   6.118 -1.0743 -0.4803  0.0278
 1243TIP3    H225289   0.771   4.674   6.074 -1.2905 -0.3414 -0.8438
 1244TIP3   OH225290   3.372   2.825   8.562  0.2539 -0.3385 -0.4028
 1244TIP3    H125291   3.300   2.830   8.624  1.0448  0.2276  0.5068
 1244TIP3    H225292   3.336   2.857   8.480 -0.6427 -0.4879 -0.0741
 1245TIP3   OH225293   1.156   0.538   1.354 -0.8667 -0.4058  0.3818
 1245TIP3    H125294   1.232   0.550   1.411 -0.9992  0.4293  0.4079
 1245TIP3    H225295   1.113   0.460   1.388  0.2948 -1.2395 -0.0099
 1246TIP3   OH225296   1.085   3.277   0.195  0.0313 -0.0993 -0.0216
 1246TIP3    H125297   1.076   3.300   0.102  0.5640  1.0756  0.1876
 1246TIP3    H225298   1.016   3.327   0.239 -0.5843 -1.1001  0.1590
 1247TIP3   OH225299   2.938   2.193   0.647  0.0234  0.1486 -0.2173
 1247TIP3    H125300   3.017   2.213   0.598 -0.2241 -0.4968 -0.8938
 1247TIP3    H225301   2.965   2.127   0.711  0.0743  0.0945 -0.2952
 1248TIP3   OH225302   6.256   4.619   7.688 -0.0036  0.2241  0.4962
 1248TIP3    H125303   6.287   4.707   7.667  0.6492 -0.1639 -0.2060
 1248TIP3    H225304   6.249   4.575   7.603  2.3311 -1.2595  0.9944
 1249TIP3   OH225305   2.423   2.258   7.685 -0.4807  0.0596 -0.5756
 1249TIP3    H125306   2.429   2.174   7.731 -1.0832 -0.8912 -2.1635
 1249TIP3    H225307   2.487   2.314   7.730  0.0386 -1.2823  0.4262
 1250TIP3   OH225308   1.820   2.140   6.835  0.1096 -0.7364  0.3664
 1250TIP3    H125309   1.894   2.083   6.814  0.8921  0.7801 -1.2832
 1250TIP3    H225310   1.745   2.081   6.842  1.1054 -2.0913  0.0028
 1251TIP3   OH225311   4.317   2.609   8.120 -0.3381  0.5125  0.1522
 1251TIP3    H125312   4.392   2.647   8.074 -0.9348  1.0735 -0.3813
 1251TIP3    H225313   4.339   2.517   8.130 -0.3682  0.2910 -1.6327
 1252TIP3   OH225314   6.553   0.438   8.154 -0.2561 -0.7223 -0.6364
 1252TIP3    H125315   6.648   0.433   8.163 -0.2335  1.3639  0.9169
 1252TIP3    H225316   6.531   0.528   8.176 -2.6361 -1.1901 -0.8195
 1253TIP3   OH225317   4.298   4.586   1.856  0.3323 -0.1123  0.0278
 1253TIP3    H125318   4.393   4.597   1.848  0.4710 -0.3755  1.1715
 1253TIP3    H225319   4.287   4.512   1.915 -0.6040 -0.6451 -0.7831
 1254TIP3   OH225320   6.684   5.116   6.844 -0.4341  0.3918 -0.2349
 1254TIP3    H125321   6.679   5.105   6.749 -0.4564  1.0194 -0.3100
 1254TIP3    H225322   6.708   5.029   6.876  0.2927  0.3475 -0.8679
 1255TIP3   OH225323   6.229   6.777   8.025  0.1041  0.3988  0.5765
 1255TIP3    H125324   6.206   6.857   7.978 -0.7300 -0.0669  0.1772
 1255TIP3    H225325   6.187   6.707   7.975 -0.2188 -0.1733  1.6281
 1256TIP3   OH225326   5.540   0.649   8.102  0.1051  0.1901 -0.1326
 1256TIP3    H125327   5.455   0.608   8.118  0.5062 -0.5376  0.1869
 1256TIP3    H225328   5.519   0.732   8.059 -0.7518 -0.1205 -0.3330
 1257TIP3   OH225329   6.620   4.976   0.699 -0.0484 -0.0404 -0.0668
 1257TIP3    H125330   6.590   5.049   0.753  0.6132  0.7883 -0.7751
 1257TIP3    H225331   6.551   4.964   0.634  0.9283  1.6452 -1.4932
 1258TIP3   OH225332   1.607   5.976   6.700  0.0666 -0.4759  0.3279
 1258TIP3    H125333   1.696   5.946   6.683 -0.2179 -0.3766 -1.5546
 1258TIP3    H225334   1.588   6.038   6.630 -1.8782 -1.3475 -0.0062
 1259TIP3   OH225335   1.296   3.792   8.536  0.4304  0.0955 -0.3446
 1259TIP3    H125336   1.329   3.838   8.613  2.1438  0.9661 -1.5399
 1259TIP3    H225337   1.342   3.708   8.538 -1.3897 -0.9360  0.8808
 1260TIP3   OH225338   3.498   3.185   6.026  0.2228 -0.8097  0.2014
 1260TIP3    H125339   3.562   3.141   6.081  0.1650 -0.2145  0.7520
 1260TIP3    H225340   3.482   3.124   5.954 -0.2221 -1.8915  1.2041
 1261TIP3   OH225341   1.309   4.608   6.905 -0.1961  0.5024  0.8899
 1261TIP3    H125342   1.315   4.562   6.989 -1.9353 -1.0667  0.2081
 1261TIP3    H225343   1.231   4.573   6.863  0.8009  0.9683 -1.5686
 1262TIP3   OH225344   1.875   3.016   6.885  0.5999  0.4958  0.3941
 1262TIP3    H125345   1.958   3.024   6.837 -0.3252  2.6561 -0.9914
 1262TIP3    H225346   1.888   3.067   6.964  0.9045 -0.0087  0.6763
 1263TIP3   OH225347   6.101   3.114   7.269 -0.5762  0.4018  0.1956
 1263TIP3    H125348   6.169   3.070   7.320  0.6060  0.6631 -1.1054
 1263TIP3    H225349   6.027   3.054   7.271  0.3890 -0.8322 -0.0688
 1264TIP3   OH225350   1.616   4.296   6.722  0.3338 -0.4700 -0.1060
 1264TIP3    H125351   1.667   4.366   6.764  0.3445 -0.3850 -0.2607
 1264TIP3    H225352   1.527   4.331   6.717  0.2896 -0.5624  0.0345
 1265TIP3   OH225353   0.422   0.963   1.001 -0.0403  0.0123  0.4020
 1265TIP3    H125354   0.394   0.976   1.092 -0.6413 -0.3773  0.2761
 1265TIP3    H225355   0.514   0.989   1.001  1.0783 -3.3289  1.9810
 1266TIP3   OH225356   4.103   2.997   0.757  0.1701  0.4051  0.5385
 1266TIP3    H125357   4.088   3.061   0.687  0.0780  0.8026  0.9152
 1266TIP3    H225358   4.064   3.038   0.835 -0.1103 -0.2188  0.7306
 1267TIP3   OH225359   3.499   3.971   0.997 -0.7183 -0.3078  0.4121
 1267TIP3    H125360   3.527   3.903   1.059  1.2154 -0.9793 -1.1132
 1267TIP3    H225361   3.409   3.946   0.974 -0.2737 -2.0275  0.3639
 1268TIP3   OH225362   5.581   4.325   7.949  0.5757 -0.1302  0.1504
 1268TIP3    H125363   5.582   4.347   8.042  0.7679 -0.9844  0.3617
 1268TIP3    H225364   5.643   4.386   7.909 -0.7347  1.3707  0.2914
 1269TIP3   OH225365   0.113   2.972   8.689  0.4614 -0.1177  0.0110
 1269TIP3    H125366   0.161   3.000   8.611  1.1418  0.2352  0.5524
 1269TIP3    H225367   0.179   2.934   8.746  0.0749  0.2227  0.6964
 1270TIP3   OH225368   2.856   4.969   0.134 -0.3704  0.4599 -0.7556
 1270TIP3    H125369   2.789   4.936   0.074  1.8440 -2.4691 -1.8946
 1270TIP3    H225370   2.938   4.956   0.087  1.2366  1.0869  1.6740
 1271TIP3   OH225371   6.357   3.303   7.659  0.5628 -0.5451 -0.4741
 1271TIP3    H125372   6.359   3.314   7.564 -0.4688  1.7308 -0.2935
 1271TIP3    H225373   6.428   3.359   7.691 -1.3702  1.6295  0.2426
 1272TIP3   OH225374   5.413   3.332   6.427  0.3021  0.0498  0.0254
 1272TIP3    H125375   5.473   3.387   6.377  0.7002  1.1334  1.5891
 1272TIP3    H225376   5.374   3.274   6.363  0.2199  1.8553 -1.6607
 1273TIP3   OH225377   0.776   0.357   1.127 -0.2282  0.2420  0.0057
 1273TIP3    H125378   0.867   0.355   1.156 -0.3673 -1.0912  0.4258
 1273TIP3    H225379   0.771   0.432   1.067  1.2885 -0.0687 -0.5381
 1274TIP3   OH225380   4.153   1.609   0.674 -0.2248  0.8148  0.5433
 1274TIP3    H125381   4.144   1.642   0.584  1.6287  0.4366  0.1703
 1274TIP3    H225382   4.186   1.684   0.723 -2.0051  1.2615  1.1435
 1275TIP3   OH225383   1.541   3.189   1.628 -0.1217  0.3374 -0.2015
 1275TIP3    H125384   1.595   3.208   1.704  0.3940 -1.0727 -0.1810
 1275TIP3    H225385   1.516   3.097   1.639 -0.6096  0.3081 -1.3802
 1276TIP3   OH225386   6.540   4.670   6.240 -0.1848  0.6474 -0.4088
 1276TIP3    H125387   6.623   4.626   6.258 -0.6086  0.6274  1.7023
 1276TIP3    H225388   6.524   4.726   6.316 -1.3039  1.9402 -1.5223
 1277TIP3   OH225389   4.195   1.604   1.879  1.0544 -0.0004  0.2271
 1277TIP3    H125390   4.261   1.551   1.925 -0.2160 -0.6494  1.3797
 1277TIP3    H225391   4.121   1.607   1.940 -0.4340 -0.2802 -1.4987
 1278TIP3   OH225392   6.572   2.876   8.686  0.7029  0.0639  0.0440
 1278TIP3    H125393   6.511   2.862   8.613 -0.3985  1.3158  0.7006
 1278TIP3    H225394   6.564   2.798   8.740  0.2320 -0.0979 -0.2597
 1279TIP3   OH225395   0.910   3.166   1.061 -0.4355 -0.1968 -0.5264
 1279TIP3    H125396   0.984   3.181   1.119 -0.6369 -0.0609 -0.3080
 1279TIP3    H225397   0.839   3.138   1.118 -0.9813  1.0667 -0.5698
 1280TIP3   OH225398   1.039   5.182   6.252 -0.1522  0.1026 -0.6198
 1280TIP3    H125399   1.112   5.234   6.285 -0.2195 -0.1313 -0.0991
 1280TIP3    H225400   1.076   5.133   6.178  0.9979 -2.1639  1.3555
 1281TIP3   OH225401   0.457   3.264   1.451  0.5232  0.4356  0.2564
 1281TIP3    H125402   0.459   3.176   1.488  0.9391  1.2182  2.2412
 1281TIP3    H225403   0.366   3.278   1.427 -0.0318  0.2756  2.1212
 1282TIP3   OH225404   2.616   1.501   7.200 -0.3508  0.0620  0.3070
 1282TIP3    H125405   2.653   1.490   7.112 -0.8396  2.0070 -0.2059
 1282TIP3    H225406   2.553   1.572   7.189 -3.3257 -2.2374  1.4192
 1283TIP3   OH225407   0.601   0.769   0.135  0.0289 -0.5270 -0.6969
 1283TIP3    H125408   0.517   0.758   0.090 -1.2206 -0.4408  1.5225
 1283TIP3    H225409   0.665   0.778   0.063 -1.9735  0.6409 -2.4415
 1284TIP3   OH225410   5.605   2.151   6.773 -0.4254  0.4312 -0.9046
 1284TIP3    H125411   5.670   2.119   6.835 -0.0307  2.2128 -0.3359
 1284TIP3    H225412   5.578   2.074   6.723  1.0832 -0.5859 -0.1932
 1285TIP3   OH225413   2.243   3.427   7.314 -0.1814 -0.1490 -0.4856
 1285TIP3    H125414   2.293   3.480   7.377 -0.9135  0.5422 -0.4679
 1285TIP3    H225415   2.153   3.459   7.322 -0.8593 -2.1350  0.2955
 1286TIP3   OH225416   2.886   5.044   6.513  0.7120 -0.5984 -0.0692
 1286TIP3    H125417   2.899   5.013   6.423 -0.3011  1.6097 -1.0664
 1286TIP3    H225418   2.794   5.023   6.532  0.4300  0.3969 -0.2303
 1287TIP3   OH225419   4.043   0.943   7.586 -0.2528 -0.2958  0.2330
 1287TIP3    H125420   3.992   0.961   7.508  0.7552  0.3567 -0.2854
 1287TIP3    H225421   4.077   1.028   7.614 -1.6721 -0.2849  2.1727
 1288TIP3   OH225422   6.210   3.584   7.087  0.0777  0.4552 -0.3320
 1288TIP3    H125423   6.207   3.513   7.152  0.9386  0.0001 -0.7623
 1288TIP3    H225424   6.179   3.543   7.006  2.6065 -0.1008 -1.1207
 1289TIP3   OH225425   1.517   6.494   0.736  0.2463  0.6679  0.2013
 1289TIP3    H125426   1.426   6.522   0.723 -0.0075  0.2107  0.9488
 1289TIP3    H225427   1.538   6.525   0.825 -0.3910 -2.3739  1.5190
 1290TIP3   OH225428   6.695   3.227   6.991 -0.1674  0.0476 -0.4853
 1290TIP3    H125429   6.768   3.224   7.052 -0.9751  0.6178  0.5437
 1290TIP3    H225430   6.732   3.263   6.910  1.0373 -1.2465 -0.5415
 1291TIP3   OH225431   5.615   3.058   8.105 -0.3753  0.6227  0.0133
 1291TIP3    H125432   5.685   3.043   8.042 -0.5845 -0.6129  0.0630
 1291TIP3    H225433   5.607   3.154   8.109  0.7515  0.7600 -0.5918
 1292TIP3   OH225434   1.145   2.247   1.857 -0.7605 -0.3159 -0.3270
 1292TIP3    H125435   1.140   2.191   1.934 -2.8964  1.3541  0.8669
 1292TIP3    H225436   1.139   2.187   1.783  0.1109 -1.8616  0.8015
 1293TIP3   OH225437   6.115   4.986   8.358  0.0346  0.1727 -0.1426
 1293TIP3    H125438   6.046   4.922   8.377 -0.5850  1.1730  1.1676
 1293TIP3    H225439   6.089   5.025   8.275 -1.1330  0.6746  0.4247
 1294TIP3   OH225440   2.844   6.236   8.592 -0.4611  0.1023 -0.6784
 1294TIP3    H125441   2.868   6.300   8.525  0.3717 -0.2420 -0.7221
 1294TIP3    H225442   2.917   6.174   8.593  0.7932  1.4262  2.2162
 1295TIP3   OH225443   2.906   3.744   7.150 -0.5527  0.3743  0.0675
 1295TIP3    H125444   2.937   3.832   7.171 -0.5685 -0.0600  2.0904
 1295TIP3    H225445   2.823   3.758   7.104 -0.9525  1.4133  1.0540
 1296TIP3   OH225446   5.747   0.752   2.067 -0.1337 -0.0525  0.0758
 1296TIP3    H125447   5.681   0.690   2.037 -0.7012  1.3903 -1.8444
 1296TIP3    H225448   5.704   0.837   2.065  1.8671  1.0409 -1.8383
 1297TIP3   OH225449   1.173   3.184   8.106 -0.2764  0.6221  0.4268
 1297TIP3    H125450   1.245   3.131   8.073 -0.8588  0.0053  0.1266
 1297TIP3    H225451   1.145   3.140   8.186 -0.0309  1.1160  0.7901
 1298TIP3   OH225452   0.114   0.564   1.436 -0.1504  0.0547 -0.7135
 1298TIP3    H125453   0.018   0.560   1.440 -0.2085  1.2400  2.6498
 1298TIP3    H225454   0.143   0.490   1.489  0.9649 -1.4442 -3.2379
 1299TIP3   OH225455   4.001   1.328   8.055  0.3485  0.6961  0.4782
 1299TIP3    H125456   3.922   1.333   8.002  0.8261 -1.1297 -0.4985
 1299TIP3    H225457   3.970   1.310   8.144 -0.3447 -1.7569 -0.1909
 1300TIP3   OH225458   1.054   4.093   0.065 -0.7189 -0.2937 -0.3319
 1300TIP3    H125459   1.106   4.172   0.053 -0.3714 -0.0979  2.0348
 1300TIP3    H225460   0.967   4.116   0.034 -0.0475  0.1940 -1.9511
 1301TIP3   OH225461   2.772   6.348   1.361  0.7242  0.0869  0.4051
 1301TIP3    H125462   2.713   6.289   1.407 -0.2101  1.1341  0.5990
 1301TIP3    H225463   2.827   6.291   1.308 -0.6012 -0.9148  0.0711
 1302TIP3   OH225464   4.075   4.191   7.819  0.4874 -0.1977 -0.0203
 1302TIP3    H125465   4.080   4.096   7.813  0.1024 -0.3267  1.4464
 1302TIP3    H225466   3.985   4.212   7.793  0.4385 -0.2718  0.0898
 1303TIP3   OH225467   3.530   4.881   8.627  0.0205  0.5477  0.0665
 1303TIP3    H125468   3.620   4.878   8.659  0.6907 -0.4267 -1.7773
 1303TIP3    H225469   3.536   4.853   8.536 -2.0113  1.5714 -0.4360
 1304TIP3   OH225470   3.737   5.302   6.526  0.0785  0.1288 -0.0594
 1304TIP3    H125471   3.777   5.367   6.585  0.6197  0.3006 -0.6024
 1304TIP3    H225472   3.809   5.242   6.506 -0.1787 -0.0928 -0.3117
 1305TIP3   OH225473   2.669   0.613   6.985  0.0106 -0.3765 -0.4825
 1305TIP3    H125474   2.658   0.686   7.046 -1.3015  0.1358 -1.2953
 1305TIP3    H225475   2.632   0.537   7.031  3.5587 -1.1863  1.3832
 1306TIP3   OH225476   3.567   4.550   5.559 -0.0884 -0.5165 -0.4400
 1306TIP3    H125477   3.498   4.615   5.573  0.6104  0.2318 -0.4305
 1306TIP3    H225478   3.541   4.475   5.614 -0.8382 -0.2071 -0.3639
 1307TIP3   OH225479   3.881   0.127   1.045 -0.1482  0.1382 -0.1416
 1307TIP3    H125480   3.812   0.189   1.069  0.7449  1.0540  0.1202
 1307TIP3    H225481   3.953   0.146   1.105  2.3558  2.7793 -3.5291
 1308TIP3   OH225482   0.025   3.400   1.231  0.1876 -0.0971  0.5710
 1308TIP3    H125483   0.063   3.486   1.245  0.1968  0.2138 -1.2299
 1308TIP3    H225484  -0.043   3.393   1.299  1.3960  0.5489  1.8989
 1309TIP3   OH225485   1.587   4.267   7.391 -0.1920 -0.1032  0.1508
 1309TIP3    H125486   1.545   4.240   7.309  1.4520  2.3507 -1.6514
 1309TIP3    H225487   1.544   4.349   7.414 -1.1192 -1.1224  2.2132
 1310TIP3   OH225488   0.025   4.866   6.577  0.3635 -0.4803  0.6774
 1310TIP3    H125489  -0.026   4.946   6.562  0.8065 -0.5115 -1.3505
 1310TIP3    H225490  -0.039   4.795   6.570  0.1330 -0.3626  1.5196
 1311TIP3   OH225491   6.050   2.635   0.787  0.2407 -0.2972 -0.1269
 1311TIP3    H125492   5.955   2.633   0.789  0.1615  1.1616 -1.1372
 1311TIP3    H225493   6.074   2.723   0.815  1.2665 -0.4932 -0.3195
 1312TIP3   OH225494   1.473   6.437   6.757 -0.0173 -0.6107 -0.1848
 1312TIP3    H125495   1.466   6.433   6.852 -0.6203 -1.2869 -0.2507
 1312TIP3    H225496   1.519   6.519   6.740  1.3603 -1.1622  0.7390
 1313TIP3   OH225497   3.144   0.373   1.784 -0.0878 -0.4692  0.7473
 1313TIP3    H125498   3.055   0.391   1.754 -0.4782 -0.9486  1.5763
 1313TIP3    H225499   3.168   0.291   1.741 -0.0758 -0.3761  0.5777
 1314TIP3   OH225500   3.751   5.761   7.564  0.2046 -0.4008 -0.5385
 1314TIP3    H125501   3.657   5.777   7.572  0.1712 -0.3833 -0.9568
 1314TIP3    H225502   3.768   5.689   7.625  0.0951  0.2429  0.2721
 1315TIP3   OH225503   0.665   0.643   8.362  0.3217 -0.0865 -0.2807
 1315TIP3    H125504   0.751   0.610   8.337 -0.2959 -1.2626 -0.9557
 1315TIP3    H225505   0.627   0.574   8.416 -0.9946 -0.5237 -1.6995
 1316TIP3   OH225506   5.214   0.375   7.130  0.3256 -0.1356 -0.2170
 1316TIP3    H125507   5.135   0.427   7.143 -0.1681 -0.3517 -2.0273
 1316TIP3    H225508   5.187   0.285   7.148  0.3307 -0.1371 -0.2167
 1317TIP3   OH225509   4.648   5.775   1.786  0.3139  0.5907 -0.0766
 1317TIP3    H125510   4.573   5.752   1.731  1.8162 -0.5570 -1.7532
 1317TIP3    H225511   4.644   5.712   1.858 -0.0736  0.2322 -0.4049
 1318TIP3   OH225512   4.623   0.103   6.141  0.2720 -0.6587  0.3331
 1318TIP3    H125513   4.573   0.034   6.185 -1.0731  0.9492  1.4606
 1318TIP3    H225514   4.670   0.147   6.212 -1.8082  1.8877  0.2769
 1319TIP3   OH225515   5.035   3.156   8.324  0.0718  0.5000 -0.3547
 1319TIP3    H125516   5.047   3.221   8.255  1.2467  1.0858  0.3803
 1319TIP3    H225517   5.119   3.153   8.370  0.1036 -1.6451 -0.4592
 1320TIP3   OH225518   6.068   4.314   8.339  0.0593  0.1367 -0.2744
 1320TIP3    H125519   6.038   4.315   8.430 -1.1985  0.3309 -0.6702
 1320TIP3    H225520   6.052   4.403   8.307  1.6430  0.4200 -0.3515
 1321TIP3   OH225521   4.166   0.788   0.934 -0.3293  0.0139 -0.4052
 1321TIP3    H125522   4.137   0.702   0.906  2.5780 -0.7672 -1.3326
 1321TIP3    H225523   4.226   0.771   1.006 -1.5619  1.4907  1.0580
 1322TIP3   OH225524   1.588   6.737   6.165  0.3741  0.1679  0.2358
 1322TIP3    H125525   1.621   6.696   6.245 -1.2973  1.1293  1.4871
 1322TIP3    H225526   1.589   6.830   6.183 -1.4398  0.3235 -0.2728
 1323TIP3   OH225527   6.630   1.956   7.589  0.4473 -0.4345 -0.0198
 1323TIP3    H125528   6.690   1.999   7.650  1.8284 -0.4801 -1.3062
 1323TIP3    H225529   6.545   1.957   7.635  1.3155 -0.0165  1.6681
 1324TIP3   OH225530   4.021   1.533   1.534  0.3909 -0.7695 -0.1416
 1324TIP3    H125531   3.956   1.464   1.546  1.8079 -1.9695  0.9014
 1324TIP3    H225532   4.104   1.494   1.560  1.4314  0.9791 -0.6352
 1325TIP3   OH225533   3.557   5.218   8.119 -0.6359  0.0247 -0.5663
 1325TIP3    H125534   3.614   5.284   8.079 -0.7983  1.7174  1.7722
 1325TIP3    H225535   3.615   5.171   8.180 -0.8473 -1.0837 -1.1974
 1326TIP3   OH225536   4.605   2.885   1.487  0.3380  0.0571 -0.3267
 1326TIP3    H125537   4.617   2.971   1.525  1.6012 -0.4614  0.5114
 1326TIP3    H225538   4.657   2.886   1.407  0.4528  0.0375 -0.2526
 1327TIP3   OH225539   3.048   3.021   0.202 -0.1883 -0.4888  0.5546
 1327TIP3    H125540   3.019   2.966   0.276 -0.7940 -1.3317 -0.2823
 1327TIP3    H225541   3.010   2.979   0.125 -0.0560  0.7129 -0.1915
 1328TIP3   OH225542   1.230   2.504   0.995 -0.4334 -0.0832 -0.0210
 1328TIP3    H125543   1.244   2.409   1.003 -3.5546 -0.6086  0.6461
 1328TIP3    H225544   1.207   2.532   1.083  1.9914  1.7031  0.1289
 1329TIP3   OH225545   3.566   6.399   7.801 -0.1203 -0.0287  0.1562
 1329TIP3    H125546   3.593   6.365   7.886 -2.1215  1.1361  1.3563
 1329TIP3    H225547   3.474   6.371   7.792 -0.1372  0.3998 -1.3414
 1330TIP3   OH225548   5.508   5.307   0.795  0.5740  0.0585  0.2584
 1330TIP3    H125549   5.465   5.390   0.815  1.0057  0.6390 -1.1248
 1330TIP3    H225550   5.601   5.329   0.788  0.6069 -0.3865 -0.8964
 1331TIP3   OH225551   2.478   2.019   1.636  0.1443 -0.2016  0.4116
 1331TIP3    H125552   2.386   2.006   1.613 -0.1189 -1.0104  1.8387
 1331TIP3    H225553   2.512   1.932   1.653  0.8043  0.1978  1.2332
 1332TIP3   OH225554   2.577   4.440   0.668 -0.0968 -0.2710 -0.2909
 1332TIP3    H125555   2.598   4.442   0.574 -0.3539 -0.2531 -0.3494
 1332TIP3    H225556   2.481   4.433   0.671 -0.0340 -1.1064 -0.0324
 1333TIP3   OH225557   2.957   2.440   8.783 -0.5547  0.0510 -0.4962
 1333TIP3    H125558   2.864   2.429   8.764 -0.4418  1.3609 -1.9887
 1333TIP3    H225559   3.000   2.437   8.697  0.8490 -1.0233  0.2023
 1334TIP3   OH225560   4.043   4.646   7.069 -0.3927 -0.3245 -0.4485
 1334TIP3    H125561   4.000   4.682   7.147 -2.5717 -2.6760 -0.4115
 1334TIP3    H225562   4.083   4.565   7.099  1.5652  0.3232 -1.1732
 1335TIP3   OH225563   2.397   4.280   1.029 -0.2369 -0.2305 -0.5295
 1335TIP3    H125564   2.447   4.260   1.108 -0.1507 -1.0367 -0.7825
 1335TIP3    H225565   2.417   4.372   1.011  1.6330 -0.6702 -0.9522
 1336TIP3   OH225566   3.164   5.962   6.171 -0.3875 -0.3516 -0.1552
 1336TIP3    H125567   3.112   5.956   6.091  0.2474  1.2273 -0.7332
 1336TIP3    H225568   3.214   5.881   6.174 -0.1595 -0.2869 -1.5562
 1337TIP3   OH225569   1.004   1.314   0.995  0.2574  0.0814  0.4888
 1337TIP3    H125570   0.938   1.344   0.932  1.5114  0.2500 -0.8085
 1337TIP3    H225571   0.960   1.248   1.047 -1.0067  0.3720 -0.1742
 1338TIP3   OH225572   3.716   5.049   8.738  0.0737  0.4380 -0.1346
 1338TIP3    H125573   3.793   5.016   8.691  0.4097 -0.6977  1.1500
 1338TIP3    H225574   3.736   5.032   8.830 -0.9136  1.8738  0.3699
 1339TIP3   OH225575   6.080   4.853   7.356 -0.2344  0.1580 -0.1636
 1339TIP3    H125576   6.013   4.858   7.424 -0.8546 -0.0601 -0.7376
 1339TIP3    H225577   6.041   4.899   7.281  0.6210  0.7951 -0.2280
 1340TIP3   OH225578   1.468   4.301   2.227 -0.7583 -0.0243 -0.3060
 1340TIP3    H125579   1.465   4.386   2.270 -0.8732 -0.5205  0.6842
 1340TIP3    H225580   1.517   4.245   2.287 -0.8194 -0.6994 -0.8759
 1341TIP3   OH225581   5.475   2.235   1.719 -0.0029 -0.0722  0.2669
 1341TIP3    H125582   5.543   2.254   1.783 -0.3509 -0.4953  0.7683
 1341TIP3    H225583   5.450   2.321   1.684  1.2952  0.0297 -0.4634
 1342TIP3   OH225584   4.208   0.140   0.019  0.1843  0.5238  0.3221
 1342TIP3    H125585   4.126   0.157   0.065 -0.3267 -1.7747  0.3728
 1342TIP3    H225586   4.210   0.204  -0.052 -0.5820  2.0048  1.5827
 1343TIP3   OH225587   5.440   6.558   8.294  0.0200  0.8957  0.0434
 1343TIP3    H125588   5.374   6.589   8.233 -0.3337  1.2542  0.5928
 1343TIP3    H225589   5.444   6.463   8.279  1.1797  1.1828 -1.7177
 1344TIP3   OH225590   3.312   5.684   6.167  0.1593  0.0647  0.3570
 1344TIP3    H125591   3.291   5.658   6.077  0.6653 -1.4709  0.6415
 1344TIP3    H225592   3.256   5.629   6.222  2.7945 -2.1802  1.0424
 1345TIP3   OH225593   1.055   3.040   6.812 -0.4906 -0.0331 -0.4038
 1345TIP3    H125594   1.088   2.965   6.863  0.4326  0.3871 -0.3576
 1345TIP3    H225595   1.112   3.112   6.838 -0.2331  0.2722 -1.7855
 1346TIP3   OH225596   0.099   0.831   7.760 -0.3332 -0.0355 -0.0524
 1346TIP3    H125597   0.142   0.769   7.818 -0.7710  1.0117  1.4626
 1346TIP3    H225598   0.111   0.916   7.803  0.6779  1.0550 -2.2754
 1347TIP3   OH225599   6.750   5.559   6.624  0.3078 -0.1273 -0.4357
 1347TIP3    H125600   6.773   5.635   6.571  0.5325 -0.6366 -1.0781
 1347TIP3    H225601   6.784   5.484   6.575  1.0520 -0.5709  0.7226
 1348TIP3   OH225602   5.230   2.003   7.822  0.1998  0.2516  0.5776
 1348TIP3    H125603   5.170   2.073   7.796  2.2503  1.5516 -0.9886
 1348TIP3    H225604   5.271   2.035   7.903  0.4358  0.4571  0.3813
 1349TIP3   OH225605   4.360   0.061   8.561 -0.1375  0.4122 -0.0602
 1349TIP3    H125606   4.427  -0.006   8.574  1.6372  1.8220 -1.4695
 1349TIP3    H225607   4.383   0.103   8.478  0.8308  4.9050  2.1349
 1350TIP3   OH225608   2.729   6.254   7.997 -0.1445  0.9345 -0.5402
 1350TIP3    H125609   2.706   6.187   7.932 -0.7308  1.1210 -0.5299
 1350TIP3    H225610   2.777   6.320   7.947  0.7759  0.3335 -0.4780
 1351TIP3   OH225611   3.996   3.168   8.171 -0.4051 -0.0802 -0.0199
 1351TIP3    H125612   4.041   3.231   8.115  0.6117 -0.1688  0.6682
 1351TIP3    H225613   3.970   3.218   8.248 -1.3455 -0.0730 -0.3290
 1352TIP3   OH225614   1.512   1.500   8.172  0.4774  0.6112 -0.1585
 1352TIP3    H125615   1.553   1.466   8.092  0.8494  1.2472 -0.2408
 1352TIP3    H225616   1.570   1.570   8.201 -0.2146  1.0992  0.0774
 1353TIP3   OH225617   1.118   2.345   0.477 -0.1322  0.0019  0.1745
 1353TIP3    H125618   1.055   2.375   0.412 -0.6257 -0.6061  0.3725
 1353TIP3    H225619   1.201   2.385   0.450 -0.4981  0.4116 -0.3565
 1354TIP3   OH225620   1.427   4.560   1.334 -0.2391  0.4113  0.4113
 1354TIP3    H125621   1.388   4.564   1.247  0.9978 -0.1555 -0.1925
 1354TIP3    H225622   1.405   4.472   1.366  2.1751 -0.7124 -0.7754
 1355TIP3   OH225623   0.987   4.930   8.700  0.7066 -0.0155 -0.3634
 1355TIP3    H125624   0.903   4.972   8.682  1.0999  0.5639 -0.8699
 1355TIP3    H225625   0.985   4.911   8.794 -0.2426 -0.5746 -0.4779
 1356TIP3   OH225626   2.324   1.911   7.274 -0.3034  0.3175 -0.5480
 1356TIP3    H125627   2.378   1.837   7.247 -2.2181 -0.2821 -3.1300
 1356TIP3    H225628   2.373   1.988   7.246 -0.3913 -0.1917 -2.2270
 1357TIP3   OH225629   1.433   3.568   7.976  0.1966 -0.4169 -0.8270
 1357TIP3    H125630   1.492   3.637   7.945 -0.6421  1.2112  1.0122
 1357TIP3    H225631   1.354   3.578   7.923 -0.1764  0.5116 -0.1167
 1358TIP3   OH225632   0.425   0.410   0.579  0.2267 -0.0072 -0.1502
 1358TIP3    H125633   0.397   0.324   0.548  0.5082  0.1662 -0.8847
 1358TIP3    H225634   0.512   0.395   0.617 -0.3512 -0.3286  1.1180
 1359TIP3   OH225635   4.904   6.288   7.823 -0.4155  0.2688  0.9397
 1359TIP3    H125636   4.963   6.356   7.790  0.6351 -0.2536  1.7070
 1359TIP3    H225637   4.822   6.302   7.775  0.4538  0.7449 -0.4489
 1360TIP3   OH225638   3.673   6.318   8.044 -0.6769 -0.1435  0.1878
 1360TIP3    H125639   3.767   6.335   8.031 -0.8500  0.9403  0.2161
 1360TIP3    H225640   3.670   6.234   8.089  0.4378  1.0080  2.5976
 1361TIP3   OH225641   3.143   3.896   7.991  0.0180 -0.2577  0.4712
 1361TIP3    H125642   3.131   3.988   8.015  0.1164 -0.7854  2.7720
 1361TIP3    H225643   3.236   3.888   7.971  0.1535 -0.0152  1.0056
 1362TIP3   OH225644   3.304   4.286   1.139 -0.2043 -0.8371  0.1551
 1362TIP3    H125645   3.329   4.244   1.056  0.6282 -0.3799  0.1690
 1362TIP3    H225646   3.298   4.214   1.202  0.2933 -1.0497 -0.0367
 1363TIP3   OH225647   6.773   1.337   0.747 -0.8447  0.2644  0.0916
 1363TIP3    H125648   6.841   1.347   0.813 -1.2182  0.8272  0.3874
 1363TIP3    H225649   6.817   1.290   0.676 -0.0216  1.0018  0.0933
 1364TIP3   OH225650   4.862   4.591   1.792  0.7344 -0.1250  0.4538
 1364TIP3    H125651   4.943   4.630   1.760  1.1554 -0.0045  1.5976
 1364TIP3    H225652   4.883   4.563   1.881 -0.2308 -0.8928  0.4546
 1365TIP3   OH225653   5.730   6.213   8.823 -0.2885  0.2173 -0.2529
 1365TIP3    H125654   5.807   6.206   8.879 -0.9450  1.1223  0.8222
 1365TIP3    H225655   5.760   6.262   8.747  0.2309  0.4611  0.1062
 1366TIP3   OH225656   0.311   2.016   1.275 -0.3956 -0.4876  0.0755
 1366TIP3    H125657   0.327   2.085   1.211 -0.8446 -0.9302 -0.5295
 1366TIP3    H225658   0.216   2.014   1.285 -0.2472  1.3846  2.8071
 1367TIP3   OH225659   4.204   0.825   6.753 -0.1611  0.8275 -0.2108
 1367TIP3    H125660   4.191   0.828   6.847 -1.0470  0.6952 -0.3238
 1367TIP3    H225661   4.119   0.798   6.717  0.2638  0.5142 -1.0193
 1368TIP3   OH225662   5.908   6.297   7.654 -0.5146  0.7520  0.1374
 1368TIP3    H125663   5.819   6.279   7.626 -1.2056  1.0431  1.9674
 1368TIP3    H225664   5.935   6.373   7.602 -1.1159  0.3249 -0.8140
 1369TIP3   OH225665   2.315   0.130   8.690  0.1008  0.1852 -0.5812
 1369TIP3    H125666   2.371   0.207   8.695  1.1505 -0.5180 -1.3027
 1369TIP3    H225667   2.265   0.132   8.772 -0.0662  1.7466 -0.6929
 1370TIP3   OH225668   1.924   1.892   8.240  0.5087 -0.6557 -1.0305
 1370TIP3    H125669   1.986   1.832   8.282  0.5167  0.9983  1.5610
 1370TIP3    H225670   1.945   1.978   8.277 -1.0385  0.5662 -2.8085
 1371TIP3   OH225671   2.194   1.206   1.810  0.2480  0.1367 -0.3095
 1371TIP3    H125672   2.172   1.112   1.808 -0.4769  0.2952 -0.1378
 1371TIP3    H225673   2.144   1.241   1.883 -0.8946  0.9902 -1.4553
 1372TIP3   OH225674   3.268   3.673   8.695  0.4879 -0.8220 -0.2202
 1372TIP3    H125675   3.305   3.750   8.736 -1.2040  0.3506 -0.7817
 1372TIP3    H225676   3.333   3.646   8.630  1.5535 -0.5207  0.7028
 1373TIP3   OH225677   3.742   3.467   7.081  0.2334 -0.6014 -0.1950
 1373TIP3    H125678   3.654   3.447   7.049  0.2587  0.5683 -1.0618
 1373TIP3    H225679   3.754   3.560   7.060  1.1240 -0.3632  1.2113
 1374TIP3   OH225680   6.637   0.772   6.705 -0.3580  0.9757 -0.2205
 1374TIP3    H125681   6.566   0.715   6.675 -0.0687  1.2497 -1.4732
 1374TIP3    H225682   6.687   0.719   6.766 -1.8071  0.8696  0.9402
 1375TIP3   OH225683   6.788   1.046   7.936  0.0497 -0.0585  0.2898
 1375TIP3    H125684   6.819   1.052   8.026  0.7048  0.4551  0.0299
 1375TIP3    H225685   6.804   1.132   7.898  0.2982 -0.4354 -0.4872
 1376TIP3   OH225686   4.982   3.048   0.712 -0.3238  0.9418  0.7244
 1376TIP3    H125687   4.922   3.103   0.661 -2.6246 -0.4886  1.7209
 1376TIP3    H225688   4.961   3.068   0.803  0.0390 -0.2717  1.0900
 1377TIP3   OH225689   1.689   2.318   7.634 -0.5902 -0.2436  0.2835
 1377TIP3    H125690   1.693   2.266   7.553 -0.3615 -0.6085  0.5257
 1377TIP3    H225691   1.690   2.252   7.704 -2.4017 -0.0390  0.5654
 1378TIP3   OH225692   1.064   0.211   1.104  0.0535  0.3780 -0.1860
 1378TIP3    H125693   1.151   0.250   1.107  0.1664  0.0930  2.2978
 1378TIP3    H225694   1.059   0.171   1.017  2.2098  0.7908 -0.5652
 1379TIP3   OH225695   4.828   0.196   2.245  0.4237  0.0077  0.5614
 1379TIP3    H125696   4.791   0.243   2.170  0.5551  0.7822  0.9799
 1379TIP3    H225697   4.911   0.161   2.212  0.8159  0.9321  0.5306
 1380TIP3   OH225698   6.615   2.510   7.146  0.5538  0.2109  0.2697
 1380TIP3    H125699   6.605   2.440   7.082 -0.1456 -1.5002  2.1545
 1380TIP3    H225700   6.625   2.465   7.230 -0.3161  2.3636  1.6146
 1381TIP3   OH225701   0.492   5.954   1.121  0.0975  0.2743 -0.3881
 1381TIP3    H125702   0.488   5.902   1.201 -0.0652 -0.3943 -0.8206
 1381TIP3    H225703   0.460   6.040   1.147  0.7463  0.2831  0.4344
 1382TIP3   OH225704   6.574   3.355   8.041  0.6024  0.2838  0.0552
 1382TIP3    H125705   6.575   3.404   8.124  0.4706  0.6203 -0.1382
 1382TIP3    H225706   6.536   3.416   7.978  0.7912  0.0645 -0.2754
 1383TIP3   OH225707   6.436   4.167   8.410 -0.2680  0.1484 -0.6812
 1383TIP3    H125708   6.493   4.116   8.468  0.7687 -0.4991 -2.2100
 1383TIP3    H225709   6.438   4.120   8.327 -2.2798  0.6587 -1.0802
 1384TIP3   OH225710   2.489   3.049   0.443  0.2991 -0.1204 -0.5976
 1384TIP3    H125711   2.526   3.018   0.361 -1.3578 -0.6722 -1.1933
 1384TIP3    H225712   2.404   3.005   0.449  0.4627 -0.2436  1.5243
 1385TIP3   OH225713   1.377   2.459   0.416 -0.0993 -0.0073  0.3274
 1385TIP3    H125714   1.442   2.528   0.399 -0.4775 -0.1663 -2.1265
 1385TIP3    H225715   1.429   2.383   0.442  0.5511  0.3594  0.1146
 1386TIP3   OH225716   4.103   5.116   6.440 -0.6362  0.8467  0.3207
 1386TIP3    H125717   4.096   5.040   6.383  0.8889 -0.2500  1.5232
 1386TIP3    H225718   4.125   5.188   6.380  0.4231 -0.1593 -0.5524
 1387TIP3   OH225719   2.183   0.278   6.908  0.2199  0.0669  0.3240
 1387TIP3    H125720   2.210   0.369   6.905  0.9496 -0.0367  2.3876
 1387TIP3    H225721   2.244   0.233   6.849  0.2497  0.7937 -0.2191
 1388TIP3   OH225722   1.817   4.370   0.726  0.0551  0.6451  0.0670
 1388TIP3    H125723   1.742   4.319   0.696 -2.1568  3.1165  0.9717
 1388TIP3    H225724   1.866   4.388   0.646 -0.9225 -0.1325 -0.7399
 1389TIP3   OH225725   5.138   5.654   6.808  0.3470  0.5803  0.0874
 1389TIP3    H125726   5.118   5.606   6.889 -0.7419  1.1417  0.1718
 1389TIP3    H225727   5.086   5.610   6.741  0.1658  0.9832 -0.0380
 1390TIP3   OH225728   2.100   6.287   7.424  0.1864 -0.4099  0.3544
 1390TIP3    H125729   2.099   6.355   7.357  0.3767 -0.7419  0.0046
 1390TIP3    H225730   2.039   6.317   7.491  0.7772  0.4276  0.5345
 1391TIP3   OH225731   1.513   6.229   0.616 -0.0761 -0.3617  0.1733
 1391TIP3    H125732   1.515   6.320   0.645 -0.6740 -0.4340  0.4530
 1391TIP3    H225733   1.476   6.181   0.691 -0.3571 -0.7409 -0.2061
 1392TIP3   OH225734   0.186   2.278   6.883  0.2221 -0.2869  0.2570
 1392TIP3    H125735   0.241   2.266   6.961  2.5858 -1.2732 -1.4484
 1392TIP3    H225736   0.247   2.270   6.810 -2.3539 -2.4203 -1.8460
 1393TIP3   OH225737   3.460   3.733   6.638  0.1752  0.4954  0.1560
 1393TIP3    H125738   3.419   3.722   6.552  2.1948 -0.4313 -0.7535
 1393TIP3    H225739   3.446   3.649   6.682  0.8821  0.2430 -0.0848
 1394TIP3   OH225740   3.180   1.832   1.143 -0.0067  0.1440  0.0533
 1394TIP3    H125741   3.094   1.820   1.183 -0.1853 -0.4381 -0.4943
 1394TIP3    H225742   3.163   1.888   1.067 -0.1858 -1.2636 -0.9911
 1395TIP3   OH225743   2.767   2.060   8.225 -0.0346 -0.3266 -0.7374
 1395TIP3    H125744   2.735   2.151   8.224  1.6236  0.2917 -0.7223
 1395TIP3    H225745   2.691   2.008   8.201 -0.7560  1.1656 -1.8643
 1396TIP3   OH225746   1.186   6.041   8.136  0.2203 -0.2279 -0.2677
 1396TIP3    H125747   1.185   5.978   8.064 -0.5653  0.2912 -0.7307
 1396TIP3    H225748   1.244   6.111   8.106  0.9995 -0.6667  0.1968
 1397TIP3   OH225749   3.855   1.135   7.393  0.0434  0.3503 -0.3221
 1397TIP3    H125750   3.779   1.130   7.336 -0.3134  1.9927 -0.0216
 1397TIP3    H225751   3.914   1.066   7.361 -1.1070 -0.2374 -1.2125
 1398TIP3   OH225752   2.535   6.788   7.760  0.3793 -0.3734 -0.5341
 1398TIP3    H125753   2.620   6.831   7.771 -0.4960  0.9650  1.5720
 1398TIP3    H225754   2.508   6.812   7.671  1.3031  0.9101 -0.5007
 1399TIP3   OH225755   0.540   6.071   7.107  0.1635 -0.3691  0.2533
 1399TIP3    H125756   0.605   6.001   7.101  0.4761 -0.0799  0.2477
 1399TIP3    H225757   0.552   6.122   7.028 -0.0584 -0.3009  0.2619
 1400TIP3   OH225758   1.933   4.688   1.386  0.5209 -0.1599 -0.0936
 1400TIP3    H125759   1.936   4.782   1.399  0.6929  0.1818 -2.2488
 1400TIP3    H225760   2.018   4.657   1.419 -0.1180  0.1788  2.0168
 1401TIP3   OH225761   6.102   6.251   0.532 -0.3064 -0.1578  0.0441
 1401TIP3    H125762   6.065   6.275   0.617 -1.6447 -1.9533  0.0507
 1401TIP3    H225763   6.031   6.204   0.488  1.1171 -1.3199 -1.1193
 1402TIP3   OH225764   3.057   5.743   8.135  0.6470 -0.6086 -0.4740
 1402TIP3    H125765   3.025   5.775   8.050  0.5165  0.5969  0.0163
 1402TIP3    H225766   3.095   5.657   8.115 -0.4559 -0.8758 -1.5433
 1403TIP3   OH225767   6.785   2.448   8.256 -0.0031  0.6807 -0.3949
 1403TIP3    H125768   6.867   2.481   8.294  0.5673 -0.7040 -0.3663
 1403TIP3    H225769   6.751   2.522   8.206  1.6973  1.0419 -1.0852
 1404TIP3   OH225770   6.303   5.253   0.266  1.0175  0.0566  0.0319
 1404TIP3    H125771   6.260   5.233   0.183 -1.3863 -2.0783  1.6338
 1404TIP3    H225772   6.385   5.204   0.263  0.7628 -0.3399 -0.8979
 1405TIP3   OH225773   5.153   0.422   6.573 -0.1266 -0.4309  0.1168
 1405TIP3    H125774   5.151   0.491   6.638 -0.4217 -0.5838  0.2682
 1405TIP3    H225775   5.063   0.390   6.568  0.4248 -2.5070  1.8700
 1406TIP3   OH225776   1.646   1.543   7.630  0.2939  0.0849  0.2291
 1406TIP3    H125777   1.706   1.548   7.705  0.0912 -1.2529  0.5073
 1406TIP3    H225778   1.560   1.529   7.669  0.0162  0.4996 -0.2241
 1407TIP3   OH225779   1.154   1.696   6.737 -0.3636  0.5039  0.3969
 1407TIP3    H125780   1.072   1.705   6.689  0.3439  0.1303 -0.9167
 1407TIP3    H225781   1.155   1.605   6.766 -1.0423  0.8624  1.6559
 1408TIP3   OH225782   1.646   5.759   0.720 -0.2682  0.2025  0.4014
 1408TIP3    H125783   1.656   5.704   0.798  2.5434 -0.9774 -0.6428
 1408TIP3    H225784   1.703   5.834   0.737 -0.5644  0.5319 -0.0465
 1409TIP3   OH225785   5.562   2.368   7.334 -0.3158  0.4097  0.4438
 1409TIP3    H125786   5.516   2.331   7.409  0.5523  1.2435  1.4283
 1409TIP3    H225787   5.590   2.292   7.283 -2.2586 -0.1242  0.1010
 1410TIP3   OH225788   1.794   0.972   6.835 -0.1915 -0.5530 -0.0982
 1410TIP3    H125789   1.730   0.915   6.879 -0.9746 -0.5400 -1.1885
 1410TIP3    H225790   1.819   0.924   6.757  1.0363 -0.4829  0.2413
 1411TIP3   OH225791   0.819   3.235   8.724  0.6355  0.0026  0.4312
 1411TIP3    H125792   0.800   3.301   8.791  0.2195 -1.6555  2.0318
 1411TIP3    H225793   0.913   3.243   8.708  0.6473  0.7567  0.8496
 1412TIP3   OH225794   2.288   1.853   1.486  0.3096  0.3799  0.3202
 1412TIP3    H125795   2.366   1.857   1.431 -0.3090 -0.0263 -0.6175
 1412TIP3    H225796   2.314   1.799   1.561  0.7895 -0.1653 -0.2280
 1413TIP3   OH225797   4.400   6.396   6.322 -0.7458 -0.0038  0.4545
 1413TIP3    H125798   4.420   6.332   6.254 -0.3551  0.4928  0.1011
 1413TIP3    H225799   4.483   6.440   6.340 -1.3497  1.6416 -0.5778
 1414TIP3   OH225800   2.994   2.548   7.138  0.2923 -0.0790 -0.5194
 1414TIP3    H125801   2.911   2.596   7.132 -0.7284 -1.7967 -1.0629
 1414TIP3    H225802   2.970   2.465   7.179  1.8018 -0.4984 -0.4496
 1415TIP3   OH225803   5.704   2.082   0.153  0.1208  0.2908 -0.1224
 1415TIP3    H125804   5.618   2.103   0.189  0.5920 -0.7928  1.7878
 1415TIP3    H225805   5.762   2.149   0.191  0.2840  0.4438 -0.6340
 1416TIP3   OH225806   5.384   4.519   6.793  0.1771  0.7372 -0.1203
 1416TIP3    H125807   5.345   4.497   6.878 -0.3979 -0.6424 -0.7212
 1416TIP3    H225808   5.402   4.435   6.752 -0.7699  1.3697 -1.9338
 1417TIP3   OH225809   0.169   6.698   7.536  0.1472 -0.2993 -0.3108
 1417TIP3    H125810   0.116   6.771   7.569  0.4884  0.2647 -0.9669
 1417TIP3    H225811   0.149   6.625   7.594 -0.8238  0.0901 -0.1396
 1418TIP3   OH225812   6.771   6.371   6.563 -0.1736 -0.3538  0.1399
 1418TIP3    H125813   6.831   6.302   6.536  0.1551 -0.1626  0.3706
 1418TIP3    H225814   6.738   6.408   6.481 -0.9456 -1.2894  0.0172
 1419TIP3   OH225815   6.459   3.735   8.726 -0.1937 -0.5930  0.3955
 1419TIP3    H125816   6.374   3.693   8.714 -1.0705  1.3976 -0.8798
 1419TIP3    H225817   6.519   3.683   8.672 -0.3477 -2.4986  1.9232
 1420TIP3   OH225818   3.628   3.120   7.831 -0.1784  0.0904  0.1815
 1420TIP3    H125819   3.693   3.086   7.892 -1.5402 -1.5243  0.8037
 1420TIP3    H225820   3.679   3.150   7.756  1.2656 -1.6758  0.3945
 1421TIP3   OH225821   4.607   6.287   8.092  0.5952 -0.8789 -0.3577
 1421TIP3    H125822   4.513   6.305   8.101  0.3557 -2.0582 -0.4325
 1421TIP3    H225823   4.648   6.373   8.106 -0.5611 -0.0530 -1.7188
 1422TIP3   OH225824   0.777   1.654   8.275  0.7720 -0.3277 -0.2381
 1422TIP3    H125825   0.715   1.642   8.346 -0.7334  1.4650 -1.1577
 1422TIP3    H225826   0.725   1.643   8.195  1.9069 -0.0084 -1.0547
 1423TIP3   OH225827   5.902   4.707   8.720  0.0678  0.3785  0.3307
 1423TIP3    H125828   5.993   4.679   8.736 -0.3473 -0.6734  0.9906
 1423TIP3    H225829   5.859   4.695   8.805 -1.0286 -0.5305 -0.3291
 1424TIP3   OH225830   6.492   3.074   7.670  0.2531 -0.2957 -0.0212
 1424TIP3    H125831   6.447   2.992   7.690  2.2740 -0.8050  3.2083
 1424TIP3    H225832   6.430   3.142   7.696  1.1080 -0.9662  4.8145
 1425TIP3   OH225833   3.170   5.564   0.430  0.2679  0.3267  0.2612
 1425TIP3    H125834   3.219   5.548   0.350  1.3489  0.2328  0.9110
 1425TIP3    H225835   3.093   5.507   0.423  0.2109  0.5160 -0.8067
 1426TIP3   OH225836   6.481   3.044   0.390  0.6018  0.0804 -0.6115
 1426TIP3    H125837   6.543   2.974   0.408  1.4268  0.9304  0.0034
 1426TIP3    H225838   6.420   3.042   0.464  2.3596  1.8133  1.0175
 1427TIP3   OH225839   0.722   4.419   7.455  0.2668 -0.5919 -0.2052
 1427TIP3    H125840   0.708   4.426   7.549  2.3719  0.2459  0.1144
 1427TIP3    H225841   0.744   4.508   7.427  1.7389 -1.1742 -1.0545
 1428TIP3   OH225842   2.090   6.386   6.520  0.2391  0.7649 -0.0658
 1428TIP3    H125843   2.113   6.472   6.486  1.4338  0.6569  0.4301
 1428TIP3    H225844   2.081   6.331   6.443  0.8054  1.0173 -0.3114
 1429TIP3   OH225845   4.207   5.036   0.426  0.0908  0.0168 -0.1955
 1429TIP3    H125846   4.147   5.027   0.501  0.9085 -2.2802  0.2545
 1429TIP3    H225847   4.164   5.100   0.369 -2.3062 -0.7784  0.5838
 1430TIP3   OH225848   2.122   5.821   0.174 -0.4367  0.4721  0.2806
 1430TIP3    H125849   2.064   5.891   0.144 -0.2714  0.8279  0.7654
 1430TIP3    H225850   2.079   5.740   0.147 -0.8413  0.7523  0.0855
 1431TIP3   OH225851   3.549   4.254   0.961  0.1056  0.6893  0.2562
 1431TIP3    H125852   3.538   4.217   0.874 -2.1185 -1.5914  1.3777
 1431TIP3    H225853   3.576   4.181   1.016  2.5518  2.2952  1.3744
 1432TIP3   OH225854   0.062   2.272   8.615  0.1819  0.1371  0.3804
 1432TIP3    H125855   0.143   2.284   8.664  0.4509  0.5826 -0.1688
 1432TIP3    H225856   0.025   2.360   8.608  0.7767  0.2712 -1.2982
 1433TIP3   OH225857   2.304   1.424   0.498  0.8530 -0.2232  0.0811
 1433TIP3    H125858   2.321   1.330   0.501 -0.6124 -0.8129 -3.9989
 1433TIP3    H225859   2.212   1.434   0.520  0.9427  0.2343  0.2721
 1434TIP3   OH225860   3.113   0.206   7.129  0.7055  0.4037  0.2126
 1434TIP3    H125861   3.090   0.211   7.036 -2.0169  0.9681  0.8043
 1434TIP3    H225862   3.155   0.290   7.147  0.5628  0.6069 -0.3593
 1435TIP3   OH225863   6.745   5.851   6.919  0.1907 -0.4304 -0.4137
 1435TIP3    H125864   6.789   5.767   6.924  1.4451  0.0641 -2.0318
 1435TIP3    H225865   6.784   5.894   6.842  0.0949  1.8976  0.7405
 1436TIP3   OH225866   0.953   5.139   7.517 -0.7347 -0.3557  0.2088
 1436TIP3    H125867   1.005   5.070   7.475  0.7320  0.8629 -0.0813
 1436TIP3    H225868   0.916   5.096   7.595 -1.5111 -1.9896 -0.9981
 1437TIP3   OH225869   4.576   4.118   8.728 -0.1035  0.3163 -0.1115
 1437TIP3    H125870   4.632   4.069   8.788 -0.0499 -1.2290 -1.3617
 1437TIP3    H225871   4.519   4.052   8.688 -0.7770  1.4306 -1.0777
 1438TIP3   OH225872   1.579   2.292   0.484 -0.1270 -0.1744 -0.3725
 1438TIP3    H125873   1.543   2.234   0.417  0.0560 -0.0656 -0.5645
 1438TIP3    H225874   1.674   2.288   0.470 -0.1349  0.4310 -0.5923
 1439TIP3   OH225875   6.445   5.696   7.487 -0.3082 -0.0226  0.5598
 1439TIP3    H125876   6.533   5.691   7.523  0.2702 -2.1937 -0.9848
 1439TIP3    H225877   6.388   5.670   7.560  0.6512 -2.1019  0.6351
 1440TIP3   OH225878   0.477   1.302   6.880  0.8352 -0.1785 -0.4764
 1440TIP3    H125879   0.450   1.228   6.935  1.4286  0.1850  0.3246
 1440TIP3    H225880   0.478   1.377   6.940 -0.6323  0.6859 -1.4669
 1441TIP3   OH225881   0.460   0.857   8.357  0.2777 -0.7645  0.7393
 1441TIP3    H125882   0.495   0.769   8.342 -2.6753 -2.1337  0.9614
 1441TIP3    H225883   0.445   0.861   8.451 -1.1302 -0.7135  0.5337
 1442TIP3   OH225884   6.630   3.142   6.242  0.0524 -0.8181 -0.2845
 1442TIP3    H125885   6.702   3.158   6.303 -0.7160 -0.5995  0.5991
 1442TIP3    H225886   6.658   3.183   6.160  0.3735  0.4631  0.4313
 1443TIP3   OH225887   0.834   5.691   6.288 -0.2090  0.1030  0.0927
 1443TIP3    H125888   0.759   5.693   6.346 -0.1236 -0.6424  0.2470
 1443TIP3    H225889   0.904   5.734   6.336 -0.0684 -0.7318  0.6581
 1444TIP3   OH225890   4.330   2.617   1.060  0.1912 -0.3935  0.1728
 1444TIP3    H125891   4.250   2.664   1.084  1.0747 -0.6803  4.5346
 1444TIP3    H225892   4.389   2.685   1.028 -0.1624  0.7522  1.8182
 1445TIP3   OH225893   0.618   2.263   0.766 -0.2667 -0.4774  0.8623
 1445TIP3    H125894   0.615   2.178   0.810 -0.4690 -0.9998 -0.1220
 1445TIP3    H225895   0.686   2.253   0.699  1.0467  0.7693  1.9409
 1446TIP3   OH225896   0.370   1.858   0.213 -0.0674  0.2501 -0.2031
 1446TIP3    H125897   0.283   1.828   0.238 -0.5356  1.1245 -0.7433
 1446TIP3    H225898   0.361   1.952   0.199  0.9502  0.3463 -0.3272
 1447TIP3   OH225899   1.003   6.358   6.896  0.5224 -0.0952  0.2044
 1447TIP3    H125900   1.055   6.410   6.835 -0.8804  0.4075 -0.6163
 1447TIP3    H225901   1.052   6.361   6.978  1.3001  1.1461 -0.2746
 1448TIP3   OH225902   0.109   1.213   6.273  0.1091  0.1185  0.1331
 1448TIP3    H125903   0.153   1.268   6.208  0.2600 -0.2295 -0.0670
 1448TIP3    H225904   0.172   1.144   6.292  0.1738  0.3710  0.8616
 1449TIP3   OH225905   0.157   2.103   5.845 -0.5790 -0.5254  0.2273
 1449TIP3    H125906   0.098   2.037   5.809  1.0172 -1.4893 -0.7732
 1449TIP3    H225907   0.240   2.089   5.799 -0.0061  1.8388  0.3650
 1450TIP3   OH225908   2.216   2.407   0.152 -0.1519 -0.0772  0.0105
 1450TIP3    H125909   2.266   2.346   0.206 -1.3509 -0.9970  0.1153
 1450TIP3    H225910   2.280   2.472   0.123  1.1202 -1.2958  0.0251
 1451TIP3   OH225911   0.054   4.547   8.750 -0.0410 -0.2640  0.5037
 1451TIP3    H125912   0.110   4.621   8.769 -0.7617  0.5075 -0.2819
 1451TIP3    H225913   0.005   4.573   8.671 -0.5044 -1.4499  0.3760
 1452TIP3   OH225914   2.175   1.381   7.832 -0.0675 -0.0378 -0.2107
 1452TIP3    H125915   2.145   1.428   7.754  1.1190 -1.3084 -1.4925
 1452TIP3    H225916   2.251   1.430   7.863  0.9020 -0.7887 -1.2907
 1453TIP3   OH225917   3.540   3.413   7.879  0.3377 -0.3310 -0.1996
 1453TIP3    H125918   3.627   3.385   7.905  1.3618  0.0569 -2.8891
 1453TIP3    H225919   3.501   3.337   7.835 -1.6204 -1.2135  2.7568
 1454TIP3   OH225920   0.843   3.637   8.555  0.3001 -0.3611 -0.0479
 1454TIP3    H125921   0.900   3.655   8.629 -1.2004 -0.3135  1.1439
 1454TIP3    H225922   0.857   3.544   8.535 -0.1504 -0.6875  1.0901
 1455TIP3   OH225923   3.506   3.490   6.836  0.3001  0.1154  0.5144
 1455TIP3    H125924   3.529   3.421   6.898  2.6744  0.8813  0.5564
 1455TIP3    H225925   3.560   3.471   6.759  1.0951  1.9818  0.5795
 1456TIP3   OH225926   0.629   5.625   1.193 -0.6051 -0.6146 -1.1964
 1456TIP3    H125927   0.544   5.602   1.154 -1.2155 -1.1034  0.3353
 1456TIP3    H225928   0.627   5.585   1.280 -0.0318  1.8867  0.0624
 1457TIP3   OH225929   4.143   3.366   6.121 -0.6959 -0.5613 -0.2256
 1457TIP3    H125930   4.148   3.336   6.212  3.4529  0.4924  0.1060
 1457TIP3    H225931   4.184   3.297   6.070 -1.3615 -0.3394 -1.0962
 1458TIP3   OH225932   2.405   6.113   6.668 -0.3628 -0.0465  0.1090
 1458TIP3    H125933   2.396   6.159   6.585 -2.3596 -1.4426 -0.5019
 1458TIP3    H225934   2.499   6.117   6.687 -0.1081  1.9150 -1.2279
 1459TIP3   OH225935   1.625   3.352   1.285 -0.1478 -0.0132 -0.5224
 1459TIP3    H125936   1.701   3.339   1.229  0.5588  1.1679  0.1222
 1459TIP3    H225937   1.560   3.392   1.227  0.1670  0.1458 -0.7698
 1460TIP3   OH225938   5.168   4.775   0.819 -0.4808 -0.0461 -0.8277
 1460TIP3    H125939   5.211   4.819   0.745 -1.5892 -0.2120 -1.6047
 1460TIP3    H225940   5.139   4.691   0.783  1.8435 -1.6025  0.7157
 1461TIP3   OH225941   6.167   0.068   7.580  0.0460  0.1678 -0.2741
 1461TIP3    H125942   6.223   0.077   7.657  0.7471 -1.6787 -0.4992
 1461TIP3    H225943   6.150   0.158   7.551  1.0328  0.8366  1.1243
 1462TIP3   OH225944   1.291   0.180   6.670  0.0548 -0.5356  0.1219
 1462TIP3    H125945   1.336   0.141   6.745 -0.5480  1.1858  1.4437
 1462TIP3    H225946   1.199   0.158   6.683 -0.3711  1.6290  1.1722
 1463TIP3   OH225947   6.553   2.711   0.798 -0.5556  0.5530 -0.2048
 1463TIP3    H125948   6.491   2.646   0.830  1.0102 -1.6019 -1.3170
 1463TIP3    H225949   6.551   2.780   0.864 -1.5393 -1.0915  1.5957
 1464TIP3   OH225950   0.957   0.520   7.830  0.4279 -0.1930  0.3548
 1464TIP3    H125951   1.014   0.596   7.839 -0.9758  0.7239  2.3287
 1464TIP3    H225952   0.903   0.539   7.753 -0.5493  1.3308  1.3625
 1465TIP3   OH225953   3.976   5.208   8.789 -0.6691  0.4024  0.2750
 1465TIP3    H125954   4.044   5.170   8.845 -0.9988 -1.5615 -0.5786
 1465TIP3    H225955   3.920   5.258   8.849  0.1232  0.0140  1.3707
 1466TIP3   OH225956   6.091   6.055   7.725 -0.2970  0.3464 -0.0912
 1466TIP3    H125957   6.051   6.142   7.717 -1.1905  0.0898  1.2648
 1466TIP3    H225958   6.016   5.995   7.724  0.3414 -0.4846 -1.5603
 1467TIP3   OH225959   2.452   6.170   7.511 -0.0672  0.6864  0.5252
 1467TIP3    H125960   2.463   6.265   7.513 -0.5498  0.7434  0.8655
 1467TIP3    H225961   2.384   6.155   7.445  0.0637  0.5702  0.4163
 1468TIP3   OH225962   5.223   5.651   1.648 -0.6024  0.4522 -0.2539
 1468TIP3    H125963   5.244   5.743   1.662 -1.7927  0.5668  0.9415
 1468TIP3    H225964   5.140   5.653   1.599 -0.9832  0.0317  0.3645
 1469TIP3   OH225965   0.448   5.731   6.270  0.5412  0.4856 -0.2676
 1469TIP3    H125966   0.465   5.808   6.216  2.1004  1.8565  1.9859
 1469TIP3    H225967   0.474   5.656   6.216 -0.2853  1.5611 -2.2345
 1470TIP3   OH225968   0.405   6.509   8.669 -0.4837 -0.8384 -0.2580
 1470TIP3    H125969   0.403   6.603   8.687 -0.0710 -0.4073 -2.1994
 1470TIP3    H225970   0.493   6.493   8.634 -0.4033 -2.0373  0.4478
 1471TIP3   OH225971   0.479   3.996   8.313 -0.7223  0.1570 -0.0606
 1471TIP3    H125972   0.561   4.046   8.320 -0.8075  0.2997 -0.0750
 1471TIP3    H225973   0.424   4.049   8.255 -1.1897  0.5553  0.7320
 1472TIP3   OH225974   3.696   0.535   1.419  0.8551  0.4570 -0.1796
 1472TIP3    H125975   3.697   0.611   1.478  0.8692  0.9076 -0.7514
 1472TIP3    H225976   3.736   0.464   1.470 -1.2947  0.1664  1.2214
 1473TIP3   OH225977   3.542   6.570   6.964 -0.2919  0.4677  0.1787
 1473TIP3    H125978   3.564   6.606   6.878 -0.3395  1.7899  0.7023
 1473TIP3    H225979   3.503   6.484   6.944 -0.0413  0.6206 -1.0914
 1474TIP3   OH225980   3.965   1.093   7.059 -0.9538  0.3527 -0.1857
 1474TIP3    H125981   3.924   1.179   7.055 -2.6343 -0.4404 -1.1302
 1474TIP3    H225982   3.948   1.054   6.973  1.5948 -0.1592 -0.5285
 1475TIP3   OH225983   6.020   6.226   8.257 -0.0920  0.3926  0.3057
 1475TIP3    H125984   5.936   6.264   8.281 -0.5069 -1.0878  1.2661
 1475TIP3    H225985   5.999   6.138   8.226  0.8853  0.7602 -1.5928
 1476TIP3   OH225986   1.111   5.447   8.424 -0.0383 -0.4148 -0.3173
 1476TIP3    H125987   1.192   5.496   8.409 -0.2845  0.1660  0.1719
 1476TIP3    H225988   1.076   5.484   8.506 -2.5005  1.7191 -2.1460
 1477TIP3   OH225989   5.399   2.277   6.518  0.3689 -0.7392 -0.9479
 1477TIP3    H125990   5.362   2.295   6.431 -0.5492 -0.7098 -0.5647
 1477TIP3    H225991   5.325   2.288   6.578  0.7392 -1.7976 -0.2661
 1478TIP3   OH225992   0.657   5.666   7.294 -0.5042  0.3373  0.4065
 1478TIP3    H125993   0.673   5.576   7.323 -3.3236 -0.9055 -1.4600
 1478TIP3    H225994   0.623   5.710   7.372 -1.5838 -1.0108  0.7507
 1479TIP3   OH225995   6.564   3.045   1.677  0.0649  0.3019  0.0203
 1479TIP3    H125996   6.620   2.980   1.720 -0.0055  0.4274  0.2975
 1479TIP3    H225997   6.475   3.015   1.694  0.0332  0.4441  0.1051
 1480TIP3   OH225998   0.347   3.721   8.375 -0.3014  0.3025  0.0476
 1480TIP3    H125999   0.308   3.807   8.357  0.8618  1.1343  1.3206
 1480TIP3    H226000   0.418   3.713   8.311  1.5239  1.6763  1.7743
 1481TIP3   OH226001   3.509   5.389   1.412 -0.0524 -0.4796  0.0775
 1481TIP3    H126002   3.489   5.463   1.469 -0.2994 -0.6853  0.2575
 1481TIP3    H226003   3.495   5.311   1.466 -0.0665 -0.6676 -0.1914
 1482TIP3   OH226004   5.575   0.111   0.567 -0.1964 -0.4906  0.1581
 1482TIP3    H126005   5.591   0.077   0.479  2.5687 -2.0567  1.1636
 1482TIP3    H226006   5.514   0.048   0.606  0.9782 -1.5573  0.3349
 1483TIP3   OH226007   0.652   5.456   6.743 -1.1343  0.2796  0.0654
 1483TIP3    H126008   0.708   5.454   6.665 -2.7469 -2.6226 -1.2013
 1483TIP3    H226009   0.589   5.525   6.725 -1.6655 -0.5311 -1.4420
 1484TIP3   OH226010   1.699   4.942   7.335  0.4272  0.6670  0.5342
 1484TIP3    H126011   1.771   4.908   7.281 -1.1598 -1.8593 -0.2016
 1484TIP3    H226012   1.659   5.011   7.281  1.8297  1.6187  0.6646
 1485TIP3   OH226013   3.281   2.643   0.972 -0.5759 -0.0684 -0.5745
 1485TIP3    H126014   3.373   2.665   0.960 -0.8319  1.1034 -0.5161
 1485TIP3    H226015   3.281   2.575   1.040  0.3253 -1.1554 -1.6004
 1486TIP3   OH226016   0.658   2.942   8.127 -0.2386 -0.3514  0.3071
 1486TIP3    H126017   0.607   2.910   8.201 -0.2974 -1.2646 -0.1127
 1486TIP3    H226018   0.624   3.030   8.110 -1.4658 -0.8255  0.2226
 1487TIP3   OH226019   0.673   6.426   8.655  0.2917  0.5984  0.8211
 1487TIP3    H126020   0.645   6.364   8.588  0.4210  1.0936  0.3024
 1487TIP3    H226021   0.767   6.435   8.643  0.5239 -0.2383  1.8685
 1488TIP3   OH226022   2.836   4.746   7.417 -0.2813  0.0313  0.2562
 1488TIP3    H126023   2.843   4.661   7.374 -0.6619  1.2973 -2.5829
 1488TIP3    H226024   2.924   4.783   7.410 -0.2731  0.1246  0.8613
 1489TIP3   OH226025   3.080   3.457   0.590 -0.1060 -0.2399 -0.2052
 1489TIP3    H126026   3.073   3.518   0.516  0.0377  0.7198  0.5586
 1489TIP3    H226027   3.171   3.427   0.587 -0.0050  0.0626 -0.2118
 1490TIP3   OH226028   4.968   0.460   7.811  0.7401 -0.4134  0.1056
 1490TIP3    H126029   4.984   0.367   7.795  0.4177 -0.5354  0.4816
 1490TIP3    H226030   5.023   0.505   7.747 -0.3789 -0.8819 -1.2301
 1491TIP3   OH226031   6.567   0.995   6.962 -0.0698 -0.0326 -0.3302
 1491TIP3    H126032   6.567   1.090   6.974 -0.6112 -0.1293  0.5281
 1491TIP3    H226033   6.476   0.970   6.972 -0.0823 -0.5343 -1.5738
 1492TIP3   OH226034   0.676   4.782   7.934 -0.6483 -0.0487  0.0336
 1492TIP3    H126035   0.621   4.860   7.927 -0.5275  0.1713  1.2654
 1492TIP3    H226036   0.724   4.794   8.016  1.3239 -0.2017 -1.0412
 1493TIP3   OH226037   3.462   5.765   1.164  0.1511 -0.0362  0.3148
 1493TIP3    H126038   3.460   5.709   1.087  0.1847 -0.0390  0.3158
 1493TIP3    H226039   3.370   5.781   1.185  0.0086 -2.4417  2.0199
 1494TIP3   OH226040   0.157   3.082   7.945 -0.1370 -0.0852 -0.0809
 1494TIP3    H126041   0.078   3.123   7.910  1.4630  2.8390 -0.6665
 1494TIP3    H226042   0.207   3.057   7.867 -0.6726 -2.4931  0.2839
 1495TIP3   OH226043   2.768   0.096   7.540  0.1037 -0.2475  0.7061
 1495TIP3    H126044   2.849   0.117   7.492 -0.3112 -0.0815  0.0623
 1495TIP3    H226045   2.763   0.161   7.609  0.5814 -0.3303  0.8240
 1496TIP3   OH226046   3.813   4.023   7.451 -0.4936  0.1034 -0.3698
 1496TIP3    H126047   3.773   4.096   7.499 -0.6574 -0.6911  0.7413
 1496TIP3    H226048   3.861   3.974   7.518 -0.0759 -0.6007 -1.1673
 1497TIP3   OH226049   5.812   0.708   1.234 -0.1279 -0.3960  1.0313
 1497TIP3    H126050   5.811   0.802   1.254  0.1917 -0.3160  0.6934
 1497TIP3    H226051   5.888   0.675   1.281  0.2127 -0.3371  0.5348
 1498TIP3   OH226052   2.628   4.992   6.558  0.0855  0.3243  0.0437
 1498TIP3    H126053   2.570   5.029   6.625 -1.2773  0.6418 -1.2539
 1498TIP3    H226054   2.569   4.969   6.485  1.2432 -1.7873 -0.3283
 1499TIP3   OH226055   6.522   3.959   2.119 -0.0098  0.1463 -0.2413
 1499TIP3    H126056   6.432   3.975   2.144  0.0460  1.3630 -0.7412
 1499TIP3    H226057   6.545   3.877   2.162 -0.7910  0.7259  1.3367
 1500TIP3   OH226058   5.490   3.109   6.740 -0.3130 -0.1381 -0.0908
 1500TIP3    H126059   5.546   3.099   6.817  0.0151  0.3256 -0.2680
 1500TIP3    H226060   5.416   3.161   6.771 -0.7492 -0.9163  0.1921
 1501TIP3   OH226061   6.499   0.043   7.818  0.0941  0.3283 -0.4088
 1501TIP3    H126062   6.514   0.090   7.900 -0.8520  0.3126 -0.2197
 1501TIP3    H226063   6.435   0.097   7.771 -0.1722 -0.2092 -0.6671
 1502TIP3   OH226064   2.373   4.680   8.260  0.2330  0.3577 -0.0041
 1502TIP3    H126065   2.308   4.611   8.247  0.0999  0.7058 -1.3140
 1502TIP3    H226066   2.371   4.731   8.179  0.3248  1.9180  0.9452
 1503TIP3   OH226067   0.327   1.517   8.107 -0.0361  0.2165  0.4323
 1503TIP3    H126068   0.330   1.587   8.173 -0.7429  0.8844 -0.2213
 1503TIP3    H226069   0.235   1.488   8.106  0.3884 -1.2557  1.2187
 1504TIP3   OH226070   0.361   1.692   8.326 -0.1027 -0.1187  0.0350
 1504TIP3    H126071   0.444   1.675   8.370  0.5180  2.5758  0.0549
 1504TIP3    H226072   0.315   1.754   8.383 -1.2251  0.0566 -1.0117
 1505TIP3   OH226073   5.672   5.446   7.851 -0.2171  0.0497  0.6179
 1505TIP3    H126074   5.644   5.450   7.943 -0.9048  2.2274  0.3743
 1505TIP3    H226075   5.753   5.497   7.849 -1.0324  1.3923 -0.2034
 1506TIP3   OH226076   3.374   2.098   7.930 -0.2069 -0.1484 -0.4719
 1506TIP3    H126077   3.446   2.151   7.896 -0.1955  0.0943 -0.0835
 1506TIP3    H226078   3.301   2.117   7.871  0.0836 -0.4966 -0.9440
 1507TIP3   OH226079   1.968   4.845   1.685 -0.2993  0.3518  0.1915
 1507TIP3    H126080   1.993   4.863   1.776  0.4704 -1.1336  0.3008
 1507TIP3    H226081   2.038   4.789   1.652 -0.4180  1.1048 -1.4252
 1508TIP3   OH226082   3.070   2.101   1.597  0.6035 -0.8362 -0.6264
 1508TIP3    H126083   3.104   2.011   1.598  0.1273 -1.0379 -1.4766
 1508TIP3    H226084   3.048   2.119   1.688  1.9116 -1.1099 -0.2301
 1509TIP3   OH226085   1.123   1.927   7.709 -0.4969 -0.4970 -0.1484
 1509TIP3    H126086   1.168   1.844   7.692 -0.3661 -0.7754  1.4019
 1509TIP3    H226087   1.157   1.986   7.642 -0.4985 -1.6455 -1.2091
 1510TIP3   OH226088   3.474   2.360   7.287 -0.1460  0.3282  0.1663
 1510TIP3    H126089   3.519   2.278   7.309 -1.2368 -0.8336 -1.6276
 1510TIP3    H226090   3.390   2.354   7.332 -0.6715 -0.0856 -0.8368
 1511TIP3   OH226091   2.006   4.281   7.210  0.4626  0.2040 -0.6348
 1511TIP3    H126092   2.028   4.213   7.146 -1.4514 -1.1793  0.0685
 1511TIP3    H226093   2.052   4.359   7.179  2.5609 -1.3109 -1.6160
 1512TIP3   OH226094   4.984   2.890   8.075  0.4458  0.6873 -0.1166
 1512TIP3    H126095   4.973   2.983   8.057  0.8788  0.6521 -0.5854
 1512TIP3    H226096   4.938   2.876   8.157  1.5598  1.6054  0.6995
 1513TIP3   OH226097   3.023   2.366   6.871 -0.2529 -0.0025  0.2250
 1513TIP3    H126098   3.042   2.460   6.874 -0.2316 -0.0341  1.2207
 1513TIP3    H226099   2.974   2.354   6.790  0.6990  0.6895 -0.4840
 1514TIP3   OH226100   4.044   4.243   7.287  0.5154 -0.1666 -0.6468
 1514TIP3    H126101   4.126   4.292   7.273  1.8424 -2.1940 -0.4096
 1514TIP3    H226102   3.975   4.308   7.273  2.1512  1.8997  0.1615
 1515TIP3   OH226103   0.022   2.617   1.292 -0.2271  0.0584  0.5791
 1515TIP3    H126104   0.079   2.583   1.361 -1.0599  0.2434  1.3781
 1515TIP3    H226105  -0.063   2.628   1.334 -0.6499  0.5802 -0.3732
 1516TIP3   OH226106   6.767   5.384   6.875 -0.2497 -0.0513 -0.0272
 1516TIP3    H126107   6.783   5.292   6.897 -0.0261 -0.1493 -0.5761
 1516TIP3    H226108   6.755   5.384   6.780  2.8319  0.8938 -0.5208
 1517TIP3   OH226109   6.712   4.702   1.008  0.0912  0.2372 -0.1699
 1517TIP3    H126110   6.760   4.667   1.082  0.4937  2.1446  0.5188
 1517TIP3    H226111   6.625   4.662   1.015 -0.3070  1.3607  2.1250
 1518TIP3   OH226112   3.350   1.692   8.030  0.4030  0.7560 -0.0894
 1518TIP3    H126113   3.354   1.728   7.941 -1.1620  2.2811  0.4072
 1518TIP3    H226114   3.442   1.683   8.056  0.8950  0.3137 -1.8140
 1519TIP3   OH226115   6.713   1.618   8.032  0.6857  0.2018 -0.1535
 1519TIP3    H126116   6.663   1.649   7.957  1.5544 -0.0841 -0.8675
 1519TIP3    H226117   6.706   1.523   8.027 -1.3391  0.1886  1.5907
 1520TIP3   OH226118   5.820   3.776   1.203  0.1863 -0.4470 -0.2293
 1520TIP3    H126119   5.755   3.846   1.207  1.4636  1.0851 -3.1223
 1520TIP3    H226120   5.772   3.702   1.166 -0.8426 -0.7310  1.5560
 1521TIP3   OH226121   1.998   4.879   7.621  0.1141 -0.3322  0.4268
 1521TIP3    H126122   1.993   4.864   7.715  0.6439 -0.7224  0.3960
 1521TIP3    H226123   2.080   4.838   7.594  0.5454  0.7795 -0.0220
 1522TIP3   OH226124   4.185   4.936   8.500  0.1244 -0.1839  0.1977
 1522TIP3    H126125   4.257   4.873   8.494 -0.8073 -1.2777  0.0872
 1522TIP3    H226126   4.175   4.970   8.411  0.2063 -0.3902  0.1088
 1523TIP3   OH226127   0.530   1.224   1.132 -0.2313 -0.0055 -0.3026
 1523TIP3    H126128   0.574   1.304   1.103 -0.3044  0.4286  0.7341
 1523TIP3    H226129   0.588   1.153   1.103  0.8252  0.5298  0.4461
 1524TIP3   OH226130   1.607   0.412   0.300  0.1951 -0.7778  0.2367
 1524TIP3    H126131   1.642   0.468   0.232 -1.3965 -1.1066 -0.9087
 1524TIP3    H226132   1.672   0.341   0.309  0.5637 -0.5687 -0.7127
 1525TIP3   OH226133   2.601   4.917   1.688  0.1709 -0.2404 -0.3132
 1525TIP3    H126134   2.637   4.962   1.764 -0.2298 -0.4564  0.0105
 1525TIP3    H226135   2.653   4.837   1.680  0.0018 -0.3803 -0.0577
 1526TIP3   OH226136   4.366   2.342   8.152 -0.4530 -0.0865  0.4230
 1526TIP3    H126137   4.305   2.305   8.216  0.1719 -1.1648  0.4109
 1526TIP3    H226138   4.342   2.301   8.069  0.4656 -0.7670  0.4750
 1527TIP3   OH226139   3.155   3.569   6.645 -0.0141 -0.3519  0.1504
 1527TIP3    H126140   3.067   3.606   6.645  0.0695 -0.1134 -1.2212
 1527TIP3    H226141   3.205   3.626   6.586  1.5599  0.6442  2.2966
 1528TIP3   OH226142   1.590   3.179   6.939 -0.0960  0.2231  0.1655
 1528TIP3    H126143   1.571   3.253   6.997 -0.5845 -1.3760  2.1703
 1528TIP3    H226144   1.629   3.219   6.862  1.8288  2.4115  2.0923
 1529TIP3   OH226145   5.017   1.216   0.397  0.1544  0.0962 -0.0009
 1529TIP3    H126146   4.981   1.210   0.308  0.2311  0.9806 -0.0961
 1529TIP3    H226147   5.048   1.127   0.416  0.5792  0.0004 -1.0537
 1530TIP3   OH226148   1.938   5.554   0.849 -0.0912 -0.4403 -0.1227
 1530TIP3    H126149   1.927   5.648   0.857 -1.5797 -0.5305 -0.8437
 1530TIP3    H226150   1.981   5.542   0.764  0.9748 -0.3841  0.3876
 1531TIP3   OH226151   5.930   0.994   5.945 -0.3463  0.0975 -0.4540
 1531TIP3    H126152   5.876   1.069   5.969 -1.7388 -0.3527 -2.0425
 1531TIP3    H226153   5.876   0.917   5.964  0.4539 -0.4494 -0.3112
 1532TIP3   OH226154   1.510   2.445   8.676 -0.3581  1.0332 -0.4678
 1532TIP3    H126155   1.524   2.431   8.770 -1.5653  1.8224 -0.1422
 1532TIP3    H226156   1.554   2.371   8.634 -2.7730 -1.3589  0.9054
 1533TIP3   OH226157   3.119   1.580   7.384 -0.2759 -0.4315 -0.3154
 1533TIP3    H126158   3.042   1.537   7.346 -0.7526 -0.7346  0.9696
 1533TIP3    H226159   3.122   1.549   7.474  0.9142  0.1858 -0.1272
 1534TIP3   OH226160   3.467   3.019   8.078 -0.5577  0.2334 -0.2976
 1534TIP3    H126161   3.562   3.021   8.092 -0.5627  0.9448 -0.2830
 1534TIP3    H226162   3.455   3.050   7.989 -0.8549  1.9658  0.3015
 1535TIP3   OH226163   4.931   1.378   0.599  0.0686 -0.0584  0.2723
 1535TIP3    H126164   4.954   1.328   0.521 -2.0145 -0.7881  0.0589
 1535TIP3    H226165   4.938   1.315   0.671  0.5779  0.2371  0.4942
 1536TIP3   OH226166   2.396   4.931   7.423  0.6607 -0.2534 -0.0223
 1536TIP3    H126167   2.490   4.940   7.408  1.1046 -2.6420  0.9382
 1536TIP3    H226168   2.374   5.005   7.481  2.3046 -0.6062  1.1139
 1537TIP3   OH226169   1.057   5.942   7.715  0.3811  0.1919 -0.1875
 1537TIP3    H126170   1.013   6.026   7.706  1.4176  0.6701 -0.9639
 1537TIP3    H226171   1.104   5.930   7.633  0.3846 -1.0728 -0.0242
 1538TIP3   OH226172   1.763   4.854   6.815  0.3377 -0.3782  0.1134
 1538TIP3    H126173   1.810   4.790   6.869  0.5196 -0.9625 -0.7073
 1538TIP3    H226174   1.671   4.841   6.836  0.2468 -1.9609 -1.1141
 1539TIP3   OH226175   5.840   4.823   2.051 -0.8247 -0.4148  0.4522
 1539TIP3    H126176   5.746   4.814   2.067 -0.9013 -0.3261  0.0616
 1539TIP3    H226177   5.853   4.791   1.962 -0.4052 -0.8804  0.6725
 1540TIP3   OH226178   0.025   4.497   1.519  0.1699  0.4373 -0.1303
 1540TIP3    H126179   0.116   4.471   1.510 -0.1543 -0.6668 -0.4062
 1540TIP3    H226180   0.022   4.546   1.601  0.6860 -1.1393  0.8808
 1541TIP3   OH226181   6.782   6.608   7.312 -0.4640  0.2303  0.0616
 1541TIP3    H126182   6.872   6.607   7.344 -1.0229 -1.3918  1.8265
 1541TIP3    H226183   6.763   6.517   7.292 -1.3804  0.7149 -1.3880
 1542TIP3   OH226184   0.920   3.401   8.471 -0.7344  0.2143  0.0273
 1542TIP3    H126185   0.860   3.344   8.423 -0.4319 -0.1787  0.1069
 1542TIP3    H226186   0.980   3.340   8.516 -0.3856  0.5957  0.0857
 1543TIP3   OH226187   1.399   1.778   6.830  0.1721  0.2702  0.0635
 1543TIP3    H126188   1.320   1.768   6.778  0.0158  0.9761  0.1545
 1543TIP3    H226189   1.445   1.695   6.821 -2.1482 -1.4516  2.6240
 1544TIP3   OH226190   0.198   0.672   8.524  0.6655  0.3349  0.0004
 1544TIP3    H126191   0.211   0.767   8.533  1.4285  0.4983 -2.2929
 1544TIP3    H226192   0.142   0.649   8.598  0.4566  2.5722  0.6200
 1545TIP3   OH226193   2.242   1.567   2.000  0.6401 -0.8229  0.4481
 1545TIP3    H126194   2.174   1.611   2.052 -0.6855  1.9282 -3.1352
 1545TIP3    H226195   2.207   1.480   1.984 -1.6391  0.1585 -0.3745
 1546TIP3   OH226196   6.068   0.922   2.013  0.6610  0.7305  0.0726
 1546TIP3    H126197   6.025   1.001   1.981 -1.6406  1.3923  4.1380
 1546TIP3    H226198   6.015   0.850   1.977  1.1948  1.0758 -1.5061
 1547TIP3   OH226199   4.370   0.019   7.614  0.2971  0.2097  0.1622
 1547TIP3    H126200   4.278   0.038   7.594  0.4224 -0.4826 -1.1957
 1547TIP3    H226201   4.385   0.059   7.699 -0.9354  1.3886 -0.1410
 1548TIP3   OH226202   2.713   3.691   6.864  0.0319 -0.3326 -0.4361
 1548TIP3    H126203   2.693   3.602   6.896  1.2565 -0.4688  0.0190
 1548TIP3    H226204   2.635   3.742   6.887  0.0004 -0.9097  0.8948
 1549TIP3   OH226205   3.283   1.856   0.635  0.1164  0.0337 -0.0151
 1549TIP3    H126206   3.312   1.765   0.636  1.8756  0.5651  0.4682
 1549TIP3    H226207   3.221   1.861   0.562  0.9165 -1.2664 -0.8118
 1550TIP3   OH226208   1.406   2.740   7.060 -0.3164  0.4270  0.3889
 1550TIP3    H126209   1.355   2.709   6.985 -0.0330 -0.0608  0.3920
 1550TIP3    H226210   1.416   2.834   7.044  0.4335  0.1981 -0.6172
 1551TIP3   OH226211   5.639   1.391   8.370 -0.3194 -0.0405 -0.1940
 1551TIP3    H126212   5.644   1.486   8.359 -0.7547 -0.1282 -1.2457
 1551TIP3    H226213   5.706   1.371   8.435 -1.4134  1.1777  1.3794
 1552TIP3   OH226214   6.491   0.870   1.081 -0.5979  0.0357  0.5361
 1552TIP3    H126215   6.397   0.883   1.066 -0.7400 -0.5844  0.8723
 1552TIP3    H226216   6.503   0.775   1.078  0.1372  0.1413 -0.1687
 1553TIP3   OH226217   3.783   6.553   7.375  0.2157 -0.1468 -0.4958
 1553TIP3    H126218   3.777   6.462   7.346 -2.1148  0.2383 -1.4570
 1553TIP3    H226219   3.724   6.558   7.450  1.1285  0.3630  0.2075
 1554TIP3   OH226220   0.020   3.791   8.399 -0.0029  0.4220 -0.0879
 1554TIP3    H126221   0.070   3.719   8.360  1.3603 -0.2599  2.6513
 1554TIP3    H226222   0.057   3.870   8.359  2.2871 -0.1510  0.7379
 1555TIP3   OH226223   0.582   5.276   0.186 -0.5072  0.3193  0.8474
 1555TIP3    H126224   0.629   5.357   0.206 -0.1165 -0.4233  3.2461
 1555TIP3    H226225   0.641   5.206   0.215 -0.7491 -0.8946 -1.3195
 1556TIP3   OH226226   6.649   4.426   8.332  0.0840 -0.1122 -0.2555
 1556TIP3    H126227   6.558   4.411   8.359  0.5074 -0.2042  1.2353
 1556TIP3    H226228   6.649   4.413   8.237 -1.4971  0.1026 -0.3140
 1557TIP3   OH226229   1.161   2.785   0.238 -0.3367  0.0790  0.2903
 1557TIP3    H126230   1.135   2.763   0.149 -0.3843 -1.5973  0.6780
 1557TIP3    H226231   1.111   2.724   0.293 -0.4715  1.2161  1.4889
 1558TIP3   OH226232   1.823   5.837   6.070 -0.4288 -0.7504  0.3675
 1558TIP3    H126233   1.859   5.749   6.079  0.6662 -0.8295 -3.2119
 1558TIP3    H226234   1.899   5.895   6.079 -0.6038 -0.4099 -0.2803
 1559TIP3   OH226235   4.457   3.896   6.810  0.7629  0.2152  0.3167
 1559TIP3    H126236   4.396   3.968   6.799 -2.0234 -2.0671 -0.6114
 1559TIP3    H226237   4.475   3.866   6.721  0.5335 -1.2009  0.7146
 1560TIP3   OH226238   4.952   3.242   7.349 -0.7619  0.3368  0.2502
 1560TIP3    H126239   4.989   3.198   7.426 -3.7531 -0.8703  1.1473
 1560TIP3    H226240   4.977   3.186   7.275  0.7574  0.6218  0.5076
 1561TIP3   OH226241   6.318   3.166   8.014 -1.2293  0.3285 -0.0261
 1561TIP3    H126242   6.366   3.088   8.042  0.9484  0.0761 -3.7982
 1561TIP3    H226243   6.374   3.239   8.039 -1.6261  0.4661  0.4830
 1562TIP3   OH226244   3.766   2.578   6.992 -0.3363  0.1680 -0.1212
 1562TIP3    H126245   3.779   2.571   6.897 -0.0268 -0.6588 -0.0316
 1562TIP3    H226246   3.727   2.664   7.005  0.3386  0.6136 -0.9243
 1563TIP3   OH226247   0.513   5.269   7.058 -0.3708 -0.1920  0.3915
 1563TIP3    H126248   0.591   5.249   7.006 -0.6992  1.3937 -0.7905
 1563TIP3    H226249   0.523   5.217   7.137  0.2029 -2.6579 -1.2046
 1564TIP3   OH226250   6.757   0.713   1.177 -0.2955 -0.1321  0.0248
 1564TIP3    H126251   6.725   0.802   1.196 -2.5943 -1.0415  0.7705
 1564TIP3    H226252   6.838   0.727   1.128 -0.2184  2.3688  0.7055
 1565TIP3   OH226253   1.548   5.418   7.017  0.4655  0.5128  0.0729
 1565TIP3    H126254   1.474   5.375   6.973  0.5637 -0.4300  0.8059
 1565TIP3    H226255   1.516   5.437   7.105  1.1883 -0.1926  0.4968
 1566TIP3   OH226256   5.394   0.799   0.972  0.0663  0.3863 -0.0171
 1566TIP3    H126257   5.413   0.782   0.880  0.7400 -0.6613  0.2883
 1566TIP3    H226258   5.298   0.795   0.978  0.0702 -0.7607 -0.4648
 1567TIP3   OH226259   0.341   2.112   8.255 -0.3042  0.1320  0.4398
 1567TIP3    H126260   0.350   2.181   8.321  0.2090  0.8351 -0.3392
 1567TIP3    H226261   0.250   2.085   8.261 -0.2051  0.0172  1.5991
 1568TIP3   OH226262   0.545   5.969   8.387 -0.0048 -0.2267  0.3169
 1568TIP3    H126263   0.465   5.916   8.392 -1.1215  1.4475  1.5525
 1568TIP3    H226264   0.552   6.009   8.474  1.8994  0.1079  0.0536
 1569TIP3   OH226265   3.461   5.925   5.623  0.1278 -0.1274 -0.1770
 1569TIP3    H126266   3.536   5.884   5.580  0.0212 -0.7122  0.1878
 1569TIP3    H226267   3.496   5.957   5.707  0.4771  1.5275 -0.9035
 1570TIP3   OH226268   1.231   0.257   7.878 -0.2358  0.1975 -0.7505
 1570TIP3    H126269   1.141   0.259   7.910  0.2632 -0.3468  0.7582
 1570TIP3    H226270   1.226   0.295   7.790 -2.0969 -0.8634 -1.1472
 1571TIP3   OH226271   2.182   1.467   1.308 -0.5679  0.1474  0.0374
 1571TIP3    H126272   2.173   1.381   1.266 -1.2132  0.5514 -0.6757
 1571TIP3    H226273   2.223   1.448   1.392 -2.4548 -1.1313  0.7529
 1572TIP3   OH226274   4.877   6.558   7.311  0.6012 -0.3494  0.1334
 1572TIP3    H126275   4.884   6.463   7.325  0.4935 -0.3678  0.0634
 1572TIP3    H226276   4.827   6.589   7.386 -1.1018 -0.6278 -0.8499
 1573TIP3   OH226277   2.675   5.097   1.148 -0.7931  0.3844  0.5309
 1573TIP3    H126278   2.764   5.068   1.168 -1.0193 -2.7154 -2.0982
 1573TIP3    H226279   2.647   5.040   1.076 -4.6901  1.6875  0.7851
 1574TIP3   OH226280   0.879   4.840   8.122  0.3275  0.3700 -0.3268
 1574TIP3    H126281   0.863   4.816   8.213  0.7248  0.1094 -0.3241
 1574TIP3    H226282   0.973   4.826   8.109  0.5366  1.7186 -0.3831
 1575TIP3   OH226283   6.033   6.109   8.682 -0.2117  0.0779  0.6040
 1575TIP3    H126284   6.096   6.060   8.735  0.5924  0.4207 -0.0158
 1575TIP3    H226285   6.005   6.047   8.614  1.8390  0.8098 -1.0199
 1576TIP3   OH226286   2.475   5.529   7.101  0.3555 -0.0064  0.4483
 1576TIP3    H126287   2.535   5.463   7.069 -0.1411 -0.8263  1.1590
 1576TIP3    H226288   2.488   5.604   7.043  1.4050 -0.4855  0.0470
 1577TIP3   OH226289   1.344   6.142   6.772 -0.1150 -0.6851  0.0565
 1577TIP3    H126290   1.318   6.192   6.695 -2.1773 -0.3335  0.9043
 1577TIP3    H226291   1.436   6.120   6.757 -0.2392  0.0439 -2.1126
 1578TIP3   OH226292   4.993   4.341   0.402 -0.1269 -0.1617 -0.2150
 1578TIP3    H126293   4.997   4.256   0.359  1.8920 -0.4909  0.4868
 1578TIP3    H226294   4.991   4.321   0.496  1.8443  0.5087  0.0247
 1579TIP3   OH226295   6.291   5.484   7.165  0.0157  0.2825  0.1330
 1579TIP3    H126296   6.385   5.473   7.178  0.0611  0.4198 -0.0813
 1579TIP3    H226297   6.269   5.420   7.097  0.0907  0.7730 -0.3581
 1580TIP3   OH226298   4.204   0.986   0.220  0.0804  0.4807  0.5502
 1580TIP3    H126299   4.235   0.990   0.310 -0.1310  0.6091  0.6187
 1580TIP3    H226300   4.249   0.911   0.182 -0.7294 -0.3013  1.1047
 1581TIP3   OH226301   1.963   2.163   7.376 -0.0343  0.5707 -0.2856
 1581TIP3    H126302   1.994   2.248   7.408 -0.6967  1.0727 -0.9422
 1581TIP3    H226303   1.867   2.172   7.376 -0.0745  0.1900 -1.3370
 1582TIP3   OH226304   5.187   3.719   6.454 -0.6961  0.8734  0.0624
 1582TIP3    H126305   5.194   3.635   6.499 -1.0736  0.5429 -0.4774
 1582TIP3    H226306   5.160   3.781   6.522  0.6899  0.8053  0.7086
 1583TIP3   OH226307   4.415   3.874   7.644 -0.8307 -0.0983 -0.1165
 1583TIP3    H126308   4.345   3.906   7.587  1.1315  1.1226 -1.9694
 1583TIP3    H226309   4.466   3.816   7.587 -0.2406 -0.8842  1.1802
 1584TIP3   OH226310   5.169   0.999   0.544  0.0656 -0.2939 -0.7664
 1584TIP3    H126311   5.179   1.037   0.631  2.7652 -1.5792 -0.4368
 1584TIP3    H226312   5.075   0.982   0.536 -0.2344 -0.2583  1.9216
 1585TIP3   OH226313   5.425   3.611   0.236  0.5970 -0.2426 -0.2702
 1585TIP3    H126314   5.335   3.579   0.248  0.1489  1.1899  0.4814
 1585TIP3    H226315   5.477   3.558   0.297 -0.2355  0.8399  1.4649
 1586TIP3   OH226316   4.166   2.393   1.346  0.3211 -0.1255  0.4699
 1586TIP3    H126317   4.141   2.350   1.428 -0.1476  0.5050  0.6603
 1586TIP3    H226318   4.085   2.431   1.312  0.5230 -0.3327 -0.2619
 1587TIP3   OH226319   5.516   1.771   7.888 -0.0764 -0.5051 -0.6271
 1587TIP3    H126320   5.565   1.829   7.947 -0.7346  2.3724 -2.6975
 1587TIP3    H226321   5.559   1.780   7.804 -1.9773 -0.7261 -1.6829
 1588TIP3   OH226322   2.162   2.557   8.401  0.5397 -0.2611  0.2102
 1588TIP3    H126323   2.092   2.534   8.463 -0.0837 -3.6256 -1.4865
 1588TIP3    H226324   2.243   2.541   8.449  0.1181  0.4025  1.1626
 1589TIP3   OH226325   6.015   6.756   7.049 -1.9952 -0.8011 -0.6895
 1589TIP3    H126326   6.060   6.747   7.133 -0.4416  0.6448 -1.3136
 1589TIP3    H226327   6.008   6.666   7.016  0.1074 -1.1549 -0.3579
 1590TIP3   OH226328   4.598   3.164   1.550 -0.1221  0.5152  0.4766
 1590TIP3    H126329   4.504   3.154   1.542 -0.2991  1.3976  1.3066
 1590TIP3    H226330   4.610   3.227   1.620  1.0661  1.1661 -0.2789
 1591TIP3   OH226331   4.110   6.036   8.796 -0.4099  0.1897 -0.0746
 1591TIP3    H126332   4.065   5.982   8.860 -0.0406  1.2347  1.1081
 1591TIP3    H226333   4.039   6.083   8.751 -0.6462 -0.2095 -0.1275
 1592TIP3   OH226334   2.201   5.666   6.794 -0.3423  0.9222 -0.4672
 1592TIP3    H126335   2.279   5.631   6.751 -0.2183  0.0377  0.4677
 1592TIP3    H226336   2.211   5.761   6.786  0.4454  0.8077 -1.0158
 1593TIP3   OH226337   2.891   4.733   8.436  0.2295  0.4562  0.3268
 1593TIP3    H126338   2.900   4.707   8.528  0.8446 -0.8194 -0.0756
 1593TIP3    H226339   2.888   4.829   8.439  0.0974  0.4329  1.6854
 1594TIP3   OH226340   3.931   1.965   1.400  0.2927 -0.2489  0.4924
 1594TIP3    H126341   3.912   2.052   1.365 -1.0787 -0.9424 -0.5901
 1594TIP3    H226342   3.957   1.980   1.491  2.6954  1.5042 -0.3969
 1595TIP3   OH226343   1.774   1.394   6.414 -0.8482 -0.0072 -0.8911
 1595TIP3    H126344   1.803   1.478   6.449 -2.2177  0.0877  0.0752
 1595TIP3    H226345   1.697   1.414   6.362 -0.4275 -0.5140 -1.7350
 1596TIP3   OH226346   4.085   4.644   6.508  0.1354 -0.6184  0.2461
 1596TIP3    H126347   4.055   4.657   6.418  1.9995 -0.7981 -0.4420
 1596TIP3    H226348   4.005   4.623   6.557 -0.9573 -0.2442 -1.2932
 1597TIP3   OH226349   6.728   2.708   8.170  0.2589  0.0137  0.6877
 1597TIP3    H126350   6.792   2.777   8.190 -0.3184  0.3127  1.5936
 1597TIP3    H226351   6.643   2.747   8.191 -0.3668  0.0349 -1.6284
 1598TIP3   OH226352   2.875   1.422   8.212  0.2427 -0.7475  0.1009
 1598TIP3    H126353   2.845   1.393   8.298 -2.6835 -0.4340 -0.6965
 1598TIP3    H226354   2.820   1.374   8.150  1.1039  0.2905 -1.5480
 1599TIP3   OH226355   5.191   2.742   8.203 -0.0453 -0.2005 -0.1839
 1599TIP3    H126356   5.119   2.768   8.144 -0.0052  0.0816 -0.1115
 1599TIP3    H226357   5.260   2.806   8.184  0.5618 -1.0643 -0.9584
 1600TIP3   OH226358   3.561   1.211   6.395 -0.1971 -0.5022 -0.3449
 1600TIP3    H126359   3.509   1.252   6.465  0.5522 -0.4974  0.2171
 1600TIP3    H226360   3.634   1.170   6.440  1.0994  0.7204 -1.2323
 1601TIP3   OH226361   4.026   3.962   7.272  0.0476  0.7361 -0.6756
 1601TIP3    H126362   4.043   3.942   7.364 -1.6763  1.6393 -0.1269
 1601TIP3    H226363   4.005   4.055   7.270 -2.0731  0.2952 -1.6328
 1602TIP3   OH226364   5.494   5.290   8.099  0.1012 -0.8576  0.2884
 1602TIP3    H126365   5.587   5.268   8.094  0.3775  0.1682  0.7386
 1602TIP3    H226366   5.478   5.312   8.191 -0.1345  0.8159 -0.1180
 1603TIP3   OH226367   4.970   0.966   1.342 -0.1257 -0.4338  0.1979
 1603TIP3    H126368   4.962   0.871   1.351  1.2423 -0.8618 -2.2432
 1603TIP3    H226369   4.991   0.996   1.431  1.5757 -2.7063  0.6735
 1604TIP3   OH226370   1.494   0.063   6.829 -0.5502  0.4614 -0.4500
 1604TIP3    H126371   1.548  -0.011   6.802 -0.4731  0.3174  0.0788
 1604TIP3    H226372   1.555   0.123   6.873 -0.7335  0.5091 -0.2555
 1605TIP3   OH226373   4.093   5.068   0.690  0.1856  0.5218 -0.7127
 1605TIP3    H126374   4.038   4.990   0.700 -1.3228  1.7792  1.7373
 1605TIP3    H226375   4.168   5.052   0.746 -0.4867  1.0975  0.3738
 1606TIP3   OH226376   1.917   3.254   0.440  0.7329  0.4481 -0.0836
 1606TIP3    H126377   1.961   3.170   0.453  1.2137  0.9197  1.5171
 1606TIP3    H226378   1.987   3.319   0.447 -0.0332  1.1460  1.5553
 1607TIP3   OH226379   5.834   4.985   1.610  0.2306 -0.0839 -0.1553
 1607TIP3    H126380   5.749   4.976   1.566 -0.0517 -0.4868  0.4671
 1607TIP3    H226381   5.894   4.934   1.555 -0.3784 -1.7043  0.6035
 1608TIP3   OH226382   1.408   1.457   7.777 -0.4115 -0.2857  0.3729
 1608TIP3    H126383   1.357   1.473   7.856 -1.2475 -0.1968 -0.1822
 1608TIP3    H226384   1.433   1.364   7.783  0.4782 -0.0082  1.2761
 1609TIP3   OH226385   1.254   6.349   8.468  0.3772 -0.1515  0.3687
 1609TIP3    H126386   1.292   6.436   8.474  0.7987 -0.0897 -1.9783
 1609TIP3    H226387   1.291   6.300   8.541 -0.4932  1.8264  2.2106
 1610TIP3   OH226388   2.988   0.459   6.609  0.0990  0.0051  0.3981
 1610TIP3    H126389   3.039   0.478   6.530  0.2678  0.5961  0.6453
 1610TIP3    H226390   2.996   0.364   6.620  1.2087  0.0933  0.4695
 1611TIP3   OH226391   0.145   3.467   0.875 -0.0256  0.0957  0.1810
 1611TIP3    H126392   0.065   3.418   0.895 -0.1662  0.5081  0.6488
 1611TIP3    H226393   0.116   3.557   0.862  0.5135  0.5543  1.8136
 1612TIP3   OH226394   4.757   0.616   8.472 -0.4434 -0.0355  0.0438
 1612TIP3    H126395   4.790   0.537   8.431 -1.0553 -1.8266  2.7724
 1612TIP3    H226396   4.836   0.665   8.496  0.0498 -1.2414  0.9385
 1613TIP3   OH226397   5.803   2.099   1.259 -0.2393 -0.4144  0.1807
 1613TIP3    H126398   5.777   2.131   1.172  1.0125 -0.6345 -0.2877
 1613TIP3    H226399   5.861   2.025   1.241  0.4136 -0.1671  1.1913
 1614TIP3   OH226400   2.396   1.775   8.543  0.1345  0.3621 -0.5975
 1614TIP3    H126401   2.451   1.794   8.620  1.7305 -1.4667 -1.2113
 1614TIP3    H226402   2.417   1.684   8.520 -2.1116  0.0711 -1.7673
 1615TIP3   OH226403   1.919   3.186   8.525  0.7077  0.1177  1.1768
 1615TIP3    H126404   1.985   3.256   8.525  1.3757 -0.3995 -1.2011
 1615TIP3    H226405   1.848   3.220   8.470  0.3129 -0.4494  1.3301
 1616TIP3   OH226406   5.923   3.724   0.682  0.5051 -0.1185  0.2706
 1616TIP3    H126407   5.890   3.664   0.749 -2.8263  1.0531 -0.1302
 1616TIP3    H226408   5.869   3.707   0.606  0.0907  2.6563 -0.1636
 1617TIP3   OH226409   2.683   5.664   0.503 -0.2909 -0.5055 -0.1305
 1617TIP3    H126410   2.698   5.570   0.496  1.7946 -0.3052  0.8542
 1617TIP3    H226411   2.733   5.702   0.431  0.9092 -0.0337  0.9165
 1618TIP3   OH226412   3.028   3.687   6.223  0.3989 -0.2526 -0.4030
 1618TIP3    H126413   3.044   3.648   6.137  0.0296 -2.8824  0.6415
 1618TIP3    H226414   3.024   3.781   6.206 -1.3008 -0.7526 -3.5364
 1619TIP3   OH226415   2.523   2.141   0.660  0.1343 -0.0451 -0.0963
 1619TIP3    H126416   2.477   2.143   0.743  1.0913 -0.0902  0.4484
 1619TIP3    H226417   2.471   2.083   0.605 -1.5990  1.5500 -0.2160
 1620TIP3   OH226418   1.475   3.457   7.424  0.3357  0.0171 -0.3443
 1620TIP3    H126419   1.476   3.447   7.329 -0.0741  0.0975 -0.3619
 1620TIP3    H226420   1.519   3.540   7.441  0.9038 -0.2641 -0.4226
 1621TIP3   OH226421   3.379   4.652   7.484  0.2018  0.1261 -0.7266
 1621TIP3    H126422   3.405   4.648   7.392  1.2108 -2.3423 -0.4022
 1621TIP3    H226423   3.293   4.611   7.487  0.3594 -0.1946 -0.5198
 1622TIP3   OH226424   4.472   4.519   0.446  0.6866 -0.0820  0.6876
 1622TIP3    H126425   4.558   4.488   0.472  1.4204  1.4227  0.1487
 1622TIP3    H226426   4.484   4.612   0.427 -1.1222  0.2536  0.9265
 1623TIP3   OH226427   0.912   4.025   7.599 -0.1444  0.6566 -0.2186
 1623TIP3    H126428   0.953   3.947   7.638 -2.1567  0.1649  1.0412
 1623TIP3    H226429   0.929   4.016   7.505  2.8907  0.7015  0.2216
 1624TIP3   OH226430   4.696   4.701   0.736 -0.2528 -0.2042 -0.0628
 1624TIP3    H126431   4.606   4.727   0.756 -0.1371  0.6687 -0.6309
 1624TIP3    H226432   4.687   4.636   0.666 -0.4044  0.7400 -0.9437
 1625TIP3   OH226433   1.216   4.629   1.617  0.2037  0.5214 -0.1413
 1625TIP3    H126434   1.138   4.669   1.656  0.8774  1.4081  0.3269
 1625TIP3    H226435   1.185   4.545   1.584 -0.6380  0.1769  1.4009
 1626TIP3   OH226436   1.707   2.820   0.085  0.2321 -0.2869 -0.1400
 1626TIP3    H126437   1.780   2.870   0.049 -0.1776 -0.2204 -0.8959
 1626TIP3    H226438   1.630   2.872   0.065 -0.1349 -0.8961 -0.3458
 1627TIP3   OH226439   4.720   5.110   6.563 -0.4940  0.1791  0.3537
 1627TIP3    H126440   4.721   5.032   6.618  1.1690  1.1128  1.7534
 1627TIP3    H226441   4.751   5.080   6.478  2.5807 -0.3537  1.5071
 1628TIP3   OH226442   4.834   3.922   0.400  0.0961 -0.0917  0.5040
 1628TIP3    H126443   4.743   3.953   0.398 -0.2158 -0.9106  1.1748
 1628TIP3    H226444   4.827   3.828   0.379  0.9212  0.0808 -0.6636
 1629TIP3   OH226445   4.092   3.185   0.269  0.0370 -0.3817 -0.5530
 1629TIP3    H126446   4.087   3.158   0.178  0.4037 -1.3149 -0.3111
 1629TIP3    H226447   4.097   3.280   0.266 -2.9647 -0.1447 -1.3884
 1630TIP3   OH226448   4.933   4.882   7.015  0.2328 -0.2412 -0.1687
 1630TIP3    H126449   4.962   4.886   7.106  0.1832  1.8172 -0.2107
 1630TIP3    H226450   4.837   4.886   7.020  0.1426 -1.7241 -0.2711
 1631TIP3   OH226451   5.457   1.933   8.388 -0.0033  0.5929  0.0133
 1631TIP3    H126452   5.527   1.869   8.398  0.4194  1.0395 -0.0465
 1631TIP3    H226453   5.385   1.898   8.440  0.2952  0.1720  0.1454
 1632TIP3   OH226454   4.258   1.732   0.908  0.1357 -0.3929  0.2227
 1632TIP3    H126455   4.267   1.646   0.949 -0.3091 -0.7835 -0.4576
 1632TIP3    H226456   4.348   1.761   0.892  0.4204 -2.5198 -3.0766
 1633TIP3   OH226457   2.795   4.880   7.096  0.1639 -0.5959 -0.3569
 1633TIP3    H126458   2.808   4.825   7.018 -1.0518 -0.1393 -0.8981
 1633TIP3    H226459   2.721   4.841   7.141  0.4042 -0.4240  0.1967
 1634TIP3   OH226460   4.095   3.072   0.021  0.0482  0.5606  0.1828
 1634TIP3    H126461   4.033   2.998   0.014 -1.8931  1.9719  1.4046
 1634TIP3    H226462   4.181   3.030   0.021 -0.8773 -1.5495 -1.1549
 1635TIP3   OH226463   3.477   5.247   1.859 -0.3480  0.0741  0.1596
 1635TIP3    H126464   3.511   5.184   1.795  0.5127 -0.7573  1.3814
 1635TIP3    H226465   3.396   5.207   1.891 -0.5754  0.3044 -0.1233
 1636TIP3   OH226466   4.153   2.214   8.282 -0.0401 -0.8701  0.1343
 1636TIP3    H126467   4.115   2.204   8.369  0.6826  3.0707  1.0611
 1636TIP3    H226468   4.078   2.237   8.226  0.1497  2.5240  1.0713
 1637TIP3   OH226469   5.819   4.194   7.686  0.3843  0.5631  1.0322
 1637TIP3    H126470   5.903   4.147   7.686 -0.0867 -0.5311 -2.3331
 1637TIP3    H226471   5.837   4.275   7.639 -0.1107  1.1900  1.8779
 1638TIP3   OH226472   0.597   4.084   0.348 -0.2069 -0.2085  0.2970
 1638TIP3    H126473   0.645   4.133   0.414  3.2711 -1.5803 -0.9915
 1638TIP3    H226474   0.649   4.004   0.335 -2.1561 -1.1987 -2.2226
 1639TIP3   OH226475   5.770   5.476   0.743 -0.7575 -0.1651  0.2526
 1639TIP3    H126476   5.862   5.449   0.744 -0.7093 -0.0581 -0.5454
 1639TIP3    H226477   5.756   5.516   0.829 -0.4023 -1.2962  0.8530
 1640TIP3   OH226478   3.079   5.326   5.952 -0.1923  0.2508 -0.2736
 1640TIP3    H126479   3.046   5.378   6.025 -0.9617 -0.3478 -0.1846
 1640TIP3    H226480   3.001   5.290   5.910  0.2528  0.4594 -1.3012
 1641TIP3   OH226481   5.100   5.267   7.963 -0.4294 -0.4117 -0.0268
 1641TIP3    H126482   5.006   5.267   7.979 -0.5153  0.7713 -0.4479
 1641TIP3    H226483   5.123   5.359   7.953  1.0764 -0.5280  1.7436
 1642TIP3   OH226484   6.503   5.839   0.855  0.2747  0.5070  0.9113
 1642TIP3    H126485   6.503   5.747   0.830  2.0464  1.1518 -1.9195
 1642TIP3    H226486   6.546   5.841   0.940  0.8980 -1.2378  0.6739
 1643TIP3   OH226487   0.654   4.284   1.676 -0.1755 -0.4266 -0.0949
 1643TIP3    H126488   0.560   4.288   1.659  0.1700  0.3356 -2.0279
 1643TIP3    H226489   0.670   4.195   1.709 -1.6105 -0.4156  0.6894
 1644TIP3   OH226490   5.791   4.592   1.315  0.3137 -0.0137 -0.2872
 1644TIP3    H126491   5.854   4.656   1.281  0.0815  0.0540 -0.5916
 1644TIP3    H226492   5.833   4.557   1.394 -0.3966  1.9377  1.0216
 1645TIP3   OH226493   0.735   2.475   1.470 -0.2931 -0.4651 -0.4033
 1645TIP3    H126494   0.645   2.442   1.466 -0.4785  0.1146 -1.4865
 1645TIP3    H226495   0.765   2.475   1.379 -0.1642  1.9142 -0.4245
 1646TIP3   OH226496   4.790   0.942   6.688 -0.0632  0.1580 -0.4272
 1646TIP3    H126497   4.709   0.941   6.738 -0.6929  0.1625 -1.4206
 1646TIP3    H226498   4.821   0.852   6.689 -0.7832 -0.1101 -1.1354
 1647TIP3   OH226499   3.639   6.067   0.060 -0.0386  0.4751  0.5237
 1647TIP3    H126500   3.640   6.052  -0.034  0.7233  0.6706  0.4933
 1647TIP3    H226501   3.560   6.023   0.091 -0.8286  1.2541 -0.3357
 1648TIP3   OH226502   0.067   6.104   7.640  0.5132 -0.6191  0.1258
 1648TIP3    H126503  -0.016   6.080   7.681 -0.5654  2.5639  0.0839
 1648TIP3    H226504   0.082   6.034   7.576 -3.3626 -0.2855 -1.4611
 1649TIP3   OH226505   2.805   3.094   7.427  0.4113 -0.9538 -0.2823
 1649TIP3    H126506   2.869   3.121   7.493 -0.7740  0.3979  0.3530
 1649TIP3    H226507   2.812   3.161   7.358 -1.9435  0.6193  0.9011
 1650TIP3   OH226508   5.641   3.798   0.169  0.1334  0.2868 -0.1627
 1650TIP3    H126509   5.569   3.736   0.181  0.4981 -0.1803 -0.3497
 1650TIP3    H226510   5.604   3.883   0.191 -0.7374  0.1831 -1.1737
 1651TIP3   OH226511   6.599   0.748   6.336 -0.2657 -0.4923 -0.1172
 1651TIP3    H126512   6.547   0.769   6.413 -1.0401 -1.5222 -0.3264
 1651TIP3    H226513   6.688   0.739   6.369 -0.0337  2.0060  0.1250
 1652TIP3   OH226514   5.772   4.218   1.349  0.0719  0.5334 -0.2850
 1652TIP3    H126515   5.811   4.171   1.275 -0.7170  0.0275 -0.3899
 1652TIP3    H226516   5.841   4.278   1.378  0.5283  0.4670 -1.1847
 1653TIP3   OH226517   2.147   1.865   7.995 -0.3609  0.5624 -0.7000
 1653TIP3    H126518   2.138   1.771   8.010  1.2766  0.6290  1.0963
 1653TIP3    H226519   2.124   1.877   7.903 -2.1178 -1.3431 -0.5914
 1654TIP3   OH226520   2.354   0.757   5.753  0.1942 -0.2668 -0.5690
 1654TIP3    H126521   2.260   0.737   5.751  0.6639 -2.8283 -1.1024
 1654TIP3    H226522   2.380   0.735   5.843  0.1954  1.0084 -0.2490
 1655TIP3   OH226523   5.088   5.646   8.256 -0.1276 -0.4426  0.5206
 1655TIP3    H126524   5.085   5.738   8.282 -0.2291 -0.0576 -0.8157
 1655TIP3    H226525   5.000   5.628   8.222  0.5295 -0.3790 -1.3253
 1656TIP3   OH226526   4.150   6.525   8.632  0.0775 -0.0935 -0.2598
 1656TIP3    H126527   4.152   6.455   8.697 -0.8681  0.6632  0.6080
 1656TIP3    H226528   4.063   6.564   8.641  0.2417  0.5807 -1.3919
 1657TIP3   OH226529   3.765   4.637   7.026  0.2146  0.6420 -0.4059
 1657TIP3    H126530   3.735   4.550   7.002 -1.6235  1.2226 -0.4073
 1657TIP3    H226531   3.845   4.622   7.077 -0.9250 -1.1600  0.9982
 1658TIP3   OH226532   3.689   5.677   1.310 -0.4014 -0.3182  0.0086
 1658TIP3    H126533   3.716   5.754   1.360  0.5492  0.5979 -1.8551
 1658TIP3    H226534   3.608   5.703   1.266 -0.3652 -0.5739 -0.2143
 1659TIP3   OH226535   0.263   6.118   1.229 -0.3633  0.6121  0.4339
 1659TIP3    H126536   0.209   6.191   1.199 -2.2671  0.0772  2.3215
 1659TIP3    H226537   0.200   6.056   1.267  1.3818 -1.1505  0.5970
 1660TIP3   OH226538   1.693   2.357   7.088 -0.5152 -0.2210 -0.2544
 1660TIP3    H126539   1.608   2.400   7.084 -0.6143  0.0580  2.5859
 1660TIP3    H226540   1.673   2.264   7.095 -0.5389 -0.2376 -0.5331
 1661TIP3   OH226541   1.964   3.429   7.375 -0.7471 -0.1961 -0.0000
 1661TIP3    H126542   1.905   3.359   7.351  0.2325 -0.5533 -1.5388
 1661TIP3    H226543   1.968   3.427   7.471 -4.5881  1.0506  0.3496
 1662TIP3   OH226544   4.817   4.920   0.129 -0.1282  0.1347 -0.1349
 1662TIP3    H126545   4.851   4.866   0.200 -1.3993  0.1161  0.4846
 1662TIP3    H226546   4.869   5.001   0.133  0.7326 -0.4071 -0.0812
 1663TIP3   OH226547   1.190   1.552   8.348  0.6683 -0.1251 -0.0987
 1663TIP3    H126548   1.190   1.495   8.425 -1.7436 -0.6290 -0.3827
 1663TIP3    H226549   1.253   1.621   8.368 -1.0583  0.7090  3.1078
 1664TIP3   OH226550   6.324   0.150   7.245  0.0997 -0.2822 -0.4831
 1664TIP3    H126551   6.307   0.240   7.275  2.0979 -0.0914  0.2000
 1664TIP3    H226552   6.412   0.131   7.275 -0.5049 -2.7418 -0.0796
 1665TIP3   OH226553   3.342   1.969   7.186 -0.4820 -0.1845 -0.3155
 1665TIP3    H126554   3.406   2.032   7.220 -0.8991  0.1528 -0.1478
 1665TIP3    H226555   3.388   1.885   7.188 -0.2700 -0.0586  0.4408
 1666TIP3   OH226556   5.832   4.155   8.510 -0.2976  0.3967  0.4991
 1666TIP3    H126557   5.817   4.148   8.416  1.9467 -0.1139  0.1205
 1666TIP3    H226558   5.809   4.068   8.545  0.8322 -0.0863  0.0812
 1667TIP3   OH226559   5.561   2.526   7.786  0.2245 -0.0492 -0.6805
 1667TIP3    H126560   5.527   2.572   7.863 -0.6859 -0.5160 -0.7961
 1667TIP3    H226561   5.545   2.587   7.713 -0.9528 -0.5057 -0.8285
 1668TIP3   OH226562   5.652   4.167   0.550  0.2580 -0.2304 -0.3828
 1668TIP3    H126563   5.682   4.253   0.521  0.1573  0.6652  1.9853
 1668TIP3    H226564   5.717   4.106   0.515  2.9463  1.2911  1.6243
 1669TIP3   OH226565   5.223   2.711   6.475  0.2297  0.2688  0.4146
 1669TIP3    H126566   5.202   2.791   6.428  2.1890  0.6369  0.1119
 1669TIP3    H226567   5.137   2.671   6.493 -0.7024  1.6765 -0.6986
 1670TIP3   OH226568   6.008   0.609   0.453  0.1328 -0.3596 -0.2222
 1670TIP3    H126569   5.913   0.619   0.459 -0.1026 -0.2751 -2.7398
 1670TIP3    H226570   6.036   0.682   0.398  1.7672 -0.0638  0.9453
 1671TIP3   OH226571   1.559   0.092   6.440 -0.2165 -0.0998  0.3127
 1671TIP3    H126572   1.542   0.187   6.442 -1.2741 -0.2066  3.6190
 1671TIP3    H226573   1.472   0.053   6.431 -0.4279 -0.6396  3.3990
 1672TIP3   OH226574   1.594   3.358   7.967  0.1063  0.2628  0.6974
 1672TIP3    H126575   1.534   3.430   7.943 -2.3821 -1.5452  1.0703
 1672TIP3    H226576   1.681   3.397   7.961 -1.0207  2.8840 -0.6030
 1673TIP3   OH226577   1.258   2.789   6.534  0.4352 -0.6374  0.3881
 1673TIP3    H126578   1.325   2.856   6.524 -0.4782  0.2751  0.2354
 1673TIP3    H226579   1.248   2.751   6.447  0.8282 -0.8618  0.4379
 1674TIP3   OH226580   0.410   0.693   8.792  0.1183  0.2681  0.0491
 1674TIP3    H126581   0.315   0.692   8.787  0.1338  0.8498 -0.4909
 1674TIP3    H226582   0.436   0.601   8.783 -0.3569  0.1888 -0.5661
 1675TIP3   OH226583   0.110   6.354   1.454 -0.1313  0.5313 -0.0134
 1675TIP3    H126584   0.081   6.387   1.539 -0.0621  1.3416 -0.2969
 1675TIP3    H226585   0.150   6.270   1.473  0.2329  0.8805  0.8110
 1676TIP3   OH226586   0.471   0.250   7.008 -0.5510 -0.1552  0.2243
 1676TIP3    H126587   0.471   0.199   6.927  1.3868 -0.4789  0.3755
 1676TIP3    H226588   0.541   0.314   6.997  0.6786 -1.0746  2.1184
 1677TIP3   OH226589   5.916   5.904   0.620 -0.3703  0.3229 -0.3493
 1677TIP3    H126590   5.821   5.896   0.631 -0.3803  1.6877  1.0145
 1677TIP3    H226591   5.936   5.858   0.538 -1.8303 -2.2666  0.6152
 1678TIP3   OH226592   4.812   6.400   0.795 -0.3592 -0.1106 -0.0391
 1678TIP3    H126593   4.762   6.411   0.875  0.4433 -3.4780  1.0746
 1678TIP3    H226594   4.899   6.434   0.815 -0.5883  0.4928 -0.0491
 1679TIP3   OH226595   6.451   3.960   7.745 -0.1038 -0.0544 -0.2585
 1679TIP3    H126596   6.516   4.029   7.750  0.5539 -0.6160 -0.7868
 1679TIP3    H226597   6.492   3.885   7.789 -0.3387 -0.4519 -0.7079
 1680TIP3   OH226598   3.963   3.531   8.134  0.5605  0.0589  0.3405
 1680TIP3    H126599   4.057   3.511   8.125  0.4942 -0.0368 -0.1729
 1680TIP3    H226600   3.952   3.614   8.088  0.3952  0.0835  0.4257
 1681TIP3   OH226601   2.229   2.696   0.756  0.0467 -0.2206  0.3740
 1681TIP3    H126602   2.189   2.739   0.680 -1.3718  0.0175  1.2120
 1681TIP3    H226603   2.262   2.769   0.809  1.4020 -0.4041 -0.1790
 1682TIP3   OH226604   1.426   2.882   0.072  0.1631 -0.8924 -0.3969
 1682TIP3    H126605   1.372   2.804   0.088 -0.4412 -0.4820 -0.3754
 1682TIP3    H226606   1.406   2.940   0.146  0.0866 -0.4453 -0.7644
 1683TIP3   OH226607   5.834   3.054   6.053 -0.2574 -0.5607 -0.3113
 1683TIP3    H126608   5.817   2.962   6.033  1.8187 -0.7843 -1.2489
 1683TIP3    H226609   5.832   3.098   5.968  0.7885 -0.1134 -0.1122
 1684TIP3   OH226610   2.269   3.196   0.585  0.6019 -0.2564  0.3721
 1684TIP3    H126611   2.285   3.211   0.492 -1.3161 -0.4003 -0.0238
 1684TIP3    H226612   2.353   3.214   0.627  1.1002  1.3563 -1.2062
 1685TIP3   OH226613   1.358   2.002   6.308 -0.0350  0.4018  0.2565
 1685TIP3    H126614   1.314   1.928   6.349 -1.0893  1.1450  0.4982
 1685TIP3    H226615   1.290   2.068   6.296  0.8374  1.2700 -0.1258
 1686TIP3   OH226616   4.610   5.007   0.619 -0.4448  0.6155  0.2789
 1686TIP3    H126617   4.583   5.074   0.556  1.1294  0.3218 -0.7626
 1686TIP3    H226618   4.634   4.932   0.566  0.6778  0.2674  1.2418
 1687TIP3   OH226619   0.887   6.409   0.469 -0.3122 -0.2795 -0.1921
 1687TIP3    H126620   0.868   6.345   0.537 -1.1295 -1.4943 -1.5181
 1687TIP3    H226621   0.951   6.367   0.412 -0.4232  0.3089 -0.7670
 1688TIP3   OH226622   6.294   5.520   0.314  0.3029  0.1275 -0.4469
 1688TIP3    H126623   6.384   5.543   0.294  0.7561 -1.8743 -0.9209
 1688TIP3    H226624   6.290   5.425   0.303 -1.4462 -0.0548  1.2358
 1689TIP3   OH226625   6.566   4.351   7.433 -0.1899 -0.1614 -0.3033
 1689TIP3    H126626   6.659   4.362   7.450 -0.2823  1.3078 -0.6036
 1689TIP3    H226627   6.543   4.269   7.477  1.7123 -1.8552 -2.2550
 1690TIP3   OH226628   2.007   3.692   0.980 -0.6669  0.3283 -0.2746
 1690TIP3    H126629   2.026   3.723   1.069 -0.7864  0.0518 -0.1521
 1690TIP3    H226630   2.092   3.685   0.939 -0.5726 -0.0269 -0.0204
 1691TIP3   OH226631   2.980   1.756   7.692  0.1375  0.6030  0.1695
 1691TIP3    H126632   2.936   1.787   7.613  0.8940  0.0735 -0.4805
 1691TIP3    H226633   3.054   1.816   7.703 -2.1111  3.2033  2.7907
 1692TIP3   OH226634   1.273   6.460   0.462 -0.2992  0.0755  0.3283
 1692TIP3    H126635   1.225   6.533   0.423 -0.9582 -0.6418 -0.2205
 1692TIP3    H226636   1.223   6.382   0.438 -0.5485 -0.4347  2.3166
 1693TIP3   OH226637   5.573   4.079   6.567  0.0302 -0.2664 -0.2605
 1693TIP3    H126638   5.588   4.145   6.499 -1.3240 -0.4629 -0.7848
 1693TIP3    H226639   5.658   4.037   6.579  0.2823 -0.2992 -1.9117
 1694TIP3   OH226640   5.838   5.124   7.434 -0.0112 -0.3568  0.3882
 1694TIP3    H126641   5.880   5.040   7.453 -0.1580 -0.4203  0.4291
 1694TIP3    H226642   5.901   5.170   7.378 -0.6049 -1.1258 -0.9570
 1695TIP3   OH226643   1.882   5.814   7.907 -0.1502  0.0093 -0.1687
 1695TIP3    H126644   1.970   5.825   7.942  0.0550  0.5984 -0.8552
 1695TIP3    H226645   1.831   5.884   7.949 -0.5860 -1.0316  1.1203
 1696TIP3   OH226646   3.581   1.290   1.017 -0.5871 -0.2391 -0.1976
 1696TIP3    H126647   3.675   1.286   1.037 -0.6309 -0.8640 -0.1136
 1696TIP3    H226648   3.563   1.384   1.009 -0.0514 -0.0933  0.2253
 1697TIP3   OH226649   3.831   1.617   1.152  0.0203  0.5514  0.0038
 1697TIP3    H126650   3.842   1.706   1.120  1.0697 -0.2933 -2.2191
 1697TIP3    H226651   3.770   1.577   1.090 -1.9514  0.2097  2.0731
 1698TIP3   OH226652   2.059   5.550   0.614 -0.2642 -0.3111  0.0733
 1698TIP3    H126653   2.141   5.502   0.621 -0.1860 -0.0448  1.1327
 1698TIP3    H226654   2.070   5.604   0.536  0.3695 -0.6456 -0.0760
 1699TIP3   OH226655   4.815   6.615   7.792 -0.3240  0.2053 -0.3652
 1699TIP3    H126656   4.865   6.582   7.718 -1.7952 -0.6145 -1.0470
 1699TIP3    H226657   4.753   6.677   7.753 -1.1285 -0.2544  0.1498
 1700TIP3   OH226658   5.902   2.880   7.243  0.2134  0.0150 -0.6743
 1700TIP3    H126659   5.822   2.928   7.264  1.0239  1.3064 -0.3657
 1700TIP3    H226660   5.894   2.797   7.289 -0.7712  0.2946 -0.3221
 1701TIP3   OH226661   2.659   6.163   0.194  0.3877  0.1304 -0.2366
 1701TIP3    H126662   2.660   6.218   0.116  0.1382 -2.3733 -2.1077
 1701TIP3    H226663   2.591   6.098   0.177 -0.0467 -0.2064  2.3427
 1702TIP3   OH226664   2.136   5.821   8.022 -0.0009 -0.3189  0.0600
 1702TIP3    H126665   2.209   5.867   7.981  0.0032 -0.6563 -0.3163
 1702TIP3    H226666   2.136   5.852   8.113  0.1676  0.2140 -0.1201
 1703TIP3   OH226667   1.716   0.437   1.727  0.0830  0.2167 -0.5195
 1703TIP3    H126668   1.786   0.383   1.692 -1.3220 -1.8983 -0.2753
 1703TIP3    H226669   1.739   0.451   1.819  0.7363  0.5219 -0.7280
 1704TIP3   OH226670   1.883   6.496   0.350  0.3016 -0.7381  0.1725
 1704TIP3    H126671   1.814   6.430   0.361 -1.4628  1.1753  1.3335
 1704TIP3    H226672   1.889   6.538   0.435  1.9333  0.1085 -0.3277
 1705TIP3   OH226673   1.989   4.440   8.436  0.0467  0.2966 -0.3728
 1705TIP3    H126674   1.931   4.516   8.433  1.6099  1.7225  2.1992
 1705TIP3    H226675   2.039   4.445   8.355 -0.8273  1.1879 -0.8891
 1706TIP3   OH226676   3.572   4.422   1.719  0.3061  0.2035  0.3551
 1706TIP3    H126677   3.597   4.461   1.802  0.3634  1.3098 -0.1677
 1706TIP3    H226678   3.655   4.402   1.676  0.2795  0.4512  0.1890
 1707TIP3   OH226679   1.427   0.975   7.875 -0.4552  0.1975 -0.1348
 1707TIP3    H126680   1.465   0.898   7.832  0.2302  0.9058 -0.8389
 1707TIP3    H226681   1.429   0.953   7.969  2.5187  0.4881 -0.0292
 1708TIP3   OH226682   2.048   0.745   6.792 -0.0039 -0.5078  0.0560
 1708TIP3    H126683   2.041   0.754   6.697 -1.0841  0.4055  0.2047
 1708TIP3    H226684   1.998   0.666   6.812  0.8080 -1.0959 -0.1961
 1709TIP3   OH226685   0.096   5.566   1.317  0.7206  0.6427 -0.4998
 1709TIP3    H126686   0.129   5.613   1.394  0.6448  1.3081 -0.8634
 1709TIP3    H226687   0.025   5.511   1.351 -0.3167  2.0376 -0.3096
 1710TIP3   OH226688   6.767   6.784   7.987  0.9774  0.6426  0.4021
 1710TIP3    H126689   6.738   6.732   7.912 -4.7779  1.4127  1.6175
 1710TIP3    H226690   6.788   6.870   7.949 -0.8015  0.7108 -0.5409
 1711TIP3   OH226691   3.170   1.123   6.660 -0.1967 -0.1370 -0.3488
 1711TIP3    H126692   3.112   1.190   6.623  0.4839  1.7105  1.7507
 1711TIP3    H226693   3.117   1.079   6.727 -0.1800 -0.7612 -0.7291
 1712TIP3   OH226694   5.598   0.360   0.695 -0.5634  0.3810 -0.9858
 1712TIP3    H126695   5.591   0.274   0.653  1.9058 -1.3028  1.7001
 1712TIP3    H226696   5.656   0.410   0.638  1.4258 -1.2802 -0.5464
 1713TIP3   OH226697   5.690   6.096   8.400 -0.2696  0.8531  0.5094
 1713TIP3    H126698   5.738   6.152   8.338 -2.0688  1.4661 -0.4175
 1713TIP3    H226699   5.755   6.034   8.432  0.6359  0.0337 -2.5805
 1714TIP3   OH226700   5.792   3.372   7.916 -0.8315 -0.2859 -0.3185
 1714TIP3    H126701   5.734   3.420   7.858 -0.1590  0.6367 -0.2546
 1714TIP3    H226702   5.742   3.360   7.997 -1.0642  0.1432 -0.4004
 1715TIP3   OH226703   6.501   2.504   6.110 -0.1303 -0.6197  0.3851
 1715TIP3    H126704   6.462   2.589   6.088 -0.8546 -0.9222  0.4713
 1715TIP3    H226705   6.498   2.454   6.029  1.6659 -0.0654 -0.0575
 1716TIP3   OH226706   3.171   4.769   1.877 -0.3974 -0.2971 -0.3040
 1716TIP3    H126707   3.115   4.703   1.836 -3.3497  0.2619  2.4062
 1716TIP3    H226708   3.200   4.728   1.959 -0.3034  0.9183  0.2957
 1717TIP3   OH226709   5.373   0.767   6.102  0.2752  0.1894 -0.2238
 1717TIP3    H126710   5.458   0.809   6.088  0.5353  0.0765  0.9483
 1717TIP3    H226711   5.393   0.690   6.155 -0.4501 -0.3565 -0.7156
 1718TIP3   OH226712   3.469   1.577   1.454  0.3699  0.5499 -0.0485
 1718TIP3    H126713   3.474   1.482   1.437  0.2063  0.6051 -0.4064
 1718TIP3    H226714   3.421   1.584   1.536 -1.7304  0.4279 -1.2205
 1719TIP3   OH226715   0.845   3.435   1.245 -0.3152 -0.5836  0.1799
 1719TIP3    H126716   0.831   3.419   1.339  1.5920 -1.2700  0.3835
 1719TIP3    H226717   0.807   3.522   1.230  0.4123  0.0795  1.8687
 1720TIP3   OH226718   1.896   1.230   0.316 -0.0879  0.5275 -0.1399
 1720TIP3    H126719   1.850   1.196   0.239  0.3564 -2.1700  0.6536
 1720TIP3    H226720   1.975   1.176   0.322  1.2201  2.4330  0.7445
 1721TIP3   OH226721   1.892   1.085   8.709 -0.0490 -0.0763  0.3635
 1721TIP3    H126722   1.973   1.103   8.661  0.6554  0.0760  1.5488
 1721TIP3    H226723   1.873   0.993   8.692 -0.6287  0.3176 -1.3399
 1722TIP3   OH226724   5.677   5.255   0.053 -0.0847 -0.5428  0.2965
 1722TIP3    H126725   5.609   5.318   0.077 -1.4480 -2.6678  2.4461
 1722TIP3    H226726   5.650   5.173   0.094  0.7240 -3.0711 -3.6397
 1723TIP3   OH226727   4.542   4.690   6.772 -0.0430 -0.2494  0.1511
 1723TIP3    H126728   4.605   4.755   6.741 -1.0852  0.7183 -0.0171
 1723TIP3    H226729   4.537   4.626   6.700  0.6603 -0.2713  0.1217
 1724TIP3   OH226730   6.689   3.741   1.439  0.9411  0.6081 -0.7396
 1724TIP3    H126731   6.720   3.651   1.452 -0.2367  0.0169 -1.8597
 1724TIP3    H226732   6.732   3.770   1.359 -1.5253 -0.3712 -2.5581
 1725TIP3   OH226733   3.540   6.711   6.729  0.1768 -0.8544 -0.4774
 1725TIP3    H126734   3.628   6.734   6.759  0.0895 -2.9624  1.7159
 1725TIP3    H226735   3.553   6.632   6.676 -0.2597 -0.2189 -1.5609
 1726TIP3   OH226736   6.316   6.113   8.487 -0.0309 -0.1315 -0.1109
 1726TIP3    H126737   6.286   6.056   8.417  1.1188  0.2573 -0.9476
 1726TIP3    H226738   6.307   6.202   8.451  1.2056  0.0352 -0.0297
 1727TIP3   OH226739   3.801   5.717   7.862  0.2693 -0.3461 -0.3255
 1727TIP3    H126740   3.856   5.652   7.819  1.4374 -0.0567  0.6560
 1727TIP3    H226741   3.720   5.670   7.883  0.5063 -1.0543 -0.9473
 1728TIP3   OH226742   3.791   1.830   7.194 -0.4625  0.0372 -0.1715
 1728TIP3    H126743   3.830   1.859   7.276 -1.2365 -0.2267  0.3035
 1728TIP3    H226744   3.807   1.901   7.133 -0.7566  0.6826  0.4905
 1729TIP3   OH226745   2.260   4.972   8.072 -0.3386  0.5895 -0.0297
 1729TIP3    H126746   2.185   5.030   8.058  1.0974  2.1859 -1.6795
 1729TIP3    H226747   2.274   4.930   7.988  0.6847  0.4062  0.2189
 1730TIP3   OH226748   5.055   1.061   6.741 -0.1611  0.8123  0.5714
 1730TIP3    H126749   4.965   1.027   6.740 -0.4200  1.4094 -2.0403
 1730TIP3    H226750   5.076   1.078   6.650  3.4831 -1.3834  0.8131
 1731TIP3   OH226751   5.076   2.750   7.501 -0.3036  0.1038  0.2871
 1731TIP3    H126752   5.022   2.713   7.431 -0.3896 -0.2792  0.5480
 1731TIP3    H226753   5.016   2.804   7.552 -0.3347  0.0547  0.3029
 1732TIP3   OH226754   2.263   1.763   7.733 -0.1809  0.3696 -0.5983
 1732TIP3    H126755   2.296   1.711   7.807 -1.6942 -0.3830 -0.4292
 1732TIP3    H226756   2.208   1.703   7.684 -1.0538  1.5074 -1.0438
 1733TIP3   OH226757   5.524   1.146   7.721  0.0843  0.5260  0.0120
 1733TIP3    H126758   5.538   1.149   7.626 -0.8420 -1.6227 -0.2535
 1733TIP3    H226759   5.457   1.213   7.737  0.5512  1.2043 -0.7570
 1734TIP3   OH226760   1.824   0.158   7.200 -0.1612 -0.4647  0.3672
 1734TIP3    H126761   1.763   0.102   7.152 -0.4898  1.6070 -1.8108
 1734TIP3    H226762   1.792   0.155   7.290 -2.8094 -0.4117 -0.4672
 1735TIP3   OH226763   1.484   0.904   0.713 -0.3185 -0.2219 -0.0637
 1735TIP3    H126764   1.543   0.847   0.664  1.4382  0.7470  0.8531
 1735TIP3    H226765   1.424   0.940   0.647 -0.3315 -1.7205 -0.9078
 1736TIP3   OH226766   0.081   1.768   8.212 -0.4654 -0.2570  0.3669
 1736TIP3    H126767   0.158   1.773   8.156  0.1244 -0.5416  1.1346
 1736TIP3    H226768   0.023   1.706   8.168  0.0123 -0.5150  0.1015
 1737TIP3   OH226769   2.407   2.524   8.509  0.3460  0.1702  0.2050
 1737TIP3    H126770   2.437   2.607   8.471  0.3665  0.3424  0.5939
 1737TIP3    H226771   2.427   2.458   8.442 -1.2506  0.6995 -0.8655
 1738TIP3   OH226772   5.220   5.039   7.117 -0.1035 -0.3358 -0.0462
 1738TIP3    H126773   5.185   5.120   7.080 -2.0651 -0.5089  1.2709
 1738TIP3    H226774   5.295   5.017   7.061 -0.5214  1.4899 -1.4126
 1739TIP3   OH226775   1.366   2.994   0.759  0.0491 -0.0324 -0.0089
 1739TIP3    H126776   1.285   3.018   0.804 -0.2132  1.9591 -1.4384
 1739TIP3    H226777   1.338   2.965   0.673  0.7602 -1.0983  0.0957
 1740TIP3   OH226778   1.739   4.639   7.307 -0.0829  0.1658 -0.3777
 1740TIP3    H126779   1.743   4.589   7.226 -0.3891  1.5482 -1.2762
 1740TIP3    H226780   1.822   4.687   7.310  0.0791 -0.1363  0.3200
 1741TIP3   OH226781   5.800   0.317   1.667 -0.1032  0.1281  0.9241
 1741TIP3    H126782   5.738   0.246   1.650  1.2437 -1.0960  0.9174
 1741TIP3    H226783   5.828   0.304   1.758 -0.8067  1.4651  1.3689
 1742TIP3   OH226784   6.212   4.446   7.466 -0.0805 -0.5320  0.1858
 1742TIP3    H126785   6.180   4.399   7.389  1.6608 -0.9261 -0.3439
 1742TIP3    H226786   6.251   4.378   7.521 -0.9757 -0.2024  1.2584
 1743TIP3   OH226787   0.141   1.648   2.030  0.0488  0.5547  0.9664
 1743TIP3    H126788   0.064   1.692   1.995 -0.4980 -1.8361 -1.1563
 1743TIP3    H226789   0.108   1.587   2.095  0.2905  0.3345  0.8864
 1744TIP3   OH226790   1.931   4.733   6.997  0.2693  0.2304  0.3904
 1744TIP3    H126791   1.971   4.738   7.083 -1.1007  0.3268  1.0524
 1744TIP3    H226792   1.942   4.642   6.970  0.3970  0.1152  0.8268
 1745TIP3   OH226793   1.474   0.214   7.591  0.3559  0.5689 -0.4998
 1745TIP3    H126794   1.398   0.217   7.532  0.0656 -0.0479 -0.1743
 1745TIP3    H226795   1.549   0.205   7.533  0.1876  1.2523 -0.8329
 1746TIP3   OH226796   2.538   5.632   7.368 -0.5512  0.1761  0.4603
 1746TIP3    H126797   2.508   5.603   7.282 -0.1945  0.2920  0.2932
 1746TIP3    H226798   2.597   5.563   7.398 -2.0456 -0.7436  1.4132
 1747TIP3   OH226799   2.335   6.071   1.795  0.4953 -0.1262 -0.0858
 1747TIP3    H126800   2.258   6.075   1.852 -0.2099 -0.3869 -1.0136
 1747TIP3    H226801   2.409   6.066   1.856 -0.1925  0.4173  0.8216
 1748TIP3   OH226802   1.396   4.171   7.909 -0.0373 -0.1536 -0.2941
 1748TIP3    H126803   1.424   4.113   7.838 -1.1729 -0.9864 -0.0749
 1748TIP3    H226804   1.379   4.255   7.865 -0.8506 -0.6905 -1.0467
 1749TIP3   OH226805   6.240   5.729   1.065 -0.7017  0.5188  0.4508
 1749TIP3    H126806   6.152   5.749   1.035 -0.6131 -0.6475 -0.6784
 1749TIP3    H226807   6.273   5.665   1.002  0.1623 -0.7084  2.0659
 1750TIP3   OH226808   4.787   4.211   1.393 -0.3554  0.0655 -0.2368
 1750TIP3    H126809   4.698   4.245   1.393  0.0663  1.4503  2.2231
 1750TIP3    H226810   4.836   4.268   1.334 -0.9477 -0.3052 -1.0952
 1751TIP3   OH226811   6.276   5.249   7.040 -0.0984  0.2889 -0.6488
 1751TIP3    H126812   6.262   5.204   7.123 -1.4314 -0.7258 -1.3691
 1751TIP3    H226813   6.361   5.217   7.010  0.6364  1.0756  0.5556
 1752TIP3   OH226814   5.863   2.029   8.500 -0.0812 -0.0037  0.2055
 1752TIP3    H126815   5.928   2.019   8.570 -0.0846 -0.5054  0.1447
 1752TIP3    H226816   5.780   2.041   8.545  0.0077  0.3007  0.2856
 1753TIP3   OH226817   0.428   2.471   0.703  0.7403  0.1040 -0.4172
 1753TIP3    H126818   0.473   2.388   0.717  0.9181 -0.1410 -2.1804
 1753TIP3    H226819   0.389   2.492   0.787  0.7153 -1.7523  0.0701
 1754TIP3   OH226820   5.458   5.609   8.389  0.7043  0.1638 -0.2660
 1754TIP3    H126821   5.393   5.544   8.364  0.9490 -0.1909 -0.0008
 1754TIP3    H226822   5.458   5.673   8.318 -0.4619  0.5759  0.0844
 1755TIP3   OH226823   0.423   1.295   7.968 -0.3491  0.3051  0.1518
 1755TIP3    H126824   0.333   1.279   7.940  0.1117  0.8681 -1.7652
 1755TIP3    H226825   0.417   1.375   8.020 -1.1324 -0.4034  1.2052
 1756TIP3   OH226826   6.309   5.749   7.243 -0.2692 -0.2784  0.6745
 1756TIP3    H126827   6.345   5.717   7.326  1.1115  0.2666  0.3183
 1756TIP3    H226828   6.288   5.670   7.194 -0.5145 -0.6030  1.2890
 1757TIP3   OH226829   2.531   0.675   7.743  0.7285  0.1903  0.4268
 1757TIP3    H126830   2.559   0.761   7.712 -0.4465  0.2235 -0.6071
 1757TIP3    H226831   2.499   0.692   7.832 -1.0065  1.1662 -0.3312
 1758TIP3   OH226832   4.216   4.180   0.926 -0.1531 -0.8693  0.6606
 1758TIP3    H126833   4.289   4.190   0.865  0.4599 -0.0080  1.5004
 1758TIP3    H226834   4.178   4.268   0.931 -0.4653 -1.0315  1.1841
 1759TIP3   OH226835   3.148   4.405   0.930 -0.7062  0.6416 -0.0428
 1759TIP3    H126836   3.066   4.358   0.915 -0.1370  0.3641 -2.7605
 1759TIP3    H226837   3.190   4.357   1.001 -0.5912 -2.5376 -2.0363
 1760TIP3   OH226838   3.125   6.548   7.561  0.0334  0.4288 -0.2260
 1760TIP3    H126839   3.050   6.560   7.504 -0.4259  0.6467  0.4158
 1760TIP3    H226840   3.157   6.636   7.579  0.9995  0.2977 -1.2144
 1761TIP3   OH226841   2.491   5.261   6.636 -0.2436  0.4385  0.0879
 1761TIP3    H126842   2.410   5.258   6.586  0.0994  0.0818 -0.4555
 1761TIP3    H226843   2.465   5.238   6.725 -0.9944  1.8535  0.2716
 1762TIP3   OH226844   5.333   2.239   8.742 -0.1252  0.0265 -0.3808
 1762TIP3    H126845   5.343   2.150   8.775  0.1705  0.3805  0.5070
 1762TIP3    H226846   5.261   2.233   8.680 -0.6692 -0.6745  0.2958
 1763TIP3   OH226847   4.276   0.751   6.492 -0.2822  0.0748  0.7601
 1763TIP3    H126848   4.195   0.790   6.524 -0.3556  0.4501  0.1343
 1763TIP3    H226849   4.287   0.788   6.404  0.8872  0.4997  1.0736
 1764TIP3   OH226850   1.001   5.692   7.389  0.1836 -0.0162 -0.1497
 1764TIP3    H126851   1.013   5.762   7.453 -2.7138  0.7071 -0.2437
 1764TIP3    H226852   1.046   5.723   7.310 -0.8050  1.6839 -0.1046
 1765TIP3   OH226853   4.499   4.977   7.820 -0.3782  0.3689 -0.6107
 1765TIP3    H126854   4.536   5.056   7.859 -0.7943 -0.2129  1.0249
 1765TIP3    H226855   4.417   5.005   7.780 -0.7017  0.7185  0.2777
 1766TIP3   OH226856   2.618   0.571   8.132  0.0523 -0.2843  0.2806
 1766TIP3    H126857   2.711   0.591   8.137 -0.1056  1.3339 -1.8979
 1766TIP3    H226858   2.584   0.631   8.066 -2.1333 -2.3010 -0.5594
 1767TIP3   OH226859   2.812   5.396   7.332  0.3078  0.4947  0.2259
 1767TIP3    H126860   2.803   5.463   7.265 -1.4873 -0.8336 -0.9759
 1767TIP3    H226861   2.801   5.313   7.285  0.1134 -0.5304  1.9744
 1768TIP3   OH226862   5.672   6.705   6.984  0.0285  0.7971 -0.4418
 1768TIP3    H126863   5.638   6.622   7.017  1.2469  0.0330 -1.0232
 1768TIP3    H226864   5.609   6.733   6.918  0.1929 -0.2601 -1.0576
 1769TIP3   OH226865   0.238   6.254   6.838 -0.0219 -0.3528  0.2528
 1769TIP3    H126866   0.280   6.239   6.753  1.6474  0.8848  0.7921
 1769TIP3    H226867   0.227   6.167   6.875 -1.7082 -1.0076 -1.5993
 1770TIP3   OH226868   0.893   4.913   0.115  0.1228  0.1209  0.2169
 1770TIP3    H126869   0.815   4.968   0.118 -1.0232 -1.4554  0.6701
 1770TIP3    H226870   0.896   4.871   0.201 -0.1087 -1.8925 -0.6994
 1771TIP3   OH226871   1.695   5.046   1.486  0.3014 -0.0361  0.3305
 1771TIP3    H126872   1.677   5.006   1.571  1.4259  0.3676  0.7702
 1771TIP3    H226873   1.717   5.137   1.506  0.8354 -0.0055 -0.3653
 1772TIP3   OH226874   5.574   5.452   7.253 -0.7327  0.0591 -0.0382
 1772TIP3    H126875   5.650   5.501   7.284 -0.8386  0.3199 -0.1858
 1772TIP3    H226876   5.567   5.378   7.312 -0.5135  0.1724  0.1294
 1773TIP3   OH226877   5.278   3.463   7.226  0.1089  0.4885  0.2996
 1773TIP3    H126878   5.371   3.463   7.203 -0.2932 -0.6092 -1.5302
 1773TIP3    H226879   5.234   3.491   7.146 -1.2701 -1.5365  0.2863
 1774TIP3   OH226880   2.941   0.943   7.181  0.6850  0.2108  0.0103
 1774TIP3    H126881   2.868   0.935   7.120  1.4170 -0.3303 -0.8386
 1774TIP3    H226882   3.009   0.886   7.144  1.1523 -0.1549  1.3496
 1775TIP3   OH226883   0.499   0.394   0.882 -0.6880  0.3179  0.1567
 1775TIP3    H126884   0.557   0.365   0.953  1.2846  0.8028 -1.1623
 1775TIP3    H226885   0.541   0.474   0.849 -0.8272 -0.5748 -2.3544
 1776TIP3   OH226886   6.252   4.584   6.984 -0.6623 -0.6252 -0.2308
 1776TIP3    H126887   6.287   4.668   7.011  0.1968 -1.0065 -0.1135
 1776TIP3    H226888   6.231   4.595   6.891  0.9562 -0.7298 -0.6457
 1777TIP3   OH226889   3.928   4.336   0.690 -0.3815 -0.5153  0.4676
 1777TIP3    H126890   4.017   4.310   0.666 -0.8391  1.1915 -3.9308
 1777TIP3    H226891   3.873   4.263   0.661 -0.7287  0.3618 -1.1511
 1778TIP3   OH226892   2.697   6.058   7.383 -0.8561  0.9324 -0.1595
 1778TIP3    H126893   2.604   6.072   7.398 -1.5792 -1.0843 -2.2627
 1778TIP3    H226894   2.728   6.139   7.344 -2.5701  0.5046 -2.6288
 1779TIP3   OH226895   6.051   2.328   0.683 -0.4124  0.4212 -0.1963
 1779TIP3    H126896   6.045   2.398   0.748 -1.3160 -0.0124  0.2030
 1779TIP3    H226897   6.090   2.369   0.606  1.4019  0.7847  0.8482
 1780TIP3   OH226898   1.417   2.532   7.250 -0.1806  0.6886 -0.6276
 1780TIP3    H126899   1.413   2.606   7.189 -0.9034  1.0953 -0.1038
 1780TIP3    H226900   1.490   2.553   7.308  1.1811 -0.1963 -1.9510
 1781TIP3   OH226901   6.348   2.803   1.872  0.2819 -0.3596  0.4363
 1781TIP3    H126902   6.369   2.849   1.954 -1.3501  0.2649  0.5463
 1781TIP3    H226903   6.314   2.871   1.814  2.4970 -0.5684 -1.2432
 1782TIP3   OH226904   5.048   5.332   0.555  0.2969 -0.4921 -0.4747
 1782TIP3    H126905   5.065   5.252   0.606  0.1357  0.1659  0.6364
 1782TIP3    H226906   5.080   5.403   0.610  1.3115  0.1686 -1.8544
 1783TIP3   OH226907   6.500   1.052   0.125  0.3307 -0.1826 -0.2198
 1783TIP3    H126908   6.477   1.139   0.158 -0.2818 -1.0808  1.8953
 1783TIP3    H226909   6.428   1.028   0.068  0.7809  0.9047 -1.2888
 1784TIP3   OH226910   4.539   4.481   6.585 -0.4567  0.6020  0.2705
 1784TIP3    H126911   4.558   4.530   6.505 -0.4830 -3.7298 -2.7165
 1784TIP3    H226912   4.446   4.460   6.579 -1.0989  2.2410  2.8641
 1785TIP3   OH226913   2.869   3.922   7.687 -0.2812 -0.3269 -0.3014
 1785TIP3    H126914   2.873   3.919   7.592 -1.3413  0.2031 -0.3767
 1785TIP3    H226915   2.833   3.837   7.713 -2.7248  0.5575 -0.5802
 1786TIP3   OH226916   1.717   4.353   0.124 -0.5457  0.1665  0.2206
 1786TIP3    H126917   1.684   4.275   0.080 -2.6448 -0.9972  3.4585
 1786TIP3    H226918   1.701   4.424   0.062 -1.8256 -1.4942 -1.4709
 1787TIP3   OH226919   1.494   0.382   8.497 -0.1152 -0.1961 -0.1617
 1787TIP3    H126920   1.441   0.303   8.510 -0.5622  0.1539  0.1894
 1787TIP3    H226921   1.434   0.444   8.456  0.4917 -0.3371 -1.2962
 1788TIP3   OH226922   0.367   6.790   7.729  0.4256  0.2304  0.3237
 1788TIP3    H126923   0.459   6.771   7.752  0.4957  0.1533 -0.0236
 1788TIP3    H226924   0.372   6.869   7.675  0.0680  1.8569  2.4861
 1789TIP3   OH226925   1.487   4.410   6.426  0.1132  0.0274 -0.0477
 1789TIP3    H126926   1.490   4.315   6.435 -1.2023  0.0260  0.6997
 1789TIP3    H226927   1.492   4.426   6.332 -1.7380 -0.9193 -0.3594
 1790TIP3   OH226928   6.593   1.622   7.457  0.0122 -0.1059 -0.0320
 1790TIP3    H126929   6.674   1.580   7.426  0.3894  1.0026 -0.6166
 1790TIP3    H226930   6.616   1.660   7.541  1.0694  2.8247 -1.5076
 1791TIP3   OH226931   3.994   6.609   6.922  0.0497  0.2075  0.0369
 1791TIP3    H126932   3.953   6.523   6.934  1.5361 -0.9394 -2.3438
 1791TIP3    H226933   4.053   6.617   6.998 -0.5368 -0.5898  0.6006
 1792TIP3   OH226934   0.755   3.786   1.670 -0.4217 -0.2860 -0.3325
 1792TIP3    H126935   0.845   3.817   1.684 -1.0317  1.6040 -0.2709
 1792TIP3    H226936   0.761   3.730   1.593  0.7692  0.0451 -0.5068
 1793TIP3   OH226937   6.670   1.399   8.604 -0.1226 -0.3389 -0.3700
 1793TIP3    H126938   6.667   1.471   8.540  0.2459  0.7809  0.8415
 1793TIP3    H226939   6.579   1.383   8.626 -0.1547  0.3026 -0.0429
 1794TIP3   OH226940   0.842   3.570   6.326 -0.0528  0.4961  0.1970
 1794TIP3    H126941   0.848   3.476   6.345  0.7747  0.1675 -1.5330
 1794TIP3    H226942   0.750   3.591   6.344 -0.4601 -0.8276 -0.1728
 1795TIP3   OH226943   5.690   4.995   1.835  0.1335 -0.0825  0.5919
 1795TIP3    H126944   5.732   5.008   1.750  0.0261 -0.3784  0.4944
 1795TIP3    H226945   5.763   4.983   1.896  0.2037 -3.4118 -0.0073
 1796TIP3   OH226946   2.779   3.144   8.735  0.0271 -0.4390 -0.1071
 1796TIP3    H126947   2.713   3.096   8.786  2.0649 -2.8879  0.4803
 1796TIP3    H226948   2.778   3.232   8.772 -3.3026 -0.1368 -0.6106
 1797TIP3   OH226949   4.915   1.057   8.614  0.2027  0.3477 -0.6697
 1797TIP3    H126950   4.980   1.127   8.624  1.7513 -1.0743 -0.2253
 1797TIP3    H226951   4.848   1.077   8.679 -0.7712  2.8032 -2.3015
 1798TIP3   OH226952   6.454   3.458   1.086  0.4777 -0.0143 -0.0947
 1798TIP3    H126953   6.486   3.532   1.035  1.5305 -0.4917 -0.1360
 1798TIP3    H226954   6.426   3.497   1.169  2.4431  0.2793  0.4895
 1799TIP3   OH226955   5.736   2.319   0.307 -0.1616 -0.3131 -0.2462
 1799TIP3    H126956   5.647   2.284   0.307 -0.1986 -0.3375  1.5287
 1799TIP3    H226957   5.725   2.413   0.295 -0.3855 -0.3823 -0.5854
 1800TIP3   OH226958   6.714   3.947   1.718 -0.4198  0.3201  0.3920
 1800TIP3    H126959   6.638   3.985   1.762 -0.3603 -0.7742  1.4923
 1800TIP3    H226960   6.788   4.000   1.748 -0.3459 -0.5533  1.8676
 1801TIP3   OH226961   0.910   6.585   7.371 -0.9118 -0.3777 -0.3795
 1801TIP3    H126962   0.958   6.657   7.330  1.5472 -2.6614 -1.8398
 1801TIP3    H226963   0.831   6.575   7.317  0.8236 -1.4172 -2.9091
 1802TIP3   OH226964   0.762   1.385   0.476 -0.1414  0.3830  0.3772
 1802TIP3    H126965   0.782   1.475   0.502 -1.8101  0.9091 -0.1108
 1802TIP3    H226966   0.848   1.343   0.471  0.6638  1.9119  0.6809
 1803TIP3   OH226967   2.046   4.020   7.033  0.2784 -0.0019  0.1778
 1803TIP3    H126968   2.061   3.995   7.124  1.4320 -0.1026 -0.0292
 1803TIP3    H226969   2.087   3.951   6.982 -0.1276  0.1960 -0.4235
 1804TIP3   OH226970   3.250   3.784   1.108  0.3157 -0.2119 -0.0483
 1804TIP3    H126971   3.166   3.816   1.076  0.3127 -0.0298  0.1367
 1804TIP3    H226972   3.280   3.722   1.041 -0.8449 -1.7141  0.7676
 1805TIP3   OH226973   3.748   6.386   8.725 -0.1701  0.2715 -0.4180
 1805TIP3    H126974   3.672   6.424   8.680  0.8355  2.4412 -0.4141
 1805TIP3    H226975   3.732   6.403   8.818 -1.2161 -2.3027 -0.0263
 1806TIP3   OH226976   0.837   4.325   2.225  0.0447  0.2565 -0.4821
 1806TIP3    H126977   0.761   4.285   2.183  0.5721  1.6878 -3.0660
 1806TIP3    H226978   0.911   4.272   2.196  0.3375  0.7188 -0.5844
 1807TIP3   OH226979   6.651   3.535   1.752  0.6041  0.2450 -0.2418
 1807TIP3    H126980   6.575   3.583   1.785  1.3283  0.6907  0.8663
 1807TIP3    H226981   6.652   3.454   1.803  0.8387  0.2177 -0.2882
 1808TIP3   OH226982   1.957   0.417   0.223  0.0907 -0.0657  0.0161
 1808TIP3    H126983   1.919   0.372   0.298 -2.3157  1.5225 -0.1151
 1808TIP3    H226984   2.004   0.491   0.261 -0.8834  0.5713  0.0378
 1809TIP3   OH226985   6.115   3.237   1.237 -0.0904 -0.6064  0.3376
 1809TIP3    H126986   6.196   3.280   1.263  1.3254 -2.9080  0.0125
 1809TIP3    H226987   6.080   3.292   1.167  1.5533  0.0854  0.0038
 1810TIP3   OH226988   6.235   5.315   8.077 -0.5096  0.2942  0.1633
 1810TIP3    H126989   6.167   5.378   8.054  1.0531  1.6430 -1.0775
 1810TIP3    H226990   6.311   5.343   8.026  1.1332 -0.8334  1.8540
 1811TIP3   OH226991   5.172   5.074   8.152 -0.1326 -0.5560 -0.1195
 1811TIP3    H126992   5.167   5.115   8.238  1.6221 -1.6546  0.5619
 1811TIP3    H226993   5.150   5.144   8.091 -1.1979  0.3084  1.1919
 1812TIP3   OH226994   5.950   1.810   5.990 -0.2573  0.2286  0.4824
 1812TIP3    H126995   5.872   1.803   5.935  0.6852 -1.7558 -0.7157
 1812TIP3    H226996   5.992   1.891   5.963 -2.6519  2.2750  2.3159
 1813TIP3   OH226997   2.358   6.280   1.608  0.1326  0.0799 -0.2423
 1813TIP3    H126998   2.347   6.214   1.675  0.1379 -1.3811 -1.6243
 1813TIP3    H226999   2.269   6.307   1.585  0.1443  2.0559  1.6551
 1814TIP3   OH227000   1.899   5.823   0.782 -0.2880  0.0618 -0.9052
 1814TIP3    H127001   1.984   5.856   0.812 -0.2916  0.3720 -1.2273
 1814TIP3    H227002   1.911   5.807   0.689 -1.0310  1.6150 -1.2988
 1815TIP3   OH227003   1.336   0.430   0.263 -0.5874 -0.3782  0.1305
 1815TIP3    H127004   1.427   0.404   0.252 -0.8350 -1.6840  0.8307
 1815TIP3    H227005   1.323   0.502   0.202  0.9471 -0.0814  0.1273
 1816TIP3   OH227006   1.974   4.795   7.284 -0.2487 -0.0987 -0.3064
 1816TIP3    H127007   1.969   4.881   7.326 -1.6721 -1.3862  2.4875
 1816TIP3    H227008   2.047   4.751   7.328 -0.1802 -0.6548 -0.9590
 1817TIP3   OH227009   2.556   5.617   0.755 -0.0478 -0.3941  0.0925
 1817TIP3    H127010   2.559   5.674   0.679 -1.8663  0.5226  0.6354
 1817TIP3    H227011   2.510   5.669   0.822  1.6304 -1.0865  1.8970
 1818TIP3   OH227012   3.414   2.979   0.152  0.1655 -0.1382  0.9128
 1818TIP3    H127013   3.413   3.023   0.067 -0.6287  0.6734  1.3214
 1818TIP3    H227014   3.497   3.005   0.192  0.6065 -0.6362  0.3434
 1819TIP3   OH227015   4.937   3.293   5.695 -0.3042 -0.1878  0.0779
 1819TIP3    H127016   4.985   3.287   5.778 -0.6607 -1.0923  0.2284
 1819TIP3    H227017   4.855   3.337   5.717  1.4897  4.0307 -0.6677
 1820TIP3   OH227018   2.469   5.182   5.909 -0.1543  0.1810  0.1483
 1820TIP3    H127019   2.499   5.269   5.881  0.0337  0.1710  0.3240
 1820TIP3    H227020   2.543   5.145   5.956 -0.4560  0.1715  0.6162
 1821TIP3   OH227021   6.068   3.735   0.012  0.5312 -0.5754 -0.0231
 1821TIP3    H127022   6.043   3.693   0.095  0.8945  0.3865  0.5931
 1821TIP3    H227023   6.141   3.683  -0.021  1.1506 -0.2873  0.8620
 1822TIP3   OH227024   1.426   1.650   0.982  0.7246  0.2789 -0.3193
 1822TIP3    H127025   1.455   1.647   1.073 -0.5241  0.4685  0.1006
 1822TIP3    H227026   1.332   1.632   0.985  0.7373 -0.1369 -1.6171
 1823TIP3   OH227027   0.312   3.303   0.167  0.5522 -0.2447  0.1667
 1823TIP3    H127028   0.271   3.364   0.105  1.8269  0.1382 -0.3400
 1823TIP3    H227029   0.249   3.232   0.177 -0.2788  0.3856 -0.4722
 1824TIP3   OH227030   5.544   5.308   0.517 -0.1300  0.4953 -0.5703
 1824TIP3    H127031   5.509   5.289   0.604  1.3893 -2.9404 -0.5586
 1824TIP3    H227032   5.620   5.251   0.508  0.0016  0.9716 -4.0191
 1825TIP3   OH227033   6.042   6.646   1.209 -0.5396 -0.0877  0.7049
 1825TIP3    H127034   6.016   6.738   1.208 -1.6650 -0.3923  0.4955
 1825TIP3    H227035   6.059   6.625   1.117  1.4704  0.3611  0.9337
 1826TIP3   OH227036   4.777   4.836   8.442  0.2120 -0.0004 -0.3881
 1826TIP3    H127037   4.770   4.926   8.474  0.7145 -0.3427  0.7480
 1826TIP3    H227038   4.813   4.844   8.354  1.7152  0.8636  0.2615
 1827TIP3   OH227039   0.157   0.673   0.247 -0.4643 -0.0115 -0.2926
 1827TIP3    H127040   0.205   0.743   0.292 -0.4428 -0.2164  0.0033
 1827TIP3    H227041   0.162   0.598   0.306 -1.7653  0.1784  0.0834
 1828TIP3   OH227042   4.951   4.080   8.062 -0.1413  0.1232 -0.3522
 1828TIP3    H127043   4.963   4.146   7.994  2.9209 -1.0196 -1.0963
 1828TIP3    H227044   4.941   4.130   8.143  0.8550  1.5314 -1.0618
 1829TIP3   OH227045   1.063   0.129   0.847 -0.4079  0.6561 -0.4993
 1829TIP3    H127046   1.036   0.079   0.770 -0.8057 -1.0669  0.7100
 1829TIP3    H227047   1.158   0.125   0.846 -0.3230  2.0159 -1.7335
 1830TIP3   OH227048   4.307   4.499   6.923  0.3331 -1.0857  0.9276
 1830TIP3    H127049   4.286   4.467   7.011 -0.2142 -0.4788  1.0223
 1830TIP3    H227050   4.248   4.573   6.909 -0.4619 -1.9327 -0.4400
 1831TIP3   OH227051   2.745   2.829   1.098 -0.3260 -0.1652  0.5708
 1831TIP3    H127052   2.790   2.744   1.094  0.3615  0.2297 -0.3260
 1831TIP3    H227053   2.653   2.806   1.113  0.1816 -0.9717  3.0225
 1832TIP3   OH227054   2.470   5.912   8.355  0.3748 -0.4777  0.3091
 1832TIP3    H127055   2.522   5.984   8.317 -0.8200 -1.3747 -3.4542
 1832TIP3    H227056   2.380   5.934   8.333 -0.1890 -2.2065  0.7593
 1833TIP3   OH227057   3.471   2.125   0.638 -0.2173 -0.2766 -0.4590
 1833TIP3    H127058   3.534   2.151   0.705  0.6130 -1.5773 -0.7018
 1833TIP3    H227059   3.456   2.032   0.653 -1.3531 -0.2093 -1.0206
 1834TIP3   OH227060   0.893   3.863   7.323 -0.1013  0.0018 -0.7661
 1834TIP3    H127061   0.877   3.823   7.238  2.2192  0.7694 -1.6165
 1834TIP3    H227062   0.971   3.820   7.356 -0.5936  0.1818  0.7144
 1835TIP3   OH227063   2.677   6.134   7.763  0.1150 -0.6310  0.1427
 1835TIP3    H127064   2.590   6.116   7.728 -1.8668  0.8390  3.7056
 1835TIP3    H227065   2.705   6.214   7.719 -1.7477  0.5258  0.9534
 1836TIP3   OH227066   2.077   6.018   1.887  0.2791  0.2652  0.0486
 1836TIP3    H127067   2.016   6.088   1.865 -1.8308 -1.1952  0.9565
 1836TIP3    H227068   2.025   5.938   1.883  1.8171 -0.9364  2.0815
 1837TIP3   OH227069   6.550   5.951   1.362  0.9450 -0.0538 -0.2249
 1837TIP3    H127070   6.563   5.948   1.457 -0.8107 -0.3055  0.0423
 1837TIP3    H227071   6.609   6.020   1.332  1.0345  0.4992  1.1453
 1838TIP3   OH227072   4.092   1.577   7.998  0.5513 -0.2655 -0.0842
 1838TIP3    H127073   4.094   1.608   8.088  0.3319  0.7120 -0.4064
 1838TIP3    H227074   4.072   1.484   8.005 -0.8509  0.0805  0.8235
 1839TIP3   OH227075   2.441   0.286   0.901 -0.1630  0.2191 -0.4997
 1839TIP3    H127076   2.530   0.250   0.894 -0.3575 -0.3554 -0.0554
 1839TIP3    H227077   2.416   0.270   0.992 -0.2340  1.5419 -0.2806
 1840TIP3   OH227078   4.505   0.776   6.623  0.1058  0.5172 -0.0298
 1840TIP3    H127079   4.416   0.772   6.587  0.4002 -0.3445 -0.7074
 1840TIP3    H227080   4.559   0.731   6.557  1.1290  1.4869  0.1144
 1841TIP3   OH227081   4.159   2.145   8.760 -0.2922 -0.3227  0.2465
 1841TIP3    H127082   4.158   2.180   8.849  0.3970 -0.8064  0.4464
 1841TIP3    H227083   4.205   2.211   8.709  2.3128 -1.5288  0.8956
 1842TIP3   OH227084   5.071   3.789   6.961  0.0362  0.6310 -0.1792
 1842TIP3    H127085   5.025   3.707   6.939 -0.6763  1.2422 -1.0963
 1842TIP3    H227086   5.135   3.764   7.027 -0.2421 -0.6502 -0.3596
 1843TIP3   OH227087   1.928   2.464   7.015 -0.4066  0.5465  0.3931
 1843TIP3    H127088   1.924   2.471   6.919 -0.4821 -0.1394  0.3369
 1843TIP3    H227089   1.845   2.423   7.039 -0.6186  1.2139  0.8099
 1844TIP3   OH227090   3.235   1.534   6.907 -0.6197 -0.4744 -0.1493
 1844TIP3    H127091   3.289   1.608   6.936  0.5162 -0.7690 -1.3601
 1844TIP3    H227092   3.220   1.482   6.986  0.6820 -0.2295  0.2864
 1845TIP3   OH227093   3.933   4.192   0.312 -0.1094  0.1510 -0.6582
 1845TIP3    H127094   3.914   4.243   0.234  0.8598 -2.0987 -2.4915
 1845TIP3    H227095   3.990   4.121   0.282  0.7990 -0.4973  2.2132
 1846TIP3   OH227096   0.365   6.291   7.374  0.0119 -0.4395 -0.0917
 1846TIP3    H127097   0.279   6.267   7.338 -1.6409  2.9274  1.1920
 1846TIP3    H227098   0.362   6.263   7.465 -0.2750  0.6891  0.2720
 1847TIP3   OH227099   3.718   5.532   0.464 -0.1331 -0.2207 -0.0194
 1847TIP3    H127100   3.721   5.576   0.549  1.3361 -0.1507 -0.0879
 1847TIP3    H227101   3.652   5.464   0.476 -0.2584  0.0540  1.0398
 1848TIP3   OH227102   2.500   5.915   6.227 -0.0830 -0.3641 -0.0098
 1848TIP3    H127103   2.580   5.874   6.260  0.1941 -0.1376 -0.3935
 1848TIP3    H227104   2.435   5.845   6.227  0.3661 -0.7930 -0.6035
 1849TIP3   OH227105   2.832   4.549   6.032 -0.0363 -0.4398  0.4300
 1849TIP3    H127106   2.851   4.561   5.939 -0.3150 -0.4815  0.3650
 1849TIP3    H227107   2.867   4.628   6.074 -0.4677 -0.1258  0.2058
 1850TIP3   OH227108   3.843   3.202   1.385 -0.4403  0.1148 -0.0538
 1850TIP3    H127109   3.823   3.188   1.478 -0.1070 -0.4874 -0.0737
 1850TIP3    H227110   3.796   3.133   1.340  0.2395 -0.2187 -0.2509
 1851TIP3   OH227111   3.437   0.096   0.530  0.3854 -0.2389 -0.0839
 1851TIP3    H127112   3.410   0.131   0.445 -0.0341 -2.6130 -1.0201
 1851TIP3    H227113   3.479   0.169   0.575 -3.4352  2.4517 -0.4112
 1852TIP3   OH227114   5.634   4.250   8.681  0.5596  0.5539  0.2876
 1852TIP3    H127115   5.681   4.302   8.746  0.1358  1.3719 -0.0473
 1852TIP3    H227116   5.700   4.229   8.616  0.9161 -0.0121  0.8214
 1853TIP3   OH227117   0.454   4.738   0.677  0.1335 -0.2440 -0.9485
 1853TIP3    H127118   0.450   4.647   0.650 -2.6207  0.3840 -3.0775
 1853TIP3    H227119   0.456   4.736   0.772  0.8730 -2.4798 -0.9665
 1854TIP3   OH227120   3.753   2.211   0.947  0.4199 -0.2959 -0.1502
 1854TIP3    H127121   3.698   2.275   0.993  0.7662 -0.7814  0.9410
 1854TIP3    H227122   3.836   2.256   0.934  0.7262 -0.5888  0.7864
 1855TIP3   OH227123   6.417   2.711   1.100 -0.1488 -0.3822  0.0056
 1855TIP3    H127124   6.383   2.800   1.102 -2.8148 -1.2840 -0.7798
 1855TIP3    H227125   6.439   2.691   1.191  2.1451  1.5759 -0.0242
 1856TIP3   OH227126   2.944   1.729   8.233 -0.0175 -0.1886 -0.7570
 1856TIP3    H127127   2.864   1.735   8.180 -0.7345 -1.1966  0.1661
 1856TIP3    H227128   2.954   1.635   8.251  0.9134  0.0139 -0.1550
 1857TIP3   OH227129   3.797   2.069   7.443  0.0395 -0.0967 -0.3051
 1857TIP3    H127130   3.767   2.012   7.514  2.1300  0.6463  1.2733
 1857TIP3    H227131   3.893   2.069   7.451  0.1988  2.1077 -1.4847
 1858TIP3   OH227132   5.949   6.145   0.137 -0.1146 -0.1026 -0.3881
 1858TIP3    H127133   6.037   6.176   0.159  0.9048 -2.8561 -0.2606
 1858TIP3    H227134   5.963   6.072   0.077 -2.4388  0.5220 -1.8278
 1859TIP3   OH227135   4.447   6.043   6.766  0.2857 -0.0029 -0.0079
 1859TIP3    H127136   4.365   6.093   6.771  0.1482 -0.2122 -0.1856
 1859TIP3    H227137   4.419   5.952   6.761  0.4962 -0.0070 -1.4467
 1860TIP3   OH227138   5.264   0.735   1.538  0.3142 -0.4691  0.1463
 1860TIP3    H127139   5.210   0.744   1.617  0.3993 -0.9560  0.2618
 1860TIP3    H227140   5.326   0.665   1.560  1.9927  1.0664  0.5961
 1861TIP3   OH227141   6.358   4.320   0.588 -0.1296 -0.5559 -0.1253
 1861TIP3    H127142   6.285   4.289   0.642 -1.1001  0.3045 -0.8950
 1861TIP3    H227143   6.433   4.269   0.617 -0.6333 -0.2067  1.9525
 1862TIP3   OH227144   6.398   1.666   6.342  0.0768  0.5449 -0.1883
 1862TIP3    H127145   6.427   1.715   6.265 -1.6395 -0.7339 -1.7799
 1862TIP3    H227146   6.367   1.733   6.403  2.6756  1.6761  0.0157
 1863TIP3   OH227147   1.759   6.090   8.617 -0.2770 -0.5079  0.2726
 1863TIP3    H127148   1.749   6.173   8.571  0.9551  1.0911  2.6750
 1863TIP3    H227149   1.773   6.026   8.548  0.8331  1.6109 -1.6012
 1864TIP3   OH227150   5.360   0.936   6.369 -0.3029 -0.3340 -0.1505
 1864TIP3    H127151   5.301   1.006   6.340 -0.0552 -0.3332 -0.6549
 1864TIP3    H227152   5.365   0.876   6.295 -0.3595 -0.7945  0.2116
 1865TIP3   OH227153   2.838   1.584   0.975  0.4439  0.0345 -0.1986
 1865TIP3    H127154   2.826   1.514   1.039  0.6863 -0.2249 -0.4339
 1865TIP3    H227155   2.903   1.549   0.913  0.9450  0.6545 -0.0342
 1866TIP3   OH227156   4.419   0.452   0.697  0.3368 -0.3195 -0.4118
 1866TIP3    H127157   4.484   0.419   0.759  1.4122 -0.6008 -1.6459
 1866TIP3    H227158   4.461   0.443   0.611 -1.2621 -0.3306 -1.2284
 1867TIP3   OH227159   1.124   5.235   0.601 -0.1996 -0.0301  0.2561
 1867TIP3    H127160   1.156   5.162   0.548 -1.1211 -0.3279  0.0842
 1867TIP3    H227161   1.198   5.260   0.656 -0.6750 -2.9679  2.4198
 1868TIP3   OH227162   1.337   5.144   1.876 -0.5392  0.0084 -0.8266
 1868TIP3    H127163   1.301   5.057   1.856  0.6905 -1.2701  1.8771
 1868TIP3    H227164   1.302   5.164   1.963  1.2758  0.9766 -0.2767
 1869TIP3   OH227165   0.913   3.462   0.356  0.1264  0.9082 -0.2308
 1869TIP3    H127166   0.975   3.535   0.367  1.1289  0.0433 -0.0037
 1869TIP3    H227167   0.856   3.468   0.433  0.9634  0.7376  0.4143
 1870TIP3   OH227168   0.896   5.986   0.219  0.0816 -0.6583  0.1526
 1870TIP3    H127169   0.808   6.018   0.197 -0.0766  1.9390  3.6787
 1870TIP3    H227170   0.897   5.984   0.315  4.3405  0.9983  0.3549
 1871TIP3   OH227171   1.145   3.117   6.399  0.2544 -0.3235  0.1933
 1871TIP3    H127172   1.201   3.058   6.349 -1.3976 -0.0055 -2.1921
 1871TIP3    H227173   1.087   3.058   6.448 -0.5764 -0.7299 -1.2224
 1872TIP3   OH227174   6.355   1.541   8.195  0.4261 -0.3082  0.1222
 1872TIP3    H127175   6.374   1.591   8.274 -0.4827  0.6272 -0.2300
 1872TIP3    H227176   6.311   1.462   8.227 -0.4667  0.3386  0.5336
 1873TIP3   OH227177   5.858   1.175   6.948  0.0015 -0.0678 -0.3292
 1873TIP3    H127178   5.766   1.158   6.925 -0.1281  1.7479 -1.3196
 1873TIP3    H227179   5.855   1.258   6.995  1.2717  0.6670 -1.5076
 1874TIP3   OH227180   5.362   3.769   2.211  0.1056  0.1371  0.1255
 1874TIP3    H127181   5.393   3.689   2.254 -1.2204 -1.5500 -1.8836
 1874TIP3    H227182   5.270   3.776   2.238  0.4052  1.4567  0.8832
 1875TIP3   OH227183   0.037   0.645   5.680  0.0541 -0.0384 -0.0166
 1875TIP3    H127184  -0.028   0.693   5.731 -1.1938 -1.7507  0.0830
 1875TIP3    H227185   0.020   0.671   5.589 -1.7687 -1.5043 -0.1509
 1876TIP3   OH227186   6.387   5.705   8.750  0.4373 -0.8067  0.0100
 1876TIP3    H127187   6.320   5.653   8.793 -0.0012  0.2777  0.6944
 1876TIP3    H227188   6.435   5.747   8.821  0.2547  0.3405 -0.5166
 1877TIP3   OH227189   2.078   6.335   6.796  0.0027 -0.3011  0.0306
 1877TIP3    H127190   2.095   6.336   6.702  0.6773 -2.1770  0.0948
 1877TIP3    H227191   2.166   6.333   6.835 -0.2473  1.3973  0.7542
 1878TIP3   OH227192   5.228   0.530   2.113  0.0497  0.2068  0.2879
 1878TIP3    H127193   5.161   0.504   2.176  1.0701  0.1932  1.3971
 1878TIP3    H227194   5.181   0.584   2.049 -0.7875  1.2226  1.7123
 1879TIP3   OH227195   0.128   4.735   6.777  0.3338  0.3198 -0.1973
 1879TIP3    H127196   0.057   4.702   6.832  1.6603 -0.6178  1.0391
 1879TIP3    H227197   0.084   4.774   6.702 -1.4511 -1.1416  0.0162
 1880TIP3   OH227198   4.333   2.535   0.058  0.1783  0.1024 -0.4381
 1880TIP3    H127199   4.393   2.553   0.131  0.0498 -1.0126 -0.0415
 1880TIP3    H227200   4.304   2.445   0.073 -1.3958  0.5356 -0.7848
 1881TIP3   OH227201   1.954   4.261   1.638 -1.0939 -0.5250  0.2612
 1881TIP3    H127202   1.990   4.181   1.601 -0.5504 -0.4168  0.5456
 1881TIP3    H227203   2.019   4.328   1.618 -1.4967 -0.1772  0.1158
 1882TIP3   OH227204   2.965   3.262   6.524  0.4936  0.0143  0.1697
 1882TIP3    H127205   2.950   3.346   6.480 -1.3180  0.2328  1.1286
 1882TIP3    H227206   2.883   3.215   6.515 -0.0918  0.1572  3.4091
 1883TIP3   OH227207   2.513   2.713   0.931  0.7174  0.3414  0.2798
 1883TIP3    H127208   2.483   2.740   1.018 -1.0939 -2.0724  0.5152
 1883TIP3    H227209   2.475   2.777   0.871  0.3711  0.9135  1.0930
 1884TIP3   OH227210   5.814   5.259   8.128 -0.3479  0.1323  0.0436
 1884TIP3    H127211   5.820   5.247   8.223  0.9011 -1.2339 -0.1747
 1884TIP3    H227212   5.882   5.324   8.108  0.9468 -1.2372 -0.1519
 1885TIP3   OH227213   2.153   3.421   1.071  0.4177 -0.0901 -0.0588
 1885TIP3    H127214   2.155   3.449   0.980  1.8708  1.7888  0.4772
 1885TIP3    H227215   2.113   3.494   1.118  0.2321 -0.7739  0.8910
 1886TIP3   OH227216   1.680   0.188   0.669 -0.0997 -1.4214  0.3377
 1886TIP3    H127217   1.683   0.262   0.730 -0.8408  0.8974 -2.2679
 1886TIP3    H227218   1.587   0.164   0.666 -0.3192 -0.4800 -0.9968
 1887TIP3   OH227219   1.245   4.657   7.544  0.1764  0.7867 -0.7833
 1887TIP3    H127220   1.189   4.686   7.472 -0.1963  1.5976 -0.1835
 1887TIP3    H227221   1.273   4.739   7.586  0.6707  0.3315 -0.2172
 1888TIP3   OH227222   2.668   2.637   0.281  0.1877  0.4560  0.5133
 1888TIP3    H127223   2.749   2.587   0.278  0.3345  0.7242 -0.6813
 1888TIP3    H227224   2.657   2.660   0.373  1.4485  0.3829  0.7039
 1889TIP3   OH227225   0.949   3.887   2.332 -0.7463 -0.1526  0.3694
 1889TIP3    H127226   1.027   3.910   2.382 -0.2869  0.9890 -0.8318
 1889TIP3    H227227   0.879   3.938   2.373 -0.3314  0.9438 -0.2366
 1890TIP3   OH227228   4.443   5.650   1.611 -0.3711 -0.0609  0.7247
 1890TIP3    H127229   4.489   5.566   1.613 -1.6819 -0.8418 -0.4221
 1890TIP3    H227230   4.353   5.628   1.590 -0.2111  1.8045 -2.6093
 1891TIP3   OH227231   4.381   1.504   0.426 -0.2659 -0.1489 -0.4707
 1891TIP3    H127232   4.367   1.459   0.343 -0.3289  1.0157 -1.1020
 1891TIP3    H227233   4.447   1.571   0.407 -1.7933  1.5327 -0.1056
 1892TIP3   OH227234   0.015   0.476   7.902  0.3352  0.2898  0.1121
 1892TIP3    H127235  -0.037   0.537   7.849  0.7505 -0.4816 -1.2318
 1892TIP3    H227236   0.083   0.445   7.843  0.0732 -1.5791  0.7140
 1893TIP3   OH227237   0.234   1.763   1.634  0.0582  0.2672  0.6576
 1893TIP3    H127238   0.325   1.769   1.664  0.0949  0.8389  0.4546
 1893TIP3    H227239   0.200   1.852   1.646 -0.0954  0.3677 -0.4506
 1894TIP3   OH227240   1.049   4.069   0.980 -0.0464  0.6219  0.5605
 1894TIP3    H127241   1.050   4.096   1.072  0.2038  0.6856  0.5406
 1894TIP3    H227242   1.006   3.983   0.980  2.1361 -0.5520  1.0814
 1895TIP3   OH227243   2.980   0.864   0.895 -0.2677  0.0064  0.5782
 1895TIP3    H127244   2.933   0.947   0.905  0.4838  0.1674  3.5161
 1895TIP3    H227245   2.912   0.800   0.873 -1.5973  0.6255  2.6609
 1896TIP3   OH227246   6.403   1.565   0.733 -0.5056  0.8166 -0.7735
 1896TIP3    H127247   6.387   1.471   0.720  2.2044 -0.1227  1.5332
 1896TIP3    H227248   6.328   1.596   0.782  0.2792 -1.1871  1.9212
 1897TIP3   OH227249   6.562   2.345   7.353  0.2712  0.5453 -0.3567
 1897TIP3    H127250   6.521   2.423   7.390 -0.6211  0.1183 -0.3959
 1897TIP3    H227251   6.488   2.286   7.337  1.0106 -0.6207  0.4296
 1898TIP3   OH227252   1.606   0.848   7.079  0.0678 -0.6188  0.2855
 1898TIP3    H127253   1.527   0.878   7.035  1.0062 -1.2814 -2.0198
 1898TIP3    H227254   1.579   0.772   7.130 -0.8395 -0.6395 -0.2101
 1899TIP3   OH227255   4.010   1.182   8.641  0.1784 -0.2062 -0.3236
 1899TIP3    H127256   3.979   1.149   8.726 -1.3273  2.2213  0.1739
 1899TIP3    H227257   3.948   1.146   8.578  1.4266 -2.1939 -0.4996
 1900TIP3   OH227258   1.782   4.883   6.005  0.3803  0.0859 -0.2068
 1900TIP3    H127259   1.871   4.909   5.982  1.1780  0.3461  2.7872
 1900TIP3    H227260   1.726   4.943   5.955  1.8182  0.1164 -1.9057
 1901TIP3   OH227261   1.066   4.062   8.031 -0.2263  0.2051  0.1684
 1901TIP3    H127262   1.127   4.093   7.965  0.5806 -0.1517  0.7334
 1901TIP3    H227263   1.119   4.011   8.092 -1.0933 -0.1614  0.6446
 1902TIP3   OH227264   0.235   3.900   6.755  0.0005 -0.8109  0.2510
 1902TIP3    H127265   0.262   3.831   6.816  2.7204 -0.3663 -0.3358
 1902TIP3    H227266   0.204   3.853   6.677  0.0018 -1.3520  0.5706
 1903TIP3   OH227267   1.554   3.887   6.850  0.4329 -0.5175 -0.3954
 1903TIP3    H127268   1.493   3.923   6.914 -0.6603 -1.6178 -0.7703
 1903TIP3    H227269   1.543   3.792   6.857  1.0666 -0.6914 -1.4806
 1904TIP3   OH227270   1.158   2.736   6.044  0.2645 -0.2527 -0.2027
 1904TIP3    H127271   1.138   2.763   6.133  2.1327 -0.7659  0.4179
 1904TIP3    H227272   1.092   2.669   6.024 -0.8353  0.6324  0.3612
 1905TIP3   OH227273   0.042   5.676   8.554  0.1242  0.3305 -0.1708
 1905TIP3    H127274   0.047   5.772   8.559  3.3198  0.6163 -4.0327
 1905TIP3    H227275  -0.030   5.659   8.493 -0.2664  0.2659  0.3041
 1906TIP3   OH227276   4.960   5.768   6.515  0.0864 -0.2122 -0.3610
 1906TIP3    H127277   5.012   5.739   6.440  0.4958  0.1052 -0.2069
 1906TIP3    H227278   4.968   5.696   6.579  0.3474 -0.1605 -0.3345
 1907TIP3   OH227279   0.661   2.221   8.389  0.3610  0.6345  0.2001
 1907TIP3    H127280   0.637   2.139   8.345 -1.1982  1.2881 -0.2558
 1907TIP3    H227281   0.756   2.225   8.384  0.4632 -1.1259  0.1930
 1908TIP3   OH227282   2.961   6.245   0.822 -0.0684 -0.2211 -0.2421
 1908TIP3    H127283   2.870   6.231   0.850 -0.8049  2.3061 -1.0861
 1908TIP3    H227284   3.013   6.191   0.881 -2.0309 -0.7040  1.1363
 1909TIP3   OH227285   4.154   5.107   7.360  0.0332  0.0885  0.2788
 1909TIP3    H127286   4.102   5.068   7.430  0.4570 -0.4070  0.3237
 1909TIP3    H227287   4.215   5.038   7.334  0.0386  0.3431 -0.4156
 1910TIP3   OH227288   5.151   3.418   6.394  0.4278  0.3592  0.1598
 1910TIP3    H127289   5.108   3.334   6.378  0.5698 -0.2940  2.7479
 1910TIP3    H227290   5.235   3.394   6.433 -0.4239  1.6316  3.0139
 1911TIP3   OH227291   0.190   4.347   6.754 -0.0267 -0.0011  0.1207
 1911TIP3    H127292   0.244   4.269   6.770  0.7383  0.5502  0.2880
 1911TIP3    H227293   0.167   4.379   6.841  0.1798  0.3157  0.0588
 1912TIP3   OH227294   1.750   2.931   8.475  0.0932 -0.1780 -0.0558
 1912TIP3    H127295   1.722   2.877   8.549  0.4157 -0.3227 -0.0359
 1912TIP3    H227296   1.806   2.873   8.423  1.6582  0.5599  0.7436
 1913TIP3   OH227297   6.139   6.178   7.010  0.6472 -0.8862 -0.4043
 1913TIP3    H127298   6.200   6.233   7.059 -0.1869  1.5306 -1.8750
 1913TIP3    H227299   6.082   6.139   7.077  2.2332 -1.2370  0.7979
 1914TIP3   OH227300   5.169   6.757   6.921 -0.0334 -0.2075  0.4719
 1914TIP3    H127301   5.145   6.821   6.854  0.7749 -0.0532  0.3167
 1914TIP3    H227302   5.261   6.737   6.903  0.0864 -0.4459  1.3046
 1915TIP3   OH227303   3.345   0.459   1.076 -0.4513 -1.2135 -0.0123
 1915TIP3    H127304   3.396   0.478   0.998  0.7839 -1.9255  0.5939
 1915TIP3    H227305   3.293   0.538   1.091  0.6297 -0.3906 -0.5363
 1916TIP3   OH227306   0.592   3.254   6.852  0.3155 -0.3720 -0.2566
 1916TIP3    H127307   0.506   3.263   6.892 -0.4962 -0.8016 -1.7911
 1916TIP3    H227308   0.632   3.178   6.896 -0.4094 -0.6386 -0.0471
 1917TIP3   OH227309   2.686   6.083   1.228  0.3489  0.1763 -0.3817
 1917TIP3    H127310   2.641   6.105   1.310  1.8458 -0.5341  0.6760
 1917TIP3    H227311   2.621   6.033   1.178  0.0218 -1.0979  1.2312
 1918TIP3   OH227312   4.185   3.843   7.093  0.0530 -0.2376 -0.8515
 1918TIP3    H127313   4.215   3.771   7.149 -0.4886 -0.6084 -1.0231
 1918TIP3    H227314   4.136   3.901   7.152 -0.5272 -0.6332 -0.9319
 1919TIP3   OH227315   5.530   5.309   8.363 -0.0178  0.0714 -0.4034
 1919TIP3    H127316   5.617   5.317   8.403 -0.1095  0.1392 -0.2151
 1919TIP3    H227317   5.469   5.317   8.437 -0.2086  0.8518 -0.6313
 1920TIP3   OH227318   3.390   3.869   7.905 -0.2361 -0.1897 -0.2116
 1920TIP3    H127319   3.386   3.781   7.868 -2.2188 -0.5735  0.7762
 1920TIP3    H227320   3.464   3.867   7.964  0.3115 -0.8915 -0.8986
 1921TIP3   OH227321   3.160   2.764   7.529 -0.7724 -0.1549 -0.5310
 1921TIP3    H127322   3.134   2.682   7.572  0.8021  0.5243  1.8846
 1921TIP3    H227323   3.124   2.756   7.441 -3.9356 -1.8097  0.7317
 1922TIP3   OH227324   5.984   4.402   5.980 -0.1507 -0.1525 -0.0099
 1922TIP3    H127325   6.076   4.427   5.987 -0.4390  1.0201 -0.2667
 1922TIP3    H227326   5.936   4.473   6.023 -0.8952 -1.2386  1.0449
 1923TIP3   OH227327   1.252   2.091   6.868  0.5844  0.2180  0.1662
 1923TIP3    H127328   1.297   2.079   6.785 -0.0375  0.4583 -0.2076
 1923TIP3    H227329   1.230   2.002   6.896 -0.0008  0.1836 -0.3746
 1924TIP3   OH227330   0.679   4.764   0.993  0.0126  0.1330 -0.3517
 1924TIP3    H127331   0.722   4.807   0.919  1.3668  0.7403  0.7351
 1924TIP3    H227332   0.693   4.823   1.067 -0.1453 -1.0635  0.6809
 1925TIP3   OH227333   0.078   5.944   8.578 -0.2188 -0.2941 -0.6861
 1925TIP3    H127334  -0.018   5.945   8.576 -0.3657  0.1909  2.4818
 1925TIP3    H227335   0.104   6.021   8.527 -1.7151  1.6397  1.2861
 1926TIP3   OH227336   4.097   5.799   8.559 -0.1416 -0.5534  0.0009
 1926TIP3    H127337   4.005   5.823   8.562 -0.0439 -0.1126 -0.3511
 1926TIP3    H227338   4.132   5.849   8.486 -0.1667 -2.6282 -1.5070
 1927TIP3   OH227339   0.339   5.127   7.862  0.2699 -0.0480 -0.3883
 1927TIP3    H127340   0.288   5.208   7.859  3.9756  2.6833  2.5513
 1927TIP3    H227341   0.400   5.134   7.789  0.2674 -0.5227 -0.4442
 1928TIP3   OH227342   2.116   5.379   7.954  0.6319 -0.1910  0.4611
 1928TIP3    H127343   2.205   5.411   7.940 -0.2865  2.3111 -0.2968
 1928TIP3    H227344   2.062   5.433   7.897 -1.4943 -1.0221  1.5554
 1929TIP3   OH227345   0.265   5.060   0.662 -0.4078  0.0196  0.5731
 1929TIP3    H127346   0.349   5.015   0.657  0.7645  1.8618  2.1686
 1929TIP3    H227347   0.206   4.998   0.704  0.4942 -0.8685  0.5419
 1930TIP3   OH227348   3.875   6.190   1.543  0.0238  0.2998 -0.5215
 1930TIP3    H127349   3.827   6.269   1.518 -0.4992  0.8205  1.8441
 1930TIP3    H227350   3.811   6.119   1.538  0.1369  0.2433 -1.3291
 1931TIP3   OH227351   0.604   3.138   0.012 -0.0867  0.3562  0.2463
 1931TIP3    H127352   0.552   3.203   0.060 -1.3265  0.3144 -0.9705
 1931TIP3    H227353   0.641   3.186  -0.062  0.5342  0.0823  0.3710
 1932TIP3   OH227354   1.605   2.121   6.278  0.3876 -0.2825 -0.2369
 1932TIP3    H127355   1.643   2.174   6.349  1.7552  1.0663 -1.8950
 1932TIP3    H227356   1.530   2.077   6.319  2.0192 -0.8154  2.4393
 1933TIP3   OH227357   6.651   0.060   5.911 -0.0775 -0.0621 -0.1860
 1933TIP3    H127358   6.556   0.048   5.910  0.0134 -0.8082 -0.4716
 1933TIP3    H227359   6.663   0.152   5.934 -0.8761  0.1768 -0.6793
 1934TIP3   OH227360   2.297   4.808   7.830  0.0303 -0.0781 -0.0194
 1934TIP3    H127361   2.328   4.825   7.741 -2.3041 -1.0576 -1.1174
 1934TIP3    H227362   2.324   4.718   7.849  3.5051  1.1508  1.7464
 1935TIP3   OH227363   6.552   0.573   5.527 -0.3860 -0.3410 -0.3776
 1935TIP3    H127364   6.597   0.490   5.510 -1.0741 -0.2373 -3.2526
 1935TIP3    H227365   6.473   0.548   5.575  0.4001 -1.0617  0.5830
 1936TIP3   OH227366   4.774   0.142   1.481 -0.4334 -0.0046  0.4874
 1936TIP3    H127367   4.868   0.138   1.462 -0.1527  1.1279  1.4803
 1936TIP3    H227368   4.765   0.102   1.567 -1.5317 -4.0550 -1.2773
 1937TIP3   OH227369   2.091   5.708   6.487 -0.2482  0.5107  0.2322
 1937TIP3    H127370   2.152   5.777   6.512 -1.2200  0.3671  3.4848
 1937TIP3    H227371   2.143   5.648   6.434  2.5150  0.4136  2.7913
 1938TIP3   OH227372   2.461   2.754   7.146 -0.2628 -0.0921  0.5960
 1938TIP3    H127373   2.484   2.687   7.210  0.5229 -0.1417  0.2697
 1938TIP3    H227374   2.397   2.712   7.089  0.8905 -0.8819 -0.1576
 1939TIP3   OH227375   0.472   3.799   8.061 -0.9393 -1.0297  0.2442
 1939TIP3    H127376   0.448   3.867   7.998 -2.5132 -0.8590  0.9806
 1939TIP3    H227377   0.404   3.732   8.051 -0.5457 -1.5422  0.9292
 1940TIP3   OH227378   2.602   6.172   1.478  0.2387  0.6331 -0.8919
 1940TIP3    H127379   2.664   6.175   1.552 -1.0043 -1.3611  0.3048
 1940TIP3    H227380   2.519   6.200   1.515 -0.4886 -0.7373 -1.4109
 1941TIP3   OH227381   1.111   4.189   0.457  0.5269 -0.2492  0.6933
 1941TIP3    H127382   1.104   4.176   0.551  0.0459 -1.7396  0.4850
 1941TIP3    H227383   1.049   4.259   0.437 -0.6537 -1.0876  1.2852
 1942TIP3   OH227384   6.097   2.597   7.992 -0.5713 -0.3029  0.6498
 1942TIP3    H127385   6.039   2.527   7.961 -1.0353  0.7725 -1.1025
 1942TIP3    H227386   6.107   2.581   8.086 -1.4587 -2.1216  0.4737
 1943TIP3   OH227387   1.784   4.153   7.028  0.4238  0.6609 -0.2846
 1943TIP3    H127388   1.787   4.112   6.941  1.6471  1.4675 -0.6480
 1943TIP3    H227389   1.865   4.125   7.071  0.5424  1.4544  0.0320
 1944TIP3   OH227390   2.481   0.488   6.703  0.6356 -0.3398 -0.5031
 1944TIP3    H127391   2.416   0.554   6.727  0.6402  0.1114 -1.6806
 1944TIP3    H227392   2.484   0.430   6.779 -0.1425  0.4037  0.1269
 1945TIP3   OH227393   4.723   2.352   1.414 -0.4623  0.2217 -0.1831
 1945TIP3    H127394   4.732   2.270   1.365 -0.6261  0.1421 -0.0812
 1945TIP3    H227395   4.733   2.326   1.505  0.0671  0.4036 -0.1864
 1946TIP3   OH227396   5.659   5.438   1.864 -0.6117  0.2603 -0.0702
 1946TIP3    H127397   5.638   5.381   1.938 -0.2155  1.2479  0.8370
 1946TIP3    H227398   5.638   5.526   1.896 -1.0461  0.6524 -1.3686
 1947TIP3   OH227399   2.825   4.085   7.365 -0.2534 -0.0931  0.0249
 1947TIP3    H127400   2.767   4.109   7.437 -0.3942 -0.4771  0.0472
 1947TIP3    H227401   2.780   4.117   7.286  0.0417  0.5805  0.1306
 1948TIP3   OH227402   0.918   5.681   7.732  0.0378  0.4712  0.0155
 1948TIP3    H127403   0.825   5.680   7.754 -0.1215  1.4328 -0.5270
 1948TIP3    H227404   0.945   5.771   7.749  1.1972 -0.1016  1.4014
 1949TIP3   OH227405   4.534   4.225   8.192  0.2486  0.4362  0.4347
 1949TIP3    H127406   4.617   4.270   8.212  0.8728 -0.3430 -0.3494
 1949TIP3    H227407   4.532   4.219   8.097 -0.1938 -0.5179  0.4932
 1950TIP3   OH227408   0.293   2.848   0.022  0.1868 -0.0472  0.2095
 1950TIP3    H127409   0.357   2.778   0.007  0.0887 -0.5136  1.8141
 1950TIP3    H227410   0.282   2.850   0.117 -0.0291  1.9759  0.1781
 1951TIP3   OH227411   3.153   5.823   0.533 -0.1820 -0.8190 -0.0703
 1951TIP3    H127412   3.066   5.803   0.568 -0.9667 -0.2618 -1.6345
 1951TIP3    H227413   3.177   5.747   0.481  0.6881 -1.3537  1.0669
 1952TIP3   OH227414   0.918   2.688   6.634  0.1678 -0.5090  0.0457
 1952TIP3    H127415   0.922   2.638   6.552  1.9794 -3.3198  1.6816
 1952TIP3    H227416   0.825   2.686   6.658 -0.4962  0.8118 -2.0802
 1953TIP3   OH227417   3.682   2.804   0.757  0.4970 -0.7397 -0.7886
 1953TIP3    H127418   3.651   2.806   0.667 -0.3116  0.5121 -0.5147
 1953TIP3    H227419   3.712   2.715   0.771 -3.0711 -2.1552 -1.0747
 1954TIP3   OH227420   6.754   4.927   7.533  0.0640 -0.3948 -0.1569
 1954TIP3    H127421   6.761   4.921   7.628  0.5355 -0.8596 -0.2175
 1954TIP3    H227422   6.843   4.941   7.503 -0.3100  1.6910 -0.4200
 1955TIP3   OH227423   0.822   1.631   8.695  0.2783 -0.6128  0.1674
 1955TIP3    H127424   0.843   1.686   8.771  1.0835 -0.5775 -0.0778
 1955TIP3    H227425   0.861   1.546   8.716  0.7546 -0.5200 -0.3315
 1956TIP3   OH227426   1.465   4.356   6.145 -0.1176 -0.2158  0.2069
 1956TIP3    H127427   1.432   4.383   6.060  0.1964 -0.3824  0.0343
 1956TIP3    H227428   1.429   4.269   6.159 -1.6785  0.5191  1.0567
 1957TIP3   OH227429   5.385   3.869   7.574  0.0129  0.1245  0.6270
 1957TIP3    H127430   5.342   3.832   7.496  0.6623  1.0313 -0.1752
 1957TIP3    H227431   5.439   3.940   7.541  0.7643  0.1548  1.8471
 1958TIP3   OH227432   6.705   2.957   0.103 -0.0959  0.1836 -0.2696
 1958TIP3    H127433   6.670   2.891   0.164  0.6998 -0.7603 -0.8083
 1958TIP3    H227434   6.783   2.990   0.147 -1.5810  2.3298  0.9574
 1959TIP3   OH227435   1.481   0.295   1.284  0.3180  0.0720 -0.0083
 1959TIP3    H127436   1.424   0.328   1.215 -0.8982  1.7118  1.6976
 1959TIP3    H227437   1.553   0.358   1.288  2.2399 -1.8161 -1.9344
 1960TIP3   OH227438   5.267   3.916   0.033  0.7578 -0.4473 -0.2278
 1960TIP3    H127439   5.272   3.869  -0.050  0.8982  1.2861 -1.2390
 1960TIP3    H227440   5.331   3.987   0.025  1.1997 -0.5817  1.6047
 1961TIP3   OH227441   0.956   4.949   0.519 -0.3735 -0.0482  0.6410
 1961TIP3    H127442   0.966   4.908   0.433  0.5916  0.2082  0.6249
 1961TIP3    H227443   0.865   4.981   0.520 -1.1333 -2.0310  0.6071
 1962TIP3   OH227444   1.267   0.211   6.262 -0.1968  0.0634 -0.2779
 1962TIP3    H127445   1.222   0.214   6.347  1.2941 -2.7894  0.7210
 1962TIP3    H227446   1.206   0.255   6.202 -2.5405 -0.2236  1.7175
 1963TIP3   OH227447   0.124   2.414   0.132  0.3944  0.0658 -0.3848
 1963TIP3    H127448   0.171   2.400   0.049  0.8738 -1.9582  0.1705
 1963TIP3    H227449   0.047   2.465   0.107 -0.4437 -1.9933 -2.4579
 1964TIP3   OH227450   1.564   3.177   1.016 -0.2168  0.0478  0.2132
 1964TIP3    H127451   1.659   3.187   1.016 -0.2933  1.0733  1.7435
 1964TIP3    H227452   1.530   3.266   1.013 -1.1150 -0.2740  0.4303
 1965TIP3   OH227453   1.463   5.261   1.244 -0.2173  0.0866 -0.3219
 1965TIP3    H127454   1.492   5.320   1.314 -0.0669 -1.3401  0.8696
 1965TIP3    H227455   1.545   5.226   1.207 -0.3121 -0.1626 -0.3007
 1966TIP3   OH227456   5.575   1.927   2.012 -0.6833  0.3277 -0.1822
 1966TIP3    H127457   5.535   1.908   1.926  0.7956 -1.0960 -0.6101
 1966TIP3    H227458   5.503   1.917   2.074 -2.1766  2.8949 -1.3105
 1967TIP3   OH227459   2.425   5.521   6.766 -0.1662 -0.0356 -0.5692
 1967TIP3    H127460   2.500   5.576   6.788 -1.7152  1.9101  0.1056
 1967TIP3    H227461   2.459   5.432   6.772  1.6838  0.7089  1.3815
 1968TIP3   OH227462   1.595   2.394   0.114 -0.4734  0.2426  0.4091
 1968TIP3    H127463   1.679   2.350   0.103 -0.4140  0.3900  0.2708
 1968TIP3    H227464   1.557   2.354   0.193 -0.5359 -0.2332  0.1426
 1969TIP3   OH227465   5.358   1.974   8.775  0.3601  0.2650 -0.0304
 1969TIP3    H127466   5.299   1.922   8.720  2.8437 -0.7976 -1.8539
 1969TIP3    H227467   5.412   1.910   8.820 -1.2614  1.1362  3.4696
 1970TIP3   OH227468   3.110   0.317   1.408 -1.0825 -0.5803  0.2445
 1970TIP3    H127469   3.084   0.242   1.461  1.9246 -2.2032 -0.2808
 1970TIP3    H227470   3.203   0.330   1.429 -0.4616  0.4166 -2.5745
 1971TIP3   OH227471   6.082   4.043   8.274  0.2235 -0.0929  0.2019
 1971TIP3    H127472   6.078   4.137   8.291  0.7017  0.7039 -3.3552
 1971TIP3    H227473   6.176   4.023   8.272  0.1502 -0.4300  0.0065
 1972TIP3   OH227474   0.981   2.120   0.953  0.2590 -0.3073 -0.5696
 1972TIP3    H127475   1.031   2.063   0.894  0.6651 -0.6457  0.0879
 1972TIP3    H227476   1.020   2.104   1.039 -0.0759  0.4620 -0.2727
 1973TIP3   OH227477   6.089   3.043   8.473  0.0171  0.1646 -0.2175
 1973TIP3    H127478   6.010   3.007   8.514  1.1308 -0.6719  1.3147
 1973TIP3    H227479   6.095   2.998   8.389 -0.2909 -0.9801  0.3472
 1974TIP3   OH227480   6.693   3.826   7.016 -0.1916  1.2025  0.3878
 1974TIP3    H127481   6.737   3.895   7.065  0.1302  1.2682  0.0073
 1974TIP3    H227482   6.601   3.851   7.016 -0.1117  1.4958  0.4708
 1975TIP3   OH227483   6.023   4.981   0.149 -0.4668 -0.6567  0.4389
 1975TIP3    H127484   6.050   5.072   0.142 -0.0568 -0.8243 -0.2591
 1975TIP3    H227485   5.937   4.978   0.106  0.2260 -0.8861 -1.0187
 1976TIP3   OH227486   3.830   2.478   7.711  0.8331 -0.4821  0.3499
 1976TIP3    H127487   3.770   2.415   7.672  1.0165  0.1404 -0.9841
 1976TIP3    H227488   3.787   2.503   7.794 -0.6991 -0.1550 -0.5014
 1977TIP3   OH227489   1.106   1.072   0.677  0.0196 -0.3909  0.6957
 1977TIP3    H127490   1.190   1.053   0.634  0.2215  0.1582  0.8329
 1977TIP3    H227491   1.122   1.052   0.769  1.3480  3.5432  1.5062
 1978TIP3   OH227492   3.215   4.658   0.932  0.0166 -0.1191  0.1645
 1978TIP3    H127493   3.145   4.717   0.961  0.0002 -0.7626  1.5380
 1978TIP3    H227494   3.173   4.573   0.924  0.4686 -0.3544  0.2308
 1979TIP3   OH227495   5.925   3.282   8.414 -0.3761 -0.7096 -0.1321
 1979TIP3    H127496   5.950   3.371   8.437  0.6012 -0.8465 -0.5946
 1979TIP3    H227497   5.981   3.226   8.468 -1.0973 -1.0521  0.2747
 1980TIP3   OH227498   4.140   6.669   0.074 -0.3783 -0.5450  0.1808
 1980TIP3    H127499   4.169   6.756   0.046  2.2316 -2.2979 -3.4484
 1980TIP3    H227500   4.045   6.670   0.064 -0.3958  1.8271  0.1744
 1981TIP3   OH227501   4.629   1.241   0.170 -0.3009 -0.1443  0.0071
 1981TIP3    H127502   4.678   1.159   0.160  0.7955  0.1560  2.2128
 1981TIP3    H227503   4.665   1.299   0.102 -0.6288 -1.2586 -1.1417
 1982TIP3   OH227504   4.118   3.925   6.316  0.0705  0.1291  0.3130
 1982TIP3    H127505   4.098   3.949   6.225  0.9057  0.6131  0.2467
 1982TIP3    H227506   4.208   3.891   6.312 -0.7415 -2.2130  0.5462
 1983TIP3   OH227507   1.477   1.049   1.132  0.4737  0.0707  0.8103
 1983TIP3    H127508   1.506   1.132   1.094  0.7175 -0.2446  0.2921
 1983TIP3    H227509   1.529   1.039   1.212  2.0066 -0.6085 -0.2293
 1984TIP3   OH227510   3.625   2.573   8.188  0.2432 -0.5116 -0.1759
 1984TIP3    H127511   3.599   2.643   8.247  0.0999 -0.6305 -0.0967
 1984TIP3    H227512   3.721   2.569   8.195  0.5949  1.6638 -2.4152
 1985TIP3   OH227513   0.202   5.757   8.053 -0.7108  0.2494 -0.4112
 1985TIP3    H127514   0.197   5.815   8.128 -3.1271 -1.2931  0.7358
 1985TIP3    H227515   0.236   5.675   8.088 -1.5135 -0.3803 -1.0523
 1986TIP3   OH227516   1.506   0.659   7.384 -0.1158 -0.6954 -0.3947
 1986TIP3    H127517   1.422   0.695   7.412 -0.8611 -1.5394 -1.4274
 1986TIP3    H227518   1.570   0.728   7.403 -1.2133  0.4237 -0.6184
 1987TIP3   OH227519   4.386   5.074   1.282 -0.4681 -0.3373 -0.7210
 1987TIP3    H127520   4.334   5.078   1.203  0.0839  1.4938 -1.0298
 1987TIP3    H227521   4.476   5.060   1.252 -0.1240  1.2684 -0.5028
 1988TIP3   OH227522   4.324   0.561   6.723  0.2850 -0.1185  0.1565
 1988TIP3    H127523   4.310   0.656   6.720 -0.2175 -0.1981 -0.0304
 1988TIP3    H227524   4.266   0.526   6.656  0.9485 -0.5083 -0.2185
 1989TIP3   OH227525   1.738   5.146   8.451 -0.9388  0.6014 -0.0253
 1989TIP3    H127526   1.756   5.162   8.544  1.6745  1.3426 -0.5612
 1989TIP3    H227527   1.682   5.219   8.424 -2.3633 -0.0380  1.0994
 1990TIP3   OH227528   6.763   2.312   7.948  0.0382 -0.1734  0.3985
 1990TIP3    H127529   6.849   2.299   7.989  0.8091  0.0006 -1.0707
 1990TIP3    H227530   6.760   2.246   7.878 -1.8557 -1.4479  1.6167
 1991TIP3   OH227531   3.123   3.241   7.798  0.0175  0.1112  0.5981
 1991TIP3    H127532   3.125   3.222   7.892  1.0204 -0.0012  0.5675
 1991TIP3    H227533   3.215   3.233   7.770 -0.4998 -1.7110 -0.7664
 1992TIP3   OH227534   6.091   2.012   1.357  0.1342  0.2314  0.7415
 1992TIP3    H127535   6.161   1.972   1.409 -2.2000 -1.9304  2.4977
 1992TIP3    H227536   6.124   2.009   1.267  1.3833 -3.0613  1.1238
 1993TIP3   OH227537   0.436   1.619   7.780  0.6699  0.4858  0.1277
 1993TIP3    H127538   0.527   1.635   7.753  0.9724 -2.3491 -0.8666
 1993TIP3    H227539   0.421   1.526   7.761 -2.7992  1.0840 -0.7255
 1994TIP3   OH227540   4.170   4.865   6.641 -0.0745  0.0116 -0.4727
 1994TIP3    H127541   4.132   4.917   6.570 -0.4889  0.1991 -0.1237
 1994TIP3    H227542   4.132   4.778   6.630 -1.1431  0.3695  0.2694
 1995TIP3   OH227543   2.136   5.963   0.865 -0.3483  0.1140 -0.5824
 1995TIP3    H127544   2.211   6.019   0.845 -0.6089  0.1460 -1.5135
 1995TIP3    H227545   2.063   6.024   0.874 -0.3413  0.0493 -0.0777
 1996TIP3   OH227546   4.627   0.366   8.635  0.0168  0.4595  0.6619
 1996TIP3    H127547   4.580   0.426   8.576  1.1517  0.9348  0.2122
 1996TIP3    H227548   4.593   0.386   8.722 -1.2136  0.2012  0.2559
 1997TIP3   OH227549   4.579   3.689   7.518  0.0051  0.8143  0.0949
 1997TIP3    H127550   4.651   3.736   7.561 -0.0217  1.2231 -0.2928
 1997TIP3    H227551   4.623   3.626   7.460  0.0532  0.9001  0.0366
 1998TIP3   OH227552   4.939   2.612   7.053 -0.4104  0.6578  0.0850
 1998TIP3    H127553   4.920   2.629   6.961 -0.6516 -0.1376 -0.0166
 1998TIP3    H227554   4.886   2.535   7.075  2.1007 -1.1963  0.0079
 1999TIP3   OH227555   3.057   5.240   6.888  0.3292  0.2704 -0.6871
 1999TIP3    H127556   3.124   5.176   6.863  1.4510  0.9712  0.4576
 1999TIP3    H227557   3.054   5.235   6.983 -0.4422  1.0709 -0.6627
 2000TIP3   OH227558   4.825   0.810   1.082 -0.5439  0.0846 -0.2506
 2000TIP3    H127559   4.817   0.875   1.152  1.5553 -0.3425  0.4422
 2000TIP3    H227560   4.779   0.850   1.008 -0.4978  1.7375  0.5573
 2001TIP3   OH227561   3.771   2.729   1.327  0.4539  0.1110  0.6630
 2001TIP3    H127562   3.728   2.747   1.411 -1.6802 -0.3781 -0.2596
 2001TIP3    H227563   3.779   2.815   1.286 -2.0615  0.0300 -0.1963
 2002TIP3   OH227564   2.309   5.490   0.699  0.0588 -0.2979  0.4461
 2002TIP3    H127565   2.345   5.578   0.704  2.7536 -1.2032 -1.0814
 2002TIP3    H227566   2.329   5.451   0.784  0.1952  0.0985  0.5998
 2003TIP3   OH227567   6.658   1.609   0.828 -0.1805  0.1828 -0.1880
 2003TIP3    H127568   6.710   1.530   0.812 -0.3591  0.5208 -2.8663
 2003TIP3    H227569   6.588   1.605   0.763 -1.8815  1.1603  1.4987
 2004TIP3   OH227570   5.473   6.291   8.348  0.7993 -0.6004  0.3144
 2004TIP3    H127571   5.389   6.254   8.319  0.6802 -0.3950  0.3976
 2004TIP3    H227572   5.525   6.215   8.374  0.6020 -0.7203  0.3577
 2005TIP3   OH227573   1.974   1.649   7.963 -0.0080 -0.0243 -0.2143
 2005TIP3    H127574   1.954   1.645   7.870  2.2763  0.1515 -0.7685
 2005TIP3    H227575   2.024   1.570   7.981 -0.7601 -0.2574  0.9772
 2006TIP3   OH227576   4.673   4.071   6.784 -0.5070 -0.4636 -0.6104
 2006TIP3    H127577   4.600   4.011   6.801 -0.5566  0.0858  1.3378
 2006TIP3    H227578   4.635   4.158   6.793  0.0600 -0.1386 -1.2091
 2007TIP3   OH227579   4.090   6.686   7.837 -0.2090 -0.0459  0.3824
 2007TIP3    H127580   4.086   6.749   7.764  0.9443 -1.3863 -0.9085
 2007TIP3    H227581   4.028   6.618   7.813 -0.0586 -0.3371  0.8220
 2008TIP3   OH227582   4.056   4.102   8.766  0.1274 -0.3036  0.4743
 2008TIP3    H127583   4.007   4.132   8.689 -0.2742 -0.9365  0.4749
 2008TIP3    H227584   4.146   4.093   8.736 -0.2187 -1.6325 -0.2435
 2009TIP3   OH227585   2.326   6.016   7.748 -0.1670  0.3779 -0.1697
 2009TIP3    H127586   2.340   6.035   7.655  1.0716 -1.3468 -0.3963
 2009TIP3    H227587   2.303   5.923   7.750  2.9013 -0.4857  1.4104
 2010TIP3   OH227588   0.328   6.214   7.662  0.0222 -0.1373 -0.3133
 2010TIP3    H127589   0.298   6.284   7.719 -1.1977 -0.0585 -1.0219
 2010TIP3    H227590   0.252   6.157   7.651 -0.3633  0.7727 -3.2312
 2011TIP3   OH227591   3.172   2.134   7.750  0.2620 -0.3963 -0.0647
 2011TIP3    H127592   3.086   2.135   7.708  0.7033 -1.2571 -1.0434
 2011TIP3    H227593   3.222   2.201   7.704  0.4408 -0.6544 -0.2523
 2012TIP3   OH227594   2.727   1.739   0.640  0.2466 -0.3497  0.5590
 2012TIP3    H127595   2.654   1.708   0.693 -0.6020  1.9926  0.8954
 2012TIP3    H227596   2.694   1.738   0.551  0.1743 -0.2508  0.5853
 2013TIP3   OH227597   6.614   2.243   7.652 -0.2412 -0.2331  0.0386
 2013TIP3    H127598   6.554   2.306   7.692  0.7638  0.6319  0.2526
 2013TIP3    H227599   6.586   2.237   7.561 -0.3551  0.5404  0.0163
 2014TIP3   OH227600   5.233   5.435   1.031  0.4924  0.2061  0.5245
 2014TIP3    H127601   5.201   5.433   1.121 -0.2041 -1.6520  0.2790
 2014TIP3    H227602   5.170   5.490   0.984 -0.9132 -1.2458  0.6022
 2015TIP3   OH227603   2.437   2.321   8.279 -0.8973 -0.3371  0.0352
 2015TIP3    H127604   2.511   2.327   8.219 -0.2414  4.7644  0.8849
 2015TIP3    H227605   2.460   2.250   8.338  1.2114 -1.6959 -2.2146
 2016TIP3   OH227606   1.057   0.898   1.041 -0.2487  0.6275  0.4770
 2016TIP3    H127607   1.000   0.899   1.118 -1.1844  1.3862 -0.2122
 2016TIP3    H227608   1.001   0.870   0.969  1.2199 -2.9009  0.4542
 2017TIP3   OH227609   4.108   1.991   0.239 -0.4797  0.1666  0.0517
 2017TIP3    H127610   4.194   1.951   0.250 -1.0206 -1.4450 -1.2196
 2017TIP3    H227611   4.125   2.085   0.239  1.4772 -0.1290 -1.6671
 2018TIP3   OH227612   6.503   4.300   8.698  0.5195 -0.2147 -0.2399
 2018TIP3    H127613   6.517   4.282   8.791  1.2836  0.8146 -0.1352
 2018TIP3    H227614   6.411   4.324   8.691  0.9579  1.9201  0.6599
 2019TIP3   OH227615   0.076   6.215   8.790  0.1573  0.1543  0.3692
 2019TIP3    H127616  -0.015   6.221   8.763  0.0860 -0.5039  0.4436
 2019TIP3    H227617   0.090   6.291   8.846 -0.4246  0.1131  0.5749
 2020TIP3   OH227618   4.433   3.043   6.965  0.1622 -0.3531  0.1899
 2020TIP3    H127619   4.355   3.054   6.911 -0.0428 -1.6568  0.1842
 2020TIP3    H227620   4.505   3.072   6.909  0.0323 -2.2628 -1.0874
 2021TIP3   OH227621   4.801   5.115   7.947  0.2284 -0.2920 -0.0862
 2021TIP3    H127622   4.737   5.184   7.927 -0.3485 -1.2503 -1.7819
 2021TIP3    H227623   4.819   5.074   7.862  2.5058 -0.5844  0.4677
 2022TIP3   OH227624   3.511   5.696   8.684 -0.4341 -0.0688 -0.3118
 2022TIP3    H127625   3.427   5.699   8.638  0.0354  2.6086 -1.1626
 2022TIP3    H227626   3.510   5.773   8.741  0.8627 -0.8380  0.8204
 2023TIP3   OH227627   1.439   6.734   1.520  0.3645 -0.2526 -0.2109
 2023TIP3    H127628   1.406   6.678   1.590 -0.3247  0.6164  0.1937
 2023TIP3    H227629   1.524   6.764   1.551  0.4059 -0.4907 -0.0956
 2024TIP3   OH227630   4.738   4.091   7.421  0.1186 -0.2763 -0.0940
 2024TIP3    H127631   4.724   4.021   7.484 -0.2489  0.4673  0.6633
 2024TIP3    H227632   4.692   4.061   7.342 -0.9040 -0.4387  0.5384
 2025TIP3   OH227633   3.048   4.995   7.979 -0.5614 -0.4153  0.3612
 2025TIP3    H127634   3.120   4.950   7.935  0.7261  0.1614  1.7872
 2025TIP3    H227635   3.033   4.945   8.059 -1.9275 -0.6475 -0.0002
 2026TIP3   OH227636   5.666   3.956   7.180 -0.4616 -0.2255  0.4513
 2026TIP3    H127637   5.761   3.948   7.171 -0.5571 -2.1946  0.7416
 2026TIP3    H227638   5.653   4.028   7.242  0.7944  0.4263 -0.0086
 2027TIP3   OH227639   2.045   1.439   0.608 -0.6944  0.6694  0.5001
 2027TIP3    H127640   2.018   1.505   0.673 -0.5348  3.3252 -1.9006
 2027TIP3    H227641   1.974   1.440   0.544 -0.3692 -1.1293  0.0629
 2028TIP3   OH227642   6.440   0.442   8.777  0.2195 -0.1019  0.0373
 2028TIP3    H127643   6.402   0.455   8.864 -0.8804  0.9127 -0.5728
 2028TIP3    H227644   6.468   0.350   8.777 -1.8090 -0.7760  0.6893
 2029TIP3   OH227645   4.415   0.773   0.761  0.1497 -0.0331  0.2434
 2029TIP3    H127646   4.452   0.692   0.796 -1.6549 -0.4030  1.4768
 2029TIP3    H227647   4.326   0.748   0.734 -0.5060  1.5626  0.8235
 2030TIP3   OH227648   4.925   1.753   8.644 -0.2580 -0.6134 -0.3944
 2030TIP3    H127649   4.918   1.664   8.677 -0.6335 -0.3083  0.3737
 2030TIP3    H227650   4.835   1.786   8.645 -0.5017 -0.9780 -2.8779
 2031TIP3   OH227651   2.162   4.629   0.733 -0.1315 -0.3835 -0.3808
 2031TIP3    H127652   2.174   4.647   0.640  0.8255  0.5671 -0.0926
 2031TIP3    H227653   2.241   4.662   0.775 -0.0632 -1.7816  0.6628
 2032TIP3   OH227654   6.754   1.486   1.546 -0.1050 -0.3426  0.1337
 2032TIP3    H127655   6.738   1.550   1.615 -1.1546 -0.4213 -0.0287
 2032TIP3    H227656   6.753   1.401   1.591  0.2840 -0.3246  0.1843
 2033TIP3   OH227657   2.710   0.855   8.822 -0.0025 -0.2070  0.3936
 2033TIP3    H127658   2.748   0.941   8.840  1.3285 -0.7213  0.1350
 2033TIP3    H227659   2.715   0.809   8.906  0.3084 -0.4161  0.2591
 2034TIP3   OH227660   6.384   4.031   0.247  0.7304  0.0973  0.0955
 2034TIP3    H127661   6.447   3.975   0.292 -0.2320 -0.1401  1.2170
 2034TIP3    H227662   6.388   4.003   0.156 -0.3657 -2.5533  0.7369
 2035TIP3   OH227663   6.260   1.576   1.586 -0.2468 -0.3563 -0.0258
 2035TIP3    H127664   6.196   1.588   1.656 -0.9072 -0.4392 -0.6064
 2035TIP3    H227665   6.331   1.526   1.627  0.0244  0.7905  0.9529
 2036TIP3   OH227666   0.426   3.566   0.580  0.1777  0.0992 -0.1809
 2036TIP3    H127667   0.366   3.539   0.511 -0.9050  0.2990  0.6631
 2036TIP3    H227668   0.413   3.661   0.588  0.2152  0.0642  0.3609
 2037TIP3   OH227669   1.788   2.507   1.081  0.4794  0.7922  0.3530
 2037TIP3    H127670   1.705   2.519   1.036 -0.3435  0.0475  1.6239
 2037TIP3    H227671   1.786   2.570   1.153  1.5888  1.6549 -0.3181
 2038TIP3   OH227672   6.020   1.004   1.002  0.2137 -0.1860 -0.2148
 2038TIP3    H127673   6.025   1.023   1.095 -2.3598  0.0227 -0.0473
 2038TIP3    H227674   6.075   0.927   0.990  1.1243  0.1827  1.3294
 2039TIP3   OH227675   5.038   3.313   7.066  0.3008  0.1040 -0.0275
 2039TIP3    H127676   4.998   3.259   6.998  2.9936 -1.4046 -0.5748
 2039TIP3    H227677   5.058   3.250   7.136  2.0690  0.6733  0.0105
 2040TIP3   OH227678   1.610   0.056   7.807 -0.0909 -0.0609 -0.1082
 2040TIP3    H127679   1.573   0.109   7.877 -0.2564 -0.0995 -0.1638
 2040TIP3    H227680   1.569   0.091   7.727 -0.5949 -0.6057 -0.0935
 2041TIP3   OH227681   3.905   2.334   8.022 -0.1442  0.0271  0.5181
 2041TIP3    H127682   3.825   2.370   8.059  0.2183  0.1230  1.2269
 2041TIP3    H227683   3.938   2.402   7.964  0.2840  0.6631  1.4841
 2042TIP3   OH227684   2.584   4.368   7.890 -0.3973 -0.0861  0.0552
 2042TIP3    H127685   2.667   4.324   7.873 -0.7364 -0.3199 -1.0871
 2042TIP3    H227686   2.554   4.332   7.973  0.2609 -0.5877  0.0831
 2043TIP3   OH227687   2.538   3.323   1.903  0.3625  0.1608 -0.6341
 2043TIP3    H127688   2.448   3.346   1.879  0.6091  0.1329 -1.6255
 2043TIP3    H227689   2.531   3.286   1.991 -0.2086  2.9451  0.5955
 2044TIP3   OH227690   4.078   4.768   1.800 -0.1172  0.0775  0.2281
 2044TIP3    H127691   4.146   4.705   1.822  0.2122 -0.3473 -1.7642
 2044TIP3    H227692   4.026   4.724   1.732 -0.3969  1.6145 -0.5992
 2045TIP3   OH227693   4.200   4.094   8.251 -0.4570  0.2705 -0.3867
 2045TIP3    H127694   4.149   4.073   8.329 -1.0544  1.1598 -0.5329
 2045TIP3    H227695   4.291   4.090   8.280 -0.6966  1.5605  0.6182
 2046TIP3   OH227696   0.264   0.644   6.844 -0.2452  0.3540  0.2027
 2046TIP3    H127697   0.171   0.627   6.859 -0.2918  0.6658  0.2871
 2046TIP3    H227698   0.266   0.687   6.759 -0.1192 -0.1670 -0.0618
 2047TIP3   OH227699   5.861   5.571   0.449 -0.1029 -0.6721 -0.1650
 2047TIP3    H127700   5.805   5.553   0.374  0.3264 -1.8353 -0.2206
 2047TIP3    H227701   5.809   5.630   0.504 -0.0929  0.9230 -1.7659
 2048TIP3   OH227702   0.799   6.695   1.102 -0.1015 -0.0904  0.5296
 2048TIP3    H127703   0.826   6.752   1.175 -0.2652 -0.1645  0.6488
 2048TIP3    H227704   0.721   6.737   1.067 -0.3855 -0.3933  0.7970
 2049TIP3   OH227705   4.287   1.023   2.197  0.3659  0.3919  0.0945
 2049TIP3    H127706   4.214   0.980   2.240 -1.5134  1.3066 -1.9939
 2049TIP3    H227707   4.323   0.957   2.138  2.0629 -0.4214  1.9127
 2050TIP3   OH227708   0.053   1.197   8.606  0.0685  0.5956  0.3714
 2050TIP3    H127709   0.015   1.117   8.644 -0.3306  0.4618 -0.2846
 2050TIP3    H227710  -0.021   1.257   8.599  0.3856  1.0506  0.9299
 2051TIP3   OH227711   2.900   0.078   7.224  0.2719  0.2069 -0.0644
 2051TIP3    H127712   2.860   0.067   7.138  1.2706 -3.2789 -0.2438
 2051TIP3    H227713   2.989   0.110   7.205  0.2296  0.2059 -0.2662
 2052TIP3   OH227714   2.880   3.586   1.254 -0.0757  0.1662 -0.0852
 2052TIP3    H127715   2.933   3.550   1.325  0.6696  0.0675 -0.6718
 2052TIP3    H227716   2.800   3.534   1.254  0.5178 -0.7736 -0.2083
 2053TIP3   OH227717   1.576   2.067   8.786  0.5563  0.0414 -0.0053
 2053TIP3    H127718   1.563   2.107   8.700  0.3381 -0.3106 -0.1412
 2053TIP3    H227719   1.596   1.975   8.767 -0.3092 -0.2329  0.3442
 2054TIP3   OH227720   3.044   3.565   0.003  0.7007 -0.5540  0.1240
 2054TIP3    H127721   3.054   3.622   0.079  3.1819 -0.6872 -0.0080
 2054TIP3    H227722   3.113   3.593  -0.058  0.2979 -1.9698 -1.0653
 2055TIP3   OH227723   5.708   1.198   8.044  0.1915 -0.1510 -0.1798
 2055TIP3    H127724   5.626   1.201   8.095 -0.2307 -1.1757 -0.7700
 2055TIP3    H227725   5.695   1.126   7.983  1.9168 -0.9700  0.3615
 2056TIP3   OH227726   1.041   6.254   8.331  0.4424  0.0157 -0.4640
 2056TIP3    H127727   1.124   6.272   8.375  0.1293 -0.0654  0.1717
 2056TIP3    H227728   1.042   6.311   8.254 -0.1751  2.1857  1.0563
 2057TIP3   OH227729   1.601   2.653   0.262  0.4709  0.3225  0.1283
 2057TIP3    H127730   1.627   2.711   0.190 -0.1948  1.0295  0.4426
 2057TIP3    H227731   1.579   2.570   0.219  2.9932 -0.2844 -0.1840
 2058TIP3   OH227732   3.767   0.249   0.562  0.4461  0.3627 -0.6145
 2058TIP3    H127733   3.831   0.315   0.587 -0.3879 -0.1382  3.5625
 2058TIP3    H227734   3.819   0.170   0.547  1.1587  1.1392 -2.5126
 2059TIP3   OH227735   1.658   4.921   0.945  0.7127  0.1038 -0.1545
 2059TIP3    H127736   1.620   4.898   0.861  1.4840  0.2490 -0.5529
 2059TIP3    H227737   1.590   4.972   0.989  0.5074  0.4952 -0.9099
 2060TIP3   OH227738   1.015   2.251   7.552  0.3659  0.0687 -0.7273
 2060TIP3    H127739   1.048   2.338   7.529 -1.4566  0.6973 -1.1854
 2060TIP3    H227740   0.948   2.268   7.619 -1.5380 -0.7111 -2.3421
 2061TIP3   OH227741   5.959   4.451   0.969  0.3253 -0.0185 -0.3538
 2061TIP3    H127742   5.944   4.435   0.876 -2.0069  0.2757 -0.1094
 2061TIP3    H227743   5.940   4.368   1.012 -1.8088  0.6096  0.0636
 2062TIP3   OH227744   2.747   6.424   0.497 -0.1057 -0.1570  0.4220
 2062TIP3    H127745   2.723   6.499   0.442  1.7008  1.1529  1.3149
 2062TIP3    H227746   2.747   6.458   0.586 -3.0598 -2.2692  1.3654
 2063TIP3   OH227747   0.123   3.371   2.366 -0.5963  0.1797  0.3378
 2063TIP3    H127748   0.202   3.318   2.370 -0.4265  0.3861 -0.2423
 2063TIP3    H227749   0.155   3.461   2.359 -0.8840  0.2932  0.4610
 2064TIP3   OH227750   1.950   4.598   0.930  0.1216 -0.4222 -0.3974
 2064TIP3    H127751   1.886   4.637   0.871 -0.6849  1.2771  1.5052
 2064TIP3    H227752   2.034   4.613   0.887 -0.1744  3.1576 -0.0100
 2065TIP3   OH227753   5.282   4.590   7.034  0.3997  0.6649 -0.7037
 2065TIP3    H127754   5.332   4.526   7.084 -0.8773 -1.8210 -2.3474
 2065TIP3    H227755   5.201   4.601   7.084  0.4126  0.5713 -0.6607
 2066TIP3   OH227756   3.610   1.387   8.119  0.3196 -0.3614  0.2464
 2066TIP3    H127757   3.692   1.359   8.079  1.2732  0.1695  1.7584
 2066TIP3    H227758   3.601   1.479   8.096  0.0020 -0.4814 -0.1285
 2067TIP3   OH227759   2.836   3.176   1.137 -0.0023 -0.0054  0.5607
 2067TIP3    H127760   2.800   3.222   1.061  0.7166  0.0507  0.2435
 2067TIP3    H227761   2.800   3.223   1.212 -0.0551  0.4731  0.2459
 2068TIP3   OH227762   4.404   3.217   0.915  0.1866  0.1612  0.2650
 2068TIP3    H127763   4.337   3.224   0.847  1.0129  2.4578 -0.4085
 2068TIP3    H227764   4.402   3.125   0.941 -2.5124 -0.0583 -0.4217
 2069TIP3   OH227765   6.381   3.792   7.146  0.9423 -0.0847  0.4584
 2069TIP3    H127766   6.329   3.721   7.109  2.1712  0.3071 -2.2359
 2069TIP3    H227767   6.329   3.871   7.128  2.0978  0.2490 -1.7828
 2070TIP3   OH227768   6.656   3.371   0.586  0.2428 -1.2364 -0.4847
 2070TIP3    H127769   6.633   3.417   0.667  1.0740 -0.3854 -0.7207
 2070TIP3    H227770   6.600   3.293   0.587 -0.2726 -0.8801  0.5530
 2071TIP3   OH227771   3.756   2.450   1.425 -0.0013  0.0911 -0.5838
 2071TIP3    H127772   3.756   2.527   1.368  1.3109 -1.3473 -2.6534
 2071TIP3    H227773   3.805   2.477   1.502 -0.3502  1.5818 -0.8558
 2072TIP3   OH227774   5.970   3.119   0.581 -0.0765  0.1531 -0.0631
 2072TIP3    H127775   5.978   3.190   0.644  0.1868  0.1342 -0.0746
 2072TIP3    H227776   5.942   3.044   0.632  0.9747 -0.0902  0.1893
 2073TIP3   OH227777   2.240   2.549   1.421 -0.0871 -0.3980 -1.1991
 2073TIP3    H127778   2.216   2.583   1.507 -1.0408 -1.3026 -1.1015
 2073TIP3    H227779   2.333   2.526   1.430  0.2351  0.9168 -0.8831
 2074TIP3   OH227780   2.642   0.893   7.632 -0.1231 -0.3967 -0.8384
 2074TIP3    H127781   2.735   0.885   7.613  0.1278 -0.9137  0.5170
 2074TIP3    H227782   2.621   0.984   7.613  1.3974  0.6007  1.7829
 2075TIP3   OH227783   6.473   1.019   0.632 -0.1772  0.9261  0.0084
 2075TIP3    H127784   6.452   1.112   0.645 -3.3822  0.1349  1.5878
 2075TIP3    H227785   6.543   1.002   0.695 -0.4032  2.0350  0.5945
 2076TIP3   OH227786   5.568   2.326   8.630 -0.4017 -0.0279  0.7377
 2076TIP3    H127787   5.563   2.284   8.544  3.4585  1.4788 -0.4799
 2076TIP3    H227788   5.478   2.332   8.660 -1.7312 -2.5384 -2.2117
 2077TIP3   OH227789   2.930   6.619   7.341 -0.9143 -0.2557 -0.2750
 2077TIP3    H127790   2.910   6.701   7.297 -1.4300 -0.1807  0.0879
 2077TIP3    H227791   2.863   6.611   7.409 -0.4545 -0.6306  0.1467
 2078TIP3   OH227792   2.828   3.865   1.898  0.1426 -0.4441 -0.6962
 2078TIP3    H127793   2.751   3.824   1.859 -0.9479  0.3975  0.4947
 2078TIP3    H227794   2.889   3.793   1.912 -0.1114 -1.0241 -2.3238
 2079TIP3   OH227795   3.519   3.194   1.128  0.0907 -0.2239  0.0925
 2079TIP3    H127796   3.437   3.146   1.118 -0.4072  0.7858 -0.8321
 2079TIP3    H227797   3.493   3.279   1.162  0.8717 -0.2374  0.7641
 2080TIP3   OH227798   2.023   6.099   1.451  0.1548 -0.1096 -0.2699
 2080TIP3    H127799   2.069   6.177   1.481 -0.2199  0.2983 -0.7401
 2080TIP3    H227800   1.934   6.110   1.485  0.1268 -0.3805 -0.2558
 2081TIP3   OH227801   1.517   1.855   1.405  0.4215  0.3489  0.3396
 2081TIP3    H127802   1.582   1.818   1.465  0.8623 -0.2842 -0.5081
 2081TIP3    H227803   1.539   1.948   1.400  1.7927  0.0108 -0.5490
 2082TIP3   OH227804   2.793   5.572   7.679 -0.0551 -0.1106 -0.2996
 2082TIP3    H127805   2.846   5.534   7.748 -1.7013 -1.9953  0.0216
 2082TIP3    H227806   2.855   5.593   7.609  1.2711 -0.8496  0.6193
 2083TIP3   OH227807   1.265   4.200   8.757  0.1845 -0.2354 -0.1955
 2083TIP3    H127808   1.222   4.141   8.695 -3.2194 -0.7640  2.3688
 2083TIP3    H227809   1.330   4.145   8.801  0.1207 -0.8215 -0.8246
 2084TIP3   OH227810   0.653   5.651   6.918 -0.0992  0.6335 -0.6122
 2084TIP3    H127811   0.687   5.573   6.874 -1.7348 -0.2761 -0.3407
 2084TIP3    H227812   0.710   5.664   6.993  2.2495  1.7287 -2.4640
 2085TIP3   OH227813   5.199   1.039   1.199  0.5204 -0.1551 -0.3870
 2085TIP3    H127814   5.109   1.019   1.225 -0.2726  2.4819 -0.7305
 2085TIP3    H227815   5.212   0.990   1.118  0.6633 -3.1982  1.3462
 2086TIP3   OH227816   3.806   5.386   0.081 -0.2420 -0.8624  0.2704
 2086TIP3    H127817   3.742   5.411   0.015  2.1859  1.5505 -1.3928
 2086TIP3    H227818   3.755   5.344   0.150 -3.5287  0.6478 -1.0445
 2087TIP3   OH227819   1.308   0.979   0.498 -0.7556 -0.2703  0.1370
 2087TIP3    H127820   1.349   1.057   0.461 -0.1931 -0.6611 -0.0682
 2087TIP3    H227821   1.281   0.928   0.422 -0.4181 -0.6456  0.2717
 2088TIP3   OH227822   2.408   6.167   6.396  0.0470 -0.1800 -0.2242
 2088TIP3    H127823   2.351   6.102   6.356  0.6954 -0.8754 -0.0339
 2088TIP3    H227824   2.419   6.234   6.329 -0.4301 -0.3804 -0.5054
 2089TIP3   OH227825   5.313   1.176   6.975 -0.5826  0.4382  0.1393
 2089TIP3    H127826   5.244   1.236   6.946  0.5729  1.6962 -0.0857
 2089TIP3    H227827   5.338   1.130   6.895 -0.6477  0.5131  0.0749
 2090TIP3   OH227828   3.494   2.555   6.814  0.0055 -0.6077  0.0864
 2090TIP3    H127829   3.539   2.489   6.760 -0.7298 -1.6697  0.7211
 2090TIP3    H227830   3.420   2.507   6.852 -0.9179  0.7654  0.0769
 2091TIP3   OH227831   4.320   3.466   8.026 -0.0661 -0.3117  0.2222
 2091TIP3    H127832   4.247   3.502   7.975 -0.2784 -0.6554  0.2839
 2091TIP3    H227833   4.389   3.532   8.018 -1.0781  1.0237  1.8583
 2092TIP3   OH227834   4.977   5.894   8.319 -0.0240 -0.3935  0.4345
 2092TIP3    H127835   4.909   5.845   8.273 -2.3202  2.5274  0.4435
 2092TIP3    H227836   4.945   5.900   8.409  0.6610  0.3211  0.6393
 2093TIP3   OH227837   6.738   4.254   8.572  0.2287  0.4575 -0.0839
 2093TIP3    H127838   6.668   4.278   8.633  0.3650 -1.6965  1.0238
 2093TIP3    H227839   6.713   4.295   8.489 -2.6188 -0.5903  0.1475
 2094TIP3   OH227840   1.064   4.409   8.557 -0.0107  0.1350  0.3894
 2094TIP3    H127841   0.978   4.443   8.581  0.0064  0.4854 -0.0367
 2094TIP3    H227842   1.126   4.474   8.590  0.0625  0.1409  0.2419
 2095TIP3   OH227843   2.020   3.457   7.643  0.6118 -0.4807 -1.0485
 2095TIP3    H127844   2.088   3.389   7.643  1.1522 -0.1008 -4.0730
 2095TIP3    H227845   2.011   3.482   7.735  3.9157 -1.1874 -0.3812
 2096TIP3   OH227846   0.901   6.748   1.480  0.0897 -0.1522 -0.5999
 2096TIP3    H127847   0.805   6.750   1.485  0.1541  1.8487  1.8720
 2096TIP3    H227848   0.922   6.808   1.409 -0.4704  0.3605 -0.3409
 2097TIP3   OH227849   0.839   0.792   0.916  0.1920 -0.2952 -0.4153
 2097TIP3    H127850   0.796   0.707   0.921  1.2916 -0.8714 -0.6034
 2097TIP3    H227851   0.821   0.823   0.828 -1.7878  0.5409  0.2301
 2098TIP3   OH227852   2.823   3.403   0.011 -0.3730 -0.0094  0.8901
 2098TIP3    H127853   2.906   3.451   0.004 -0.9304  0.9813  0.8379
 2098TIP3    H227854   2.767   3.461   0.063 -0.9364 -0.8049  1.1805
 2099TIP3   OH227855   2.508   5.400   8.291  0.7694 -0.0763  0.4679
 2099TIP3    H127856   2.460   5.320   8.269  1.9558 -0.7601  0.3309
 2099TIP3    H227857   2.464   5.468   8.239 -0.0051 -0.6980  0.2835
 2100TIP3   OH227858   6.174   4.278   8.798  0.0680 -0.2120  0.0589
 2100TIP3    H127859   6.175   4.373   8.788 -0.2398 -0.2887 -0.7698
 2100TIP3    H227860   6.085   4.257   8.827 -0.3799 -0.3832 -1.3637
 2101TIP3   OH227861   5.696   3.554   0.639  0.1021  0.1591 -0.0098
 2101TIP3    H127862   5.669   3.516   0.722 -2.1271  0.2973 -0.6073
 2101TIP3    H227863   5.677   3.485   0.574  1.3270  0.2384 -0.4802
 2102TIP3   OH227864   6.271   3.911   1.352  0.4353 -0.3008  0.3774
 2102TIP3    H127865   6.330   3.915   1.427  0.4289  0.4673  0.3555
 2102TIP3    H227866   6.326   3.878   1.280  0.2799 -1.6524  0.8491
 2103TIP3   OH227867   2.721   5.862   7.958  0.3888  0.6837 -0.1252
 2103TIP3    H127868   2.687   5.920   7.890 -0.2704 -0.2857 -0.6387
 2103TIP3    H227869   2.812   5.845   7.932 -0.2872 -0.8933 -1.6454
 2104TIP3   OH227870   4.196   2.617   7.825 -0.4033 -0.3935 -0.6038
 2104TIP3    H127871   4.278   2.567   7.826  0.5897  1.1554 -0.0172
 2104TIP3    H227872   4.144   2.577   7.756  1.7283 -0.0863 -2.4879
 2105TIP3   OH227873   6.669   3.264   2.385 -1.1052 -0.0541 -0.2714
 2105TIP3    H127874   6.749   3.314   2.370  0.5763 -2.1985  0.9757
 2105TIP3    H227875   6.625   3.310   2.457  0.0706  0.0064  0.4306
 2106TIP3   OH227876   2.404   2.254   1.129 -0.0816  0.0930  0.2338
 2106TIP3    H127877   2.477   2.315   1.118 -1.6084  2.0415  0.4132
 2106TIP3    H227878   2.411   2.226   1.221  0.1263  0.6995  0.4130
 2107TIP3   OH227879   2.244   2.842   1.227 -0.3555  0.1155 -0.1424
 2107TIP3    H127880   2.191   2.857   1.149 -0.0976 -1.2222 -0.6163
 2107TIP3    H227881   2.193   2.780   1.279 -0.0464  0.1724  0.2311
 2108TIP3   OH227882   1.133   2.995   7.586  0.2643  0.1588 -0.4372
 2108TIP3    H127883   1.143   3.038   7.671 -0.4020  0.1037 -0.3264
 2108TIP3    H227884   1.221   2.996   7.548  0.4854  0.5529  0.0747
 2109TIP3   OH227885   2.416   1.672   7.086 -0.2133 -0.3390 -0.1901
 2109TIP3    H127886   2.487   1.712   7.036 -1.5972  1.1582 -1.0659
 2109TIP3    H227887   2.409   1.583   7.050  1.0688 -0.4323 -0.2310
 2110TIP3   OH227888   5.939   5.492   1.802  0.6614  0.1112 -0.1194
 2110TIP3    H127889   5.988   5.411   1.791  0.0446 -0.4051  0.7950
 2110TIP3    H227890   5.849   5.463   1.817  0.0527  1.0240 -1.6949
 2111TIP3   OH227891   2.199   2.940   8.672  0.7403 -0.0031 -0.0754
 2111TIP3    H127892   2.280   2.976   8.708  0.2543  1.4008 -0.3063
 2111TIP3    H227893   2.156   2.898   8.746  1.2997 -0.0574  0.2242
 2112TIP3   OH227894   4.087   2.386   0.482  0.0083 -0.0855 -0.5388
 2112TIP3    H127895   4.133   2.373   0.399  0.8620 -1.4814  0.1085
 2112TIP3    H227896   4.077   2.297   0.517 -0.0978  0.5026  0.9708
 2113TIP3   OH227897   5.558   0.149   7.274 -0.1913 -0.3711 -0.0994
 2113TIP3    H127898   5.516   0.135   7.189 -3.3092  0.3081  1.1878
 2113TIP3    H227899   5.644   0.108   7.265 -0.9231 -1.5411 -3.1041
 2114TIP3   OH227900   2.695   0.293   7.752 -0.1365 -0.2311  0.7363
 2114TIP3    H127901   2.600   0.306   7.749 -0.1991 -0.7763 -1.1805
 2114TIP3    H227902   2.714   0.278   7.844 -1.6923  1.3512  1.3909
 2115TIP3   OH227903   6.014   6.265   1.573 -0.4335  0.5807  0.0088
 2115TIP3    H127904   5.986   6.316   1.497  2.0584  1.0015 -0.6983
 2115TIP3    H227905   6.018   6.175   1.541  1.7155  0.9021 -0.7650
 2116TIP3   OH227906   2.824   4.376   8.079  0.4793  0.2178  0.1848
 2116TIP3    H127907   2.821   4.470   8.064  0.3540  0.1266 -0.3904
 2116TIP3    H227908   2.831   4.338   7.991  0.7990 -0.2955  0.4286
 2117TIP3   OH227909   0.276   4.401   0.846  0.5569 -0.1074  0.0410
 2117TIP3    H127910   0.365   4.373   0.870  1.0138  0.9413 -0.3822
 2117TIP3    H227911   0.273   4.392   0.751 -0.3800 -1.7546  0.1870
 2118TIP3   OH227912   2.936   1.284   6.738  0.0504  0.3142  0.2237
 2118TIP3    H127913   2.848   1.309   6.709 -0.1534 -0.4883  0.1232
 2118TIP3    H227914   2.922   1.215   6.802  0.6478 -1.1849 -1.1831
 2119TIP3   OH227915   3.976   0.047   0.478 -0.2896 -0.1172 -0.8497
 2119TIP3    H127916   3.929   0.080   0.401 -0.5805  1.2801 -0.1023
 2119TIP3    H227917   3.912  -0.009   0.522 -1.0766  1.2622 -0.1826
 2120TIP3   OH227918   3.092   1.852   7.294  0.1215 -0.1448 -0.3845
 2120TIP3    H127919   3.164   1.914   7.283 -0.0218  0.0696 -0.1273
 2120TIP3    H227920   3.128   1.782   7.349 -0.2578  0.6382  0.9018
 2121TIP3   OH227921   2.560   1.601   0.832 -0.5142  0.1240  0.3087
 2121TIP3    H127922   2.497   1.596   0.904 -1.8162 -4.2067 -0.8222
 2121TIP3    H227923   2.646   1.597   0.874 -1.2382 -2.9805  1.7396
 2122TIP3   OH227924   0.631   0.976   0.562  0.1668  0.8781  0.4593
 2122TIP3    H127925   0.642   0.983   0.467 -1.0129 -1.4108  0.0801
 2122TIP3    H227926   0.537   0.990   0.577  0.0009 -0.6518  1.0190
 2123TIP3   OH227927   5.316   4.170   7.367 -0.2481  0.3330  0.3452
 2123TIP3    H127928   5.236   4.144   7.321 -1.2292  0.6298  1.7902
 2123TIP3    H227929   5.383   4.112   7.333 -0.9710  0.3718 -1.2409
 2124TIP3   OH227930   6.476   4.170   7.072 -0.2291  0.5597  0.1660
 2124TIP3    H127931   6.396   4.118   7.065 -0.8607  1.4545  0.6139
 2124TIP3    H227932   6.492   4.201   6.983 -0.7145  0.8663  0.1850
 2125TIP3   OH227933   3.246   4.373   5.834 -0.2247  0.5576  0.1378
 2125TIP3    H127934   3.263   4.467   5.843 -1.2501  0.8118 -0.4298
 2125TIP3    H227935   3.331   4.336   5.809  0.1536  1.3497  0.2010
 2126TIP3   OH227936   6.594   0.881   7.842 -0.2125 -0.0009 -0.0233
 2126TIP3    H127937   6.583   0.839   7.928 -0.3324  1.4687  0.7147
 2126TIP3    H227938   6.675   0.930   7.850 -0.4164  0.4430 -0.6394
 2127TIP3   OH227939   3.192   4.829   0.327  0.2119 -0.0980  0.9133
 2127TIP3    H127940   3.149   4.806   0.409  0.9715  0.2495  1.4231
 2127TIP3    H227941   3.286   4.822   0.347  0.3999 -0.8593 -0.1719
 2128TIP3   OH227942   6.216   1.539   8.652  0.1419 -0.1954 -0.3797
 2128TIP3    H127943   6.165   1.464   8.681  0.2911 -0.6038 -1.1512
 2128TIP3    H227944   6.303   1.505   8.634  0.1335  0.0975 -1.0149
 2129TIP3   OH227945   4.488   4.449   6.038 -0.2383  0.7771  0.1378
 2129TIP3    H127946   4.555   4.516   6.047  1.5358 -1.1614  3.3888
 2129TIP3    H227947   4.527   4.385   5.978  0.4719  0.1489  1.2271
 2130TIP3   OH227948   6.132   6.761   7.278  0.7588  0.3485 -0.4669
 2130TIP3    H127949   6.199   6.829   7.282  0.1812  0.9126 -0.2082
 2130TIP3    H227950   6.052   6.804   7.308  0.8210 -0.9877  1.8835
 2131TIP3   OH227951   6.223   0.688   5.546 -0.6298 -1.0326  0.3007
 2131TIP3    H127952   6.172   0.668   5.468  2.3071 -2.5960 -1.3974
 2131TIP3    H227953   6.263   0.773   5.527 -0.9692 -0.7672  0.7429
 2132TIP3   OH227954   1.676   0.510   1.378  0.6775 -0.0365 -0.4377
 2132TIP3    H127955   1.701   0.602   1.374  0.9478 -0.1209 -0.6922
 2132TIP3    H227956   1.759   0.463   1.381  0.5514 -0.3188 -1.2116
 2133TIP3   OH227957   3.876   1.256   1.586  0.4813 -0.1733 -0.1908
 2133TIP3    H127958   3.800   1.211   1.624  0.2804  0.0261 -0.3492
 2133TIP3    H227959   3.946   1.191   1.589  0.8047  0.2079  1.6085
 2134TIP3   OH227960   5.072   2.286   0.584 -0.5107 -0.6418  0.0024
 2134TIP3    H127961   5.085   2.204   0.632  2.2577 -0.7498 -0.7657
 2134TIP3    H227962   5.085   2.354   0.650 -3.5366 -0.7352  0.8046
 2135TIP3   OH227963   2.288   1.186   6.904 -0.4241  0.0527  0.1896
 2135TIP3    H127964   2.272   1.260   6.845  0.4710  0.0875 -0.0285
 2135TIP3    H227965   2.254   1.110   6.857 -2.1893  0.4267  0.8091
 2136TIP3   OH227966   2.920   4.602   6.790  0.0022  0.6953 -0.5404
 2136TIP3    H127967   2.842   4.558   6.825  0.7677 -1.7764 -1.7114
 2136TIP3    H227968   2.962   4.642   6.866 -1.1642  0.0305  0.4842
 2137TIP3   OH227969   0.643   0.594   1.429  0.5221 -0.3541  0.3311
 2137TIP3    H127970   0.668   0.505   1.454 -1.3732 -1.6289 -1.9441
 2137TIP3    H227971   0.549   0.599   1.447  0.1852  0.4381 -1.4491
 2138TIP3   OH227972   3.552   4.725   0.332  0.3150  0.3517  0.1302
 2138TIP3    H127973   3.609   4.670   0.279  0.5059  0.3181  0.3688
 2138TIP3    H227974   3.511   4.665   0.395 -0.7500  0.2012 -0.6688
 2139TIP3   OH227975   3.546   5.563   7.371  0.4082 -0.5123  0.1565
 2139TIP3    H127976   3.533   5.471   7.349 -0.1014 -0.4937  0.3860
 2139TIP3    H227977   3.640   5.578   7.356  0.1456 -0.5248 -1.8893
 2140TIP3   OH227978   3.618   3.742   0.863  0.1138 -0.0365  0.1109
 2140TIP3    H127979   3.661   3.821   0.832  1.6404 -0.4726  1.0386
 2140TIP3    H227980   3.636   3.740   0.957 -1.7511 -0.3754  0.5129
 2141TIP3   OH227981   5.386   6.224   0.678 -0.2181 -0.0965  0.2161
 2141TIP3    H127982   5.449   6.296   0.685 -0.4928  0.1049  0.6856
 2141TIP3    H227983   5.303   6.266   0.656 -0.5008 -0.2035  1.0343
 2142TIP3   OH227984   3.686   6.195   6.630  0.0347  0.5536 -0.0936
 2142TIP3    H127985   3.740   6.172   6.554  0.1881 -0.1597  0.2315
 2142TIP3    H227986   3.597   6.195   6.596  0.0130 -0.6635 -0.0758
 2143TIP3   OH227987   2.913   4.108   8.161  0.8118  0.1308  0.0028
 2143TIP3    H127988   2.884   4.198   8.151  1.1632  0.3557  0.9092
 2143TIP3    H227989   2.855   4.057   8.104  1.8474  1.1234 -2.0256
 2144TIP3   OH227990   5.464   2.723   7.972 -0.0533 -0.4086  0.7165
 2144TIP3    H127991   5.388   2.729   7.915 -1.0897 -2.0810  1.8456
 2144TIP3    H227992   5.448   2.788   8.041  1.6340  2.2883 -1.2031
 2145TIP3   OH227993   3.744   1.860   7.629 -0.3836  0.3350  0.7288
 2145TIP3    H127994   3.771   1.824   7.714 -0.5021 -0.7968  0.3014
 2145TIP3    H227995   3.685   1.795   7.593 -1.1234  1.2782  0.1991
 2146TIP3   OH227996   5.855   6.284   6.547  0.1639 -0.1174 -0.2406
 2146TIP3    H127997   5.842   6.190   6.560  2.1095 -0.3938  0.0523
 2146TIP3    H227998   5.767   6.321   6.552 -0.6589 -1.9250 -0.4714
 2147TIP3   OH227999   4.199   1.369   7.059 -0.2555  0.1308  0.4436
 2147TIP3    H128000   4.269   1.344   7.119 -0.1823 -0.2154  0.2146
 2147TIP3    H228001   4.150   1.437   7.106  1.6310  2.1184 -0.3013
 2148TIP3   OH228002   5.126   1.893   1.985 -0.1024 -0.3588 -0.9980
 2148TIP3    H128003   5.092   1.806   2.008 -0.8630  0.2225  0.1654
 2148TIP3    H228004   5.068   1.954   2.029  1.7951  0.7192  0.1306
 2149TIP3   OH228005   1.470   1.062   7.375  0.4752 -0.1508 -0.1562
 2149TIP3    H128006   1.411   1.102   7.311 -1.0902  0.8377  1.8066
 2149TIP3    H228007   1.412   1.017   7.436  1.7540  0.5173  1.6307
 2150TIP3   OH228008   0.697   3.995   7.070 -0.1041 -0.0060  0.1785
 2150TIP3    H128009   0.678   3.953   7.154  1.3914 -0.1334  0.4839
 2150TIP3    H228010   0.681   3.927   7.005  0.2270 -0.3935  0.4948
 2151TIP3   OH228011   4.846   5.904   7.642 -0.0732  0.9452  0.4555
 2151TIP3    H128012   4.844   5.893   7.737  2.9602  1.1045  0.6116
 2151TIP3    H228013   4.828   5.817   7.607  0.7381  0.4612  1.2241
 2152TIP3   OH228014   1.529   4.174   7.119  0.0932  0.4288  0.7250
 2152TIP3    H128015   1.614   4.146   7.084 -0.4977  0.2883 -0.6354
 2152TIP3    H228016   1.509   4.254   7.070 -1.5829 -0.7341 -0.5883
 2153TIP3   OH228017   6.558   2.055   7.930 -0.3443  1.4756 -0.0614
 2153TIP3    H128018   6.544   2.135   7.979  0.3583  0.7906  1.3097
 2153TIP3    H228019   6.653   2.052   7.915  0.0967 -0.4090  2.3707
 2154TIP3   OH228020   0.992   3.904   1.707  0.2621  0.2583  0.2146
 2154TIP3    H128021   1.004   3.977   1.647  2.2776 -0.8304 -0.8008
 2154TIP3    H228022   1.075   3.857   1.706 -1.0993 -2.3489  0.4289
 2155TIP3   OH228023   1.226   5.032   0.339  0.0172 -0.0848  0.0194
 2155TIP3    H128024   1.260   5.117   0.311 -0.9601  0.7768  1.2994
 2155TIP3    H228025   1.241   4.974   0.265  2.0017  0.8343 -0.3727
 2156TIP3   OH228026   3.951   0.243   0.119 -0.2561 -0.0892 -0.0801
 2156TIP3    H128027   3.955   0.328   0.162  0.1409 -0.1750  0.0523
 2156TIP3    H228028   3.902   0.260   0.038  1.0792  0.5762 -0.7792
 2157TIP3   OH228029   1.131   0.657   0.874 -0.3990 -0.8597 -0.1687
 2157TIP3    H128030   1.191   0.727   0.902  0.1843 -1.4420  0.0538
 2157TIP3    H228031   1.079   0.637   0.951  0.1160 -1.3569  0.0538
 2158TIP3   OH228032   5.593   5.597   0.556  0.0772 -0.2092 -0.3505
 2158TIP3    H128033   5.664   5.535   0.568  1.1721  1.2878  1.5652
 2158TIP3    H228034   5.539   5.588   0.635  0.0582  0.9909 -0.2023
 2159TIP3   OH228035   1.917   5.485   8.590  0.3959 -0.2742 -0.3775
 2159TIP3    H128036   1.945   5.563   8.543  0.2129 -0.2484 -0.4421
 2159TIP3    H228037   1.835   5.509   8.631  2.1931  0.9119  2.9220
 2160TIP3   OH228038   5.362   4.419   1.125 -0.7924  0.8608  0.9272
 2160TIP3    H128039   5.431   4.473   1.163 -0.1726  1.2649 -0.7068
 2160TIP3    H228040   5.311   4.479   1.071 -1.6139  0.3003  1.0704
 2161TIP3   OH228041   0.622   2.065   0.980 -0.0792  0.1400  0.5321
 2161TIP3    H128042   0.688   2.014   0.933 -0.2710  0.8651 -0.5609
 2161TIP3    H228043   0.665   2.089   1.062 -0.3073 -2.5493  1.5260
 2162TIP3   OH228044   0.997   4.106   1.528  0.0394 -0.2066  0.1618
 2162TIP3    H128045   1.025   4.197   1.525  0.0990 -0.2453 -1.3233
 2162TIP3    H228046   0.923   4.101   1.467  0.4312 -1.2626 -0.2681
 2163TIP3   OH228047   4.310   6.788   1.673  0.0573 -0.0909  0.4952
 2163TIP3    H128048   4.305   6.735   1.752  2.9755  0.0139  0.8727
 2163TIP3    H228049   4.403   6.811   1.666 -0.3398  1.0454 -2.2176
 2164TIP3   OH228050   5.455   6.217   8.701 -0.5310  0.0819 -0.3194
 2164TIP3    H128051   5.479   6.289   8.643 -0.8334  1.2931  0.9908
 2164TIP3    H228052   5.527   6.212   8.764  0.7505 -2.4806 -1.8316
 2165TIP3   OH228053   4.929   2.055   6.940 -0.0482  0.5835 -0.0357
 2165TIP3    H128054   4.986   2.132   6.939  0.7046  0.0293 -0.2274
 2165TIP3    H228055   4.919   2.032   6.847 -1.9254  1.6311 -0.1612
 2166TIP3   OH228056   5.053   3.996   6.340  0.2982 -0.4209 -0.5421
 2166TIP3    H128057   5.015   3.969   6.424  2.0026 -0.1385  0.3651
 2166TIP3    H228058   5.029   4.088   6.331 -2.3741 -1.1497 -1.8477
 2167TIP3   OH228059   3.864   6.263   7.854  0.0075  0.0001 -0.4150
 2167TIP3    H128060   3.907   6.181   7.829  0.9523  0.6823 -1.0839
 2167TIP3    H228061   3.782   6.263   7.804  1.0894  0.5516 -2.2823
 2168TIP3   OH228062   5.490   0.146   6.981 -0.1471  0.4663  0.0147
 2168TIP3    H128063   5.440   0.210   6.931 -0.7145  0.7174  0.8703
 2168TIP3    H228064   5.468   0.062   6.942 -0.3600  0.6817 -0.3355
 2169TIP3   OH228065   0.016   4.884   8.144 -0.2136  0.5400  0.0252
 2169TIP3    H128066   0.050   4.858   8.229  0.8753  1.3902 -0.1318
 2169TIP3    H228067  -0.037   4.962   8.162  0.5065  1.0813 -0.1306
 2170TIP3   OH228068   2.715   3.043   0.849  0.1437  0.0305 -0.2499
 2170TIP3    H128069   2.748   3.132   0.852  1.1192 -0.2890 -1.1260
 2170TIP3    H228070   2.726   3.010   0.938 -1.4182  1.1797  0.4135
 2171TIP3   OH228071   3.472   3.801   8.520  0.8013  0.1236 -0.5930
 2171TIP3    H128072   3.542   3.758   8.569  0.7891 -0.0682 -0.7396
 2171TIP3    H228073   3.455   3.742   8.447  0.7643  0.3681 -0.7829
 2172TIP3   OH228074   2.719   0.728   6.727 -0.3654  0.1476  0.4706
 2172TIP3    H128075   2.672   0.742   6.809 -1.3042  0.4716 -0.1130
 2172TIP3    H228076   2.746   0.815   6.699  0.3031 -0.0013  0.6241
 2173TIP3   OH228077   4.035   2.783   0.339  0.9395 -0.0961  0.0019
 2173TIP3    H128078   3.977   2.707   0.334 -0.2388  0.8490 -1.6451
 2173TIP3    H228079   4.107   2.761   0.280 -0.1132  0.5878 -1.6077
 2174TIP3   OH228080   0.579   2.896   7.607 -0.7251  0.2768  0.5847
 2174TIP3    H128081   0.643   2.881   7.677  2.1042 -0.0117 -1.8818
 2174TIP3    H228082   0.575   2.991   7.599  1.0869  0.3148 -0.5535
 2175TIP3   OH228083   2.105   1.712   0.368 -0.5686  0.3890 -0.0603
 2175TIP3    H128084   2.026   1.755   0.333 -0.1495  1.1528 -0.0862
 2175TIP3    H228085   2.096   1.720   0.463 -1.8097 -1.8679  0.0899
 2176TIP3   OH228086   4.512   5.393   7.475 -0.3283  0.4495  0.1385
 2176TIP3    H128087   4.605   5.416   7.469 -0.2900  0.0381 -1.0814
 2176TIP3    H228088   4.489   5.410   7.566  1.3066 -0.8184  0.8366
 2177TIP3   OH228089   6.515   3.859   0.413 -0.1648  0.3916 -0.5733
 2177TIP3    H128090   6.548   3.820   0.494 -2.6230 -2.2919 -0.7123
 2177TIP3    H228091   6.570   3.821   0.344 -0.0239  0.2884 -0.4062
 2178TIP3   OH228092   5.252   6.438   0.361  0.4833 -0.3681  0.0064
 2178TIP3    H128093   5.229   6.375   0.429  0.5642 -2.0491 -1.4519
 2178TIP3    H228094   5.169   6.459   0.318  0.6378 -0.5507 -0.3884
 2179TIP3   OH228095   4.375   3.468   0.357  0.5115  0.1530  0.4526
 2179TIP3    H128096   4.419   3.383   0.362 -0.4189 -0.3004  1.3335
 2179TIP3    H228097   4.444   3.532   0.373  1.3801 -0.3675 -0.9867
 2180TIP3   OH228098   1.011   5.066   0.881 -0.2454  0.1643 -0.1413
 2180TIP3    H128099   1.088   5.123   0.886  1.1636 -1.4295 -2.1501
 2180TIP3    H228100   0.990   5.046   0.972  0.2865  2.4300  0.5421
 2181TIP3   OH228101   0.611   6.756   8.171  0.1140 -0.5493 -0.3554
 2181TIP3    H128102   0.597   6.817   8.099 -1.0872  0.0912  0.3855
 2181TIP3    H228103   0.576   6.672   8.140 -0.4219 -0.2695 -0.5216
 2182TIP3   OH228104   2.130   2.280   5.880  0.4158 -0.2508 -0.2367
 2182TIP3    H128105   2.177   2.362   5.864 -0.0900 -0.2064 -1.6146
 2182TIP3    H228106   2.190   2.211   5.853  0.8581 -0.3552  0.9650
 2183TIP3   OH228107   2.024   1.437   7.306 -0.4370 -0.6426 -0.6728
 2183TIP3    H128108   2.056   1.408   7.221 -2.4079 -0.5030 -1.5159
 2183TIP3    H228109   1.982   1.521   7.287 -0.5804 -0.4356  0.5217
 2184TIP3   OH228110   5.247   3.695   8.709 -0.2743 -0.1498  0.6679
 2184TIP3    H128111   5.228   3.635   8.781 -0.2804  0.0857  0.8624
 2184TIP3    H228112   5.179   3.677   8.644  2.5204 -3.9920 -1.5995
 2185TIP3   OH228113   3.879   6.391   8.433  0.1537 -0.1855 -0.1536
 2185TIP3    H128114   3.851   6.450   8.503  0.3179 -0.5372  0.2136
 2185TIP3    H228115   3.814   6.321   8.433  1.4186 -1.4380  1.2480
 2186TIP3   OH228116   1.956   6.529   0.930 -0.0847 -0.0041 -0.3940
 2186TIP3    H128117   1.942   6.624   0.934  0.2242  0.0275  0.0090
 2186TIP3    H228118   1.994   6.514   0.843  0.7467  0.3639 -0.1034
 2187TIP3   OH228119   6.656   2.812   6.956  0.1788 -0.0314 -0.0336
 2187TIP3    H128120   6.650   2.717   6.962 -0.0806  0.0867  2.8112
 2187TIP3    H228121   6.719   2.827   6.885 -0.0876 -2.2821 -0.8324
 2188TIP3   OH228122   6.086   3.721   1.633 -0.3844 -0.2608  0.4789
 2188TIP3    H128123   6.104   3.677   1.550  0.4501 -1.0853  1.0749
 2188TIP3    H228124   6.046   3.654   1.688  1.9522 -0.6863  1.7978
 2189TIP3   OH228125   4.343   4.464   7.705  0.4240 -0.5656 -0.2357
 2189TIP3    H128126   4.283   4.409   7.654  0.7804 -1.1278 -0.0511
 2189TIP3    H228127   4.428   4.454   7.662  0.2407  0.8870 -1.0059
 2190TIP3   OH228128   2.804   1.471   7.766  0.3622 -0.0182 -0.1703
 2190TIP3    H128129   2.763   1.392   7.730  0.6090 -0.9612  1.5154
 2190TIP3    H228130   2.880   1.486   7.711 -0.0589 -0.5701 -0.9226
 2191TIP3   OH228131   1.595   5.729   6.505 -0.0308  0.2651  0.0104
 2191TIP3    H128132   1.683   5.705   6.536 -0.1256  2.4198  2.2956
 2191TIP3    H228133   1.539   5.717   6.582 -1.2830  1.1730 -0.7237
 2192TIP3   OH228134   5.436   0.502   0.871  0.5191 -0.1660 -0.3958
 2192TIP3    H128135   5.506   0.551   0.915 -0.1772 -0.5523  1.2308
 2192TIP3    H228136   5.478   0.463   0.795  1.3877  1.9479 -1.0744
 2193TIP3   OH228137   2.771   3.702   7.552  0.0576 -0.3039 -0.8059
 2193TIP3    H128138   2.817   3.661   7.480 -0.8217  0.2712 -1.7334
 2193TIP3    H228139   2.683   3.665   7.549 -0.7693  1.5920 -1.6859
 2194TIP3   OH228140   4.168   5.895   0.403  0.0575  0.0721  0.3038
 2194TIP3    H128141   4.234   5.957   0.372 -0.8739  0.7433 -0.3635
 2194TIP3    H228142   4.098   5.949   0.438 -0.8050 -0.5998 -0.3589
 2195TIP3   OH228143   6.432   3.994   0.867  0.7494  0.0730 -0.2888
 2195TIP3    H128144   6.388   3.975   0.785 -0.2862  0.2154  0.2203
 2195TIP3    H228145   6.442   3.909   0.909  0.1906  0.1273 -0.0336
 2196TIP3   OH228146   4.381   2.079   7.311 -0.1405 -0.3962 -0.7091
 2196TIP3    H128147   4.421   1.995   7.285 -0.8216 -0.0441 -3.1850
 2196TIP3    H228148   4.289   2.058   7.324 -0.8372  0.2987 -3.7818
 2197TIP3   OH228149   3.546   2.121   0.336 -0.4155 -0.5775  0.8748
 2197TIP3    H128150   3.553   2.109   0.431  2.4874  0.3955  0.8912
 2197TIP3    H228151   3.631   2.092   0.303 -0.8277  0.5174 -1.2642
 2198TIP3   OH228152   4.800   2.737   1.306 -0.3599 -0.0473 -0.1639
 2198TIP3    H128153   4.821   2.650   1.340  0.3401  0.6247  1.2436
 2198TIP3    H228154   4.881   2.767   1.264 -0.3878  0.1586 -0.0771
 2199TIP3   OH228155   4.717   0.744   7.022  0.1857 -0.0133  0.6337
 2199TIP3    H128156   4.667   0.746   7.104 -0.9836 -3.4785  0.1831
 2199TIP3    H228157   4.666   0.797   6.962 -1.0126 -0.5368  1.1596
 2200TIP3   OH228158   4.687   6.136   0.456  0.4300 -0.2594  0.0593
 2200TIP3    H128159   4.748   6.111   0.386 -0.3848 -3.5173  0.3923
 2200TIP3    H228160   4.638   6.057   0.476 -2.8082  1.7886  1.0037
 2201TIP3   OH228161   4.413   2.259   0.889 -0.4037  0.1793 -0.2029
 2201TIP3    H128162   4.403   2.269   0.983 -2.4547  1.3476 -0.4849
 2201TIP3    H228163   4.337   2.208   0.861 -0.1559  0.3793 -1.3076
 2202TIP3   OH228164   5.402   5.268   6.314 -0.8841  0.1423 -0.4342
 2202TIP3    H128165   5.336   5.222   6.262 -0.8848 -1.0529  0.5670
 2202TIP3    H228166   5.443   5.329   6.253 -1.5934 -0.4691 -1.5539
 2203TIP3   OH228167   5.636   2.875   8.584  0.2033 -0.6194  0.4634
 2203TIP3    H128168   5.627   2.844   8.674  1.7207 -1.3100  0.4066
 2203TIP3    H228169   5.728   2.897   8.576 -0.3896  1.9597 -0.1587
 2204TIP3   OH228170   1.627   0.706   8.301 -0.8959 -0.2928  0.3818
 2204TIP3    H128171   1.720   0.683   8.300 -1.2195 -1.6975 -0.1775
 2204TIP3    H228172   1.593   0.672   8.218 -1.3380  2.9139 -0.8931
 2205TIP3   OH228173   5.261   0.285   1.917  0.2047  0.1677  0.2623
 2205TIP3    H128174   5.354   0.271   1.932  0.0945  1.9842  3.3244
 2205TIP3    H228175   5.257   0.360   1.857  0.6327 -1.1755 -1.5377
 2206TIP3   OH228176   6.570   0.749   8.082  0.9008 -0.9034  0.1387
 2206TIP3    H128177   6.493   0.795   8.116  1.5984  0.7376 -0.3932
 2206TIP3    H228178   6.628   0.738   8.157  1.4032  0.5495 -0.0119
 2207TIP3   OH228179   0.707   3.004   0.307 -0.1645 -0.4125 -0.3919
 2207TIP3    H128180   0.784   3.018   0.252 -0.1485  0.5468 -0.1432
 2207TIP3    H228181   0.728   2.926   0.359  0.5065 -0.3403 -0.5536
 2208TIP3   OH228182   4.546   2.802   0.097  0.1356 -0.3739 -0.2316
 2208TIP3    H128183   4.558   2.737   0.028  0.1027 -1.1445  0.4690
 2208TIP3    H228184   4.585   2.762   0.175 -1.4174 -0.3011  0.6224
 2209TIP3   OH228185   3.995   0.436   8.063 -0.1437 -0.0539  0.0739
 2209TIP3    H128186   4.051   0.399   8.131 -0.5483 -0.6406  0.0971
 2209TIP3    H228187   4.052   0.495   8.013  0.4554 -0.5385  0.1833
 2210TIP3   OH228188   2.301   1.289   0.031  0.6079 -0.1302  0.1315
 2210TIP3    H128189   2.282   1.354  -0.037  1.4421  1.3088  1.2061
 2210TIP3    H228190   2.283   1.335   0.113  3.4867 -0.4172  1.0340
 2211TIP3   OH228191   5.366   2.698   0.678 -0.4549 -0.2595 -0.4916
 2211TIP3    H128192   5.292   2.757   0.690  0.3840  0.8255 -0.4740
 2211TIP3    H228193   5.400   2.685   0.767  0.7223  1.0862 -0.6995
 2212TIP3   OH228194   6.724   3.133   8.254 -0.5712  0.0530  0.0620
 2212TIP3    H128195   6.653   3.141   8.190 -0.8502  1.4378  0.5150
 2212TIP3    H228196   6.781   3.208   8.235  0.3268 -0.5746  0.2503
 2213TIP3   OH228197   5.404   6.120   6.322 -0.1431 -0.1451  0.7248
 2213TIP3    H128198   5.398   6.202   6.372 -1.0017  0.4425 -0.3050
 2213TIP3    H228199   5.496   6.114   6.298 -0.3369  1.4038 -0.5857
 2214TIP3   OH228200   2.114   4.253   8.172 -0.1458 -0.5198  0.0232
 2214TIP3    H128201   2.042   4.202   8.208 -0.0309 -1.2793 -0.7909
 2214TIP3    H228202   2.192   4.200   8.189 -0.1425 -1.1585 -1.7393
 2215TIP3   OH228203   3.736   3.969   1.681 -0.4359 -0.2665 -0.1228
 2215TIP3    H128204   3.747   3.880   1.645  2.6638 -0.1343  0.2720
 2215TIP3    H228205   3.821   3.990   1.719 -1.2108  2.7645  0.1362
 2216TIP3   OH228206   1.424   2.454   0.761 -0.1502  0.1855  0.0680
 2216TIP3    H128207   1.350   2.393   0.765 -0.5969  0.7149 -0.0397
 2216TIP3    H228208   1.399   2.517   0.693  0.6754  0.0096 -0.4139
 2217TIP3   OH228209   1.355   4.419   6.678  0.0845  0.2921  0.1155
 2217TIP3    H128210   1.281   4.479   6.681 -0.1068  0.0033  1.2494
 2217TIP3    H228211   1.385   4.423   6.587 -1.1547  0.5992 -0.2898
 2218TIP3   OH228212   1.086   0.459   6.454 -0.4864  0.3211  0.1624
 2218TIP3    H128213   1.088   0.364   6.442  2.0841  0.4131 -0.7808
 2218TIP3    H228214   1.140   0.474   6.532  2.5691  1.1358 -1.9172
 2219TIP3   OH228215   5.024   1.857   0.334  0.2923 -0.0009 -0.2477
 2219TIP3    H128216   4.945   1.811   0.306  0.3302 -0.9374  1.0753
 2219TIP3    H228217   5.085   1.846   0.262 -0.0897 -1.0945 -0.4160
 2220TIP3   OH228218   4.201   4.988   1.090  0.0230  0.2740  0.0864
 2220TIP3    H128219   4.152   4.913   1.057 -0.1985  0.2556  0.4583
 2220TIP3    H228220   4.141   5.031   1.150  0.5792  0.0676  0.7963
 2221TIP3   OH228221   5.739   4.436   0.439  0.7923  0.6306 -0.0076
 2221TIP3    H128222   5.804   4.491   0.396 -0.2167 -0.0533 -2.5894
 2221TIP3    H228223   5.663   4.493   0.450  1.4773  1.2129  2.3272
 2222TIP3   OH228224   2.460   4.435   7.205  0.2567  0.4481 -0.6450
 2222TIP3    H128225   2.553   4.424   7.186  0.1820 -1.9251  0.0230
 2222TIP3    H228226   2.455   4.439   7.300 -0.4145 -1.0581 -0.5895
 2223TIP3   OH228227   0.858   0.142   8.601 -0.3642 -0.7016  0.2267
 2223TIP3    H128228   0.794   0.128   8.532  0.2417 -0.9818 -0.2959
 2223TIP3    H228229   0.926   0.076   8.585  0.8410  0.5813 -0.2004
 2224TIP3   OH228230   4.013   6.529   0.943  0.4507 -0.1274 -0.1903
 2224TIP3    H128231   4.081   6.509   0.878  2.6242  1.9691  1.2435
 2224TIP3    H228232   4.032   6.619   0.969 -4.5653  1.6736 -1.5598
 2225TIP3   OH228233   1.388   3.462   0.783  0.1375  0.4083  0.0010
 2225TIP3    H128234   1.464   3.518   0.767 -1.1548  1.6486 -2.1603
 2225TIP3    H228235   1.365   3.426   0.698 -2.5348  1.2008  0.2971
 2226TIP3   OH228236   0.792   2.834   6.166 -0.2105 -0.1478  0.5761
 2226TIP3    H128237   0.745   2.843   6.084  0.6095  0.2004  0.1422
 2226TIP3    H228238   0.840   2.916   6.177  0.7629 -0.7213  0.7156
 2227TIP3   OH228239   0.861   4.832   5.965  0.1632 -0.7453  0.3566
 2227TIP3    H128240   0.946   4.845   5.923  1.1340  0.3246  2.5385
 2227TIP3    H228241   0.820   4.918   5.965 -0.5203 -1.0607  0.1974
 2228TIP3   OH228242   3.846   3.777   0.176  0.0431 -0.0906  0.6569
 2228TIP3    H128243   3.910   3.846   0.196  0.8734 -1.0378  1.4577
 2228TIP3    H228244   3.851   3.766   0.082  1.0314 -0.0894  0.6942
 2229TIP3   OH228245   0.049   2.589   7.008 -0.8318 -0.3966  0.2009
 2229TIP3    H128246   0.076   2.526   6.941 -1.7840 -0.4917 -0.1016
 2229TIP3    H228247   0.001   2.536   7.072 -1.3282 -0.0372  0.1279
 2230TIP3   OH228248   3.173   1.316   7.065  0.0012  0.3171  0.3745
 2230TIP3    H128249   3.088   1.272   7.061  0.5805 -0.7134 -1.2598
 2230TIP3    H228250   3.237   1.246   7.055  1.0074  1.2597  0.0890
 2231TIP3   OH228251   4.860   2.241   0.116 -0.4065 -0.1057  0.3662
 2231TIP3    H128252   4.955   2.241   0.106 -0.4781 -1.3013 -0.5601
 2231TIP3    H228253   4.828   2.301   0.049 -0.3928 -1.3194 -0.7713
 2232TIP3   OH228254   0.878   2.830   0.458 -0.1457  0.2487  0.1203
 2232TIP3    H128255   0.946   2.875   0.507  0.7612 -0.3111 -0.6013
 2232TIP3    H228256   0.799   2.841   0.512  0.7295 -0.0484  1.5153
 2233TIP3   OH228257   4.880   1.701   6.847  0.0171  0.1797  0.0989
 2233TIP3    H128258   4.841   1.626   6.802  0.8859 -0.4241  0.3344
 2233TIP3    H228259   4.878   1.772   6.783  0.1306 -0.3324 -0.4792
 2234TIP3   OH228260   5.608   1.189   6.839  0.6879  0.5681 -0.2960
 2234TIP3    H128261   5.612   1.284   6.852  0.0116  0.6043 -0.3396
 2234TIP3    H228262   5.552   1.178   6.762 -1.2287  0.0453  1.0952
 2235TIP3   OH228263   4.443   6.784   0.313  0.3184 -0.0839 -0.1695
 2235TIP3    H128264   4.485   6.795   0.228 -0.1662 -0.0481 -0.4090
 2235TIP3    H228265   4.509   6.739   0.367  1.3592  1.5815  0.0240
 2236TIP3   OH228266   0.557   0.284   1.474 -0.4996  0.2861  0.3339
 2236TIP3    H128267   0.649   0.294   1.450 -0.0469 -1.3612  1.2304
 2236TIP3    H228268   0.515   0.248   1.397 -1.0557  3.5307 -1.0644
 2237TIP3   OH228269   4.095   0.609   7.888  0.2806  0.1332 -0.3478
 2237TIP3    H128270   4.003   0.631   7.898  0.0321 -0.7980 -0.4765
 2237TIP3    H228271   4.142   0.688   7.914 -0.5647  0.9972 -1.3593
 2238TIP3   OH228272   3.569   1.262   0.174 -0.1119 -0.3610  0.0843
 2238TIP3    H128273   3.630   1.297   0.109 -0.5426 -3.4449 -2.1726
 2238TIP3    H228274   3.616   1.190   0.216 -0.0724  1.1470  2.9450
 2239TIP3   OH228275   2.296   6.436   0.468 -0.2280 -0.2903  0.2928
 2239TIP3    H128276   2.336   6.517   0.437  2.2368 -0.6189  2.2863
 2239TIP3    H228277   2.351   6.367   0.430  1.0632 -0.7747  2.8438
 2240TIP3   OH228278   4.329   3.999   0.345  0.3266 -0.0300  0.4981
 2240TIP3    H128279   4.404   4.052   0.373  0.3980  1.0792 -1.5864
 2240TIP3    H228280   4.311   3.942   0.420  0.6047  2.5442  2.6933
 2241TIP3   OH228281   5.604   3.193   7.131  0.3084 -0.2539 -0.5550
 2241TIP3    H128282   5.683   3.245   7.145  0.8480 -1.2281  0.1105
 2241TIP3    H228283   5.630   3.128   7.065 -0.6385  0.8609 -2.1148
 2242TIP3   OH228284   1.139   1.075   1.269  0.1234  0.5399  0.0820
 2242TIP3    H128285   1.055   1.112   1.243  0.5234  0.7738 -0.9326
 2242TIP3    H228286   1.126   1.047   1.359 -1.2621 -0.0685 -0.2708
 2243TIP3   OH228287   4.723   2.268   6.864 -0.2919 -0.4288 -0.5182
 2243TIP3    H128288   4.637   2.245   6.900  0.1248  0.7186  1.3726
 2243TIP3    H228289   4.779   2.195   6.889 -0.1566  0.0532  0.6722
 2244TIP3   OH228290   2.675   2.643   6.409 -0.2140  0.7300  0.2314
 2244TIP3    H128291   2.726   2.713   6.369  0.8375  0.2503  0.6765
 2244TIP3    H228292   2.721   2.562   6.384  1.3531  0.4493  3.4148
 2245TIP3   OH228293   0.547   1.306   0.312  0.1275 -0.4314  0.6094
 2245TIP3    H128294   0.524   1.399   0.318 -0.9202 -0.6781  0.7130
 2245TIP3    H228295   0.615   1.293   0.377 -0.9947 -0.1018  1.8904
 2246TIP3   OH228296   1.916   2.566   8.138  0.1654 -0.4817 -0.0012
 2246TIP3    H128297   1.886   2.655   8.123 -0.6916 -0.6702  0.4679
 2246TIP3    H228298   1.994   2.575   8.192 -0.3003 -0.0272  0.6119
 2247TIP3   OH228299   0.340   4.587   8.608 -0.0222  0.0417  0.0529
 2247TIP3    H128300   0.344   4.539   8.691  1.6232  0.6705  0.3768
 2247TIP3    H228301   0.267   4.547   8.561 -0.7922 -0.5481  1.6646
 2248TIP3   OH228302   2.161   2.652   7.830 -0.3784 -0.6209 -0.4983
 2248TIP3    H128303   2.144   2.705   7.752  1.6730  0.5211 -0.2540
 2248TIP3    H228304   2.187   2.716   7.896  1.3409 -1.8628  0.0779
 2249TIP3   OH228305   5.830   1.534   1.160  0.6632 -0.6381  0.6684
 2249TIP3    H128306   5.786   1.540   1.245  1.4850  0.0640  1.0540
 2249TIP3    H228307   5.758   1.522   1.097 -0.2019  1.3595  1.1841
 2250TIP3   OH228308   1.505   2.725   0.660 -0.1039  0.3726 -0.2638
 2250TIP3    H128309   1.457   2.796   0.617  0.0152  0.3407 -0.4506
 2250TIP3    H228310   1.456   2.708   0.740 -0.4346  0.3064 -0.4771
 2251TIP3   OH228311   0.951   2.113   8.044  0.3635 -0.0419 -0.0500
 2251TIP3    H128312   0.941   2.034   7.991 -0.7160  0.8567 -1.2407
 2251TIP3    H228313   0.976   2.080   8.131  2.0025 -1.5578 -1.0218
 2252TIP3   OH228314   5.264   4.006   1.978 -0.0944  0.3196  0.3139
 2252TIP3    H128315   5.183   4.058   1.980  0.2510  0.9778 -1.4449
 2252TIP3    H228316   5.239   3.922   2.017 -1.7633  0.3435 -0.6173
 2253TIP3   OH228317   6.163   5.901   1.685 -0.0974  0.3848 -0.1684
 2253TIP3    H128318   6.097   5.883   1.753  0.3125  0.4792  0.2596
 2253TIP3    H228319   6.243   5.921   1.734  0.9996 -2.4085 -0.6400
 2254TIP3   OH228320   5.569   5.885   0.149  0.2838  0.3651  0.7590
 2254TIP3    H128321   5.564   5.956   0.213  0.4463  0.3359  0.8057
 2254TIP3    H228322   5.606   5.926   0.070  0.8965  0.2181  0.9620
 2255TIP3   OH228323   1.146   3.093   7.111  0.7441  0.4659  0.4269
 2255TIP3    H128324   1.067   3.146   7.105  0.4375  0.0082  0.3284
 2255TIP3    H228325   1.204   3.127   7.042  0.8083  1.0868  0.7890
 2256TIP3   OH228326   0.704   3.500   7.443  0.5797 -0.2304  0.2531
 2256TIP3    H128327   0.786   3.540   7.471 -0.9971  2.8717  0.8630
 2256TIP3    H228328   0.710   3.496   7.348  1.5216 -0.3092  0.3077
 2257TIP3   OH228329   1.703   4.453   7.783  0.4867  0.3130  0.0639
 2257TIP3    H128330   1.759   4.514   7.735 -0.0255  1.0812  0.4133
 2257TIP3    H228331   1.698   4.376   7.727  1.3926  0.4662 -0.2515
 2258TIP3   OH228332   4.209   5.598   0.625 -0.2322  0.3566  0.5182
 2258TIP3    H128333   4.285   5.635   0.579  0.7908 -1.6963  0.4538
 2258TIP3    H228334   4.147   5.578   0.556  0.0249  0.1363  0.3479
 2259TIP3   OH228335   5.771   4.409   8.181  0.3538  0.2228 -0.0255
 2259TIP3    H128336   5.785   4.451   8.266 -0.3773  1.5003 -0.5037
 2259TIP3    H228337   5.791   4.317   8.196  0.8971  0.5385  1.3611
 2260TIP3   OH228338   3.789   2.332   8.408 -0.3457  0.4891 -0.6791
 2260TIP3    H128339   3.771   2.252   8.358 -1.0078 -0.3470  0.8243
 2260TIP3    H228340   3.840   2.387   8.348  2.4710 -2.1164 -0.9559
 2261TIP3   OH228341   2.640   0.520   1.589 -0.2323  0.2650 -0.0251
 2261TIP3    H128342   2.582   0.494   1.518  0.4783 -1.0536 -0.1574
 2261TIP3    H228343   2.616   0.462   1.662  1.2969 -0.7390 -0.2812
 2262TIP3   OH228344   3.316   5.225   0.162 -0.3025  0.7291 -0.5094
 2262TIP3    H128345   3.250   5.181   0.216  1.0623 -0.9593 -0.1019
 2262TIP3    H228346   3.363   5.153   0.119  1.4348  1.8405 -0.5672
 2263TIP3   OH228347   0.227   2.861   1.044 -0.5263  0.0642 -0.2711
 2263TIP3    H128348   0.241   2.948   1.082  2.5789 -0.7051  0.5990
 2263TIP3    H228349   0.271   2.865   0.959 -1.6025 -0.2866 -0.8691
 2264TIP3   OH228350   1.578   1.084   8.699 -0.1790 -0.0523  0.2806
 2264TIP3    H128351   1.670   1.109   8.698 -0.4351  0.9412  0.4504
 2264TIP3    H228352   1.548   1.098   8.610 -0.7877  2.1667  0.7610
 2265TIP3   OH228353   1.105   5.269   8.209  0.0645  0.2203  0.0391
 2265TIP3    H128354   1.103   5.340   8.274 -2.2325  0.3683 -0.1039
 2265TIP3    H228355   1.022   5.278   8.162 -0.1601 -2.3685 -0.1837
 2266TIP3   OH228356   3.330   3.315   1.520  0.4364 -0.4452  0.2001
 2266TIP3    H128357   3.342   3.326   1.426  0.9327 -0.7395  0.2282
 2266TIP3    H228358   3.244   3.274   1.529  0.1188  0.1377 -0.0874
 2267TIP3   OH228359   1.153   0.394   7.582  0.2889  0.0735  0.0662
 2267TIP3    H128360   1.087   0.331   7.554 -0.1471  0.4877  0.1670
 2267TIP3    H228361   1.150   0.463   7.516 -0.7558  1.0712  1.1155
 2268TIP3   OH228362   1.557   5.060   0.411  0.2048 -0.1981  0.1956
 2268TIP3    H128363   1.642   5.094   0.438  0.3181 -0.7482  0.5360
 2268TIP3    H228364   1.494   5.123   0.444  0.5512  1.0877 -1.4244
 2269TIP3   OH228365   2.704   0.832   8.367  0.0034  0.6306  0.2699
 2269TIP3    H128366   2.707   0.820   8.272 -2.5040  2.7842 -0.1987
 2269TIP3    H228367   2.651   0.758   8.399  1.9287 -0.8328  0.2449
 2270TIP3   OH228368   2.805   0.005   6.953 -0.3165 -0.8017 -0.2378
 2270TIP3    H128369   2.849  -0.071   6.916  2.2741  0.1837  0.6466
 2270TIP3    H228370   2.848   0.081   6.912  0.2747  0.2410  2.1338
 2271TIP3   OH228371   5.061   2.280   1.386 -0.3746  0.2942  0.2409
 2271TIP3    H128372   5.032   2.348   1.447 -1.5392 -2.1983  2.7134
 2271TIP3    H228373   5.015   2.201   1.416  1.1771 -1.6798 -2.2258
 2272TIP3   OH228374   4.368   6.277   0.168 -0.0066  0.0027 -0.5528
 2272TIP3    H128375   4.453   6.304   0.132 -0.1905 -0.6558 -1.5445
 2272TIP3    H228376   4.366   6.314   0.256  0.1515  2.3724 -1.4578
 2273TIP3   OH228377   0.583   3.982   1.435  0.3863 -0.2394 -0.2948
 2273TIP3    H128378   0.563   3.888   1.443  1.8532 -0.5195  0.3346
 2273TIP3    H228379   0.566   4.017   1.523 -1.2055  0.3272 -0.7946
 2274TIP3   OH228380   5.278   3.391   8.834  0.5753 -0.2903  0.0234
 2274TIP3    H128381   5.227   3.443   8.896 -0.7300 -1.4150 -0.0794
 2274TIP3    H228382   5.319   3.323   8.888  0.5911 -0.4088 -0.1374
 2275TIP3   OH228383   3.490   2.658   7.194 -0.5613 -0.1214 -0.2358
 2275TIP3    H128384   3.471   2.709   7.272 -0.2316  0.0047 -0.2320
 2275TIP3    H228385   3.500   2.568   7.225 -1.8766 -0.3255 -0.3483
 2276TIP3   OH228386   5.436   2.351   7.582 -0.1157  0.2848 -0.4734
 2276TIP3    H128387   5.372   2.419   7.561 -0.5031 -0.5486 -2.1561
 2276TIP3    H228388   5.482   2.384   7.659 -1.2902  1.7626 -0.3626
 2277TIP3   OH228389   0.802   5.695   8.401  0.3577 -0.4146  0.5166
 2277TIP3    H128390   0.847   5.743   8.331  0.1708  1.2370  1.4671
 2277TIP3    H228391   0.787   5.608   8.365  1.6916 -0.1025 -0.9006
 2278TIP3   OH228392   5.411   2.219   0.774 -0.6035 -0.3657  0.5983
 2278TIP3    H128393   5.430   2.133   0.737  2.0116  0.7868 -1.0886
 2278TIP3    H228394   5.474   2.229   0.845 -0.1692  0.5097  0.1086
 2279TIP3   OH228395   5.882   1.944   7.453 -0.0051 -0.4447 -0.0274
 2279TIP3    H128396   5.939   1.961   7.527  1.5901  0.8994 -1.4775
 2279TIP3    H228397   5.797   1.979   7.480  0.5665  0.1064  1.1298
 2280TIP3   OH228398   6.146   4.560   6.271  0.1562 -0.0059  0.3640
 2280TIP3    H128399   6.192   4.633   6.230 -0.8695  0.3441 -0.1958
 2280TIP3    H228400   6.054   4.574   6.249 -0.3714 -0.1248  2.2837
 2281TIP3   OH228401   6.291   4.369   8.034  0.5377  0.0269  0.9332
 2281TIP3    H128402   6.196   4.368   8.036  0.4540 -0.8553 -1.1792
 2281TIP3    H228403   6.315   4.459   8.012  0.1610  0.0462  0.6079
 2282TIP3   OH228404   5.520   5.747   7.362  0.0402  0.5315  0.0595
 2282TIP3    H128405   5.455   5.760   7.431 -0.4181 -0.0464 -0.2517
 2282TIP3    H228406   5.534   5.652   7.361  0.9694  0.6652  0.1967
 2283TIP3   OH228407   4.631   2.130   7.133 -0.0564 -0.1698  0.2481
 2283TIP3    H128408   4.666   2.051   7.091  1.2558  0.4004  0.2192
 2283TIP3    H228409   4.554   2.099   7.181  0.0990 -1.3583 -0.2226
 2284TIP3   OH228410   3.389   1.597   0.582  0.1188 -0.0658  0.3305
 2284TIP3    H128411   3.392   1.622   0.490 -0.8978  1.1586  0.6062
 2284TIP3    H228412   3.424   1.508   0.584 -1.9452 -1.0000 -1.5490
 2285TIP3   OH228413   3.895   2.551   0.324 -0.5002 -0.1353  0.2361
 2285TIP3    H128414   3.930   2.483   0.381 -0.5093  0.0466  0.4632
 2285TIP3    H228415   3.928   2.530   0.237  1.1260  0.6733  0.6191
 2286TIP3   OH228416   4.704   6.377   7.624 -0.4050  0.1125  0.0407
 2286TIP3    H128417   4.700   6.472   7.626  0.4597  0.1664 -0.5294
 2286TIP3    H228418   4.622   6.350   7.582 -0.3574  0.6288 -0.3840
 2287TIP3   OH228419   2.216   1.108   6.035 -0.2904 -0.5430  0.0847
 2287TIP3    H128420   2.250   1.131   5.948 -0.7330 -2.3232 -0.6122
 2287TIP3    H228421   2.278   1.145   6.096  1.3911 -1.3144 -1.0726
 2288TIP3   OH228422   3.945   1.373   0.524 -0.2075 -0.6523 -0.5322
 2288TIP3    H128423   3.895   1.406   0.449  0.2868 -0.5140 -0.8003
 2288TIP3    H228424   3.878   1.344   0.586 -0.6604  0.5855 -0.4157
 2289TIP3   OH228425   2.456   6.020   1.033  0.6613 -0.2554 -0.0742
 2289TIP3    H128426   2.428   6.059   0.950 -0.2099 -0.0288  0.3104
 2289TIP3    H228427   2.418   6.077   1.100  1.2985 -0.4716  0.4866
 2290TIP3   OH228428   1.682   6.308   6.443  0.4084  0.0511  0.3005
 2290TIP3    H128429   1.604   6.328   6.391 -0.1662 -1.2000  0.6347
 2290TIP3    H228430   1.682   6.374   6.513 -1.3856 -0.9646  1.3413
 2291TIP3   OH228431   0.743   0.388   6.706  0.1020 -0.3611  0.5632
 2291TIP3    H128432   0.760   0.294   6.712 -0.7592 -0.6348 -0.7473
 2291TIP3    H228433   0.716   0.401   6.615  0.2942  1.1718  0.7045
 2292TIP3   OH228434   5.706   2.661   2.182  0.0758 -0.0101  0.3224
 2292TIP3    H128435   5.618   2.653   2.219  0.0405 -1.4318  0.0127
 2292TIP3    H228436   5.750   2.579   2.206  0.4195 -0.5065 -1.7546
 2293TIP3   OH228437   2.046   4.977   0.097  0.8347 -0.2242 -0.3052
 2293TIP3    H128438   2.052   5.070   0.076 -0.9701 -0.2546 -1.2018
 2293TIP3    H228439   2.052   4.932   0.013 -0.2735 -0.7598 -0.1288
 2294TIP3   OH228440   2.252   2.208   6.621  0.0289 -0.2250  0.3366
 2294TIP3    H128441   2.299   2.125   6.616 -1.0409 -0.9007  1.1548
 2294TIP3    H228442   2.196   2.208   6.544 -1.3412 -1.1492  1.2944
 2295TIP3   OH228443   2.339   3.523   8.511  0.1599  0.9666 -0.1601
 2295TIP3    H128444   2.360   3.566   8.594  0.8886 -0.5867  0.5194
 2295TIP3    H228445   2.420   3.527   8.461  0.3381  0.1617  0.0394
 2296TIP3   OH228446   2.480   0.195   6.468  0.1297 -0.3674 -0.4949
 2296TIP3    H128447   2.466   0.249   6.390 -1.9166  0.1089  0.1220
 2296TIP3    H228448   2.504   0.258   6.537 -1.0057 -0.3564 -0.0775
 2297TIP3   OH228449   6.554   1.806   8.156  0.2174 -0.7519 -0.7372
 2297TIP3    H128450   6.584   1.897   8.162  1.0404 -1.0356 -0.5137
 2297TIP3    H228451   6.616   1.763   8.098  0.2026 -1.3299 -0.3329
 2298TIP3   OH228452   2.891   0.732   0.639 -0.2317  0.5853 -0.1527
 2298TIP3    H128453   2.981   0.751   0.613  0.3449  1.9524  2.4304
 2298TIP3    H228454   2.898   0.655   0.695 -0.8240  0.1292 -0.6924
 2299TIP3   OH228455   3.374   3.230   7.726  0.0547  0.0085  0.0506
 2299TIP3    H128456   3.414   3.150   7.760 -1.5223 -1.5325 -1.4617
 2299TIP3    H228457   3.410   3.239   7.638 -1.0661 -0.0657 -0.4416
 2300TIP3   OH228458   6.190   1.108   5.895  0.0252  0.2864  0.1769
 2300TIP3    H128459   6.107   1.064   5.913  0.5128  0.1587  2.4658
 2300TIP3    H228460   6.165   1.197   5.871 -0.8089  0.6550  2.1565
 2301TIP3   OH228461   0.695   4.672   0.243  0.1164 -0.1813 -0.1390
 2301TIP3    H128462   0.680   4.601   0.180 -2.4180  0.7456 -0.6762
 2301TIP3    H228463   0.789   4.692   0.234  0.6900 -2.7130 -0.7101
 2302TIP3   OH228464   4.598   6.587   0.142  0.6017 -0.0486 -0.2588
 2302TIP3    H128465   4.593   6.500   0.182  0.5430  0.4566  0.8881
 2302TIP3    H228466   4.527   6.589   0.079 -0.0765 -0.4638  0.4743
 2303TIP3   OH228467   5.649   5.859   0.715 -0.5208  0.2473 -0.1948
 2303TIP3    H128468   5.643   5.770   0.749 -0.0274  0.0020 -0.7350
 2303TIP3    H228469   5.577   5.906   0.758 -1.4515 -0.6682 -0.7122
 2304TIP3   OH228470   4.040   6.099   0.541  0.1780 -0.0661 -0.0864
 2304TIP3    H128471   3.949   6.082   0.567 -0.2107 -1.7904 -2.2382
 2304TIP3    H228472   4.049   6.194   0.544 -2.0759  0.2263 -0.8657
 2305TIP3   OH228473   5.596   2.350   1.004  0.0769  0.3920 -0.8779
 2305TIP3    H128474   5.531   2.340   1.073  0.5861  2.7621  0.0416
 2305TIP3    H228475   5.580   2.437   0.968  0.9976 -0.0666 -2.5102
 2306TIP3   OH228476   3.343   0.243   8.601 -0.7940 -0.5413 -0.5617
 2306TIP3    H128477   3.369   0.328   8.637 -3.1377  0.4904 -1.0980
 2306TIP3    H228478   3.419   0.213   8.551  0.3498  0.8550  0.2822
 2307TIP3   OH228479   3.941   3.889   6.917  0.4908 -0.5279 -0.2236
 2307TIP3    H128480   4.015   3.836   6.949  1.7755  0.9848 -0.5915
 2307TIP3    H228481   3.981   3.971   6.888 -1.5809  1.2838  1.6819
 2308TIP3   OH228482   1.789   6.051   7.359  0.1787 -0.6507  0.0220
 2308TIP3    H128483   1.694   6.038   7.350 -0.4563  1.5308  2.4408
 2308TIP3    H228484   1.815   5.992   7.430  0.4285 -0.5039  0.0534
 2309TIP3   OH228485   2.357   1.809   0.208  0.2257 -0.1579 -0.2217
 2309TIP3    H128486   2.373   1.880   0.270 -1.3835  2.4961 -2.6300
 2309TIP3    H228487   2.273   1.771   0.236 -0.2343  0.6804 -0.4308
 2310TIP3   OH228488   2.543   3.904   0.630  0.7481  0.2839 -0.4499
 2310TIP3    H128489   2.464   3.868   0.670  1.6577 -0.5982  0.5973
 2310TIP3    H228490   2.510   3.965   0.564 -0.8251 -1.0286 -0.9510
 2311TIP3   OH228491   5.253   0.687   0.345  0.1874 -0.1848 -0.0254
 2311TIP3    H128492   5.290   0.774   0.329  0.3161 -0.1454  0.4716
 2311TIP3    H228493   5.158   0.701   0.347  0.1445 -0.2476 -1.0757
 2312TIP3   OH228494   0.129   4.920   0.295  0.1501  0.0525  0.5586
 2312TIP3    H128495   0.079   4.983   0.347  1.9385  1.3563  0.7827
 2312TIP3    H228496   0.183   4.873   0.359 -0.5222 -1.1211  0.2877
 2313TIP3   OH228497   0.978   2.437   0.821 -0.1621 -0.7427  0.5574
 2313TIP3    H128498   1.019   2.365   0.869 -0.0955 -2.3577 -1.7839
 2313TIP3    H228499   1.046   2.504   0.818  0.5949 -1.4720  0.8686
 2314TIP3   OH228500   0.596   3.158   7.564 -0.8681  0.3082  0.5595
 2314TIP3    H128501   0.648   3.216   7.619 -0.5643  0.0035  0.5990
 2314TIP3    H228502   0.620   3.182   7.474 -1.4863  0.9163  0.5524
 2315TIP3   OH228503   1.237   0.769   8.319  0.2463 -0.8335  0.1091
 2315TIP3    H128504   1.230   0.843   8.259 -2.7312 -1.4966 -0.5601
 2315TIP3    H228505   1.244   0.693   8.261 -0.5141 -1.3121  0.6159
 2316TIP3   OH228506   6.258   3.906   2.104  0.1463  0.3673  0.2206
 2316TIP3    H128507   6.236   3.816   2.126 -0.6566  0.1557 -1.2627
 2316TIP3    H228508   6.267   3.906   2.008 -0.6634  2.0076  0.0961
 2317TIP3   OH228509   1.009   6.526   8.816 -0.0215  0.1984 -0.3769
 2317TIP3    H128510   1.087   6.485   8.851  0.9650  0.8536 -1.7237
 2317TIP3    H228511   0.980   6.466   8.747  0.8746  1.2306 -1.7012
 2318TIP3   OH228512   5.512   2.569   8.491 -0.1931 -0.4239 -0.2504
 2318TIP3    H128513   5.519   2.662   8.511 -1.3002 -0.0648 -1.3697
 2318TIP3    H228514   5.435   2.539   8.540  0.1576 -0.7647  0.1056
 2319TIP3   OH228515   4.371   3.562   6.963  0.4491  0.6877 -0.0138
 2319TIP3    H128516   4.342   3.598   7.047 -1.3867  1.0544 -0.7576
 2319TIP3    H228517   4.430   3.490   6.987  1.6958  2.1364  1.5360
 2320TIP3   OH228518   6.173   2.234   0.078 -0.1889  0.6069 -0.0157
 2320TIP3    H128519   6.238   2.164   0.083 -0.7410 -0.0378 -1.4069
 2320TIP3    H228520   6.105   2.200   0.020 -2.6432  0.5722  2.6163
 2321TIP3   OH228521   1.445   5.450   8.054  1.1801  0.7457 -0.3299
 2321TIP3    H128522   1.468   5.518   7.991  1.0362  0.1765 -1.0188
 2321TIP3    H228523   1.461   5.368   8.007 -2.5292  0.2680 -1.0454
 2322TIP3   OH228524   2.452   4.700   0.726 -0.2426 -0.1121  0.2026
 2322TIP3    H128525   2.391   4.745   0.667  0.0115 -0.0598 -0.0224
 2322TIP3    H228526   2.517   4.661   0.668  0.7274  0.9989  0.5029
 2323TIP3   OH228527   6.729   5.389   1.654  0.7948 -0.4864  0.4976
 2323TIP3    H128528   6.769   5.455   1.710  1.0658 -1.3984  1.3974
 2323TIP3    H228529   6.675   5.337   1.713 -2.7932  1.4033 -0.8058
 2324TIP3   OH228530   1.781   0.825   8.697  0.4539  0.3796 -0.0254
 2324TIP3    H128531   1.693   0.831   8.659  0.1646  1.3711  0.7401
 2324TIP3    H228532   1.774   0.759   8.765  0.2796  0.5182  0.0912
 2325TIP3   OH228533   6.127   2.914   0.085  0.0187  0.1202  0.2053
 2325TIP3    H128534   6.154   2.952   0.002 -1.8284 -1.3236 -1.1244
 2325TIP3    H228535   6.048   2.963   0.110 -1.3782 -1.6119 -0.6507
 2326TIP3   OH228536   1.047   5.913   1.045  0.1207  0.2838 -0.0768
 2326TIP3    H128537   1.086   6.000   1.040  1.5870 -0.4308 -2.2484
 2326TIP3    H228538   1.105   5.862   1.101 -0.7016  0.6398  1.1399
 2327TIP3   OH228539   2.092   4.499   1.185 -0.1117 -0.0969  0.0332
 2327TIP3    H128540   2.101   4.409   1.153  1.0162 -0.4854  1.3316
 2327TIP3    H228541   2.182   4.530   1.195 -0.4128  2.2384 -3.0189
 2328TIP3   OH228542   1.954   3.255   8.255 -0.5469 -0.4497  0.1048
 2328TIP3    H128543   2.019   3.186   8.267 -0.3725 -0.2176  0.4797
 2328TIP3    H228544   1.896   3.221   8.187  1.5087  0.4457 -2.2843
 2329TIP3   OH228545   4.410   1.826   8.559 -0.2174 -0.5318 -0.3905
 2329TIP3    H128546   4.400   1.881   8.481  0.3757 -0.7478 -0.6228
 2329TIP3    H228547   4.335   1.849   8.614 -1.2370 -1.1202 -1.4813
 2330TIP3   OH228548   4.283   3.602   7.228  0.1670  0.1943 -0.0241
 2330TIP3    H128549   4.214   3.536   7.220 -0.8476  1.2580 -0.4475
 2330TIP3    H228550   4.326   3.582   7.311  1.2678 -2.2275 -1.0976
 2331TIP3   OH228551   1.434   1.714   0.195  0.1127  0.0085  0.8092
 2331TIP3    H128552   1.508   1.656   0.210 -0.7295 -0.8671  1.7598
 2331TIP3    H228553   1.432   1.726   0.100  0.7730 -0.8803  0.6699
 2332TIP3   OH228554   2.475   0.366   8.688 -0.0581 -0.0889 -0.3159
 2332TIP3    H128555   2.563   0.330   8.674 -0.0076  0.4733 -1.4878
 2332TIP3    H228556   2.489   0.441   8.746 -0.2518 -2.2973  2.8744
 2333TIP3   OH228557   3.895   6.221   0.148 -0.0128  0.3863 -0.1665
 2333TIP3    H128558   3.801   6.231   0.163 -0.2993  1.3113 -2.1656
 2333TIP3    H228559   3.906   6.130   0.121 -0.0748 -0.1359  1.4744
 2334TIP3   OH228560   3.928   5.940   6.627 -0.3354  0.5643  0.3596
 2334TIP3    H128561   3.930   6.030   6.594  0.9364  0.6563  0.6462
 2334TIP3    H228562   3.996   5.895   6.576 -0.8176 -0.1848  0.3680
 2335TIP3   OH228563   1.263   1.683   0.417 -0.1702 -0.4798 -0.3933
 2335TIP3    H128564   1.330   1.679   0.349  3.1458  0.6578  2.5325
 2335TIP3    H228565   1.244   1.591   0.437  1.1499 -0.8430 -0.7436
 2336TIP3   OH228566   4.428   5.773   7.128 -0.3690  0.6191 -0.4727
 2336TIP3    H128567   4.341   5.756   7.090  0.7248 -0.9574 -2.4905
 2336TIP3    H228568   4.488   5.765   7.054  1.6307  0.4603  1.0816
 2337TIP3   OH228569   1.299   0.872   1.976  0.0658 -0.0064  0.0328
 2337TIP3    H128570   1.312   0.952   2.027  0.8744  0.5525 -1.0069
 2337TIP3    H228571   1.375   0.868   1.918 -0.7924 -0.6426 -1.0895
 2338TIP3   OH228572   6.312   2.671   6.997  0.4649  0.3362 -0.3335
 2338TIP3    H128573   6.306   2.707   6.908  1.9843  1.5385  0.0156
 2338TIP3    H228574   6.382   2.607   6.992  0.4201  0.2630 -0.0426
 2339TIP3   OH228575   0.111   5.636   6.973 -0.0163  0.2822  0.2152
 2339TIP3    H128576   0.204   5.624   6.990  0.8014  1.1874 -2.9103
 2339TIP3    H228577   0.081   5.551   6.942 -0.1474  0.0877  0.8710
 2340TIP3   OH228578   0.574   4.107   7.737  0.0215 -0.2902  0.1315
 2340TIP3    H128579   0.608   4.024   7.704 -1.3151 -1.0880  0.6443
 2340TIP3    H228580   0.575   4.097   7.833 -2.0982 -0.6026  0.1746
 2341TIP3   OH228581   4.201   0.926   8.625 -0.0657  0.1248 -0.4852
 2341TIP3    H128582   4.190   0.920   8.720  0.3575 -1.2551 -0.4913
 2341TIP3    H228583   4.174   1.015   8.603  3.4251  1.8542  1.4207
 2342TIP3   OH228584   3.078   5.184   7.154 -0.1655  0.3659 -0.1380
 2342TIP3    H128585   3.145   5.175   7.221 -0.7596 -0.2386  0.3900
 2342TIP3    H228586   3.074   5.098   7.112 -0.9859  0.2331  0.2021
 2343TIP3   OH228587   3.021   2.590   1.308  0.1896  0.4689  0.2362
 2343TIP3    H128588   2.995   2.615   1.219  0.4495  0.1538  0.0680
 2343TIP3    H228589   3.100   2.537   1.295  0.2765  0.4972  0.6629
 2344TIP3   OH228590   5.727   6.707   1.304  0.2373 -0.3701  0.4316
 2344TIP3    H128591   5.731   6.689   1.210  0.7423 -1.0880  0.5883
 2344TIP3    H228592   5.701   6.799   1.309 -2.2258 -0.9553 -0.3771
 2345TIP3   OH228593   5.196   0.418   8.267  1.2007 -0.4137 -0.2223
 2345TIP3    H128594   5.218   0.508   8.288  0.1173  0.3635 -2.2091
 2345TIP3    H228595   5.218   0.408   8.175 -0.3735 -1.6264 -0.5102
 2346TIP3   OH228596   6.530   0.738   0.733 -0.3071  0.2975 -0.0007
 2346TIP3    H128597   6.528   0.683   0.654  0.7614  0.4536 -0.1523
 2346TIP3    H228598   6.523   0.827   0.700  1.3101  0.4353 -0.0350
 2347TIP3   OH228599   0.863   3.488   0.970 -0.0620  0.2613 -0.4568
 2347TIP3    H128600   0.768   3.503   0.971 -0.1925 -0.5096 -0.2074
 2347TIP3    H228601   0.881   3.447   1.055  0.5249  0.5785 -0.4279
 2348TIP3   OH228602   3.385   2.974   6.723 -0.0504 -0.1261  0.4805
 2348TIP3    H128603   3.460   3.033   6.735 -0.4610  0.2105  1.5407
 2348TIP3    H228604   3.337   2.981   6.805 -0.6712 -1.1552  0.2115
 2349TIP3   OH228605   3.615   1.628   7.524  0.1203  0.2408 -0.1194
 2349TIP3    H128606   3.541   1.677   7.487  2.9700  3.6990 -1.8752
 2349TIP3    H228607   3.642   1.570   7.453 -0.0699 -0.0438  0.0380
 2350TIP3   OH228608   0.402   1.142   7.200 -0.4034  0.1274 -0.7780
 2350TIP3    H128609   0.436   1.056   7.228 -2.3210 -0.1853  0.8412
 2350TIP3    H228610   0.381   1.130   7.108  2.7045  0.0200 -1.5721
 2351TIP3   OH228611   5.445   0.442   6.984  0.3079  0.8334 -0.0943
 2351TIP3    H128612   5.368   0.415   7.034  0.1355 -0.2175 -0.8765
 2351TIP3    H228613   5.459   0.533   7.008 -0.8226  0.8641  0.5180
 2352TIP3   OH228614   2.288   0.522   7.070  0.2414 -0.9435  0.4720
 2352TIP3    H128615   2.324   0.522   7.159 -0.1473 -1.6509  0.6334
 2352TIP3    H228616   2.196   0.547   7.081  0.1792 -1.0802  0.2732
 2353TIP3   OH228617   0.131   6.170   7.231 -1.1398 -0.1849  0.1338
 2353TIP3    H128618   0.112   6.083   7.266  0.5903 -0.0471  1.5060
 2353TIP3    H228619   0.154   6.154   7.139  0.7409 -1.4315  0.7603
 2354TIP3   OH228620   0.636   3.393   7.692  0.3295 -0.5511  0.0912
 2354TIP3    H128621   0.633   3.440   7.608  0.8428 -0.7282 -0.0257
 2354TIP3    H228622   0.719   3.417   7.731  0.8512 -1.7663 -0.2139
 2355TIP3   OH228623   4.021   2.252   1.547  0.1083  0.3700  0.1396
 2355TIP3    H128624   4.048   2.313   1.615 -0.9283  0.0554  0.8411
 2355TIP3    H228625   3.989   2.175   1.594  1.5204 -0.8146 -0.7214
 2356TIP3   OH228626   1.878   6.588   8.434 -0.1183 -0.7608  0.6636
 2356TIP3    H128627   1.882   6.495   8.414 -0.9243 -0.4885 -0.9543
 2356TIP3    H228628   1.888   6.631   8.349  2.1105  0.7072  1.5827
 2357TIP3   OH228629   2.277   2.752   6.075 -0.6138  0.0560  0.5051
 2357TIP3    H128630   2.372   2.766   6.078 -0.4962 -0.2104 -1.0014
 2357TIP3    H228631   2.244   2.823   6.020 -1.0018 -0.9707 -0.6559
 2358TIP3   OH228632   0.686   4.432   7.136 -0.1841  0.0383  0.4038
 2358TIP3    H128633   0.713   4.439   7.228  2.1079 -1.0387 -0.1180
 2358TIP3    H228634   0.765   4.454   7.087 -1.5746  1.3300 -1.3612
 2359TIP3   OH228635   4.834   5.429   0.358 -0.2853 -0.1749  0.0652
 2359TIP3    H128636   4.764   5.407   0.419 -0.5428  1.0382  0.2446
 2359TIP3    H228637   4.914   5.403   0.402 -0.3884  1.5619  1.3908
 2360TIP3   OH228638   3.801   5.319   7.197 -0.0348  0.3106  0.2719
 2360TIP3    H128639   3.825   5.256   7.265 -1.2787 -0.1877  0.2766
 2360TIP3    H228640   3.852   5.292   7.121 -1.4062 -1.4883 -0.0849
 2361TIP3   OH228641   5.004   3.925   5.749 -0.4911  0.2503  0.0041
 2361TIP3    H128642   5.003   4.001   5.692  2.0191  0.4445  0.0707
 2361TIP3    H228643   4.968   3.854   5.696  1.2432  0.5503 -1.6812
 2362TIP3   OH228644   3.217   1.894   8.155  0.4759 -0.1365  0.5000
 2362TIP3    H128645   3.201   1.858   8.067 -1.0700 -2.3306  1.5916
 2362TIP3    H228646   3.139   1.945   8.174  0.3243 -0.5572  1.0103
 2363TIP3   OH228647   0.393   2.544   7.245 -0.7175  0.1531  0.0037
 2363TIP3    H128648   0.333   2.491   7.297 -0.7655 -0.9117 -1.1033
 2363TIP3    H228649   0.433   2.604   7.308 -1.8520 -0.1086  1.0022
 2364TIP3   OH228650   4.973   4.069   8.611 -0.2745  0.7094  0.6237
 2364TIP3    H128651   5.023   4.067   8.529  1.1735  0.9201  1.4709
 2364TIP3    H228652   4.965   4.161   8.633 -0.6809  0.6551  0.7108
 2365TIP3   OH228653   2.159   4.623   6.705 -0.2572  0.0372 -0.6057
 2365TIP3    H128654   2.183   4.580   6.623  2.3419 -0.1092  0.1349
 2365TIP3    H228655   2.076   4.582   6.731 -0.3443 -0.9864 -2.3725
 2366TIP3   OH228656   5.884   5.191   8.402 -0.5792 -0.0556 -0.1219
 2366TIP3    H128657   5.972   5.155   8.416 -0.5871  0.6326  2.2078
 2366TIP3    H228658   5.860   5.226   8.488 -3.0018  0.0785 -0.8048
 2367TIP3   OH228659   1.107   1.815   1.717  0.0712  0.3141  0.4108
 2367TIP3    H128660   1.146   1.887   1.767  0.3093  1.5799 -1.5213
 2367TIP3    H228661   1.120   1.738   1.773  1.0450  1.5198  1.9222
 2368TIP3   OH228662   1.756   5.688   0.116 -0.6654 -0.3802  0.1241
 2368TIP3    H128663   1.745   5.731   0.200  0.2943 -2.9346  1.6487
 2368TIP3    H228664   1.782   5.758   0.056 -0.2597  1.3021  2.1816
 2369TIP3   OH228665   6.121   1.672   0.536  0.1329  0.0492 -0.0551
 2369TIP3    H128666   6.091   1.590   0.575 -0.9923  0.4422 -0.0271
 2369TIP3    H228667   6.140   1.650   0.445  3.5911 -1.0614  0.8140
 2370TIP3   OH228668   3.831   6.630   1.166 -0.4118  0.1017  0.5073
 2370TIP3    H128669   3.856   6.716   1.198 -2.6764  0.7648  0.6862
 2370TIP3    H228670   3.786   6.589   1.240 -0.3912 -0.7709  0.0508
 2371TIP3   OH228671   6.177   0.656   7.804 -0.2563  0.6992 -0.7889
 2371TIP3    H128672   6.252   0.654   7.745 -0.3965  0.3303 -0.9569
 2371TIP3    H228673   6.114   0.595   7.765  0.4433 -1.1407  0.8129
 2372TIP3   OH228674   4.754   2.093   1.356 -0.0960  0.0891  0.1915
 2372TIP3    H128675   4.826   2.115   1.415  0.5887 -0.2854 -0.4956
 2372TIP3    H228676   4.783   2.015   1.310 -0.4684  0.5897 -0.9214
 2373TIP3   OH228677   1.333   1.663   7.409 -0.0191 -0.2489 -0.1301
 2373TIP3    H128678   1.254   1.697   7.368  1.0801  3.1369  0.2156
 2373TIP3    H228679   1.302   1.621   7.489 -1.4990  1.1773  0.1037
 2374TIP3   OH228680   1.932   3.555   8.820  0.0945  0.0202 -0.3974
 2374TIP3    H128681   1.859   3.504   8.857  1.6643 -1.1055  1.2955
 2374TIP3    H228682   1.923   3.543   8.726 -0.0892 -2.8192 -0.1184
 2375TIP3   OH228683   3.011   1.326   8.658  0.2627 -0.5753 -0.2243
 2375TIP3    H128684   3.014   1.414   8.696  1.1949  0.7243 -3.0766
 2375TIP3    H228685   3.091   1.284   8.690  1.2538  0.6417 -1.0211
 2376TIP3   OH228686   6.081   4.086   7.745  0.3274 -0.7092 -0.7819
 2376TIP3    H128687   6.053   4.112   7.833  1.2204 -2.8554  0.2167
 2376TIP3    H228688   6.018   4.019   7.718  0.1702 -0.2034 -1.7200
 2377TIP3   OH228689   0.557   4.360   6.115 -0.6874 -0.6199 -0.1031
 2377TIP3    H128690   0.527   4.433   6.061  0.5767 -0.3755 -0.5218
 2377TIP3    H228691   0.635   4.327   6.069  1.0612  0.2612  2.0781
 2378TIP3   OH228692   6.628   5.921   6.096 -0.1448 -0.1168 -0.1733
 2378TIP3    H128693   6.572   5.933   6.020 -0.3497 -0.0570 -0.0141
 2378TIP3    H228694   6.578   5.956   6.169  0.4175  0.6515 -0.1475
 2379TIP3   OH228695   2.476   3.270   0.738  0.2523 -0.1886 -0.6280
 2379TIP3    H128696   2.500   3.357   0.770 -0.6024  0.4524 -1.6496
 2379TIP3    H228697   2.556   3.218   0.746  0.5737  0.4703  0.6881
 2380TIP3   OH228698   5.961   0.930   1.288 -0.1782  0.2040  0.0428
 2380TIP3    H128699   5.930   1.006   1.338  0.1655  0.5110 -0.2054
 2380TIP3    H228700   6.045   0.907   1.329 -0.7579 -0.6825  0.7720
 2381TIP3   OH228701   5.591   1.799   8.800 -0.2172 -0.3427 -0.7120
 2381TIP3    H128702   5.586   1.893   8.783  0.4794 -0.4367 -1.4878
 2381TIP3    H228703   5.683   1.776   8.787  0.6002 -0.4054  3.6370
 2382TIP3   OH228704   1.909   1.592   7.704 -0.0693 -0.4739 -0.1357
 2382TIP3    H128705   1.934   1.515   7.653  0.6124  0.3149 -1.0215
 2382TIP3    H228706   1.933   1.666   7.649 -1.7644  0.3761  0.2282
 2383TIP3   OH228707   5.687   6.120   0.946  0.2244  0.2104 -0.3867
 2383TIP3    H128708   5.676   6.053   1.013 -0.7219 -0.5061 -1.2381
 2383TIP3    H228709   5.641   6.196   0.982  1.3829  0.4777  0.6240
 2384TIP3   OH228710   1.251   5.918   7.504  0.1135 -0.0502 -0.6974
 2384TIP3    H128711   1.255   5.974   7.426  2.4437 -0.9064 -1.2763
 2384TIP3    H228712   1.270   5.830   7.472 -0.6560 -0.7148  0.5940
 2385TIP3   OH228713   4.029   5.330   0.893 -0.2479  0.2925  0.1437
 2385TIP3    H128714   3.984   5.276   0.958 -1.4303  0.2765 -0.6396
 2385TIP3    H228715   3.961   5.390   0.861 -0.0236 -0.4302 -1.8566
 2386TIP3   OH228716   4.996   3.871   8.832  0.2224 -0.2865 -0.2305
 2386TIP3    H128717   5.085   3.900   8.852 -0.1412  0.2957  0.6037
 2386TIP3    H228718   4.982   3.898   8.741  0.8090 -0.1518 -0.2827
 2387TIP3   OH228719   3.386   0.352   1.487 -0.2493 -0.6478 -0.3639
 2387TIP3    H128720   3.475   0.374   1.514 -0.9252  1.2397  0.5162
 2387TIP3    H228721   3.381   0.257   1.493  1.2046 -0.6638  1.1978
 2388TIP3   OH228722   0.213   1.604   7.172  0.0042  0.5860  0.2580
 2388TIP3    H128723   0.293   1.657   7.177  1.0603 -0.7753 -1.3544
 2388TIP3    H228724   0.239   1.525   7.125 -1.6983 -1.0781  1.9517
 2389TIP3   OH228725   3.106   2.535   8.545 -0.0498  0.0958  0.4878
 2389TIP3    H128726   3.120   2.505   8.455  1.1572 -1.0765  1.0283
 2389TIP3    H228727   3.077   2.626   8.536 -0.0832 -0.0398 -1.0761
 2390TIP3   OH228728   3.605   4.241   8.833  0.3511  0.4039 -0.3922
 2390TIP3    H128729   3.685   4.199   8.802  0.2408  0.6740 -1.0665
 2390TIP3    H228730   3.621   4.335   8.820  0.2748  0.5223  0.3190
 2391TIP3   OH228731   2.912   3.525   6.427 -0.6783 -0.1767  0.6987
 2391TIP3    H128732   2.928   3.572   6.346  0.1525 -2.6356 -0.6752
 2391TIP3    H228733   2.946   3.583   6.495 -0.1380  1.3685 -0.8054
 2392TIP3   OH228734   3.459   5.868   5.981 -0.4466  0.1598  0.4167
 2392TIP3    H128735   3.542   5.850   5.937 -1.1411 -0.1961 -0.7886
 2392TIP3    H228736   3.396   5.808   5.940 -1.5515  1.2297  0.4841
 2393TIP3   OH228737   6.730   4.524   0.442 -0.2045 -0.2437 -0.1353
 2393TIP3    H128738   6.752   4.571   0.362 -0.6811  0.1604 -0.0321
 2393TIP3    H228739   6.728   4.592   0.510  0.9611 -0.6905  0.3709
 2394TIP3   OH228740   4.556   6.555   7.324  0.1504 -0.1237  0.4980
 2394TIP3    H128741   4.462   6.566   7.338 -0.2890 -0.7332 -1.5861
 2394TIP3    H228742   4.577   6.472   7.365 -0.3431 -0.2568  0.4854
 2395TIP3   OH228743   2.817   6.723   6.564 -1.1528 -0.2902 -0.2064
 2395TIP3    H128744   2.724   6.740   6.572 -1.7267 -2.3607 -1.5262
 2395TIP3    H228745   2.833   6.647   6.621  0.0883  0.9713  1.2149
 2396TIP3   OH228746   6.474   4.739   7.043  0.9296  0.3153 -0.6220
 2396TIP3    H128747   6.494   4.661   7.094 -0.4851 -0.5065 -1.2605
 2396TIP3    H228748   6.449   4.805   7.108 -1.7290 -0.9804 -0.2252
 2397TIP3   OH228749   6.182   0.250   8.735  0.6263 -0.6291 -0.0282
 2397TIP3    H128750   6.152   0.217   8.820 -0.9348 -0.3683 -0.4543
 2397TIP3    H228751   6.181   0.172   8.679  2.8530 -1.0736  0.4419
 2398TIP3   OH228752   0.183   0.667   7.491 -0.4036  1.0613 -0.5902
 2398TIP3    H128753   0.121   0.640   7.559  0.4050 -1.1490 -0.6586
 2398TIP3    H228754   0.128   0.676   7.413 -1.0554  1.8835 -0.0620
 2399TIP3   OH228755   5.434   4.444   0.321 -0.2504 -0.1791 -0.4694
 2399TIP3    H128756   5.500   4.378   0.302 -0.0021 -0.5917  1.5570
 2399TIP3    H228757   5.361   4.424   0.263  0.1214 -1.7620 -0.4206
 2400TIP3   OH228758   2.478   0.459   0.206  0.4628 -0.3979 -0.2196
 2400TIP3    H128759   2.563   0.469   0.249  0.3356  1.4998 -0.3447
 2400TIP3    H228760   2.486   0.378   0.156  2.9477  0.7639 -1.8969
 2401TIP3   OH228761   2.337   3.180   6.862  0.3375 -0.1875 -0.4963
 2401TIP3    H128762   2.417   3.227   6.888  0.5620  0.8684 -2.7609
 2401TIP3    H228763   2.283   3.179   6.940  3.2514 -2.6058  1.7307
 2402TIP3   OH228764   1.128   2.112   2.111 -0.1464 -0.1609  0.1659
 2402TIP3    H128765   1.063   2.051   2.145 -1.8737  0.4182 -1.8522
 2402TIP3    H228766   1.085   2.197   2.113  0.6970  0.3158 -0.7903
 2403TIP3   OH228767   0.359   3.024   0.612 -0.1701  0.1052 -0.2515
 2403TIP3    H128768   0.382   3.056   0.525  0.5640  0.0299 -0.0888
 2403TIP3    H228769   0.263   3.020   0.611 -0.1452 -1.4549 -1.6158
 2404TIP3   OH228770   4.520   0.123   0.725  0.2160  0.2674  0.5212
 2404TIP3    H128771   4.488   0.033   0.725  1.8407 -0.3560  1.7528
 2404TIP3    H228772   4.478   0.163   0.801  0.0288  0.3401  0.3790
 2405TIP3   OH228773   6.625   2.046   6.959 -0.3015  0.0160 -0.7012
 2405TIP3    H128774   6.657   2.096   7.034  0.9851 -0.9352 -0.5850
 2405TIP3    H228775   6.577   2.110   6.906  2.2748  1.7064 -1.1812
 2406TIP3   OH228776   2.870   4.711   0.263  0.0531  0.6106  0.0068
 2406TIP3    H128777   2.904   4.731   0.350 -0.2923  0.1594  0.2493
 2406TIP3    H228778   2.846   4.795   0.226  2.3355  1.0814 -0.5521
 2407TIP3   OH228779   4.167   3.100   6.860  0.0731  0.3018 -0.1125
 2407TIP3    H128780   4.093   3.064   6.810 -0.3214  0.4084  0.3865
 2407TIP3    H228781   4.170   3.192   6.836 -0.1071  0.3498  0.0475
 2408TIP3   OH228782   6.219   0.414   1.128 -0.1605 -0.8335  0.5981
 2408TIP3    H128783   6.128   0.411   1.155 -0.1536  0.6896  0.8808
 2408TIP3    H228784   6.262   0.468   1.194  0.6555 -0.3186 -0.3272
 2409TIP3   OH228785   1.971   1.384   8.549  0.1910  0.2065  0.0427
 2409TIP3    H128786   1.909   1.455   8.565  0.2574  0.1563  0.5552
 2409TIP3    H228787   1.967   1.370   8.454 -1.5400 -0.6621  0.1930
 2410TIP3   OH228788   4.862   4.646   1.202  0.6482 -0.3501 -0.2351
 2410TIP3    H128789   4.771   4.616   1.198  0.2436  0.8374 -0.3279
 2410TIP3    H228790   4.887   4.658   1.111  0.6029  0.1794 -0.1781
 2411TIP3   OH228791   4.388   4.102   7.952  0.9576 -0.2103 -0.0914
 2411TIP3    H128792   4.354   4.183   7.989  1.1738  0.1421 -0.6503
 2411TIP3    H228793   4.311   4.044   7.947  0.5735  0.3390 -0.7011
 2412TIP3   OH228794   5.963   3.135   8.137  0.3411 -0.8115 -0.7441
 2412TIP3    H128795   5.929   3.160   8.051  0.7183 -0.5266 -0.8129
 2412TIP3    H228796   5.999   3.217   8.173 -2.4632 -0.2006  0.9639
 2413TIP3   OH228797   6.051   5.451   0.757 -0.7199 -0.5450  0.1192
 2413TIP3    H128798   6.131   5.398   0.749 -1.7923 -2.0931 -1.0779
 2413TIP3    H228799   6.057   5.515   0.686  0.2792  0.5899  1.1742
 2414TIP3   OH228800   4.973   1.259   1.520 -1.1857 -0.7603  0.6336
 2414TIP3    H128801   4.987   1.198   1.592 -0.7364 -0.5909  0.6897
 2414TIP3    H228802   4.889   1.300   1.540  1.1107  3.0631  3.8745
 2415TIP3   OH228803   6.044   0.221   7.131  0.2041  0.1054 -0.0000
 2415TIP3    H128804   6.129   0.220   7.086 -0.2910  0.0673 -0.9509
 2415TIP3    H228805   5.998   0.145   7.096 -0.6330  0.7351 -0.2906
 2416TIP3   OH228806   1.612   5.676   0.994  0.1709  0.0179 -1.0784
 2416TIP3    H128807   1.538   5.677   1.055 -1.5666  0.4269 -3.0983
 2416TIP3    H228808   1.646   5.587   0.999  1.1442  0.4421  1.6314
 2417TIP3   OH228809   5.307   6.186   0.263 -0.1381  0.1621  0.0586
 2417TIP3    H128810   5.319   6.280   0.274  0.8202  0.2786 -1.5658
 2417TIP3    H228811   5.396   6.150   0.261 -0.4821 -0.7530  0.4311
 2418TIP3   OH228812   1.701   2.145   7.389 -0.6164  0.5322 -0.2999
 2418TIP3    H128813   1.729   2.057   7.364 -0.6102  0.9668 -1.9330
 2418TIP3    H228814   1.605   2.143   7.378 -0.6168  0.7142 -0.3304
 2419TIP3   OH228815   4.589   5.673   0.927  0.5447 -0.0098  0.1307
 2419TIP3    H128816   4.548   5.621   0.858  1.6565 -0.5345 -0.1636
 2419TIP3    H228817   4.577   5.764   0.899  1.0385 -0.2145 -0.8117
 2420TIP3   OH228818   3.621   4.361   0.319  0.7238 -0.8647  0.9960
 2420TIP3    H128819   3.657   4.334   0.235  1.2049  0.3472  0.7947
 2420TIP3    H228820   3.531   4.385   0.300  1.4670  1.6972  0.2867
 2421TIP3   OH228821   2.243   6.625   8.667 -0.3025 -0.1865 -0.1328
 2421TIP3    H128822   2.338   6.639   8.663  0.0724 -2.1550  0.7792
 2421TIP3    H228823   2.233   6.531   8.681 -2.4188 -0.0804 -0.5945
 2422TIP3   OH228824   4.508   0.264   7.348 -0.2108 -0.2770 -0.2382
 2422TIP3    H128825   4.524   0.266   7.442  0.4623 -1.4324 -0.3094
 2422TIP3    H228826   4.509   0.171   7.325  0.2340  0.0152 -1.4856
 2423TIP3   OH228827   5.658   3.205   7.703  0.3347 -0.3998  0.7516
 2423TIP3    H128828   5.584   3.150   7.730  0.8240 -1.1713  0.5206
 2423TIP3    H228829   5.669   3.267   7.775 -0.2882 -0.5166  0.9570
 2424TIP3   OH228830   4.604   6.621   0.552 -0.1264 -0.1165 -0.3956
 2424TIP3    H128831   4.526   6.580   0.590  0.1052 -0.8671 -0.6992
 2424TIP3    H228832   4.669   6.550   0.550  0.1691  0.1670 -1.2710
 2425TIP3   OH228833   2.759   3.541   8.170  0.0885 -0.4460 -0.5488
 2425TIP3    H128834   2.834   3.573   8.120 -0.5393  1.1285 -0.5299
 2425TIP3    H228835   2.716   3.478   8.112  1.4333 -1.4086 -0.5345
 2426TIP3   OH228836   4.537   6.555   6.544 -0.2239 -0.5630 -0.4828
 2426TIP3    H128837   4.582   6.491   6.489  1.7688  1.1709 -1.0190
 2426TIP3    H228838   4.608   6.608   6.582 -1.6893  0.0604  1.5436
 2427TIP3   OH228839   2.802   0.357   8.510  0.2762  0.4747  0.5371
 2427TIP3    H128840   2.816   0.451   8.524 -0.6805  0.6133  0.6425
 2427TIP3    H228841   2.874   0.315   8.557  1.5803  1.1865 -0.7514
 2428TIP3   OH228842   0.036   4.269   7.016  0.2057  0.7082 -0.3148
 2428TIP3    H128843   0.113   4.238   7.065  0.0458 -0.8361 -0.9862
 2428TIP3    H228844   0.027   4.207   6.944 -2.6735 -0.1897  0.6967
 2429TIP3   OH228845   6.459   5.327   0.547  0.0302 -0.1898  0.7878
 2429TIP3    H128846   6.506   5.408   0.569 -1.5601  0.8062  0.7108
 2429TIP3    H228847   6.494   5.301   0.462  0.2007  0.7142  0.5706
 2430TIP3   OH228848   0.920   1.508   6.700  0.6281 -0.0461  0.2608
 2430TIP3    H128849   0.846   1.451   6.723  0.9834  0.4013  2.8106
 2430TIP3    H228850   0.880   1.582   6.655 -0.0760 -1.2380 -1.1730
 2431TIP3   OH228851   4.783   6.512   8.086 -0.1484  0.6584  0.1058
 2431TIP3    H128852   4.762   6.605   8.090  0.4970  0.9515 -1.9252
 2431TIP3    H228853   4.791   6.493   7.992 -0.9620 -1.6122  0.4228
 2432TIP3   OH228854   5.640   0.263   0.973  0.1127  0.2075 -0.6966
 2432TIP3    H128855   5.627   0.305   0.888 -0.6096  0.8899 -0.2597
 2432TIP3    H228856   5.554   0.228   0.996  0.6206 -1.2266 -0.8843
 2433TIP3   OH228857   6.718   0.222   8.524 -0.1537  0.0491 -0.4428
 2433TIP3    H128858   6.682   0.226   8.436 -1.3941  2.0365  0.0816
 2433TIP3    H228859   6.660   0.279   8.576  2.1566  1.1855  1.0422
 2434TIP3   OH228860   1.094   5.176   8.714  0.2073 -0.2488 -0.2423
 2434TIP3    H128861   1.079   5.082   8.723 -0.0075 -0.0357  2.1776
 2434TIP3    H228862   1.009   5.216   8.732  0.7359  0.4744  0.7126
 2435TIP3   OH228863   4.365   6.037   0.035 -0.4817 -0.5994 -0.0023
 2435TIP3    H128864   4.376   6.094   0.112 -1.4320 -2.2084  1.4020
 2435TIP3    H228865   4.273   6.049   0.010 -0.4600 -0.8818 -0.2157
 2436TIP3   OH228866   4.419   3.242   5.721 -0.5021 -0.3986  0.0277
 2436TIP3    H128867   4.337   3.260   5.674  0.8036  1.5461 -1.6259
 2436TIP3    H228868   4.472   3.320   5.709  1.5527 -1.5210  1.2505
 2437TIP3   OH228869   5.707   4.272   6.411 -0.2787 -0.2588  0.3236
 2437TIP3    H128870   5.717   4.331   6.337 -0.8147  0.4043  0.7690
 2437TIP3    H228871   5.724   4.326   6.488 -1.5247 -0.4695  0.7781
 2438TIP3   OH228872   2.797   0.740   0.232 -0.2209  0.6273  0.2102
 2438TIP3    H128873   2.848   0.669   0.192 -0.3046  1.0373 -0.6509
 2438TIP3    H228874   2.839   0.756   0.316  0.3259  0.1397  0.0334
 2439TIP3   OH228875   1.805   4.175   2.302 -0.0012  0.5695 -0.0560
 2439TIP3    H128876   1.820   4.161   2.208 -0.9640 -0.4130 -0.0782
 2439TIP3    H228877   1.836   4.264   2.318  1.3257  0.3137 -1.0464
 2440TIP3   OH228878   3.023   0.607   1.503  0.0397  0.0177 -0.4201
 2440TIP3    H128879   3.112   0.634   1.525 -0.0025 -0.2214  0.0545
 2440TIP3    H228880   3.004   0.535   1.563  0.2887 -1.3541 -1.9246
 2441TIP3   OH228881   5.161   4.431   0.136 -0.0717 -0.2853 -0.8109
 2441TIP3    H128882   5.151   4.351   0.187  1.0690 -0.3251 -0.6420
 2441TIP3    H228883   5.191   4.402   0.050  0.4445 -0.0320 -0.7164
 2442TIP3   OH228884   2.950   2.789   7.922  0.1696  0.1479 -0.2919
 2442TIP3    H128885   2.981   2.797   8.012  0.6463  0.5444 -0.4863
 2442TIP3    H228886   3.022   2.823   7.869 -0.1452  0.0043 -0.8195
 2443TIP3   OH228887   4.849   2.603   7.368 -0.1399 -0.0088 -0.0068
 2443TIP3    H128888   4.790   2.673   7.395  2.1742  2.3097 -0.6403
 2443TIP3    H228889   4.790   2.531   7.343 -2.6054  1.5613  0.8848
 2444TIP3   OH228890   3.397   5.353   7.124 -0.0902 -0.6818  0.8176
 2444TIP3    H128891   3.430   5.287   7.185  1.2628 -0.9219 -0.1441
 2444TIP3    H228892   3.422   5.320   7.038  0.9625  1.2743  0.3372
 2445TIP3   OH228893   3.670   4.857   7.387 -0.0613 -0.1538 -0.0274
 2445TIP3    H128894   3.632   4.939   7.419  1.8696  0.8364 -0.0997
 2445TIP3    H228895   3.677   4.802   7.465  1.3326  0.9048  0.6438
 2446TIP3   OH228896   1.759   0.487   0.593  0.5566 -0.0544  0.2993
 2446TIP3    H128897   1.824   0.443   0.538  1.3216  1.7010 -0.2539
 2446TIP3    H228898   1.799   0.488   0.680  0.6125 -0.2745  0.2784
 2447TIP3   OH228899   5.809   0.274   8.093  0.4322  0.7276  0.3802
 2447TIP3    H128900   5.738   0.213   8.115  1.1793 -0.1774  0.3464
 2447TIP3    H228901   5.770   0.333   8.029  0.2462 -1.0574 -1.2727
 2448TIP3   OH228902   1.245   2.646   0.606  0.8083 -0.0889 -0.0458
 2448TIP3    H128903   1.184   2.681   0.671  0.0644 -0.7181 -0.3796
 2448TIP3    H228904   1.191   2.589   0.551  1.5378  0.0031 -0.8758
 2449TIP3   OH228905   3.317   0.726   0.329 -0.2991  0.2736  0.3398
 2449TIP3    H128906   3.362   0.647   0.298 -0.5037 -0.5590  2.0382
 2449TIP3    H228907   3.352   0.796   0.275  3.1073 -0.3086  1.5777
 2450TIP3   OH228908   4.645   2.436   1.116  0.1715 -0.0522  0.0540
 2450TIP3    H128909   4.633   2.529   1.133  0.2453  0.1167 -0.7515
 2450TIP3    H228910   4.556   2.402   1.102  0.2208  0.1473 -0.8165
 2451TIP3   OH228911   5.849   2.417   6.546 -0.0810 -0.2670 -0.0067
 2451TIP3    H128912   5.819   2.420   6.455  0.4658 -0.4496 -0.2005
 2451TIP3    H228913   5.849   2.509   6.573 -0.0155 -0.1869 -0.2707
 2452TIP3   OH228914   6.667   5.128   8.286 -0.3206  0.0482 -0.1241
 2452TIP3    H128915   6.710   5.190   8.345 -2.9802  3.1405 -1.1136
 2452TIP3    H228916   6.702   5.149   8.199 -0.6204 -0.4514 -0.3676
 2453TIP3   OH228917   3.350   2.456   8.764  0.5880  0.7669 -0.4905
 2453TIP3    H128918   3.376   2.500   8.683  0.1888  2.4301  0.2510
 2453TIP3    H228919   3.280   2.511   8.800 -0.5809 -0.9821  0.0202
 2454TIP3   OH228920   1.970   3.858   6.781 -0.2333 -0.2475 -0.3556
 2454TIP3    H128921   1.943   3.779   6.828  3.1043 -0.9709  0.6435
 2454TIP3    H228922   1.904   3.923   6.803 -2.3119 -2.3496 -0.0388
 2455TIP3   OH228923   0.014   2.043   6.247 -0.9340 -0.6852 -0.2630
 2455TIP3    H128924  -0.022   2.091   6.172  2.8426  2.0788 -0.6264
 2455TIP3    H228925  -0.029   2.081   6.323  0.2575  1.8422 -0.7248
 2456TIP3   OH228926   0.311   4.780   7.219  0.0292  0.5701  0.0467
 2456TIP3    H128927   0.371   4.756   7.290 -0.1293  0.8758  0.2867
 2456TIP3    H228928   0.298   4.698   7.170  0.5025  0.4622  0.0938
 2457TIP3   OH228929   5.300   5.775   0.115 -0.1039 -0.4925  0.1855
 2457TIP3    H128930   5.380   5.817   0.085 -1.3588  0.8563 -1.4651
 2457TIP3    H228931   5.313   5.763   0.209  1.0699  1.9331  0.4012
 2458TIP3   OH228932   0.988   4.537   2.298 -0.0394 -0.1955  0.4048
 2458TIP3    H128933   0.936   4.460   2.278 -0.7129  0.7663 -2.0135
 2458TIP3    H228934   1.076   4.504   2.314 -0.4589 -1.5179  0.0718
 2459TIP3   OH228935   4.242   0.108   0.486  0.6616 -0.1603 -0.0365
 2459TIP3    H128936   4.287   0.059   0.418  0.3695 -0.4032 -0.0577
 2459TIP3    H228937   4.151   0.078   0.481  0.4463  0.4996 -0.1522
 2460TIP3   OH228938   0.423   5.743   0.456 -0.1791  0.0566  0.2719
 2460TIP3    H128939   0.486   5.757   0.527 -0.2203  1.1331  0.1077
 2460TIP3    H228940   0.356   5.686   0.495 -0.0288  0.3655  1.0074
 2461TIP3   OH228941   4.272   4.342   1.436 -0.1407  0.2391 -0.2378
 2461TIP3    H128942   4.215   4.272   1.467  0.0732  0.2388  0.1568
 2461TIP3    H228943   4.264   4.411   1.501  0.2028  0.2961 -0.2543
 2462TIP3   OH228944   1.126   2.120   1.609  0.6566  0.6733  0.2458
 2462TIP3    H128945   1.141   2.058   1.537 -1.5195 -1.1044  1.2069
 2462TIP3    H228946   1.040   2.158   1.589 -0.7378 -1.0004  2.5730
 2463TIP3   OH228947   6.430   4.486   0.380 -0.4342 -0.2384 -0.8455
 2463TIP3    H128948   6.382   4.426   0.438 -0.7535  1.0782  0.3189
 2463TIP3    H228949   6.521   4.480   0.410 -0.0261 -1.7887 -2.2283
 2464TIP3   OH228950   1.244   0.144   2.073  0.0145  0.3600 -0.0725
 2464TIP3    H128951   1.158   0.110   2.097  0.4977 -2.3805 -1.7947
 2464TIP3    H228952   1.231   0.238   2.064 -2.8784  0.0040 -0.5861
 2465TIP3   OH228953   0.382   6.726   8.379  0.3643  0.2604  0.1762
 2465TIP3    H128954   0.397   6.752   8.288  0.1922  0.0249  0.0774
 2465TIP3    H228955   0.308   6.780   8.407  0.3578  0.2677  0.1452
 2466TIP3   OH228956   4.243   6.203   6.705  0.0934  0.0329  0.0001
 2466TIP3    H128957   4.295   6.281   6.723 -2.3445  2.0434 -1.1154
 2466TIP3    H228958   4.221   6.209   6.612  0.5594 -2.5108 -0.3581
 2467TIP3   OH228959   2.232   2.465   2.095 -0.1675  0.1630 -0.3331
 2467TIP3    H128960   2.271   2.553   2.090 -1.2099  0.6422 -0.3970
 2467TIP3    H228961   2.168   2.464   2.024  3.7140 -2.7161 -4.2688
 2468TIP3   OH228962   2.461   3.727   0.324 -0.1499 -0.9973 -0.2236
 2468TIP3    H128963   2.475   3.736   0.230  0.3876 -1.3614 -0.1829
 2468TIP3    H228964   2.547   3.703   0.359 -0.1346  0.0294  0.4852
 2469TIP3   OH228965   4.959   3.009   0.388  0.2096  0.2628  0.1526
 2469TIP3    H128966   4.982   3.069   0.459  1.3889  0.1653 -0.1181
 2469TIP3    H228967   4.885   2.959   0.421  1.4571 -0.6074  1.8039
 2470TIP3   OH228968   3.270   1.979   1.764  0.0703  0.6522  0.1875
 2470TIP3    H128969   3.246   2.060   1.808  1.1916  0.5683  0.9907
 2470TIP3    H228970   3.355   1.955   1.801 -1.1778 -2.0599  1.6105
 2471TIP3   OH228971   5.287   3.618   6.991 -0.1668 -0.0700 -0.0397
 2471TIP3    H128972   5.304   3.701   6.946  0.8741  0.0666  0.5603
 2471TIP3    H228973   5.361   3.563   6.967 -1.2970 -1.1758 -1.1586
 2472TIP3   OH228974   5.973   6.435   1.338 -0.0937  0.8420  0.1861
 2472TIP3    H128975   5.998   6.508   1.282 -1.5743  0.9524 -0.3801
 2472TIP3    H228976   5.953   6.364   1.277  2.5484 -0.5315  0.7453
 2473TIP3   OH228977   0.099   3.756   6.552  0.2428  0.0072  0.1376
 2473TIP3    H128978   0.129   3.765   6.462 -0.1375  0.2809  0.0357
 2473TIP3    H228979   0.116   3.665   6.574  0.6924  0.0319 -0.0789
 2474TIP3   OH228980   6.498   4.220   6.500 -0.3402 -0.2030 -0.2593
 2474TIP3    H128981   6.447   4.173   6.567  1.7482 -1.9984  0.2075
 2474TIP3    H228982   6.583   4.236   6.542 -0.1474  1.8630 -1.3104
 2475TIP3   OH228983   1.564   1.546   1.493 -0.6999 -0.2235  0.4993
 2475TIP3    H128984   1.490   1.563   1.550 -0.0016 -0.2695  1.4330
 2475TIP3    H228985   1.629   1.502   1.548  0.3046  0.4436 -0.0981
 2476TIP3   OH228986   6.126   3.110   0.921  0.6937  0.3233  0.0803
 2476TIP3    H128987   6.184   3.185   0.936  0.5013  0.9293 -1.9287
 2476TIP3    H228988   6.044   3.149   0.889 -0.1704 -0.6368  1.0569
 2477TIP3   OH228989   6.090   3.585   6.448 -0.1079 -0.1258  0.1571
 2477TIP3    H128990   6.009   3.552   6.410  0.1439 -1.5675  0.8003
 2477TIP3    H228991   6.065   3.667   6.492 -1.2169 -0.5614  0.3718
 2478TIP3   OH228992   6.780   5.769   6.442  0.4999  0.2983  0.3175
 2478TIP3    H128993   6.787   5.740   6.351 -0.8875 -0.1968  0.3398
 2478TIP3    H228994   6.732   5.851   6.437  3.0429  1.9017  0.3967
 2479TIP3   OH228995   3.403   6.328   8.434 -0.0030  0.0191  0.6890
 2479TIP3    H128996   3.372   6.347   8.346  0.1836  1.4391  0.9096
 2479TIP3    H228997   3.495   6.351   8.433  0.0274 -0.0545  1.2332
 2480TIP3   OH228998   0.451   2.611   6.449  0.0659  0.3274  0.9505
 2480TIP3    H128999   0.383   2.626   6.515 -0.9245  0.6111 -0.1022
 2480TIP3    H229000   0.437   2.680   6.384 -0.4721 -1.2777 -0.7330
 2481TIP3   OH229001   0.142   3.797   6.286  0.2810  0.7036  0.1469
 2481TIP3    H129002   0.129   3.817   6.193 -1.2578 -0.8241 -0.0248
 2481TIP3    H229003   0.229   3.758   6.290 -1.0492 -2.8950 -1.4365
 2482TIP3   OH229004   1.287   2.668   6.781 -0.3541  0.9297  0.0503
 2482TIP3    H129005   1.267   2.695   6.691 -1.2599  0.6710  0.1698
 2482TIP3    H229006   1.368   2.618   6.773 -1.1161 -0.2035 -0.8229
 2483TIP3   OH229007   0.989   5.521   8.683  0.0127  0.4800 -0.2668
 2483TIP3    H129008   0.923   5.591   8.685 -0.4525  0.0749 -0.9890
 2483TIP3    H229009   0.963   5.462   8.753 -0.3289  0.3897 -0.4637
 2484TIP3   OH229010   3.889   4.734   8.350  0.1049  0.5718 -0.3147
 2484TIP3    H129011   3.873   4.825   8.324 -0.0811  0.4800 -0.5223
 2484TIP3    H229012   3.866   4.730   8.443  0.0794  0.7281 -0.3154
 2485TIP3   OH229013   3.444   6.181   6.537 -0.1906  0.9203 -0.7761
 2485TIP3    H129014   3.391   6.210   6.462 -1.7012 -0.0606 -0.1355
 2485TIP3    H229015   3.380   6.150   6.601  1.1803 -3.2830 -1.1408
 2486TIP3   OH229016   2.015   6.765   8.588  0.1027  0.8431  0.1524
 2486TIP3    H129017   1.979   6.695   8.534 -0.4802  1.4730 -0.2921
 2486TIP3    H229018   2.102   6.734   8.613 -0.0312  0.0932 -0.2894
 2487TIP3   OH229019   1.750   0.610   6.450 -0.4946  0.0714 -0.2012
 2487TIP3    H129020   1.808   0.616   6.373  2.6607  0.5753  2.0309
 2487TIP3    H229021   1.715   0.521   6.447  1.7961 -0.8697 -0.7609
 2488TIP3   OH229022   1.673   5.418   7.723  0.2153 -0.7342 -0.1857
 2488TIP3    H129023   1.614   5.448   7.793  2.0184  1.3273  0.5282
 2488TIP3    H229024   1.761   5.435   7.756  1.1523  0.7567 -3.1338
 2489TIP3   OH229025   0.593   3.203   8.132  0.1244 -0.3256  0.3269
 2489TIP3    H129026   0.532   3.212   8.059 -0.2089 -0.4959  0.5870
 2489TIP3    H229027   0.556   3.257   8.202  0.3782 -0.2632  0.4175
 2490TIP3   OH229028   5.571   5.326   7.000 -0.7237 -0.2036 -0.0614
 2490TIP3    H129029   5.596   5.359   7.086  0.4254 -0.0544 -0.4478
 2490TIP3    H229030   5.504   5.387   6.970  0.7789  1.3381 -0.4134
 2491TIP3   OH229031   2.343   5.117   1.560  0.0707 -0.0280  0.4263
 2491TIP3    H129032   2.407   5.123   1.489 -1.0258  2.1339 -0.4467
 2491TIP3    H229033   2.309   5.206   1.571 -0.2321 -0.3844  3.3020
 2492TIP3   OH229034   6.396   6.747   0.466 -0.4823 -0.2729  0.0306
 2492TIP3    H129035   6.411   6.654   0.449 -1.4221 -0.7301  1.4830
 2492TIP3    H229036   6.312   6.766   0.424 -0.4355 -0.1589 -0.0115
 2493TIP3   OH229037   4.609   4.554   1.173  0.3739 -0.6654  0.0856
 2493TIP3    H129038   4.565   4.471   1.155 -0.1992 -0.8963  2.2884
 2493TIP3    H229039   4.538   4.617   1.185  0.7751 -0.1083 -0.4298
 2494TIP3   OH229040   1.412   5.418   1.500 -0.5208 -0.7374  0.0560
 2494TIP3    H129041   1.433   5.355   1.569  1.3877  0.2773  0.4665
 2494TIP3    H229042   1.496   5.460   1.479 -1.7291  1.8462 -0.0072
 2495TIP3   OH229043   6.310   4.207   7.644 -0.1971 -0.1980  0.0461
 2495TIP3    H129044   6.372   4.218   7.716 -0.5642 -1.2331  0.5457
 2495TIP3    H229045   6.229   4.177   7.686 -0.1459 -1.7326 -0.8707
 2496TIP3   OH229046   3.785   6.323   0.425 -0.4301  0.0919 -0.2754
 2496TIP3    H129047   3.867   6.346   0.468 -1.1403  0.8964  0.7195
 2496TIP3    H229048   3.805   6.324   0.331  0.9923 -1.0207 -0.0128
 2497TIP3   OH229049   2.157   4.260   0.383  0.6608 -0.8354  0.2092
 2497TIP3    H129050   2.127   4.257   0.292  2.1749 -0.8545 -0.3203
 2497TIP3    H229051   2.121   4.180   0.423  0.7239 -1.2881 -0.6202
 2498TIP3   OH229052   5.103   1.316   6.905 -0.2171  0.5310  0.1979
 2498TIP3    H129053   5.143   1.402   6.892 -1.6119  1.2787  0.6625
 2498TIP3    H229054   5.041   1.307   6.833  1.0674 -0.8243 -0.7860
 2499TIP3   OH229055   2.774   2.359   8.565 -0.1201 -0.0588 -0.1438
 2499TIP3    H129056   2.803   2.270   8.543  0.7621  0.4572 -1.2071
 2499TIP3    H229057   2.735   2.392   8.484  1.1227  1.1064 -0.3146
 2500TIP3   OH229058   1.382   4.883   8.103  0.1074  0.2346  0.1527
 2500TIP3    H129059   1.359   4.846   8.018 -1.7981  0.6348  0.4427
 2500TIP3    H229060   1.302   4.928   8.132 -0.0449 -1.6745  3.0938
 2501TIP3   OH229061   6.356   2.315   1.741 -0.8105  0.5345  0.4953
 2501TIP3    H129062   6.270   2.273   1.748 -1.0993  1.2985  1.8854
 2501TIP3    H229063   6.349   2.393   1.796  1.1998 -0.1257  1.8166
 2502TIP3   OH229064   1.514   3.658   8.807 -0.0260  0.3027  0.1519
 2502TIP3    H129065   1.594   3.606   8.814  0.2941  0.7498 -0.1442
 2502TIP3    H229066   1.543   3.743   8.774 -0.6549  0.3849 -0.2155
 2503TIP3   OH229067   4.729   6.736   6.685 -0.2671  0.4233  0.0254
 2503TIP3    H129068   4.787   6.808   6.661 -0.0386  0.2615  0.0838
 2503TIP3    H229069   4.744   6.724   6.779  1.4437 -1.2289 -0.3998
 2504TIP3   OH229070   3.466   0.026   7.966  0.1230  0.0028 -1.4246
 2504TIP3    H129071   3.544   0.057   7.919 -0.4600 -0.5586 -2.8138
 2504TIP3    H229072   3.413  -0.017   7.899 -1.3230  0.2303 -0.4719
 2505TIP3   OH229073   6.268   2.940   8.662  0.1465 -0.1026  0.4500
 2505TIP3    H129074   6.294   2.860   8.616 -0.2209 -0.2144  0.4269
 2505TIP3    H229075   6.211   2.985   8.599  0.8795  0.5022  0.2145
 2506TIP3   OH229076   2.496   0.247   7.411  0.3285  0.2792 -0.2102
 2506TIP3    H129077   2.505   0.227   7.318  0.3144 -0.3879 -0.0775
 2506TIP3    H229078   2.581   0.283   7.437  0.5595 -0.1695 -0.3359
 2507TIP3   OH229079   5.501   3.277   1.138  0.1348  0.2311  0.2061
 2507TIP3    H129080   5.517   3.367   1.110 -1.6001  0.8666  1.1416
 2507TIP3    H229081   5.539   3.273   1.226 -2.1862  0.9384  1.3168
 2508TIP3   OH229082   4.705   2.384   7.397  0.0923  0.3683 -0.2650
 2508TIP3    H129083   4.720   2.318   7.465 -0.5463  0.6159  0.1282
 2508TIP3    H229084   4.610   2.385   7.386 -0.2667  3.3273  1.9197
 2509TIP3   OH229085   4.314   0.568   8.136 -0.0770 -0.4934  0.4532
 2509TIP3    H129086   4.402   0.602   8.147 -0.3351  0.7317 -0.9984
 2509TIP3    H229087   4.263   0.610   8.205 -0.3150  1.9427 -1.0806
 2510TIP3   OH229088   5.770   2.289   7.122 -0.2659 -0.0258  0.5850
 2510TIP3    H129089   5.818   2.341   7.058 -0.1781 -0.4620  0.2940
 2510TIP3    H229090   5.680   2.289   7.090  0.0655 -1.6048 -0.4494
 2511TIP3   OH229091   2.206   5.942   1.575  0.0131 -0.3565  0.0501
 2511TIP3    H129092   2.115   5.973   1.574 -0.1742 -0.8760 -0.6313
 2511TIP3    H229093   2.239   5.967   1.661 -1.1630 -1.2339  0.7929
 2512TIP3   OH229094   0.973   2.550   8.506  0.1298 -0.1410  0.3216
 2512TIP3    H129095   1.062   2.565   8.540  1.0123 -0.6496 -1.6058
 2512TIP3    H229096   0.940   2.477   8.559  0.4942  0.6226  1.6556
 2513TIP3   OH229097   1.709   0.072   1.615 -0.0291 -0.2561 -0.3898
 2513TIP3    H129098   1.746  -0.015   1.597  0.7492  0.0100 -0.1327
 2513TIP3    H229099   1.774   0.133   1.581  0.7766  0.2429  1.8790
 2514TIP3   OH229100   4.287   3.763   8.157  0.2922  0.0915  0.0191
 2514TIP3    H129101   4.310   3.841   8.209 -1.0265  0.5643 -0.0682
 2514TIP3    H229102   4.367   3.711   8.156  0.8865  0.9333  1.0019
 2515TIP3   OH229103   4.569   4.621   7.064 -0.5190  0.1805  0.4859
 2515TIP3    H129104   4.514   4.543   7.064  0.3446 -0.4531 -0.3418
 2515TIP3    H229105   4.564   4.654   6.974  0.7641 -0.1357  0.2806
 2516TIP3   OH229106   3.581   3.480   0.851  0.4100 -0.3363 -0.4550
 2516TIP3    H129107   3.624   3.565   0.858 -1.2436  0.6420 -1.5734
 2516TIP3    H229108   3.558   3.472   0.759 -0.7169 -1.3572 -0.1152
 2517TIP3   OH229109   1.195   5.170   6.669 -0.1004  0.6669  0.3403
 2517TIP3    H129110   1.210   5.118   6.590 -1.6496 -0.9094  1.0075
 2517TIP3    H229111   1.241   5.122   6.738  0.0156  1.2160  0.6457
 2518TIP3   OH229112   3.103   3.273   0.038  0.0969 -1.0133 -0.0517
 2518TIP3    H129113   3.041   3.230   0.098 -3.3484  0.2416 -2.3976
 2518TIP3    H229114   3.088   3.366   0.052  1.8364 -0.6643 -0.3963
 2519TIP3   OH229115   4.689   2.671   7.731 -0.2842  0.2262  0.4412
 2519TIP3    H129116   4.721   2.746   7.780 -0.2819  1.6677 -1.6269
 2519TIP3    H229117   4.761   2.608   7.734  0.3091  0.9134  0.9934
 2520TIP3   OH229118   3.798   4.812   6.758  0.1602  0.1373  0.3380
 2520TIP3    H129119   3.767   4.763   6.835 -0.4857  0.5833  0.3737
 2520TIP3    H229120   3.827   4.896   6.793  1.7324 -0.3814  0.3404
 2521TIP3   OH229121   3.787   1.274   0.727  0.1424 -0.2784 -0.0669
 2521TIP3    H129122   3.746   1.338   0.785  1.1187  0.1726  0.1379
 2521TIP3    H229123   3.828   1.211   0.786 -0.3285 -0.7862 -0.2721
 2522TIP3   OH229124   5.230   1.794   7.594  0.3401  0.2132  0.3056
 2522TIP3    H129125   5.228   1.829   7.683  0.4838  1.2433 -0.0735
 2522TIP3    H229126   5.322   1.799   7.568  0.1154  1.2258 -0.3704
 2523TIP3   OH229127   0.549   5.333   8.524 -0.4898 -0.0358  0.0029
 2523TIP3    H129128   0.555   5.257   8.583  2.0997  0.7155  0.8266
 2523TIP3    H229129   0.530   5.406   8.582 -3.3872 -0.0035 -0.8356
 2524TIP3   OH229130   6.788   2.591   6.595  0.7136  0.2127 -0.3603
 2524TIP3    H129131   6.718   2.647   6.627  1.0005  0.1339  0.4348
 2524TIP3    H229132   6.767   2.575   6.503 -0.8454 -0.6086  0.1014
 2525TIP3   OH229133   0.341   4.290   8.553 -0.0767  0.2794  0.3234
 2525TIP3    H129134   0.345   4.330   8.639  1.6679  2.0232 -0.4946
 2525TIP3    H229135   0.273   4.339   8.507 -1.5445 -1.1429  0.8741
 2526TIP3   OH229136   1.357   3.016   8.310  0.2525 -0.4722 -0.4972
 2526TIP3    H129137   1.312   3.064   8.380 -1.2760 -0.9894 -1.0977
 2526TIP3    H229138   1.445   3.054   8.309  0.2800 -0.3426  1.5961
 2527TIP3   OH229139   4.405   5.218   8.188 -0.3967 -0.0109  0.3170
 2527TIP3    H129140   4.392   5.290   8.126 -0.4051 -0.6469 -0.4380
 2527TIP3    H229141   4.413   5.261   8.273  0.1838  0.9242 -0.1896
 2528TIP3   OH229142   4.362   4.993   1.751 -0.0152  0.2057 -0.4144
 2528TIP3    H129143   4.274   5.027   1.737  0.4382  2.3503  1.3907
 2528TIP3    H229144   4.420   5.066   1.728  1.0773  0.3042  2.2669
 2529TIP3   OH229145   0.719   0.057   7.170 -0.8494 -0.1627 -0.0518
 2529TIP3    H129146   0.711   0.014   7.256  0.4070 -1.7104 -0.6537
 2529TIP3    H229147   0.631   0.051   7.132 -1.5567  1.0069  1.2950
 2530TIP3   OH229148   2.462   0.789   7.980 -0.3779  0.6827 -0.2193
 2530TIP3    H129149   2.372   0.815   7.959 -0.3813 -0.6113 -2.1797
 2530TIP3    H229150   2.505   0.870   8.006 -1.3215  1.9697 -2.3493
 2531TIP3   OH229151   5.851   1.490   0.285 -0.0643  0.0541 -0.3340
 2531TIP3    H129152   5.874   1.417   0.228 -0.9098 -1.0302  0.6778
 2531TIP3    H229153   5.768   1.523   0.249  0.7141  1.0582 -1.2679
 2532TIP3   OH229154   5.643   6.734   8.722 -0.1713  0.6679  0.5946
 2532TIP3    H129155   5.703   6.748   8.650 -0.7399 -0.6591 -0.1688
 2532TIP3    H229156   5.564   6.782   8.697 -0.5006 -0.0967  0.1434
 2533TIP3   OH229157   1.029   0.464   6.827 -0.0847  0.1001  0.2032
 2533TIP3    H129158   1.062   0.541   6.781 -2.0463  1.1978  0.5232
 2533TIP3    H229159   0.961   0.429   6.770 -0.7433 -0.0576  1.0682
 2534TIP3   OH229160   6.236   6.311   7.625  0.5015  0.1003  0.2243
 2534TIP3    H129161   6.247   6.321   7.719 -2.8976  0.4321  0.7369
 2534TIP3    H229162   6.253   6.398   7.589 -1.1647  0.7814  0.9910
 2535TIP3   OH229163   1.604   3.110   7.462  0.3714  0.2799  0.5577
 2535TIP3    H129164   1.605   3.163   7.542 -0.1857  0.9256  0.1504
 2535TIP3    H229165   1.553   3.033   7.485  0.0208  0.5680  0.7605
 2536TIP3   OH229166   1.290   5.222   8.519  0.6543 -0.4131 -0.5879
 2536TIP3    H129167   1.257   5.214   8.609 -0.3180  1.4945 -0.7310
 2536TIP3    H229168   1.244   5.298   8.483  1.5746 -0.6902 -2.4727
 2537TIP3   OH229169   2.098   3.668   6.592  0.2689 -0.3228 -0.0925
 2537TIP3    H129170   2.060   3.738   6.645 -1.0138 -0.4018 -0.8479
 2537TIP3    H229171   2.130   3.713   6.513  0.1961 -0.4698 -0.2065
 2538TIP3   OH229172   4.975   4.247   0.665  0.3106  0.1947 -0.0432
 2538TIP3    H129173   4.984   4.301   0.743  0.1127  0.9496 -0.5334
 2538TIP3    H229174   5.021   4.166   0.686  3.4168  1.7268 -0.4323
 2539TIP3   OH229175   1.094   3.777   8.127 -0.2249 -0.3728  0.1271
 2539TIP3    H129176   1.114   3.691   8.164  1.7211  0.3817  0.9498
 2539TIP3    H229177   1.048   3.824   8.197  3.0817  0.9047  1.6625
 2540TIP3   OH229178   5.823   3.337   6.983 -0.1870  0.1705  0.4725
 2540TIP3    H129179   5.895   3.384   7.024  0.9620 -1.2845  0.2323
 2540TIP3    H229180   5.855   3.316   6.895 -1.0844 -0.0887  0.1966
 2541TIP3   OH229181   0.254   6.496   7.753  0.4545  0.3983  0.2357
 2541TIP3    H129182   0.337   6.537   7.728  0.5499 -0.2391 -0.5302
 2541TIP3    H229183   0.248   6.509   7.847  2.5289 -1.4397  0.7128
 2542TIP3   OH229184   5.172   5.408   5.893  0.0131 -0.0486 -0.3267
 2542TIP3    H129185   5.168   5.341   5.961 -1.5231 -0.2975 -0.6132
 2542TIP3    H229186   5.207   5.486   5.937 -0.9602 -0.2008  0.7584
 2543TIP3   OH229187   2.511   0.683   0.499  0.2352  0.1672 -0.2453
 2543TIP3    H129188   2.428   0.724   0.474 -0.4574 -0.2731  1.2516
 2543TIP3    H229189   2.533   0.627   0.424 -1.5715 -0.7967 -0.1167
 2544TIP3   OH229190   2.498   5.353   6.342  0.2647  0.0056  0.1354
 2544TIP3    H129191   2.580   5.305   6.329  0.5184  0.5665 -0.3528
 2544TIP3    H229192   2.438   5.288   6.380  1.1243 -0.2385  1.1140
 2545TIP3   OH229193   1.927   2.367   8.642 -0.2666  0.0583 -0.3356
 2545TIP3    H129194   1.972   2.450   8.654 -0.0762  0.1045 -1.2857
 2545TIP3    H229195   1.987   2.301   8.677  1.2553 -0.0394 -2.9173
 2546TIP3   OH229196   4.540   1.514   8.738  0.3228  0.1327  0.2637
 2546TIP3    H129197   4.471   1.538   8.678 -1.7861 -0.2598  2.3796
 2546TIP3    H229198   4.578   1.597   8.767  1.5484  0.3131 -1.7098
 2547TIP3   OH229199   6.342   2.968   2.103  0.0126  0.0558 -0.1577
 2547TIP3    H129200   6.402   3.042   2.112 -1.2249  0.9892  0.8063
 2547TIP3    H229201   6.257   3.008   2.085 -0.3056 -1.2458 -1.8291
 2548TIP3   OH229202   1.725   1.694   7.013 -0.3955  0.4685  0.5438
 2548TIP3    H129203   1.766   1.756   6.953  0.0539  0.9428  1.3395
 2548TIP3    H229204   1.632   1.717   7.011 -0.7940 -0.9763 -1.7083
 2549TIP3   OH229205   1.153   4.073   7.225 -0.4261 -0.1789 -0.4882
 2549TIP3    H129206   1.082   4.125   7.261  0.6027  1.0066 -0.0992
 2549TIP3    H229207   1.224   4.081   7.288  0.2708 -0.8493 -1.1486
 2550TIP3   OH229208   0.025   0.954   7.497  0.0016  0.0734  0.0701
 2550TIP3    H129209   0.102   1.001   7.466 -0.9077  1.2555 -0.4829
 2550TIP3    H229210   0.048   0.926   7.586  0.9490  0.6667  0.0302
 2551TIP3   OH229211   0.768   5.100   8.751  0.0135 -0.3839 -0.0175
 2551TIP3    H129212   0.696   5.110   8.689  0.4574 -1.5105 -0.7483
 2551TIP3    H229213   0.729   5.059   8.828 -0.1908 -0.6584 -0.2684
 2552TIP3   OH229214   1.439   5.444   7.267 -0.4663  0.5759 -0.7425
 2552TIP3    H129215   1.499   5.408   7.333  0.7108  1.9134 -1.0297
 2552TIP3    H229216   1.353   5.442   7.309 -0.3208 -1.6657 -0.4179
 2553TIP3   OH229217   5.184   0.103   1.732 -0.4483 -0.3633 -0.0391
 2553TIP3    H129218   5.198   0.188   1.775  0.9727 -0.9351  0.7018
 2553TIP3    H229219   5.266   0.055   1.748 -0.8483 -1.5041 -1.3048
 2554TIP3   OH229220   4.655   3.158   0.560 -0.2569  0.0495  0.0910
 2554TIP3    H129221   4.674   3.118   0.475  0.4016 -0.8561  0.6392
 2554TIP3    H229222   4.570   3.122   0.585 -0.2069 -0.0952  0.0532
 2555TIP3   OH229223   1.944   4.690   2.292  0.2153 -0.1557 -0.0131
 2555TIP3    H129224   1.905   4.719   2.210 -1.1459 -1.1153  0.2773
 2555TIP3    H229225   2.022   4.746   2.301  0.1176  0.3245 -1.6742
 2556TIP3   OH229226   5.289   5.735   7.514  0.3339 -0.0074  0.1017
 2556TIP3    H129227   5.275   5.682   7.593 -0.8007  2.5621  1.7529
 2556TIP3    H229228   5.219   5.708   7.455  2.0914 -3.0794 -0.8395
 2557TIP3   OH229229   3.527   3.729   2.064 -0.1592  0.2824  0.0153
 2557TIP3    H129230   3.602   3.750   2.120 -1.2575  0.5372  1.4555
 2557TIP3    H229231   3.536   3.636   2.045  1.6106  0.7048 -1.5840
 2558TIP3   OH229232   3.485   5.023   1.072 -0.0997  0.4854  0.1183
 2558TIP3    H129233   3.417   5.080   1.035  0.8346  0.7021 -1.2933
 2558TIP3    H229234   3.454   4.934   1.054 -0.2611  0.5781 -0.0674
 2559TIP3   OH229235   3.540   5.204   7.321 -0.3028 -0.6534 -0.5995
 2559TIP3    H129236   3.554   5.173   7.411 -0.7279 -1.0214 -0.6589
 2559TIP3    H229237   3.627   5.203   7.282 -0.0330 -0.0282 -0.0487
 2560TIP3   OH229238   3.271   6.761   6.760  0.3171 -0.9938 -0.1583
 2560TIP3    H129239   3.275   6.855   6.745 -1.2939 -0.9449 -0.3845
 2560TIP3    H229240   3.358   6.730   6.735  0.0980  0.0904 -2.6183
 2561TIP3   OH229241   2.766   1.483   6.960  0.1687  0.8932 -0.4093
 2561TIP3    H129242   2.829   1.545   6.923 -0.0892  1.2810 -0.2111
 2561TIP3    H229243   2.717   1.450   6.884  0.2561  0.9911 -0.5073
 2562TIP3   OH229244   4.438   2.098   0.657  0.0418  0.1732 -0.0129
 2562TIP3    H129245   4.429   2.170   0.719  1.4850  0.4783 -0.1413
 2562TIP3    H229246   4.429   2.138   0.571  1.6010  0.3620 -0.1165
 2563TIP3   OH229247   2.204   0.198   7.401  0.2709  0.5532  0.3456
 2563TIP3    H129248   2.180   0.241   7.319  0.5393 -0.4901 -0.3072
 2563TIP3    H229249   2.299   0.213   7.408  0.3288  0.2558  0.2212
 2564TIP3   OH229250   5.431   6.001   0.549  0.4602  0.2731  0.0728
 2564TIP3    H129251   5.407   6.082   0.593  1.1348 -0.0451  1.0681
 2564TIP3    H229252   5.504   6.025   0.492  2.2593 -0.0454  2.1326
 2565TIP3   OH229253   3.478   0.522   0.191  0.0608  0.4965  0.2615
 2565TIP3    H129254   3.548   0.472   0.234 -1.6079 -0.8689  1.6116
 2565TIP3    H229255   3.522   0.575   0.125  2.2423 -0.9352  0.4658
 2566TIP3   OH229256   2.369   4.039   8.698 -0.1724 -0.4016  0.5113
 2566TIP3    H129257   2.366   4.038   8.793 -2.1496  1.5805  0.5521
 2566TIP3    H229258   2.318   3.962   8.671  0.8593 -1.2824  1.0022
 2567TIP3   OH229259   1.790   6.546   0.066 -0.5448 -0.2425  0.2340
 2567TIP3    H129260   1.808   6.551   0.160  0.1417  0.5955  0.0691
 2567TIP3    H229261   1.822   6.460   0.041  0.5414  0.0553  0.5227
 2568TIP3   OH229262   6.233   3.354   0.955 -0.2687  0.4856  0.2031
 2568TIP3    H129263   6.295   3.409   1.002  0.4622  0.2696 -0.4989
 2568TIP3    H229264   6.154   3.408   0.948  0.0011  0.9454  0.6613
 2569TIP3   OH229265   1.907   5.273   0.249  0.1230  0.6584 -0.2060
 2569TIP3    H129266   1.892   5.295   0.340  0.2801  2.1037 -0.5083
 2569TIP3    H229267   1.985   5.322   0.225  0.4744 -0.2282 -0.9444
 2570TIP3   OH229268   3.919   1.011   6.810 -0.0441  0.2178  0.2966
 2570TIP3    H129269   3.835   1.010   6.765 -0.4816 -1.1331  1.0563
 2570TIP3    H229270   3.958   0.925   6.790  0.6968  0.4400  0.7497
 2571TIP3   OH229271   0.007   1.874   0.147 -0.0914 -0.0925  0.3423
 2571TIP3    H129272   0.014   1.968   0.165 -1.3376 -0.2572  2.0399
 2571TIP3    H229273   0.077   1.856   0.086  0.4979  1.8588  0.3533
 2572TIP3   OH229274   3.977   0.245   8.604  0.1941  0.4583  0.1870
 2572TIP3    H129275   4.062   0.272   8.639 -0.4028  0.5296  1.6289
 2572TIP3    H229276   3.998   0.189   8.530  1.5764 -2.0190  2.3133
 2573TIP3   OH229277   0.629   0.670   7.038 -0.4876  0.0108  0.0698
 2573TIP3    H129278   0.566   0.666   7.111 -0.1607  1.5168  0.4639
 2573TIP3    H229279   0.631   0.581   7.004 -2.3369 -0.2344  0.4748
 2574TIP3   OH229280   0.555   3.489   1.344 -0.0636  0.0536 -0.2124
 2574TIP3    H129281   0.541   3.399   1.372  0.3228 -0.0988 -0.4923
 2574TIP3    H229282   0.623   3.523   1.403 -0.0750  0.0994 -0.2253
 2575TIP3   OH229283   0.727   5.025   8.346  0.1632  0.3163 -0.2569
 2575TIP3    H129284   0.812   4.994   8.377 -1.0141 -2.1670  0.7078
 2575TIP3    H229285   0.748   5.082   8.272  2.5849 -1.8625 -1.3771
 2576TIP3   OH229286   1.061   2.616   1.198  0.4558  0.5437 -0.5242
 2576TIP3    H129287   1.094   2.538   1.244  1.5955  0.9707 -0.5920
 2576TIP3    H229288   1.061   2.685   1.264  0.0777  0.6468 -0.6320
 2577TIP3   OH229289   2.898   1.926   6.587  0.0898  1.3590  0.4620
 2577TIP3    H129290   2.883   1.950   6.679 -0.2927  2.9935  0.0059
 2577TIP3    H229291   2.892   2.009   6.540 -2.7295  0.1972 -1.4629
 2578TIP3   OH229292   0.128   2.978   7.243  0.3508 -0.2686 -0.2894
 2578TIP3    H129293   0.102   2.889   7.268  0.1795  0.1123  0.9697
 2578TIP3    H229294   0.218   2.986   7.275  0.5245 -0.1392 -0.8065
 2579TIP3   OH229295   5.830   6.223   0.393  0.7838 -0.1517  0.5725
 2579TIP3    H129296   5.876   6.180   0.322  1.9889 -0.4526  1.4950
 2579TIP3    H229297   5.807   6.152   0.454  1.8090  0.3398  1.5698
 2580TIP3   OH229298   1.985   4.347   8.788 -0.0423  0.0064  0.0215
 2580TIP3    H129299   1.962   4.279   8.724 -0.4077  0.0099  0.1501
 2580TIP3    H229300   1.933   4.423   8.761  0.0140  0.0914  0.1575
 2581TIP3   OH229301   0.444   4.693   7.446  0.0540  0.2800 -0.4320
 2581TIP3    H129302   0.439   4.600   7.470  0.3630  0.6009  0.9922
 2581TIP3    H229303   0.392   4.738   7.514  1.3702  1.2925 -0.0548
 2582TIP3   OH229304   2.951   4.163   0.140 -0.1390 -0.4502 -0.2710
 2582TIP3    H129305   2.880   4.126   0.087  0.0489 -1.6203  0.2572
 2582TIP3    H229306   2.925   4.144   0.230  0.2262  0.2721 -0.0086
 2583TIP3   OH229307   3.063   3.534   1.491  0.1712 -0.3752 -0.0572
 2583TIP3    H129308   2.983   3.564   1.535  0.3734  0.7659 -0.4287
 2583TIP3    H229309   3.079   3.447   1.527 -0.8049 -0.2996  0.6025
 2584TIP3   OH229310   4.166   3.967   7.508 -0.5501 -0.3460  0.1425
 2584TIP3    H129311   4.194   4.049   7.549 -0.0600 -0.7006  0.5355
 2584TIP3    H229312   4.234   3.949   7.443  0.7712 -1.7235  1.7692
 2585TIP3   OH229313   4.061   1.993   0.627  0.4261 -0.0532  0.3459
 2585TIP3    H129314   4.128   1.940   0.585  0.2850 -0.8250  1.0689
 2585TIP3    H229315   4.018   1.933   0.688 -1.7641  0.0522 -0.9921
 2586TIP3   OH229316   5.113   6.542   8.480 -0.0148 -0.4681  0.0993
 2586TIP3    H129317   5.109   6.637   8.472 -1.1112 -0.4025  1.1284
 2586TIP3    H229318   5.071   6.509   8.400 -1.5030 -0.0420  0.6855
 2587TIP3   OH229319   6.282   1.920   8.165  0.2102 -0.3129  0.1743
 2587TIP3    H129320   6.356   1.864   8.141  0.5458  1.0258 -2.2601
 2587TIP3    H229321   6.221   1.911   8.093 -1.1813  0.0338  1.2691
 2588TIP3   OH229322   5.955   1.339   1.013  0.1530  0.0043 -0.1086
 2588TIP3    H129323   5.931   1.394   1.087  0.4167  1.9870 -1.3970
 2588TIP3    H229324   5.872   1.315   0.973  0.0403 -0.4550  0.3904
 2589TIP3   OH229325   0.721   0.712   8.665  0.8791  0.7117 -0.1721
 2589TIP3    H129326   0.688   0.719   8.575 -3.3856  3.3365  1.2548
 2589TIP3    H229327   0.701   0.622   8.691 -0.4857  0.7151 -1.0856
 2590TIP3   OH229328   4.529   6.565   6.976  0.1749  0.0118  0.5522
 2590TIP3    H129329   4.458   6.606   6.927  0.0945  1.3607  1.7471
 2590TIP3    H229330   4.496   6.477   6.996 -0.4093 -0.0159 -0.4404
 2591TIP3   OH229331   1.649   4.815   0.444  0.4090 -0.5529  0.5384
 2591TIP3    H129332   1.631   4.907   0.430 -0.2406 -0.9665 -1.6487
 2591TIP3    H229333   1.592   4.769   0.383  1.8613 -2.3387  0.4197
 2592TIP3   OH229334   5.655   4.949   1.378 -0.2461 -0.3306  0.0131
 2592TIP3    H129335   5.689   4.951   1.289 -1.2354 -2.5034 -0.4974
 2592TIP3    H229336   5.563   4.976   1.369 -0.2936 -0.3538  0.4043
 2593TIP3   OH229337   4.357   5.258   0.596  0.5136  0.0251 -0.2348
 2593TIP3    H129338   4.413   5.253   0.673 -0.2957 -0.0672  0.3584
 2593TIP3    H229339   4.268   5.256   0.631  0.1354  0.5140 -1.1346
 2594TIP3   OH229340   4.320   1.936   1.184 -0.6606  0.3471  0.1657
 2594TIP3    H129341   4.398   1.881   1.183 -1.0867 -0.2557 -0.0470
 2594TIP3    H229342   4.251   1.880   1.219 -1.1799  0.6305 -0.3895
 2595TIP3   OH229343   2.924   1.363   1.454  0.2069  0.5202  0.1884
 2595TIP3    H129344   2.858   1.300   1.483  0.8781 -0.7473 -0.9403
 2595TIP3    H229345   2.875   1.444   1.441 -1.6103 -0.8884 -2.5765
 2596TIP3   OH229346   6.129   5.398   6.855 -0.3709 -0.4955  0.4350
 2596TIP3    H129347   6.179   5.374   6.776  0.3698 -2.0584  1.3260
 2596TIP3    H229348   6.168   5.345   6.924  0.2755  2.2090  2.2902
 2597TIP3   OH229349   2.450   2.120   7.153 -0.6961 -0.2278  0.1583
 2597TIP3    H129350   2.432   2.130   7.059 -3.2498 -0.8366  0.5112
 2597TIP3    H229351   2.441   2.209   7.188  0.7928  0.0924 -0.2212
 2598TIP3   OH229352   0.979   1.584   7.927  0.0966  0.1917  0.5369
 2598TIP3    H129353   0.967   1.527   8.003 -1.2374  0.1017  0.2856
 2598TIP3    H229354   0.961   1.529   7.852  2.3825  0.0144  0.0406
 2599TIP3   OH229355   6.563   2.539   6.851 -0.2375 -0.3770  0.6511
 2599TIP3    H129356   6.527   2.559   6.765 -1.2545 -0.1595  1.1051
 2599TIP3    H229357   6.652   2.510   6.834 -0.0042  0.8319 -0.3705
 2600TIP3   OH229358   5.528   3.345   2.238  0.0966  0.1481 -0.0097
 2600TIP3    H129359   5.592   3.283   2.273 -0.4764  0.1505  1.0968
 2600TIP3    H229360   5.484   3.297   2.168 -1.0784 -1.1145  1.5329
 2601TIP3   OH229361   5.805   6.737   0.121 -0.3181 -0.4110 -0.0423
 2601TIP3    H129362   5.761   6.708   0.041 -0.0749  0.4767 -0.5192
 2601TIP3    H229363   5.873   6.798   0.090 -0.6991  0.5128  0.8756
 2602TIP3   OH229364   5.509   0.969   7.070  0.4243 -0.0035  0.1123
 2602TIP3    H129365   5.484   0.978   7.162 -1.3134 -2.9527  0.0297
 2602TIP3    H229366   5.535   1.058   7.044 -1.7835  1.5283  2.6517
 2603TIP3   OH229367   5.666   3.024   6.931  0.1618 -0.4265  0.3022
 2603TIP3    H129368   5.658   2.957   6.864 -1.1585 -0.5822  0.5963
 2603TIP3    H229369   5.726   3.088   6.893 -0.3719 -0.6226 -0.9327
 2604TIP3   OH229370   5.290   2.019   0.351 -0.2544  0.2696  0.4427
 2604TIP3    H129371   5.220   2.025   0.287 -1.2987 -0.2014  1.4985
 2604TIP3    H229372   5.302   1.925   0.365  0.4341  0.3489  0.4431
 2605TIP3   OH229373   0.327   2.242   7.114 -0.3236  0.0821 -0.2278
 2605TIP3    H129374   0.274   2.267   7.190 -0.6174 -1.4299  0.0925
 2605TIP3    H229375   0.402   2.196   7.152 -0.0621  0.0198 -0.8209
 2606TIP3   OH229376   0.954   0.094   8.318  0.1161  0.3019 -0.4461
 2606TIP3    H129377   0.936   0.008   8.358  0.7004  0.0391 -0.7365
 2606TIP3    H229378   1.020   0.133   8.375 -0.9765  1.0603  0.3421
 2607TIP3   OH229379   3.010   5.307   0.096  0.4958  0.5233  0.6917
 2607TIP3    H129380   3.044   5.256   0.170  0.5556 -0.7397 -0.1786
 2607TIP3    H229381   3.089   5.344   0.055  0.5387  0.4368  0.6958
 2608TIP3   OH229382   5.460   6.571   0.031  0.5324  0.4705  1.2748
 2608TIP3    H129383   5.393   6.520  -0.017  1.1440 -1.1556  2.0605
 2608TIP3    H229384   5.501   6.625  -0.036 -0.1317 -0.0935  0.3811
 2609TIP3   OH229385   4.350   1.712   8.231 -0.6292  0.1663  0.2779
 2609TIP3    H129386   4.285   1.668   8.285  0.3159  1.0014  2.1701
 2609TIP3    H229387   4.299   1.772   8.176 -1.5429 -0.1001  0.8260
 2610TIP3   OH229388   1.442   0.492   0.538  0.2282  0.0128  0.0851
 2610TIP3    H129389   1.472   0.456   0.455  0.3906 -0.6324  0.4119
 2610TIP3    H229390   1.475   0.581   0.539  0.4473 -0.0572 -0.4287
 2611TIP3   OH229391   4.876   2.657   6.501  0.1008 -0.0357 -0.3329
 2611TIP3    H129392   4.809   2.714   6.464 -1.9199 -1.9170  0.1831
 2611TIP3    H229393   4.905   2.603   6.427 -1.0176 -1.0810 -0.0407
 2612TIP3   OH229394   4.614   6.793   2.273  0.1303  0.2065 -0.6688
 2612TIP3    H129395   4.699   6.834   2.289 -0.4472  0.6035  1.8209
 2612TIP3    H229396   4.550   6.856   2.307 -1.0064 -1.1406 -0.1959
 2613TIP3   OH229397   4.107   2.369   7.327  0.0090 -0.1567 -0.6355
 2613TIP3    H129398   4.035   2.428   7.349  0.3447  0.3089 -0.7706
 2613TIP3    H229399   4.107   2.304   7.397 -0.2677  0.0916 -0.4021
 2614TIP3   OH229400   6.106   4.841   2.185 -0.5152 -0.0049  0.1816
 2614TIP3    H129401   6.131   4.750   2.202 -0.0548  0.1227  0.2211
 2614TIP3    H229402   6.034   4.836   2.124  0.6634 -0.3657 -1.2270
 2615TIP3   OH229403   2.240   6.465   6.281 -0.1139  0.1715 -1.1411
 2615TIP3    H129404   2.324   6.420   6.288 -0.2546  0.1458  1.2879
 2615TIP3    H229405   2.175   6.395   6.273 -0.0800  0.0543 -0.4738
 2616TIP3   OH229406   3.414   4.065   7.648 -0.3700 -0.1485 -0.0371
 2616TIP3    H129407   3.427   4.150   7.690 -0.9132  0.4048 -0.9500
 2616TIP3    H229408   3.328   4.037   7.677 -0.7301  0.2171 -0.7354
 2617TIP3   OH229409   6.642   0.140   0.521  0.0287  0.0734  0.2109
 2617TIP3    H129410   6.585   0.074   0.483 -0.4633 -0.1794  1.3297
 2617TIP3    H229411   6.660   0.108   0.610  1.3993  0.4626  0.0986
 2618TIP3   OH229412   4.091   2.742   0.801 -0.3579 -0.3145 -0.2775
 2618TIP3    H129413   4.132   2.686   0.735 -0.3881 -1.0850  0.3420
 2618TIP3    H229414   4.100   2.831   0.766  1.5014 -0.4780 -0.3455
 2619TIP3   OH229415   5.084   1.922   1.536 -0.1013  0.0919  0.0100
 2619TIP3    H129416   5.027   1.999   1.526  0.0504  0.1625 -0.3404
 2619TIP3    H229417   5.172   1.959   1.541 -0.1723  0.0839  1.9781
 2620TIP3   OH229418   0.898   3.210   0.783  0.6939 -0.9631  0.4464
 2620TIP3    H129419   0.816   3.254   0.759  0.7902 -0.8999  0.2366
 2620TIP3    H229420   0.891   3.199   0.878 -0.4749 -2.8315  0.1863
 2621TIP3   OH229421   2.204   4.580   8.647  0.1694  0.0474 -0.3989
 2621TIP3    H129422   2.114   4.590   8.680  0.2859 -0.3497  0.0554
 2621TIP3    H229423   2.206   4.492   8.610  0.9405 -0.8022  1.5069
 2622TIP3   OH229424   0.377   4.681   6.733  0.3133  0.1988 -0.6362
 2622TIP3    H129425   0.409   4.694   6.822 -1.1675  1.1772 -0.2252
 2622TIP3    H229426   0.282   4.678   6.742  0.1142  0.9778 -2.2695
 2623TIP3   OH229427   6.434   1.388   6.295  0.0161  0.6355 -0.2138
 2623TIP3    H129428   6.518   1.348   6.318 -1.4643 -2.2581  0.6281
 2623TIP3    H229429   6.449   1.482   6.304  3.3629  0.3037 -0.9292
 2624TIP3   OH229430   3.122   2.110   6.752 -0.3648  0.0111  0.2287
 2624TIP3    H129431   3.094   2.196   6.782 -0.9782 -0.7051  1.8423
 2624TIP3    H229432   3.097   2.051   6.823 -0.9870 -1.6701 -1.3116
 2625TIP3   OH229433   3.084   5.750   6.732 -0.1866 -0.1922 -0.3094
 2625TIP3    H129434   3.078   5.791   6.819 -0.8745 -0.2215 -0.3316
 2625TIP3    H229435   2.994   5.720   6.714  0.1147 -0.8717 -0.7002
 2626TIP3   OH229436   3.827   2.680   8.639  0.6236  0.0264 -0.9096
 2626TIP3    H129437   3.790   2.593   8.622  1.8327 -0.5012 -0.9063
 2626TIP3    H229438   3.750   2.735   8.656 -0.1413 -1.1270 -0.4746
 2627TIP3   OH229439   2.406   0.985   8.632 -0.1360  0.2017 -0.0766
 2627TIP3    H129440   2.401   1.010   8.540 -2.6387 -2.4543 -0.8286
 2627TIP3    H229441   2.392   0.890   8.631  0.2587  0.0172  3.0290
 2628TIP3   OH229442   1.498   3.000   7.116 -0.1360 -0.6166  0.0339
 2628TIP3    H129443   1.550   3.055   7.057  0.8064 -1.0627  0.4322
 2628TIP3    H229444   1.491   3.051   7.196  0.1468 -0.7710  0.1607
 2629TIP3   OH229445   0.017   2.533   1.038  0.3951  0.4521 -0.0192
 2629TIP3    H129446   0.041   2.581   1.117  0.0214  3.3009 -1.5188
 2629TIP3    H229447  -0.078   2.529   1.041  0.3966  0.2735 -0.2014
 2630TIP3   OH229448   0.906   4.937   6.681  0.6656  0.1135  0.2603
 2630TIP3    H129449   0.829   4.993   6.663  0.6269 -0.1774 -0.5271
 2630TIP3    H229450   0.946   4.925   6.595  0.8268 -0.8517  0.4697
 2631TIP3   OH229451   5.292   1.324   0.834 -0.4844 -0.0498  0.0091
 2631TIP3    H129452   5.349   1.348   0.762  1.0509 -0.6117  0.9936
 2631TIP3    H229453   5.331   1.365   0.911 -1.7772  0.0880  0.6266
 2632TIP3   OH229454   0.384   0.938   0.209  0.1937  1.1271  0.7752
 2632TIP3    H129455   0.376   0.902   0.298  0.6192  0.0657  0.4017
 2632TIP3    H229456   0.476   0.927   0.187  0.3303  2.4534  0.6248
 2633TIP3   OH229457   6.553   2.459   8.005 -0.1644 -0.3594 -0.3001
 2633TIP3    H129458   6.541   2.409   8.085 -0.7680 -0.4916 -0.4648
 2633TIP3    H229459   6.639   2.433   7.972  0.5361  0.4570  0.8326
 2634TIP3   OH229460   6.074   3.818   7.169  0.5705  0.3535 -0.0458
 2634TIP3    H129461   6.142   3.882   7.152 -0.5327  1.5003 -0.3216
 2634TIP3    H229462   6.115   3.733   7.152  2.2738  0.9224  1.0197
 2635TIP3   OH229463   2.502   4.937   6.278 -0.3613 -0.4554 -0.5786
 2635TIP3    H129464   2.511   4.872   6.208  2.2942 -1.7495  0.7994
 2635TIP3    H229465   2.413   4.925   6.311 -0.4326 -2.4017 -1.3418
 2636TIP3   OH229466   6.070   0.308   7.506  0.6625  0.4790 -0.1623
 2636TIP3    H129467   5.987   0.275   7.471  1.4188 -1.3950 -0.2847
 2636TIP3    H229468   6.044   0.372   7.572 -0.9454 -1.0173  0.7451
 2637TIP3   OH229469   5.296   2.354   7.857  0.0537 -0.0511  0.0213
 2637TIP3    H129470   5.212   2.351   7.904 -0.4891 -0.1347 -0.9343
 2637TIP3    H229471   5.278   2.406   7.779  0.7527 -0.5503 -0.4849
 2638TIP3   OH229472   2.192   3.997   8.097 -0.2624  0.0890  0.5485
 2638TIP3    H129473   2.101   3.998   8.124 -0.1317 -1.0208  1.0982
 2638TIP3    H229474   2.241   3.981   8.178  0.6121  2.8375  0.6524
 2639TIP3   OH229475   5.054   0.458   1.757  0.0143 -0.3604  0.4155
 2639TIP3    H129476   5.066   0.415   1.672  1.2933 -0.9099  0.8414
 2639TIP3    H229477   4.986   0.407   1.801 -0.4844 -0.2188 -0.1825
 2640TIP3   OH229478   3.902   6.518   7.732  0.4138 -0.0514 -0.5663
 2640TIP3    H129479   3.878   6.439   7.779  0.8626  0.6021  0.8079
 2640TIP3    H229480   3.934   6.487   7.647 -0.7866 -1.2216 -0.6114
 2641TIP3   OH229481   3.734   0.377   8.097  0.3147  0.0894 -0.9555
 2641TIP3    H129482   3.742   0.464   8.135 -1.1811 -0.2417  0.2053
 2641TIP3    H229483   3.820   0.358   8.060  0.5277  2.2627 -1.7141
 2642TIP3   OH229484   3.203   6.574   7.206 -0.1054  0.3128  0.1779
 2642TIP3    H129485   3.129   6.561   7.265 -0.2082 -0.0617 -0.0235
 2642TIP3    H229486   3.278   6.588   7.264  0.1206 -1.7454  0.4835
 2643TIP3   OH229487   1.142   1.503   1.343 -0.4076  0.2101 -0.0948
 2643TIP3    H129488   1.149   1.475   1.434 -0.0602 -0.4482 -0.3203
 2643TIP3    H229489   1.170   1.427   1.292 -1.1695  0.3684 -0.7689
 2644TIP3   OH229490   1.237   3.263   5.581 -0.2218 -0.0916  0.1149
 2644TIP3    H129491   1.266   3.202   5.649 -0.8536 -0.1704  0.3201
 2644TIP3    H229492   1.142   3.272   5.595 -0.3467 -0.0465 -0.7075
 2645TIP3   OH229493   0.812   5.484   7.482  0.3150 -0.0414  0.6398
 2645TIP3    H129494   0.831   5.439   7.399 -0.5816  0.2650  0.2529
 2645TIP3    H229495   0.865   5.563   7.478  0.7034 -0.2983  0.6145
 2646TIP3   OH229496   2.257   5.089   0.539 -0.3501 -0.1148  0.2883
 2646TIP3    H129497   2.184   5.123   0.590  1.6582  1.7650  2.1067
 2646TIP3    H229498   2.288   5.163   0.488  1.1597 -0.4890  0.6295
 2647TIP3   OH229499   1.817   6.330   7.426 -0.6755 -0.1257 -0.3846
 2647TIP3    H129500   1.862   6.360   7.347 -1.4886  2.8513  0.1379
 2647TIP3    H229501   1.801   6.237   7.412  2.3287 -0.4882 -2.1386
 2648TIP3   OH229502   3.836   0.524   8.599  0.2210  0.1633 -0.0157
 2648TIP3    H129503   3.906   0.585   8.575 -1.7036  2.3659 -0.3943
 2648TIP3    H229504   3.882   0.446   8.629  2.8254  1.4485 -0.3503
 2649TIP3   OH229505   3.155   2.638   6.689  0.1661 -0.0641 -0.0768
 2649TIP3    H129506   3.154   2.546   6.662 -0.7373 -0.2132  0.4275
 2649TIP3    H229507   3.209   2.638   6.769 -0.5443 -0.3121  0.4141
 2650TIP3   OH229508   6.610   5.436   0.905 -0.5989  0.0881  0.4069
 2650TIP3    H129509   6.649   5.443   0.818 -2.0370  1.4407 -0.1793
 2650TIP3    H229510   6.663   5.495   0.960 -2.3941  2.8976 -0.6570
 2651TIP3   OH229511   4.108   1.205   6.861  0.0039  0.0471  0.3020
 2651TIP3    H129512   4.053   1.127   6.869  0.2553 -0.2100 -0.4156
 2651TIP3    H229513   4.084   1.259   6.937 -1.3172 -0.0114 -0.0371
 2652TIP3   OH229514   4.215   5.305   7.149 -0.3160 -0.1014 -0.2621
 2652TIP3    H129515   4.309   5.294   7.164 -0.0973  1.0685 -0.6677
 2652TIP3    H229516   4.174   5.258   7.222  0.5684 -0.8722 -0.2427
 2653TIP3   OH229517   3.317   0.771   6.614  0.3750 -0.1640  0.4938
 2653TIP3    H129518   3.287   0.725   6.693  2.2376 -0.7949  0.8841
 2653TIP3    H229519   3.353   0.702   6.559 -0.7506  0.2931 -0.8836
 2654TIP3   OH229520   1.739   1.736   1.215 -0.4874 -0.0264 -0.0117
 2654TIP3    H129521   1.797   1.741   1.291  0.3282  0.7801 -0.6511
 2654TIP3    H229522   1.657   1.775   1.244 -0.3650 -0.2079  0.5992
 2655TIP3   OH229523   2.202   2.552   1.134  0.1699 -0.1189  0.3033
 2655TIP3    H129524   2.244   2.513   1.057 -0.9510 -0.5484 -0.1072
 2655TIP3    H229525   2.249   2.514   1.208  1.8696  0.9695 -0.1319
 2656TIP3   OH229526   5.917   4.373   0.704  0.4151 -0.0555 -0.1796
 2656TIP3    H129527   5.861   4.421   0.642  0.2575  2.1310  1.5158
 2656TIP3    H229528   5.871   4.291   0.721  0.1925 -0.4566 -2.4686
 2657TIP3   OH229529   3.746   2.791   2.321  0.6517  0.2447  0.2826
 2657TIP3    H129530   3.741   2.729   2.395 -1.5387  0.6377  0.5379
 2657TIP3    H229531   3.769   2.736   2.246 -3.0553 -1.3860  0.1154
 2658TIP3   OH229532   0.286   3.297   6.962 -0.0830  0.3593 -0.3812
 2658TIP3    H129533   0.302   3.341   6.878  1.6180  1.3787  0.4292
 2658TIP3    H229534   0.217   3.234   6.943 -1.3956  2.1856 -1.9895
 2659TIP3   OH229535   4.952   5.921   0.999 -0.6334 -0.1190 -0.6953
 2659TIP3    H129536   4.903   5.912   0.917 -2.1703 -2.6779  0.3724
 2659TIP3    H229537   4.925   6.006   1.034 -2.5229 -0.4317 -1.2979
 2660TIP3   OH229538   3.700   5.203   0.261  0.3337  0.3475  0.7644
 2660TIP3    H129539   3.625   5.261   0.276 -1.1944 -1.0159 -1.1391
 2660TIP3    H229540   3.714   5.160   0.345 -1.4029  0.2391  1.0437
 2661TIP3   OH229541   1.889   6.782   0.300 -0.8909  0.3419 -0.0408
 2661TIP3    H129542   1.923   6.699   0.333 -1.4401 -0.2417 -0.8870
 2661TIP3    H229543   1.887   6.770   0.205 -1.8799  0.9681 -0.1111
 2662TIP3   OH229544   4.555   5.091   8.666  0.1933 -0.7297 -0.2726
 2662TIP3    H129545   4.639   5.136   8.677 -0.1434 -0.6669  3.0609
 2662TIP3    H229546   4.577   4.998   8.669  0.2175 -0.7124  0.4069
 2663TIP3   OH229547   1.901   1.377   7.539  0.2947  0.3937  0.3437
 2663TIP3    H129548   1.931   1.363   7.449  0.2097  0.2448  0.3375
 2663TIP3    H229549   1.807   1.361   7.536 -0.3601  3.6144 -0.2294
 2664TIP3   OH229550   3.140   4.916   1.389  0.5709  0.1110 -0.2466
 2664TIP3    H129551   3.063   4.961   1.424 -0.1621 -0.5532 -0.9615
 2664TIP3    H229552   3.135   4.828   1.427  0.4221 -0.2422 -1.0594
 2665TIP3   OH229553   2.473   4.562   0.992 -0.0960  0.0620  0.1407
 2665TIP3    H129554   2.462   4.622   0.918  0.4660  1.3318  1.0769
 2665TIP3    H229555   2.567   4.551   1.000 -0.1663 -0.2806  0.5142
 2666TIP3   OH229556   5.492   0.338   6.740 -0.4504 -0.1802 -0.7824
 2666TIP3    H129557   5.456   0.405   6.798  2.5300  0.5185  0.4474
 2666TIP3    H229558   5.470   0.367   6.652 -1.3139  1.0788 -0.1730
 2667TIP3   OH229559   1.255   3.595   7.760  0.1717  0.2155 -0.2144
 2667TIP3    H129560   1.174   3.643   7.747  0.3384  1.2060  1.9663
 2667TIP3    H229561   1.261   3.536   7.685 -3.3063 -0.9717  0.2799
 2668TIP3   OH229562   3.317   6.690   0.277 -0.2583 -0.2730  0.8236
 2668TIP3    H129563   3.320   6.621   0.344 -1.6320 -1.9201 -0.6969
 2668TIP3    H229564   3.259   6.655   0.210 -1.7582  2.7783  0.3667
 2669TIP3   OH229565   1.512   0.860   6.646 -0.4918 -0.0179 -0.0858
 2669TIP3    H129566   1.462   0.805   6.585 -0.9695 -0.1128  0.3779
 2669TIP3    H229567   1.603   0.851   6.618 -0.5801 -0.9137 -0.1233
 2670TIP3   OH229568   1.523   5.246   1.701 -0.2199  0.3226  0.4470
 2670TIP3    H129569   1.520   5.174   1.638 -0.2207  0.0275  0.7870
 2670TIP3    H229570   1.471   5.216   1.775  1.8233 -0.3631  1.6665
 2671TIP3   OH229571   4.088   3.996   0.188 -0.2271 -0.2202 -0.1254
 2671TIP3    H129572   4.064   4.002   0.095  0.1328 -0.4601 -0.2348
 2671TIP3    H229573   4.180   4.021   0.191  0.0637 -1.2582  0.0160
 2672TIP3   OH229574   4.850   6.182   8.207  0.3344  0.8109 -0.3950
 2672TIP3    H129575   4.805   6.106   8.244  1.5575  0.1243 -0.2622
 2672TIP3    H229576   4.793   6.213   8.137  0.4058 -1.0216 -1.3163
 2673TIP3   OH229577   0.307   5.747   7.166 -0.1884 -0.0907  0.5202
 2673TIP3    H129578   0.348   5.663   7.144  0.0357  0.0016  0.5856
 2673TIP3    H229579   0.311   5.752   7.261 -2.4930 -1.1781  0.7384
 2674TIP3   OH229580   5.390   5.435   0.066 -0.5651  0.6420 -0.0436
 2674TIP3    H129581   5.297   5.451   0.082 -0.6212 -1.1726  1.8118
 2674TIP3    H229582   5.428   5.425   0.153  0.7224 -1.7615 -0.7769
 2675TIP3   OH229583   3.578   4.819   8.382 -0.3513 -0.2361  0.2468
 2675TIP3    H129584   3.555   4.781   8.297 -0.1571 -0.6690  0.3836
 2675TIP3    H229585   3.634   4.894   8.361 -0.0924 -0.4964 -0.0011
 2676TIP3   OH229586   1.177   1.877   8.589  0.0852  0.2057 -0.0291
 2676TIP3    H129587   1.087   1.843   8.587 -0.6992  2.1095  0.3145
 2676TIP3    H229588   1.222   1.831   8.519 -1.6481  0.3768 -1.3181
 2677TIP3   OH229589   5.783   4.534   8.521  0.2107 -0.0791  0.5015
 2677TIP3    H129590   5.790   4.586   8.602 -0.5601 -0.5096  0.8566
 2677TIP3    H229591   5.714   4.576   8.471 -0.3466 -0.6818  0.7431
 2678TIP3   OH229592   1.177   5.142   7.216 -0.0982  0.0286  0.7623
 2678TIP3    H129593   1.131   5.221   7.188 -0.3040 -0.2029  0.4427
 2678TIP3    H229594   1.127   5.110   7.291 -1.1075 -0.8123 -0.2231
 2679TIP3   OH229595   6.630   4.515   1.231  0.4701  0.2441  0.1402
 2679TIP3    H129596   6.603   4.466   1.309  0.8941  2.0577  1.4904
 2679TIP3    H229597   6.550   4.524   1.179  0.0302 -0.3965  0.6882
 2680TIP3   OH229598   2.919   0.572   8.807 -0.5395  0.2654 -0.2589
 2680TIP3    H129599   2.987   0.626   8.846  0.6755 -0.3757 -1.4095
 2680TIP3    H229600   2.926   0.588   8.713 -2.8486  1.1547 -0.3547
 2681TIP3   OH229601   2.315   4.175   0.782  0.6918  0.3409  0.4515
 2681TIP3    H129602   2.233   4.225   0.789 -1.3521 -2.8680  2.1502
 2681TIP3    H229603   2.362   4.196   0.863  0.5846  0.6704  0.4313
 2682TIP3   OH229604   1.074   2.381   7.859 -0.8953 -0.0194  0.2238
 2682TIP3    H129605   1.111   2.391   7.771 -0.0204 -0.4682  0.5238
 2682TIP3    H229606   0.981   2.367   7.844 -0.7576 -0.1064 -0.6349
 2683TIP3   OH229607   3.138   1.990   7.026  0.3137  0.3686  0.2387
 2683TIP3    H129608   3.208   1.987   7.091  0.7086  2.8961  0.0358
 2683TIP3    H229609   3.161   1.921   6.963  1.7725  0.1237  0.9946
 2684TIP3   OH229610   5.485   4.640   0.713 -0.5352 -0.1988 -0.2302
 2684TIP3    H129611   5.524   4.554   0.731 -0.3367 -0.1276 -0.3169
 2684TIP3    H229612   5.470   4.679   0.799 -2.6063 -1.1944 -0.0832
 2685TIP3   OH229613   5.078   3.368   0.979  0.2893  0.0136 -0.0421
 2685TIP3    H129614   5.035   3.284   0.996 -0.0737  0.1414 -0.3167
 2685TIP3    H229615   5.033   3.431   1.035 -2.3182  0.8504 -2.8335
 2686TIP3   OH229616   3.054   1.127   1.623  0.1585  0.0714  0.1288
 2686TIP3    H129617   3.001   1.182   1.681 -0.5586  1.0194 -1.3701
 2686TIP3    H229618   3.123   1.185   1.591 -0.6526  0.1695 -1.5365
 2687TIP3   OH229619   5.209   4.478   8.676 -0.0739 -0.1814 -0.0277
 2687TIP3    H129620   5.292   4.438   8.648  0.3923 -0.8912  2.1925
 2687TIP3    H229621   5.235   4.563   8.712 -0.5009  0.1763 -0.5504
 2688TIP3   OH229622   4.144   1.895   8.167 -0.1001 -0.0892 -0.4009
 2688TIP3    H129623   4.098   1.884   8.250  2.2378 -0.9320  0.8845
 2688TIP3    H229624   4.084   1.946   8.113 -1.2058  1.6513  2.2454
 2689TIP3   OH229625   1.040   0.428   0.339 -0.5890  0.2369 -0.5197
 2689TIP3    H129626   1.033   0.477   0.257 -0.2345  1.3795  0.1057
 2689TIP3    H229627   1.134   0.426   0.357 -0.7529  1.2117  0.5494
 2690TIP3   OH229628   0.473   0.248   8.169  0.2010  0.1523 -0.2772
 2690TIP3    H129629   0.412   0.206   8.230 -1.6441  2.3611 -0.4980
 2690TIP3    H229630   0.481   0.185   8.097 -0.8122 -0.7298  0.3484
 2691TIP3   OH229631   1.153   1.913   0.090  0.1881 -0.3797 -0.1526
 2691TIP3    H129632   1.187   1.913   0.001 -0.7142 -0.1766 -0.5024
 2691TIP3    H229633   1.228   1.940   0.144  0.4267  0.6573 -0.9674
 2692TIP3   OH229634   5.525   2.343   7.000 -0.7359  0.1997 -0.0532
 2692TIP3    H129635   5.429   2.350   7.001 -0.6639  1.4666  1.0066
 2692TIP3    H229636   5.549   2.371   6.911 -1.3903 -1.4074 -0.7765
 2693TIP3   OH229637   4.262   0.308   8.628 -0.3474  0.7310 -0.1251
 2693TIP3    H129638   4.300   0.373   8.568  1.4886 -0.7048 -0.6168
 2693TIP3    H229639   4.306   0.226   8.605 -0.1829 -0.0412  2.6414
 2694TIP3   OH229640   3.347   6.610   0.868 -0.3207  0.1365 -0.1957
 2694TIP3    H129641   3.333   6.527   0.823 -0.7756  0.7615 -1.2350
 2694TIP3    H229642   3.311   6.676   0.809 -0.2171  1.0543  0.7371
 2695TIP3   OH229643   4.152   6.437   6.515  0.0624  0.5933  0.2490
 2695TIP3    H129644   4.151   6.524   6.557  0.7899  0.5721  0.3229
 2695TIP3    H229645   4.238   6.432   6.473  0.5559 -0.5929  1.3258
 2696TIP3   OH229646   5.221   5.254   0.339 -0.2544  0.1738  0.1279
 2696TIP3    H129647   5.159   5.263   0.412  1.4819 -1.6135  1.9727
 2696TIP3    H229648   5.281   5.327   0.351  1.0109 -1.0254  1.6376
 2697TIP3   OH229649   0.326   3.563   8.045  0.2673 -0.1380 -0.7775
 2697TIP3    H129650   0.235   3.592   8.049  1.1161  2.9949 -1.2605
 2697TIP3    H229651   0.331   3.506   7.968 -0.9232  1.2434 -1.9203
 2698TIP3   OH229652   6.598   1.379   1.333 -0.2627 -0.6136 -0.1092
 2698TIP3    H129653   6.643   1.414   1.410 -2.4707 -0.6081  1.2812
 2698TIP3    H229654   6.619   1.440   1.263  3.9492 -1.9785 -0.3249
 2699TIP3   OH229655   6.518   5.175   0.861 -0.6892 -0.9357 -0.5935
 2699TIP3    H129656   6.446   5.191   0.799 -1.4264 -0.6790  0.3044
 2699TIP3    H229657   6.546   5.262   0.889 -0.1145 -1.0398 -0.8250
 2700TIP3   OH229658   5.949   4.158   6.753 -0.6644  0.2754 -0.0792
 2700TIP3    H129659   6.041   4.170   6.731 -0.4080 -0.4719  0.5273
 2700TIP3    H229660   5.912   4.112   6.677 -0.3500 -0.1091 -0.0079
 2701TIP3   OH229661   0.516   3.703   7.408  0.0353  0.1898  0.4998
 2701TIP3    H129662   0.436   3.715   7.460 -0.9911 -1.1341 -0.6752
 2701TIP3    H229663   0.553   3.620   7.440 -0.2986 -0.3446 -0.4396
 2702TIP3   OH229664   0.032   6.457   0.651  0.4045 -0.3377 -0.4066
 2702TIP3    H129665  -0.063   6.443   0.655  0.0985  0.8345 -2.3638
 2702TIP3    H229666   0.061   6.450   0.742 -1.5317 -0.8043  0.2258
 2703TIP3   OH229667   0.235   1.447   8.675  0.1190  0.0906 -0.3626
 2703TIP3    H129668   0.235   1.447   8.579  0.0939  1.6175 -0.3863
 2703TIP3    H229669   0.181   1.371   8.698  0.8276 -0.8069 -1.5316
 2704TIP3   OH229670   3.351   4.424   0.228  0.3268 -0.3657 -0.1453
 2704TIP3    H129671   3.272   4.466   0.195 -0.1705  1.9095  3.3092
 2704TIP3    H229672   3.322   4.339   0.262 -0.2233 -0.3678 -0.6169
 2705TIP3   OH229673   4.561   4.557   8.450 -0.0307  0.1686  0.2740
 2705TIP3    H129674   4.533   4.646   8.429  0.1556 -0.2942 -2.2437
 2705TIP3    H229675   4.494   4.524   8.510 -1.9043  0.9413 -1.2823
 2706TIP3   OH229676   1.901   3.147   7.112  0.0467 -0.4099 -0.4065
 2706TIP3    H129677   1.866   3.219   7.164 -0.8965 -0.2603 -1.2222
 2706TIP3    H229678   1.861   3.068   7.149 -2.2576 -0.1468 -2.1123
 2707TIP3   OH229679   3.596   4.642   8.159  0.2165 -0.4063 -0.1374
 2707TIP3    H129680   3.521   4.582   8.153  0.1018 -0.3876  0.8623
 2707TIP3    H229681   3.673   4.585   8.156  0.1114 -0.6022  0.6488
 2708TIP3   OH229682   5.155   1.098   7.823  0.1897 -0.5672 -0.1740
 2708TIP3    H129683   5.138   1.074   7.914  1.1666 -1.1350 -0.1279
 2708TIP3    H229684   5.068   1.116   7.786 -0.2772 -1.0158  0.6775
 2709TIP3   OH229685   0.713   2.484   7.919 -0.4018  0.2330 -0.0140
 2709TIP3    H129686   0.632   2.530   7.944  0.4265  1.0030  1.3997
 2709TIP3    H229687   0.751   2.457   8.002 -0.3247 -2.1500 -0.7744
 2710TIP3   OH229688   5.612   3.654   7.186  0.4009  0.2059 -0.5844
 2710TIP3    H129689   5.632   3.745   7.165  2.1310 -0.2199 -0.9068
 2710TIP3    H229690   5.597   3.612   7.102 -1.3411  0.3569 -0.3918
 2711TIP3   OH229691   5.657   6.222   7.568  0.4000  0.0686 -0.1076
 2711TIP3    H129692   5.619   6.256   7.487  0.0320 -1.0501 -0.4124
 2711TIP3    H229693   5.615   6.137   7.581  0.6679  0.0977  1.1051
 2712TIP3   OH229694   2.547   4.664   7.696  0.5094  0.3449 -0.2759
 2712TIP3    H129695   2.526   4.656   7.789  1.0449  0.3263 -0.1543
 2712TIP3    H229696   2.635   4.702   7.694  2.2233 -3.2101 -0.6674
 2713TIP3   OH229697   2.212   4.238   1.921  0.3905 -0.4757 -0.2663
 2713TIP3    H129698   2.185   4.154   1.958  2.2635 -0.6678  0.7692
 2713TIP3    H229699   2.305   4.227   1.900  0.6523  1.2966 -0.2062
 2714TIP3   OH229700   2.365   0.303   8.451  0.7153 -0.1127 -0.3740
 2714TIP3    H129701   2.339   0.327   8.540  1.9914  0.4680 -0.1382
 2714TIP3    H229702   2.458   0.324   8.447  1.0942 -1.8533 -1.2700
 2715TIP3   OH229703   3.612   5.439   8.701 -0.3734 -0.2051 -0.6092
 2715TIP3    H129704   3.560   5.517   8.684  0.0045 -0.4550 -3.3033
 2715TIP3    H229705   3.565   5.368   8.657  0.0224 -1.2443  0.5937
 2716TIP3   OH229706   6.641   4.095   1.478 -0.3116 -0.2949 -0.2430
 2716TIP3    H129707   6.605   4.006   1.477 -0.0494 -0.4224  0.6859
 2716TIP3    H229708   6.729   4.085   1.516  0.9652 -0.0646 -2.8880
 2717TIP3   OH229709   1.708   1.700   8.241  0.0248 -0.5251 -0.5348
 2717TIP3    H129710   1.750   1.719   8.326 -1.2226  0.5519 -0.1363
 2717TIP3    H229711   1.716   1.781   8.192 -0.2669 -0.7909 -1.0208
 2718TIP3   OH229712   3.604   5.951   0.607  0.0230 -0.3347 -0.3582
 2718TIP3    H129713   3.606   5.964   0.513 -1.1804  1.9127 -0.1382
 2718TIP3    H229714   3.642   6.031   0.643 -1.1819 -0.3730  1.0861
 2719TIP3   OH229715   5.067   0.174   1.249 -0.1290 -0.1135 -0.3247
 2719TIP3    H129716   5.031   0.247   1.199 -0.9167  0.3423  0.8564
 2719TIP3    H229717   5.043   0.096   1.200 -0.2631  0.3557 -1.0137
 2720TIP3   OH229718   5.304   5.776   0.682 -0.2522  0.3734 -0.4689
 2720TIP3    H129719   5.218   5.813   0.662  0.1400  1.8335  0.4030
 2720TIP3    H229720   5.366   5.840   0.649  0.4793 -0.1129 -0.0675
 2721TIP3   OH229721   2.632   0.218   1.195 -0.3217 -0.0638  0.0649
 2721TIP3    H129722   2.541   0.237   1.218 -0.7850 -0.6270 -1.2125
 2721TIP3    H229723   2.630   0.129   1.161  0.6341  0.0754 -0.3931
 2722TIP3   OH229724   4.044   5.239   6.905  0.2665 -0.0110  0.2720
 2722TIP3    H129725   4.096   5.268   6.981  0.2642 -0.5143  0.4679
 2722TIP3    H229726   3.998   5.318   6.876  0.4404  0.2346  0.6564
 2723TIP3   OH229727   2.406   4.571   7.936 -0.3919 -0.2881  0.0778
 2723TIP3    H129728   2.480   4.514   7.918 -0.0257  0.7749 -2.2236
 2723TIP3    H229729   2.333   4.511   7.954  0.2964 -1.4446 -0.8547
 2724TIP3   OH229730   4.850   3.713   6.626  0.4021  0.2833 -0.1600
 2724TIP3    H129731   4.857   3.808   6.635  0.4268  0.1994  0.8987
 2724TIP3    H229732   4.791   3.686   6.696 -1.6781 -0.2405 -2.0195
 2725TIP3   OH229733   0.404   0.173   8.561 -0.0933 -0.4951 -0.4280
 2725TIP3    H129734   0.472   0.216   8.612  0.8392 -1.1833 -1.0707
 2725TIP3    H229735   0.325   0.225   8.578  0.5530  0.2460  0.4058
 2726TIP3   OH229736   3.200   2.554   1.660  0.1733 -0.6690 -0.6855
 2726TIP3    H129737   3.142   2.627   1.682  1.5570  0.1544  0.4893
 2726TIP3    H229738   3.168   2.481   1.713 -1.1269 -0.9019 -1.7462
 2727TIP3   OH229739   1.552   5.714   8.604  0.7625 -0.0653 -0.4308
 2727TIP3    H129740   1.501   5.705   8.685  0.6401  0.3403 -0.4600
 2727TIP3    H229741   1.633   5.666   8.622  1.6370  1.6921  0.7096
 2728TIP3   OH229742   1.759   0.469   7.955  0.4224 -0.2773 -0.4609
 2728TIP3    H129743   1.722   0.556   7.968  2.6718  0.5828  0.8222
 2728TIP3    H229744   1.841   0.471   8.004  0.2975 -3.3122  0.0729
 2729TIP3   OH229745   5.162   0.025   8.411 -0.2226  0.1772 -0.4657
 2729TIP3    H129746   5.222   0.033   8.337  0.4006 -1.4297 -0.1913
 2729TIP3    H229747   5.202   0.078   8.480  0.4612 -0.2044 -0.5550
 2730TIP3   OH229748   0.732   5.432   8.314  0.8226 -0.0099  0.3046
 2730TIP3    H129749   0.799   5.373   8.281  2.2950  0.6711  1.9587
 2730TIP3    H229750   0.685   5.380   8.380 -0.6078 -0.6149 -1.1208
 2731TIP3   OH229751   6.133   4.718   0.211  0.5808  0.0962  0.3203
 2731TIP3    H129752   6.058   4.697   0.267  0.1965 -0.6392 -0.4548
 2731TIP3    H229753   6.117   4.808   0.183  1.0982  0.7030  1.8684
 2732TIP3   OH229754   1.333   4.005   6.700  0.4101  0.7382  0.4763
 2732TIP3    H129755   1.240   4.010   6.720  0.2426 -0.8977  0.1888
 2732TIP3    H229756   1.376   3.994   6.785  0.4159  2.1083  0.6696
 2733TIP3   OH229757   5.970   5.350   6.625 -0.1695 -0.1118 -0.1845
 2733TIP3    H129758   5.931   5.390   6.548  1.7449  0.8248 -0.7266
 2733TIP3    H229759   5.905   5.363   6.695 -0.9781  0.9894 -1.1129
 2734TIP3   OH229760   6.191   6.002   7.239 -0.4258  0.5143  0.2202
 2734TIP3    H129761   6.218   5.912   7.219 -0.6443  0.8678 -1.8399
 2734TIP3    H229762   6.225   6.017   7.328  0.9795 -1.0652  0.0183
 2735TIP3   OH229763   6.195   0.052   8.558 -0.7451  0.3833 -0.3292
 2735TIP3    H129764   6.231   0.062   8.470  0.9186  1.1267  0.3907
 2735TIP3    H229765   6.157  -0.036   8.558  0.8670 -0.3652 -1.2520
 2736TIP3   OH229766   1.857   5.914   6.590  0.1993  0.1476 -0.3886
 2736TIP3    H129767   1.884   5.895   6.500  2.6962 -2.2152  0.6903
 2736TIP3    H229768   1.882   6.005   6.604 -1.3727  0.9537 -2.3969
 2737TIP3   OH229769   6.681   0.694   8.325  0.0577 -0.3154 -0.2081
 2737TIP3    H129770   6.657   0.622   8.384 -0.2289 -0.4569 -0.4970
 2737TIP3    H229771   6.646   0.772   8.369 -0.1022 -0.4140 -0.1557
 2738TIP3   OH229772   1.338   0.490   0.822  0.1633 -0.6957  0.7162
 2738TIP3    H129773   1.361   0.478   0.730 -0.0822 -1.1266  0.7101
 2738TIP3    H229774   1.269   0.557   0.820  0.7322 -0.1076  0.6568
 2739TIP3   OH229775   1.504   4.702   7.750 -0.4792  0.2514 -0.5543
 2739TIP3    H129776   1.572   4.760   7.783 -1.8773  1.2243  0.6918
 2739TIP3    H229777   1.503   4.719   7.655 -2.4460  4.1855 -0.0468
 2740TIP3   OH229778   1.337   2.959   6.295 -0.1459 -0.0015  0.1941
 2740TIP3    H129779   1.393   2.972   6.218  2.0713  1.8345  1.9630
 2740TIP3    H229780   1.387   2.996   6.368 -2.8474 -0.1145  2.2819
 2741TIP3   OH229781   0.854   2.613   6.361  0.4648  0.8131  0.5529
 2741TIP3    H129782   0.817   2.672   6.296 -0.3853 -1.9275 -1.6172
 2741TIP3    H229783   0.787   2.546   6.374  2.6025 -1.4855  0.4110
 2742TIP3   OH229784   2.624   1.784   6.649 -0.1317  0.0067 -0.1242
 2742TIP3    H129785   2.711   1.748   6.667 -0.3355 -0.3071  0.2623
 2742TIP3    H229786   2.637   1.844   6.576  0.3164 -0.4396 -0.4156
 2743TIP3   OH229787   3.696   0.867   6.004 -0.3872  0.0733  0.1250
 2743TIP3    H129788   3.628   0.932   5.982 -1.0996 -0.1357  1.6114
 2743TIP3    H229789   3.777   0.917   6.003 -0.7344  0.6540 -0.2245
 2744TIP3   OH229790   4.885   2.368   0.418 -0.1649 -0.3104  0.0630
 2744TIP3    H129791   4.972   2.345   0.451 -0.4507 -0.7946  0.5041
 2744TIP3    H229792   4.895   2.371   0.323  0.3028 -0.5008  0.1024
 2745TIP3   OH229793   3.154   4.122   0.969  0.1606 -0.6065  0.0565
 2745TIP3    H129794   3.192   4.114   0.882  0.3948  1.6193 -0.0990
 2745TIP3    H229795   3.093   4.048   0.975  0.0645 -0.7667 -2.0354
 2746TIP3   OH229796   2.464   1.242   1.165 -0.3443  0.1187 -0.5331
 2746TIP3    H129797   2.537   1.289   1.205  1.0435 -0.4916 -2.1720
 2746TIP3    H229798   2.495   1.151   1.159 -1.7923 -0.4351 -0.0818
 2747TIP3   OH229799   2.808   4.443   0.995  0.0624  0.0112 -0.1020
 2747TIP3    H129800   2.741   4.401   1.048  0.2073 -0.8780 -0.6161
 2747TIP3    H229801   2.861   4.491   1.058 -1.0129  0.6902  0.3208
 2748TIP3   OH229802   4.090   1.059   7.898  0.3791  1.1045  0.0622
 2748TIP3    H129803   4.087   1.126   7.829  0.6962  0.7896 -0.2655
 2748TIP3    H229804   4.079   1.108   7.979  1.8121  1.7244 -0.0779
 2749TIP3   OH229805   0.110   4.855   0.740 -0.2707  0.0234 -0.1909
 2749TIP3    H129806   0.076   4.772   0.706 -0.7292 -0.2026  0.7917
 2749TIP3    H229807   0.058   4.872   0.818  1.7785 -0.2804  1.3116
 2750TIP3   OH229808   1.683   0.731   7.937 -0.3178  0.0242  0.3756
 2750TIP3    H129809   1.761   0.786   7.943  1.8485 -2.8628  0.5183
 2750TIP3    H229810   1.625   0.765   8.006  2.6987 -0.4182  3.4280
 2751TIP3   OH229811   1.786   3.595   1.193 -0.1115  0.8759 -0.3530
 2751TIP3    H129812   1.829   3.656   1.252 -0.0437 -0.0230  0.5513
 2751TIP3    H229813   1.692   3.611   1.205 -0.0792  2.2142 -1.6606
 2752TIP3   OH229814   6.399   6.437   8.759 -0.0540 -0.4355 -0.0210
 2752TIP3    H129815   6.397   6.360   8.814 -1.7460 -0.2720  0.2016
 2752TIP3    H229816   6.307   6.461   8.747  0.2289 -0.3246 -2.7071
 2753TIP3   OH229817   0.212   0.416   0.017 -0.1493 -0.3508 -0.0100
 2753TIP3    H129818   0.240   0.472   0.089 -1.2442 -1.0848  1.0199
 2753TIP3    H229819   0.215   0.327   0.054  1.4626 -0.9981 -1.5653
 2754TIP3   OH229820   1.621   6.666   6.676 -0.0946 -0.1390 -0.0819
 2754TIP3    H129821   1.707   6.641   6.639  0.7956  2.4046  0.1091
 2754TIP3    H229822   1.560   6.652   6.604  0.3775 -2.1489 -0.1821
 2755TIP3   OH229823   2.815   3.254   6.171  0.0319 -0.4956 -0.1896
 2755TIP3    H129824   2.896   3.203   6.164 -0.0346 -0.4137 -2.4168
 2755TIP3    H229825   2.786   3.242   6.261  1.5044 -2.1116  0.1182
 2756TIP3   OH229826   2.052   0.516   8.072 -0.4112 -0.6984 -0.0013
 2756TIP3    H129827   2.079   0.607   8.082 -1.5467 -0.1852 -1.3198
 2756TIP3    H229828   2.111   0.467   8.129  1.7567  0.5942 -1.0131
 2757TIP3   OH229829   1.102   3.383   7.125  0.0672 -0.5500 -0.1554
 2757TIP3    H129830   1.111   3.390   7.030 -0.1736  1.6258 -0.0673
 2757TIP3    H229831   1.192   3.388   7.158  0.0087  1.1055 -0.1869
 2758TIP3   OH229832   6.464   0.580   0.956  0.4280  0.3101  0.3697
 2758TIP3    H129833   6.391   0.525   0.928 -0.3527  0.4059  2.0885
 2758TIP3    H229834   6.474   0.645   0.886 -0.6947 -0.1107 -0.2058
 2759TIP3   OH229835   1.446   1.472   8.557 -0.0849 -0.2066 -0.2404
 2759TIP3    H129836   1.446   1.538   8.487 -0.9100  1.9128  1.6396
 2759TIP3    H229837   1.362   1.485   8.601  0.4135 -1.5028  1.1446
 2760TIP3   OH229838   4.596   2.724   1.081 -0.1371 -0.0781  0.8238
 2760TIP3    H129839   4.660   2.715   1.011  0.2912 -2.0375  1.3964
 2760TIP3    H229840   4.649   2.734   1.161 -0.4959 -1.3217  1.2499
 2761TIP3   OH229841   0.979   6.700   8.553  0.3761 -0.5035 -0.3624
 2761TIP3    H129842   0.929   6.653   8.487  2.7683 -0.2632 -2.5116
 2761TIP3    H229843   1.022   6.632   8.603  0.3442 -0.6671 -0.5570
 2762TIP3   OH229844   5.104   0.226   7.770 -0.1525  0.3601  0.2423
 2762TIP3    H129845   5.134   0.236   7.679 -0.8112 -1.7804 -0.2641
 2762TIP3    H229846   5.153   0.152   7.804 -1.7543 -0.4936  0.7783
 2763TIP3   OH229847   2.919   2.913   8.819 -0.5148  0.0773  0.0866
 2763TIP3    H129848   2.855   2.841   8.818 -1.4411  0.8295  1.6344
 2763TIP3    H229849   2.867   2.992   8.815  0.2633  0.7182  1.6060
 2764TIP3   OH229850   3.864   4.217   8.232 -0.1869 -0.0487  0.2149
 2764TIP3    H129851   3.855   4.303   8.273  0.2286 -0.2115  0.6716
 2764TIP3    H229852   3.926   4.230   8.161 -1.1489  0.3016 -0.5743
 2765TIP3   OH229853   3.710   6.033   7.156 -0.5208  0.0250 -0.1479
 2765TIP3    H129854   3.753   5.994   7.080 -0.1311  0.1878 -0.0129
 2765TIP3    H229855   3.767   6.013   7.229  0.7721  2.5264 -0.3533
 2766TIP3   OH229856   4.848   4.785   8.148 -0.4161  0.8968 -0.4970
 2766TIP3    H129857   4.841   4.783   8.053 -0.9774 -1.0304 -0.4633
 2766TIP3    H229858   4.801   4.706   8.177 -2.5146  2.7489  1.5242
 2767TIP3   OH229859   5.178   6.415   0.639  0.0936 -0.2374 -0.0924
 2767TIP3    H129860   5.127   6.440   0.562  1.8431  1.6498 -0.7306
 2767TIP3    H229861   5.169   6.490   0.699  1.5163 -0.1522  0.0548
 2768TIP3   OH229862   4.983   4.253   7.846  0.2457  0.6305 -0.0162
 2768TIP3    H129863   4.895   4.290   7.851  0.1412  0.2596  1.6843
 2768TIP3    H229864   5.041   4.328   7.849 -0.0008  0.8048  0.4510
 2769TIP3   OH229865   5.055   3.202   5.965  0.0518  1.0251 -0.0640
 2769TIP3    H129866   4.975   3.167   5.926  2.1399 -1.6788 -2.3026
 2769TIP3    H229867   5.079   3.138   6.032  1.4353  0.5473 -0.9553
 2770TIP3   OH229868   4.481   2.126   1.308  0.2522 -0.0037 -0.1889
 2770TIP3    H129869   4.436   2.059   1.257 -0.2665 -1.0668  1.5877
 2770TIP3    H229870   4.574   2.105   1.300  0.0965 -0.9598  0.3338
 2771TIP3   OH229871   3.205   2.081   7.449  0.6659 -0.6627  0.3096
 2771TIP3    H129872   3.110   2.069   7.452  0.5779  0.1266  0.8607
 2771TIP3    H229873   3.218   2.158   7.394  0.8966  0.1194  1.4323
 2772TIP3   OH229874   3.738   6.477   5.850  0.2781  0.2891  0.5621
 2772TIP3    H129875   3.712   6.566   5.825  1.1651  0.0516 -1.3641
 2772TIP3    H229876   3.832   6.474   5.834  1.1434  0.1995  4.5426
 2773TIP3   OH229877   0.298   2.008   6.074  0.2261 -0.3107  0.3010
 2773TIP3    H129878   0.294   2.084   6.131 -1.1818 -1.1960  1.4657
 2773TIP3    H229879   0.233   2.025   6.006  1.0757  0.2269 -0.3956
 2774TIP3   OH229880   0.869   5.761   8.027 -0.4958 -0.0049 -0.5698
 2774TIP3    H129881   0.778   5.790   8.037 -1.6116 -2.8514 -1.2742
 2774TIP3    H229882   0.922   5.836   8.053 -3.0417  1.5702  0.4193
 2775TIP3   OH229883   4.441   0.813   1.186  0.2413  0.1831  0.2650
 2775TIP3    H129884   4.469   0.860   1.108  0.8747 -0.9993 -0.2377
 2775TIP3    H229885   4.369   0.866   1.221 -1.0570 -0.0159 -1.9327
 2776TIP3   OH229886   6.551   4.799   6.779 -0.1812 -0.1517  0.0573
 2776TIP3    H129887   6.523   4.887   6.755  0.8835  0.1292 -0.1822
 2776TIP3    H229888   6.514   4.785   6.867  0.7596  1.0674  0.6757
 2777TIP3   OH229889   2.579   2.347   6.535  0.2233  0.3968  0.5230
 2777TIP3    H129890   2.666   2.378   6.510 -0.5178  0.9515 -1.5737
 2777TIP3    H229891   2.537   2.425   6.573 -0.3595  1.0159 -1.2941
 2778TIP3   OH229892   1.442   5.917   7.719  0.0876 -0.5249  0.3388
 2778TIP3    H129893   1.372   5.930   7.655 -0.1707 -0.6221  0.5990
 2778TIP3    H229894   1.523   5.937   7.671 -0.2177  1.1653  0.4649
 2779TIP3   OH229895   5.021   3.400   8.094  0.0259 -0.4527 -0.0800
 2779TIP3    H129896   4.934   3.423   8.062 -0.3619 -3.2086 -1.2774
 2779TIP3    H229897   5.081   3.443   8.033 -0.5582 -0.3056 -0.5590
 2780TIP3   OH229898   0.253   0.369   6.603 -0.0705 -0.4633 -0.1585
 2780TIP3    H129899   0.258   0.464   6.586 -0.2508 -0.8109 -2.4544
 2780TIP3    H229900   0.287   0.359   6.692 -2.1481  1.9836  1.0537
 2781TIP3   OH229901   0.077   3.352   7.635  0.2572 -0.1479 -0.0215
 2781TIP3    H129902   0.008   3.315   7.580  0.2373 -1.8144  1.0733
 2781TIP3    H229903   0.159   3.319   7.596  0.3314  0.0844 -0.0646
 2782TIP3   OH229904   6.096   0.998   0.440 -0.0617 -0.0124  0.0226
 2782TIP3    H129905   6.034   1.016   0.512 -1.8778 -1.8022 -0.9924
 2782TIP3    H229906   6.174   0.965   0.484 -1.2356 -1.3315  1.2054
 2783TIP3   OH229907   0.292   1.338   0.714  0.0446 -0.4714  0.6630
 2783TIP3    H129908   0.283   1.322   0.808 -0.6472  0.4309  0.7602
 2783TIP3    H229909   0.377   1.382   0.705 -0.0341 -0.2700  0.9040
 2784TIP3   OH229910   5.987   4.639   7.831 -0.7518 -0.2508 -0.0260
 2784TIP3    H129911   5.970   4.733   7.840 -0.3376  0.0785 -2.1994
 2784TIP3    H229912   6.077   4.634   7.799 -0.0055 -1.5353  2.0368
 2785TIP3   OH229913   3.722   0.079   0.231 -0.3324 -0.9277 -0.0395
 2785TIP3    H129914   3.788   0.096   0.164 -1.4082  0.3375 -0.8372
 2785TIP3    H229915   3.722  -0.016   0.241 -0.5107 -1.2382 -2.2778
 2786TIP3   OH229916   4.198   4.281   0.571  0.9840 -0.0053 -0.9806
 2786TIP3    H129917   4.287   4.276   0.607  0.0508 -2.0836  1.3461
 2786TIP3    H229918   4.177   4.191   0.547 -0.9720  0.1787 -0.1419
 2787TIP3   OH229919   0.779   0.551   6.430  0.3684 -0.5308  0.0226
 2787TIP3    H129920   0.873   0.541   6.415  0.2693  0.8225 -1.8851
 2787TIP3    H229921   0.738   0.496   6.363 -0.1707  0.0279 -0.1191
 2788TIP3   OH229922   3.802   4.212   7.683  0.4975  0.3171 -0.6054
 2788TIP3    H129923   3.799   4.273   7.756  0.0034 -0.4231  0.0105
 2788TIP3    H229924   3.769   4.261   7.608 -0.6746  0.5663  0.0577
 2789TIP3   OH229925   5.043   5.252   7.335  0.6862  0.0818  0.3478
 2789TIP3    H129926   5.135   5.275   7.341  0.2659  2.2540 -0.7771
 2789TIP3    H229927   5.033   5.180   7.398  3.4309 -1.3161 -0.6488
 2790TIP3   OH229928   5.661   4.692   6.379  0.0606 -0.6991 -0.4561
 2790TIP3    H129929   5.631   4.648   6.459  0.6407 -0.3422 -0.0325
 2790TIP3    H229930   5.732   4.749   6.408 -0.4188  0.2365 -1.0506
 2791TIP3   OH229931   0.739   1.374   6.892 -0.3138 -0.4163 -0.3901
 2791TIP3    H129932   0.665   1.336   6.846 -1.2999  0.5621  0.3416
 2791TIP3    H229933   0.734   1.338   6.980 -0.1483 -0.0460 -0.2281
 2792TIP3   OH229934   2.055   0.775   7.553 -0.5279 -0.1288  0.0506
 2792TIP3    H129935   2.025   0.709   7.616 -2.8496  0.9277  0.1334
 2792TIP3    H229936   1.994   0.848   7.564  1.2672  1.5983 -0.8494
 2793TIP3   OH229937   2.515   2.634   6.616  0.1774  0.5659 -0.0820
 2793TIP3    H129938   2.570   2.643   6.538  0.5902 -0.0356  0.1356
 2793TIP3    H229939   2.442   2.694   6.600  0.8446  1.3158 -0.4062
 2794TIP3   OH229940   5.840   2.778   1.936 -0.2968  0.0005  0.0616
 2794TIP3    H129941   5.771   2.804   1.875  1.0678  0.3904 -1.3807
 2794TIP3    H229942   5.796   2.773   2.021 -1.7238  1.9636 -0.4958
 2795TIP3   OH229943   3.577   2.789   6.976  0.6074 -0.8722 -0.1455
 2795TIP3    H129944   3.533   2.753   7.053 -0.9026 -1.1443 -1.0775
 2795TIP3    H229945   3.557   2.725   6.906  1.3539 -0.2923 -0.9011
 2796TIP3   OH229946   2.214   6.657   0.098  0.4725  0.2082 -0.1368
 2796TIP3    H129947   2.216   6.661   0.002  2.6817 -0.0254 -0.1482
 2796TIP3    H229948   2.184   6.568   0.117 -0.4027  0.3956 -0.5859
 2797TIP3   OH229949   5.312   6.725   1.105  0.5254  0.1545 -0.0436
 2797TIP3    H129950   5.378   6.792   1.121 -1.3300  1.6230  2.1273
 2797TIP3    H229951   5.228   6.770   1.116 -0.8336 -2.4597  1.4215
 2798TIP3   OH229952   6.769   5.009   7.166 -0.3273 -0.1271 -0.0087
 2798TIP3    H129953   6.692   5.059   7.191 -1.5612 -1.3965 -1.1165
 2798TIP3    H229954   6.843   5.067   7.185 -1.4551  0.7522  1.9946
 2799TIP3   OH229955   4.415   2.224   6.864 -0.1753 -0.7369 -0.0111
 2799TIP3    H129956   4.327   2.220   6.901 -0.0872  0.8426  0.4758
 2799TIP3    H229957   4.432   2.137   6.830 -1.6550 -1.2530  0.5244
 2800TIP3   OH229958   4.408   4.328   8.633  0.2426 -0.3944  0.4408
 2800TIP3    H129959   4.442   4.244   8.661 -1.9045 -1.1162  1.1013
 2800TIP3    H229960   4.360   4.309   8.552  0.2893  0.3220  0.2342
 2801TIP3   OH229961   5.119   4.539   0.665 -0.8878 -0.3409 -0.0581
 2801TIP3    H129962   5.159   4.465   0.620  1.5152  0.5566  0.4710
 2801TIP3    H229963   5.101   4.507   0.753  3.4129  0.5023  1.3452
 2802TIP3   OH229964   3.821   4.402   8.449 -0.4326 -0.7175 -0.3245
 2802TIP3    H129965   3.758   4.472   8.466  0.7004  0.1105  0.6283
 2802TIP3    H229966   3.892   4.418   8.511  1.5844 -0.5407 -2.5151
 2803TIP3   OH229967   5.656   4.932   7.710 -0.3973 -0.2973  0.3139
 2803TIP3    H129968   5.593   4.900   7.774  1.0726  0.0298  2.0110
 2803TIP3    H229969   5.662   5.026   7.728  0.8744 -0.3979  0.4841
 2804TIP3   OH229970   3.723   3.739   7.027 -0.1776  0.0837  0.6241
 2804TIP3    H129971   3.810   3.774   7.014  1.0418 -2.5169  1.1148
 2804TIP3    H229972   3.684   3.794   7.095  0.7679  1.7369 -0.1292
 2805TIP3   OH229973   5.562   6.362   0.979 -0.2698 -0.2126 -0.3487
 2805TIP3    H129974   5.554   6.419   1.056  1.0191  0.3687 -0.6205
 2805TIP3    H229975   5.627   6.405   0.924  0.2851 -1.6303 -0.8524
 2806TIP3   OH229976   5.947   4.037   7.446 -0.0949  0.4695  0.4657
 2806TIP3    H129977   5.931   3.948   7.414 -0.4096  1.0221 -1.0043
 2806TIP3    H229978   5.864   4.063   7.487 -0.7455  0.8348 -1.0142
 2807TIP3   OH229979   4.423   3.070   0.679 -0.2216 -0.3717  0.3370
 2807TIP3    H129980   4.347   3.130   0.680 -1.1631 -1.5408  1.6092
 2807TIP3    H229981   4.384   2.983   0.681  1.1265 -1.0171  3.6069
 2808TIP3   OH229982   6.717   0.015   7.654  0.7355 -0.0900 -0.5312
 2808TIP3    H129983   6.644   0.033   7.712  0.9139  0.3625 -0.4384
 2808TIP3    H229984   6.698  -0.070   7.616  0.8097 -0.5806  0.4902
 2809TIP3   OH229985   3.641   2.475   8.597  0.0953  0.0835  0.1436
 2809TIP3    H129986   3.687   2.434   8.524 -0.1834 -1.5124  0.8238
 2809TIP3    H229987   3.562   2.513   8.558  0.5480  0.3172 -0.5598
 2810TIP3   OH229988   2.638   1.353   1.349  0.0863  0.1941  0.6073
 2810TIP3    H129989   2.641   1.449   1.343  2.9186  0.2466  1.2144
 2810TIP3    H229990   2.612   1.336   1.440  1.7146  0.5082  1.1741
 2811TIP3   OH229991   2.260   2.939   0.865  0.0110 -0.1737 -0.0204
 2811TIP3    H129992   2.338   2.937   0.810 -1.4851 -0.5788 -2.2508
 2811TIP3    H229993   2.260   3.027   0.903  1.3922 -0.0805 -0.1810
 2812TIP3   OH229994   5.889   2.503   1.489 -0.2628 -0.2214  0.2178
 2812TIP3    H129995   5.845   2.579   1.527  1.3018  0.0545  1.5689
 2812TIP3    H229996   5.961   2.484   1.549 -0.6288 -2.8269 -0.0442
 2813TIP3   OH229997   2.388   0.390   8.000 -0.1697  0.5827 -0.1124
 2813TIP3    H129998   2.413   0.299   8.016 -0.6692  0.4772  0.0869
 2813TIP3    H229999   2.469   0.440   8.014 -0.2147  0.3304  1.1863
 2814TIP3   OH230000   4.206   3.456   5.719 -0.1986  0.0756  0.4272
 2814TIP3    H130001   4.299   3.477   5.706 -0.0944 -0.5298  0.1572
 2814TIP3    H230002   4.160   3.508   5.654  0.0382 -0.3663 -0.0991
 2815TIP3   OH230003   2.248   0.864   7.365 -0.2317  0.5151  0.3756
 2815TIP3    H130004   2.196   0.829   7.437 -1.7310 -0.2529 -1.0299
 2815TIP3    H230005   2.314   0.797   7.349 -0.3806  0.3345  0.5129
 2816TIP3   OH230006   2.193   1.215   1.190  0.4315 -0.2285  0.5002
 2816TIP3    H130007   2.287   1.227   1.203  0.6220 -0.0419 -0.8792
 2816TIP3    H230008   2.184   1.127   1.154  0.3961  0.6924 -1.9371
 2817TIP3   OH230009   1.107   1.604   1.899 -0.1585 -0.5029  0.4387
 2817TIP3    H130010   1.079   1.604   1.991 -1.3811 -1.6251  0.1002
 2817TIP3    H230011   1.118   1.512   1.878  0.7629 -0.2198 -0.3682
 2818TIP3   OH230012   6.444   4.614   1.036  0.1042 -0.1713  0.2816
 2818TIP3    H130013   6.469   4.574   0.953  1.3130 -0.1382  0.6079
 2818TIP3    H230014   6.353   4.589   1.049  0.0363 -0.5375 -0.8429
 2819TIP3   OH230015   4.989   1.893   7.138 -0.6062  0.1719  0.4753
 2819TIP3    H130016   4.934   1.935   7.071 -0.5567  2.3739  1.7078
 2819TIP3    H230017   4.963   1.936   7.219  1.4792 -0.2538  1.4073
 2820TIP3   OH230018   5.309   3.982   1.267 -0.0830  0.1708  0.3126
 2820TIP3    H130019   5.247   3.935   1.322 -1.0541 -1.3035 -1.8830
 2820TIP3    H230020   5.254   4.030   1.204  0.9626 -0.2468 -0.9658
 2821TIP3   OH230021   1.554   1.495   7.373  0.1467  0.1608 -0.2366
 2821TIP3    H130022   1.594   1.501   7.459  0.1817  1.0120 -0.3082
 2821TIP3    H230023   1.500   1.573   7.365  0.4465  0.2967 -1.1357
 2822TIP3   OH230024   4.560   3.207   0.279 -0.1415 -0.0183 -0.4062
 2822TIP3    H130025   4.565   3.253   0.195  1.4669 -0.3109 -0.5068
 2822TIP3    H230026   4.577   3.116   0.257  1.2002  0.0285  0.3159
 2823TIP3   OH230027   1.782   1.931   8.506  0.1397  0.0589  0.1623
 2823TIP3    H130028   1.790   1.936   8.411  1.0677  1.1641  0.2834
 2823TIP3    H230029   1.845   1.994   8.540  1.3444 -1.7731  1.5767
 2824TIP3   OH230030   3.326   1.045   0.020 -0.1251  0.4752 -0.1966
 2824TIP3    H130031   3.302   1.050  -0.073  2.0072 -0.9393 -0.9061
 2824TIP3    H230032   3.347   1.134   0.045 -3.1266  1.3237 -0.2858
 2825TIP3   OH230033   1.422   5.876   0.618 -0.4804 -0.3182 -0.2810
 2825TIP3    H130034   1.507   5.841   0.643 -0.5492  0.9433  1.8997
 2825TIP3    H230035   1.358   5.819   0.661 -0.7966 -1.3300 -1.9976
 2826TIP3   OH230036   5.024   6.761   1.057  0.0869 -0.0638 -0.7414
 2826TIP3    H130037   5.020   6.670   1.086 -0.3663  0.1936  0.0394
 2826TIP3    H230038   4.937   6.778   1.020 -0.1298  0.3017 -0.0829
 2827TIP3   OH230039   5.097   6.195   0.780 -0.0447  0.4868  0.0815
 2827TIP3    H130040   5.022   6.199   0.840 -0.4561  0.1761 -0.4106
 2827TIP3    H230041   5.106   6.285   0.748  1.8158  1.3056  2.5724
 2828TIP3   OH230042   3.828   3.876   1.292 -0.3685  0.0928 -0.2923
 2828TIP3    H130043   3.898   3.940   1.306 -1.4077  1.3249 -0.5296
 2828TIP3    H230044   3.865   3.793   1.324  1.8727  0.2840 -2.1013
 2829TIP3   OH230045   2.430   6.764   0.662 -0.2803  0.1002  0.0587
 2829TIP3    H130046   2.480   6.711   0.725  0.5412  0.1301 -0.5587
 2829TIP3    H230047   2.348   6.782   0.707  0.8208  1.2959  1.7037
 2830TIP3   OH230048   4.071   1.926   0.923  0.2587  0.1134 -0.0363
 2830TIP3    H130049   4.080   1.983   0.999  0.8598 -0.1702  0.1093
 2830TIP3    H230050   4.135   1.856   0.938 -0.2850 -0.4513 -0.3451
 2831TIP3   OH230051   0.561   3.435   0.150  0.6201 -0.3240 -0.0126
 2831TIP3    H130052   0.572   3.525   0.181  0.9402 -0.4679  0.3068
 2831TIP3    H230053   0.473   3.410   0.179  0.6250 -0.1936  0.1148
 2832TIP3   OH230054   2.518   3.969   1.009  0.6249  0.3384  0.0784
 2832TIP3    H130055   2.572   4.036   1.051 -0.5364  0.7096  1.0605
 2832TIP3    H230056   2.578   3.922   0.951  2.3715 -0.2894  2.2542
 2833TIP3   OH230057   5.307   0.505   1.192 -0.9596  0.2262 -0.4760
 2833TIP3    H130058   5.304   0.568   1.120  0.9140 -0.6293 -1.3476
 2833TIP3    H230059   5.350   0.429   1.155 -0.4320 -0.4354  1.4296
 2834TIP3   OH230060   1.508   0.588   7.032  0.3234 -0.4109  0.3761
 2834TIP3    H130061   1.434   0.606   6.975  1.2457  1.7486 -0.2359
 2834TIP3    H230062   1.526   0.494   7.018 -1.9214 -0.8626  0.1788
 2835TIP3   OH230063   0.972   3.924   1.260  0.4464 -0.2559  0.3893
 2835TIP3    H130064   0.922   3.983   1.317 -1.8718 -1.5855 -0.1561
 2835TIP3    H230065   1.063   3.954   1.269 -0.6175  3.7816 -0.3271
 2836TIP3   OH230066   0.513   0.366   7.787 -0.2778 -0.4588 -0.5022
 2836TIP3    H130067   0.517   0.406   7.874  0.1802 -1.0531 -0.2434
 2836TIP3    H230068   0.539   0.275   7.801 -0.5259 -0.6455 -1.2105
 2837TIP3   OH230069   2.573   6.437   6.701 -0.1957  0.6473 -0.5525
 2837TIP3    H130070   2.587   6.360   6.646 -0.9184  1.0034 -1.2751
 2837TIP3    H230071   2.559   6.508   6.638 -2.7079  0.7731  0.0223
 2838TIP3   OH230072   0.826   2.247   7.747 -0.1978  0.2193  0.4335
 2838TIP3    H130073   0.778   2.178   7.792 -0.2047 -0.8674 -1.1859
 2838TIP3    H230074   0.770   2.325   7.757 -0.8407 -0.3091  1.1040
 2839TIP3   OH230075   0.277   2.740   7.055  0.3436  0.4643 -0.0483
 2839TIP3    H130076   0.187   2.713   7.038  0.2126  0.2988  0.8577
 2839TIP3    H230077   0.317   2.664   7.097  1.4133 -0.1034 -1.9699
 2840TIP3   OH230078   5.379   5.766   0.414 -0.6784 -0.2751 -0.1289
 2840TIP3    H130079   5.383   5.858   0.439 -0.1910 -0.0469 -1.0091
 2840TIP3    H230080   5.456   5.727   0.455 -1.6547 -0.6262  1.4627
 2841TIP3   OH230081   6.585   0.191   8.292 -0.1198  0.1892 -0.3161
 2841TIP3    H130082   6.511   0.146   8.252  0.0455  0.2279 -0.6731
 2841TIP3    H230083   6.572   0.283   8.267  0.0504  0.1950 -0.3800
 2842TIP3   OH230084   4.613   5.713   7.800  0.2427 -0.3927  0.1345
 2842TIP3    H130085   4.571   5.746   7.720 -0.0227  0.8570  0.7497
 2842TIP3    H230086   4.568   5.760   7.871  1.7600 -0.0112  0.8971
 2843TIP3   OH230087   0.106   3.252   7.179 -0.1184  0.4595  0.0754
 2843TIP3    H130088   0.091   3.163   7.209  0.9458 -0.8778 -2.9749
 2843TIP3    H230089   0.201   3.264   7.187 -0.2124  1.2142  0.1510
 2844TIP3   OH230090   3.684   4.794   0.828  0.0033  0.2773  0.2000
 2844TIP3    H130091   3.596   4.803   0.865  0.6090  0.1995  1.7291
 2844TIP3    H230092   3.740   4.843   0.888  1.0354  0.1883 -0.6655
 2845TIP3   OH230093   2.470   2.040   7.873  0.3140  0.3783  0.1549
 2845TIP3    H130094   2.485   1.949   7.896 -0.9359  0.0307 -0.3426
 2845TIP3    H230095   2.385   2.062   7.912 -0.6876  0.5039 -1.9285
 2846TIP3   OH230096   6.105   5.604   0.044 -0.2857  0.3473  0.1647
 2846TIP3    H130097   6.038   5.536   0.034 -0.5828  0.4280  1.4721
 2846TIP3    H230098   6.132   5.599   0.136  0.6118  1.1454 -0.0349
 2847TIP3   OH230099   2.439   1.075   6.495 -0.4244 -0.0830  0.0755
 2847TIP3    H130100   2.495   1.130   6.549 -0.8619  0.1931  0.2574
 2847TIP3    H230101   2.420   0.999   6.549 -0.9466  0.2420  0.3567
 2848TIP3   OH230102   2.046   0.348   0.528  0.4219  0.4765 -0.2867
 2848TIP3    H130103   2.050   0.437   0.563  0.2924  0.3430  0.0745
 2848TIP3    H230104   2.125   0.340   0.475  0.6953  0.6396  0.0875
 2849TIP3   OH230105   3.530   1.488   6.288  0.3743  0.4344 -0.7895
 2849TIP3    H130106   3.532   1.491   6.193 -2.0417 -0.2485 -0.9333
 2849TIP3    H230107   3.557   1.399   6.310 -3.7475 -1.1472 -1.2482
 2850TIP3   OH230108   3.557   3.450   1.951 -0.0635  0.2775  0.3856
 2850TIP3    H130109   3.505   3.466   1.872  1.0027 -0.2497 -0.4537
 2850TIP3    H230110   3.528   3.365   1.983 -0.6558  0.5933  0.7040
 2851TIP3   OH230111   6.176   6.314   1.803  0.0772  0.0791  0.5348
 2851TIP3    H130112   6.146   6.290   1.891  0.3229 -0.7887  0.3900
 2851TIP3    H230113   6.118   6.265   1.744 -1.2846  2.0312  0.1517
 2852TIP3   OH230114   6.453   1.903   0.955  0.2160  0.0033 -0.6485
 2852TIP3    H130115   6.431   1.890   0.863 -0.2697  2.2205 -0.8996
 2852TIP3    H230116   6.501   1.986   0.956  2.4561 -1.2237  0.8016
 2853TIP3   OH230117   0.624   1.960   8.151  0.2929 -0.1490 -0.0845
 2853TIP3    H130118   0.633   1.940   8.057  0.9407 -1.0150  0.1467
 2853TIP3    H230119   0.713   1.955   8.185  0.0449  0.0377  0.5994
 2854TIP3   OH230120   0.840   3.921   8.018  0.1037 -0.3599  0.0430
 2854TIP3    H130121   0.828   3.874   8.101  0.3728 -0.6206 -0.0616
 2854TIP3    H230122   0.931   3.950   8.020  0.3811 -1.1396 -0.5465
 2855TIP3   OH230123   2.414   1.611   7.889  0.1165 -0.0550  0.3606
 2855TIP3    H130124   2.448   1.689   7.932 -0.3239 -0.4874  1.5497
 2855TIP3    H230125   2.435   1.540   7.950 -2.9463 -0.3389  1.2495
 2856TIP3   OH230126   4.516   4.846   8.342 -0.7395 -0.1845 -0.5031
 2856TIP3    H130127   4.598   4.838   8.390 -1.0844 -1.3136 -0.0665
 2856TIP3    H230128   4.526   4.926   8.290  0.3134  0.1228  0.1443
 2857TIP3   OH230129   6.675   3.998   8.022  0.5969  0.6578  0.0861
 2857TIP3    H130130   6.648   3.922   7.970 -1.7310  1.3984  0.1003
 2857TIP3    H230131   6.593   4.043   8.043  1.8675  2.9370  0.4580
 2858TIP3   OH230132   2.749   0.928   6.956 -0.6419  0.6291  0.4882
 2858TIP3    H130133   2.677   0.895   7.010 -1.8311 -0.9802 -1.9449
 2858TIP3    H230134   2.709   0.995   6.901 -1.2155 -2.2995 -3.0097
 2859TIP3   OH230135   3.967   2.988   7.501  0.1259  0.0136 -0.1332
 2859TIP3    H130136   3.976   2.924   7.572 -1.8673 -2.2145 -1.7366
 2859TIP3    H230137   4.055   2.993   7.462  1.2280  1.1993  2.2921
 2860TIP3   OH230138   2.351   1.924   6.606  0.5487 -0.1217 -0.4501
 2860TIP3    H130139   2.370   1.895   6.517  1.4946 -1.5826  0.1987
 2860TIP3    H230140   2.332   1.844   6.654 -1.2507  0.7545  0.3874
 2861TIP3   OH230141   3.778   5.518   8.460  0.5856 -0.7048  0.1731
 2861TIP3    H130142   3.773   5.428   8.492  0.2092 -0.5707  0.5033
 2861TIP3    H230143   3.762   5.572   8.538 -0.3822 -0.3704 -0.2407
 2862TIP3   OH230144   0.529   4.079   5.870  1.2651 -0.0773 -0.1202
 2862TIP3    H130145   0.540   4.001   5.815 -1.1273 -0.8275  0.3571
 2862TIP3    H230146   0.456   4.057   5.928  1.3224  2.0866  0.8476
 2863TIP3   OH230147   4.411   1.619   7.035  0.4489 -0.0243 -0.4756
 2863TIP3    H130148   4.351   1.563   7.084 -1.0091  2.6374  0.9779
 2863TIP3    H230149   4.356   1.659   6.967  0.6598  1.8487  0.3839
 2864TIP3   OH230150   3.433   3.745   6.923  0.0666  0.1477 -0.4292
 2864TIP3    H130151   3.436   3.656   6.888 -0.8621  0.0313 -0.2367
 2864TIP3    H230152   3.525   3.768   6.940  0.4787 -0.1074 -2.1361
 2865TIP3   OH230153   2.602   5.336   1.027  0.3813 -0.2483 -0.2684
 2865TIP3    H130154   2.636   5.248   1.044  1.2811  0.2960  0.8638
 2865TIP3    H230155   2.669   5.395   1.060 -1.2660  0.8813  1.2787
 2866TIP3   OH230156   6.455   2.724   2.192 -0.0990  0.2995  0.4869
 2866TIP3    H130157   6.384   2.665   2.165  0.5496  0.0746 -0.7974
 2866TIP3    H230158   6.422   2.812   2.171 -0.4719  0.2911  1.0216
 2867TIP3   OH230159   4.225   4.573   1.607 -0.6040 -0.2819  0.7854
 2867TIP3    H130160   4.133   4.596   1.602 -0.6310 -0.6823 -1.1869
 2867TIP3    H230161   4.250   4.594   1.697 -1.5879  3.6516  0.3437
 2868TIP3   OH230162   5.882   1.149   1.818  0.1215  0.5677 -0.0221
 2868TIP3    H130163   5.888   1.244   1.805 -0.0479  0.3553 -1.9190
 2868TIP3    H230164   5.800   1.136   1.866  0.5387  1.4198  0.9550
 2869TIP3   OH230165   4.564   4.094   7.742 -1.0303 -0.0936 -0.2306
 2869TIP3    H130166   4.499   4.103   7.811 -0.7824 -2.1726  0.3659
 2869TIP3    H230167   4.532   4.021   7.689  0.2945 -0.4978 -0.5085
 2870TIP3   OH230168   3.589   1.821   0.670  0.4415  0.0899  0.6205
 2870TIP3    H130169   3.598   1.852   0.760  0.3016  2.0760 -0.0094
 2870TIP3    H230170   3.513   1.763   0.673 -1.1069  2.0274  1.3792
 2871TIP3   OH230171   5.131   6.657   7.449 -0.1939  0.0148  0.0700
 2871TIP3    H130172   5.213   6.671   7.403  0.0358 -1.9141 -0.2081
 2871TIP3    H230173   5.068   6.638   7.379 -1.0223  1.8760  0.2453
 2872TIP3   OH230174   4.378   6.088   0.385 -0.0599  0.1058 -0.4160
 2872TIP3    H130175   4.344   6.117   0.469  1.1838  0.8145 -0.1433
 2872TIP3    H230176   4.368   6.163   0.327 -0.1384 -0.1113 -0.6905
 2873TIP3   OH230177   6.290   1.878   1.496  0.0538  0.4031 -0.4347
 2873TIP3    H130178   6.357   1.847   1.436  1.3169  2.0172  0.0649
 2873TIP3    H230179   6.264   1.800   1.545  1.3026 -0.3325 -0.8988
 2874TIP3   OH230180   5.404   3.947   7.231 -0.5012  0.2046  0.1223
 2874TIP3    H130181   5.495   3.918   7.227 -0.9528 -1.4647  1.2147
 2874TIP3    H230182   5.375   3.946   7.139  0.7300  1.3798 -0.3148
 2875TIP3   OH230183   1.061   0.826   8.836 -0.1471  0.1850 -1.0235
 2875TIP3    H130184   1.148   0.839   8.798 -0.0574 -1.2173 -1.3475
 2875TIP3    H230185   1.019   0.912   8.828  1.4333  1.0876 -0.2199
 2876TIP3   OH230186   3.349   3.689   8.258 -0.2087  0.0941  0.2310
 2876TIP3    H130187   3.421   3.746   8.232  1.2415 -1.5679  0.4097
 2876TIP3    H230188   3.350   3.618   8.194 -1.7733  0.0760  0.1801
 2877TIP3   OH230189   1.445   3.213   0.127  0.2999  0.2939 -0.0764
 2877TIP3    H130190   1.452   3.157   0.205 -1.5163 -1.4981 -1.1061
 2877TIP3    H230191   1.421   3.299   0.162 -3.3975 -1.1218  1.3145
 2878TIP3   OH230192   1.922   5.543   7.560  0.0229  0.6177  0.4753
 2878TIP3    H130193   2.005   5.497   7.550  1.5559  3.2675  0.1073
 2878TIP3    H230194   1.883   5.543   7.472 -0.1774 -0.2460  0.5575
 2879TIP3   OH230195   4.732   6.098   7.937  0.2333 -0.2710  0.0040
 2879TIP3    H130196   4.669   6.159   7.975  1.1607 -0.1522  1.4595
 2879TIP3    H230197   4.808   6.152   7.913  0.0168 -0.4844 -1.2236
 2880TIP3   OH230198   4.089   6.160   6.939 -0.0788  0.2709  0.3169
 2880TIP3    H130199   4.161   6.158   6.875  0.6856 -1.3668  1.1559
 2880TIP3    H230200   4.088   6.250   6.971  0.3231  0.8059 -1.0922
 2881TIP3   OH230201   6.607   6.631   7.084  0.1085  0.6104 -0.4640
 2881TIP3    H130202   6.594   6.722   7.111  0.3637  0.6923 -0.6115
 2881TIP3    H230203   6.594   6.580   7.164 -1.0809  0.6878 -0.6030
 2882TIP3   OH230204   4.353   2.994   0.026 -0.2795 -0.7228 -0.3730
 2882TIP3    H130205   4.397   3.063  -0.023 -2.2835 -0.1632 -1.5206
 2882TIP3    H230206   4.418   2.925   0.036  0.7278 -0.0976 -2.2682
 2883TIP3   OH230207   4.424   0.299   0.261 -0.4378 -0.3948  0.2089
 2883TIP3    H130208   4.435   0.254   0.344  0.7567  0.7834  0.7216
 2883TIP3    H230209   4.433   0.229   0.195 -1.6797 -1.3801  1.0469
 2884TIP3   OH230210   5.206   1.458   6.648  0.3897  0.0537  0.0487
 2884TIP3    H130211   5.277   1.424   6.594 -0.2298  0.5868 -1.1216
 2884TIP3    H230212   5.133   1.472   6.587 -0.1160  1.2882  0.8969
 2885TIP3   OH230213   0.514   3.916   1.126 -0.1501  0.6845 -0.0776
 2885TIP3    H130214   0.486   4.006   1.114 -0.4887  0.9669  2.2775
 2885TIP3    H230215   0.529   3.908   1.221  1.2109 -1.3460 -0.3916
 2886TIP3   OH230216   0.873   5.259   0.649 -0.3414 -0.8560 -0.3361
 2886TIP3    H130217   0.897   5.323   0.717 -0.4831 -1.1589  0.0043
 2886TIP3    H230218   0.956   5.217   0.626  0.0738  0.6558 -1.8467
 2887TIP3   OH230219   5.689   3.162   8.418  0.4383  0.1441 -0.0541
 2887TIP3    H130220   5.771   3.209   8.409 -0.8450  2.4799 -0.3915
 2887TIP3    H230221   5.650   3.196   8.498  0.7321 -2.5759  1.3674
 2888TIP3   OH230222   4.562   1.900   7.543  0.4322 -0.4274  0.1005
 2888TIP3    H130223   4.536   1.948   7.464 -3.0954  0.9118  1.8442
 2888TIP3    H230224   4.515   1.816   7.536  2.4933 -1.6181 -0.4973
 2889TIP3   OH230225   0.622   4.013   1.727 -0.2579 -0.6279 -0.8613
 2889TIP3    H130226   0.666   3.930   1.715  0.3448 -0.6405  1.0578
 2889TIP3    H230227   0.554   3.995   1.792 -1.5895 -0.0793 -2.0426
 2890TIP3   OH230228   4.967   3.665   0.649  0.5348 -0.4372 -0.4280
 2890TIP3    H130229   4.954   3.570   0.659  0.6729 -0.2867  1.5040
 2890TIP3    H230230   5.060   3.678   0.669  0.3710  0.1800 -0.0509
 2891TIP3   OH230231   0.183   1.735   8.787  0.2223 -0.3842  0.7129
 2891TIP3    H130232   0.272   1.757   8.760 -0.0691 -0.0415  0.0132
 2891TIP3    H230233   0.147   1.684   8.715  0.0308 -1.0123  1.2337
 2892TIP3   OH230234   0.431   3.128   0.364  0.8242 -0.4257  0.1992
 2892TIP3    H130235   0.520   3.104   0.338  0.8245 -0.8777  0.6074
 2892TIP3    H230236   0.401   3.186   0.294  1.3031 -0.5683 -0.1331
 2893TIP3   OH230237   4.646   1.545   8.004 -0.2673  0.2044  0.1312
 2893TIP3    H130238   4.722   1.602   7.990  1.0489 -1.4299  0.3852
 2893TIP3    H230239   4.601   1.544   7.920  0.5218  0.4408 -0.3072
 2894TIP3   OH230240   2.173   0.443   8.302 -0.3120 -0.1612 -0.4585
 2894TIP3    H130241   2.092   0.397   8.322 -0.9497  1.5304  1.1222
 2894TIP3    H230242   2.242   0.381   8.326 -1.1016 -1.4426 -1.3733
 2895TIP3   OH230243   5.862   0.269   0.670 -0.5456  0.2497  0.4380
 2895TIP3    H130244   5.865   0.308   0.582 -1.0705  1.9991  1.1477
 2895TIP3    H230245   5.812   0.189   0.658  1.4246 -0.8309 -1.2774
 2896TIP3   OH230246   1.146   6.019   8.480 -0.4540  0.1216 -0.2045
 2896TIP3    H130247   1.240   6.015   8.463 -0.9398 -2.1658 -3.0546
 2896TIP3    H230248   1.124   5.935   8.520 -1.4445  0.1575 -0.6265
 2897TIP3   OH230249   3.941   2.764   6.491  0.2528  0.6456  0.1645
 2897TIP3    H130250   3.917   2.856   6.480  0.6512  0.9548  1.6479
 2897TIP3    H230251   3.942   2.728   6.402  0.3876  2.1466 -0.4615
 2898TIP3   OH230252   0.834   1.884   7.652  0.4328  0.4267  0.8482
 2898TIP3    H130253   0.796   1.970   7.636  1.0920  0.7886  1.1912
 2898TIP3    H230254   0.928   1.899   7.655  0.8024 -0.7546 -1.9941
 2899TIP3   OH230255   6.495   4.298   0.134  0.4672 -0.4177  0.0036
 2899TIP3    H130256   6.438   4.241   0.185 -1.1321 -0.3685 -1.6339
 2899TIP3    H230257   6.448   4.382   0.130  1.0502 -0.1124 -0.6793
 2900TIP3   OH230258   0.552   6.477   0.075  0.0739  0.6455 -0.0559
 2900TIP3    H130259   0.619   6.466   0.008  0.7289  0.2225  0.6637
 2900TIP3    H230260   0.472   6.493   0.025  1.0231  3.2228 -0.9295
 2901TIP3   OH230261   5.361   6.378   1.629  0.3021 -0.7721 -0.2500
 2901TIP3    H130262   5.313   6.367   1.712  0.1759  0.9574 -0.0526
 2901TIP3    H230263   5.357   6.292   1.587  0.0026 -1.5721  1.3420
 2902TIP3   OH230264   0.963   1.300   0.316 -0.2290  0.6141  0.4807
 2902TIP3    H130265   0.913   1.220   0.304  0.4595  0.3439 -0.6832
 2902TIP3    H230266   1.035   1.293   0.254 -0.5600  2.4612 -0.1655
 2903TIP3   OH230267   6.136   4.569   8.693  0.1193 -0.0330 -0.2372
 2903TIP3    H130268   6.184   4.566   8.610 -1.5936 -0.7700 -1.2604
 2903TIP3    H230269   6.079   4.492   8.690 -1.9032  1.3528  0.3887
 2904TIP3   OH230270   5.639   1.471   0.954 -0.3199 -0.5397 -1.0311
 2904TIP3    H130271   5.549   1.462   0.986  0.4937  1.1924  2.1587
 2904TIP3    H230272   5.660   1.385   0.917 -2.1440 -2.1918  1.4338
 2905TIP3   OH230273   4.456   5.204   6.503 -0.0855 -0.3443 -0.4972
 2905TIP3    H130274   4.547   5.179   6.521 -0.2048  0.2705  1.0935
 2905TIP3    H230275   4.409   5.121   6.498  0.1289 -0.6069  1.2779
 2906TIP3   OH230276   6.162   4.221   1.455  0.0736 -0.1070 -0.1464
 2906TIP3    H130277   6.217   4.245   1.381  1.0569  0.5503  0.7730
 2906TIP3    H230278   6.217   4.164   1.508 -0.5087 -0.3104  0.2462
 2907TIP3   OH230279   0.467   5.048   1.430 -0.5197  0.2510 -0.2601
 2907TIP3    H130280   0.431   5.098   1.356 -0.3656  0.8220  0.0491
 2907TIP3    H230281   0.556   5.080   1.439 -0.9908  1.2584  1.1164
 2908TIP3   OH230282   3.857   2.895   7.041  0.0133 -0.1978  0.0428
 2908TIP3    H130283   3.823   2.903   7.130  1.1868 -3.0477  0.8702
 2908TIP3    H230284   3.785   2.858   6.990  0.0884 -0.9623  0.4669
 2909TIP3   OH230285   3.297   4.724   0.569  0.5533  0.4746 -0.3569
 2909TIP3    H130286   3.245   4.754   0.644  0.1937  1.4278 -0.9626
 2909TIP3    H230287   3.370   4.676   0.607 -1.2371 -1.7278  0.5158
 2910TIP3   OH230288   3.418   5.635   6.502 -0.1972 -0.1875 -0.4562
 2910TIP3    H130289   3.331   5.660   6.471 -0.0552  0.1419 -0.5979
 2910TIP3    H230290   3.446   5.708   6.556  0.8572  0.6974 -2.1062
 2911TIP3   OH230291   5.036   6.502   7.679 -0.3945  0.4162 -0.0673
 2911TIP3    H130292   5.077   6.560   7.616  3.3774 -1.9597 -0.1292
 2911TIP3    H230293   5.104   6.485   7.744 -1.7552 -2.6300  0.7656
 2912TIP3   OH230294   3.577   1.837   6.874 -0.2550 -0.1184  0.0783
 2912TIP3    H130295   3.607   1.926   6.896 -1.5285  0.5899 -0.8687
 2912TIP3    H230296   3.631   1.812   6.799 -0.3919  0.1777 -0.1235
 2913TIP3   OH230297   6.168   1.545   6.210 -0.1093 -0.3356 -0.4748
 2913TIP3    H130298   6.159   1.632   6.249  0.4853  0.6755 -2.4399
 2913TIP3    H230299   6.258   1.519   6.228 -0.8377 -1.4919  1.8345
 2914TIP3   OH230300   6.427   2.809   7.688 -0.5596  0.2796  0.1759
 2914TIP3    H130301   6.343   2.763   7.682  1.0749 -3.1008  0.6782
 2914TIP3    H230302   6.469   2.770   7.765  1.5131  1.8231 -0.1040
 2915TIP3   OH230303   1.199   1.216   0.182 -0.1478  0.4242  0.2921
 2915TIP3    H130304   1.266   1.198   0.247  0.2905  1.0737  0.0314
 2915TIP3    H230305   1.248   1.245   0.105 -0.6136 -0.8748 -0.5278
 2916TIP3   OH230306   3.243   3.316   8.656 -0.3867 -0.6359 -0.1307
 2916TIP3    H130307   3.190   3.302   8.734  0.9553 -0.1063  0.9236
 2916TIP3    H230308   3.296   3.394   8.676 -0.7571  0.1572 -1.9901
 2917TIP3   OH230309   0.086   1.826   0.885  0.3269  0.3481  0.2229
 2917TIP3    H130310   0.013   1.772   0.916  0.1855  0.4195  0.0153
 2917TIP3    H230311   0.154   1.816   0.953  0.7016 -0.9061 -0.3092
 2918TIP3   OH230312   1.378   6.150   0.825  0.0514  0.0395  0.1671
 2918TIP3    H130313   1.388   6.055   0.832  1.3870  0.2168  0.8732
 2918TIP3    H230314   1.421   6.184   0.903 -2.6060  1.1369  1.2846
 2919TIP3   OH230315   4.268   1.485   6.236 -0.2745 -0.5211 -0.2962
 2919TIP3    H130316   4.336   1.552   6.225 -0.6858 -0.4247 -2.8286
 2919TIP3    H230317   4.191   1.534   6.264  0.3563 -0.5063  1.6079
 2920TIP3   OH230318   3.783   3.922   0.418  0.5799  0.4687  0.5197
 2920TIP3    H130319   3.780   4.018   0.417 -1.3775  0.4603  1.0728
 2920TIP3    H230320   3.743   3.896   0.336 -0.5433  0.1398  1.1561
 2921TIP3   OH230321   4.197   6.734   6.579  0.2621 -0.0297  0.0014
 2921TIP3    H130322   4.132   6.785   6.627 -0.2581 -0.7143  0.0452
 2921TIP3    H230323   4.184   6.757   6.487  1.8492  1.9559  0.2164
 2922TIP3   OH230324   2.817   0.688   6.440 -0.7421 -0.3529  0.0092
 2922TIP3    H130325   2.870   0.767   6.436 -1.9461  0.6751  2.3057
 2922TIP3    H230326   2.816   0.655   6.350 -0.4554  2.4202 -1.1119
 2923TIP3   OH230327   0.669   6.097   0.114  0.1334  0.0425  0.1546
 2923TIP3    H130328   0.657   6.174   0.168 -2.3681  0.6091 -1.0770
 2923TIP3    H230329   0.603   6.035   0.145  0.7924 -0.8508 -0.1758
 2924TIP3   OH230330   1.335   2.887   0.510 -0.4296  0.0411  0.4469
 2924TIP3    H130331   1.283   2.813   0.541  1.0222 -1.3741 -0.3347
 2924TIP3    H230332   1.292   2.915   0.429  0.3196 -1.5531 -0.5543
 2925TIP3   OH230333   5.138   4.977   1.024 -0.4792 -0.9832  0.1601
 2925TIP3    H130334   5.134   4.907   0.958 -2.3184  0.2705 -1.1571
 2925TIP3    H230335   5.223   5.019   1.009 -1.2759 -0.0139 -2.2858
 2926TIP3   OH230336   0.372   2.146   0.128  0.1537 -0.3813 -0.5387
 2926TIP3    H130337   0.277   2.153   0.122  0.2720  2.5576 -0.1556
 2926TIP3    H230338   0.401   2.132   0.037 -0.5560  0.3387 -0.8813
 2927TIP3   OH230339   5.425   2.408   1.485  0.0308  0.2907  0.2110
 2927TIP3    H130340   5.422   2.416   1.390 -0.7580 -0.6040  0.1409
 2927TIP3    H230341   5.484   2.335   1.502 -0.2368  0.1094  0.3780
 2928TIP3   OH230342   6.176   0.014   0.326 -0.2050 -0.6382  0.3232
 2928TIP3    H130343   6.149   0.095   0.284 -1.8096 -0.9011  0.7710
 2928TIP3    H230344   6.094  -0.028   0.353  0.6536 -1.6257  1.5412
 2929TIP3   OH230345   1.982   5.221   8.602 -0.5214  0.3921 -0.3963
 2929TIP3    H130346   2.029   5.228   8.685  1.1688 -2.7013 -0.9410
 2929TIP3    H230347   1.973   5.311   8.572  3.1078  1.3539  0.8665
 2930TIP3   OH230348   2.537   1.102   8.392  0.1560  0.1097 -0.0261
 2930TIP3    H130349   2.607   1.147   8.344  0.9860 -1.8301 -0.7148
 2930TIP3    H230350   2.531   1.016   8.352 -2.5319  0.1274  0.1550
 2931TIP3   OH230351   6.021   2.356   8.575 -0.2679 -0.2959  0.0673
 2931TIP3    H130352   6.058   2.326   8.492  0.7489 -0.0735  0.4266
 2931TIP3    H230353   6.090   2.338   8.639 -1.1653 -0.7596  0.9169
 2932TIP3   OH230354   2.253   3.932   0.378 -0.4011 -0.1064  0.1539
 2932TIP3    H130355   2.346   3.922   0.360 -0.5302 -0.7844 -0.1969
 2932TIP3    H230356   2.248   4.001   0.443  0.1143  2.4664 -2.3180
 2933TIP3   OH230357   2.912   5.041   1.507 -0.5643 -0.0862  0.4728
 2933TIP3    H130358   2.934   5.037   1.599  0.1347  1.0932  0.3764
 2933TIP3    H230359   2.850   5.114   1.500 -0.4427 -0.0201 -0.0128
 2934TIP3   OH230360   5.762   4.957   8.291 -0.0962 -0.7734  0.1986
 2934TIP3    H130361   5.666   4.949   8.293 -0.1454 -0.5624 -0.7228
 2934TIP3    H230362   5.781   5.036   8.341 -0.7115  1.3379 -2.6690
 2935TIP3   OH230363   0.468   1.435   7.146 -0.1350 -0.4654 -0.3830
 2935TIP3    H130364   0.418   1.359   7.173 -2.0502  0.9403  0.1779
 2935TIP3    H230365   0.517   1.461   7.224  0.3008 -0.9175 -0.4964
 2936TIP3   OH230366   4.754   1.008   0.137  0.1849  0.1873 -0.1187
 2936TIP3    H130367   4.734   0.975   0.224 -1.3283  0.8613 -0.1833
 2936TIP3    H230368   4.797   0.935   0.093 -1.8013 -1.2518  0.1995
 2937TIP3   OH230369   5.790   6.173   7.877  0.1085  0.1232 -0.4908
 2937TIP3    H130370   5.835   6.228   7.813  2.9677 -0.3555  0.9410
 2937TIP3    H230371   5.808   6.083   7.848 -0.2011 -0.0853 -0.0459
 2938TIP3   OH230372   2.744   0.471   0.304 -0.3058  0.1192  0.4556
 2938TIP3    H130373   2.725   0.436   0.391  0.4219 -0.3148  0.4493
 2938TIP3    H230374   2.828   0.432   0.280 -0.8326 -0.3455 -0.7490
 2939TIP3   OH230375   2.637   0.366   0.542  0.1204  0.2933  0.1831
 2939TIP3    H130376   2.646   0.271   0.539  0.7544  0.3707 -0.3860
 2939TIP3    H230377   2.542   0.381   0.547  0.0565 -0.3993  1.6711
 2940TIP3   OH230378   5.468   2.945   2.100 -0.5525  0.0291  0.3770
 2940TIP3    H130379   5.553   2.939   2.055 -0.6225 -1.7967  0.4234
 2940TIP3    H230380   5.435   2.855   2.100 -2.4943  0.7067  0.3741
 2941TIP3   OH230381   3.565   0.350   1.272 -0.1424 -0.0145 -0.5095
 2941TIP3    H130382   3.475   0.359   1.302  0.0077  0.0583 -0.0851
 2941TIP3    H230383   3.612   0.423   1.313  0.2337 -0.3917 -0.2667
 2942TIP3   OH230384   4.545   3.826   0.206  0.2727 -0.0616  0.0552
 2942TIP3    H130385   4.469   3.775   0.177 -2.6121  4.0694 -0.5960
 2942TIP3    H230386   4.531   3.839   0.299  0.1639  0.7116 -0.0647
 2943TIP3   OH230387   1.465   2.147   7.157 -0.0462  0.0309  0.1159
 2943TIP3    H130388   1.463   2.076   7.221 -1.8667 -0.2190 -0.1618
 2943TIP3    H230389   1.483   2.104   7.073 -0.5979 -0.0434  0.0314
 2944TIP3   OH230390   3.031   6.227   7.206  0.3308 -0.0801 -0.1309
 2944TIP3    H130391   3.077   6.263   7.282 -0.5047  0.9846 -0.0977
 2944TIP3    H230392   2.949   6.276   7.203 -0.3772 -1.2668 -0.7464
 2945TIP3   OH230393   2.785   2.354   2.095  0.1253  0.2094 -0.3731
 2945TIP3    H130394   2.783   2.414   2.169  0.4587 -1.2629  0.8606
 2945TIP3    H230395   2.864   2.303   2.107 -0.4304 -0.8655 -1.0972
 2946TIP3   OH230396   2.925   6.712   1.063  0.2737  0.2582  0.1822
 2946TIP3    H130397   2.964   6.706   1.151 -0.5541  0.8412  0.6041
 2946TIP3    H230398   2.988   6.669   1.006  1.6791  1.3912  0.8050
 2947TIP3   OH230399   6.005   3.604   0.250  0.4969  0.1445  0.3079
 2947TIP3    H130400   5.941   3.654   0.302 -0.7032 -0.1974 -0.7784
 2947TIP3    H230401   6.084   3.604   0.303 -0.2523  1.0201  1.4839
 2948TIP3   OH230402   0.211   1.597   0.204  0.0774 -0.4679  0.1395
 2948TIP3    H130403   0.194   1.617   0.111 -0.5625 -0.2242  0.2979
 2948TIP3    H230404   0.305   1.606   0.214  0.2189 -1.0385 -0.6167
 2949TIP3   OH230405   3.242   3.417   0.341 -0.2789  0.2987  0.4561
 2949TIP3    H130406   3.219   3.510   0.345 -1.8509 -0.0584  0.2723
 2949TIP3    H230407   3.330   3.412   0.378 -0.4402  1.7665  1.0748
 2950TIP3   OH230408   6.481   2.057   0.205  0.0468  0.2843  0.0616
 2950TIP3    H130409   6.536   2.094   0.136 -0.3107 -1.4746 -1.1997
 2950TIP3    H230410   6.399   2.033   0.162  0.1813 -1.7596  0.8352
 2951TIP3   OH230411   2.540   1.432   7.479  0.5405 -0.1635 -0.4161
 2951TIP3    H130412   2.555   1.493   7.551 -0.3703  0.8838 -1.0714
 2951TIP3    H230413   2.591   1.468   7.406 -0.9339  0.5425 -1.1549
 2952TIP3   OH230414   4.882   3.653   0.348 -0.6563  0.4071  0.2400
 2952TIP3    H130415   4.809   3.591   0.358 -0.8356  0.8040  1.4802
 2952TIP3    H230416   4.944   3.629   0.416 -0.3252  1.0498  0.1703
 2953TIP3   OH230417   5.050   0.280   0.376  0.0609 -0.7237 -0.3614
 2953TIP3    H130418   5.122   0.287   0.439 -0.6974 -0.0617  0.4603
 2953TIP3    H230419   5.091   0.299   0.292  1.2959 -2.5775 -0.2393
 2954TIP3   OH230420   2.065   2.170   6.426  0.3326 -0.0515 -0.2482
 2954TIP3    H130421   2.001   2.120   6.376 -0.1927 -1.5688  1.8456
 2954TIP3    H230422   2.029   2.259   6.427  0.8898  0.3342 -3.3469
 2955TIP3   OH230423   2.545   6.733   6.611 -0.0043  0.1239 -0.5218
 2955TIP3    H130424   2.478   6.669   6.585  0.4652 -0.6120  0.0603
 2955TIP3    H230425   2.514   6.816   6.574 -1.5446 -0.0838  0.2223
 2956TIP3   OH230426   4.789   0.538   1.174 -0.1454  0.6095  0.6676
 2956TIP3    H130427   4.878   0.504   1.166 -0.2033  0.1341  1.8612
 2956TIP3    H230428   4.794   0.626   1.136  0.6952  0.3810  0.2195
 2957TIP3   OH230429   2.007   3.051   1.142 -0.3594 -0.2676  0.5069
 2957TIP3    H130430   2.022   2.957   1.127  0.2681 -0.0886 -0.0745
 2957TIP3    H230431   2.055   3.094   1.071 -0.8095  0.4901  0.6499
 2958TIP3   OH230432   5.521   3.519   8.806 -0.2780 -0.7409  0.6260
 2958TIP3    H130433   5.519   3.552   8.896  1.3664 -1.6050  1.0303
 2958TIP3    H230434   5.434   3.482   8.791 -1.0830  0.7948  1.2908
 2959TIP3   OH230435   0.764   1.880   8.544  0.2570  0.4421 -0.2317
 2959TIP3    H130436   0.679   1.865   8.505 -0.0071 -1.5231  0.9586
 2959TIP3    H230437   0.786   1.797   8.587  0.4489  2.3035  3.7878
 2960TIP3   OH230438   0.602   3.249   1.146  0.5996 -0.1167 -0.1558
 2960TIP3    H130439   0.649   3.255   1.230 -1.7862 -1.0365  1.3327
 2960TIP3    H230440   0.603   3.156   1.124 -0.7810 -0.2089  0.0988
 2961TIP3   OH230441   6.555   1.143   1.489  0.5187  0.0753 -0.0393
 2961TIP3    H130442   6.544   1.216   1.428 -2.5520 -0.0413  0.2285
 2961TIP3    H230443   6.606   1.180   1.561  1.4870  1.1107 -1.2132
 2962TIP3   OH230444   6.424   3.660   1.847  0.1650 -0.0694 -0.0814
 2962TIP3    H130445   6.378   3.733   1.807 -0.0788 -1.9363 -3.5685
 2962TIP3    H230446   6.355   3.599   1.874  0.3958  0.5758  2.2431
 2963TIP3   OH230447   2.814   2.019   7.900 -0.1757 -0.5202 -0.2129
 2963TIP3    H130448   2.763   2.035   7.979  0.2127  0.2377 -0.0972
 2963TIP3    H230449   2.808   2.102   7.851 -0.5702 -1.0413 -1.0658
 2964TIP3   OH230450   2.560   4.169   8.548 -0.0020  0.3626  0.1549
 2964TIP3    H130451   2.575   4.237   8.614 -2.2378  1.1961 -0.1243
 2964TIP3    H230452   2.483   4.122   8.579 -0.2073 -0.1812 -1.1207
 2965TIP3   OH230453   4.533   6.241   1.064 -0.1605  0.1282 -0.3793
 2965TIP3    H130454   4.540   6.219   0.971  0.3150 -2.8597  0.2849
 2965TIP3    H230455   4.525   6.157   1.109  0.6455  1.4132  2.3990
 2966TIP3   OH230456   5.639   0.659   0.977 -0.3521  0.8121  0.2456
 2966TIP3    H130457   5.713   0.694   1.026  0.6177  1.4652 -1.5828
 2966TIP3    H230458   5.578   0.732   0.969 -0.0491  1.0104 -0.3411
 2967TIP3   OH230459   2.390   2.261   1.388 -0.1035 -0.1028 -0.3960
 2967TIP3    H130460   2.446   2.328   1.428 -0.1070 -0.1781 -0.2655
 2967TIP3    H230461   2.316   2.252   1.448  0.8780 -1.6717  0.6287
 2968TIP3   OH230462   0.742   3.460   7.142 -0.0096  0.3027 -0.1056
 2968TIP3    H130463   0.657   3.472   7.100 -0.0097 -0.3169 -0.2889
 2968TIP3    H230464   0.801   3.436   7.070  0.3443  0.7921  0.0062
 2969TIP3   OH230465   0.718   6.588   0.354 -0.1128  0.6888 -0.0446
 2969TIP3    H130466   0.778   6.518   0.380 -0.3411  0.1652 -0.8813
 2969TIP3    H230467   0.772   6.648   0.302 -0.2547  0.3116 -0.6439
 2970TIP3   OH230468   0.263   3.012   7.710 -0.0790 -0.2944 -0.6427
 2970TIP3    H130469   0.290   3.079   7.647 -2.6428  0.3913 -1.1386
 2970TIP3    H230470   0.252   2.933   7.658  1.0839 -0.6387 -0.3976
 2971TIP3   OH230471   4.987   0.831   6.366  0.0797 -0.3271 -0.1621
 2971TIP3    H130472   5.053   0.773   6.404  0.3569 -0.5585 -0.9889
 2971TIP3    H230473   5.033   0.880   6.298 -0.3699  0.2072 -0.0935
 2972TIP3   OH230474   2.649   6.214   6.536  0.0194 -0.0917 -0.4687
 2972TIP3    H130475   2.724   6.159   6.513 -0.8153 -1.7981  0.6461
 2972TIP3    H230476   2.586   6.199   6.465  0.7746  1.5119 -1.5185
 2973TIP3   OH230477   1.887   2.842   6.581  0.2551  0.0399 -0.5322
 2973TIP3    H130478   1.970   2.825   6.626  0.0379 -1.0584 -0.5079
 2973TIP3    H230479   1.879   2.770   6.519 -0.3305  0.5453 -1.0520
 2974TIP3   OH230480   4.552   5.938   7.321  0.2631 -0.0391 -0.4582
 2974TIP3    H130481   4.586   6.002   7.259  1.2890  0.1800  0.2994
 2974TIP3    H230482   4.500   5.878   7.268  0.5446  0.5431 -1.4139
 2975TIP3   OH230483   2.376   2.155   0.891 -0.3627 -0.1806 -0.0503
 2975TIP3    H130484   2.385   2.187   0.980  1.2121 -3.0131  0.9414
 2975TIP3    H230485   2.301   2.203   0.855  0.6114  2.9831  1.8158
 2976TIP3   OH230486   2.829   1.077   1.377 -0.3329  0.0913 -0.2020
 2976TIP3    H130487   2.848   1.035   1.293 -0.7683 -0.9136  0.1856
 2976TIP3    H230488   2.733   1.079   1.381 -0.3350 -1.0494  0.8250
 2977TIP3   OH230489   6.574   5.437   7.403  0.4377  0.6520  0.4512
 2977TIP3    H130490   6.648   5.490   7.375 -0.3900  1.9374  0.6377
 2977TIP3    H230491   6.510   5.500   7.436 -0.3676 -0.5005  1.1588
 2978TIP3   OH230492   2.329   4.469   0.067  0.1554  0.3739  0.5211
 2978TIP3    H130493   2.234   4.477   0.076  0.0268  0.3427 -0.5897
 2978TIP3    H230494   2.346   4.496  -0.024  1.3824  1.8619  1.1505
 2979TIP3   OH230495   3.179   5.418   7.428 -0.3450 -0.4775 -0.0144
 2979TIP3    H130496   3.179   5.468   7.347  2.0100  2.6583  1.7168
 2979TIP3    H230497   3.222   5.336   7.405  4.5971  2.0704 -1.2661
 2980TIP3   OH230498   0.986   1.233   7.758  0.5686 -0.4759 -1.1356
 2980TIP3    H130499   0.979   1.255   7.665  1.9881 -1.7795 -1.5880
 2980TIP3    H230500   1.056   1.167   7.762  1.3970  0.4596  1.0130
 2981TIP3   OH230501   3.930   2.945   1.136  0.2601  0.0212  0.0766
 2981TIP3    H130502   3.850   2.980   1.176  0.5663 -0.3647  1.0554
 2981TIP3    H230503   3.955   3.011   1.071 -0.5337  0.4223  0.1647
 2982TIP3   OH230504   0.503   2.789   1.415  0.2941 -0.0728  0.3168
 2982TIP3    H130505   0.449   2.862   1.447 -0.0690 -0.9861  1.8970
 2982TIP3    H230506   0.556   2.764   1.491 -0.5371 -2.2835  0.2265
 2983TIP3   OH230507   3.934   0.394   7.173  0.0378  0.3165  0.2907
 2983TIP3    H130508   4.005   0.391   7.237 -0.5156  1.1354  0.9642
 2983TIP3    H230509   3.943   0.479   7.131 -1.8523  1.3963  1.9472
 2984TIP3   OH230510   0.292   1.829   1.076 -0.3225 -0.3167 -0.4488
 2984TIP3    H130511   0.381   1.802   1.052 -0.0218 -0.4580  0.7595
 2984TIP3    H230512   0.304   1.898   1.140 -1.0407 -1.7606  1.3170
 2985TIP3   OH230513   3.146   5.481   8.081 -0.1797 -0.8452  0.2470
 2985TIP3    H130514   3.125   5.406   8.136  0.0239 -1.2923 -0.2751
 2985TIP3    H230515   3.239   5.498   8.097  0.1746 -1.6776 -0.7634
 2986TIP3   OH230516   0.662   0.608   1.026 -0.4432  0.3804 -0.1429
 2986TIP3    H130517   0.686   0.675   1.090 -0.0376  1.1744 -1.0952
 2986TIP3    H230518   0.576   0.578   1.054 -0.9186  1.7587 -0.0374
 2987TIP3   OH230519   2.738   6.651   0.357 -0.4229 -0.9310 -0.0172
 2987TIP3    H130520   2.682   6.658   0.280 -2.0288 -1.4106  1.0754
 2987TIP3    H230521   2.824   6.680   0.326 -1.1210 -0.7067 -1.8711
 2988TIP3   OH230522   1.771   3.366   6.332 -0.1071 -0.3427 -0.7551
 2988TIP3    H130523   1.771   3.317   6.250  0.8625 -3.2168  0.8217
 2988TIP3    H230524   1.845   3.426   6.325 -0.0831 -0.5096 -2.0148
 2989TIP3   OH230525   0.732   6.520   7.161  0.1288  0.2697 -0.4086
 2989TIP3    H130526   0.665   6.453   7.175  1.0264 -0.6988 -0.5737
 2989TIP3    H230527   0.691   6.602   7.187 -0.6350 -0.4903  0.8746
 2990TIP3   OH230528   5.970   4.718   6.516  0.0022  0.1668  0.3679
 2990TIP3    H130529   5.947   4.732   6.424 -0.8216 -3.3034 -0.0760
 2990TIP3    H230530   5.888   4.731   6.564 -0.5374 -1.8958  0.0712
 2991TIP3   OH230531   5.659   2.821   6.735  0.1340 -0.2299 -0.0960
 2991TIP3    H130532   5.587   2.782   6.686 -1.5956 -0.2637  2.2883
 2991TIP3    H230533   5.722   2.749   6.744 -0.5688 -0.9013 -0.3332
 2992TIP3   OH230534   1.573   0.677   8.553 -0.3078 -0.4605 -0.0816
 2992TIP3    H130535   1.601   0.695   8.463  0.0153  0.1923  0.1444
 2992TIP3    H230536   1.477   0.676   8.548 -0.2829 -1.4673 -0.6217
 2993TIP3   OH230537   6.032   0.800   0.254  0.0204 -0.4130 -0.4938
 2993TIP3    H130538   6.106   0.756   0.212  0.0251 -0.9477  0.0680
 2993TIP3    H230539   6.067   0.883   0.285 -0.3451  0.7662 -2.9517
 2994TIP3   OH230540   5.696   6.471   0.216  0.3390 -0.1985  0.3365
 2994TIP3    H130541   5.631   6.471   0.285 -1.9556  2.6756 -1.6070
 2994TIP3    H230542   5.646   6.470   0.135  2.7563  0.5810 -1.2950
 2995TIP3   OH230543   0.622   6.226   5.831 -0.2413 -0.0920  0.2974
 2995TIP3    H130544   0.717   6.216   5.832 -0.2785 -0.4017  0.7902
 2995TIP3    H230545   0.592   6.161   5.767 -0.2324 -1.0185  1.2147
 2996TIP3   OH230546   6.125   2.912   7.897  0.0634  0.4070 -0.2209
 2996TIP3    H130547   6.097   2.917   7.806  2.2378 -0.1512 -0.9724
 2996TIP3    H230548   6.133   3.003   7.925  3.0521  0.7623 -1.8616
 2997TIP3   OH230549   5.839   3.785   1.518  0.7066  0.0775 -0.0437
 2997TIP3    H130550   5.902   3.769   1.589  0.7502  0.2174 -0.0509
 2997TIP3    H230551   5.871   3.864   1.476  1.0766 -0.3881 -0.6543
 2998TIP3   OH230552   1.855   3.870   7.559  0.4631 -0.2893 -0.6843
 2998TIP3    H130553   1.786   3.874   7.626  0.6794  0.7142 -0.5158
 2998TIP3    H230554   1.821   3.922   7.486  1.0086  0.1537 -0.6295
 2999TIP3   OH230555   1.850   6.288   8.076  0.0499 -0.3229 -0.1984
 2999TIP3    H130556   1.765   6.330   8.088  0.1670 -0.2148  0.2697
 2999TIP3    H230557   1.893   6.337   8.006  0.4516  0.7546  0.7809
 3000TIP3   OH230558   5.350   5.873   1.992  0.4054 -0.0920 -0.3444
 3000TIP3    H130559   5.288   5.889   1.921  0.8928  1.4304 -0.4595
 3000TIP3    H230560   5.397   5.956   2.002  0.1284 -0.1530  1.9627
 3001TIP3   OH230561   6.585   3.915   8.526  0.4962  0.0021 -0.1550
 3001TIP3    H130562   6.638   3.866   8.462  2.8530  1.2342  0.7299
 3001TIP3    H230563   6.566   3.851   8.595  0.0156 -0.6925 -0.9044
 3002TIP3   OH230564   1.647   3.165   8.364  0.1980  0.0539  0.2985
 3002TIP3    H130565   1.688   3.175   8.279 -0.9570 -0.5381 -0.3610
 3002TIP3    H230566   1.661   3.073   8.387 -2.8685 -0.9184 -1.1628
 3003TIP3   OH230567   0.367   3.290   7.233 -0.5195  0.2620  0.5016
 3003TIP3    H130568   0.435   3.225   7.255 -1.1756  0.2028  2.5528
 3003TIP3    H230569   0.383   3.310   7.141  1.2351 -0.9947  0.4668
 3004TIP3   OH230570   3.224   4.245   0.404 -0.0936 -0.2598  0.0809
 3004TIP3    H130571   3.208   4.313   0.469 -0.4745 -0.6737  0.4262
 3004TIP3    H230572   3.290   4.189   0.445 -1.7815 -1.6788  1.0073
 3005TIP3   OH230573   0.139   0.970   0.083 -0.2020 -0.1121  0.5746
 3005TIP3    H130574   0.075   0.962   0.154 -2.6370 -1.4325 -1.5972
 3005TIP3    H230575   0.224   0.955   0.125 -1.4690 -0.2712  3.2688
 3006TIP3   OH230576   6.048   5.864   0.878  0.2484  0.3916 -0.1436
 3006TIP3    H130577   5.989   5.876   0.803  0.2564 -1.5384 -0.5248
 3006TIP3    H230578   6.134   5.890   0.845 -0.3238  3.3506  0.4552
 3007TIP3   OH230579   5.419   2.655   0.953  0.1995 -0.1132  0.2832
 3007TIP3    H130580   5.356   2.602   1.001  0.9443 -0.4744  0.8883
 3007TIP3    H230581   5.397   2.746   0.975 -0.9602 -0.1605 -0.6056
 3008TIP3   OH230582   5.328   3.771   7.857 -0.0184 -0.3004 -0.1374
 3008TIP3    H130583   5.297   3.839   7.797 -1.2442  0.6189  1.4344
 3008TIP3    H230584   5.421   3.789   7.866 -0.0715  0.3681 -0.7559
 3009TIP3   OH230585   5.262   2.532   8.632 -0.2881 -0.6694  0.3878
 3009TIP3    H130586   5.260   2.575   8.717  0.2568 -1.2196  0.6905
 3009TIP3    H230587   5.199   2.581   8.579  3.3853  3.4037 -0.7184
 3010TIP3   OH230588   3.237   0.466   6.909 -0.2478  0.2082 -0.0854
 3010TIP3    H130589   3.254   0.559   6.893  1.8269 -0.0949  0.1194
 3010TIP3    H230590   3.180   0.465   6.986 -0.0532  1.3016  0.0960
 3011TIP3   OH230591   3.425   1.926   1.507 -0.2677 -0.2885  0.3453
 3011TIP3    H130592   3.420   1.993   1.439 -1.4226  1.3954  1.9938
 3011TIP3    H230593   3.337   1.887   1.509  0.2431 -1.5593 -0.2382
 3012TIP3   OH230594   1.089   1.261   8.049 -0.4020 -0.1052  0.0962
 3012TIP3    H130595   1.017   1.236   7.992 -0.7651 -1.2204  1.0088
 3012TIP3    H230596   1.049   1.322   8.112 -0.5292 -0.6227  0.5224
 3013TIP3   OH230597   3.234   4.650   8.470  0.8890  0.1026 -0.5207
 3013TIP3    H130598   3.189   4.585   8.416 -0.2580  1.6366 -1.4735
 3013TIP3    H230599   3.204   4.735   8.437  0.0748  1.1593  2.5740
 3014TIP3   OH230600   4.606   4.953   1.017  0.1539  0.2581  0.3683
 3014TIP3    H130601   4.564   4.871   1.042 -0.2874 -0.2969 -1.9271
 3014TIP3    H230602   4.692   4.927   0.985  0.0134  0.6731 -0.3780
 3015TIP3   OH230603   1.301   5.213   7.928 -0.4325 -0.0597 -0.3504
 3015TIP3    H130604   1.270   5.198   7.839 -0.8397 -1.7118  0.0357
 3015TIP3    H230605   1.236   5.272   7.966 -1.4017 -0.9624 -0.5431
 3016TIP3   OH230606   5.582   4.770   2.130  0.0622 -0.0172  0.2296
 3016TIP3    H130607   5.538   4.736   2.052 -1.5447  0.6957  0.7853
 3016TIP3    H230608   5.562   4.706   2.199  2.0541 -1.0113 -0.0487
 3017TIP3   OH230609   5.886   4.882   7.554 -0.0146  0.3186 -0.4457
 3017TIP3    H130610   5.938   4.899   7.633  0.0127 -0.6653 -0.2478
 3017TIP3    H230611   5.796   4.878   7.586 -0.0814  0.6232 -0.5835
 3018TIP3   OH230612   3.349   6.447   1.445 -0.2310  0.3797 -0.6018
 3018TIP3    H130613   3.374   6.407   1.528 -2.3025 -2.9355 -1.3802
 3018TIP3    H230614   3.307   6.529   1.470 -2.1393 -1.1820  1.8604
 3019TIP3   OH230615   6.189   2.470   6.799 -0.6692 -0.2536 -0.4202
 3019TIP3    H130616   6.260   2.470   6.734 -0.0129  1.9648  0.2286
 3019TIP3    H230617   6.162   2.562   6.806 -2.7155 -0.8531  0.3509
 3020TIP3   OH230618   5.543   2.189   8.362 -0.5850  0.6315  0.5840
 3020TIP3    H130619   5.632   2.175   8.330 -0.2895  1.0377  1.2062
 3020TIP3    H230620   5.506   2.101   8.371 -0.2209  0.4577  0.4063
 3021TIP3   OH230621   1.397   3.287   0.482  0.6579  0.0087 -0.1296
 3021TIP3    H130622   1.415   3.378   0.462  0.1257 -0.2182 -1.7992
 3021TIP3    H230623   1.304   3.284   0.504  1.1063  0.1586  2.0336
 3022TIP3   OH230624   0.012   1.657   2.299 -0.1496  0.0856  1.0604
 3022TIP3    H130625  -0.070   1.607   2.299 -0.0054 -0.1521  0.8856
 3022TIP3    H230626  -0.009   1.737   2.346 -1.4364  1.6399 -1.9257
 3023TIP3   OH230627   1.405   6.002   8.408 -0.2050 -0.1411  0.3820
 3023TIP3    H130628   1.418   5.918   8.362 -0.6140  0.8084 -1.5733
 3023TIP3    H230629   1.418   5.981   8.500  1.6346 -1.9776 -0.2194
 3024TIP3   OH230630   2.458   4.445   6.842  0.1172 -0.3431  0.1252
 3024TIP3    H130631   2.394   4.514   6.857 -0.2704 -0.8164  0.7010
 3024TIP3    H230632   2.417   4.387   6.778 -0.0735 -0.6933  0.5596
 3025TIP3   OH230633   5.810   0.598   8.084  0.3641 -0.3331 -0.1683
 3025TIP3    H130634   5.835   0.688   8.066  0.3911 -0.8336 -3.0777
 3025TIP3    H230635   5.715   0.602   8.099 -0.0132 -0.0168 -2.3526
 3026TIP3   OH230636   6.314   2.517   0.806 -0.3469  0.3018 -0.1471
 3026TIP3    H130637   6.245   2.584   0.807 -0.5370  0.1658 -1.7028
 3026TIP3    H230638   6.314   2.485   0.716  1.3170 -0.1608 -0.0022
 3027TIP3   OH230639   4.396   3.209   6.633  0.3610 -0.2035 -0.4844
 3027TIP3    H130640   4.459   3.199   6.705  1.4970  2.0338 -1.0598
 3027TIP3    H230641   4.413   3.135   6.575 -0.2907 -1.8204  1.2784
 3028TIP3   OH230642   2.983   5.796   7.857  0.0168 -0.1605 -0.1819
 3028TIP3    H130643   3.061   5.745   7.835 -1.1504 -2.0368 -0.1621
 3028TIP3    H230644   2.981   5.866   7.792  1.4275 -0.3614 -0.4830
 3029TIP3   OH230645   5.311   1.368   7.486 -0.0958 -0.0311 -0.4596
 3029TIP3    H130646   5.392   1.326   7.459  0.1588 -0.6735  1.2124
 3029TIP3    H230647   5.339   1.449   7.528 -0.3432 -0.1083 -0.1441
 3030TIP3   OH230648   5.214   4.749   1.239  0.3225  0.4898 -0.3261
 3030TIP3    H130649   5.159   4.825   1.255 -0.5236  0.1905 -1.6590
 3030TIP3    H230650   5.200   4.693   1.315  1.6119  1.9876  1.0918
 3031TIP3   OH230651   4.232   1.027   0.766  0.0015 -0.3598 -0.5428
 3031TIP3    H130652   4.237   0.939   0.805  0.6038 -0.1814 -0.2028
 3031TIP3    H230653   4.232   1.086   0.841  1.1388 -0.0126 -0.7934
 3032TIP3   OH230654   0.628   4.983   0.145  0.1827 -0.3307 -0.0357
 3032TIP3    H130655   0.566   4.927   0.099 -0.7677  0.4002  0.3382
 3032TIP3    H230656   0.608   4.970   0.238 -0.3297  0.9231  0.0460
 3033TIP3   OH230657   5.558   2.416   0.577 -0.0320  0.1331 -0.1052
 3033TIP3    H130658   5.616   2.347   0.547 -0.2241  0.5592 -1.5488
 3033TIP3    H230659   5.500   2.373   0.640 -0.1384 -1.0259 -0.9568
 3034TIP3   OH230660   0.165   5.643   0.880  0.5522  0.5409 -0.3052
 3034TIP3    H130661   0.091   5.669   0.935  2.4338  0.3820  2.4905
 3034TIP3    H230662   0.204   5.726   0.852 -0.5434  0.6240 -1.7065
 3035TIP3   OH230663   1.600   3.614   0.701 -0.4437 -0.3310 -0.2383
 3035TIP3    H130664   1.578   3.687   0.759  0.2818  0.2780 -0.7165
 3035TIP3    H230665   1.695   3.609   0.703 -0.4300 -0.5531 -1.0641
 3036TIP3   OH230666   1.798   4.434   1.200 -0.3759  0.2583 -0.3253
 3036TIP3    H130667   1.713   4.420   1.241 -0.4699 -2.1161 -1.1482
 3036TIP3    H230668   1.808   4.360   1.141  1.8266  1.0344 -1.0138
 3037TIP3   OH230669   5.729   6.745   6.472 -0.2827  0.2372 -0.4387
 3037TIP3    H130670   5.705   6.653   6.460 -2.1348  0.7550 -0.8922
 3037TIP3    H230671   5.672   6.776   6.542  1.3220  0.7119  0.7219
 3038TIP3   OH230672   4.269   0.870   7.958 -0.1614  0.3411  0.1689
 3038TIP3    H130673   4.199   0.929   7.930  0.3605  0.2321 -1.4901
 3038TIP3    H230674   4.350   0.917   7.937  0.2740  0.0073  1.0487
 3039TIP3   OH230675   3.097   1.920   7.912 -0.2491 -0.5672 -0.7047
 3039TIP3    H130676   3.002   1.934   7.903 -0.6508 -2.7667 -0.6061
 3039TIP3    H230677   3.136   1.972   7.842 -1.5740  0.0175 -1.0416
 3040TIP3   OH230678   2.405   2.585   0.034 -0.0288  0.7740 -0.3146
 3040TIP3    H130679   2.372   2.673   0.053  0.9361  1.1707 -0.3986
 3040TIP3    H230680   2.459   2.596  -0.044 -0.8800 -0.1343 -1.0545
 3041TIP3   OH230681   0.506   4.957   0.410 -0.2430  0.4536 -0.4523
 3041TIP3    H130682   0.538   5.012   0.481 -0.9315  0.6790 -0.3073
 3041TIP3    H230683   0.423   4.997   0.384 -1.5261 -1.3240  0.6434
 3042TIP3   OH230684   3.323   6.463   6.568 -0.1451  0.1417  0.5850
 3042TIP3    H130685   3.278   6.417   6.497 -0.5711  1.9851 -0.3817
 3042TIP3    H230686   3.293   6.418   6.648 -2.1025  0.0085 -0.1726
 3043TIP3   OH230687   6.605   5.160   1.164 -0.2078 -0.3973  0.4064
 3043TIP3    H130688   6.512   5.182   1.154  0.4489  2.5568 -0.3835
 3043TIP3    H230689   6.637   5.147   1.075  0.1792 -1.2450  0.6616
 3044TIP3   OH230690   1.782   5.106   0.529 -0.1435  0.8435 -0.2232
 3044TIP3    H130691   1.863   5.067   0.496  0.3079 -0.8040  2.5222
 3044TIP3    H230692   1.801   5.200   0.534  2.1057  0.3753  1.4994
 3045TIP3   OH230693   2.236   0.543   0.833 -0.2216  0.2998 -0.9931
 3045TIP3    H130694   2.226   0.636   0.853 -0.1673  0.5926 -2.2780
 3045TIP3    H230695   2.329   0.526   0.848 -0.7100 -0.2687  2.0337
 3046TIP3   OH230696   0.919   6.215   0.756 -0.5754 -0.0068 -0.3917
 3046TIP3    H130697   0.890   6.173   0.837 -2.4580  0.7208 -0.6432
 3046TIP3    H230698   0.987   6.157   0.722  0.5103 -0.1646  1.8533
 3047TIP3   OH230699   0.810   2.576   7.491  0.2076  0.2370 -0.0757
 3047TIP3    H130700   0.814   2.629   7.571 -1.7011 -0.2768  0.4248
 3047TIP3    H230701   0.887   2.601   7.441  1.4120  0.6553  1.8758
 3048TIP3   OH230702   5.932   4.745   0.966  0.0791 -0.0799  0.5663
 3048TIP3    H130703   5.924   4.651   0.953  1.1428 -0.2522  0.9957
 3048TIP3    H230704   5.882   4.784   0.894 -0.3004 -0.9694  0.3383
 3049TIP3   OH230705   1.960   0.010   0.967 -0.0903 -0.3584  0.0173
 3049TIP3    H130706   1.893   0.011   1.036  1.3825  2.0401  1.5514
 3049TIP3    H230707   1.955   0.097   0.927  2.2626 -0.0119  0.3733
 3050TIP3   OH230708   1.263   1.793   6.477  0.5038  0.0063 -0.5349
 3050TIP3    H130709   1.304   1.707   6.464  0.6148 -0.0376  0.0736
 3050TIP3    H230710   1.195   1.778   6.542 -0.0313  0.2211 -1.0378
 3051TIP3   OH230711   4.986   0.369   1.027  0.2864 -0.2754 -0.1669
 3051TIP3    H130712   4.931   0.321   0.965 -0.4967 -1.1322  1.1491
 3051TIP3    H230713   5.063   0.395   0.975 -0.4310 -0.7708 -1.5343
 3052TIP3   OH230714   6.771   4.261   6.606 -0.5449  0.4946 -0.2492
 3052TIP3    H130715   6.846   4.297   6.654  0.5595 -2.5591  0.4963
 3052TIP3    H230716   6.767   4.169   6.633 -2.5071 -0.2887 -2.8604
 3053TIP3   OH230717   2.961   3.301   8.109  0.5420 -0.2666 -0.2719
 3053TIP3    H130718   3.025   3.230   8.111  0.9265  0.0472 -0.8813
 3053TIP3    H230719   2.876   3.257   8.098  0.4243 -0.7948  2.1791
 3054TIP3   OH230720   2.878   4.429   8.399 -0.0399 -0.0713  0.6019
 3054TIP3    H130721   2.848   4.520   8.402  0.4815  0.1237  0.1157
 3054TIP3    H230722   2.848   4.397   8.314  1.4143  0.2426 -0.0624
 3055TIP3   OH230723   4.202   2.771   0.135  0.4020  0.3259  0.1382
 3055TIP3    H130724   4.262   2.837   0.100  1.1761 -0.2627  0.3325
 3055TIP3    H230725   4.247   2.688   0.120 -1.2769 -0.3438 -1.6577
 3056TIP3   OH230726   1.557   2.644   7.465 -0.1635 -0.4190  0.1344
 3056TIP3    H130727   1.626   2.600   7.414 -0.6177 -0.6320 -0.3062
 3056TIP3    H230728   1.577   2.622   7.556  0.8287  0.2022  0.0872
 3057TIP3   OH230729   2.920   4.422   8.825  0.0150 -0.1781  0.1345
 3057TIP3    H130730   2.980   4.348   8.826 -0.0249 -0.2124  0.0488
 3057TIP3    H230731   2.872   4.415   8.907  1.2030  0.7460  0.9383
 3058TIP3   OH230732   4.132   0.304   1.504  0.1819  0.1644  0.1423
 3058TIP3    H130733   4.089   0.384   1.534  2.2367  0.2654  3.2033
 3058TIP3    H230734   4.220   0.332   1.479 -0.2330 -0.6193 -2.5087
 3059TIP3   OH230735   0.173   5.857   0.319 -0.0019  0.7080  1.1224
 3059TIP3    H130736   0.243   5.810   0.365  1.0362  1.1032 -0.0206
 3059TIP3    H230737   0.211   5.881   0.235 -1.3637  1.3636  0.6689
 3060TIP3   OH230738   2.402   0.617   7.309  0.2232 -0.1949 -0.3816
 3060TIP3    H130739   2.486   0.649   7.340  0.9712 -0.1971 -2.2607
 3060TIP3    H230740   2.349   0.607   7.388  1.8506  0.1628  0.8049
 3061TIP3   OH230741   6.559   2.954   1.366  0.0487 -0.3363  0.2024
 3061TIP3    H130742   6.532   2.980   1.454 -0.4816  0.6711 -0.2452
 3061TIP3    H230743   6.496   2.995   1.308 -0.5856 -2.3220 -0.5996
 3062TIP3   OH230744   5.338   6.093   7.066  1.2525 -0.3221 -0.8348
 3062TIP3    H130745   5.295   6.057   6.989  1.7348  0.3100 -1.4114
 3062TIP3    H230746   5.272   6.150   7.107  0.1300 -2.5381  0.6450
 3063TIP3   OH230747   5.093   2.264   1.113  0.1104 -0.0792 -0.3670
 3063TIP3    H130748   5.088   2.297   1.202  0.0632  1.1043 -0.7962
 3063TIP3    H230749   5.003   2.266   1.081  0.1786 -0.1387 -0.5645
 3064TIP3   OH230750   2.041   2.685   1.326 -0.1013  0.7625  0.0231
 3064TIP3    H130751   2.097   2.634   1.385 -0.6003  1.0162  0.7342
 3064TIP3    H230752   2.067   2.658   1.238  0.9928  0.7410  0.3477
 3065TIP3   OH230753   5.617   0.547   1.896 -0.4298  0.4050  0.4615
 3065TIP3    H130754   5.574   0.535   1.981 -2.0729  0.4813 -0.3353
 3065TIP3    H230755   5.580   0.479   1.840  0.6972  0.3074 -0.1976
 3066TIP3   OH230756   5.276   5.822   6.612 -0.2165  0.5372 -0.0958
 3066TIP3    H130757   5.233   5.746   6.652  1.8259  0.2866  1.8197
 3066TIP3    H230758   5.339   5.851   6.678 -1.4907  4.4815 -0.3759
 3067TIP3   OH230759   4.371   0.433   1.380  0.9235  0.1068 -0.3791
 3067TIP3    H130760   4.422   0.399   1.453 -0.1550 -1.3927 -0.2737
 3067TIP3    H230761   4.436   0.463   1.317  2.0041 -2.3673 -0.5452
 3068TIP3   OH230762   4.642   1.868   0.460 -0.0638 -0.0897  0.3892
 3068TIP3    H130763   4.705   1.937   0.480  1.1151 -1.4542  1.5930
 3068TIP3    H230764   4.628   1.875   0.366  1.6995  0.4312  0.1301
 3069TIP3   OH230765   6.534   6.384   0.587 -0.1470 -0.0126 -0.0327
 3069TIP3    H130766   6.479   6.409   0.513 -1.7992 -0.6371  0.9027
 3069TIP3    H230767   6.510   6.292   0.603  0.5703 -0.0426  0.9250
 3070TIP3   OH230768   4.779   0.659   7.402 -0.1544  0.4842 -0.0944
 3070TIP3    H130769   4.833   0.581   7.389  0.1279  0.7664 -0.6812
 3070TIP3    H230770   4.695   0.636   7.361 -0.2661  0.2836  0.2417
 3071TIP3   OH230771   1.718   5.367   1.873  0.0264  0.0235 -0.2538
 3071TIP3    H130772   1.637   5.352   1.825  0.0162  0.2985 -0.3243
 3071TIP3    H230773   1.728   5.289   1.928 -1.1132  0.6762  0.9295
 3072TIP3   OH230774   4.572   5.987   0.826  0.4057  0.0696  0.1251
 3072TIP3    H130775   4.539   5.975   0.737  0.0250  0.1835  0.2509
 3072TIP3    H230776   4.666   5.969   0.819  0.2854 -0.4618 -0.1886
 3073TIP3   OH230777   6.635   0.922   8.491  0.0203  0.3302  0.4340
 3073TIP3    H130778   6.544   0.951   8.483 -0.0828 -0.2691 -0.9118
 3073TIP3    H230779   6.657   0.936   8.583 -0.7163  2.5468  0.3170
 3074TIP3   OH230780   0.989   0.611   1.133  0.3188  0.0679 -0.4949
 3074TIP3    H130781   1.046   0.600   1.208  0.6586  0.1586 -0.7375
 3074TIP3    H230782   0.911   0.654   1.168 -0.3765 -1.6433  0.1686
 3075TIP3   OH230783   1.484   4.225   1.230 -0.6301 -0.2540  0.2613
 3075TIP3    H130784   1.457   4.134   1.222 -0.4153 -0.5841  2.6339
 3075TIP3    H230785   1.506   4.236   1.322 -0.2608  2.1047 -0.0344
 3076TIP3   OH230786   3.934   4.849   0.697 -0.3336  0.1391 -0.5128
 3076TIP3    H130787   3.979   4.776   0.654 -0.2071 -1.0802  1.5279
 3076TIP3    H230788   3.841   4.826   0.691 -0.3443  0.1977 -0.5617
 3077TIP3   OH230789   4.227   6.350   7.701 -0.1264  0.4945 -0.6082
 3077TIP3    H130790   4.211   6.311   7.788  1.4758 -3.1962 -1.7476
 3077TIP3    H230791   4.140   6.359   7.663 -0.7041 -1.5382  0.0412
 3078TIP3   OH230792   5.058   1.647   7.037  0.3025  0.0591 -0.7747
 3078TIP3    H130793   5.003   1.649   6.958 -0.1297 -0.6390 -0.4995
 3078TIP3    H230794   5.024   1.717   7.092  0.1925  0.1266 -0.9266
 3079TIP3   OH230795   1.157   1.595   0.935  0.0077  0.5209  0.3255
 3079TIP3    H130796   1.078   1.638   0.969 -2.5044 -0.5777 -3.4338
 3079TIP3    H230797   1.139   1.502   0.944  2.6257  0.1163  2.6502
 3080TIP3   OH230798   4.388   2.175   0.413  0.1303 -0.0993  0.9581
 3080TIP3    H130799   4.403   2.086   0.380 -1.0563 -0.2341  0.7280
 3080TIP3    H230800   4.333   2.216   0.345  1.4789  1.1459  0.5771
 3081TIP3   OH230801   5.093   5.558   7.068  0.7326 -0.9722  0.3542
 3081TIP3    H130802   5.035   5.530   7.139  0.4220 -1.2845 -0.0150
 3081TIP3    H230803   5.150   5.624   7.108 -1.1809  0.8419  0.2565
 3082TIP3   OH230804   5.511   4.007   0.371 -0.4937 -0.3179  0.4385
 3082TIP3    H130805   5.558   4.055   0.439  0.0977  0.6841 -0.6480
 3082TIP3    H230806   5.419   4.023   0.389 -0.3524 -0.2959  1.1633
 3083TIP3   OH230807   3.726   4.816   7.751  0.6283  0.2716 -0.0767
 3083TIP3    H130808   3.769   4.760   7.816 -1.8833  0.9876  2.3831
 3083TIP3    H230809   3.769   4.901   7.760  0.4878  0.2876  0.4681
 3084TIP3   OH230810   1.249   5.862   0.378  0.4474 -0.1151 -0.5907
 3084TIP3    H130811   1.321   5.890   0.435 -0.9071 -1.3622  1.9275
 3084TIP3    H230812   1.175   5.853   0.438 -1.1738 -1.2486 -2.6616
 3085TIP3   OH230813   2.016   0.999   7.276 -0.4556  0.4013 -0.6560
 3085TIP3    H130814   1.959   0.960   7.210  2.0450 -1.8543 -1.6854
 3085TIP3    H230815   2.072   0.927   7.304  0.7966  2.1025  1.5007
 3086TIP3   OH230816   5.582   3.215   0.859  0.3031 -0.0727  0.5075
 3086TIP3    H130817   5.531   3.251   0.786  1.1665  0.4315  0.1465
 3086TIP3    H230818   5.523   3.221   0.934  0.6342  2.8315  0.6454
 3087TIP3   OH230819   3.683   5.614   0.963  0.2444  0.3867  0.2358
 3087TIP3    H130820   3.745   5.629   1.034  0.2592  0.2731  0.2472
 3087TIP3    H230821   3.648   5.527   0.980  2.4726 -1.0036 -1.5397
 3088TIP3   OH230822   0.643   3.196   7.280  0.3142  0.1291  0.3396
 3088TIP3    H130823   0.689   3.117   7.251  1.6497  0.7638  0.6568
 3088TIP3    H230824   0.663   3.261   7.213 -1.4763  0.0172 -0.3733
 3089TIP3   OH230825   5.891   4.968   8.058 -0.3904  0.2267 -0.1167
 3089TIP3    H130826   5.855   4.937   8.140 -1.7920 -0.8953 -1.0976
 3089TIP3    H230827   5.845   5.050   8.040  0.7945  1.1147  0.7779
 3090TIP3   OH230828   0.512   4.582   1.570  0.4554 -0.2191  0.1165
 3090TIP3    H130829   0.463   4.662   1.548 -0.5212 -0.4980  1.1762
 3090TIP3    H230830   0.508   4.577   1.665 -1.3183 -2.6004  0.0127
 3091TIP3   OH230831   6.452   5.393   7.937  0.4522  0.4985  0.5929
 3091TIP3    H130832   6.523   5.394   7.872  1.6613  2.3997  1.8417
 3091TIP3    H230833   6.497   5.398   8.021 -1.1565  0.4869  1.4806
 3092TIP3   OH230834   4.490   4.692   7.867 -0.0033 -0.3983 -0.2575
 3092TIP3    H130835   4.490   4.787   7.853 -2.5513  0.0020  1.7203
 3092TIP3    H230836   4.403   4.664   7.838  0.5575 -2.0604 -0.3838
 3093TIP3   OH230837   4.037   6.314   8.063  0.0797 -0.1295 -0.0117
 3093TIP3    H130838   4.000   6.252   8.001 -0.9989  0.4415  0.0342
 3093TIP3    H230839   4.047   6.264   8.144 -0.0808 -0.4432 -0.1837
 3094TIP3   OH230840   6.407   6.468   0.352  0.0688  0.1632  0.5485
 3094TIP3    H130841   6.327   6.431   0.315 -0.7724  1.9436  0.4901
 3094TIP3    H230842   6.460   6.489   0.275 -0.1107  0.4937  0.5148
 3095TIP3   OH230843   2.683   0.713   1.303 -0.6282  0.2452  0.2607
 3095TIP3    H130844   2.681   0.621   1.277 -0.4434 -0.1836  1.6974
 3095TIP3    H230845   2.776   0.737   1.299 -0.5948  0.1675  0.5420
 3096TIP3   OH230846   3.810   5.573   7.284 -0.5650 -0.3662  0.1667
 3096TIP3    H130847   3.834   5.639   7.220 -2.2763 -0.5142 -0.7046
 3096TIP3    H230848   3.811   5.491   7.235  1.1854 -0.9807  1.1474
 3097TIP3   OH230849   5.067   5.571   7.380  0.3771 -0.2790  0.1481
 3097TIP3    H130850   5.022   5.525   7.450  0.4825  0.1330  0.4912
 3097TIP3    H230851   5.145   5.519   7.362  1.4489  0.6859  1.7711
 3098TIP3   OH230852   6.379   1.292   0.662  0.0614 -0.5108 -0.1562
 3098TIP3    H130853   6.315   1.295   0.733  0.4638 -2.0640  0.3231
 3098TIP3    H230854   6.334   1.329   0.587 -1.0324 -0.5947  0.4416
 3099TIP3   OH230855   3.272   3.154   7.328 -0.4318  0.1420 -0.3354
 3099TIP3    H130856   3.340   3.201   7.376 -1.9192 -0.4703  2.6607
 3099TIP3    H230857   3.232   3.220   7.272  1.0788  1.0695 -0.3675
 3100TIP3   OH230858   4.748   3.828   7.192  0.1824  0.3306  0.4158
 3100TIP3    H130859   4.803   3.800   7.265 -1.1264  0.4500  1.4953
 3100TIP3    H230860   4.806   3.881   7.137  1.9452 -2.0560 -0.1666
 3101TIP3   OH230861   1.480   6.141   6.270 -0.1055 -0.2252 -0.1560
 3101TIP3    H130862   1.533   6.063   6.288  1.2162  0.7158  0.1754
 3101TIP3    H230863   1.403   6.131   6.325 -1.2328 -2.5009 -1.9592
 3102TIP3   OH230864   3.918   2.880   2.007  0.1944  0.2958 -0.2398
 3102TIP3    H130865   3.864   2.803   2.023  0.6912  0.0440  0.2638
 3102TIP3    H230866   4.005   2.856   2.041  0.8657  0.3594 -1.8199
 3103TIP3   OH230867   1.164   6.606   8.150 -0.0052 -0.1169 -0.1574
 3103TIP3    H130868   1.084   6.557   8.132 -0.2438  0.1427  0.1697
 3103TIP3    H230869   1.150   6.691   8.109  1.0436 -0.8142 -2.0800
 3104TIP3   OH230870   6.402   0.633   7.256 -0.2307  0.1087 -0.0212
 3104TIP3    H130871   6.315   0.602   7.232 -0.6250  1.5322 -0.5437
 3104TIP3    H230872   6.388   0.723   7.285  0.9181 -0.0076  0.9946
 3105TIP3   OH230873   2.707   1.066   0.768 -0.3771 -0.4596 -0.3144
 3105TIP3    H130874   2.679   1.151   0.736 -0.9158 -0.7685 -0.6800
 3105TIP3    H230875   2.694   1.007   0.694 -0.9597 -1.0464  0.2386
 3106TIP3   OH230876   2.952   4.887   0.911  0.4176 -0.2958  0.3142
 3106TIP3    H130877   2.944   4.935   0.994 -0.4903 -0.3776  0.2934
 3106TIP3    H230878   3.020   4.933   0.863 -1.3076  1.8633 -0.2518
 3107TIP3   OH230879   0.722   5.177   7.339  0.2037  0.6247 -0.0157
 3107TIP3    H130880   0.657   5.224   7.391  1.1982 -1.1762  3.1237
 3107TIP3    H230881   0.801   5.177   7.393  0.8991 -2.6216 -0.7775
 3108TIP3   OH230882   0.746   5.496   0.261 -0.4311 -0.2555 -0.1716
 3108TIP3    H130883   0.746   5.582   0.219  0.3933 -0.5374 -0.7641
 3108TIP3    H230884   0.778   5.513   0.350 -1.9863  0.3057  0.3240
 3109TIP3   OH230885   0.580   2.254   0.287  0.6671 -0.2911  0.1413
 3109TIP3    H130886   0.529   2.332   0.312  0.7125 -0.4254  0.6620
 3109TIP3    H230887   0.524   2.208   0.225  0.4088 -0.1237  0.2474
 3110TIP3   OH230888   1.148   0.457   7.067  0.1098  0.1451  0.2386
 3110TIP3    H130889   1.132   0.495   6.981  0.6282 -0.6904 -0.2341
 3110TIP3    H230890   1.060   0.446   7.105 -0.1449  0.1417 -0.3418
 3111TIP3   OH230891   1.255   3.173   1.728  0.2676  0.0272 -0.0126
 3111TIP3    H130892   1.346   3.200   1.742  0.1438  0.1848  0.4932
 3111TIP3    H230893   1.223   3.149   1.815 -0.3415  0.4858 -0.1024
 3112TIP3   OH230894   6.355   6.179   0.061 -0.4309  0.2480  0.1149
 3112TIP3    H130895   6.307   6.104   0.025 -0.7172 -0.3938  1.7393
 3112TIP3    H230896   6.289   6.230   0.109 -0.3682  1.9129 -1.4607
 3113TIP3   OH230897   6.267   6.362   1.220  0.0094  0.2917 -0.4236
 3113TIP3    H130898   6.316   6.281   1.204 -2.7174 -1.0093 -3.0714
 3113TIP3    H230899   6.197   6.337   1.280  0.1564  1.1567  0.1345
 3114TIP3   OH230900   2.227   0.331   6.550 -1.0726 -0.1257  0.1475
 3114TIP3    H130901   2.216   0.424   6.533  0.8860 -0.1305 -1.6368
 3114TIP3    H230902   2.260   0.295   6.467 -0.4219 -2.1336  1.1911
 3115TIP3   OH230903   1.707   6.565   8.083  0.5194  0.2005  0.1595
 3115TIP3    H130904   1.783   6.623   8.086 -0.7441  1.8884  1.0992
 3115TIP3    H230905   1.668   6.581   7.997 -0.1715  1.2634  0.6476
 3116TIP3   OH230906   1.349   0.050   0.938 -0.2839 -0.4497 -0.1740
 3116TIP3    H130907   1.391   0.076   0.856 -0.2463 -0.6870 -0.2310
 3116TIP3    H230908   1.395  -0.029   0.965 -0.3087 -0.3859  0.0674
 3117TIP3   OH230909   0.122   4.173   0.242  0.7112 -0.2524  0.5436
 3117TIP3    H130910   0.061   4.100   0.234 -0.2137  0.4033  1.4113
 3117TIP3    H230911   0.076   4.248   0.202  0.8882  0.2715  1.3015
 3118TIP3   OH230912   0.303   3.345   1.136  0.1614  0.2526  0.1873
 3118TIP3    H130913   0.384   3.311   1.174  0.6216 -1.0711 -1.8250
 3118TIP3    H230914   0.322   3.437   1.117  0.1022  0.7986  2.5124
 3119TIP3   OH230915   5.938   1.072   8.702 -0.0664  0.4693 -0.2952
 3119TIP3    H130916   5.898   1.028   8.777  0.7476  0.5804  0.2245
 3119TIP3    H230917   5.941   1.006   8.634  2.2315 -0.7341  0.8511
 3120TIP3   OH230918   1.717   5.354   6.058 -0.3077  0.2158  0.2696
 3120TIP3    H130919   1.714   5.411   5.981  0.7489  0.6788  0.5492
 3120TIP3    H230920   1.679   5.271   6.029  4.0830 -1.2449 -2.1982
 3121TIP3   OH230921   5.377   1.333   8.507 -0.0673 -0.0759 -0.4789
 3121TIP3    H130922   5.338   1.417   8.484  0.7042  0.3070 -0.4229
 3121TIP3    H230923   5.470   1.342   8.485  0.4108 -0.2314  1.3036
 3122TIP3   OH230924   2.199   3.509   8.251  0.1342  0.0819  0.4069
 3122TIP3    H130925   2.247   3.513   8.333 -0.8390 -0.3102  1.0145
 3122TIP3    H230926   2.263   3.532   8.184  0.7949  1.0290  1.3328
 3123TIP3   OH230927   4.530   4.886   7.364  0.3617  0.0549 -0.1469
 3123TIP3    H130928   4.479   4.965   7.382  0.9861  0.4831 -0.2502
 3123TIP3    H230929   4.471   4.814   7.388  0.1192  0.5605  0.8021
 3124TIP3   OH230930   1.018   3.174   1.335  0.0410  0.3875 -0.0274
 3124TIP3    H130931   0.976   3.247   1.380 -0.8458  0.0978 -0.3519
 3124TIP3    H230932   0.946   3.113   1.317  0.5060  0.1459 -1.1402
 3125TIP3   OH230933   4.272   5.432   0.858 -0.0912  0.1858 -0.2576
 3125TIP3    H130934   4.196   5.382   0.890  0.5111  0.1144  1.1361
 3125TIP3    H230935   4.242   5.471   0.776 -0.5201 -2.6291 -1.5895
 3126TIP3   OH230936   3.268   5.751   7.812 -0.0784  0.2828 -0.2400
 3126TIP3    H130937   3.304   5.745   7.901  2.5258  0.4767 -1.2104
 3126TIP3    H230938   3.244   5.661   7.790 -1.0298  0.2736  0.7359
 3127TIP3   OH230939   6.766   4.764   7.030 -0.4330 -0.9652 -0.4948
 3127TIP3    H130940   6.681   4.729   7.058  0.1435 -0.5386  1.9674
 3127TIP3    H230941   6.760   4.858   7.047  0.6806 -0.9991  0.1852
 3128TIP3   OH230942   1.402   2.002   6.623 -0.5322  0.3215 -0.1221
 3128TIP3    H130943   1.372   1.922   6.580  1.2015 -0.2317 -0.3725
 3128TIP3    H230944   1.391   2.071   6.557 -0.9086  0.0753 -0.3177
 3129TIP3   OH230945   1.764   6.593   6.337  0.7572 -0.2794  0.2027
 3129TIP3    H130946   1.801   6.527   6.395  0.0420  0.7440  1.8884
 3129TIP3    H230947   1.838   6.651   6.317  0.6395  0.4227  1.6576
 3130TIP3   OH230948   6.369   4.422   8.298 -0.0792  0.4137 -0.7599
 3130TIP3    H130949   6.349   4.345   8.351  0.8348  0.2291 -0.6665
 3130TIP3    H230950   6.328   4.404   8.213 -2.0020  0.9473  0.0135
 3131TIP3   OH230951   4.246   6.580   0.300 -0.1058 -0.0803  0.0905
 3131TIP3    H130952   4.200   6.575   0.216  1.0364 -1.3471 -0.5099
 3131TIP3    H230953   4.301   6.658   0.292 -0.0838 -0.1315 -0.2859
 3132TIP3   OH230954   1.095   4.523   0.207 -0.2599 -0.8709  0.0637
 3132TIP3    H130955   1.169   4.498   0.261 -0.0404 -0.1310  0.1117
 3132TIP3    H230956   1.123   4.506   0.117 -0.5291 -1.8487  0.1513
 3133TIP3   OH230957   6.395   2.466   6.546  0.1162  0.1943  0.0155
 3133TIP3    H130958   6.440   2.430   6.470 -0.6443  0.5511 -0.6229
 3133TIP3    H230959   6.302   2.457   6.525 -0.1959 -1.7711  1.8663
 3134TIP3   OH230960   5.370   1.530   1.415  0.5600 -0.1903  0.4993
 3134TIP3    H130961   5.345   1.450   1.370  1.0115 -0.0991  0.0805
 3134TIP3    H230962   5.301   1.592   1.396  0.1671 -0.4986  0.8905
 3135TIP3   OH230963   4.327   3.209   8.393  0.1460 -0.0895 -0.1513
 3135TIP3    H130964   4.298   3.122   8.365 -2.4371  0.3918  0.7680
 3135TIP3    H230965   4.301   3.267   8.322 -0.2585  0.2321  0.2583
 3136TIP3   OH230966   5.362   1.545   6.880  0.2318  0.3534 -0.5569
 3136TIP3    H130967   5.301   1.506   6.819 -1.6504  0.9284  0.8432
 3136TIP3    H230968   5.449   1.517   6.850 -0.8601 -4.5065  0.0802
 3137TIP3   OH230969   4.501   2.071   8.051  0.6011  0.3511  0.6350
 3137TIP3    H130970   4.521   1.992   8.001  0.2990  0.4255  0.3952
 3137TIP3    H230971   4.418   2.102   8.015  0.5650  0.6090  0.9349
 3138TIP3   OH230972   1.006   5.886   0.774 -0.5341 -0.3258  0.0078
 3138TIP3    H130973   1.014   5.898   0.868 -0.8608  0.0582 -0.0113
 3138TIP3    H230974   0.924   5.838   0.761 -0.9635  0.4293 -0.1335
 3139TIP3   OH230975   1.249   6.497   7.824  0.0416  0.4554  0.4225
 3139TIP3    H130976   1.195   6.570   7.796 -0.0851  0.0463 -0.4505
 3139TIP3    H230977   1.339   6.531   7.821 -0.0577  0.7231  0.5112
 3140TIP3   OH230978   4.525   5.110   2.030 -0.5030 -0.5494  0.6669
 3140TIP3    H130979   4.493   5.191   2.071 -2.1009 -1.3698  1.1157
 3140TIP3    H230980   4.485   5.111   1.943 -0.1548 -0.6389  0.5075
 3141TIP3   OH230981   4.677   1.932   6.703 -0.3258  0.3349 -0.5394
 3141TIP3    H130982   4.644   1.844   6.689 -1.9217  0.6877  0.6992
 3141TIP3    H230983   4.771   1.926   6.683 -0.6022 -1.3511 -1.5472
 3142TIP3   OH230984   1.317   5.225   0.040 -0.7084  0.0201  0.2809
 3142TIP3    H130985   1.235   5.218  -0.009 -0.3396  0.7569 -0.4659
 3142TIP3    H230986   1.299   5.291   0.108 -0.7892  0.0421  0.2376
 3143TIP3   OH230987   3.592   4.242   7.505  0.9624 -0.0626 -0.6461
 3143TIP3    H130988   3.540   4.238   7.425  0.6320  1.7686 -0.5745
 3143TIP3    H230989   3.542   4.194   7.570  0.7374 -0.7003 -1.2832
 3144TIP3   OH230990   1.963   5.045   7.410  0.2101  0.4493 -0.6765
 3144TIP3    H130991   1.971   4.980   7.480  1.3905  0.1041 -1.1041
 3144TIP3    H230992   1.903   5.110   7.445  0.5227  0.1175  0.5322
 3145TIP3   OH230993   4.740   0.921   6.376 -0.0445 -0.1466 -0.4214
 3145TIP3    H130994   4.824   0.877   6.363 -0.4928 -1.3575  0.5561
 3145TIP3    H230995   4.754   0.980   6.449  0.0726  0.0085 -0.5667
 3146TIP3   OH230996   3.911   4.865   5.768 -0.0535  0.4021  0.2845
 3146TIP3    H130997   3.893   4.806   5.695 -0.6097  0.6386  0.2248
 3146TIP3    H230998   3.838   4.852   5.829  0.4763  0.1039  0.8717
 3147TIP3   OH230999   4.978   5.615   1.501  0.2579  0.0688 -0.2371
 3147TIP3    H131000   5.000   5.685   1.440  0.4557  0.2603  0.0515
 3147TIP3    H231001   4.885   5.598   1.486 -0.2204  1.5430  0.8493
 3148TIP3   OH231002   4.426   5.280   8.468 -0.4902  0.0396 -0.0337
 3148TIP3    H131003   4.352   5.300   8.525  1.2981  1.0323  2.1072
 3148TIP3    H231004   4.468   5.205   8.509  0.9129  0.8617  0.0977
 3149TIP3   OH231005   1.077   3.580   8.785  0.2796  0.5975 -0.1920
 3149TIP3    H131006   1.013   3.516   8.817 -0.2038  1.2317  0.1379
 3149TIP3    H231007   1.142   3.528   8.738  0.1992 -0.1909  0.5503
 3150TIP3   OH231008   4.996   4.453   1.502 -0.0043 -0.4357 -0.2173
 3150TIP3    H131009   5.047   4.379   1.536  0.2244  0.3056  1.0983
 3150TIP3    H231010   5.056   4.527   1.506 -1.0081  0.3529  0.9054
 3151TIP3   OH231011   1.358   6.319   6.556  0.0727  0.0578  0.9489
 3151TIP3    H131012   1.389   6.368   6.480 -0.4399 -0.5298  0.3447
 3151TIP3    H231013   1.390   6.368   6.631  0.4809  0.7213  0.3538
 3152TIP3   OH231014   4.887   3.680   1.272  0.6116 -0.3104  0.8946
 3152TIP3    H131015   4.892   3.640   1.186 -1.9368 -2.3972  1.5738
 3152TIP3    H231016   4.911   3.771   1.258 -1.3045 -0.1549 -2.3887
 3153TIP3   OH231017   4.509   0.979   7.911  0.2328  0.0725  0.2846
 3153TIP3    H131018   4.506   1.069   7.877  0.6841  0.3506  0.9597
 3153TIP3    H231019   4.599   0.951   7.895 -0.0852 -0.5158 -0.5450
 3154TIP3   OH231020   5.458   4.450   2.240 -0.2748 -0.1883 -0.2554
 3154TIP3    H131021   5.412   4.368   2.258 -0.3558 -0.2322 -0.6554
 3154TIP3    H231022   5.548   4.435   2.270 -0.6890  0.1471  1.2193
 3155TIP3   OH231023   3.186   0.761   8.687 -0.2799  0.3588  0.3426
 3155TIP3    H131024   3.184   0.856   8.690  0.3190  0.3659  0.6474
 3155TIP3    H231025   3.195   0.734   8.779 -0.9590 -0.0104  0.3113
 3156TIP3   OH231026   0.451   0.534   8.001  0.1626  0.5775  0.2840
 3156TIP3    H131027   0.376   0.553   8.058  0.4407  0.9585  0.5343
 3156TIP3    H231028   0.525   0.531   8.061  0.5849  1.7822 -0.1397
 3157TIP3   OH231029   2.701   2.629   7.093  0.7276  0.5406  0.0965
 3157TIP3    H131030   2.666   2.691   7.157  1.4416  1.3465 -0.2869
 3157TIP3    H231031   2.643   2.638   7.017 -0.5369 -0.9024  0.8265
 3158TIP3   OH231032   3.705   1.507   8.481 -0.6475 -0.0238  0.0741
 3158TIP3    H131033   3.691   1.592   8.522 -1.7360 -0.1297 -0.0573
 3158TIP3    H231034   3.662   1.445   8.539 -3.2474 -0.0580 -1.7245
 3159TIP3   OH231035   6.577   0.273   6.115 -0.0205 -0.4883  0.2539
 3159TIP3    H131036   6.630   0.350   6.133  0.0503 -0.7813  1.3188
 3159TIP3    H231037   6.547   0.243   6.201 -0.9404 -1.0148 -0.2310
 3160TIP3   OH231038   6.679   4.783   7.768  0.0911 -0.1052 -0.3336
 3160TIP3    H131039   6.633   4.815   7.845 -1.6114 -0.3572 -1.2073
 3160TIP3    H231040   6.767   4.821   7.775 -1.0360  2.6619  0.0065
 3161TIP3   OH231041   4.919   6.386   6.577 -0.4513  0.6154  0.6473
 3161TIP3    H131042   4.839   6.335   6.563  0.1425 -0.9878  2.7112
 3161TIP3    H231043   4.921   6.402   6.671  1.8219  0.3337  0.6923
 3162TIP3   OH231044   3.087   3.299   1.129 -0.8024 -0.1248  0.1507
 3162TIP3    H131045   3.003   3.267   1.162 -0.3048  0.7820  2.4149
 3162TIP3    H231046   3.069   3.388   1.098 -1.3501 -1.0902 -2.5991
 3163TIP3   OH231047   3.372   2.620   7.769  0.2694  0.1869 -0.1950
 3163TIP3    H131048   3.347   2.675   7.695 -2.5619 -0.6729 -0.0146
 3163TIP3    H231049   3.313   2.648   7.840 -1.8401 -3.3647 -0.2977
 3164TIP3   OH231050   1.286   6.643   0.652  0.4391 -0.0579  0.2557
 3164TIP3    H131051   1.226   6.596   0.711 -0.1099 -0.3212 -0.5049
 3164TIP3    H231052   1.283   6.594   0.570  0.6692  0.6964 -0.2130
 3165TIP3   OH231053   2.250   6.607   7.773 -0.6826 -0.7613 -0.0659
 3165TIP3    H131054   2.162   6.644   7.781 -0.3548 -0.0580  0.4576
 3165TIP3    H231055   2.305   6.683   7.755 -0.3242 -1.3330 -1.4971
 3166TIP3   OH231056   6.648   3.319   1.429 -0.7293 -0.0478 -0.2598
 3166TIP3    H131057   6.641   3.229   1.399  1.6614  0.1501 -1.6521
 3166TIP3    H231058   6.646   3.313   1.525 -0.0555 -1.6572 -0.3147
 3167TIP3   OH231059   6.749   5.640   1.065 -0.7094  0.6190 -0.0226
 3167TIP3    H131060   6.682   5.709   1.073 -0.5869  0.6399  0.9344
 3167TIP3    H231061   6.784   5.630   1.153 -0.6099 -0.5639 -0.1771
 3168TIP3   OH231062   3.448   3.257   8.229  0.4025 -0.3106 -0.1662
 3168TIP3    H131063   3.362   3.270   8.271 -0.6699 -0.7680 -2.0803
 3168TIP3    H231064   3.440   3.171   8.186  2.1502 -0.7501  0.3249
 3169TIP3   OH231065   0.991   6.458   1.500  0.0511  0.5239 -0.4345
 3169TIP3    H131066   1.082   6.443   1.476  0.1594  1.4642 -0.6582
 3169TIP3    H231067   0.976   6.551   1.482 -1.0461  0.3189 -0.7153
 3170TIP3   OH231068   4.006   2.096   8.514  0.7835  0.7100 -0.5102
 3170TIP3    H131069   3.920   2.132   8.492 -0.1459 -1.3730 -0.5019
 3170TIP3    H231070   4.031   2.140   8.595 -2.1908 -1.4586  1.8123
 3171TIP3   OH231071   4.934   6.441   8.297  0.3902  0.2918  0.6912
 3171TIP3    H131072   4.891   6.473   8.218  2.1533  2.1382  0.3814
 3171TIP3    H231073   4.927   6.346   8.291  0.4407  0.3663 -1.6936
 3172TIP3   OH231074   2.303   1.219   1.556 -0.3190  0.3892 -0.1359
 3172TIP3    H131075   2.338   1.136   1.525 -0.1362 -0.1646  1.4418
 3172TIP3    H231076   2.283   1.204   1.649 -0.2833  2.0992  0.1960
 3173TIP3   OH231077   3.224   0.295   0.604 -0.0991 -0.2961  0.0991
 3173TIP3    H131078   3.319   0.308   0.602 -0.0985 -0.3339 -0.7076
 3173TIP3    H231079   3.209   0.224   0.541 -0.5601 -1.0243  0.9992
 3174TIP3   OH231080   5.402   3.920   0.986  0.5468  0.0548  0.5545
 3174TIP3    H131081   5.407   4.015   0.995  1.5232 -0.0528  1.2145
 3174TIP3    H231082   5.406   3.887   1.076  0.9175 -0.6370  0.2906
 3175TIP3   OH231083   5.309   6.026   1.300  0.4885  0.1044 -0.5365
 3175TIP3    H131084   5.249   6.088   1.343 -2.6624 -2.4620 -0.8433
 3175TIP3    H231085   5.352   5.981   1.372 -0.9400 -0.6718 -0.1242
 3176TIP3   OH231086   5.609   3.814   7.896 -0.1249  0.0809  0.7239
 3176TIP3    H131087   5.653   3.895   7.921 -1.9099  0.9492  1.2583
 3176TIP3    H231088   5.586   3.773   7.979 -0.5640 -0.2019  0.4675
 3177TIP3   OH231089   0.471   0.144   6.742  0.3281  0.5143  0.4682
 3177TIP3    H131090   0.382   0.112   6.724 -0.1317  1.6563  0.6348
 3177TIP3    H231091   0.492   0.200   6.668  1.1793 -0.2781  0.1064
 3178TIP3   OH231092   2.867   2.326   0.336  0.4806 -0.4253 -0.2337
 3178TIP3    H131093   2.796   2.263   0.346  0.1909 -0.1520 -0.5427
 3178TIP3    H231094   2.866   2.376   0.417  0.5599 -0.6669 -0.0839
 3179TIP3   OH231095   3.843   5.839   8.101 -0.1507 -0.5648 -0.0908
 3179TIP3    H131096   3.934   5.860   8.122 -0.7044  1.4765  0.4402
 3179TIP3    H231097   3.845   5.814   8.009  0.5216  2.9132 -1.1576
 3180TIP3   OH231098   3.570   1.003   6.976 -1.1078 -0.8037  0.2837
 3180TIP3    H131099   3.618   0.921   6.967  0.4889  0.0397  0.8145
 3180TIP3    H231100   3.533   1.020   6.889  1.7629 -0.1697 -0.9094
 3181TIP3   OH231101   3.283   4.028   1.282 -0.2820  0.4027  0.7746
 3181TIP3    H131102   3.374   4.042   1.307 -0.3202  1.0209  0.6011
 3181TIP3    H231103   3.284   3.947   1.232  0.0005 -0.1386  1.6484
 3182TIP3   OH231104   5.886   3.723   8.067 -0.2378 -0.9534  0.0464
 3182TIP3    H131105   5.856   3.715   8.158  2.5988  0.9749  1.3267
 3182TIP3    H231106   5.916   3.635   8.044 -2.3279 -1.8002  0.4031
 3183TIP3   OH231107   5.471   6.081   6.651 -0.0562 -0.3077 -0.3847
 3183TIP3    H131108   5.469   6.164   6.602  0.3738 -1.3502 -2.2475
 3183TIP3    H231109   5.471   6.013   6.583  1.3329 -1.8297  1.0716
 3184TIP3   OH231110   5.435   3.296   0.620 -0.5108  0.2894  0.0426
 3184TIP3    H131111   5.421   3.201   0.615  0.1374  0.1579  0.5630
 3184TIP3    H231112   5.487   3.317   0.542 -0.3402  0.1565  0.1205
 3185TIP3   OH231113   6.553   6.775   6.866  0.1724  0.0489 -0.1580
 3185TIP3    H131114   6.546   6.856   6.916 -1.9257 -0.0451 -0.2355
 3185TIP3    H231115   6.580   6.710   6.931 -1.4840  0.1462  0.6906
 3186TIP3   OH231116   4.958   2.548   1.455 -0.2584 -0.2801 -0.1940
 3186TIP3    H131117   5.047   2.563   1.485 -0.3348  1.3578 -0.6844
 3186TIP3    H231118   4.903   2.581   1.526 -0.4997 -1.4684  0.1948
 3187TIP3   OH231119   3.875   6.668   0.023 -0.1031  0.2192  0.1396
 3187TIP3    H131120   3.793   6.656   0.071 -0.4092  1.7786  0.0620
 3187TIP3    H231121   3.854   6.645  -0.067 -0.6093  1.0970  0.0242
 3188TIP3   OH231122   2.519   5.228   1.337 -0.0925  0.2000 -0.1543
 3188TIP3    H131123   2.599   5.208   1.289  0.0091  1.6019 -0.6162
 3188TIP3    H231124   2.513   5.323   1.334 -1.1108  0.1861  0.9720
 3189TIP3   OH231125   2.338   2.479   0.894 -0.1833  0.1477 -0.3567
 3189TIP3    H131126   2.424   2.496   0.856  0.5443 -0.4535  0.9501
 3189TIP3    H231127   2.289   2.560   0.879 -0.0500 -0.1562 -2.7566
 3190TIP3   OH231128   4.603   2.419   0.656 -0.5197  0.2308 -0.4081
 3190TIP3    H131129   4.529   2.441   0.712 -1.8234 -1.4414 -1.3331
 3190TIP3    H231130   4.678   2.413   0.715 -0.8631  2.9522  0.4138
 3191TIP3   OH231131   0.618   4.822   7.111 -0.1029  0.5111 -0.0164
 3191TIP3    H131132   0.555   4.752   7.124  0.7851 -0.2424  0.3571
 3191TIP3    H231133   0.605   4.850   7.020  1.0578 -1.7435 -0.9645
 3192TIP3   OH231134   6.512   5.838   0.134 -0.0732 -0.1566  0.1277
 3192TIP3    H131135   6.500   5.787   0.214  1.0525  1.1724  1.1964
 3192TIP3    H231136   6.555   5.918   0.163  0.0643  0.5084 -1.7808
 3193TIP3   OH231137   4.142   1.707   8.568  0.1484 -0.1131 -0.4285
 3193TIP3    H131138   4.164   1.745   8.653  0.0592 -0.6688 -0.1483
 3193TIP3    H231139   4.213   1.645   8.551  0.4967  0.4455 -1.0588
 3194TIP3   OH231140   5.108   2.015   0.745 -0.3751 -0.6816  0.2572
 3194TIP3    H131141   5.172   2.007   0.817  0.5139 -0.3478 -0.4743
 3194TIP3    H231142   5.124   1.938   0.691 -1.3875 -1.1956  0.6661
 3195TIP3   OH231143   6.050   2.536   0.053 -0.0706 -0.0084 -0.3291
 3195TIP3    H131144   6.037   2.442   0.049 -1.3827  0.0347  1.5378
 3195TIP3    H231145   5.987   2.566   0.119 -0.7514  2.3756 -1.9543
 3196TIP3   OH231146   3.643   0.747   6.871 -0.7317 -0.6330 -0.1576
 3196TIP3    H131147   3.642   0.654   6.894  1.4175 -1.1909 -2.0337
 3196TIP3    H231148   3.704   0.753   6.798 -2.7411  1.9002 -1.7974
 3197TIP3   OH231149   0.379   6.699   8.022 -0.0473  0.0458  0.2901
 3197TIP3    H131150   0.354   6.607   8.010  0.1498 -0.1092  0.9906
 3197TIP3    H231151   0.328   6.747   7.958  1.0562 -0.7266 -1.2214
 3198TIP3   OH231152   5.831   1.794   6.848 -0.2385 -0.4738  0.1417
 3198TIP3    H131153   5.787   1.819   6.767  0.2046 -0.7871 -0.2047
 3198TIP3    H231154   5.867   1.876   6.883 -1.7084 -0.0823  0.8280
 3199TIP3   OH231155   4.346   3.288   7.478 -0.1394  0.4011  0.4118
 3199TIP3    H131156   4.346   3.382   7.464  0.2387  0.0211 -2.8589
 3199TIP3    H231157   4.413   3.255   7.418 -0.9956 -2.0488  0.6888
 3200TIP3   OH231158   5.142   4.071   7.757 -0.1940 -0.4647  0.1012
 3200TIP3    H131159   5.221   4.069   7.812 -0.9983 -1.2033  1.2763
 3200TIP3    H231160   5.077   4.118   7.809 -1.0119 -1.2774 -0.1578
 3201TIP3   OH231161   3.547   0.626   7.652 -0.0174 -0.3080 -0.0096
 3201TIP3    H131162   3.558   0.715   7.683 -0.2146  1.6145 -4.5725
 3201TIP3    H231163   3.460   0.600   7.683 -0.4846  1.6176  0.4113
 3202TIP3   OH231164   0.675   2.710   6.757 -0.3012 -0.2803 -0.4523
 3202TIP3    H131165   0.671   2.643   6.689 -0.4288 -0.0582 -0.6669
 3202TIP3    H231166   0.583   2.730   6.777 -0.3303  1.3645 -1.9307
 3203TIP3   OH231167   3.219   1.780   8.481 -0.1400  0.0974 -0.2878
 3203TIP3    H131168   3.278   1.745   8.548 -0.3493 -1.5678 -0.9047
 3203TIP3    H231169   3.169   1.848   8.525 -0.6618 -1.3215  1.4384
 3204TIP3   OH231170   0.200   2.762   8.009 -0.4470  0.1381  0.0280
 3204TIP3    H131171   0.131   2.760   7.941  0.0805 -1.4902 -0.5027
 3204TIP3    H231172   0.231   2.672   8.014  1.6067  0.8170  0.3170
 3205TIP3   OH231173   3.517   2.733   8.777  0.1963 -0.3574 -0.0263
 3205TIP3    H131174   3.556   2.820   8.769  0.0622 -0.2030  0.9394
 3205TIP3    H231175   3.459   2.726   8.701  0.6091  0.1769 -0.4021
 3206TIP3   OH231176   3.668   4.015   8.588  0.4058  0.1700 -0.4064
 3206TIP3    H131177   3.578   3.995   8.616 -0.5667  3.1918 -0.9447
 3206TIP3    H231178   3.684   3.956   8.515 -1.6125  0.2773 -1.0137
 3207TIP3   OH231179   2.035   0.138   6.317 -0.4013  0.2755 -0.6949
 3207TIP3    H131180   2.126   0.151   6.290 -0.4489  0.2750 -0.8619
 3207TIP3    H231181   2.019   0.044   6.302  0.9454 -0.8739  3.5852
 3208TIP3   OH231182   6.122   1.757   8.771  0.4647 -0.4798  0.2681
 3208TIP3    H131183   6.151   1.716   8.853 -0.5051 -0.3613  0.6789
 3208TIP3    H231184   6.139   1.690   8.704 -1.7535 -1.9145  1.0111
 3209TIP3   OH231185   1.734   3.212   0.207 -0.3318 -0.3783 -0.3380
 3209TIP3    H131186   1.684   3.156   0.266  1.3369 -0.9759  0.5880
 3209TIP3    H231187   1.798   3.256   0.264 -1.3916  2.3121 -1.0617
 3210TIP3   OH231188   0.736   0.313   8.205 -0.3595 -0.1907 -0.2565
 3210TIP3    H131189   0.780   0.249   8.261 -0.4995 -2.0252 -2.1257
 3210TIP3    H231190   0.643   0.295   8.216 -0.5012  0.9512  0.5807
 3211TIP3   OH231191   0.387   0.022   0.579  0.3498 -0.2835  0.1952
 3211TIP3    H131192   0.300   0.005   0.542  0.0465  0.4933  0.5450
 3211TIP3    H231193   0.373   0.093   0.641  1.4807  0.8472 -0.7833
 3212TIP3   OH231194   3.527   4.617   0.648 -0.1035  0.3878 -0.1084
 3212TIP3    H131195   3.577   4.678   0.701 -1.4250  0.0833  1.5745
 3212TIP3    H231196   3.593   4.559   0.609  1.0087  1.6185 -0.1238
 3213TIP3   OH231197   6.757   4.673   0.215  0.3943  0.2182  0.1315
 3213TIP3    H131198   6.730   4.648   0.127 -3.0196  0.7307  0.8632
 3213TIP3    H231199   6.763   4.769   0.212  3.3142  0.1090 -0.1904
 3214TIP3   OH231200   5.556   0.518   7.568  0.0089  0.5336  0.2040
 3214TIP3    H131201   5.490   0.495   7.503 -1.5218 -0.2297  1.9562
 3214TIP3    H231202   5.638   0.519   7.519 -1.2556  1.5658 -2.0642
 3215TIP3   OH231203   2.692   0.137   0.809 -0.3644  0.2168 -0.7374
 3215TIP3    H131204   2.650   0.075   0.868  0.9343 -1.3415 -1.3947
 3215TIP3    H231205   2.705   0.089   0.728  1.1138  1.1699 -1.1084
 3216TIP3   OH231206   3.498   2.750   6.587 -0.2928 -0.0189  0.1499
 3216TIP3    H131207   3.437   2.820   6.611  0.2397  0.7206 -0.6017
 3216TIP3    H231208   3.481   2.680   6.651 -2.5169 -0.1865 -0.5395
 3217TIP3   OH231209   6.065   1.342   6.847 -0.3130  0.6437  0.2281
 3217TIP3    H131210   5.990   1.283   6.856  0.3994 -0.3297 -0.0411
 3217TIP3    H231211   6.048   1.412   6.910 -0.9034 -0.1453  0.9708
 3218TIP3   OH231212   0.119   2.942   8.271 -0.4958  0.1103  0.3045
 3218TIP3    H131213   0.100   2.900   8.355 -0.9284  0.2593  0.2825
 3218TIP3    H231214   0.049   3.006   8.260 -0.7311 -0.2663 -0.4134
 3219TIP3   OH231215   0.500   0.304   1.154 -0.0559 -0.2454  0.4056
 3219TIP3    H131216   0.595   0.312   1.164 -0.0199 -0.7060  0.4700
 3219TIP3    H231217   0.470   0.393   1.134  0.4582 -0.1964 -0.1842
 3220TIP3   OH231218   1.910   2.286   0.928  0.6518  0.0695  0.1232
 3220TIP3    H131219   1.860   2.328   0.858 -0.5822  0.3161  1.1189
 3220TIP3    H231220   1.910   2.349   0.999  2.8709  0.2915  0.0045
 3221TIP3   OH231221   0.344   0.944   8.119  0.3470 -0.1013  0.1833
 3221TIP3    H131222   0.389   0.927   8.203 -0.0983  0.4528  0.5424
 3221TIP3    H231223   0.270   0.884   8.119 -0.2398  0.6061  0.6643
 3222TIP3   OH231224   0.779   0.665   7.989 -0.2404 -0.5796  0.2154
 3222TIP3    H131225   0.830   0.604   7.935  2.4805  2.5031 -1.0006
 3222TIP3    H231226   0.833   0.681   8.066 -0.1823  1.3350 -0.1778
 3223TIP3   OH231227   0.719   1.341   6.526  0.2141 -0.2271 -0.5375
 3223TIP3    H131228   0.723   1.356   6.431  0.3867  1.2137 -0.3306
 3223TIP3    H231229   0.711   1.246   6.535  2.8448 -0.6749 -1.9182
 3224TIP3   OH231230   0.367   0.075   1.396 -0.2239  0.2527  0.0342
 3224TIP3    H131231   0.317  -0.007   1.402  2.6829 -1.7127 -0.4413
 3224TIP3    H231232   0.394   0.093   1.486  0.7006 -0.4354 -0.0854
 3225TIP3   OH231233   2.175   1.512   7.578  0.1326  0.4871 -0.0283
 3225TIP3    H131234   2.177   1.428   7.531  0.4667 -0.0355  0.8980
 3225TIP3    H231235   2.113   1.565   7.528  1.0987  0.2475 -1.5395
 3226TIP3   OH231236   4.782   2.903   6.705 -0.5032  0.0652  0.1256
 3226TIP3    H131237   4.728   2.860   6.639 -0.5946 -1.3086  1.0611
 3226TIP3    H231238   4.870   2.904   6.667 -1.0326  1.8554 -1.1859
 3227TIP3   OH231239   0.713   5.859   1.312  0.0005 -0.5544 -0.4045
 3227TIP3    H131240   0.727   5.871   1.218  2.3072 -2.4328 -0.3956
 3227TIP3    H231241   0.674   5.772   1.320  0.5139 -0.7252  0.3993
 3228TIP3   OH231242   2.151   5.696   1.728  0.1746 -0.3517  0.1324
 3228TIP3    H131243   2.180   5.761   1.664  2.5030  0.7153  2.1169
 3228TIP3    H231244   2.059   5.719   1.745  0.4683  1.3922 -0.4111
 3229TIP3   OH231245   3.709   2.124   8.244  0.8340  0.4117 -0.3282
 3229TIP3    H131246   3.673   2.192   8.188  1.5734 -1.2266 -3.0189
 3229TIP3    H231247   3.644   2.054   8.241  1.9284 -0.6160 -1.1471
 3230TIP3   OH231248   4.797   2.389   8.426  0.2255 -0.0139  0.4596
 3230TIP3    H131249   4.855   2.340   8.367  0.2352  0.7210 -0.1498
 3230TIP3    H231250   4.787   2.475   8.385 -3.5481 -0.9264 -0.9379
 3231TIP3   OH231251   5.227   4.656   7.325  0.5323 -0.4571  0.0580
 3231TIP3    H131252   5.311   4.611   7.315  0.8249  0.1402 -0.2537
 3231TIP3    H231253   5.236   4.704   7.408 -0.0131 -1.4486  0.7096
 3232TIP3   OH231254   6.003   2.755   8.692  0.1284  0.0796 -0.3211
 3232TIP3    H131255   6.045   2.795   8.768  0.0329  0.2112 -0.3383
 3232TIP3    H231256   6.035   2.665   8.692 -0.0235  0.0249 -0.0098
 3233TIP3   OH231257   1.172   4.775   0.878  0.2590  1.0565  0.3536
 3233TIP3    H131258   1.254   4.812   0.846  1.6395 -0.9781  1.3703
 3233TIP3    H231259   1.113   4.779   0.802  2.5102 -0.9643 -1.6573
 3234TIP3   OH231260   4.504   4.215   7.096 -0.1792 -0.5476 -0.5367
 3234TIP3    H131261   4.497   4.120   7.109 -0.3504 -0.2711  1.9723
 3234TIP3    H231262   4.421   4.249   7.128  0.6063  0.5642  0.3748
 3235TIP3   OH231263   5.388   2.029   8.073  0.4329  0.1509 -0.5998
 3235TIP3    H131264   5.474   2.013   8.111  0.5727  0.2106 -0.8875
 3235TIP3    H231265   5.328   2.028   8.148  0.8119  1.0915 -0.2593
 3236TIP3   OH231266   2.591   6.205   8.784 -0.1458  0.1200  0.0308
 3236TIP3    H131267   2.502   6.176   8.765  0.1483 -1.3757  0.8183
 3236TIP3    H231268   2.646   6.133   8.755  0.8928  1.3770 -1.2227
 3237TIP3   OH231269   3.860   6.344   6.895 -0.3592  0.5124  0.1689
 3237TIP3    H131270   3.867   6.367   6.802  0.7842 -0.6065 -0.0624
 3237TIP3    H231271   3.899   6.257   6.900  0.3418  0.8910  1.8386
 3238TIP3   OH231272   5.658   3.934   8.584 -0.1856 -0.2937  0.1996
 3238TIP3    H131273   5.715   3.858   8.582 -1.3419 -1.1586 -0.9161
 3238TIP3    H231274   5.575   3.903   8.550 -0.8881  1.3127  0.3624
 3239TIP3   OH231275   0.464   6.756   8.730 -0.2989  0.1064 -0.3390
 3239TIP3    H131276   0.449   6.824   8.664  0.5914 -0.2768 -0.9519
 3239TIP3    H231277   0.546   6.781   8.772 -1.0951  0.6075  0.9796
 3240TIP3   OH231278   2.105   5.323   7.514 -0.5541 -0.6310  0.2622
 3240TIP3    H131279   2.168   5.265   7.471 -2.2233 -3.1075  0.9880
 3240TIP3    H231280   2.128   5.319   7.607  1.4850  2.7662  0.0903
 3241TIP3   OH231281   6.282   0.149   6.983 -0.1713  0.1102  0.0302
 3241TIP3    H131282   6.321   0.145   7.071 -1.3261  1.9083  0.6907
 3241TIP3    H231283   6.316   0.231   6.946  0.3315 -0.6517 -1.2383
 3242TIP3   OH231284   3.317   6.659   7.784  0.2450 -0.4988  0.2403
 3242TIP3    H131285   3.336   6.715   7.709  0.6677 -0.1912  0.5733
 3242TIP3    H231286   3.270   6.585   7.747 -0.9794  0.4231 -0.0973
 3243TIP3   OH231287   0.843   6.158   1.026 -0.6440  0.0912 -0.0385
 3243TIP3    H131288   0.894   6.150   1.106 -0.1329 -0.0492 -0.3685
 3243TIP3    H231289   0.804   6.245   1.030  0.7503  0.7568 -0.4211
 3244TIP3   OH231290   3.727   4.374   6.876 -0.5017  0.7511  0.1086
 3244TIP3    H131291   3.645   4.404   6.837  0.3751  0.8931 -1.7288
 3244TIP3    H231292   3.702   4.299   6.929 -2.0386  1.7656  0.8898
 3245TIP3   OH231293   5.733   1.398   7.528  0.2740  0.0932 -0.3112
 3245TIP3    H131294   5.648   1.441   7.513 -0.4363 -1.2162 -0.1797
 3245TIP3    H231295   5.779   1.458   7.587 -1.9775 -0.7488  2.5869
 3246TIP3   OH231296   2.063   1.567   6.938  0.1997 -0.4064 -0.4013
 3246TIP3    H131297   2.117   1.515   6.996 -0.6412 -1.0397 -0.1670
 3246TIP3    H231298   2.124   1.628   6.896  0.9574 -0.5806  0.4261
 3247TIP3   OH231299   4.848   1.340   6.732 -0.1785  0.3085  0.1209
 3247TIP3    H131300   4.864   1.287   6.655  2.1082  1.4556 -0.2713
 3247TIP3    H231301   4.827   1.427   6.698  0.9302  0.8484  0.7466
 3248TIP3   OH231302   3.674   0.858   0.669  0.2754 -0.1424  0.9766
 3248TIP3    H131303   3.633   0.772   0.659  0.0858  0.0539  0.0005
 3248TIP3    H231304   3.761   0.838   0.705  1.5100 -1.0592 -2.2129
 3249TIP3   OH231305   2.362   3.092   1.231 -0.3811 -0.4140  0.3777
 3249TIP3    H131306   2.336   3.005   1.200  0.0594 -0.4899  0.2120
 3249TIP3    H231307   2.398   3.076   1.318  1.7601 -0.7294 -0.5181
 3250TIP3   OH231308   4.643   4.000   1.015  0.1135  0.2307  0.1066
 3250TIP3    H131309   4.727   3.958   0.995  0.9739  2.0035 -0.2624
 3250TIP3    H231310   4.667   4.090   1.039 -1.7666  1.2001 -1.3484
 3251TIP3   OH231311   2.129   6.490   0.728  0.0969 -0.0449  0.6289
 3251TIP3    H131312   2.177   6.447   0.657  0.4081 -0.4768  1.0939
 3251TIP3    H231313   2.154   6.583   0.721  0.9929 -0.2537  0.8380
 3252TIP3   OH231314   5.458   5.658   8.691 -0.4744 -0.2540  0.1896
 3252TIP3    H131315   5.444   5.585   8.752 -1.4007 -0.5062 -0.3043
 3252TIP3    H231316   5.399   5.640   8.618 -0.0783  0.5462 -0.3454
 3253TIP3   OH231317   5.904   6.747   0.374  0.1962  1.0709 -0.8231
 3253TIP3    H131318   5.855   6.757   0.293 -1.9383  0.7815  0.3711
 3253TIP3    H231319   5.843   6.772   0.443  0.6234 -2.2898  0.9784
 3254TIP3   OH231320   0.409   2.775   6.824 -0.1554 -0.1663  0.0056
 3254TIP3    H131321   0.362   2.746   6.745  2.0636 -0.0709 -1.4368
 3254TIP3    H231322   0.349   2.756   6.896 -3.2057  1.7545 -1.8266
 3255TIP3   OH231323   0.768   0.131   6.786 -0.7997  0.6961 -0.4357
 3255TIP3    H131324   0.708   0.109   6.714  0.4198 -0.9386 -1.0321
 3255TIP3    H231325   0.717   0.119   6.865 -0.7620 -2.9819 -0.7940
 3256TIP3   OH231326   3.396   1.328   0.616 -1.0411 -0.5493  0.0159
 3256TIP3    H131327   3.468   1.278   0.655  0.2444  2.5267  1.9548
 3256TIP3    H231328   3.320   1.309   0.671 -0.7846 -0.9073  0.2496
 3257TIP3   OH231329   1.373   1.245   8.823  0.0420  0.1863  0.0442
 3257TIP3    H131330   1.429   1.222   8.748 -2.2080  0.1103 -1.7155
 3257TIP3    H231331   1.372   1.341   8.822  0.5747  0.1995  0.4363
 3258TIP3   OH231332   3.026   0.216   7.498 -0.5086 -0.0554 -0.1771
 3258TIP3    H131333   3.017   0.306   7.529 -1.1299 -0.3207  0.4046
 3258TIP3    H231334   3.097   0.221   7.433 -0.0166  0.7087  0.4078
 3259TIP3   OH231335   1.579   1.759   7.944  1.0100 -0.5499 -0.1973
 3259TIP3    H131336   1.522   1.831   7.971  0.7639 -0.0567 -1.9207
 3259TIP3    H231337   1.663   1.801   7.927  0.7676 -0.5774 -1.5575
 3260TIP3   OH231338   6.090   1.581   8.058  0.0409  0.2757  0.7016
 3260TIP3    H131339   6.166   1.618   8.103  1.0945  0.2881 -1.0117
 3260TIP3    H231340   6.122   1.560   7.970 -1.6181 -0.9052  0.3389
 3261TIP3   OH231341   3.842   3.757   7.927  0.1438 -0.0378 -0.4219
 3261TIP3    H131342   3.793   3.804   7.859  1.0471 -0.4074 -1.3588
 3261TIP3    H231343   3.871   3.826   7.987  0.7971  0.5341 -1.3602
 3262TIP3   OH231344   4.072   1.294   6.263  0.0615  0.1095  0.3959
 3262TIP3    H131345   4.118   1.359   6.210  0.3352 -0.1552  0.3046
 3262TIP3    H231346   4.046   1.341   6.342 -1.1384  0.7487 -0.3434
 3263TIP3   OH231347   2.338   3.272   0.310  0.2044  0.2614 -0.1968
 3263TIP3    H131348   2.307   3.215   0.240  1.8860 -0.8451 -0.0955
 3263TIP3    H231349   2.426   3.240   0.331 -0.0565  0.8232  2.1280
 3264TIP3   OH231350   0.798   4.159   0.002 -0.8977 -0.7165  0.0644
 3264TIP3    H131351   0.714   4.191   0.034 -1.9521 -1.5303 -1.7231
 3264TIP3    H231352   0.787   4.152  -0.093  0.6909 -2.2092 -0.0786
 3265TIP3   OH231353   5.449   1.729   0.713  0.2152  0.4013  0.0037
 3265TIP3    H131354   5.390   1.657   0.736  2.0389 -1.0336  0.4231
 3265TIP3    H231355   5.485   1.703   0.628 -0.6427  1.8750 -0.8526
 3266TIP3   OH231356   6.043   1.995   6.944 -0.2881  0.3551 -0.4380
 3266TIP3    H131357   5.984   2.068   6.927  1.3965  1.4196 -2.0398
 3266TIP3    H231358   6.124   2.036   6.973 -0.0494 -1.0434  1.0572
 3267TIP3   OH231359   4.553   0.531   0.352 -0.0107 -0.8166  0.4011
 3267TIP3    H131360   4.521   0.445   0.381 -0.4928 -0.4329  1.0394
 3267TIP3    H231361   4.635   0.512   0.306 -0.1877 -1.6307  0.4006
 3268TIP3   OH231362   1.133   5.686   1.227  0.0580  0.3231 -0.2172
 3268TIP3    H131363   1.068   5.655   1.163  0.2857 -0.0147 -0.2873
 3268TIP3    H231364   1.081   5.730   1.295 -0.0676  2.5983 -1.6631
 3269TIP3   OH231365   0.766   5.755   0.112  0.3461 -0.1426  0.0068
 3269TIP3    H131366   0.768   5.762   0.017 -1.3339  1.5734  0.0438
 3269TIP3    H231367   0.829   5.820   0.142 -1.1917  1.4162  0.0466
 3270TIP3   OH231368   1.494   1.871   0.822 -0.4116 -0.0865  0.2334
 3270TIP3    H131369   1.435   1.852   0.896 -0.2761 -1.8639 -0.0534
 3270TIP3    H231370   1.573   1.821   0.842  0.2766  0.7524 -0.3209
 3271TIP3   OH231371   6.100   4.828   5.975 -0.3219  0.5148  0.1338
 3271TIP3    H131372   6.083   4.899   5.914 -1.0818  1.2377  1.1707
 3271TIP3    H231373   6.020   4.819   6.026 -0.6588 -1.8221 -0.6763
 3272TIP3   OH231374   1.458   2.431   7.996  0.5091  0.2696  0.0393
 3272TIP3    H131375   1.422   2.360   7.942 -0.2397 -1.8504  3.0919
 3272TIP3    H231376   1.425   2.511   7.954 -0.3826 -1.2280 -2.3312
 3273TIP3   OH231377   6.501   4.934   7.426 -0.1556  0.8981 -0.2182
 3273TIP3    H131378   6.579   4.911   7.477 -0.4230  1.4343  0.4426
 3273TIP3    H231379   6.525   5.015   7.381  0.0452  0.4780 -0.8790
 3274TIP3   OH231380   4.867   5.260   6.225 -0.2110  0.4155  0.1441
 3274TIP3    H131381   4.850   5.181   6.278  4.0884 -0.8165  0.0965
 3274TIP3    H231382   4.786   5.274   6.176 -0.9262 -4.7643 -0.7415
 3275TIP3   OH231383   6.311   4.963   7.146  0.0367 -0.6151 -0.6233
 3275TIP3    H131384   6.244   4.912   7.100  0.1054 -1.2722 -0.0151
 3275TIP3    H231385   6.265   5.002   7.220 -0.3913  1.5691 -1.9687
 3276TIP3   OH231386   3.940   2.965   6.797 -0.3207  0.3982 -0.5320
 3276TIP3    H131387   3.919   2.962   6.891  0.5069  0.6715 -0.3332
 3276TIP3    H231388   3.855   2.956   6.754 -0.7470  0.5430  0.2460
 3277TIP3   OH231389   2.871   3.680   0.777  0.0158 -0.0716  0.3065
 3277TIP3    H131390   2.833   3.608   0.728  1.1485 -0.2604 -0.3316
 3277TIP3    H231391   2.954   3.699   0.732 -0.9749  2.7027 -0.5705
 3278TIP3   OH231392   1.801   3.608   6.827  0.1022  0.4685  0.7769
 3278TIP3    H131393   1.803   3.518   6.794 -0.8491 -0.5304  3.1707
 3278TIP3    H231394   1.713   3.619   6.863 -0.0384  2.6367 -0.0581
 3279TIP3   OH231395   2.338   6.103   8.647  0.6334  0.6987 -0.3100
 3279TIP3    H131396   2.318   6.017   8.682 -0.5040  0.8679 -0.5032
 3279TIP3    H231397   2.290   6.108   8.565  0.1745  1.7412  0.0015
 3280TIP3   OH231398   2.035   3.776   0.299 -0.1114  0.5856  0.3257
 3280TIP3    H131399   2.112   3.830   0.319  0.5646  0.1470 -0.9528
 3280TIP3    H231400   2.053   3.692   0.341 -0.6760  1.0120  1.4332
 3281TIP3   OH231401   0.472   1.793   8.756  0.0265  0.0950  0.2411
 3281TIP3    H131402   0.481   1.811   8.849  1.7608  0.4058  0.0426
 3281TIP3    H231403   0.496   1.701   8.746  1.0588  0.3902 -0.0512
 3282TIP3   OH231404   5.964   2.118   8.794  0.1192 -0.1829  0.0206
 3282TIP3    H131405   5.974   2.025   8.816  0.0731 -0.1446  0.2030
 3282TIP3    H231406   5.877   2.125   8.756  0.3527 -0.3219 -0.5508
 3283TIP3   OH231407   3.156   2.794   8.248  0.3535  0.4331 -0.4151
 3283TIP3    H131408   3.228   2.844   8.286  0.8763 -0.3471 -0.3505
 3283TIP3    H231409   3.077   2.833   8.286  0.6744  1.8460 -1.1220
 3284TIP3   OH231410   6.387   0.743   6.164 -0.1130 -0.2718  0.1214
 3284TIP3    H131411   6.469   0.768   6.207 -1.3768  2.1973  1.3293
 3284TIP3    H231412   6.360   0.663   6.209  1.6815 -1.2405 -0.4345
 3285TIP3   OH231413   0.100   1.658   7.488 -0.8467 -0.3287 -0.0502
 3285TIP3    H131414   0.161   1.603   7.440  0.1651 -0.5801  1.4536
 3285TIP3    H231415   0.081   1.731   7.429  2.2182  0.6276 -0.0033
 3286TIP3   OH231416   0.096   2.918   2.212  0.2540  0.7016  0.1589
 3286TIP3    H131417   0.166   2.879   2.160 -1.2426  0.3312 -1.7237
 3286TIP3    H231418   0.122   2.905   2.303  0.7729 -2.9653 -0.3715
 3287TIP3   OH231419   2.672   1.358   1.629 -0.2035 -0.3118 -0.2084
 3287TIP3    H131420   2.622   1.306   1.692 -0.4828  1.7649  1.3560
 3287TIP3    H231421   2.762   1.352   1.659 -0.4894  1.6618  1.1834
 3288TIP3   OH231422   3.037   1.509   0.403 -0.5368 -0.0701 -0.8766
 3288TIP3    H131423   3.117   1.455   0.404 -0.7694 -0.4783 -2.3437
 3288TIP3    H231424   3.069   1.599   0.403 -0.1042 -0.2189 -0.1978
 3289TIP3   OH231425   1.563   6.784   1.854  0.0963  0.1322 -0.1508
 3289TIP3    H131426   1.542   6.860   1.907 -0.3893  0.0488 -0.2138
 3289TIP3    H231427   1.651   6.800   1.821 -1.0923  2.1373 -2.6692
 3290TIP3   OH231428   6.772   2.800   8.472  0.2538  0.1778  0.0355
 3290TIP3    H131429   6.772   2.852   8.552  2.5394  0.4886 -0.0950
 3290TIP3    H231430   6.683   2.808   8.437  0.7989  5.6774 -1.0405
 3291TIP3   OH231431   6.352   4.565   0.113  0.1997  0.1047  0.5732
 3291TIP3    H131432   6.268   4.607   0.128  0.8954  1.1605  1.7553
 3291TIP3    H231433   6.388   4.552   0.201  2.0698  1.3912  0.0664
 3292TIP3   OH231434   5.206   1.664   1.109 -0.0777  0.1103 -0.1881
 3292TIP3    H131435   5.178   1.745   1.067  0.9575  0.6842  0.2085
 3292TIP3    H231436   5.197   1.681   1.202 -0.3784 -0.4267 -0.1169
 3293TIP3   OH231437   3.141   2.889   8.652  0.0001 -0.8911 -0.6689
 3293TIP3    H131438   3.064   2.903   8.708 -0.3023  0.0084 -1.3068
 3293TIP3    H231439   3.201   2.959   8.677  0.4341 -1.3182 -0.5045
 3294TIP3   OH231440   6.505   5.964   7.422  0.5588 -0.8852  0.2521
 3294TIP3    H131441   6.435   6.023   7.450  0.6662  0.6548 -2.4264
 3294TIP3    H231442   6.464   5.877   7.423 -1.5249 -0.0097 -1.3511
 3295TIP3   OH231443   4.797   4.358   7.498  0.2345 -0.4588  0.0710
 3295TIP3    H131444   4.891   4.350   7.513  0.3143 -0.6442 -0.5046
 3295TIP3    H231445   4.772   4.274   7.458  0.0039 -0.0419 -0.6789
 3296TIP3   OH231446   5.685   2.687   1.568  0.0709 -0.1610 -0.6368
 3296TIP3    H131447   5.662   2.623   1.635  0.7095  1.4764  1.2223
 3296TIP3    H231448   5.600   2.714   1.531 -0.2436 -1.4979 -0.9476
 3297TIP3   OH231449   6.255   2.124   6.256 -0.5013  0.1080  0.3203
 3297TIP3    H131450   6.294   2.042   6.285  0.6182  0.5089  0.0137
 3297TIP3    H231451   6.162   2.115   6.274 -0.3291 -1.0661  0.6591
 3298TIP3   OH231452   6.542   6.602   0.797 -0.1134  0.1741  0.1803
 3298TIP3    H131453   6.478   6.577   0.863  1.6621 -2.3866  1.1082
 3298TIP3    H231454   6.535   6.535   0.730 -0.2290  1.3933 -1.0588
 3299TIP3   OH231455   4.661   3.453   7.389 -0.2560 -0.0130  0.3963
 3299TIP3    H131456   4.756   3.444   7.387 -0.3176 -0.6605  0.1485
 3299TIP3    H231457   4.628   3.368   7.360 -0.9140 -0.0968  1.3320
 3300TIP3   OH231458   2.098   0.400   8.835  0.1517 -0.1159  0.7511
 3300TIP3    H131459   2.133   0.311   8.843  1.3977  0.0823 -1.5491
 3300TIP3    H231460   2.054   0.416   8.918 -1.3338 -3.3659  0.7525
 3301TIP3   OH231461   1.309   5.396   6.858 -0.7362 -0.0753  0.6876
 3301TIP3    H131462   1.252   5.471   6.844  0.4183  0.8424  0.7627
 3301TIP3    H231463   1.291   5.338   6.785 -0.6616  0.9101 -0.1319
 3302TIP3   OH231464   2.823   4.762   1.554 -0.0984  0.5405  0.3981
 3302TIP3    H131465   2.916   4.755   1.534  0.8484  3.0850  3.0392
 3302TIP3    H231466   2.800   4.852   1.529 -1.9164 -0.0993 -0.3695
 3303TIP3   OH231467   0.780   2.127   8.689  0.4667  0.4027  0.2710
 3303TIP3    H131468   0.787   2.085   8.774 -1.3157 -0.1293  0.1903
 3303TIP3    H231469   0.790   2.055   8.626 -1.2722  0.2498  0.1150
 3304TIP3   OH231470   6.131   6.527   8.801 -0.0943  0.3490 -0.0272
 3304TIP3    H131471   6.095   6.554   8.717 -1.4447  1.0734  0.7440
 3304TIP3    H231472   6.062   6.473   8.840  0.8334 -0.6363  0.2946
 3305TIP3   OH231473   0.430   2.937   7.924  0.0423  0.0832  0.4829
 3305TIP3    H131474   0.385   2.943   7.840  2.0565 -0.3139 -0.7037
 3305TIP3    H231475   0.485   3.015   7.928  2.0841 -1.2357  0.0478
 3306TIP3   OH231476   4.644   1.917   1.109  0.0636  0.6264 -0.2524
 3306TIP3    H131477   4.629   1.903   1.015  0.3039  1.2564 -0.3930
 3306TIP3    H231478   4.735   1.949   1.114 -0.1234  1.1128  0.1354
 3307TIP3   OH231479   3.438   0.903   1.601  0.1689  0.2791  0.5355
 3307TIP3    H131480   3.387   0.895   1.681 -0.6221  2.0020  0.2555
 3307TIP3    H231481   3.500   0.974   1.619 -0.0012  0.6668 -0.3538
 3308TIP3   OH231482   1.528   3.606   6.892  0.0670 -0.0072 -0.5456
 3308TIP3    H131483   1.501   3.557   6.815  0.3220  0.1272 -0.7257
 3308TIP3    H231484   1.514   3.547   6.965 -0.5038 -0.0150 -0.6544
 3309TIP3   OH231485   1.303   3.207   6.915 -0.2852  0.2248  0.1604
 3309TIP3    H131486   1.318   3.290   6.960  0.6681  0.2931 -0.2636
 3309TIP3    H231487   1.390   3.175   6.892 -0.6323 -0.9718  0.4346
 3310TIP3   OH231488   1.474   6.297   8.663  0.1349  0.5142  0.3268
 3310TIP3    H131489   1.520   6.317   8.581  1.8682  0.3858  1.2088
 3310TIP3    H231490   1.440   6.381   8.693 -3.4562  0.1495 -2.0861
 3311TIP3   OH231491   0.235   6.595   1.242 -0.3772  0.1950  0.3987
 3311TIP3    H131492   0.224   6.526   1.307  0.8852  0.9132  1.4306
 3311TIP3    H231493   0.202   6.674   1.285  0.2779  0.6435  0.0950
 3312TIP3   OH231494   4.853   1.880   0.890 -0.1588  0.8001  0.0026
 3312TIP3    H131495   4.801   1.934   0.830 -0.2738  1.2965  0.5455
 3312TIP3    H231496   4.936   1.865   0.843 -0.4430  0.7592 -0.4887
 3313TIP3   OH231497   0.337   1.104   1.265  0.2018  0.1206  0.1753
 3313TIP3    H131498   0.258   1.158   1.266  0.9395  1.2565  1.3622
 3313TIP3    H231499   0.405   1.162   1.230  0.6810 -0.5828 -0.0899
 3314TIP3   OH231500   5.391   3.887   6.919 -0.3617 -0.2521  0.3375
 3314TIP3    H131501   5.323   3.952   6.898  0.8120  1.0381  0.4005
 3314TIP3    H231502   5.466   3.912   6.864  0.4361 -0.9939  1.0629
 3315TIP3   OH231503   5.146   5.911   6.940 -0.4563 -0.1952 -0.0069
 3315TIP3    H131504   5.165   5.822   6.911  0.8038  0.0446  0.0255
 3315TIP3    H231505   5.128   5.959   6.859 -0.1216 -0.2579 -0.1226
 3316TIP3   OH231506   5.301   5.509   6.454 -0.2409  0.6979 -0.0461
 3316TIP3    H131507   5.300   5.569   6.380  3.1440 -0.1877 -0.9711
 3316TIP3    H231508   5.342   5.430   6.420  0.3967 -0.1416  2.4868
 3317TIP3   OH231509   4.404   4.927   6.501 -0.2242 -0.4713 -0.4089
 3317TIP3    H131510   4.430   4.842   6.464  2.4026  0.1343 -0.1800
 3317TIP3    H231511   4.328   4.907   6.557  0.5241 -2.7384 -0.0888
 3318TIP3   OH231512   0.248   1.387   0.992  0.3344  0.2155 -0.1682
 3318TIP3    H131513   0.252   1.462   1.052  2.5187 -0.0731  0.1280
 3318TIP3    H231514   0.191   1.324   1.037 -2.9569  2.2366 -1.1865
 3319TIP3   OH231515   0.842   5.904   0.472  0.1384 -0.1003  0.0884
 3319TIP3    H131516   0.779   5.971   0.445  1.3090  2.6706  3.4534
 3319TIP3    H231517   0.810   5.873   0.556  0.2592 -3.0961 -0.8592
 3320TIP3   OH231518   3.734   3.740   7.429  0.1410 -0.0652 -0.3360
 3320TIP3    H131519   3.658   3.785   7.466  0.7815  0.6326  0.1560
 3320TIP3    H231520   3.774   3.805   7.371  1.3940  0.2263  0.8056
 3321TIP3   OH231521   5.702   3.060   0.404 -0.1292 -0.4136 -0.1548
 3321TIP3    H131522   5.704   3.154   0.390 -0.0047 -0.1939  1.2061
 3321TIP3    H231523   5.793   3.035   0.417 -0.1160 -0.8045 -0.9080
 3322TIP3   OH231524   5.874   0.725   6.930  0.7983  0.2591  0.4971
 3322TIP3    H131525   5.962   0.740   6.896  0.5066 -0.0963 -0.4480
 3322TIP3    H231526   5.817   0.734   6.854 -0.0054  0.6642  1.1333
 3323TIP3   OH231527   2.798   5.132   8.672 -0.0863  0.2027  0.0705
 3323TIP3    H131528   2.856   5.208   8.683  0.7500 -0.6133  1.5313
 3323TIP3    H231529   2.742   5.134   8.749 -0.5145 -0.2935 -0.2237
 3324TIP3   OH231530   5.964   2.958   6.438 -0.0476 -0.0088  0.4019
 3324TIP3    H131531   6.015   2.891   6.392  0.0173 -0.1455  0.6743
 3324TIP3    H231532   6.028   3.007   6.489 -0.2750 -0.6561  1.3353
 3325TIP3   OH231533   1.939   4.834   8.237  0.4025  0.0295 -0.1478
 3325TIP3    H131534   1.913   4.911   8.185 -0.6606 -0.0720  0.2144
 3325TIP3    H231535   1.992   4.782   8.177 -2.7162 -1.2812 -2.0519
 3326TIP3   OH231536   6.708   3.738   0.225 -0.5682 -0.0918 -0.1801
 3326TIP3    H131537   6.717   3.821   0.177 -2.6159  0.2993  0.0217
 3326TIP3    H231538   6.710   3.670   0.158 -0.1892  0.2236 -0.4881
 3327TIP3   OH231539   0.333   1.049   7.768 -0.2009  0.8060 -0.4410
 3327TIP3    H131540   0.274   1.104   7.716 -1.8026 -2.2838 -2.2114
 3327TIP3    H231541   0.379   0.995   7.704  0.4578 -0.6954  1.1941
 3328TIP3   OH231542   4.255   1.550   7.747 -0.2018 -0.0200 -0.2849
 3328TIP3    H131543   4.197   1.571   7.820 -0.7999  1.8119 -1.2061
 3328TIP3    H231544   4.197   1.512   7.681 -0.1788  0.7576 -0.7727
 3329TIP3   OH231545   1.308   0.741   8.574 -0.4023 -0.1418  0.7009
 3329TIP3    H131546   1.285   0.831   8.596  1.8334  0.4098  0.9463
 3329TIP3    H231547   1.279   0.730   8.484 -0.8590  0.7525  0.7287
 3330TIP3   OH231548   5.080   4.600   0.362 -0.4161 -0.4230 -0.1979
 3330TIP3    H131549   5.041   4.525   0.406  1.8479 -1.1765  0.7069
 3330TIP3    H231550   5.132   4.562   0.291  1.7432  0.0875  1.0224
 3331TIP3   OH231551   6.782   6.534   8.429  0.0271 -0.4582  0.1759
 3331TIP3    H131552   6.695   6.503   8.453 -0.4264  0.3969 -0.3222
 3331TIP3    H231553   6.766   6.617   8.383  1.0276 -0.8527 -0.9236
 3332TIP3   OH231554   4.912   0.642   0.656 -0.5906 -0.4213  1.1486
 3332TIP3    H131555   4.871   0.558   0.677  0.8621 -1.5034 -0.1062
 3332TIP3    H231556   4.851   0.708   0.689 -1.5845 -1.9647  2.5079
 3333TIP3   OH231557   3.034   4.408   6.630  0.1298 -0.2032 -0.0757
 3333TIP3    H131558   2.990   4.344   6.686  0.0773 -0.0707  0.0341
 3333TIP3    H231559   3.013   4.493   6.668  0.1952 -0.1188 -0.2246
 3334TIP3   OH231560   2.327   4.810   8.762  0.0997  0.6040 -0.3876
 3334TIP3    H131561   2.340   4.762   8.843  2.5822 -0.6576 -1.4471
 3334TIP3    H231562   2.267   4.755   8.711 -1.7351  1.5560  0.6046
 3335TIP3   OH231563   4.912   2.625   6.771  0.0114  0.1425 -0.3124
 3335TIP3    H131564   4.906   2.612   6.676  1.0367 -1.2188 -0.2311
 3335TIP3    H231565   4.993   2.675   6.782 -1.1074  2.0401 -0.2427
 3336TIP3   OH231566   3.833   0.928   7.800  0.1203  0.0107 -0.3869
 3336TIP3    H131567   3.927   0.942   7.793  0.6202 -2.1940  0.8675
 3336TIP3    H231568   3.795   0.990   7.738  2.5702 -1.3105 -3.5266
 3337TIP3   OH231569   2.661   2.067   1.920  0.1779  0.7519 -0.2616
 3337TIP3    H131570   2.600   2.033   1.986 -0.2517  2.0069  0.0150
 3337TIP3    H231571   2.746   2.030   1.944 -0.1751  0.3091  0.3377
 3338TIP3   OH231572   3.915   5.773   7.100 -0.0872  0.4691  0.1356
 3338TIP3    H131573   3.985   5.801   7.159 -0.9118  0.6337  1.0533
 3338TIP3    H231574   3.912   5.841   7.032  0.5553  0.5229  0.1562
 3339TIP3   OH231575   3.350   3.455   8.078 -0.1200  0.9288 -0.0863
 3339TIP3    H131576   3.412   3.488   8.013  0.9092  0.3832  0.5907
 3339TIP3    H231577   3.391   3.375   8.112 -1.1843  0.5722  0.3961
 3340TIP3   OH231578   6.160   0.118   0.935 -0.4148  0.6088 -0.4362
 3340TIP3    H131579   6.243   0.164   0.949  0.4455 -0.4768 -1.6935
 3340TIP3    H231580   6.099   0.187   0.910  0.3776  1.3036 -0.4978
 3341TIP3   OH231581   6.598   0.527   8.523  0.2937  0.1994 -0.3948
 3341TIP3    H131582   6.504   0.512   8.532  0.2082 -0.5804 -2.0965
 3341TIP3    H231583   6.638   0.473   8.591 -0.4249 -0.9270 -0.8308
 3342TIP3   OH231584   5.196   1.050   7.251  0.1442  0.2071  0.2172
 3342TIP3    H131585   5.112   1.071   7.292 -0.1636 -1.8478  0.7092
 3342TIP3    H231586   5.193   1.097   7.167 -1.6447 -0.0830  0.0802
 3343TIP3   OH231587   4.250   5.055   7.730 -0.2307  0.3151  0.2051
 3343TIP3    H131588   4.249   5.109   7.651  3.5319 -4.7290 -4.1072
 3343TIP3    H231589   4.177   4.995   7.719 -1.3772  1.2325  2.2591
 3344TIP3   OH231590   2.071   4.031   1.528  1.0915  0.1320  0.4123
 3344TIP3    H131591   1.998   3.980   1.562  0.8139  1.0797  1.2820
 3344TIP3    H231592   2.054   4.037   1.434  0.7329 -0.7141  0.4105
 3345TIP3   OH231593   4.482   2.967   7.399 -0.3045 -0.3054  0.3834
 3345TIP3    H131594   4.413   2.933   7.342 -0.6050  0.0481  0.5360
 3345TIP3    H231595   4.466   2.926   7.484 -0.1367 -0.4645  0.3408
 3346TIP3   OH231596   6.731   5.413   8.714 -0.0504  0.3555 -0.9482
 3346TIP3    H131597   6.776   5.495   8.734  0.2487  0.0422 -0.3107
 3346TIP3    H231598   6.761   5.389   8.626  0.2108  0.6919 -0.9482
 3347TIP3   OH231599   0.437   1.906   0.759 -0.0569 -0.3371 -0.0421
 3347TIP3    H131600   0.414   1.983   0.812 -0.7073  0.8128 -1.8964
 3347TIP3    H231601   0.527   1.886   0.785  0.9248  2.4024 -0.9633
 3348TIP3   OH231602   4.272   4.904   7.218 -0.5053  0.0428 -0.0521
 3348TIP3    H131603   4.283   4.822   7.266 -0.1175  0.4840  0.6316
 3348TIP3    H231604   4.282   4.880   7.126 -0.3475 -0.6656  0.1444
 3349TIP3   OH231605   4.854   5.873   6.989  0.2556 -0.0189 -0.1967
 3349TIP3    H131606   4.848   5.778   6.977  0.0063 -0.0327  0.0305
 3349TIP3    H231607   4.948   5.892   6.983  0.4836 -0.4917  1.3293
 3350TIP3   OH231608   4.400   6.598   8.801  0.0882 -0.9246  0.1122
 3350TIP3    H131609   4.315   6.593   8.844 -0.4290  0.2408 -0.7316
 3350TIP3    H231610   4.380   6.594   8.707  1.0128 -1.2339 -0.0867
 3351TIP3   OH231611   3.496   0.333   0.653 -0.2868 -0.4949 -0.5775
 3351TIP3    H131612   3.582   0.342   0.613 -0.5647 -0.2901 -1.1453
 3351TIP3    H231613   3.479   0.417   0.694 -0.2551 -0.5078 -0.5373
 3352TIP3   OH231614   0.862   2.853   1.801 -0.1561 -0.3353 -0.1060
 3352TIP3    H131615   0.816   2.837   1.884  2.1740 -0.9195  1.1496
 3352TIP3    H231616   0.883   2.946   1.803  0.2427 -0.4282  0.1641
 3353TIP3   OH231617   5.306   3.536   0.912 -0.2239 -0.8746  0.3912
 3353TIP3    H131618   5.269   3.450   0.931  0.4040 -1.5092 -1.0939
 3353TIP3    H231619   5.385   3.541   0.965  0.6422 -1.9375 -0.7483
 3354TIP3   OH231620   3.296   4.640   6.704 -0.1361  0.0796 -0.2865
 3354TIP3    H131621   3.352   4.718   6.706 -0.4853  0.3250  0.0981
 3354TIP3    H231622   3.283   4.618   6.796 -0.0580 -0.4231 -0.3935
 3355TIP3   OH231623   1.807   0.557   1.987 -0.0486  0.0979 -0.3288
 3355TIP3    H131624   1.732   0.530   2.040  0.1248  1.4434  0.6590
 3355TIP3    H231625   1.868   0.484   1.992 -0.4311 -0.1758  0.5574
 3356TIP3   OH231626   4.499   2.850   8.046 -0.2615 -0.2391  0.4125
 3356TIP3    H131627   4.436   2.907   8.001  0.0616 -1.3624 -1.5391
 3356TIP3    H231628   4.565   2.829   7.980  0.3131 -1.8425  1.4407
 3357TIP3   OH231629   1.464   4.606   8.626  0.7141  0.1613  0.3251
 3357TIP3    H131630   1.479   4.683   8.572  4.9489 -0.0148  0.9058
 3357TIP3    H231631   1.489   4.532   8.571 -3.7020 -1.1443 -0.3862
 3358TIP3   OH231632   2.820   6.426   5.723  0.8586 -0.3349  0.4334
 3358TIP3    H131633   2.765   6.482   5.668  0.4779 -2.3470 -1.3799
 3358TIP3    H231634   2.910   6.451   5.700  0.7020 -0.8654 -0.9029
 3359TIP3   OH231635   1.175   3.795   1.447  0.1873 -0.0436  0.2070
 3359TIP3    H131636   1.212   3.756   1.368  1.1946 -1.4972  1.3563
 3359TIP3    H231637   1.086   3.761   1.452  0.7588 -1.5167  0.7081
 3360TIP3   OH231638   2.573   1.593   1.914 -0.3120  0.5423  0.1432
 3360TIP3    H131639   2.515   1.526   1.950 -0.1800  0.7713  0.7897
 3360TIP3    H231640   2.537   1.676   1.945  0.7429  0.6536  1.1535
 3361TIP3   OH231641   1.382   4.427   1.069  0.3007 -0.0513  0.5153
 3361TIP3    H131642   1.465   4.465   1.040  0.5739 -0.7856  0.3296
 3361TIP3    H231643   1.407   4.352   1.122 -0.2555 -1.3354 -0.9772
 3362TIP3   OH231644   3.814   3.351   7.988  0.3376  0.2098  0.1173
 3362TIP3    H131645   3.877   3.292   7.946  1.2235 -0.0806  1.7617
 3362TIP3    H231646   3.868   3.420   8.025 -0.7132  2.4488 -2.2010
 3363TIP3   OH231647   5.203   2.352   0.354 -0.5240 -0.3180 -0.0258
 3363TIP3    H131648   5.171   2.305   0.431  1.0037 -0.3849  0.6067
 3363TIP3    H231649   5.239   2.434   0.389 -1.2396  0.3748 -0.8669
 3364TIP3   OH231650   2.773   6.700   0.052 -0.0370 -0.3813 -0.3838
 3364TIP3    H131651   2.774   6.636  -0.019  1.5103 -1.1392  0.2728
 3364TIP3    H231652   2.812   6.654   0.126  0.3009  1.0485  0.3587
 3365TIP3   OH231653   2.743   2.106   0.473  0.0544 -0.4718 -0.3688
 3365TIP3    H131654   2.797   2.147   0.541 -0.8715  1.0524 -0.5063
 3365TIP3    H231655   2.659   2.090   0.516 -0.1920 -0.4834 -0.8496
 3366TIP3   OH231656   3.530   0.552   0.901 -0.0663 -0.7600 -0.3952
 3366TIP3    H131657   3.546   0.632   0.951  2.4446 -1.2278 -0.3041
 3366TIP3    H231658   3.552   0.575   0.811  1.0831 -1.3853 -0.3049
 3367TIP3   OH231659   4.426   6.589   0.804 -0.1451 -0.0664 -0.7115
 3367TIP3    H131660   4.368   6.517   0.830  0.9817 -0.8511 -0.2659
 3367TIP3    H231661   4.452   6.631   0.886  2.6900 -1.9713 -0.4637
 3368TIP3   OH231662   1.311   6.198   1.693  0.3881 -0.9370 -0.4586
 3368TIP3    H131663   1.379   6.173   1.630  0.1795  0.4608 -1.2855
 3368TIP3    H231664   1.359   6.245   1.762  0.5897 -2.2964  0.3680
 3369TIP3   OH231665   1.457   1.196   7.678 -0.0155 -0.2094 -0.4134
 3369TIP3    H131666   1.426   1.123   7.732 -0.1870 -0.0968 -0.3574
 3369TIP3    H231667   1.529   1.160   7.627  0.6220 -0.1291  0.4136
 3370TIP3   OH231668   5.981   1.586   6.966 -0.0389 -0.0448  0.2867
 3370TIP3    H131669   5.928   1.660   6.937  0.3667  0.2243  0.2216
 3370TIP3    H231670   5.918   1.526   7.007 -0.2648  0.6828  1.0396
 3371TIP3   OH231671   0.286   6.002   7.045  0.1810  0.5364  0.0601
 3371TIP3    H131672   0.369   6.035   7.080 -0.3103 -0.3386  2.2033
 3371TIP3    H231673   0.272   5.918   7.089 -2.4846  1.2704  0.8375
 3372TIP3   OH231674   4.144   2.586   8.695 -0.1945 -0.3550 -0.4977
 3372TIP3    H131675   4.123   2.528   8.621 -0.5328 -0.3093 -0.4416
 3372TIP3    H231676   4.235   2.567   8.716  0.6263  1.2350 -2.3780
 3373TIP3   OH231677   4.013   0.605   0.092 -0.4275  0.0516 -0.0384
 3373TIP3    H131678   4.044   0.584   0.180  1.8542  1.5444 -0.4007
 3373TIP3    H231679   4.017   0.701   0.088  0.7037 -0.0444 -2.1497
 3374TIP3   OH231680   1.158   2.454   7.307  0.0271 -0.6393 -0.3119
 3374TIP3    H131681   1.243   2.494   7.290 -0.1691 -0.2378 -0.3630
 3374TIP3    H231682   1.109   2.467   7.226 -0.5519  0.3545  0.1715
 3375TIP3   OH231683   2.486   3.308   7.589 -0.1464 -0.1038  0.2278
 3375TIP3    H131684   2.489   3.366   7.512 -0.7763  0.7141  0.7939
 3375TIP3    H231685   2.397   3.318   7.622 -0.8732 -2.8046 -0.6861
 3376TIP3   OH231686   5.657   2.269   1.442  0.0931  0.7397  0.1482
 3376TIP3    H131687   5.741   2.290   1.484  1.1692  0.9810 -2.0121
 3376TIP3    H231688   5.681   2.228   1.359 -1.9525  0.1164 -0.1874
 3377TIP3   OH231689   5.424   6.672   6.860 -0.2463 -0.1056  0.6907
 3377TIP3    H131690   5.448   6.602   6.920 -1.5219 -0.8258  0.3833
 3377TIP3    H231691   5.438   6.636   6.773 -0.2456  0.2663  0.5324
 3378TIP3   OH231692   1.474   4.729   0.237 -0.9356 -0.6265  0.2929
 3378TIP3    H131693   1.450   4.806   0.184 -0.0231 -1.7255 -1.8593
 3378TIP3    H231694   1.401   4.668   0.225  0.1717 -1.6980 -1.5283
 3379TIP3   OH231695   5.144   1.902   8.592 -0.2257 -0.7046 -0.3377
 3379TIP3    H131696   5.134   1.996   8.606  2.0260 -0.5527  0.7190
 3379TIP3    H231697   5.076   1.862   8.645  0.1193  0.2982  0.9104
 3380TIP3   OH231698   4.662   2.165   7.569 -1.1292 -0.2490  0.3263
 3380TIP3    H131699   4.697   2.207   7.647  0.2730 -0.7919  0.0217
 3380TIP3    H231700   4.618   2.086   7.601 -2.5725  0.6738  0.7581
 3381TIP3   OH231701   0.037   4.329   1.146 -0.0252 -0.5884 -0.1352
 3381TIP3    H131702  -0.026   4.384   1.192 -0.1222 -0.2947 -0.6096
 3381TIP3    H231703  -0.001   4.315   1.059  1.0170  0.4634 -0.8016
 3382TIP3   OH231704   2.718   3.830   6.107  0.2123 -0.1324  0.2798
 3382TIP3    H131705   2.814   3.827   6.100  0.1088 -1.6757 -1.5451
 3382TIP3    H231706   2.695   3.920   6.084  1.2843  0.9724  3.1066
 3383TIP3   OH231707   1.769   1.809   2.115 -0.3214 -0.1889 -0.2113
 3383TIP3    H131708   1.727   1.731   2.078 -0.2820 -0.2143 -0.2016
 3383TIP3    H231709   1.749   1.879   2.052 -1.1125 -0.0122  0.2151
 3384TIP3   OH231710   4.945   3.390   0.739 -0.2777  0.0766  0.2109
 3384TIP3    H131711   4.862   3.343   0.753 -2.3242  3.1986 -0.2915
 3384TIP3    H231712   4.989   3.388   0.823 -0.5259 -2.1694  0.3356
 3385TIP3   OH231713   2.303   6.120   7.265 -0.7138 -0.4310 -0.3377
 3385TIP3    H131714   2.210   6.097   7.275 -0.7266  0.4860  2.4356
 3385TIP3    H231715   2.348   6.035   7.261 -1.6585 -0.9053 -2.4909
 3386TIP3   OH231716   1.098   6.246   0.402 -0.3048  0.2954  0.0059
 3386TIP3    H131717   1.129   6.201   0.324  3.1114  0.5809  1.0363
 3386TIP3    H231718   1.110   6.183   0.473  0.4319  1.3230  0.8375
 3387TIP3   OH231719   2.815   4.145   0.938  0.2504  0.3380 -0.0824
 3387TIP3    H131720   2.774   4.061   0.915 -0.4104  0.0736  1.8615
 3387TIP3    H231721   2.804   4.199   0.861  1.2783 -1.5535 -1.6510
 3388TIP3   OH231722   3.679   0.189   7.885  0.2444  0.0954 -0.3618
 3388TIP3    H131723   3.685   0.235   7.801 -0.8052  1.9344  0.5044
 3388TIP3    H231724   3.671   0.259   7.950  2.0531 -1.2245  1.4113
 3389TIP3   OH231725   2.479   6.528   6.929  0.1012  0.0191  0.1263
 3389TIP3    H131726   2.431   6.448   6.953 -0.1588  0.4448  1.0951
 3389TIP3    H231727   2.514   6.510   6.842  0.2394 -1.2417  0.4159
 3390TIP3   OH231728   4.337   0.621   2.290  0.1456  0.3106 -0.1598
 3390TIP3    H131729   4.256   0.570   2.296  0.0650  0.1190 -2.1129
 3390TIP3    H231730   4.396   0.579   2.352 -0.3240 -1.4505 -0.8205
 3391TIP3   OH231731   3.045   3.522   7.780 -0.8345 -0.0607  0.4067
 3391TIP3    H131732   3.081   3.433   7.778  1.2914  0.6179  2.7481
 3391TIP3    H231733   3.048   3.551   7.689 -1.0712 -2.1600 -0.3288
 3392TIP3   OH231734   1.863   0.947   8.019  0.1188 -0.4446 -0.0410
 3392TIP3    H131735   1.839   0.975   8.107 -1.6352  0.8494 -0.8883
 3392TIP3    H231736   1.901   1.025   7.978 -0.2310 -0.6835 -0.8408
 3393TIP3   OH231737   5.179   0.438   0.837 -0.2975 -0.0839  0.0149
 3393TIP3    H131738   5.267   0.475   0.835 -0.2371 -0.1688  0.9800
 3393TIP3    H231739   5.166   0.405   0.748  1.3367 -1.6850  0.3162
 3394TIP3   OH231740   0.817   2.422   0.240  0.3423  0.9102 -0.1190
 3394TIP3    H131741   0.848   2.339   0.203  0.4644 -0.0063  1.9033
 3394TIP3    H231742   0.725   2.405   0.260  0.6703  0.8182  1.4135
 3395TIP3   OH231743   0.028   5.381   7.206  0.2212 -0.1448  0.0433
 3395TIP3    H131744   0.097   5.323   7.175  0.9869  1.3307 -1.1498
 3395TIP3    H231745   0.029   5.371   7.301  4.0490  1.8199  0.4204
 3396TIP3   OH231746   4.395   4.417   7.986 -0.1762  0.2041  0.0002
 3396TIP3    H131747   4.320   4.460   8.026  0.7174  1.3452  0.5096
 3396TIP3    H231748   4.377   4.419   7.892 -1.4752 -0.9212  0.2007
 3397TIP3   OH231749   3.292   1.823   6.841  0.3015  0.0632  0.0497
 3397TIP3    H131750   3.382   1.820   6.872  0.3806  3.1228  0.3684
 3397TIP3    H231751   3.295   1.778   6.756  2.0578 -0.1436  0.1784
 3398TIP3   OH231752   3.058   2.741   0.502  0.3203  0.5871  0.4537
 3398TIP3    H131753   2.982   2.778   0.455  0.6796  1.2442  0.3757
 3398TIP3    H231754   3.133   2.788   0.466  0.7217  0.2637  0.8601
 3399TIP3   OH231755   5.983   5.375   1.039 -0.3893  0.4516 -0.1012
 3399TIP3    H131756   5.929   5.453   1.057 -1.0716  0.3103 -1.4265
 3399TIP3    H231757   5.997   5.377   0.945  0.6444 -0.3680  0.0270
 3400TIP3   OH231758   5.548   5.249   7.451  0.3987 -0.1496  0.4413
 3400TIP3    H131759   5.494   5.175   7.421 -0.6054  0.0329  1.7097
 3400TIP3    H231760   5.589   5.217   7.531  1.3342  0.0935  0.0681
 3401TIP3   OH231761   1.548   3.991   1.485  0.1571  0.2446  0.1105
 3401TIP3    H131762   1.548   3.897   1.503  1.2300 -0.2944 -2.2883
 3401TIP3    H231763   1.614   4.003   1.417 -1.2553  2.4534 -1.0148
 3402TIP3   OH231764   3.840   0.238   1.939 -0.0524  0.2463 -0.2964
 3402TIP3    H131765   3.787   0.310   1.972 -0.2717 -0.2874  0.5264
 3402TIP3    H231766   3.800   0.216   1.855 -0.7495  0.2549  0.0319
 3403TIP3   OH231767   5.290   0.892   7.724 -0.0705 -0.8921 -0.9709
 3403TIP3    H131768   5.267   0.985   7.731  0.3528 -0.7811 -1.0149
 3403TIP3    H231769   5.373   0.892   7.677 -0.7464 -1.3692 -2.2081
 3404TIP3   OH231770   1.703   5.153   7.141 -0.5405 -0.3729  0.1621
 3404TIP3    H131771   1.759   5.112   7.076 -0.7764 -1.9539  0.9122
 3404TIP3    H231772   1.737   5.242   7.150  0.9880 -0.8825 -0.3631
 3405TIP3   OH231773   0.091   0.552   7.227  0.7673 -0.3934  0.1279
 3405TIP3    H131774   0.044   0.568   7.145  1.5073 -0.4544 -0.3181
 3405TIP3    H231775   0.023   0.550   7.294  0.1097 -0.7554 -0.5435
 3406TIP3   OH231776   1.103   4.368   1.637  0.2875 -0.2873  0.6035
 3406TIP3    H131777   1.014   4.390   1.608 -0.2957  1.7391  3.5024
 3406TIP3    H231778   1.091   4.320   1.719  1.8321  0.3669  1.2633
 3407TIP3   OH231779   1.559   6.261   8.391  0.4393  0.3985  0.2022
 3407TIP3    H131780   1.511   6.307   8.322  0.2484 -1.3050 -0.8696
 3407TIP3    H231781   1.507   6.182   8.407 -0.1011  1.2201  3.1037
 3408TIP3   OH231782   4.893   5.222   0.979  0.3335 -0.0690  0.0736
 3408TIP3    H131783   4.923   5.168   1.052 -2.1652 -1.2034  0.3500
 3408TIP3    H231784   4.856   5.300   1.020 -1.0424 -0.6918  0.0596
 3409TIP3   OH231785   0.173   0.506   1.778  0.3282  0.6385  0.8056
 3409TIP3    H131786   0.261   0.507   1.740 -0.3606 -0.0629 -0.8879
 3409TIP3    H231787   0.157   0.415   1.800  0.1566  0.8267  1.5091
 3410TIP3   OH231788   1.777   2.805   0.442  0.3259 -0.0846  0.1227
 3410TIP3    H131789   1.768   2.884   0.389  0.7512 -1.4875 -2.1898
 3410TIP3    H231790   1.694   2.759   0.431  0.4162 -0.4004  0.7218
 3411TIP3   OH231791   0.041   5.035   1.837 -0.3217 -0.1227  0.0115
 3411TIP3    H131792   0.100   4.985   1.781 -0.9525 -0.1650 -0.6269
 3411TIP3    H231793   0.097   5.103   1.875 -0.1152  0.7264 -1.6844
 3412TIP3   OH231794   2.179   4.454   7.552  0.7112 -0.6246 -0.3253
 3412TIP3    H131795   2.185   4.370   7.507 -0.3683 -0.7568 -0.2516
 3412TIP3    H231796   2.098   4.493   7.519  1.5989  0.7519 -0.9634
 3413TIP3   OH231797   4.255   6.243   8.287 -0.0269 -0.4374  0.3596
 3413TIP3    H131798   4.212   6.213   8.367  0.4150 -0.3185  0.6410
 3413TIP3    H231799   4.276   6.335   8.305 -1.5359  0.1354 -0.5563
 3414TIP3   OH231800   1.692   5.094   1.217 -0.6982  0.0365  0.4457
 3414TIP3    H131801   1.780   5.124   1.192 -0.2509 -2.0949 -0.6873
 3414TIP3    H231802   1.702   5.069   1.309 -0.0993 -0.2612  0.3082
 3415TIP3   OH231803   4.152   3.641   6.115 -0.4535  0.9117 -0.3717
 3415TIP3    H131804   4.166   3.551   6.086 -2.2993  0.1990  0.7520
 3415TIP3    H231805   4.096   3.679   6.047  1.1940  1.6163 -1.4064
 3416TIP3   OH231806   2.377   5.968   8.019  0.3898 -0.3387 -0.3139
 3416TIP3    H131807   2.422   6.045   8.052  1.1198 -0.8846  0.0023
 3416TIP3    H231808   2.385   5.974   7.924 -0.7459  0.6626 -0.3723
 3417TIP3   OH231809   0.976   4.917   8.401  0.3972 -0.2182 -0.1396
 3417TIP3    H131810   0.981   4.934   8.495  0.7793  2.0800 -0.5300
 3417TIP3    H231811   1.003   4.825   8.392 -0.5222 -0.7587  2.0511
 3418TIP3   OH231812   3.741   3.167   7.583  0.2639 -0.2359 -0.3663
 3418TIP3    H131813   3.801   3.107   7.538  0.7630 -0.6071  0.7525
 3418TIP3    H231814   3.774   3.254   7.563  0.6155 -0.4084 -0.5402
 3419TIP3   OH231815   5.714   2.065   0.747  0.1229  0.0943  0.5698
 3419TIP3    H131816   5.732   2.143   0.694 -1.7375 -0.4016 -0.8978
 3419TIP3    H231817   5.637   2.026   0.707 -1.2809 -0.4531  3.5489
 3420TIP3   OH231818   1.841   3.101   0.700  0.1239 -0.3850  0.2050
 3420TIP3    H131819   1.808   3.190   0.703  1.2189  0.0168  1.3836
 3420TIP3    H231820   1.845   3.079   0.607 -0.3475  0.7094 -0.0827
 3421TIP3   OH231821   5.311   2.586   7.285 -0.1737  0.5443  0.7781
 3421TIP3    H131822   5.257   2.510   7.305 -0.7782  0.5222 -0.8066
 3421TIP3    H231823   5.400   2.558   7.303 -0.2520 -0.9860 -0.9232
 3422TIP3   OH231824   6.650   1.335   0.466 -0.4355  0.3282 -0.1415
 3422TIP3    H131825   6.667   1.310   0.557 -0.8428 -0.1261 -0.1874
 3422TIP3    H231826   6.736   1.356   0.430 -0.3389  1.1206  0.5225
 3423TIP3   OH231827   2.584   6.440   8.314  0.1065  0.6322 -0.0268
 3423TIP3    H131828   2.520   6.506   8.343 -1.7014 -1.5387  1.2543
 3423TIP3    H231829   2.558   6.360   8.360  2.6733 -0.8159 -0.9241
 3424TIP3   OH231830   3.877   4.295   6.410  0.1026 -0.3017  0.2110
 3424TIP3    H131831   3.897   4.227   6.474  0.3576 -0.2381  0.1980
 3424TIP3    H231832   3.915   4.375   6.446 -0.9448  0.0154  0.6525
 3425TIP3   OH231833   3.275   6.073   7.528 -0.4663 -0.8293  0.4239
 3425TIP3    H131834   3.224   6.008   7.480  0.0293 -0.2877 -0.8953
 3425TIP3    H231835   3.365   6.059   7.499 -0.2467 -0.0555  0.7022
 3426TIP3   OH231836   2.637   1.830   7.235  0.0249 -0.0477 -0.5019
 3426TIP3    H131837   2.573   1.797   7.299 -1.2898 -1.1504 -2.2789
 3426TIP3    H231838   2.586   1.890   7.180  1.4156  1.8135  0.1261
 3427TIP3   OH231839   4.592   0.699   8.042  0.5214  0.4581 -0.4314
 3427TIP3    H131840   4.594   0.737   8.130  1.6139 -1.0199  0.2225
 3427TIP3    H231841   4.629   0.767   7.986  3.6776 -0.0065  0.9026
 3428TIP3   OH231842   0.566   1.479   1.001  0.3843 -0.2617 -0.2759
 3428TIP3    H131843   0.485   1.474   0.951  0.2955  0.6652 -0.2410
 3428TIP3    H231844   0.564   1.566   1.041  0.8553 -0.6598  0.6452
 3429TIP3   OH231845   0.026   6.018   1.365  0.1519 -0.4175  0.0419
 3429TIP3    H131846   0.060   5.940   1.320 -1.1010 -1.1220  0.2569
 3429TIP3    H231847   0.058   6.008   1.455  0.4276 -0.4117 -0.0540
 3430TIP3   OH231848   4.691   2.080   8.314  0.1617  0.0249 -0.1816
 3430TIP3    H131849   4.645   2.089   8.231 -0.4380  0.5057  0.1942
 3430TIP3    H231850   4.643   2.136   8.375  2.3888  2.1819 -0.2335
 3431TIP3   OH231851   1.829   3.976   8.453  0.0826 -0.6123 -0.4490
 3431TIP3    H131852   1.869   3.909   8.508 -0.1801 -0.9113 -0.6203
 3431TIP3    H231853   1.784   3.927   8.384  1.6367 -0.1972 -1.7982
 3432TIP3   OH231854   1.123   3.690   0.389 -0.3836 -0.2225 -0.0504
 3432TIP3    H131855   1.132   3.771   0.339 -0.1450 -0.2346 -0.0284
 3432TIP3    H231856   1.094   3.719   0.476 -1.0254 -0.2209 -0.2667
 3433TIP3   OH231857   2.809   2.376   0.803  0.4274 -0.0657  0.5750
 3433TIP3    H131858   2.829   2.308   0.739  2.7539  1.6263 -0.6301
 3433TIP3    H231859   2.876   2.366   0.871  0.7216  0.8929  0.4483
 3434TIP3   OH231860   4.550   0.095   1.776  0.0085  0.6904  0.4687
 3434TIP3    H131861   4.584   0.174   1.819 -0.1999  0.0535  1.8663
 3434TIP3    H231862   4.589   0.023   1.824  0.0558 -0.0772 -0.6801
 3435TIP3   OH231863   5.357   1.866   1.852 -0.1567 -0.8624  0.4989
 3435TIP3    H131864   5.270   1.879   1.890 -0.5514 -1.7282 -0.0749
 3435TIP3    H231865   5.349   1.787   1.799  0.7949 -0.5538 -0.1435
 3436TIP3   OH231866   6.115   3.460   6.854 -0.4561  0.3819  0.1383
 3436TIP3    H131867   6.055   3.453   6.779  1.4880 -0.2181 -1.4334
 3436TIP3    H231868   6.138   3.370   6.874  0.5611  0.6451  0.1677
 3437TIP3   OH231869   2.369   2.108   6.907  0.5692  0.3012 -0.1229
 3437TIP3    H131870   2.300   2.173   6.899  1.5051  1.4799  0.9476
 3437TIP3    H231871   2.410   2.106   6.820 -0.2842  0.1573 -0.5368
 3438TIP3   OH231872   4.174   5.334   8.591  0.1476  0.1823 -0.3704
 3438TIP3    H131873   4.207   5.265   8.649  0.3454  1.7939  1.5605
 3438TIP3    H231874   4.096   5.296   8.550  1.8439 -2.1707 -1.6557
 3439TIP3   OH231875   4.864   2.940   8.333  0.3698 -0.9290  0.1985
 3439TIP3    H131876   4.812   2.967   8.408  0.4331 -0.1722 -0.0222
 3439TIP3    H231877   4.929   3.009   8.322 -0.0089 -0.7193 -0.9118
 3440TIP3   OH231878   5.349   3.508   8.148 -0.5989 -0.1904 -0.7309
 3440TIP3    H131879   5.327   3.489   8.239  0.6088  1.6349 -0.0205
 3440TIP3    H231880   5.283   3.459   8.098 -0.6332 -2.1189  1.0430
 3441TIP3   OH231881   4.283   6.135   8.550  0.0823  0.1254  0.0004
 3441TIP3    H131882   4.234   6.087   8.617 -1.0023  0.0545 -0.7993
 3441TIP3    H231883   4.334   6.199   8.598 -0.5879  0.0022  0.9011
 3442TIP3   OH231884   6.148   1.677   7.183 -0.2132 -0.2144 -0.1846
 3442TIP3    H131885   6.116   1.639   7.102  1.7714  0.4503 -1.3579
 3442TIP3    H231886   6.072   1.721   7.221 -1.6777 -2.2228 -0.6116
 3443TIP3   OH231887   3.718   1.146   6.026 -0.1942 -0.5932 -0.8741
 3443TIP3    H131888   3.790   1.093   6.059 -0.3600 -0.6939 -0.6687
 3443TIP3    H231889   3.755   1.233   6.013 -0.7982  0.2974  2.4464
 3444TIP3   OH231890   5.082   0.864   0.973  0.1587  0.1267  0.2398
 3444TIP3    H131891   5.028   0.829   1.043  0.3918 -2.8807 -0.9536
 3444TIP3    H231892   5.029   0.856   0.894  0.8133  1.1092 -0.3368
 3445TIP3   OH231893   1.985   2.170   8.325  0.0940 -0.1822  0.1237
 3445TIP3    H131894   2.046   2.225   8.276  0.2025  0.4226  0.9257
 3445TIP3    H231895   2.026   2.157   8.410 -1.2126  0.8741  0.9583
 3446TIP3   OH231896   4.080   2.810   7.677  0.4513 -0.2743  0.1036
 3446TIP3    H131897   4.148   2.769   7.731 -0.8174 -1.3133  0.9680
 3446TIP3    H231898   4.088   2.766   7.592  0.5017 -0.7959  0.3747
 3447TIP3   OH231899   3.950   0.441   8.340  0.6503  0.2609 -0.2242
 3447TIP3    H131900   3.953   0.523   8.389 -0.5937 -0.2854  0.8457
 3447TIP3    H231901   3.935   0.468   8.249 -2.0599  1.2352  0.4031
 3448TIP3   OH231902   0.437   2.425   1.269  0.0652  0.0628  0.9565
 3448TIP3    H131903   0.434   2.360   1.199  0.2112 -0.3219  1.3013
 3448TIP3    H231904   0.413   2.507   1.227  1.1641  0.0309  0.2264
 3449TIP3   OH231905   2.367   5.102   8.807 -0.2231  0.4182 -0.1853
 3449TIP3    H131906   2.357   5.009   8.790 -4.1972 -0.0538  3.1049
 3449TIP3    H231907   2.443   5.108   8.865 -0.2674 -0.8843  0.0259
 3450TIP3   OH231908   2.372   5.911   0.282 -0.4053  1.5724 -0.1112
 3450TIP3    H131909   2.425   5.863   0.218 -1.9923 -1.9151  0.9584
 3450TIP3    H231910   2.287   5.920   0.240 -0.8065  1.3104  0.6444
 3451TIP3   OH231911   4.590   6.046   7.567 -0.1563 -0.3278  0.2443
 3451TIP3    H131912   4.664   6.017   7.621  1.2969  1.8215 -0.4435
 3451TIP3    H231913   4.589   5.984   7.494  2.6701  0.9199 -1.0356
 3452TIP3   OH231914   1.561   0.246   8.030  0.0500  0.4362  0.3287
 3452TIP3    H131915   1.604   0.331   8.019 -0.1806  0.6401  0.9800
 3452TIP3    H231916   1.588   0.217   8.117  0.3755 -0.3016 -0.0099
 3453TIP3   OH231917   2.300   0.659   6.779 -0.0890 -0.3382  0.1111
 3453TIP3    H131918   2.337   0.706   6.854 -0.5532 -1.4415  1.0558
 3453TIP3    H231919   2.207   0.680   6.781 -0.7064 -2.8508  1.7980
 3454TIP3   OH231920   4.626   3.570   0.879 -0.3780  0.1841 -0.3375
 3454TIP3    H131921   4.645   3.494   0.824  0.7486  0.0392  0.2222
 3454TIP3    H231922   4.620   3.643   0.817  2.5635  0.3320 -0.5983
 3455TIP3   OH231923   6.360   0.664   8.290  0.2694  0.1519  0.2083
 3455TIP3    H131924   6.285   0.663   8.230  0.5288  3.9327 -0.4520
 3455TIP3    H231925   6.328   0.623   8.370 -2.6728  1.8039  0.0261
 3456TIP3   OH231926   3.750   2.969   0.377 -0.3494 -0.3382  0.3856
 3456TIP3    H131927   3.840   2.943   0.395 -0.2075  0.4070  0.7647
 3456TIP3    H231928   3.722   3.019   0.453 -0.7522  0.2756 -0.1447
 3457TIP3   OH231929   5.138   1.686   1.384  0.2965  0.4311 -0.1190
 3457TIP3    H131930   5.103   1.762   1.430  1.3877  0.7330  0.2494
 3457TIP3    H231931   5.062   1.644   1.344 -0.4665  1.0632  0.6469
 3458TIP3   OH231932   0.422   0.225   0.379  0.2026 -0.1436  0.2754
 3458TIP3    H131933   0.487   0.172   0.425 -0.9208  0.4268  2.7047
 3458TIP3    H231934   0.391   0.169   0.308  0.8139 -1.7759  1.2359
 3459TIP3   OH231935   0.252   5.366   0.856 -0.0975  0.2895  0.4230
 3459TIP3    H131936   0.187   5.324   0.913 -0.0902  1.3661  1.2461
 3459TIP3    H231937   0.224   5.457   0.851  0.3854  0.3941 -0.6349
 3460TIP3   OH231938   6.191   2.333   7.246 -0.0276  0.5451  0.2117
 3460TIP3    H131939   6.153   2.415   7.277  0.0453  0.8609 -0.5049
 3460TIP3    H231940   6.120   2.269   7.257 -0.2120  0.7810  0.4217
 3461TIP3   OH231941   5.625   2.749   0.613 -0.1715 -0.6233  0.0779
 3461TIP3    H131942   5.530   2.758   0.619  0.0207  1.6438  0.5902
 3461TIP3    H231943   5.642   2.657   0.635 -2.2882 -1.3418 -1.0136
 3462TIP3   OH231944   3.437   4.191   7.892 -0.3530 -0.2563 -0.4391
 3462TIP3    H131945   3.371   4.258   7.910 -0.9821 -0.2999 -2.3635
 3462TIP3    H231946   3.420   4.122   7.956  0.3759  1.4161  1.6637
 3463TIP3   OH231947   1.099   3.269   8.734  0.0186 -0.1396  0.1236
 3463TIP3    H131948   1.112   3.175   8.751 -0.0378 -0.1238  0.2564
 3463TIP3    H231949   1.184   3.299   8.702 -0.1361 -0.3624 -0.5032
 3464TIP3   OH231950   1.354   4.399   7.745  0.8533  0.0315  0.0752
 3464TIP3    H131951   1.273   4.446   7.768  0.8319 -0.8388  2.0006
 3464TIP3    H231952   1.417   4.469   7.725  0.2255  0.8149  0.7297
 3465TIP3   OH231953   2.217   6.206   0.346  0.0412  0.2550 -0.5399
 3465TIP3    H131954   2.204   6.152   0.268  2.4262  1.0594 -1.5906
 3465TIP3    H231955   2.204   6.296   0.316  0.0570  0.5182  0.2109
 3466TIP3   OH231956   5.221   5.718   1.001  0.5035  0.0891 -0.8975
 3466TIP3    H131957   5.213   5.810   0.975 -3.7787  0.0239 -0.4901
 3466TIP3    H231958   5.240   5.721   1.095 -2.3943  0.7681 -0.2265
 3467TIP3   OH231959   6.579   2.123   0.490 -0.2475  0.0552 -0.0424
 3467TIP3    H131960   6.568   2.114   0.396 -1.7732  0.0648  0.1121
 3467TIP3    H231961   6.560   2.036   0.525  1.9738 -0.4063  0.1628
 3468TIP3   OH231962   6.328   2.311   0.326 -0.4712  0.6351  0.2935
 3468TIP3    H131963   6.397   2.245   0.325  0.7510  1.8506 -1.4770
 3468TIP3    H231964   6.262   2.276   0.386  2.4583  0.2653  3.6446
 3469TIP3   OH231965   2.234   2.730   1.637  0.1371  0.4881 -0.0363
 3469TIP3    H131966   2.292   2.797   1.602  0.2662  0.1203 -0.5231
 3469TIP3    H231967   2.276   2.702   1.718  0.1211  0.9388  0.1307
 3470TIP3   OH231968   1.397   5.874   0.909  0.2079 -0.0826  0.0176
 3470TIP3    H131969   1.480   5.829   0.927  0.1088 -0.1039  0.4285
 3470TIP3    H231970   1.361   5.828   0.833  1.2594  0.8511 -1.0809
 3471TIP3   OH231971   3.138   1.853   1.505  0.0343  0.4234  0.0767
 3471TIP3    H131972   3.081   1.867   1.430 -1.0647 -0.2073  0.7771
 3471TIP3    H231973   3.155   1.759   1.505  0.9379  0.5780 -0.0122
 3472TIP3   OH231974   1.576   5.061   8.739 -0.0986 -0.0067 -0.1854
 3472TIP3    H131975   1.577   5.154   8.761 -0.2433  0.4143 -1.8422
 3472TIP3    H231976   1.485   5.044   8.713  0.4251 -0.0026 -2.1898
 3473TIP3   OH231977   3.092   4.199   7.124 -0.3994 -0.3372  0.2755
 3473TIP3    H131978   3.120   4.244   7.044  0.7383 -0.0659  0.8168
 3473TIP3    H231979   3.098   4.265   7.193  0.0985 -0.9760  0.8592
 3474TIP3   OH231980   2.072   1.109   8.304  0.5625 -0.0104  0.0174
 3474TIP3    H131981   2.066   1.097   8.399  0.6757  0.7100  0.1158
 3474TIP3    H231982   2.000   1.168   8.283  1.2056  0.7114 -0.1875
 3475TIP3   OH231983   1.672   3.426   0.048 -0.1946 -0.0738  0.2053
 3475TIP3    H131984   1.661   3.358   0.114 -2.0738  1.0643  1.1257
 3475TIP3    H231985   1.656   3.381  -0.035 -0.5111 -0.9371  0.7176
 3476TIP3   OH231986   0.189   0.882   7.107 -0.5591 -0.2615 -0.0330
 3476TIP3    H131987   0.227   0.795   7.104 -0.5883 -0.2754  0.0127
 3476TIP3    H231988   0.256   0.939   7.070 -0.0387 -0.1184  1.0972
 3477TIP3   OH231989   4.052   1.556   7.218  0.4039 -0.3441 -0.1773
 3477TIP3    H131990   4.069   1.620   7.286  1.0504 -2.3867  1.7223
 3477TIP3    H231991   3.957   1.556   7.207  0.2724 -0.0836  0.8679
 3478TIP3   OH231992   6.669   0.655   7.376 -0.2009  0.3121 -0.5912
 3478TIP3    H131993   6.588   0.642   7.327  0.2278 -1.1129 -0.9737
 3478TIP3    H231994   6.641   0.691   7.460 -1.3542 -1.1546 -0.3062
 3479TIP3   OH231995   0.345   0.781   0.425 -0.0388  0.9619 -0.2041
 3479TIP3    H131996   0.417   0.729   0.462  1.1416  1.6151 -1.4904
 3479TIP3    H231997   0.283   0.790   0.498  0.6772 -0.4852  0.6437
 3480TIP3   OH231998   5.875   2.852   0.680 -0.8787 -0.4226 -0.9361
 3480TIP3    H131999   5.855   2.851   0.774 -0.2257 -1.0832 -0.7968
 3480TIP3    H232000   5.796   2.818   0.638 -2.0328  1.9465 -0.8185
 3481TIP3   OH232001   3.294   4.000   6.068 -0.3188 -0.3275 -0.0042
 3481TIP3    H132002   3.238   4.032   5.997  0.2897 -0.5489 -0.5928
 3481TIP3    H232003   3.304   3.906   6.050  2.3986  0.1713 -1.4341
 3482TIP3   OH232004   6.520   5.606   8.531 -0.0506 -0.0847  0.3672
 3482TIP3    H132005   6.477   5.524   8.505 -2.3387  1.2274 -0.2788
 3482TIP3    H232006   6.462   5.642   8.599  0.4939  1.3651  0.0872
 3483TIP3   OH232007   4.363   2.895   0.955 -0.2622  0.0503 -0.2506
 3483TIP3    H132008   4.284   2.861   0.913  0.5960  0.5493 -2.4226
 3483TIP3    H232009   4.434   2.863   0.901  0.8322  1.9807 -0.0554
 3484TIP3   OH232010   1.416   1.211   0.375 -0.5177  0.0707  0.1131
 3484TIP3    H132011   1.466   1.260   0.309  0.3264 -0.3029  0.4533
 3484TIP3    H232012   1.443   1.249   0.458  0.4015 -1.1632  0.4062
 3485TIP3   OH232013   6.288   0.927   7.033  0.1444 -0.0490 -0.0687
 3485TIP3    H132014   6.198   0.951   7.053 -0.0465  0.1616 -1.0986
 3485TIP3    H232015   6.320   0.883   7.112 -0.4536  0.9670  0.7607
 3486TIP3   OH232016   2.399   5.655   8.229  0.2070  0.1564  0.0340
 3486TIP3    H132017   2.320   5.631   8.276 -0.4727 -0.0829 -1.1916
 3486TIP3    H232018   2.413   5.747   8.252 -1.2578  0.6312 -0.8450
 3487TIP3   OH232019   2.832   1.669   8.650 -0.7451 -0.2559 -0.0926
 3487TIP3    H132020   2.769   1.700   8.715 -0.2597 -0.8894  0.7178
 3487TIP3    H232021   2.896   1.619   8.702 -0.7461 -1.4080 -1.1489
 3488TIP3   OH232022   4.847   3.264   7.760  0.2792 -0.2175  0.6800
 3488TIP3    H132023   4.903   3.312   7.699 -0.2588  1.0399  1.1274
 3488TIP3    H232024   4.760   3.301   7.746 -0.0319 -0.6115  1.5069
 3489TIP3   OH232025   2.522   3.916   7.690 -0.0063 -0.4302 -0.5440
 3489TIP3    H132026   2.447   3.877   7.645  1.6388 -2.1596 -1.9666
 3489TIP3    H232027   2.581   3.843   7.705  1.4926  0.9115  0.3708
 3490TIP3   OH232028   4.446   6.252   7.049  0.1802 -0.2823 -0.6305
 3490TIP3    H132029   4.527   6.213   7.081 -0.7214 -0.5793  1.4980
 3490TIP3    H232030   4.414   6.192   6.982  0.2255 -1.7848  0.6505
 3491TIP3   OH232031   0.597   5.637   1.474  0.3253 -0.8155  0.0570
 3491TIP3    H132032   0.565   5.707   1.531  2.8931  2.2641 -1.9136
 3491TIP3    H232033   0.590   5.557   1.527  1.0013  1.5165  4.0743
 3492TIP3   OH232034   6.522   3.008   6.519 -0.6006  0.1220 -0.0071
 3492TIP3    H132035   6.551   3.086   6.565 -0.9127  0.7895 -0.9057
 3492TIP3    H232036   6.561   3.015   6.432  0.1781 -1.2334  0.2096
 3493TIP3   OH232037   0.156   2.331   6.502  0.0148  0.0346 -0.3419
 3493TIP3    H132038   0.147   2.242   6.536 -3.4223  0.8107  1.2851
 3493TIP3    H232039   0.230   2.367   6.550  0.1095 -1.3245  0.5909
 3494TIP3   OH232040   2.460   0.818   6.920  0.1811 -0.4791 -0.3977
 3494TIP3    H132041   2.493   0.754   6.984  2.1304 -0.5270 -1.3840
 3494TIP3    H232042   2.427   0.890   6.974  1.9564 -0.4245  0.7175
 3495TIP3   OH232043   2.065   4.937   0.682 -0.0299 -0.1803 -0.0392
 3495TIP3    H132044   2.019   4.867   0.729 -1.5942  0.6660 -0.2528
 3495TIP3    H232045   2.043   4.922   0.590  0.6687 -0.1299 -0.2206
 3496TIP3   OH232046   0.256   6.085   5.988 -0.2921 -0.3771 -0.4702
 3496TIP3    H132047   0.318   6.026   6.031  0.2657  0.1896 -0.4817
 3496TIP3    H232048   0.287   6.173   6.009 -1.6981 -0.0506  0.4107
 3497TIP3   OH232049   1.245   2.228   0.944 -0.6722  0.2303  0.1896
 3497TIP3    H132050   1.265   2.138   0.970  3.2613  0.6811 -0.6010
 3497TIP3    H232051   1.259   2.230   0.849 -1.9733  1.4138 -0.0118
 3498TIP3   OH232052   0.755   3.847   0.409  0.0438 -0.7684 -0.3833
 3498TIP3    H132053   0.849   3.859   0.413  0.0157 -0.7011  0.2315
 3498TIP3    H232054   0.722   3.884   0.491 -0.6474  0.3174 -1.1211
 3499TIP3   OH232055   1.990   2.970   0.434  0.1264 -0.0987  0.1482
 3499TIP3    H132056   1.995   2.990   0.340 -0.2537  0.5316  0.2582
 3499TIP3    H232057   1.941   2.888   0.438 -0.3503  0.1680 -0.1737
 3500TIP3   OH232058   2.429   3.320   1.467  0.8391  0.7192 -0.2262
 3500TIP3    H132059   2.337   3.304   1.445  0.8896  1.6735 -1.1619
 3500TIP3    H232060   2.468   3.232   1.473 -0.0297  0.3275 -0.2362
 3501TIP3   OH232061   5.399   2.917   1.013 -0.0309  0.1609  0.1211
 3501TIP3    H132062   5.349   2.967   1.078 -1.4786 -0.7026 -0.2839
 3501TIP3    H232063   5.490   2.926   1.041 -0.4653  1.1753  1.3128
 3502TIP3   OH232064   4.833   5.590   6.966  0.5686 -0.2316  0.1765
 3502TIP3    H132065   4.920   5.565   6.998  0.6769 -1.1386 -0.7991
 3502TIP3    H232066   4.830   5.559   6.876  0.0089  1.6640 -0.5116
 3503TIP3   OH232067   0.404   1.826   7.199  0.6449  0.0202  0.5650
 3503TIP3    H132068   0.486   1.875   7.193  0.1621  0.7895  0.1367
 3503TIP3    H232069   0.356   1.869   7.269  0.4550 -0.2200  0.5835
 3504TIP3   OH232070   4.260   4.467   6.600 -0.0145  0.1780  0.5333
 3504TIP3    H132071   4.225   4.537   6.545  0.1396 -0.3856 -0.2992
 3504TIP3    H232072   4.249   4.500   6.690 -2.0335  0.3327  0.2881
 3505TIP3   OH232073   5.884   0.159   7.821  0.1479 -0.4478 -0.0169
 3505TIP3    H132074   5.961   0.159   7.878  0.0383 -1.4379  0.1583
 3505TIP3    H232075   5.856   0.251   7.818  1.5730 -0.0028 -0.4293
 3506TIP3   OH232076   6.481   0.543   1.222  0.1856  0.1675 -0.1882
 3506TIP3    H132077   6.394   0.579   1.239 -0.3254 -1.1902  0.1970
 3506TIP3    H232078   6.490   0.548   1.126 -0.3670  0.2095 -0.2439
 3507TIP3   OH232079   4.420   4.374   1.711 -0.3660 -0.2023  0.2535
 3507TIP3    H132080   4.346   4.313   1.715  0.0858 -0.8058 -0.2320
 3507TIP3    H232081   4.385   4.453   1.671 -0.5417 -0.8242 -0.8632
 3508TIP3   OH232082   4.788   6.102   1.139  0.0506  0.0449 -0.1465
 3508TIP3    H132083   4.768   6.121   1.230 -0.3565  1.8164 -0.5657
 3508TIP3    H232084   4.723   6.037   1.113 -1.2309  1.1140  0.2484
 3509TIP3   OH232085   0.116   5.228   1.346  0.2109  0.6904  0.7145
 3509TIP3    H132086   0.148   5.267   1.428  0.4949 -0.5755  1.2305
 3509TIP3    H232087   0.193   5.189   1.306  0.1014  1.4285 -0.2514
 3510TIP3   OH232088   0.914   4.681   7.093 -0.2625 -0.3036 -0.4481
 3510TIP3    H132089   0.934   4.752   7.154  2.1334 -1.9174  0.7856
 3510TIP3    H232090   0.964   4.702   7.014 -1.4397  0.5283 -1.0097
 3511TIP3   OH232091   1.861   3.813   1.365 -0.3004 -0.4697 -0.0539
 3511TIP3    H132092   1.797   3.877   1.332  0.2427 -0.0045 -0.2171
 3511TIP3    H232093   1.867   3.832   1.459  0.0291 -0.1204 -0.1409
 3512TIP3   OH232094   0.873   0.759   1.994  0.2681 -0.0996  0.1909
 3512TIP3    H132095   0.872   0.734   1.901 -0.5938 -0.0900  0.1901
 3512TIP3    H232096   0.862   0.677   2.041 -0.1770 -0.0057  0.2559
 3513TIP3   OH232097   2.713   4.024   7.983 -0.5473 -0.3233 -0.6148
 3513TIP3    H132098   2.738   3.933   7.966 -1.6878 -1.4408  2.9216
 3513TIP3    H232099   2.617   4.021   7.988 -0.5023  0.6418  1.4511
 3514TIP3   OH232100   4.694   2.897   0.447  0.0458  0.7470  0.0500
 3514TIP3    H132101   4.636   2.895   0.524  0.5219  0.3839  0.4104
 3514TIP3    H232102   4.664   2.823   0.394 -0.8413  1.5196 -0.5391
 3515TIP3   OH232103   5.332   0.915   0.032 -0.1895  0.0500  0.3960
 3515TIP3    H132104   5.401   0.854   0.006  0.7567  1.1092  0.2961
 3515TIP3    H232105   5.342   0.923   0.127 -0.3941 -0.0415  0.4259
 3516TIP3   OH232106   1.147   0.656   1.949  0.0183 -0.4895  0.0832
 3516TIP3    H132107   1.197   0.734   1.972 -0.4827 -0.1008 -0.1210
 3516TIP3    H232108   1.056   0.682   1.962 -0.2035 -0.7182 -0.9203
 3517TIP3   OH232109   5.025   6.246   6.298 -0.4696 -0.4442  0.6141
 3517TIP3    H132110   4.967   6.259   6.373 -0.2056  1.4983  0.5150
 3517TIP3    H232111   4.975   6.277   6.223 -0.1323 -0.8725  0.2044
 3518TIP3   OH232112   4.083   5.072   1.376  0.3827 -0.2697 -0.3709
 3518TIP3    H132113   4.052   5.102   1.461  2.4651  1.2220 -0.0674
 3518TIP3    H232114   4.094   4.978   1.386 -0.1543 -0.2230  0.7430
 3519TIP3   OH232115   3.841   2.575   0.849  0.0379 -0.3819  0.0427
 3519TIP3    H132116   3.911   2.640   0.843 -0.9477  0.6985  0.0983
 3519TIP3    H232117   3.886   2.495   0.879  1.4640 -0.0837 -1.1725
 3520TIP3   OH232118   0.731   1.892   0.576  0.3404 -0.1353 -0.0125
 3520TIP3    H132119   0.681   1.969   0.551 -0.4544 -0.9393 -0.9426
 3520TIP3    H232120   0.812   1.897   0.525  0.1070 -0.1300 -0.3786
 3521TIP3   OH232121   4.085   2.590   6.223  0.3255 -0.3629  0.1977
 3521TIP3    H132122   4.168   2.555   6.193 -0.0216 -1.2368  0.2352
 3521TIP3    H232123   4.051   2.524   6.284 -0.1116  0.2599  0.6458
 3522TIP3   OH232124   2.293   5.334   8.519 -0.2639  0.2054 -0.7140
 3522TIP3    H132125   2.382   5.301   8.528 -0.4416 -0.3494 -0.9090
 3522TIP3    H232126   2.240   5.255   8.505 -1.3616  0.0120  3.1962
 3523TIP3   OH232127   4.292   3.164   8.050 -0.1281  1.3722  1.0323
 3523TIP3    H132128   4.325   3.132   8.134 -0.9418  2.0295  1.6135
 3523TIP3    H232129   4.294   3.259   8.059  0.4956  1.4682  0.0153
 3524TIP3   OH232130   6.281   2.958   7.443 -0.1882 -0.0632 -0.3325
 3524TIP3    H132131   6.357   3.002   7.481 -0.6555  2.3345 -1.9260
 3524TIP3    H232132   6.315   2.921   7.361 -0.6470  0.7307 -0.8874
 3525TIP3   OH232133   5.042   3.797   6.136  0.2727  0.2096  0.7527
 3525TIP3    H132134   5.025   3.882   6.178 -0.1308  1.0805 -1.0881
 3525TIP3    H232135   4.956   3.766   6.109  0.2387 -1.5042  2.6007
 3526TIP3   OH232136   3.034   0.439   1.189  0.1799  0.4311 -0.1261
 3526TIP3    H132137   3.036   0.406   1.279 -0.4402 -0.0496 -0.2835
 3526TIP3    H232138   3.100   0.509   1.188  0.1320  0.5012  0.7179
 3527TIP3   OH232139   6.193   2.491   1.359 -0.1785  1.0128  0.0244
 3527TIP3    H132140   6.176   2.526   1.272  0.5519 -0.1826 -0.6315
 3527TIP3    H232141   6.113   2.507   1.408 -0.6096  1.6808 -0.8698
 3528TIP3   OH232142   0.010   4.446   7.511  0.5112 -0.0438 -0.0543
 3528TIP3    H132143   0.050   4.521   7.467  0.0175  0.7069  0.7382
 3528TIP3    H232144   0.044   4.370   7.464  1.3138  0.6522 -0.6433
 3529TIP3   OH232145   4.733   4.482   1.581  0.4660  0.3026  0.0804
 3529TIP3    H132146   4.776   4.520   1.657  0.0854  1.5998 -0.3293
 3529TIP3    H232147   4.805   4.461   1.521  0.7470 -0.5225  0.6916
 3530TIP3   OH232148   0.982   5.392   6.931 -0.0829 -0.4198 -0.0636
 3530TIP3    H132149   1.038   5.318   6.954  1.2338  0.3200 -0.7110
 3530TIP3    H232150   1.023   5.429   6.852 -0.5776  1.0884  0.3415
 3531TIP3   OH232151   1.279   1.352   7.292  0.7868 -0.1050 -0.4949
 3531TIP3    H132152   1.253   1.390   7.209 -0.2641 -0.1636 -0.2105
 3531TIP3    H232153   1.363   1.394   7.313  0.4303  0.8557 -0.9501
 3532TIP3   OH232154   4.001   6.526   8.227 -0.0766 -0.2091  0.8903
 3532TIP3    H132155   3.926   6.502   8.282  0.5633 -3.4379  0.5656
 3532TIP3    H232156   3.996   6.465   8.153  2.6023 -0.2042  0.6327
 3533TIP3   OH232157   2.319   1.712   1.717 -0.2197  0.1381  0.3765
 3533TIP3    H132158   2.349   1.743   1.802  0.8485  1.7486 -0.5311
 3533TIP3    H232159   2.243   1.658   1.736  0.0327  0.4224  2.3441
 3534TIP3   OH232160   1.483   3.719   1.204 -0.2930 -0.8148  0.5807
 3534TIP3    H132161   1.540   3.741   1.278 -0.9021  2.3048  0.2357
 3534TIP3    H232162   1.404   3.684   1.244 -0.1889 -0.2073  1.3353
 3535TIP3   OH232163   2.807   1.741   7.985 -0.2069  0.1783 -0.3546
 3535TIP3    H132164   2.871   1.785   7.930 -0.8086 -0.6404 -1.7541
 3535TIP3    H232165   2.792   1.657   7.942 -0.9324 -0.3621  0.8942
 3536TIP3   OH232166   6.409   4.588   6.561  0.0681  0.7029  0.4403
 3536TIP3    H132167   6.423   4.674   6.521 -0.6010  1.1849  1.2117
 3536TIP3    H232168   6.488   4.572   6.612 -0.4760  1.6102  1.5984
 3537TIP3   OH232169   5.317   4.492   8.272 -0.5091 -0.2905 -0.8341
 3537TIP3    H132170   5.229   4.487   8.310  0.3581  0.1571  1.3663
 3537TIP3    H232171   5.372   4.443   8.333  0.9085  0.0524 -1.7994
 3538TIP3   OH232172   3.056   6.686   0.695 -0.2831 -1.1280 -0.7397
 3538TIP3    H132173   3.063   6.632   0.773  1.3576  0.3609  0.2207
 3538TIP3    H232174   3.093   6.770   0.721  0.1140 -0.5195 -3.0687
 3539TIP3   OH232175   1.586   5.453   0.189  0.1658 -0.4090 -0.5502
 3539TIP3    H132176   1.641   5.491   0.120 -0.1370  0.6968 -0.1942
 3539TIP3    H232177   1.564   5.526   0.246 -0.0266 -1.2124  0.4429
 3540TIP3   OH232178   0.585   0.897   6.883  1.0430 -0.3627 -0.4495
 3540TIP3    H132179   0.557   0.818   6.930 -0.8419  0.2722 -0.4446
 3540TIP3    H232180   0.669   0.920   6.924 -0.1865 -0.2056  2.1882
 3541TIP3   OH232181   4.019   0.704   8.418 -0.5125  0.4592 -0.0473
 3541TIP3    H132182   4.059   0.779   8.374  0.8395 -0.6105 -0.7156
 3541TIP3    H232183   4.071   0.692   8.498 -1.4010  0.8699  0.6140
 3542TIP3   OH232184   2.529   0.567   6.424 -0.0771  0.0768 -0.4021
 3542TIP3    H132185   2.520   0.476   6.393 -0.8400 -0.3381  0.9877
 3542TIP3    H232186   2.513   0.562   6.518  1.4597  1.4261 -0.0267
 3543TIP3   OH232187   6.128   0.241   0.187  0.2313 -0.1369 -0.5312
 3543TIP3    H132188   6.211   0.289   0.180  0.2259 -0.2467 -1.5058
 3543TIP3    H232189   6.061   0.309   0.192  0.4300 -0.0304  1.4189
 3544TIP3   OH232190   1.108   2.773   7.758  0.0478 -1.1191  0.3539
 3544TIP3    H132191   1.107   2.831   7.682  1.3704 -1.8531 -0.2578
 3544TIP3    H232192   1.018   2.740   7.765 -0.1397 -0.8760 -0.7589
 3545TIP3   OH232193   3.264   4.802   8.687 -0.4250 -0.2958 -0.1491
 3545TIP3    H132194   3.343   4.847   8.659  0.4241 -1.6965 -0.1364
 3545TIP3    H232195   3.249   4.736   8.619 -2.3727  0.8162 -0.8448
 3546TIP3   OH232196   2.333   4.003   1.718 -0.1852  0.1807  0.5664
 3546TIP3    H132197   2.245   4.021   1.685  0.1792  0.4451 -0.3009
 3546TIP3    H232198   2.333   3.910   1.738 -0.1509 -0.2254 -1.1224
 3547TIP3   OH232199   3.848   1.779   8.192 -0.2719 -0.2074 -0.2668
 3547TIP3    H132200   3.880   1.841   8.128  0.2187  0.6573  0.7872
 3547TIP3    H232201   3.887   1.806   8.275 -3.2972  0.6452  1.0441
 3548TIP3   OH232202   0.694   1.961   0.215 -0.4364  0.1828 -0.2816
 3548TIP3    H132203   0.704   2.049   0.252  0.4727  0.1567 -0.4373
 3548TIP3    H232204   0.602   1.940   0.227 -0.0051 -0.3041  3.0532
 3549TIP3   OH232205   1.285   4.064   1.529 -0.1630  0.0660  0.1413
 3549TIP3    H132206   1.361   4.008   1.511 -1.7613 -1.9503 -0.7449
 3549TIP3    H232207   1.211   4.003   1.531 -2.0448  2.1792 -1.0721
 3550TIP3   OH232208   3.462   6.725   8.520  0.6406  0.5507  0.2997
 3550TIP3    H132209   3.367   6.717   8.528  0.8056 -0.2902  1.7059
 3550TIP3    H232210   3.475   6.772   8.437 -0.9555 -0.2396 -0.4392
 3551TIP3   OH232211   6.094   0.333   1.547  0.0690  0.9335 -0.3365
 3551TIP3    H132212   6.053   0.408   1.505 -2.0363  0.8041  1.2954
 3551TIP3    H232213   6.069   0.341   1.639  1.4783 -0.6993  0.2352
 3552TIP3   OH232214   6.531   1.281   0.965 -0.2579  0.1684 -0.2169
 3552TIP3    H132215   6.539   1.197   0.921 -2.9816 -0.4710  0.3279
 3552TIP3    H232216   6.538   1.346   0.895 -1.6800 -0.7003 -1.2231
 3553TIP3   OH232217   1.110   3.447   6.316  0.2157 -0.1124 -0.3454
 3553TIP3    H132218   1.144   3.536   6.305  0.1656 -0.0478  0.0152
 3553TIP3    H232219   1.033   3.444   6.259 -0.9914  0.7358  1.1659
 3554TIP3   OH232220   1.451   0.383   6.646  0.5806  0.1432 -0.6193
 3554TIP3    H132221   1.467   0.385   6.552 -0.7372 -0.0445 -0.8671
 3554TIP3    H232222   1.380   0.320   6.657  2.8574 -2.3639  0.8826
 3555TIP3   OH232223   6.100   2.460   1.670 -0.2340 -0.6448 -0.0979
 3555TIP3    H132224   6.105   2.370   1.703  2.2172 -0.7882 -0.7093
 3555TIP3    H232225   6.126   2.514   1.744 -0.0244 -0.5585 -0.2351
 3556TIP3   OH232226   3.445   0.054   7.383 -0.3034  0.0668  0.1302
 3556TIP3    H132227   3.474  -0.019   7.328 -0.7116  0.5489 -0.7395
 3556TIP3    H232228   3.362   0.024   7.420 -0.1592 -0.1555  0.2773
 3557TIP3   OH232229   1.255   4.434   0.399  0.4532 -0.4474  0.1885
 3557TIP3    H132230   1.221   4.380   0.471  0.4328  1.5571  1.7554
 3557TIP3    H232231   1.326   4.381   0.362 -1.3122 -2.7258 -0.1841
 3558TIP3   OH232232   3.275   5.123   7.332  0.2829 -0.4433  0.3540
 3558TIP3    H132233   3.322   5.067   7.270 -0.6764 -0.5263 -0.3204
 3558TIP3    H232234   3.277   5.074   7.414 -1.4584 -2.0381 -0.4667
 3559TIP3   OH232235   3.638   1.155   7.208  0.1039  0.2156 -0.0994
 3559TIP3    H132236   3.615   1.246   7.189 -1.1182 -0.4538 -2.2042
 3559TIP3    H232237   3.614   1.107   7.128  0.9682 -1.9184  0.8376
 3560TIP3   OH232238   4.540   4.558   8.810  0.0507 -0.1348  0.6625
 3560TIP3    H132239   4.512   4.475   8.772 -0.2111  0.2452  0.0090
 3560TIP3    H232240   4.467   4.585   8.867 -1.3480  1.2310 -1.6166
 3561TIP3   OH232241   4.572   6.634   1.426 -0.9847  0.1152 -0.0541
 3561TIP3    H132242   4.620   6.555   1.400 -0.9932  0.2450 -0.4689
 3561TIP3    H232243   4.630   6.706   1.401 -0.5429  0.2210  1.1970
 3562TIP3   OH232244   5.459   4.737   7.828 -0.1431 -0.0570  0.1750
 3562TIP3    H132245   5.422   4.660   7.785 -1.6759  0.9319 -0.3878
 3562TIP3    H232246   5.419   4.738   7.915  0.4320 -0.2696  0.4485
 3563TIP3   OH232247   1.723   5.585   5.902 -0.1207 -0.1130 -0.0160
 3563TIP3    H132248   1.659   5.655   5.888 -1.4569 -1.5360 -1.3651
 3563TIP3    H232249   1.790   5.625   5.957 -2.5062  1.2192  2.1432
 3564TIP3   OH232250   1.316   3.453   8.718  0.2204 -0.1924 -0.1136
 3564TIP3    H132251   1.370   3.476   8.643  1.2800 -1.3125  0.2707
 3564TIP3    H232252   1.376   3.451   8.792 -0.5782 -0.3002  0.5521
 3565TIP3   OH232253   2.662   3.704   7.870  0.1724  0.1457 -0.4132
 3565TIP3    H132254   2.741   3.694   7.923 -0.7701 -0.7424  0.8667
 3565TIP3    H232255   2.669   3.636   7.803 -0.0115 -0.6508  0.3642
 3566TIP3   OH232256   4.266   3.981   1.127  0.0060 -0.0436 -0.3052
 3566TIP3    H132257   4.241   4.030   1.049 -1.1294  1.5299  1.0036
 3566TIP3    H232258   4.330   4.037   1.171  0.0023 -0.5437  0.3411
 3567TIP3   OH232259   4.163   0.049   1.373  0.3048 -0.0501  0.3315
 3567TIP3    H132260   4.167   0.124   1.432  1.1718  0.3693 -0.2359
 3567TIP3    H232261   4.092  -0.005   1.407  0.7240  0.2272  1.6984
 3568TIP3   OH232262   5.557   4.383   1.466  0.2353  0.0695 -0.4728
 3568TIP3    H132263   5.480   4.325   1.466  1.3187 -1.4936 -2.3704
 3568TIP3    H232264   5.620   4.338   1.411  1.8394  2.2421 -0.5149
 3569TIP3   OH232265   2.710   0.224   8.021  0.1474 -0.2469  0.8137
 3569TIP3    H132266   2.647   0.180   8.079 -0.1142  0.6632  1.2310
 3569TIP3    H232267   2.771   0.268   8.080  0.4299 -0.0761  0.4028
 3570TIP3   OH232268   5.157   2.306   6.661  0.0421  0.1751 -0.4199
 3570TIP3    H132269   5.136   2.214   6.649  0.1281 -0.0839  1.1684
 3570TIP3    H232270   5.127   2.326   6.750  1.0119  1.3825 -0.3400
 3571TIP3   OH232271   3.302   1.593   0.068 -0.0374  0.8334 -0.1872
 3571TIP3    H132272   3.296   1.633  -0.019 -2.3621  0.7513 -0.1278
 3571TIP3    H232273   3.316   1.667   0.128  2.1131  0.8412 -0.6161
 3572TIP3   OH232274   5.475   1.871   7.382  0.3814 -0.1423 -0.2808
 3572TIP3    H132275   5.412   1.851   7.313  1.3705  0.0541 -1.2653
 3572TIP3    H232276   5.504   1.961   7.364 -0.5227  0.5124  1.3357
 3573TIP3   OH232277   3.738   1.385   8.823  0.2209 -0.1812 -0.5909
 3573TIP3    H132278   3.832   1.369   8.833 -0.2340 -2.6931  0.5078
 3573TIP3    H232279   3.726   1.476   8.852  1.9334 -0.7679  2.3786
 3574TIP3   OH232280   5.842   2.865   0.939  0.5745  0.7440 -0.0507
 3574TIP3    H132281   5.875   2.903   1.020  2.5094  0.3909 -0.6311
 3574TIP3    H232282   5.784   2.794   0.968  2.9805 -0.8849  1.1010
 3575TIP3   OH232283   3.188   6.382   6.326 -0.4648 -0.3497 -0.6058
 3575TIP3    H132284   3.121   6.333   6.374  0.9924 -0.4931  1.4335
 3575TIP3    H232285   3.251   6.315   6.297  2.7106  0.1240  4.0746
 3576TIP3   OH232286   6.137   1.283   0.824  0.1590  0.2524  0.6245
 3576TIP3    H132287   6.064   1.301   0.883 -0.4196  0.4886 -0.1563
 3576TIP3    H232288   6.106   1.212   0.768  0.1698  0.9813 -0.3296
 3577TIP3   OH232289   5.316   3.239   1.411 -0.3158 -0.2210  0.0557
 3577TIP3    H132290   5.394   3.253   1.464  1.3455 -1.6134 -1.8285
 3577TIP3    H232291   5.283   3.154   1.438 -0.5895 -0.0752  0.1785
 3578TIP3   OH232292   2.884   4.572   1.225 -0.0643 -0.2458 -0.2897
 3578TIP3    H132293   2.846   4.535   1.305 -0.4319 -0.5770 -0.6156
 3578TIP3    H232294   2.978   4.557   1.234 -0.2405 -1.7124 -0.6346
 3579TIP3   OH232295   0.307   1.976   6.791 -0.6815 -0.5581  0.2553
 3579TIP3    H132296   0.247   2.049   6.778  0.1231  0.1204  0.2158
 3579TIP3    H232297   0.390   2.006   6.753  0.3485 -0.5235  2.3846
 3580TIP3   OH232298   0.132   6.380   6.318  0.5198 -0.1971  0.2079
 3580TIP3    H132299   0.215   6.426   6.304  1.0076 -0.6553  1.3949
 3580TIP3    H232300   0.066   6.449   6.322  0.9249  0.2173 -0.2028
 3581TIP3   OH232301   1.574   3.165   0.669  0.3287 -0.1207 -0.0127
 3581TIP3    H132302   1.529   3.090   0.709  2.4438 -2.1030 -1.0853
 3581TIP3    H232303   1.509   3.204   0.611 -0.9103 -0.9589  0.7473
 3582TIP3   OH232304   3.372   2.606   5.850  0.4999  0.5806  0.0741
 3582TIP3    H132305   3.375   2.524   5.802  0.8419 -0.4673  1.7764
 3582TIP3    H232306   3.286   2.643   5.830  1.2517  1.0907 -2.6414
 3583TIP3   OH232307   4.045   3.855   8.116 -0.1494  0.3077  0.4026
 3583TIP3    H132308   4.030   3.907   8.195  0.9608 -0.1558  0.9384
 3583TIP3    H232309   4.124   3.805   8.135 -0.0472 -0.0515 -0.8897
 3584TIP3   OH232310   1.336   4.944   8.620  0.3820 -0.0285  0.4034
 3584TIP3    H132311   1.269   4.980   8.562 -0.7160  0.0073  1.6334
 3584TIP3    H232312   1.406   4.915   8.562 -1.4389 -1.6843 -1.1111
 3585TIP3   OH232313   4.905   3.355   8.540  0.1944 -0.1703 -0.6338
 3585TIP3    H132314   4.930   3.328   8.628  1.7847  1.2430 -0.6223
 3585TIP3    H232315   4.913   3.275   8.488 -0.2156 -0.8918  0.3690
 3586TIP3   OH232316   2.354   6.127   0.814  0.0715  0.0042  0.0059
 3586TIP3    H132317   2.376   6.115   0.721  0.6723 -0.0743  0.1537
 3586TIP3    H232318   2.354   6.221   0.827  0.6476 -0.0049  0.0791
 3587TIP3   OH232319   4.379   2.246   2.189  0.7165 -0.2500 -0.1830
 3587TIP3    H132320   4.392   2.158   2.152  2.3811  0.4809 -1.4567
 3587TIP3    H232321   4.388   2.305   2.114 -0.9033  1.0150  0.5517
 3588TIP3   OH232322   1.405   6.236   0.229  0.3821 -0.1761  0.4267
 3588TIP3    H132323   1.324   6.202   0.192 -0.0812  0.5267  0.7838
 3588TIP3    H232324   1.413   6.324   0.191  2.3981 -1.1944 -1.7899
 3589TIP3   OH232325   2.692   1.314   8.039 -0.7273 -0.2296  0.1876
 3589TIP3    H132326   2.675   1.219   8.038 -0.7614 -0.2216 -0.0097
 3589TIP3    H232327   2.699   1.338   7.947 -0.4773 -0.0811  0.2446
 3590TIP3   OH232328   6.181   0.960   6.188 -0.2979 -0.4516 -0.1568
 3590TIP3    H132329   6.115   0.925   6.247 -0.2070  0.3896  0.4487
 3590TIP3    H232330   6.230   1.024   6.240 -1.4278  1.7258 -1.6200
 3591TIP3   OH232331   3.681   5.682   0.684  0.1457 -0.0163 -0.0066
 3591TIP3    H132332   3.677   5.658   0.777 -2.0956 -2.2610 -0.5638
 3591TIP3    H232333   3.637   5.767   0.680 -1.1242 -0.6015  0.8352
 3592TIP3   OH232334   4.968   4.346   1.237  0.3822  0.5489 -0.3769
 3592TIP3    H132335   5.008   4.366   1.322 -0.1673  0.3446 -0.0705
 3592TIP3    H232336   4.985   4.424   1.184  0.3781  0.8370  0.0442
 3593TIP3   OH232337   4.026   4.146   7.012 -0.7028 -0.2159  0.4011
 3593TIP3    H132338   4.042   4.113   7.100  1.2310  1.6599  0.8438
 3593TIP3    H232339   3.935   4.175   7.014 -0.5205  0.3659  2.0060
 3594TIP3   OH232340   2.068   3.607   1.237  0.4016 -0.1681 -0.1090
 3594TIP3    H132341   1.994   3.557   1.272  0.1392 -0.0163 -0.4396
 3594TIP3    H232342   2.095   3.663   1.310  0.4831 -0.5484  0.1559
 3595TIP3   OH232343   5.577   0.945   8.587  0.3100 -0.2830 -0.5592
 3595TIP3    H132344   5.557   0.857   8.618  1.2406 -0.3128  0.0032
 3595TIP3    H232345   5.577   0.937   8.491 -0.3064 -0.7236 -0.5296
 3596TIP3   OH232346   6.218   1.676   0.225 -1.0317 -0.3691  0.0094
 3596TIP3    H132347   6.223   1.591   0.182 -1.8073  0.3707 -1.6478
 3596TIP3    H232348   6.308   1.693   0.254 -0.6667 -1.3166 -0.5136
 3597TIP3   OH232349   2.321   3.704   7.642  0.4238  0.2256 -0.1761
 3597TIP3    H132350   2.285   3.743   7.721  0.5117  1.0135 -0.5176
 3597TIP3    H232351   2.244   3.679   7.590  0.3643 -0.4786  0.2347
 3598TIP3   OH232352   3.791   0.574   0.295 -0.3618 -0.2694 -0.1015
 3598TIP3    H132353   3.745   0.494   0.319 -3.0054  0.9960 -0.6035
 3598TIP3    H232354   3.880   0.561   0.328 -0.9855 -2.9378  0.7808
 3599TIP3   OH232355   4.062   0.943   8.277 -0.3452  0.1083 -0.0351
 3599TIP3    H132356   4.150   0.978   8.291 -0.6875  0.8331  0.3714
 3599TIP3    H232357   4.006   1.021   8.268 -0.7190 -0.3170 -1.8719
 3600TIP3   OH232358   4.976   5.210   6.588 -0.5672  0.5784  0.1044
 3600TIP3    H132359   4.885   5.189   6.566 -0.3605  0.6053 -0.8063
 3600TIP3    H232360   4.996   5.154   6.663 -0.6461 -1.0845 -1.0602
 3601TIP3   OH232361   6.340   4.770   0.410 -1.1725 -0.8820  0.6537
 3601TIP3    H132362   6.397   4.692   0.409  1.2917  0.8149  0.9715
 3601TIP3    H232363   6.263   4.743   0.360 -0.5758 -3.6252  1.0375
 3602TIP3   OH232364   1.426   6.594   7.394 -0.3050  0.1732 -0.1708
 3602TIP3    H132365   1.514   6.627   7.410 -0.0814 -0.6857  0.4726
 3602TIP3    H232366   1.439   6.503   7.368 -0.8938  0.5734 -1.9806
 3603TIP3   OH232367   3.970   6.752   7.317 -0.0014  0.1546 -0.1071
 3603TIP3    H132368   3.921   6.834   7.324  0.6651  0.4504  1.8262
 3603TIP3    H232369   3.906   6.684   7.333 -0.1864  0.4130  0.2649
 3604TIP3   OH232370   4.888   1.199   7.463 -0.2127 -0.1731 -0.1452
 3604TIP3    H132371   4.929   1.114   7.474  0.1216  0.1724  1.4375
 3604TIP3    H232372   4.838   1.191   7.381  1.0788 -1.3545 -0.8531
 3605TIP3   OH232373   1.796   5.086   8.166 -0.4530 -0.7162  0.3870
 3605TIP3    H132374   1.795   5.079   8.262 -1.9269 -0.9295  0.3886
 3605TIP3    H232375   1.761   5.174   8.149  1.0982 -0.1374  0.0498
 3606TIP3   OH232376   5.382   1.104   6.711  0.2698  0.1268 -0.2636
 3606TIP3    H132377   5.355   1.012   6.702 -3.7636  0.9881  1.0464
 3606TIP3    H232378   5.357   1.145   6.629  0.6311  0.3814 -0.2497
 3607TIP3   OH232379   5.498   6.532   0.417 -0.6007 -0.3035 -0.2696
 3607TIP3    H132380   5.407   6.512   0.395 -0.4381 -1.4445  0.0618
 3607TIP3    H232381   5.500   6.532   0.513 -0.6364  1.5620 -0.2325
 3608TIP3   OH232382   5.622   1.616   0.201  0.0523  0.2604 -0.0492
 3608TIP3    H132383   5.589   1.673   0.132  0.0321 -0.5991 -0.7715
 3608TIP3    H232384   5.569   1.536   0.194  2.4702 -1.3274 -1.5138
 3609TIP3   OH232385   4.426   6.523   8.094 -0.1691  0.3866 -0.2837
 3609TIP3    H132386   4.351   6.536   8.151  1.6693  1.0275  2.1545
 3609TIP3    H232387   4.472   6.607   8.094  1.8225 -0.6355  0.2779
 3610TIP3   OH232388   1.220   2.243   8.329  0.8591  0.2796 -0.1710
 3610TIP3    H132389   1.286   2.195   8.280 -0.2399  0.2111 -1.6573
 3610TIP3    H232390   1.212   2.327   8.283 -0.8765 -0.1572 -0.7608
 3611TIP3   OH232391   5.401   4.513   1.944 -0.1255 -0.3953 -0.0315
 3611TIP3    H132392   5.321   4.564   1.939  0.4620  0.4548 -1.2175
 3611TIP3    H232393   5.413   4.497   2.038 -2.2474 -1.5131  0.1089
 3612TIP3   OH232394   6.223   3.550   8.737 -0.1955 -0.2345  0.6755
 3612TIP3    H132395   6.238   3.480   8.674  0.3744 -0.0540  0.6019
 3612TIP3    H232396   6.255   3.515   8.820  0.8187  0.2110  0.4867
 3613TIP3   OH232397   1.013   6.156   1.357  0.2790 -0.0383 -0.5959
 3613TIP3    H132398   0.949   6.118   1.416  1.0291 -0.0725  0.2152
 3613TIP3    H232399   0.965   6.226   1.311  0.1141  1.2231  1.3635
 3614TIP3   OH232400   0.627   6.689   7.409  0.1008  0.3185  0.4256
 3614TIP3    H132401   0.657   6.694   7.500  0.7489  2.7561  0.1281
 3614TIP3    H232402   0.546   6.740   7.407 -0.5700 -0.7293 -0.1534
 3615TIP3   OH232403   1.554   6.083   0.388 -0.6024 -0.1716  0.3074
 3615TIP3    H132404   1.521   6.101   0.476 -0.3676 -0.1126  0.3862
 3615TIP3    H232405   1.505   6.142   0.331 -0.5066  0.0418  0.4442
 3616TIP3   OH232406   4.510   2.414   0.405 -0.4591 -0.2438 -0.4021
 3616TIP3    H132407   4.554   2.421   0.489  1.6041  0.1645 -1.4722
 3616TIP3    H232408   4.461   2.331   0.410  2.1281 -1.8331  0.1116
 3617TIP3   OH232409   5.536   4.231   0.195  0.1658  0.0011 -0.2448
 3617TIP3    H132410   5.449   4.216   0.159  0.6905 -0.5130 -1.3597
 3617TIP3    H232411   5.567   4.144   0.220  0.0770  0.2712  0.8521
 3618TIP3   OH232412   0.760   0.219   0.904  0.4661  0.0021 -0.3109
 3618TIP3    H132413   0.850   0.196   0.884  0.3262  0.1488 -1.1650
 3618TIP3    H232414   0.760   0.241   0.997  0.9721 -1.5896  0.0815
 3619TIP3   OH232415   3.208   4.578   7.759  0.0241 -0.2780 -0.3481
 3619TIP3    H132416   3.262   4.499   7.751 -0.7918 -0.9679  0.7757
 3619TIP3    H232417   3.264   4.641   7.806 -0.3030 -1.1686  1.2843
 3620TIP3   OH232418   0.416   4.856   0.030 -0.6447  1.0311  0.4499
 3620TIP3    H132419   0.367   4.812   0.099  0.4644  0.9324  1.2010
 3620TIP3    H232420   0.372   4.830  -0.051 -2.2836  1.5731  1.1355
 3621TIP3   OH232421   4.994   3.748   7.344 -0.5306  0.0359  0.1371
 3621TIP3    H132422   5.017   3.669   7.393  2.0942  0.7894  0.2685
 3621TIP3    H232423   5.041   3.819   7.388 -0.9085  1.3114 -1.3943
 3622TIP3   OH232424   3.732   6.053   5.771 -0.3470 -0.0728 -0.1338
 3622TIP3    H132425   3.696   5.980   5.821  2.1084 -0.8762  0.5943
 3622TIP3    H232426   3.802   6.014   5.719  1.2350  1.7610  0.5080
 3623TIP3   OH232427   3.616   1.997   0.880 -0.6240  0.3313  0.0297
 3623TIP3    H132428   3.546   2.014   0.943 -0.1951 -1.4570  1.0621
 3623TIP3    H232429   3.674   2.072   0.889 -0.6853  0.2242  1.6491
 3624TIP3   OH232430   0.287   4.261   7.132 -0.6045 -0.0501 -0.5717
 3624TIP3    H132431   0.368   4.239   7.087  0.2384  1.5972  0.0282
 3624TIP3    H232432   0.311   4.261   7.225 -1.2694  0.4661 -0.3901
 3625TIP3   OH232433   1.844   3.280   6.783 -0.5197 -0.2904 -0.0117
 3625TIP3    H132434   1.927   3.266   6.737 -1.1695 -0.2345 -1.2199
 3625TIP3    H232435   1.848   3.219   6.857  0.7533 -0.0243  0.1526
 3626TIP3   OH232436   0.846   1.034   8.029 -0.4366  0.3150 -0.1688
 3626TIP3    H132437   0.919   0.980   7.999  0.3768  1.1978  0.2070
 3626TIP3    H232438   0.816   0.991   8.110 -0.5257 -0.2024 -0.4715
 3627TIP3   OH232439   6.475   0.335   6.467  0.2193  0.3653 -0.1195
 3627TIP3    H132440   6.502   0.253   6.426 -0.6089 -0.2710  0.5701
 3627TIP3    H232441   6.440   0.309   6.553  0.6524  1.5150  0.4330
 3628TIP3   OH232442   5.165   0.711   0.704  0.3836 -0.1716  0.5636
 3628TIP3    H132443   5.088   0.656   0.719  0.1670 -0.5969 -1.7154
 3628TIP3    H232444   5.141   0.767   0.631  1.1511  1.9853  1.8683
 3629TIP3   OH232445   2.635   2.385   1.872  0.0516 -0.8131 -0.1635
 3629TIP3    H132446   2.631   2.478   1.897  0.5388 -0.6451 -0.6913
 3629TIP3    H232447   2.672   2.342   1.950  0.3089 -0.4855 -0.0991
 3630TIP3   OH232448   0.282   3.553   7.373  0.2404  0.1047 -0.6660
 3630TIP3    H132449   0.356   3.572   7.315  0.8769 -0.1642  0.0396
 3630TIP3    H232450   0.230   3.489   7.325  0.4497  0.3086 -1.1781
 3631TIP3   OH232451   0.878   2.007   6.531  0.1625 -0.2037  0.0234
 3631TIP3    H132452   0.836   1.987   6.447  0.0379  0.4321 -0.0708
 3631TIP3    H232453   0.867   2.101   6.541  1.6267 -0.0013 -0.0466
 3632TIP3   OH232454   0.262   4.946   6.988  0.4434  0.1404  0.2190
 3632TIP3    H132455   0.225   4.885   6.925 -2.3531  0.5840  1.2958
 3632TIP3    H232456   0.318   4.892   7.044 -1.5620 -1.4302  0.8365
 3633TIP3   OH232457   3.685   2.415   0.021  0.1330  0.2331  0.2720
 3633TIP3    H132458   3.651   2.422  -0.068 -0.4918 -0.7066  0.4198
 3633TIP3    H232459   3.779   2.428   0.013  0.1818 -0.6019 -0.6360
 3634TIP3   OH232460   5.225   1.281   8.168  0.0761  0.3637 -0.0726
 3634TIP3    H132461   5.153   1.309   8.225  0.2034  0.3934  0.0748
 3634TIP3    H232462   5.215   1.332   8.089 -0.0977  0.3294 -0.0721
 3635TIP3   OH232463   2.820   5.653   7.222 -0.3358  0.4257 -0.1496
 3635TIP3    H132464   2.915   5.642   7.215 -0.4224 -0.1991 -0.4665
 3635TIP3    H232465   2.806   5.747   7.218  0.2884  0.5359  0.1368
 3636TIP3   OH232466   5.369   0.627   7.790  0.3494 -0.1037 -0.2119
 3636TIP3    H132467   5.319   0.708   7.781  0.2643 -0.2888 -1.5957
 3636TIP3    H232468   5.436   0.633   7.722 -0.5056 -1.7895 -1.2563
 3637TIP3   OH232469   0.822   3.575   6.618 -0.2041 -0.2800  0.6612
 3637TIP3    H132470   0.872   3.509   6.569 -1.0757 -0.8568  0.5454
 3637TIP3    H232471   0.856   3.658   6.584 -0.0688 -0.6659 -0.1919
 3638TIP3   OH232472   5.146   3.868   6.710  0.5018 -0.4830 -0.0060
 3638TIP3    H132473   5.121   3.830   6.795  1.9136 -1.6440 -0.0747
 3638TIP3    H232474   5.098   3.951   6.706 -0.3779 -0.8806  1.4738
 3639TIP3   OH232475   2.081   1.584   1.758  0.2421 -0.3801  0.0377
 3639TIP3    H132476   2.023   1.534   1.815  1.0300 -1.3174  0.0550
 3639TIP3    H232477   2.036   1.666   1.743  1.0775  1.0731  4.1461
 3640TIP3   OH232478   4.537   2.761   0.757  0.0341 -0.0922 -0.0275
 3640TIP3    H132479   4.482   2.683   0.764  0.4392 -0.3300  0.6487
 3640TIP3    H232480   4.497   2.813   0.688 -0.3863 -0.7841 -0.3092
 3641TIP3   OH232481   0.471   0.927   7.562 -0.0242 -0.5609  0.1774
 3641TIP3    H132482   0.475   0.840   7.603  0.2118 -0.5210  0.2370
 3641TIP3    H232483   0.475   0.910   7.468 -1.7407 -0.7413  0.0962
 3642TIP3   OH232484   2.751   5.391   0.419 -0.2733  0.3150  0.1183
 3642TIP3    H132485   2.740   5.355   0.507 -1.8725  1.6049  0.4841
 3642TIP3    H232486   2.759   5.314   0.363 -0.2657 -0.5458  1.2690
 3643TIP3   OH232487   4.306   5.793   6.731  0.2275  0.0500  0.2256
 3643TIP3    H132488   4.314   5.706   6.769 -1.3952 -0.0172  0.4724
 3643TIP3    H232489   4.271   5.778   6.643 -1.3507  0.4852  0.7419
 3644TIP3   OH232490   1.170   4.084   8.521 -0.0271 -0.1468  0.3694
 3644TIP3    H132491   1.223   4.138   8.462  0.9097  0.6343  1.8560
 3644TIP3    H232492   1.206   3.996   8.513  1.0912  0.2485  0.8531
 3645TIP3   OH232493   5.729   3.020   7.379  0.2402 -0.3462 -0.4213
 3645TIP3    H132494   5.778   3.042   7.458 -0.3653  1.9272 -0.6042
 3645TIP3    H232495   5.717   3.103   7.334 -2.6611 -0.9831 -1.0342
 3646TIP3   OH232496   6.276   5.407   1.152 -0.0864 -0.2630  0.0073
 3646TIP3    H132497   6.184   5.394   1.128  0.0155 -0.3932 -0.3219
 3646TIP3    H232498   6.310   5.318   1.164  0.4267 -0.3059 -1.5371
 3647TIP3   OH232499   2.467   0.516   1.045  0.2561  0.3298  0.7520
 3647TIP3    H132500   2.460   0.429   1.006 -1.1585  0.7084  0.1019
 3647TIP3    H232501   2.518   0.566   0.982  0.0092  0.2901  0.5131
 3648TIP3   OH232502   1.967   6.464   1.185  0.1624 -0.3059 -0.3482
 3648TIP3    H132503   1.967   6.486   1.092 -4.4873  0.5218 -0.3831
 3648TIP3    H232504   1.966   6.549   1.230 -3.1185 -0.4292  0.0738
 3649TIP3   OH232505   2.202   5.474   8.293  0.1215  0.1178 -0.2806
 3649TIP3    H132506   2.236   5.401   8.242 -1.5793  0.0295 -1.3715
 3649TIP3    H232507   2.235   5.460   8.382 -0.7468 -2.4218 -0.2912
 3650TIP3   OH232508   0.253   2.259   6.224 -0.3048  0.2130  0.7036
 3650TIP3    H132509   0.338   2.287   6.258 -0.6913 -0.3231  2.2078
 3650TIP3    H232510   0.199   2.245   6.303 -1.1595 -1.4038 -0.1175
 3651TIP3   OH232511   5.957   4.388   7.566  0.7187  0.2308 -0.3903
 3651TIP3    H132512   6.046   4.414   7.541  1.2812 -0.2373  1.0097
 3651TIP3    H232513   5.902   4.460   7.537  1.9668  2.0926  1.5619
 3652TIP3   OH232514   2.816   5.166   6.801  0.4646  0.1427 -0.0607
 3652TIP3    H132515   2.812   5.070   6.798 -0.5855  0.1534  0.4605
 3652TIP3    H232516   2.908   5.185   6.820  0.5506 -0.7914  0.5669
 3653TIP3   OH232517   5.167   0.728   7.477  0.5924  0.4869 -0.0391
 3653TIP3    H132518   5.206   0.742   7.391  1.7293 -0.0917  0.3575
 3653TIP3    H232519   5.231   0.765   7.539 -0.0109  0.5210  0.5819
 3654TIP3   OH232520   5.184   2.530   1.110  0.7752 -0.1174  0.8097
 3654TIP3    H132521   5.124   2.581   1.163  0.0165 -0.0706 -0.0686
 3654TIP3    H232522   5.134   2.452   1.084  1.5750 -0.8056  1.2737
 3655TIP3   OH232523   2.442   5.746   0.997  0.3751  0.3193  0.7589
 3655TIP3    H132524   2.515   5.721   1.055  0.7022  2.1502  1.1984
 3655TIP3    H232525   2.439   5.841   1.003  0.3135  0.5838 -2.1315
 3656TIP3   OH232526   5.015   3.980   0.624  0.2104 -0.3461 -0.2349
 3656TIP3    H132527   4.957   3.904   0.617 -0.3079  0.1032 -1.0157
 3656TIP3    H232528   5.021   4.013   0.535  3.3896 -1.5929 -0.6176
 3657TIP3   OH232529   6.251   2.207   7.911 -0.1831  0.1460  0.0839
 3657TIP3    H132530   6.210   2.120   7.918  2.4242 -1.3221 -1.3226
 3657TIP3    H232531   6.306   2.214   7.988  1.0856 -0.3593 -0.7382
 3658TIP3   OH232532   5.143   0.897   6.108  0.8586  0.1932 -0.3463
 3658TIP3    H132533   5.204   0.830   6.077 -0.5773 -0.6968 -1.3899
 3658TIP3    H232534   5.187   0.980   6.089  2.1386 -0.4199 -0.1787
 3659TIP3   OH232535   1.314   1.336   0.742 -0.1722  0.3800 -0.0319
 3659TIP3    H132536   1.222   1.353   0.720 -0.1204 -0.6355 -1.1126
 3659TIP3    H232537   1.364   1.397   0.688 -0.1116 -1.1195 -1.7696
 3660TIP3   OH232538   6.352   0.624   7.580 -0.0235 -0.3383 -0.3587
 3660TIP3    H132539   6.280   0.613   7.518 -0.4232 -0.6039  0.1476
 3660TIP3    H232540   6.421   0.565   7.547  0.0600  0.1094 -0.9834
 3661TIP3   OH232541   6.183   6.190   0.906 -0.6520  0.3697 -0.4620
 3661TIP3    H132542   6.224   6.119   0.857  0.0515  1.0340 -0.8476
 3661TIP3    H232543   6.137   6.241   0.839 -0.8421  0.4970 -0.2338
 3662TIP3   OH232544   4.908   5.875   7.929 -0.3835  0.8005  0.0963
 3662TIP3    H132545   4.990   5.911   7.964 -0.5319  1.2061  0.0350
 3662TIP3    H232546   4.848   5.949   7.929 -1.2752  0.1284  1.7264
 3663TIP3   OH232547   4.594   1.498   1.323 -0.2812 -0.5233 -0.1047
 3663TIP3    H132548   4.571   1.427   1.383  1.4761 -0.5318  0.6101
 3663TIP3    H232549   4.512   1.545   1.309 -1.0005 -1.3074  1.2737
 3664TIP3   OH232550   1.363   4.554   1.869  0.4136  0.1970  0.7205
 3664TIP3    H132551   1.352   4.624   1.805  1.7594 -0.4898 -0.3122
 3664TIP3    H232552   1.439   4.580   1.920  1.3383 -0.8205 -0.1165
 3665TIP3   OH232553   5.749   4.474   7.794  0.1940  0.0680  0.1948
 3665TIP3    H132554   5.829   4.527   7.786 -0.0737  0.8086  2.0439
 3665TIP3    H232555   5.759   4.407   7.726  1.2804  1.5224 -1.1769
 3666TIP3   OH232556   0.606   1.100   8.144 -0.2871  0.5050 -0.1137
 3666TIP3    H132557   0.699   1.118   8.131 -0.6325  1.1225 -2.1315
 3666TIP3    H232558   0.603   1.033   8.212  1.5803  1.0194  0.5261
 3667TIP3   OH232559   2.220   3.934   6.492  0.3081  0.0919 -0.1455
 3667TIP3    H132560   2.258   3.891   6.415 -1.5182 -0.2298 -0.9282
 3667TIP3    H232561   2.201   4.023   6.463  0.3683  0.2134  0.1876
 3668TIP3   OH232562   2.111   1.005   6.827 -0.0448  0.1796 -0.4576
 3668TIP3    H132563   2.103   0.918   6.789 -1.6138  0.1185 -0.0864
 3668TIP3    H232564   2.033   1.014   6.883  1.5929  0.6690  1.8958
 3669TIP3   OH232565   4.143   0.359   6.468  0.3233 -0.7653  0.7100
 3669TIP3    H132566   4.206   0.359   6.395 -1.7392  1.6056 -1.2964
 3669TIP3    H232567   4.083   0.287   6.448  0.5703 -1.0086  0.8457
 3670TIP3   OH232568   2.194   2.985   7.060  0.5262  0.2987 -0.0799
 3670TIP3    H132569   2.147   2.931   7.123 -1.5704  3.4057  1.2665
 3670TIP3    H232570   2.198   3.071   7.100  3.9464  1.2054 -1.9697
 3671TIP3   OH232571   5.552   1.926   6.631 -0.3600 -0.1729 -0.3915
 3671TIP3    H132572   5.642   1.897   6.613 -0.6204 -0.8039 -0.6699
 3671TIP3    H232573   5.497   1.869   6.579 -0.9552 -0.0459  0.0884
 3672TIP3   OH232574   5.643   0.576   6.733  0.6102 -0.8859  0.3276
 3672TIP3    H132575   5.665   0.550   6.823  2.5848  1.2470  0.5676
 3672TIP3    H232576   5.606   0.664   6.743  0.9913 -0.5678 -0.9602
 3673TIP3   OH232577   4.563   4.496   7.555 -0.0473  0.0875 -0.1290
 3673TIP3    H132578   4.621   4.571   7.573  0.3431 -0.2653  0.0974
 3673TIP3    H232579   4.622   4.426   7.529 -0.3357 -0.4005  0.5109
 3674TIP3   OH232580   3.212   4.059   0.118 -0.7363 -0.5094  0.7089
 3674TIP3    H132581   3.137   4.117   0.134  0.1362  0.5480  1.0900
 3674TIP3    H232582   3.225   4.014   0.201 -0.0736  0.3842  1.1130
 3675TIP3   OH232583   0.308   4.103   0.045  0.4600 -0.0249 -0.0356
 3675TIP3    H132584   0.243   4.085  -0.023 -1.5342  0.6718  1.5407
 3675TIP3    H232585   0.256   4.106   0.126  2.5331  0.3518  1.3510
 3676TIP3   OH232586   3.575   6.101   7.598  0.0251  0.3360 -0.3221
 3676TIP3    H132587   3.662   6.074   7.628  0.3732  0.1166 -1.4713
 3676TIP3    H232588   3.528   6.122   7.678  0.4926 -1.4587  0.4768
 3677TIP3   OH232589   6.025   6.377   0.772 -0.2031  0.5500 -0.3349
 3677TIP3    H132590   6.034   6.450   0.833 -1.0820 -0.8496  1.5693
 3677TIP3    H232591   5.949   6.400   0.718 -0.0703  1.3325 -0.1996
 3678TIP3   OH232592   3.180   2.510   8.293  0.4348 -0.5154  0.4496
 3678TIP3    H132593   3.114   2.462   8.243  1.1975 -0.6231 -0.4997
 3678TIP3    H232594   3.157   2.602   8.280  1.3653 -0.4733 -1.2484
 3679TIP3   OH232595   0.154   3.048   6.934  0.3643  0.0477 -0.5833
 3679TIP3    H132596   0.166   2.963   6.891 -3.4384 -0.1882 -1.5450
 3679TIP3    H232597   0.131   3.026   7.024  2.4016  0.2896  0.0480
 3680TIP3   OH232598   3.713   3.057   0.656 -0.3906 -0.1756  0.3052
 3680TIP3    H132599   3.713   2.973   0.703  0.5542  0.0698  0.7564
 3680TIP3    H232600   3.723   3.123   0.724 -3.5988  0.5347  0.2533
 3681TIP3   OH232601   0.212   3.833   0.460  0.4955 -0.1912  0.4310
 3681TIP3    H132602   0.240   3.829   0.369 -0.6303  1.9540 -0.0706
 3681TIP3    H232603   0.291   3.859   0.508  0.0641  3.8443 -0.6965
 3682TIP3   OH232604   5.415   4.285   6.655  0.7049  0.2696  0.2786
 3682TIP3    H132605   5.406   4.288   6.559  2.3113  1.8141  0.1342
 3682TIP3    H232606   5.442   4.195   6.673  0.8658  0.0948 -0.7629
 3683TIP3   OH232607   2.091   0.184   7.162 -0.0722 -0.4034  0.4132
 3683TIP3    H132608   2.113   0.247   7.095 -0.5149  0.2142  0.8394
 3683TIP3    H232609   1.996   0.176   7.158  0.0778 -2.2071 -0.6656
 3684TIP3   OH232610   0.109   0.937   6.814  0.0272 -0.0564  0.1297
 3684TIP3    H132611   0.183   0.884   6.782 -0.4343 -0.9800  0.5442
 3684TIP3    H232612   0.061   0.961   6.734  0.6280  0.3296 -0.1194
 3685TIP3   OH232613   5.540   3.446   6.995  0.2657  0.1406 -0.0894
 3685TIP3    H132614   5.631   3.417   7.009  0.1504 -0.6597 -0.9203
 3685TIP3    H232615   5.490   3.364   6.992 -0.2455  0.4819 -1.2835
 3686TIP3   OH232616   6.665   1.233   5.617  0.3979  0.6414  0.4934
 3686TIP3    H132617   6.585   1.250   5.568  0.9614  1.0911 -0.2837
 3686TIP3    H232618   6.668   1.138   5.626  0.4543  0.5251 -0.6409
 3687TIP3   OH232619   2.347   1.356   8.321  0.5865 -0.1869 -0.2004
 3687TIP3    H132620   2.375   1.265   8.306 -1.0509 -0.9096  0.8550
 3687TIP3    H232621   2.385   1.378   8.406 -0.7850 -0.6753  0.5665
 3688TIP3   OH232622   2.928   2.611   6.045  0.2282  0.1939  0.0114
 3688TIP3    H132623   2.958   2.544   6.108 -0.1385 -1.0329 -1.0658
 3688TIP3    H232624   2.934   2.693   6.093  0.3475 -0.6527  1.5180
 3689TIP3   OH232625   3.152   1.415   1.244  0.3784  0.1753 -0.3711
 3689TIP3    H132626   3.203   1.373   1.313  0.2811 -0.1685 -0.5085
 3689TIP3    H232627   3.061   1.396   1.268  0.1724  2.4662  0.9949
 3690TIP3   OH232628   2.813   2.551   6.807 -0.8914  0.3652 -0.1527
 3690TIP3    H132629   2.787   2.462   6.784 -0.7520 -0.0747  1.2509
 3690TIP3    H232630   2.801   2.555   6.902 -0.2462  1.6313 -0.1029
 3691TIP3   OH232631   3.344   6.340   0.233 -0.5049 -0.3277  0.6648
 3691TIP3    H132632   3.368   6.284   0.307  1.6032 -0.2120  0.1302
 3691TIP3    H232633   3.347   6.281   0.157 -3.3985 -0.6268  0.6970
 3692TIP3   OH232634   5.168   1.551   0.635  0.0022 -0.1327  0.3636
 3692TIP3    H132635   5.217   1.480   0.678 -0.1667  0.2192  1.1574
 3692TIP3    H232636   5.077   1.524   0.642  0.0950 -1.4518 -2.3129
 3693TIP3   OH232637   0.743   4.529   8.381  0.2825 -0.5893 -0.1128
 3693TIP3    H132638   0.833   4.553   8.359  0.3456  1.6382  2.2089
 3693TIP3    H232639   0.740   4.529   8.476 -2.3376  0.0432 -0.1258
 3694TIP3   OH232640   3.475   2.422   1.314 -0.6912 -0.0157 -0.4786
 3694TIP3    H132641   3.431   2.506   1.329 -0.4774  0.8144 -3.7897
 3694TIP3    H232642   3.558   2.429   1.362 -0.4934  1.8600 -1.0347
 3695TIP3   OH232643   6.526   2.455   1.012 -0.3036  0.6225 -0.3259
 3695TIP3    H132644   6.483   2.439   0.928 -0.2167  0.0388 -0.2654
 3695TIP3    H232645   6.479   2.530   1.049 -1.4833 -0.1789 -0.1291
 3696TIP3   OH232646   5.029   6.557   7.097  0.0966  0.1062  0.1640
 3696TIP3    H132647   4.961   6.579   7.161 -0.3331  0.8147 -0.5113
 3696TIP3    H232648   5.051   6.641   7.056  0.1654 -0.3707 -0.7973
 3697TIP3   OH232649   4.055   4.614   0.640 -0.0451  0.0589 -0.3711
 3697TIP3    H132650   4.138   4.646   0.675 -0.7042  0.5162  0.8122
 3697TIP3    H232651   4.052   4.522   0.666  0.4285 -0.1627 -1.0786
 3698TIP3   OH232652   2.893   1.309   1.764 -0.2164  0.2637 -0.0534
 3698TIP3    H132653   2.876   1.290   1.856 -3.1042  1.6271 -0.2228
 3698TIP3    H232654   2.971   1.364   1.765  0.6508 -0.8938  1.4028
 3699TIP3   OH232655   4.476   3.410   0.068  0.2710 -0.3983 -0.2827
 3699TIP3    H132656   4.406   3.452   0.117  1.1012  0.3368  0.3192
 3699TIP3    H232657   4.514   3.480   0.015  3.9207  0.7188  3.2430
 3700TIP3   OH232658   3.436   2.929   7.761  0.2010  0.1589 -0.2903
 3700TIP3    H132659   3.519   2.973   7.740  0.3506 -0.1663 -0.4060
 3700TIP3    H232660   3.463   2.850   7.809 -0.0812  0.3525  0.1887
 3701TIP3   OH232661   4.720   4.350   7.787  0.2033 -0.2701 -0.2186
 3701TIP3    H132662   4.735   4.382   7.698  0.9380 -0.2743 -0.1014
 3701TIP3    H232663   4.685   4.262   7.775 -0.8023  0.1543 -0.5217
 3702TIP3   OH232664   1.964   6.099   6.853  0.6613  0.0110  0.0610
 3702TIP3    H132665   2.018   6.176   6.836  1.2401  0.1066  2.1163
 3702TIP3    H232666   1.897   6.130   6.914  1.1301 -1.1601  1.2171
 3703TIP3   OH232667   3.642   3.469   7.499 -0.2001  0.1956  0.8146
 3703TIP3    H132668   3.699   3.530   7.452 -0.6414  0.3639  0.4935
 3703TIP3    H232669   3.570   3.523   7.530 -1.9241 -0.5385 -1.6238
 3704TIP3   OH232670   1.677   3.880   8.233  0.4038  0.1254 -0.2723
 3704TIP3    H132671   1.641   3.792   8.223  2.3137 -0.8447  0.7161
 3704TIP3    H232672   1.615   3.937   8.189 -0.5605 -1.7911 -1.5159
 3705TIP3   OH232673   3.717   2.951   6.634  0.3727 -0.1780  0.4340
 3705TIP3    H132674   3.654   2.879   6.631 -2.0274  1.7211  1.6456
 3705TIP3    H232675   3.760   2.949   6.549 -0.4837 -2.2876 -0.0053
 3706TIP3   OH232676   3.652   3.122   0.152  0.2079 -0.3468  0.4085
 3706TIP3    H132677   3.697   3.069   0.218  0.6990  0.7644  0.9869
 3706TIP3    H232678   3.634   3.205   0.196  1.5544  0.8532 -1.1970
 3707TIP3   OH232679   2.331   0.574   8.835 -0.1200 -0.2174 -0.0636
 3707TIP3    H132680   2.381   0.544   8.910  0.4218 -0.0526 -0.3547
 3707TIP3    H232681   2.247   0.530   8.843  1.3256 -3.5592 -1.6107
 3708TIP3   OH232682   3.313   6.191   8.817 -0.0497  0.7150  0.0826
 3708TIP3    H132683   3.229   6.146   8.832  1.1428 -1.0083  2.2361
 3708TIP3    H232684   3.353   6.143   8.744  0.4575 -0.6795  1.2374
 3709TIP3   OH232685   6.342   6.140   8.104  0.5786  0.2800 -0.5015
 3709TIP3    H132686   6.361   6.121   8.013  1.1223  2.1326 -0.8167
 3709TIP3    H232687   6.382   6.225   8.120 -1.5356  1.1278  0.7721
 3710TIP3   OH232688   1.431   3.388   6.744 -0.5479  0.5304 -0.2151
 3710TIP3    H132689   1.359   3.343   6.700 -0.7342  2.3252 -1.8776
 3710TIP3    H232690   1.499   3.397   6.678  1.1988 -0.9522  1.2699
 3711TIP3   OH232691   0.342   0.642   7.140  0.1269  1.3905  0.5091
 3711TIP3    H132692   0.258   0.627   7.184 -0.0031 -1.5474 -0.5666
 3711TIP3    H232693   0.330   0.606   7.052  2.9782 -0.6628  0.8394
 3712TIP3   OH232694   0.744   2.562   0.018 -0.0235  0.3586 -0.1789
 3712TIP3    H132695   0.779   2.546   0.105 -1.8853  0.0257  0.5447
 3712TIP3    H232696   0.805   2.517  -0.041 -0.1431 -1.6481  1.1482
 3713TIP3   OH232697   6.031   0.630   0.916 -0.1582  0.4946  0.6380
 3713TIP3    H132698   5.946   0.671   0.906 -0.7365 -0.6138  0.8769
 3713TIP3    H232699   6.012   0.542   0.949  1.1559  0.7296  2.1342
 3714TIP3   OH232700   4.224   3.288   8.637  0.1358  0.4511  0.2984
 3714TIP3    H132701   4.246   3.257   8.549 -0.5950 -0.9612  0.5695
 3714TIP3    H232702   4.293   3.251   8.693  1.3370  2.4152  0.1978
 3715TIP3   OH232703   5.834   3.946   0.366  0.3749 -0.1829  0.2371
 3715TIP3    H132704   5.897   3.966   0.297  0.0790 -0.7988 -0.2188
 3715TIP3    H232705   5.801   3.859   0.344 -0.5384  0.0761  0.5473
 3716TIP3   OH232706   6.477   5.546   1.249 -0.3965 -0.2292  0.5712
 3716TIP3    H132707   6.417   5.483   1.210 -0.4365 -1.6089  2.7056
 3716TIP3    H232708   6.550   5.493   1.282 -0.5260  0.7432  2.5998
 3717TIP3   OH232709   5.304   1.323   7.845 -0.1971  0.0662  0.2439
 3717TIP3    H132710   5.246   1.385   7.800 -1.0831 -1.1253 -0.2969
 3717TIP3    H232711   5.257   1.240   7.845  0.5952 -0.4328  1.7338
 3718TIP3   OH232712   0.984   1.565   7.003  0.1346 -0.1256  0.1299
 3718TIP3    H132713   0.978   1.542   6.911 -0.3628 -0.2188  0.1807
 3718TIP3    H232714   0.894   1.587   7.028 -0.0410 -1.7278  1.0057
 3719TIP3   OH232715   2.822   0.752   1.916  0.4159  0.1473  0.0906
 3719TIP3    H132716   2.901   0.784   1.959  0.5527  1.3228 -0.9814
 3719TIP3    H232717   2.852   0.724   1.829 -0.0577 -1.0984  0.2998
 3720TIP3   OH232718   5.742   2.325   7.704  0.1408  0.3036 -0.7180
 3720TIP3    H132719   5.721   2.418   7.692  0.2360  0.3210 -0.7504
 3720TIP3    H232720   5.671   2.291   7.758  1.1470  0.8581  1.0558
 3721TIP3   OH232721   5.996   2.179   6.016  0.0598 -0.4057  0.3156
 3721TIP3    H132722   6.014   2.109   5.953  0.1958 -1.5007  1.5336
 3721TIP3    H232723   6.065   2.244   5.999  1.2325 -1.5390  0.5465
 3722TIP3   OH232724   2.078   1.912   6.101  0.1103 -1.2057 -0.2418
 3722TIP3    H132725   2.040   1.993   6.136  0.8911 -1.4604  1.3008
 3722TIP3    H232726   2.170   1.935   6.085  0.3615 -1.7917  0.3014
 3723TIP3   OH232727   3.000   1.983   8.338  0.4416  0.3037  0.1935
 3723TIP3    H132728   2.907   1.998   8.320  0.9197  1.7392 -1.3438
 3723TIP3    H232729   3.012   1.888   8.327 -0.6417  0.2378 -0.5372
 3724TIP3   OH232730   2.947   6.540   7.051 -0.0532  0.3319 -0.5505
 3724TIP3    H132731   2.881   6.488   7.096 -1.6580  2.4545 -0.2914
 3724TIP3    H232732   2.994   6.586   7.120  1.4487 -0.8037 -0.7634
 3725TIP3   OH232733   2.898   0.989   8.639 -0.1202 -0.2423 -0.1801
 3725TIP3    H132734   2.840   0.914   8.653 -0.6596  0.3054  0.6155
 3725TIP3    H232735   2.874   1.051   8.708  0.9806  0.2662 -0.2310
 3726TIP3   OH232736   1.353   5.035   6.861  0.3070  0.3156 -0.0540
 3726TIP3    H132737   1.385   4.946   6.853 -0.1494  0.0632  0.8036
 3726TIP3    H232738   1.356   5.054   6.955 -0.5155  0.8513 -0.1183
 3727TIP3   OH232739   3.765   5.364   0.756  0.3941 -0.0726  0.0562
 3727TIP3    H132740   3.745   5.451   0.791  2.3581  0.5595 -0.2360
 3727TIP3    H232741   3.770   5.308   0.834  1.1074  0.5330  0.4633
 3728TIP3   OH232742   2.027   2.132   7.099 -0.0679  0.0360  0.2495
 3728TIP3    H132743   2.008   2.164   7.187 -2.5459 -0.5962  0.0261
 3728TIP3    H232744   1.995   2.202   7.041  0.9762  0.1709 -0.1949
 3729TIP3   OH232745   6.280   5.297   0.741 -0.1513 -0.2444 -0.2451
 3729TIP3    H132746   6.348   5.315   0.676  0.8769  0.5245  0.9931
 3729TIP3    H232747   6.251   5.207   0.722  0.9080 -0.4292 -1.0542
 3730TIP3   OH232748   1.246   2.194   0.674 -0.4855 -0.3551 -0.4498
 3730TIP3    H132749   1.203   2.234   0.599 -1.1780 -1.0610 -0.4404
 3730TIP3    H232750   1.270   2.106   0.643 -0.8671 -0.6853  0.1813
 3731TIP3   OH232751   6.783   2.498   1.933  0.4301 -0.1664 -0.1672
 3731TIP3    H132752   6.748   2.560   1.996 -0.5377 -0.7598 -0.0991
 3731TIP3    H232753   6.875   2.523   1.923  0.9625 -0.8385  2.4289
 3732TIP3   OH232754   4.312   4.692   8.558 -0.8094  0.7494  0.7315
 3732TIP3    H132755   4.246   4.683   8.627 -0.1094 -1.0093  1.2285
 3732TIP3    H232756   4.264   4.674   8.477 -1.4884  2.1367  0.8112
 3733TIP3   OH232757   4.900   3.623   0.993  0.2043  0.0174  0.4138
 3733TIP3    H132758   4.974   3.671   0.954  0.3825 -0.0126  0.7148
 3733TIP3    H232759   4.823   3.658   0.948  0.1783  1.6113  1.5946
 3734TIP3   OH232760   5.678   1.915   8.078  0.8612 -0.2702  0.0067
 3734TIP3    H132761   5.717   1.868   8.152  0.7455  1.3249  1.1302
 3734TIP3    H232762   5.738   1.989   8.063  0.0109  0.3486 -0.4024
 3735TIP3   OH232763   2.545   1.255   8.613 -0.1924 -0.0542 -0.1559
 3735TIP3    H132764   2.536   1.180   8.555  0.0876  0.1105 -0.4178
 3735TIP3    H232765   2.555   1.218   8.700 -3.7161 -0.3020  0.3102
 3736TIP3   OH232766   0.532   6.090   6.800  0.2899 -0.2658  0.1262
 3736TIP3    H132767   0.604   6.149   6.824 -0.0735  0.7836 -1.1954
 3736TIP3    H232768   0.476   6.143   6.742  0.5073 -2.2031 -2.0065
 3737TIP3   OH232769   5.315   4.210   1.458  0.4580  0.4212  0.4248
 3737TIP3    H132770   5.234   4.224   1.507  0.6813  0.1509  0.8859
 3737TIP3    H232771   5.308   4.120   1.426  0.3282  0.5864 -0.0194
 3738TIP3   OH232772   4.801   2.388   7.128  1.1101 -0.0776 -0.1148
 3738TIP3    H132773   4.755   2.317   7.082 -0.4180  1.2695 -0.7704
 3738TIP3    H232774   4.776   2.377   7.220 -1.8411  1.4223 -0.5999
 3739TIP3   OH232775   5.185   4.835   7.974  0.4796 -0.1892  0.5049
 3739TIP3    H132776   5.243   4.790   8.036 -0.1038  0.9478  1.9196
 3739TIP3    H232777   5.148   4.908   8.024 -1.0865 -0.0534 -0.7755
 3740TIP3   OH232778   3.608   4.355   7.149  0.0305 -0.3007 -0.6137
 3740TIP3    H132779   3.628   4.266   7.118 -2.8220 -1.3839  0.2670
 3740TIP3    H232780   3.545   4.388   7.085  1.3614  1.3215 -1.1534
 3741TIP3   OH232781   1.045   2.553   8.094 -0.0599  0.7399 -0.3598
 3741TIP3    H132782   0.980   2.493   8.132 -2.3134  1.9094 -2.0818
 3741TIP3    H232783   1.064   2.516   8.007  0.5470  1.1410 -0.4028
 3742TIP3   OH232784   5.906   2.198   6.799  0.1378  0.5173  1.0903
 3742TIP3    H132785   5.925   2.277   6.849  0.9810  0.9369  0.1288
 3742TIP3    H232786   5.846   2.226   6.730 -1.0138 -0.0603  1.8186
 3743TIP3   OH232787   5.026   5.834   1.356  0.2699 -0.4401 -0.3428
 3743TIP3    H132788   5.021   5.882   1.273  1.3126 -0.3190 -0.3484
 3743TIP3    H232789   5.063   5.897   1.418 -1.4684 -0.1961  0.4964
 3744TIP3   OH232790   4.773   3.352   6.715 -0.6221  0.1937 -0.2133
 3744TIP3    H132791   4.762   3.429   6.771 -0.3259 -0.4593  0.7754
 3744TIP3    H232792   4.864   3.325   6.728  0.1446  1.3073 -2.7453
 3745TIP3   OH232793   1.364   1.684   1.671  0.6565 -0.3908  0.1882
 3745TIP3    H132794   1.301   1.756   1.667  0.3570 -0.5428  1.5710
 3745TIP3    H232795   1.449   1.727   1.681  0.4811 -0.2157  0.9957
 3746TIP3   OH232796   2.884   2.283   6.653  0.6798  0.6038 -0.4029
 3746TIP3    H132797   2.823   2.235   6.709  1.4608  0.7027  0.5470
 3746TIP3    H232798   2.876   2.240   6.568 -0.4657  0.4024 -0.2131
 3747TIP3   OH232799   4.698   3.453   0.397  0.4786 -0.2632  0.2416
 3747TIP3    H132800   4.711   3.420   0.486 -0.6264 -0.6843  0.2632
 3747TIP3    H232801   4.651   3.383   0.352 -1.9644  1.2170  0.3000
 3748TIP3   OH232802   1.890   0.823   0.342  0.4203  0.2656 -0.0830
 3748TIP3    H132803   1.820   0.799   0.282  1.5244 -1.8291 -0.6307
 3748TIP3    H232804   1.851   0.815   0.429 -1.4002  3.9868 -0.3327
 3749TIP3   OH232805   2.365   0.310   0.649  0.1271  0.2258 -0.7926
 3749TIP3    H132806   2.280   0.351   0.665  0.0399  0.0114 -0.7069
 3749TIP3    H232807   2.402   0.296   0.736 -1.3695 -3.1382 -0.5499
 3750TIP3   OH232808   2.289   5.843   8.735  0.2902 -0.0853  0.2229
 3750TIP3    H132809   2.340   5.765   8.716 -0.5078 -0.0754 -2.3710
 3750TIP3    H232810   2.202   5.810   8.756  0.1567  0.0680 -0.0843
 3751TIP3   OH232811   0.430   6.437   6.922  0.1902  0.0855 -0.0911
 3751TIP3    H132812   0.370   6.373   6.884 -2.0166  1.1266  1.4266
 3751TIP3    H232813   0.448   6.404   7.010  0.9651  0.3656 -0.1309
 3752TIP3   OH232814   4.657   1.056   0.640 -0.0413 -0.3966 -0.6251
 3752TIP3    H132815   4.605   1.119   0.690 -1.7800 -1.5250 -0.9293
 3752TIP3    H232816   4.637   1.076   0.548 -0.6556 -1.4067 -0.7231
 3753TIP3   OH232817   0.487   4.810   8.550  0.1391 -0.1651  0.2685
 3753TIP3    H132818   0.566   4.788   8.500  0.3025 -1.0345  0.8871
 3753TIP3    H232819   0.447   4.725   8.569 -0.8255  0.2627  0.1522
 3754TIP3   OH232820   5.385   3.225   0.193 -1.2786 -0.4209 -0.2505
 3754TIP3    H132821   5.362   3.154   0.254 -1.0200 -1.3290 -1.1918
 3754TIP3    H232822   5.450   3.276   0.240 -1.6807 -0.6247  0.5586
 3755TIP3   OH232823   6.186   4.943   7.999  0.1814 -0.5983 -0.4254
 3755TIP3    H132824   6.256   4.966   8.060 -0.3910  3.7391 -1.0708
 3755TIP3    H232825   6.108   4.937   8.053  0.0083  1.2952 -0.4042
 3756TIP3   OH232826   1.842   3.011   8.754 -0.0749  0.1019 -0.1917
 3756TIP3    H132827   1.751   3.038   8.762  0.5181  2.6244 -1.0387
 3756TIP3    H232828   1.876   3.063   8.681  2.9255  1.9155  2.2608
 3757TIP3   OH232829   6.637   5.223   1.843  0.3728  0.2961  0.4325
 3757TIP3    H132830   6.581   5.178   1.907  0.9081 -1.3503 -0.2022
 3757TIP3    H232831   6.718   5.172   1.842  0.7844  0.9460 -0.7446
 3758TIP3   OH232832   1.281   6.457   0.001  0.2825 -0.7591 -0.1604
 3758TIP3    H132833   1.294   6.508  -0.078 -1.6031  0.3663  0.2138
 3758TIP3    H232834   1.351   6.486   0.061  1.6814 -1.5811 -1.3228
 3759TIP3   OH232835   5.973   5.949   8.453 -0.6182  0.2242  0.3471
 3759TIP3    H132836   5.965   5.919   8.362 -1.6032 -0.5157  0.6558
 3759TIP3    H232837   6.000   5.870   8.501 -1.2817  0.3112  0.8713
 3760TIP3   OH232838   5.836   5.931   7.677  0.5706  0.1046 -0.3880
 3760TIP3    H132839   5.849   5.940   7.583  1.6913 -0.0495 -0.2688
 3760TIP3    H232840   5.743   5.911   7.688  0.1636  1.3415 -1.3710
 3761TIP3   OH232841   3.159   2.069   8.575  0.0370 -0.5682 -0.1765
 3761TIP3    H132842   3.223   2.099   8.510 -0.3503  0.2082 -0.2016
 3761TIP3    H232843   3.086   2.035   8.523 -0.4949  0.5225 -0.1601
 3762TIP3   OH232844   4.437   1.949   6.813  0.5756  0.0376 -1.0292
 3762TIP3    H132845   4.489   1.942   6.733 -1.8375  0.6814 -2.7831
 3762TIP3    H232846   4.357   1.900   6.795 -1.5864  3.0238 -0.4540
 3763TIP3   OH232847   2.879   2.540   0.521  0.0522  0.7952  0.4688
 3763TIP3    H132848   2.823   2.579   0.588 -0.5116 -0.2245  0.6248
 3763TIP3    H232849   2.958   2.594   0.520  0.6784  0.0460  2.9445
 3764TIP3   OH232850   4.316   5.821   5.942 -0.2785  0.3118  1.4206
 3764TIP3    H132851   4.298   5.911   5.914 -1.4584 -1.0803 -3.1043
 3764TIP3    H232852   4.410   5.810   5.930 -0.6482 -0.0576 -2.1356
 3765TIP3   OH232853   4.876   4.003   6.597 -0.0447 -0.1163  0.5558
 3765TIP3    H132854   4.812   4.028   6.664 -0.2339 -0.6545  0.5777
 3765TIP3    H232855   4.826   3.953   6.533  0.2775 -0.2013  0.3681
 3766TIP3   OH232856   1.526   1.517   8.821  0.0186  0.5582  0.3835
 3766TIP3    H132857   1.605   1.569   8.803  1.2611 -1.1903  0.4713
 3766TIP3    H232858   1.503   1.480   8.735  0.3061 -0.2659  0.6555
 3767TIP3   OH232859   5.635   4.270   5.967 -0.3375 -0.3924  0.2798
 3767TIP3    H132860   5.616   4.206   5.898  1.0093  0.1635 -0.6525
 3767TIP3    H232861   5.728   4.258   5.986 -0.4790  0.1043  1.3482
 3768TIP3   OH232862   6.485   5.916   6.966 -0.0615  0.3089 -0.2382
 3768TIP3    H132863   6.580   5.911   6.952  0.0007  1.6457 -0.4223
 3768TIP3    H232864   6.475   5.911   7.061  0.1019 -0.8807 -0.2698
 3769TIP3   OH232865   4.500   3.567   8.229  0.4699  0.3644 -0.2535
 3769TIP3    H132866   4.473   3.615   8.307  1.7822  1.5490 -0.4854
 3769TIP3    H232867   4.566   3.505   8.261  0.9876  0.8308 -0.4122
 3770TIP3   OH232868   6.770   5.783   8.297  0.3958  0.5922 -0.1079
 3770TIP3    H132869   6.694   5.830   8.265  1.0875  2.8174  1.3447
 3770TIP3    H232870   6.844   5.839   8.275  1.5197 -0.9010 -0.3248
 3771TIP3   OH232871   1.226   2.834   7.283 -0.5154 -0.4828 -0.7610
 3771TIP3    H132872   1.214   2.898   7.212  1.1411 -0.9681 -1.5344
 3771TIP3    H232873   1.226   2.749   7.238  0.0766 -0.8299 -0.1112
 3772TIP3   OH232874   5.070   3.568   0.078  0.3000 -0.1438 -1.0909
 3772TIP3    H132875   5.038   3.655   0.054  2.4247  0.5988 -1.4187
 3772TIP3    H232876   5.018   3.544   0.154  0.2098  1.7757 -0.4919
 3773TIP3   OH232877   1.979   0.145   7.585  0.2972  0.6309  0.4123
 3773TIP3    H132878   2.049   0.145   7.519  0.5479 -0.9186  0.6382
 3773TIP3    H232879   2.025   0.137   7.668 -0.0846  1.3375  0.7011
 3774TIP3   OH232880   3.755   4.494   0.542 -0.2909  0.2898  0.4890
 3774TIP3    H132881   3.821   4.450   0.594  0.0553  1.0290  0.6813
 3774TIP3    H232882   3.731   4.430   0.475  0.6282  0.0200  0.4060
 3775TIP3   OH232883   0.561   2.105   0.516 -0.6362  0.3179  0.3050
 3775TIP3    H132884   0.483   2.142   0.558 -1.2826 -0.9262  0.2368
 3775TIP3    H232885   0.586   2.170   0.450 -1.4096  0.8825  0.5595
 3776TIP3   OH232886   1.938   1.970   7.720  0.2642 -0.2689 -0.2185
 3776TIP3    H132887   1.984   1.938   7.642  0.5173 -0.1846 -0.1039
 3776TIP3    H232888   1.987   2.047   7.748 -0.5472  0.4438 -0.6926
 3777TIP3   OH232889   1.069   2.500   7.064  0.2612  0.1735  0.5454
 3777TIP3    H132890   1.127   2.446   7.010 -0.0909 -1.8090  2.0283
 3777TIP3    H232891   1.013   2.545   7.000 -0.3205 -2.2714 -0.8209
 3778TIP3   OH232892   6.087   0.990   7.795 -0.5155  0.3300  0.2009
 3778TIP3    H132893   6.140   0.957   7.723  0.2358 -1.3095  1.4293
 3778TIP3    H232894   6.001   1.005   7.757 -0.6419 -2.2226 -0.7057
 3779TIP3   OH232895   2.188   6.431   6.019  0.3087 -0.1320  0.0558
 3779TIP3    H132896   2.240   6.474   6.087  0.6413 -0.0401 -0.2501
 3779TIP3    H232897   2.249   6.422   5.945 -0.5594  1.4809 -0.9194
 3780TIP3   OH232898   5.609   2.420   6.693 -0.2229 -0.2769 -0.5880
 3780TIP3    H132899   5.663   2.420   6.614 -1.1211 -0.6777 -1.2198
 3780TIP3    H232900   5.585   2.329   6.705  1.0187 -0.4398  0.9561
 3781TIP3   OH232901   2.780   0.685   5.876 -0.8122 -0.6478 -0.2516
 3781TIP3    H132902   2.801   0.613   5.816  2.1914  1.2335 -1.7000
 3781TIP3    H232903   2.713   0.736   5.830  0.3171 -0.1135 -1.3720
 3782TIP3   OH232904   2.639   0.134   1.466 -1.0089  0.2810 -0.5908
 3782TIP3    H132905   2.723   0.109   1.504 -0.4424 -0.7522 -2.3915
 3782TIP3    H232906   2.660   0.210   1.411 -1.3629  0.3503 -0.6334
 3783TIP3   OH232907   2.022   5.116   7.140  0.4871 -0.4380 -0.0973
 3783TIP3    H132908   2.090   5.184   7.141  0.3335 -0.2588  1.4943
 3783TIP3    H232909   2.021   5.083   7.230 -1.6463 -0.3219 -0.0496
 3784TIP3   OH232910   1.381   5.692   8.823 -0.3299  0.4292  0.1969
 3784TIP3    H132911   1.404   5.756   8.890  0.4586  0.0923  0.2598
 3784TIP3    H232912   1.324   5.630   8.868 -1.0670  1.0609  0.1428
 3785TIP3   OH232913   6.631   4.460   0.880 -0.0516 -0.2234  0.2196
 3785TIP3    H132914   6.680   4.543   0.886  0.6043 -0.6614  1.1488
 3785TIP3    H232915   6.636   4.437   0.787 -3.0272  2.3879 -0.7484
 3786TIP3   OH232916   5.433   2.975   8.449  0.0774  0.3425 -0.0593
 3786TIP3    H132917   5.444   3.066   8.476 -0.0279 -0.1964  1.9662
 3786TIP3    H232918   5.496   2.926   8.502 -0.6732 -0.8909 -0.2550
 3787TIP3   OH232919   5.011   4.091   0.272  0.7347 -0.5350  0.1425
 3787TIP3    H132920   4.970   4.119   0.191  0.6795  2.6496  1.1418
 3787TIP3    H232921   4.949   4.027   0.309  0.1529 -1.0607 -1.6418
 3788TIP3   OH232922   6.422   1.202   7.462  0.2876 -0.3701  0.0111
 3788TIP3    H132923   6.475   1.123   7.457  0.0574 -0.4978 -0.5264
 3788TIP3    H232924   6.460   1.260   7.395 -0.7076 -0.7508 -0.9139
 3789TIP3   OH232925   6.602   6.715   8.689 -0.6986 -0.4161 -0.2514
 3789TIP3    H132926   6.579   6.642   8.633  0.6120 -0.1930 -1.1041
 3789TIP3    H232927   6.693   6.735   8.668 -1.2663  2.0593 -0.7376
 3790TIP3   OH232928   5.168   6.328   7.053 -0.2882  0.2026  0.5615
 3790TIP3    H132929   5.198   6.361   6.968 -1.1543  1.9381  0.8786
 3790TIP3    H232930   5.134   6.406   7.098  2.1768 -0.2054  3.4284
 3791TIP3   OH232931   0.796   5.016   6.265 -0.4116  0.5125 -0.3116
 3791TIP3    H132932   0.818   4.955   6.195  1.9912 -0.5497  1.2307
 3791TIP3    H232933   0.861   5.086   6.257 -2.8776  2.8576 -1.8100
 3792TIP3   OH232934   3.624   0.795   1.003 -0.0827 -0.4024 -0.2491
 3792TIP3    H132935   3.717   0.819   0.995  0.1150 -0.6603  1.0768
 3792TIP3    H232936   3.606   0.798   1.097 -0.9485 -2.0933 -0.3169
 3793TIP3   OH232937   5.976   3.531   8.516  0.1877  0.1031 -0.0241
 3793TIP3    H132938   5.970   3.546   8.610 -0.2190 -0.4160  0.0369
 3793TIP3    H232939   6.006   3.614   8.480 -0.2726  0.4963  0.4910
 3794TIP3   OH232940   0.181   5.213   7.577 -0.1079  0.2547  0.0151
 3794TIP3    H132941   0.183   5.158   7.499  0.7940  0.4567 -0.1097
 3794TIP3    H232942   0.090   5.208   7.607 -0.3330 -0.2706 -0.7243
 3795TIP3   OH232943   6.133   2.602   1.108  0.1742  0.3684  0.4016
 3795TIP3    H132944   6.205   2.638   1.055 -0.5571 -0.2259 -1.0354
 3795TIP3    H232945   6.089   2.540   1.051 -0.6776 -0.2900  1.7177
 3796TIP3   OH232946   5.066   1.523   7.768 -0.0313  0.1745 -0.0756
 3796TIP3    H132947   4.995   1.571   7.812  0.0106 -0.0666  0.2606
 3796TIP3    H232948   5.144   1.577   7.783 -0.1616  0.4927 -0.5354
 3797TIP3   OH232949   0.968   6.319   8.626 -0.3590  0.4408  0.3660
 3797TIP3    H132950   1.036   6.291   8.688 -0.1293 -0.6072 -0.3308
 3797TIP3    H232951   0.996   6.283   8.542 -1.5654  0.3476 -0.0160
 3798TIP3   OH232952   2.222   1.131   7.471  0.1005  0.3121 -0.1679
 3798TIP3    H132953   2.242   1.046   7.431  2.6888  1.2283 -1.0073
 3798TIP3    H232954   2.128   1.141   7.458 -0.0086 -1.7135 -1.4769
 3799TIP3   OH232955   5.403   3.463   6.705 -0.2788 -0.0187  0.0548
 3799TIP3    H132956   5.491   3.444   6.740 -0.6957 -0.7577  0.7266
 3799TIP3    H232957   5.400   3.416   6.621  0.2785  0.7432 -0.4058
 3800TIP3   OH232958   0.566   4.862   1.670  0.4034 -0.0572  0.6301
 3800TIP3    H132959   0.614   4.826   1.596 -0.1816  0.5176 -0.0385
 3800TIP3    H232960   0.559   4.789   1.732 -1.2944 -1.3032 -0.9375
 3801TIP3   OH232961   6.353   0.386   1.480  0.5266 -0.1340 -0.1588
 3801TIP3    H132962   6.281   0.324   1.492  1.0875 -0.7009  0.3535
 3801TIP3    H232963   6.313   0.471   1.498 -0.0782 -0.4143 -0.1237
 3802TIP3   OH232964   1.071   2.060   1.207  0.3954 -0.4499 -0.5360
 3802TIP3    H132965   1.136   2.100   1.264 -2.1016  0.3708  1.9780
 3802TIP3    H232966   1.047   1.979   1.252 -2.3297  0.6890  0.2520
 3803TIP3   OH232967   0.340   5.976   6.399 -0.1766 -0.1223  0.1290
 3803TIP3    H132968   0.363   5.912   6.332  0.2615  0.9170 -0.7390
 3803TIP3    H232969   0.415   6.035   6.404  0.5379 -1.0818  2.7141
 3804TIP3   OH232970   4.406   2.347   7.348  0.4279 -0.2263 -0.0541
 3804TIP3    H132971   4.419   2.255   7.325  1.1261 -0.1285 -0.0689
 3804TIP3    H232972   4.312   2.362   7.337  0.0596 -1.3165  1.4118
 3805TIP3   OH232973   4.550   4.820   8.666  0.2197 -0.2004  0.2374
 3805TIP3    H132974   4.594   4.740   8.694  0.7157 -0.1307 -0.3252
 3805TIP3    H232975   4.486   4.790   8.601  0.4981 -0.1269 -0.0722
 3806TIP3   OH232976   1.604   4.871   8.524  0.3239  0.8334 -0.5627
 3806TIP3    H132977   1.608   4.902   8.614 -1.7221 -0.0114 -0.1316
 3806TIP3    H232978   1.607   4.951   8.471  2.3577  1.2979  0.1664
 3807TIP3   OH232979   4.821   3.839   8.549 -0.2431 -0.6295 -0.1462
 3807TIP3    H132980   4.911   3.869   8.543  0.4471 -2.3207  0.8465
 3807TIP3    H232981   4.769   3.918   8.561  1.2861  0.2694  0.8421
 3808TIP3   OH232982   2.922   6.773   8.493  0.1834  0.0400  0.1723
 3808TIP3    H132983   3.005   6.727   8.498  0.9375  1.2878 -0.5298
 3808TIP3    H232984   2.944   6.865   8.506 -0.7593  0.6835 -2.2086
 3809TIP3   OH232985   0.733   3.480   7.952  0.3939 -0.0681 -0.5752
 3809TIP3    H132986   0.800   3.420   7.987 -0.8357 -1.5868 -0.7094
 3809TIP3    H232987   0.671   3.491   8.023 -0.0471  0.0181 -0.9690
 3810TIP3   OH232988   3.054   2.968   1.236 -0.5056  0.4734  0.8740
 3810TIP3    H132989   3.115   2.955   1.164 -1.1201 -1.7178  0.6649
 3810TIP3    H232990   2.986   3.026   1.201 -0.5840 -0.2465 -0.1816
 3811TIP3   OH232991   2.316   1.115   8.185 -0.3447  0.0612 -0.6976
 3811TIP3    H132992   2.345   1.031   8.220  1.7136  0.1291 -2.0957
 3811TIP3    H232993   2.228   1.127   8.221  1.0687 -0.4283  3.3649
 3812TIP3   OH232994   0.475   1.420   5.841 -0.0404 -0.2513  0.5549
 3812TIP3    H132995   0.402   1.468   5.803  1.2683  1.0449 -0.4325
 3812TIP3    H232996   0.434   1.347   5.888 -1.9400  0.4048  0.0068
 3813TIP3   OH232997   5.375   2.539   0.098  0.5794  0.1751  0.2263
 3813TIP3    H132998   5.462   2.571   0.074  0.7988  1.1060  2.1227
 3813TIP3    H232999   5.388   2.491   0.179 -0.3885 -1.5087 -0.5591
 3814TIP3   OH233000   0.385   4.198   1.704  1.1153  0.4742 -0.2222
 3814TIP3    H133001   0.298   4.159   1.705  2.0304 -2.0866 -3.3025
 3814TIP3    H233002   0.413   4.196   1.796 -2.5090  2.8510  1.1304
 3815TIP3   OH233003   1.556   4.628   6.555 -0.0871  0.1218 -0.0902
 3815TIP3    H133004   1.482   4.685   6.574  0.7061  1.3497 -0.5830
 3815TIP3    H233005   1.520   4.561   6.497 -1.6961 -1.5946  2.6023
 3816TIP3   OH233006   0.519   5.350   1.346  0.4671  0.0493 -0.2656
 3816TIP3    H133007   0.496   5.362   1.438  0.5794  1.2979 -0.3738
 3816TIP3    H233008   0.606   5.311   1.348  0.0960 -0.7727  0.1488
 3817TIP3   OH233009   1.837   2.678   0.673 -0.3777 -0.0047 -0.0792
 3817TIP3    H133010   1.889   2.742   0.722  0.7975  0.0526 -1.3555
 3817TIP3    H233011   1.820   2.719   0.589  0.9621 -1.5825 -1.1815
 3818TIP3   OH233012   0.189   5.356   1.561  0.2272  0.3010 -0.3744
 3818TIP3    H133013   0.100   5.351   1.596  1.0039 -0.8506  1.6369
 3818TIP3    H233014   0.218   5.445   1.581  0.9508 -0.5485  3.0145
 3819TIP3   OH233015   4.576   3.876   1.301  0.5615  0.2742  0.1061
 3819TIP3    H133016   4.549   3.799   1.251 -0.2527  0.8091 -0.3039
 3819TIP3    H233017   4.659   3.902   1.261 -0.4333  1.1413 -1.5219
 3820TIP3   OH233018   5.880   3.088   7.613  0.1706 -0.1606 -0.2155
 3820TIP3    H133019   5.826   3.145   7.668 -0.1879 -0.0103 -0.7093
 3820TIP3    H233020   5.965   3.131   7.611  0.5526 -0.7961  1.1959
 3821TIP3   OH233021   2.157   5.750   0.451 -0.3965  0.2360  0.0233
 3821TIP3    H133022   2.215   5.765   0.526 -0.2572 -0.4192  0.0529
 3821TIP3    H233023   2.198   5.799   0.380 -1.9945  3.2120  0.9773
 3822TIP3   OH233024   0.756   3.466   6.844 -0.1574 -0.6611  0.0247
 3822TIP3    H133025   0.784   3.484   6.754  0.6860 -0.1945  0.3665
 3822TIP3    H233026   0.709   3.383   6.839 -1.2126 -0.0361 -1.0515
 3823TIP3   OH233027   5.538   4.717   8.448 -0.1414 -0.0615 -0.2001
 3823TIP3    H133028   5.451   4.738   8.481 -1.6230 -2.6425 -2.0109
 3823TIP3    H233029   5.548   4.770   8.369 -1.3380 -1.6081 -1.4802
 3824TIP3   OH233030   5.503   4.043   8.774  0.3181 -0.1101 -0.4267
 3824TIP3    H133031   5.564   3.991   8.721  0.5739  0.0473 -0.2930
 3824TIP3    H233032   5.539   4.132   8.769 -0.1044  0.0478 -0.6421
 3825TIP3   OH233033   0.738   5.239   1.051 -0.4772  0.3165 -0.6945
 3825TIP3    H133034   0.649   5.262   1.025  0.1019  1.1505 -2.0476
 3825TIP3    H233035   0.741   5.144   1.047 -1.9489  0.0799  1.6986
 3826TIP3   OH233036   3.319   0.824   7.508  0.0993 -0.1714  0.2704
 3826TIP3    H133037   3.408   0.795   7.489  0.3742  0.9913 -0.3050
 3826TIP3    H233038   3.301   0.891   7.442 -1.4817 -0.9008 -0.0796
 3827TIP3   OH233039   1.997   6.763   7.820  0.3584 -0.2944  0.7819
 3827TIP3    H133040   1.924   6.798   7.871 -0.1841  0.1728 -0.2866
 3827TIP3    H233041   2.075   6.798   7.862 -0.1498  1.8038  0.0539
 3828TIP3   OH233042   4.173   4.444   0.001 -0.3168 -0.6684 -0.6140
 3828TIP3    H133043   4.217   4.404  -0.075 -0.1677 -1.3364 -0.1911
 3828TIP3    H233044   4.226   4.416   0.076 -0.0243  0.6011 -0.3243
 3829TIP3   OH233045   3.190   4.162   8.203  0.6142  0.3421 -0.5619
 3829TIP3    H133046   3.193   4.250   8.239 -2.7915  0.4780 -0.2921
 3829TIP3    H233047   3.189   4.174   8.108 -0.3427  0.6755 -0.5208
 3830TIP3   OH233048   2.226   3.279   7.704 -0.0838 -0.1253  0.7752
 3830TIP3    H133049   2.264   3.194   7.682  1.3389  0.7703 -0.4309
 3830TIP3    H233050   2.226   3.281   7.800 -1.7838 -2.1473  0.8761
 3831TIP3   OH233051   6.360   6.188   6.776  0.8462  0.3122 -0.3238
 3831TIP3    H133052   6.297   6.155   6.713  0.9007  1.6070 -1.1025
 3831TIP3    H233053   6.309   6.201   6.856 -0.3101  2.7566 -1.3524
 3832TIP3   OH233054   3.875   1.131   0.081 -0.5768  0.5984  0.1605
 3832TIP3    H133055   3.809   1.133   0.150 -0.4241 -1.6985  0.4309
 3832TIP3    H233056   3.955   1.163   0.123  0.0198 -2.5948  1.7175
 3833TIP3   OH233057   6.398   3.533   7.937 -0.3170  0.3533 -0.3287
 3833TIP3    H133058   6.328   3.511   7.874  0.4835 -1.8770 -0.5306
 3833TIP3    H233059   6.351   3.564   8.014 -1.6527 -1.7143 -0.2163
 3834TIP3   OH233060   0.812   6.030   1.477 -0.0697 -0.4758  0.0906
 3834TIP3    H133061   0.807   5.985   1.561 -1.4448  0.4485  0.5370
 3834TIP3    H233062   0.776   5.967   1.414  0.7654 -1.0881  0.2234
 3835TIP3   OH233063   0.944   1.891   8.301 -0.1465  0.1658 -0.2387
 3835TIP3    H133064   0.879   1.896   8.371  2.0570 -0.7020  2.0572
 3835TIP3    H233065   0.929   1.806   8.259 -0.7890  0.1794 -0.0344
 3836TIP3   OH233066   1.706   6.191   7.828  0.2768  0.6281 -0.7011
 3836TIP3    H133067   1.774   6.189   7.896  1.4937  0.6615 -1.8688
 3836TIP3    H233068   1.701   6.283   7.802 -0.4163  0.6659 -0.4332
 3837TIP3   OH233069   1.084   3.541   8.282  0.0069 -0.3531  0.0473
 3837TIP3    H133070   1.026   3.486   8.335  0.0319 -0.2117  0.2229
 3837TIP3    H233071   1.162   3.487   8.269  0.2429 -0.1682  0.6545
 3838TIP3   OH233072   3.000   6.696   0.311 -0.2863  0.0240 -0.0035
 3838TIP3    H133073   3.030   6.766   0.370 -0.4367 -0.3176  0.4857
 3838TIP3    H233074   3.034   6.721   0.225 -0.4901  0.7891  0.1329
 3839TIP3   OH233075   5.620   2.925   1.865 -0.3634  0.2856  0.6699
 3839TIP3    H133076   5.627   3.014   1.831 -0.4650 -0.6637 -2.0753
 3839TIP3    H233077   5.534   2.895   1.836 -0.5834 -0.5200  2.0901
 3840TIP3   OH233078   0.039   3.169   2.023 -0.4890  0.0727  0.5237
 3840TIP3    H133079   0.123   3.200   1.988 -0.5129 -1.9765 -1.6200
 3840TIP3    H233080   0.063   3.110   2.095  0.0735 -1.5732 -0.9387
 3841TIP3   OH233081   2.113   1.991   1.639 -0.1544 -0.1375  0.4229
 3841TIP3    H133082   2.144   1.921   1.582 -0.5296 -0.6891  0.8967
 3841TIP3    H233083   2.038   1.954   1.685 -1.6623  1.2263 -0.8155
 3842TIP3   OH233084   2.518   1.838   8.800 -0.5617  0.2642 -0.1222
 3842TIP3    H133085   2.590   1.787   8.838  0.4546  0.0232 -2.2282
 3842TIP3    H233086   2.450   1.836   8.867  1.0243 -0.2779  1.5839
 3843TIP3   OH233087   2.679   2.304   6.867 -0.0059 -0.1324 -0.6569
 3843TIP3    H133088   2.601   2.264   6.828 -0.5584  0.5949 -0.3301
 3843TIP3    H233089   2.680   2.271   6.957 -0.6563  0.8284 -0.2834
 3844TIP3   OH233090   5.980   5.873   0.076 -0.2434 -0.0797 -0.3385
 3844TIP3    H133091   6.063   5.863   0.123  0.1112  3.2739 -0.0164
 3844TIP3    H233092   5.980   5.800   0.013  3.5079  0.3718 -1.1185
 3845TIP3   OH233093   0.266   2.746   6.614  0.3806  0.1040  0.8259
 3845TIP3    H133094   0.235   2.835   6.595  0.3056  0.0263  0.5800
 3845TIP3    H233095   0.187   2.692   6.608  0.4918 -0.0337  0.6063
 3846TIP3   OH233096   6.369   2.878   7.212 -0.0326  0.3900  0.0537
 3846TIP3    H133097   6.443   2.935   7.189  2.1288 -1.3466  2.1521
 3846TIP3    H233098   6.367   2.813   7.142  0.6628  0.2663  0.1375
 3847TIP3   OH233099   3.737   3.282   1.730  0.3562 -0.1060  0.1569
 3847TIP3    H133100   3.764   3.206   1.782  0.9290 -0.4870 -0.6697
 3847TIP3    H233101   3.683   3.245   1.660 -2.6837  0.6428  1.8759
 3848TIP3   OH233102   2.978   2.762   8.471  0.2129  0.0151  0.1638
 3848TIP3    H133103   3.031   2.829   8.514 -0.5017  0.3332  0.5711
 3848TIP3    H233104   2.889   2.779   8.501 -0.0006 -1.0703  0.2142
 3849TIP3   OH233105   2.385   0.616   8.293 -0.4003 -0.1379 -0.1705
 3849TIP3    H133106   2.298   0.576   8.284 -0.3173 -0.0424 -1.5663
 3849TIP3    H233107   2.435   0.582   8.220 -0.4955  2.9249 -1.8347
 3850TIP3   OH233108   1.781   6.236   0.428  0.2502  0.1341 -0.1022
 3850TIP3    H133109   1.699   6.189   0.414 -0.4769  1.2383  0.2563
 3850TIP3    H233110   1.777   6.266   0.519  1.8431 -1.2160  0.4690
 3851TIP3   OH233111   3.383   6.143   5.997  0.1304  0.5304 -0.6047
 3851TIP3    H133112   3.469   6.181   5.979 -0.1406  0.7782 -1.3971
 3851TIP3    H233113   3.392   6.051   5.972  0.9587 -0.1443  1.8426
 3852TIP3   OH233114   1.654   6.222   6.043 -0.2864  0.1293  0.2494
 3852TIP3    H133115   1.596   6.176   6.104 -1.4319 -0.3622 -1.1505
 3852TIP3    H233116   1.646   6.314   6.068 -3.1680  0.3390 -0.9976
 3853TIP3   OH233117   0.249   4.620   0.220 -0.3171 -0.0182 -0.1866
 3853TIP3    H133118   0.164   4.663   0.226 -0.4459 -0.2057 -0.6499
 3853TIP3    H233119   0.288   4.633   0.306  0.0692  1.8918 -0.5996
 3854TIP3   OH233120   2.715   2.883   8.498 -0.2524  0.2713  0.5956
 3854TIP3    H133121   2.719   2.978   8.501 -1.9013  0.3623  4.2302
 3854TIP3    H233122   2.658   2.863   8.423  0.9878  1.9890 -0.8915
 3855TIP3   OH233123   6.428   5.794   0.397  0.2967  0.0028  0.3135
 3855TIP3    H133124   6.373   5.763   0.468 -0.4802 -0.3082 -0.4052
 3855TIP3    H233125   6.496   5.846   0.440  1.2465 -2.1086  1.4935
 3856TIP3   OH233126   0.559   0.061   1.032 -0.7057 -0.7499  0.0901
 3856TIP3    H133127   0.532   0.123   1.100 -0.5869 -0.4620 -0.1278
 3856TIP3    H233128   0.601   0.114   0.965  0.7610 -1.2319  0.5927
 3857TIP3   OH233129   4.372   1.673   1.646  0.2742 -0.4666  0.5665
 3857TIP3    H133130   4.426   1.594   1.648  1.0403  0.0383  0.2493
 3857TIP3    H233131   4.294   1.650   1.697  1.4469 -0.7238  2.3203
 3858TIP3   OH233132   1.787   0.361   8.501  0.2198  0.5819 -0.0414
 3858TIP3    H133133   1.850   0.415   8.548 -0.0112  1.0464 -0.2656
 3858TIP3    H233134   1.707   0.413   8.498  0.4123  0.8464 -1.5163
 3859TIP3   OH233135   2.648   2.235   8.046 -0.4463  0.0881 -0.3500
 3859TIP3    H133136   2.599   2.167   8.000  0.6692 -1.2903  0.4300
 3859TIP3    H233137   2.617   2.317   8.007  1.4895 -0.9658 -4.7374
 3860TIP3   OH233138   3.795   5.699   8.693  0.0815 -0.2704 -0.2148
 3860TIP3    H133139   3.842   5.670   8.771 -0.0774 -1.0368 -0.3899
 3860TIP3    H233140   3.703   5.683   8.713 -0.1074  1.0342  0.0499
 3861TIP3   OH233141   6.529   5.526   7.063  0.5431 -1.1034 -0.0564
 3861TIP3    H133142   6.619   5.499   7.085  0.4826 -0.8426  0.4999
 3861TIP3    H233143   6.534   5.550   6.970  1.6397  1.3572  0.5573
 3862TIP3   OH233144   6.722   2.856   1.813  0.4966  0.4340 -0.4409
 3862TIP3    H133145   6.816   2.862   1.795  0.9614 -1.4709  1.0318
 3862TIP3    H233146   6.717   2.831   1.905 -1.4775  0.2407 -0.5586
 3863TIP3   OH233147   2.653   3.202   6.805  0.2223  0.2718 -0.2196
 3863TIP3    H133148   2.700   3.165   6.730  0.9225 -1.0605  0.8248
 3863TIP3    H233149   2.616   3.126   6.850 -1.4544  1.1636 -0.0066
 3864TIP3   OH233150   0.488   1.751   0.525  0.3770  0.0127  0.2843
 3864TIP3    H133151   0.574   1.782   0.551  0.1060 -0.8205  2.3976
 3864TIP3    H233152   0.427   1.804   0.577 -0.2114 -1.6385  1.3618
 3865TIP3   OH233153   6.370   3.169   6.320  0.4724 -0.1354 -0.3105
 3865TIP3    H133154   6.452   3.149   6.275  0.3598 -0.0936 -0.5351
 3865TIP3    H233155   6.323   3.228   6.260 -0.2958 -1.1803 -0.7778
 3866TIP3   OH233156   1.756   2.523   7.314  0.0527  0.3016 -0.3353
 3866TIP3    H133157   1.755   2.494   7.223 -0.8314 -0.8755  0.0326
 3866TIP3    H233158   1.838   2.489   7.349  0.2898  0.5674 -0.6219
 3867TIP3   OH233159   0.674   6.261   6.120  0.7447  0.1001 -0.3281
 3867TIP3    H133160   0.664   6.258   6.025 -0.0237  2.1491 -0.3659
 3867TIP3    H233161   0.757   6.217   6.138  0.6073 -0.8373 -1.8797
 3868TIP3   OH233162   5.443   2.018   0.608 -0.5497 -0.4989 -0.2720
 3868TIP3    H133163   5.408   1.930   0.622  0.7473 -1.1915 -1.1202
 3868TIP3    H233164   5.390   2.052   0.535 -0.5080 -0.9061 -0.4990
 3869TIP3   OH233165   5.007   3.078   8.663 -0.4056 -0.4216  0.1596
 3869TIP3    H133166   4.934   3.038   8.616  0.6212 -1.6381 -0.4892
 3869TIP3    H233167   4.967   3.121   8.738 -1.5715 -3.4321  1.4305
 3870TIP3   OH233168   2.358   6.038   6.038 -0.1092  0.3843 -0.0169
 3870TIP3    H133169   2.391   6.126   6.024 -2.6987  1.4955  0.2324
 3870TIP3    H233170   2.407   6.004   6.113  0.4716  1.8581  0.2895
 3871TIP3   OH233171   4.700   4.000   1.541 -0.2258  0.1610 -0.8167
 3871TIP3    H133172   4.759   4.054   1.488 -1.0533  0.1191 -1.8338
 3871TIP3    H233173   4.737   3.912   1.537  1.2483  0.6362  1.0256
 3872TIP3   OH233174   1.395   4.548   7.159  0.3015 -0.0945 -0.1172
 3872TIP3    H133175   1.461   4.503   7.105 -1.5016 -1.8457 -1.0093
 3872TIP3    H233176   1.419   4.525   7.249  0.8700 -0.7458 -0.4201
 3873TIP3   OH233177   6.008   0.137   1.169  0.4300 -0.0574 -0.4816
 3873TIP3    H133178   5.981   0.219   1.211 -1.4663 -0.8394 -0.0572
 3873TIP3    H233179   6.077   0.163   1.108  0.4364  1.7241  0.2145
 3874TIP3   OH233180   4.584   0.642   0.960 -0.3698  0.1755  0.0166
 3874TIP3    H133181   4.584   0.547   0.972 -1.1740  0.2067  0.2902
 3874TIP3    H233182   4.586   0.678   1.048 -0.3808  0.4100 -0.0772
 3875TIP3   OH233183   0.926   2.830   1.059  0.1964 -0.3956  0.1214
 3875TIP3    H133184   0.971   2.768   1.116 -0.2197  0.2643  1.1954
 3875TIP3    H233185   0.849   2.856   1.108  0.2744  0.8509 -0.3823
 3876TIP3   OH233186   1.022   4.208   1.841 -0.1644  0.4536 -0.6207
 3876TIP3    H133187   0.973   4.128   1.825  0.1125  0.3295 -0.8609
 3876TIP3    H233188   1.088   4.184   1.906  1.1850 -0.0325 -2.0979
 3877TIP3   OH233189   3.254   2.908   1.397  0.1929 -0.3410  0.0757
 3877TIP3    H133190   3.198   2.926   1.322 -2.1590  0.6423  1.9304
 3877TIP3    H233191   3.215   2.958   1.469  3.3123  0.1427  1.6134
 3878TIP3   OH233192   4.498   5.765   7.561 -0.1020  0.4861 -0.3186
 3878TIP3    H133193   4.533   5.766   7.472 -1.2789 -0.3607 -0.8111
 3878TIP3    H233194   4.420   5.711   7.556  1.0537 -1.5801  1.7224
 3879TIP3   OH233195   2.648   3.874   1.361  0.0274 -0.5415  0.1965
 3879TIP3    H133196   2.628   3.951   1.414  1.3040 -0.9298  1.2807
 3879TIP3    H233197   2.637   3.800   1.421 -0.0121 -1.1127 -0.5037
 3880TIP3   OH233198   1.358   3.470   0.175 -0.1528  0.2561  0.1284
 3880TIP3    H133199   1.281   3.442   0.225  0.1723  0.3885  0.7174
 3880TIP3    H233200   1.411   3.519   0.238  0.6184 -0.1896 -0.1542
 3881TIP3   OH233201   6.182   5.013   0.683  0.1133  1.1913  0.2825
 3881TIP3    H133202   6.263   4.984   0.642 -0.3240  1.3160 -0.7056
 3881TIP3    H233203   6.114   4.959   0.642 -0.1452 -0.3443  2.5053
 3882TIP3   OH233204   6.712   5.683   7.965 -0.5614  0.6609 -0.3992
 3882TIP3    H133205   6.794   5.685   8.014 -0.1264  2.0153 -1.1173
 3882TIP3    H233206   6.739   5.681   7.873 -1.3592 -1.3317 -0.6554
 3883TIP3   OH233207   2.536   2.150   8.466 -0.7416 -0.5184  0.3041
 3883TIP3    H133208   2.502   2.191   8.545  1.5593  0.0658  1.0691
 3883TIP3    H233209   2.593   2.080   8.497 -0.1998 -0.6141 -0.8336
 3884TIP3   OH233210   3.343   2.956   8.331  0.5681  0.3588  0.3585
 3884TIP3    H133211   3.310   3.045   8.342 -0.6902  0.0834 -0.9270
 3884TIP3    H233212   3.392   2.959   8.249 -2.8264 -0.9330 -1.9561
 3885TIP3   OH233213   0.712   5.876   7.598  0.2149  0.0256  0.2972
 3885TIP3    H133214   0.659   5.956   7.596 -0.2795 -0.2744  1.1071
 3885TIP3    H233215   0.648   5.805   7.606  0.6078 -0.5134 -1.0098
 3886TIP3   OH233216   5.294   6.001   8.320 -0.5900  0.7637  0.0986
 3886TIP3    H133217   5.375   5.963   8.285 -2.3834 -2.1203 -1.3587
 3886TIP3    H233218   5.296   5.981   8.413  0.8782  1.8203  0.3237
 3887TIP3   OH233219   2.729   1.785   1.164 -0.0282 -0.3807 -0.1420
 3887TIP3    H133220   2.671   1.844   1.115  0.0419 -0.0322  0.1895
 3887TIP3    H233221   2.760   1.722   1.098  1.3690  1.0622 -0.9366
 3888TIP3   OH233222   3.535   0.016   6.131  0.2789 -0.0095 -0.2082
 3888TIP3    H133223   3.549   0.097   6.081  0.2634  0.2189  0.1513
 3888TIP3    H233224   3.535   0.045   6.222 -2.3749 -0.0187 -0.1410
 3889TIP3   OH233225   1.935   2.632   7.677  0.0765 -0.3484 -0.6790
 3889TIP3    H133226   1.969   2.563   7.734  2.3287  0.7444 -0.6099
 3889TIP3    H233227   1.842   2.613   7.670  0.3358 -2.4432  0.6507
 3890TIP3   OH233228   3.817   4.667   5.572  0.1173 -0.3127 -0.3866
 3890TIP3    H133229   3.881   4.627   5.512  1.2092 -0.9736  1.1491
 3890TIP3    H233230   3.735   4.621   5.554  0.9235 -2.0279  0.0719
 3891TIP3   OH233231   2.309   2.900   6.834 -0.5394  0.1778  0.6002
 3891TIP3    H133232   2.352   2.982   6.857  0.2351 -0.3004  0.9130
 3891TIP3    H233233   2.236   2.893   6.896 -1.4902  1.3142 -0.3556
 3892TIP3   OH233234   1.219   3.048   0.308 -0.2330  0.3239  0.4974
 3892TIP3    H133235   1.160   2.987   0.263 -0.6906  1.2200 -0.1385
 3892TIP3    H233236   1.178   3.134   0.298  1.1713  0.9748  0.0275
 3893TIP3   OH233237   1.984   3.010   7.905  0.5412  0.5776 -0.1461
 3893TIP3    H133238   2.061   2.976   7.860 -0.5577 -0.6546 -1.1984
 3893TIP3    H233239   1.941   3.066   7.840  1.3617  2.6162  0.9737
 3894TIP3   OH233240   0.155   1.298   7.886 -0.6839 -0.6268 -0.2544
 3894TIP3    H133241   0.070   1.339   7.901  0.2930  1.4111 -0.0119
 3894TIP3    H233242   0.158   1.282   7.791 -0.0287  2.4901 -0.8447
 3895TIP3   OH233243   4.088   3.720   0.974 -0.2128 -0.1232 -0.1843
 3895TIP3    H133244   4.139   3.640   0.959 -0.6039 -0.5377  0.6466
 3895TIP3    H233245   4.146   3.777   1.025  0.4574  0.5709 -1.6580
 3896TIP3   OH233246   5.031   3.490   7.431 -0.2042 -0.4480 -0.0487
 3896TIP3    H133247   4.989   3.406   7.410  0.6262 -1.3327  1.6447
 3896TIP3    H233248   5.079   3.514   7.352  1.1458 -2.5926  0.0572
 3897TIP3   OH233249   2.256   0.147   0.124  0.1830  0.1803 -0.2170
 3897TIP3    H133250   2.238   0.053   0.127  1.3851 -0.0636 -0.3105
 3897TIP3    H233251   2.257   0.174   0.216  2.8757 -0.5302  0.0302
 3898TIP3   OH233252   1.477   2.178   0.267 -0.1116 -0.2366  0.0522
 3898TIP3    H133253   1.497   2.128   0.188 -1.4772 -1.6786  0.5737
 3898TIP3    H233254   1.409   2.127   0.311 -1.4341  1.9839  0.7317
 3899TIP3   OH233255   1.012   1.762   0.332  0.0051  0.1726 -0.0329
 3899TIP3    H133256   1.043   1.842   0.289  0.2677 -0.3674 -0.8534
 3899TIP3    H233257   1.088   1.729   0.379 -0.2947  0.7902  0.9274
 3900TIP3   OH233258   6.578   3.680   0.950  0.0198  0.1925 -0.1884
 3900TIP3    H133259   6.670   3.685   0.974  0.1549 -0.0637 -0.6558
 3900TIP3    H233260   6.570   3.733   0.871 -0.5839  1.7232  0.8279
 3901TIP3   OH233261   2.713   1.087   7.414 -0.2962 -0.2484 -0.2059
 3901TIP3    H133262   2.684   1.122   7.330  0.1387  1.5316  0.3397
 3901TIP3    H233263   2.805   1.114   7.420 -0.5309  0.3295  1.1525
 3902TIP3   OH233264   1.564   1.140   6.583  0.0474 -0.2558 -0.1037
 3902TIP3    H133265   1.519   1.206   6.636  0.3567 -0.9363  1.0362
 3902TIP3    H233266   1.598   1.077   6.647  1.6742 -0.3435 -1.0126
 3903TIP3   OH233267   6.253   4.014   7.119  0.3022  0.1838  0.2873
 3903TIP3    H133268   6.236   4.053   7.204 -2.5491 -1.6770  0.7162
 3903TIP3    H233269   6.225   4.081   7.056 -0.8557  0.3339  0.9271
 3904TIP3   OH233270   1.175   6.165   8.725  0.6288  0.2406 -0.1220
 3904TIP3    H133271   1.250   6.148   8.781  0.0712 -0.7028  0.3571
 3904TIP3    H233272   1.196   6.120   8.643  0.7774  0.3422 -0.1398
 3905TIP3   OH233273   4.903   0.345   6.856 -0.2517  0.0564  0.7279
 3905TIP3    H133274   4.852   0.426   6.849  0.6287  0.6188  0.5557
 3905TIP3    H233275   4.967   0.363   6.925  1.3747  0.3513 -0.7648
 3906TIP3   OH233276   4.826   0.100   7.644  0.0137  0.0433 -0.0041
 3906TIP3    H133277   4.914   0.112   7.679 -0.9383  2.4022  1.8413
 3906TIP3    H233278   4.800   0.186   7.614 -1.2473 -0.8764 -1.7073
 3907TIP3   OH233279   5.169   5.338   1.621 -0.6754 -0.0593  0.1289
 3907TIP3    H133280   5.112   5.410   1.593  0.5035  0.4253 -1.1633
 3907TIP3    H233281   5.238   5.381   1.671  0.8380 -0.0289 -1.8649
 3908TIP3   OH233282   0.851   4.484   0.856 -0.3696 -0.1971  0.3170
 3908TIP3    H133283   0.852   4.568   0.901 -1.1206 -1.3076  2.5903
 3908TIP3    H233284   0.805   4.425   0.917  2.8968 -3.0394  0.3328
 3909TIP3   OH233285   2.224   3.131   0.070 -0.1415  0.0546  0.3769
 3909TIP3    H133286   2.145   3.182   0.089  0.2890  0.8811  0.0124
 3909TIP3    H233287   2.238   3.144  -0.024  0.9779  0.7488  0.6163
 3910TIP3   OH233288   6.739   1.513   6.902 -0.0135 -0.3166  0.2109
 3910TIP3    H133289   6.820   1.498   6.853 -0.8604 -1.1626 -0.9929
 3910TIP3    H233290   6.751   1.600   6.941  1.3958 -0.3477 -0.0786
 3911TIP3   OH233291   4.194   3.925   1.467 -0.0365  0.5404 -0.3227
 3911TIP3    H133292   4.220   3.914   1.559 -1.4893 -0.9950 -0.0585
 3911TIP3    H233293   4.271   3.899   1.417  0.4614  0.4781  0.4595
 3912TIP3   OH233294   6.287   1.147   6.836  0.5514  0.2713  0.2867
 3912TIP3    H133295   6.261   1.079   6.898  3.2999 -0.2166  1.0434
 3912TIP3    H233296   6.235   1.224   6.861 -1.2257 -1.0067  0.6337
 3913TIP3   OH233297   3.314   6.407   8.184 -0.2965 -0.7357 -0.4621
 3913TIP3    H133298   3.346   6.376   8.099  1.6194  1.9420 -0.8338
 3913TIP3    H233299   3.252   6.477   8.162 -0.7691 -0.8754  0.3769
 3914TIP3   OH233300   1.930   2.362   0.248 -0.5945 -0.5827  0.0199
 3914TIP3    H133301   1.894   2.309   0.177 -0.2353 -0.0990 -0.5305
 3914TIP3    H233302   2.022   2.373   0.225 -0.8012  0.7974 -0.2015
 3915TIP3   OH233303   5.703   0.414   1.197 -0.2001  1.0443  0.0972
 3915TIP3    H133304   5.675   0.501   1.169 -1.0601  0.8554  0.3605
 3915TIP3    H233305   5.684   0.358   1.122 -1.2743  0.7780  0.5500
 3916TIP3   OH233306   4.871   1.659   0.527  0.9145  0.3008 -0.3780
 3916TIP3    H133307   4.838   1.589   0.584 -1.9904  0.7731 -1.2928
 3916TIP3    H233308   4.820   1.736   0.552  2.1630  1.4317 -1.1985
 3917TIP3   OH233309   2.984   2.208   7.099 -0.1402  0.2493  0.1828
 3917TIP3    H133310   3.002   2.275   7.033 -0.4581 -1.6261 -1.9092
 3917TIP3    H233311   3.044   2.137   7.078 -1.1604 -0.9165  1.0985
 3918TIP3   OH233312   5.624   5.398   1.161 -0.3342 -0.9416 -0.3116
 3918TIP3    H133313   5.607   5.491   1.148 -0.8459 -0.7879  1.2000
 3918TIP3    H233314   5.550   5.354   1.121  0.3837 -0.7727 -1.8838
 3919TIP3   OH233315   0.276   6.131   1.553 -0.5225  0.4647 -0.1564
 3919TIP3    H133316   0.347   6.082   1.595 -0.3374  0.2548 -0.7094
 3919TIP3    H233317   0.197   6.102   1.599 -0.2092  1.0627  0.7959
 3920TIP3   OH233318   3.891   2.115   7.174  0.7784 -0.2384 -0.3575
 3920TIP3    H133319   3.917   2.164   7.252  0.0615  1.2250 -0.9882
 3920TIP3    H233320   3.883   2.182   7.106  1.1111 -1.4380 -1.6239
 3921TIP3   OH233321   3.569   2.334   6.617 -0.2465  0.0938  0.1140
 3921TIP3    H133322   3.653   2.374   6.595 -1.2031  2.3318  0.1969
 3921TIP3    H233323   3.505   2.386   6.569 -1.7360 -0.1474  1.7488
 3922TIP3   OH233324   3.611   2.103   8.634 -0.2183 -0.0418  0.0001
 3922TIP3    H133325   3.606   2.194   8.664  0.0091 -0.2238  0.6201
 3922TIP3    H233326   3.567   2.103   8.549  2.8997  1.3802 -1.7804
 3923TIP3   OH233327   1.092   0.468   8.674  0.2849 -0.4373 -0.5139
 3923TIP3    H133328   1.179   0.447   8.708  0.2149  0.0961  0.0101
 3923TIP3    H233329   1.062   0.541   8.728 -1.5369 -2.2019  1.0220
 3924TIP3   OH233330   2.611   6.689   7.114  0.2518  0.6561  0.1245
 3924TIP3    H133331   2.674   6.724   7.051  1.9907 -0.5104  1.1120
 3924TIP3    H233332   2.565   6.620   7.066  1.9231 -0.5795  0.2084
 3925TIP3   OH233333   0.740   1.624   7.711 -0.9734 -0.2064 -0.0429
 3925TIP3    H133334   0.792   1.704   7.716 -1.9632  0.5016 -0.8408
 3925TIP3    H233335   0.797   1.561   7.666 -0.0361 -0.0980  0.9573
 3926TIP3   OH233336   2.138   6.255   7.987  0.2439  0.0413 -0.5235
 3926TIP3    H133337   2.183   6.203   8.053  0.8757 -0.5234 -1.3833
 3926TIP3    H233338   2.152   6.346   8.015  0.1158 -0.2047  0.3586
 3927TIP3   OH233339   1.871   0.614   8.332  0.3800  0.2195  0.7565
 3927TIP3    H133340   1.881   0.581   8.422  1.8884  0.7322  0.8085
 3927TIP3    H233341   1.952   0.587   8.289 -0.3567 -0.0650 -0.4821
 3928TIP3   OH233342   5.111   2.779   7.206  0.1373  0.2478  0.3154
 3928TIP3    H133343   5.185   2.734   7.247 -0.0550  0.6017  1.0583
 3928TIP3    H233344   5.051   2.708   7.183 -0.0246  0.0877  1.1982
 3929TIP3   OH233345   0.118   6.331   6.055 -0.0744  0.8396  0.5790
 3929TIP3    H133346   0.123   6.415   6.010  0.6657 -0.3978 -1.8528
 3929TIP3    H233347   0.097   6.353   6.146 -2.5451  3.4928 -0.4694
 3930TIP3   OH233348   4.572   5.646   1.187 -0.2530 -0.0234  0.2252
 3930TIP3    H133349   4.507   5.713   1.168  0.6859  1.9139  3.1825
 3930TIP3    H233350   4.613   5.627   1.102 -2.0260  1.5302 -1.0501
 3931TIP3   OH233351   5.225   0.365   6.279 -0.3558 -0.1777 -0.1253
 3931TIP3    H133352   5.178   0.362   6.362 -0.6983  1.0901 -0.2606
 3931TIP3    H233353   5.299   0.424   6.294  0.2591 -0.8541 -0.3983
 3932TIP3   OH233354   4.045   6.048   1.042  0.6359  0.3098 -0.0523
 3932TIP3    H133355   3.984   5.993   1.091  1.0631 -0.7369 -0.6628
 3932TIP3    H233356   3.990   6.113   0.999  0.0601 -0.0002  0.2062
 3933TIP3   OH233357   5.140   5.914   7.241 -0.2179  0.4200 -0.4292
 3933TIP3    H133358   5.137   5.913   7.145  0.2662 -0.6570 -0.4494
 3933TIP3    H233359   5.213   5.857   7.263 -0.4970  0.4454  0.5940
 3934TIP3   OH233360   3.303   5.004   1.903 -0.0917 -0.6550 -0.3737
 3934TIP3    H133361   3.257   4.922   1.885  1.4970 -1.4067 -1.2351
 3934TIP3    H233362   3.374   4.979   1.962 -1.4586  0.7117  2.0401
 3935TIP3   OH233363   2.277   3.837   1.027 -0.2292  0.0210 -0.0200
 3935TIP3    H133364   2.353   3.893   1.015  1.5214 -1.9743  1.0136
 3935TIP3    H233365   2.244   3.859   1.114  2.0325 -2.1516  1.5168
 3936TIP3   OH233366   0.469   3.792   8.752 -0.1130 -0.0934 -0.2057
 3936TIP3    H133367   0.464   3.882   8.719 -1.6857 -0.0355  0.1181
 3936TIP3    H233368   0.558   3.784   8.787 -0.7550  2.2628  2.3096
 3937TIP3   OH233369   1.674   2.592   7.763  0.2064 -0.1932 -0.1945
 3937TIP3    H133370   1.672   2.499   7.784 -1.2301 -0.5642 -1.7011
 3937TIP3    H233371   1.593   2.627   7.800 -0.5742 -0.1413 -1.8218
 3938TIP3   OH233372   3.403   5.556   8.163 -0.1257 -1.0679  0.2430
 3938TIP3    H133373   3.470   5.621   8.184 -0.3369 -0.7958  0.0782
 3938TIP3    H233374   3.431   5.477   8.210  0.9341 -1.3053 -0.7409
 3939TIP3   OH233375   6.340   3.551   1.318  0.3959  0.1635 -0.1284
 3939TIP3    H133376   6.252   3.587   1.321  0.0815 -0.2696 -2.5360
 3939TIP3    H233377   6.351   3.507   1.403 -0.9422  1.8315  0.9779
 3940TIP3   OH233378   4.455   2.518   7.740 -0.2542 -0.3084  0.1608
 3940TIP3    H133379   4.532   2.570   7.716 -1.0762  0.5247 -0.7680
 3940TIP3    H233380   4.488   2.428   7.746  0.3461 -0.3887 -2.7632
 3941TIP3   OH233381   3.861   5.105   7.359 -0.4480  0.5061  0.3690
 3941TIP3    H133382   3.918   5.058   7.299  0.1179 -0.1370  1.3827
 3941TIP3    H233383   3.895   5.084   7.446 -1.6530  0.8720  0.9526
 3942TIP3   OH233384   2.084   3.261   7.974 -0.1102 -0.4922  0.2498
 3942TIP3    H133385   2.115   3.253   8.064 -1.2141 -1.5258  0.5561
 3942TIP3    H233386   2.051   3.174   7.952  2.1140 -0.9000 -1.9204
 3943TIP3   OH233387   1.277   0.854   0.260 -0.2685  0.3562 -0.0825
 3943TIP3    H133388   1.372   0.843   0.251 -0.0085  0.8081  1.6164
 3943TIP3    H233389   1.239   0.791   0.198  1.1245  0.8253 -1.4645
 3944TIP3   OH233390   1.499   5.988   7.230  0.0068 -0.5350 -0.9748
 3944TIP3    H133391   1.435   6.055   7.204 -0.2783 -0.3339  0.1862
 3944TIP3    H233392   1.452   5.905   7.217 -0.4373 -0.3972 -0.3294
 3945TIP3   OH233393   4.136   2.695   7.430  0.1371  0.0644  0.1629
 3945TIP3    H133394   4.226   2.667   7.448  0.0863 -0.4470 -0.3399
 3945TIP3    H233395   4.141   2.736   7.343 -0.2135 -0.4749 -0.1156
 3946TIP3   OH233396   5.935   0.633   8.332 -0.0624 -0.6417  0.2508
 3946TIP3    H133397   5.916   0.618   8.239  1.2189  1.5434 -0.4482
 3946TIP3    H233398   5.939   0.546   8.370 -3.1819 -1.5601 -1.1571
 3947TIP3   OH233399   1.044   4.809   6.867 -0.4754  0.4142 -0.0251
 3947TIP3    H133400   1.053   4.718   6.836  0.5542  0.8197 -1.0157
 3947TIP3    H233401   0.996   4.853   6.797 -2.0609  0.3974  1.0011
 3948TIP3   OH233402   1.670   5.494   8.718 -0.4539  0.2694  0.0439
 3948TIP3    H133403   1.676   5.401   8.696  2.2673  0.0552  1.2209
 3948TIP3    H233404   1.594   5.500   8.776 -1.7066 -0.8545 -1.3832
 3949TIP3   OH233405   6.348   5.463   6.643  0.6575  0.0272  0.8403
 3949TIP3    H133406   6.414   5.418   6.591  0.2878 -0.7494  1.0275
 3949TIP3    H233407   6.398   5.502   6.715  1.1474  0.9855  0.0112
 3950TIP3   OH233408   4.050   5.505   7.081  0.2812 -0.2387 -0.5985
 3950TIP3    H133409   4.114   5.448   7.123  0.3914 -0.0509 -0.5123
 3950TIP3    H233410   4.093   5.590   7.076 -0.6472  0.3880  1.1649
 3951TIP3   OH233411   5.294   6.492   0.927  0.1910 -0.5409  0.5163
 3951TIP3    H133412   5.306   6.554   0.999 -0.3621  1.4904 -1.0604
 3951TIP3    H233413   5.372   6.437   0.929  1.0490  0.6650  1.5458
 3952TIP3   OH233414   3.682   5.192   1.214  0.0170  0.2594 -0.3782
 3952TIP3    H133415   3.700   5.149   1.298 -0.9587 -1.1188 -0.8244
 3952TIP3    H233416   3.660   5.119   1.155  0.2240  1.2403 -1.7039
 3953TIP3   OH233417   6.259   1.132   8.455  0.2489 -0.6487 -0.1688
 3953TIP3    H133418   6.303   1.049   8.438 -0.3192 -1.2535  1.2178
 3953TIP3    H233419   6.206   1.147   8.376 -1.2307 -2.6565  0.3774
 3954TIP3   OH233420   0.321   3.062   1.222  0.3376 -0.1650 -0.2998
 3954TIP3    H133421   0.369   3.029   1.299  0.1261  2.5189  1.0986
 3954TIP3    H233422   0.388   3.070   1.154  0.8042 -1.2939 -0.0027
 3955TIP3   OH233423   2.732   4.116   8.803 -0.0867 -0.2749 -0.0979
 3955TIP3    H133424   2.709   4.028   8.772  0.9192 -0.8363  0.7126
 3955TIP3    H233425   2.780   4.155   8.730 -0.9645 -0.1941 -0.6518
 3956TIP3   OH233426   2.656   1.219   7.158 -0.3161 -0.1227  0.5215
 3956TIP3    H133427   2.627   1.195   7.071  1.5402 -0.5666 -0.0165
 3956TIP3    H233428   2.591   1.283   7.188 -0.5519  0.6566 -1.4991
 3957TIP3   OH233429   5.232   6.283   8.191  0.5172 -0.2972  0.1102
 3957TIP3    H133430   5.255   6.277   8.099  0.8697  0.7484  0.1155
 3957TIP3    H233431   5.197   6.372   8.201  0.6370 -0.3409  1.0115
 3958TIP3   OH233432   5.851   0.002   8.531  0.5512  0.1230  0.4253
 3958TIP3    H133433   5.926  -0.056   8.539  1.3738  1.0905 -0.0253
 3958TIP3    H233434   5.857   0.038   8.442  0.1773  1.0210  0.7471
 3959TIP3   OH233435   4.410   5.634   0.111 -0.5370  0.2638 -0.2682
 3959TIP3    H133436   4.470   5.569   0.148 -1.1978 -0.7057 -0.8494
 3959TIP3    H233437   4.460   5.674   0.040 -0.1955  0.2432 -0.0437
 3960TIP3   OH233438   2.077   0.455   1.030  0.2261 -0.1388  0.3155
 3960TIP3    H133439   2.116   0.525   1.082 -1.1273  0.7185  0.2057
 3960TIP3    H233440   2.132   0.451   0.951  0.0206  1.1795  0.0757
 3961TIP3   OH233441   4.508   1.851   7.261  0.1319 -0.0093  0.4791
 3961TIP3    H133442   4.483   1.760   7.280  1.0382 -0.6309 -1.0750
 3961TIP3    H233443   4.560   1.845   7.181 -0.7375  2.0082 -0.3058
 3962TIP3   OH233444   3.751   0.722   0.053 -0.5198 -0.1767  0.0756
 3962TIP3    H133445   3.763   0.640   0.101 -0.7756 -1.0118 -1.2242
 3962TIP3    H233446   3.831   0.772   0.069 -0.2462 -0.7940  0.6666
 3963TIP3   OH233447   3.121   3.072   8.054  0.2875  0.0381 -0.3404
 3963TIP3    H133448   3.148   2.999   7.998  1.1452 -0.2743  0.4647
 3963TIP3    H233449   3.103   3.031   8.139 -2.2090  0.3079 -0.6617
 3964TIP3   OH233450   5.994   4.004   1.398 -0.1662  0.0486  0.2641
 3964TIP3    H133451   6.033   4.089   1.417 -0.4012  0.8545 -2.4377
 3964TIP3    H233452   6.067   3.950   1.368 -0.1878 -0.3808  0.9685
 3965TIP3   OH233453   1.396   4.576   0.767 -1.0549 -0.4435  0.2453
 3965TIP3    H133454   1.452   4.561   0.691 -1.1443  0.5423 -0.0274
 3965TIP3    H233455   1.321   4.520   0.753 -1.0659 -0.2762 -0.3957
 3966TIP3   OH233456   0.763   1.709   0.242 -0.4996  0.2275 -0.1939
 3966TIP3    H133457   0.844   1.694   0.290 -2.5161 -1.4598  3.0582
 3966TIP3    H233458   0.760   1.803   0.227  2.8411  0.1492 -2.1514
 3967TIP3   OH233459   1.271   1.141   0.904 -0.1085 -0.3527 -0.5244
 3967TIP3    H133460   1.360   1.163   0.929 -0.3363  0.0266 -0.0035
 3967TIP3    H233461   1.246   1.209   0.841 -0.4693  0.3330  0.3283
 3968TIP3   OH233462   0.867   1.324   7.177  0.1263  0.4241 -0.9158
 3968TIP3    H133463   0.844   1.393   7.240  1.2500 -0.7775  0.9324
 3968TIP3    H233464   0.945   1.282   7.215  0.3485 -0.9178 -2.7116
 3969TIP3   OH233465   0.968   3.965   7.035  0.9771 -0.5158  0.2683
 3969TIP3    H133466   0.965   3.875   7.069  0.9750 -1.4640 -2.0437
 3969TIP3    H233467   0.877   3.992   7.032  0.3477 -2.3898 -3.5503
 3970TIP3   OH233468   2.861   2.120   0.091 -0.0317 -0.1167 -0.3052
 3970TIP3    H133469   2.781   2.096   0.138 -0.2452 -1.4636 -1.2837
 3970TIP3    H233470   2.905   2.036   0.075 -0.6269  0.0542 -3.5764
 3971TIP3   OH233471   5.050   2.295   6.934  0.0407 -0.8343  0.1969
 3971TIP3    H133472   5.127   2.344   6.962  0.2668 -1.4553  0.6942
 3971TIP3    H233473   4.976   2.347   6.965  0.2018  0.3701 -1.2939
 3972TIP3   OH233474   0.814   2.798   2.082  0.6007  0.1344 -0.1969
 3972TIP3    H133475   0.721   2.779   2.095  0.7287 -0.2688  0.1928
 3972TIP3    H233476   0.821   2.893   2.092  0.5054 -0.0216  1.7185
 3973TIP3   OH233477   5.180   5.279   7.013 -0.4394 -0.1495  0.1173
 3973TIP3    H133478   5.091   5.306   7.034 -0.4125  2.6438 -2.5738
 3973TIP3    H233479   5.229   5.361   7.004  1.6649 -1.4470 -1.3126
 3974TIP3   OH233480   3.109   5.244   0.504  0.3792 -0.2545 -0.0874
 3974TIP3    H133481   3.103   5.191   0.425  0.0086 -1.0811  0.4802
 3974TIP3    H233482   3.185   5.211   0.551  0.2283 -0.1986  0.2037
 3975TIP3   OH233483   1.472   6.498   1.271  0.5128  0.8370 -0.1166
 3975TIP3    H133484   1.450   6.567   1.334  0.7132  0.1242  0.7596
 3975TIP3    H233485   1.555   6.463   1.303  0.6031  0.4387 -0.7703
 3976TIP3   OH233486   6.372   1.915   0.441  0.7762  0.1427  0.1220
 3976TIP3    H133487   6.416   1.831   0.429 -0.0528 -0.2455 -0.2863
 3976TIP3    H233488   6.401   1.968   0.366  0.7766 -0.0167  0.0090
 3977TIP3   OH233489   3.368   3.916   8.791 -0.1581  0.1012 -0.1217
 3977TIP3    H133490   3.412   3.862   8.856  0.1463  1.5016  0.8876
 3977TIP3    H233491   3.312   3.974   8.842  0.8556  1.9421 -0.9773
 3978TIP3   OH233492   2.682   2.617   8.643 -0.1299  0.2562  0.0951
 3978TIP3    H133493   2.731   2.551   8.593  0.0974  1.1113 -0.8479
 3978TIP3    H233494   2.677   2.692   8.584 -2.3308  0.3137  0.2805
 3979TIP3   OH233495   5.167   2.762   6.835  0.1056  0.0573 -0.2943
 3979TIP3    H133496   5.146   2.770   6.928  1.7628 -0.8443  0.2110
 3979TIP3    H233497   5.239   2.699   6.832 -0.7388 -0.9348 -2.3174
 3980TIP3   OH233498   0.429   4.639   6.387 -0.4573 -0.5236 -0.4053
 3980TIP3    H133499   0.362   4.609   6.448 -0.8807  1.7593  0.3790
 3980TIP3    H233500   0.438   4.733   6.405  0.8090 -0.1413 -2.5445
 3981TIP3   OH233501   4.229   0.123   1.117 -0.5062 -0.2794 -0.1783
 3981TIP3    H133502   4.317   0.097   1.144 -1.0764 -2.3717 -0.1945
 3981TIP3    H233503   4.178   0.122   1.198 -0.8590 -0.6348 -0.4000
 3982TIP3   OH233504   6.100   1.486   6.600 -0.5345 -0.3806 -0.2118
 3982TIP3    H133505   6.079   1.453   6.687 -1.0529 -2.8405 -1.1893
 3982TIP3    H233506   6.191   1.461   6.586 -0.2574  0.5651 -0.1617
 3983TIP3   OH233507   6.660   1.564   8.336 -0.1657  0.3845  0.4540
 3983TIP3    H133508   6.603   1.570   8.259 -0.8636  0.2987  0.9575
 3983TIP3    H233509   6.714   1.487   8.320 -0.2532  0.4100  0.0164
 3984TIP3   OH233510   1.613   0.389   8.765  0.1031  0.2173 -0.5216
 3984TIP3    H133511   1.624   0.391   8.670  1.9975  2.9175 -0.3664
 3984TIP3    H233512   1.667   0.316   8.795  2.6843  1.6916 -1.3137
 3985TIP3   OH233513   3.585   1.138   1.624 -0.1089  0.3008  0.1288
 3985TIP3    H133514   3.593   1.180   1.538  0.1116  1.5868  0.7445
 3985TIP3    H233515   3.519   1.190   1.669 -0.8678 -0.9023  0.4528
 3986TIP3   OH233516   2.559   3.459   0.920  0.3236  0.0848  0.3023
 3986TIP3    H133517   2.518   3.408   0.989 -1.4593  2.6226  1.2517
 3986TIP3    H233518   2.573   3.545   0.958  0.5514  1.1951 -2.0870
 3987TIP3   OH233519   1.752   5.892   0.306  0.2027 -0.3068  0.0465
 3987TIP3    H133520   1.690   5.945   0.356  0.1859  0.7186 -1.0341
 3987TIP3    H233521   1.820   5.868   0.369 -1.0807 -1.1419  1.1597
 3988TIP3   OH233522   4.694   0.454   0.711  0.5835 -0.1319  0.4366
 3988TIP3    H133523   4.673   0.391   0.642  2.2275  1.2066 -1.4300
 3988TIP3    H233524   4.724   0.402   0.784 -1.4096 -1.6320  0.2691
 3989TIP3   OH233525   0.501   6.533   0.620  0.1915 -0.4881 -0.0462
 3989TIP3    H133526   0.444   6.464   0.585 -0.4627  0.7330 -1.5519
 3989TIP3    H233527   0.456   6.564   0.699  0.1391 -1.3101  0.2482
 3990TIP3   OH233528   6.266   4.318   6.652 -0.2704  0.3628  0.4820
 3990TIP3    H133529   6.208   4.394   6.661  0.9639  1.3941 -0.0333
 3990TIP3    H233530   6.251   4.286   6.563 -0.0846  0.5977  0.3664
 3991TIP3   OH233531   2.383   0.961   7.134 -0.5319  0.3211  0.5155
 3991TIP3    H133532   2.325   0.944   7.208 -1.0464  2.0066  0.5220
 3991TIP3    H233533   2.376   1.055   7.118 -0.5555  0.0004 -1.7609
 3992TIP3   OH233534   5.286   0.209   1.421  0.2552 -0.5301  0.5133
 3992TIP3    H133535   5.204   0.178   1.382 -0.4891  0.4598  1.2589
 3992TIP3    H233536   5.321   0.132   1.466 -0.1220 -1.0293 -0.0258
 3993TIP3   OH233537   1.397   6.602   8.641  0.1970  0.1084  0.0088
 3993TIP3    H133538   1.491   6.615   8.624 -0.1112 -0.5701 -2.7646
 3993TIP3    H233539   1.355   6.629   8.559 -2.0077 -0.0420  1.0372
 3994TIP3   OH233540   3.361   6.357   7.094  0.2651 -0.3483 -0.4854
 3994TIP3    H133541   3.315   6.423   7.146 -1.8106 -2.0747  0.0160
 3994TIP3    H233542   3.312   6.353   7.012  0.3928 -1.1896 -0.5284
 3995TIP3   OH233543   5.423   3.311   7.536  0.3191 -0.4709 -0.0182
 3995TIP3    H133544   5.407   3.400   7.566 -1.0127 -1.0989  1.3029
 3995TIP3    H233545   5.516   3.296   7.550 -0.0687 -0.5055  3.4652
 3996TIP3   OH233546   1.709   1.531   7.948  0.7224  0.1447 -0.0153
 3996TIP3    H133547   1.634   1.591   7.947  0.6185  0.1378  2.6343
 3996TIP3    H233548   1.786   1.588   7.951  0.7689  0.1233 -0.5530
 3997TIP3   OH233549   3.021   5.433   7.843 -0.3235  0.0935 -0.1991
 3997TIP3    H133550   2.970   5.352   7.841 -0.4907  0.1796  0.2930
 3997TIP3    H233551   3.015   5.462   7.934  0.2516  0.3325 -0.2349
 3998TIP3   OH233552   1.259   2.160   8.595 -0.2563  0.0120 -0.0207
 3998TIP3    H133553   1.247   2.066   8.585  2.6948 -0.3456 -1.1855
 3998TIP3    H233554   1.223   2.198   8.515  0.0853 -0.2900 -0.3166
 3999TIP3   OH233555   6.553   0.577   5.881 -0.0161 -0.1114 -0.5375
 3999TIP3    H133556   6.623   0.546   5.938 -0.4558 -0.3972 -0.1417
 3999TIP3    H233557   6.591   0.650   5.834 -0.4155  1.9865  2.1310
 4000TIP3   OH233558   4.389   2.841   0.555 -0.3079  0.2101 -0.2912
 4000TIP3    H133559   4.328   2.768   0.557 -0.1320 -0.0071 -1.6269
 4000TIP3    H233560   4.361   2.894   0.480  0.5810  0.5939 -0.3680
 4001TIP3   OH233561   4.317   6.702   6.836 -0.0144  0.2520  0.0464
 4001TIP3    H133562   4.255   6.756   6.886 -2.9759 -2.1257 -0.7422
 4001TIP3    H233563   4.287   6.709   6.746  1.0121 -0.8659 -0.3981
 4002TIP3   OH233564   3.062   0.099   0.131  0.2683  0.1894  0.0592
 4002TIP3    H133565   3.002   0.173   0.128  1.8139  1.4460 -1.6563
 4002TIP3    H233566   3.125   0.116   0.062  1.5756 -1.9805  0.6255
 4003TIP3   OH233567   3.061   6.082   1.015 -0.1607  0.0563  0.0687
 4003TIP3    H133568   3.059   6.105   1.108 -1.6199  0.1124  0.0488
 4003TIP3    H233569   3.153   6.085   0.991  0.4278 -1.5898  1.9164
 4004TIP3   OH233570   6.153   1.301   7.535  0.1674  0.1212  0.1881
 4004TIP3    H133571   6.189   1.215   7.516 -0.3275  0.0057 -0.2816
 4004TIP3    H233572   6.228   1.360   7.533  0.5611 -0.3478  0.8817
 4005TIP3   OH233573   0.760   1.961   6.275 -0.0824 -0.0731 -0.4303
 4005TIP3    H133574   0.739   1.867   6.271 -1.4755  0.2625 -2.2980
 4005TIP3    H233575   0.674   2.004   6.270  0.6554  1.3176 -1.7159
 4006TIP3   OH233576   3.246   5.501   7.720  0.0397  0.3062  0.2923
 4006TIP3    H133577   3.247   5.451   7.639 -1.4993 -0.5852  0.7826
 4006TIP3    H233578   3.185   5.454   7.777 -2.4829  3.3178  0.3891
 4007TIP3   OH233579   2.379   6.435   7.554  0.6381 -0.2731  0.1238
 4007TIP3    H133580   2.339   6.375   7.617  0.9226 -0.1239  0.4529
 4007TIP3    H233581   2.345   6.521   7.579 -1.0993 -0.4687 -1.3852
 4008TIP3   OH233582   1.754   0.428   6.699  0.1438 -0.7845 -0.2904
 4008TIP3    H133583   1.820   0.409   6.632  0.8243 -0.1351  0.1746
 4008TIP3    H233584   1.670   0.412   6.656  0.5615 -0.2040 -1.3548
 4009TIP3   OH233585   4.689   5.450   8.099 -0.3145  0.1290  0.0286
 4009TIP3    H133586   4.620   5.515   8.103  1.0186  1.6255 -0.2805
 4009TIP3    H233587   4.729   5.451   8.186  0.2477  0.3358 -0.2306
 4010TIP3   OH233588   6.490   0.573   6.589  0.3086 -0.5667 -0.5212
 4010TIP3    H133589   6.403   0.597   6.555 -0.0803  0.0623  0.8669
 4010TIP3    H233590   6.521   0.507   6.527 -1.2531 -0.9820 -0.9285
 4011TIP3   OH233591   2.256   0.455   7.769 -0.3297  0.1397  0.1676
 4011TIP3    H133592   2.290   0.375   7.729 -1.7692 -0.2599 -0.3220
 4011TIP3    H233593   2.303   0.462   7.852  0.1177 -0.9891  0.0262
 4012TIP3   OH233594   0.460   6.671   0.296  0.5932  0.1649 -0.2441
 4012TIP3    H133595   0.502   6.599   0.248 -0.5895 -1.4032  0.9522
 4012TIP3    H233596   0.385   6.696   0.241 -0.4564 -1.2778  0.4456
 4013TIP3   OH233597   6.201   4.554   1.163  0.5874 -0.0242  0.4403
 4013TIP3    H133598   6.121   4.538   1.114  0.8068 -0.7764  0.3059
 4013TIP3    H233599   6.184   4.634   1.212  0.3267  0.6882 -0.7755
 4014TIP3   OH233600   2.415   1.819   1.955 -0.4659 -0.4434 -0.5239
 4014TIP3    H133601   2.460   1.862   2.027  0.2345 -0.3680 -0.9967
 4014TIP3    H233602   2.374   1.742   1.995 -1.6085  0.5510  0.2918
 4015TIP3   OH233603   6.427   2.946   6.790 -0.2719 -0.5924  0.0460
 4015TIP3    H133604   6.371   2.871   6.772  0.6599 -1.2115 -0.3416
 4015TIP3    H233605   6.495   2.912   6.848  0.4814 -0.1941 -0.5897
 4016TIP3   OH233606   5.576   3.490   1.989  0.0606 -0.4426 -0.0625
 4016TIP3    H133607   5.664   3.529   1.984 -0.2401  0.8400  2.7386
 4016TIP3    H233608   5.579   3.433   2.066 -1.1665 -1.6194 -0.8354
 4017TIP3   OH233609   3.030   3.984   6.543  0.7790  0.5712  0.1206
 4017TIP3    H133610   3.072   3.986   6.629  2.6086  1.3834 -0.7338
 4017TIP3    H233611   3.103   3.987   6.481 -0.3758 -1.9984 -1.5232
 4018TIP3   OH233612   3.347   6.029   7.175 -0.5025 -0.5563  0.2641
 4018TIP3    H133613   3.398   5.992   7.248 -1.3969 -0.2155  1.0880
 4018TIP3    H233614   3.273   6.072   7.217 -0.5923  0.3933 -0.8109
 4019TIP3   OH233615   0.220   5.214   7.098 -0.0210  0.4902  0.4144
 4019TIP3    H133616   0.310   5.243   7.083 -0.3525  0.9145 -0.8788
 4019TIP3    H233617   0.218   5.125   7.061  0.0487  0.1988  1.1017
 4020TIP3   OH233618   1.710   3.983   7.347 -0.2863 -0.2714  0.6095
 4020TIP3    H133619   1.705   4.077   7.366 -1.3464 -0.5802  2.0160
 4020TIP3    H233620   1.632   3.966   7.293  0.5354 -0.1575 -0.6615
 4021TIP3   OH233621   6.071   2.086   1.000 -0.4479  0.1120 -0.2240
 4021TIP3    H133622   5.991   2.137   0.988  0.1786  0.5501 -3.6849
 4021TIP3    H233623   6.051   2.000   0.963  0.8282  0.4958 -1.9651
 4022TIP3   OH233624   0.072   5.879   7.479 -0.0671  0.0378 -0.1307
 4022TIP3    H133625   0.034   5.802   7.523 -2.6952  0.4064 -1.5541
 4022TIP3    H233626   0.059   5.862   7.386  1.0955  1.3593 -0.5611
 4023TIP3   OH233627   5.494   0.297   6.162 -0.1313  0.2596  0.1138
 4023TIP3    H133628   5.475   0.352   6.238  0.7297 -0.6158  0.9913
 4023TIP3    H233629   5.589   0.282   6.166 -0.0920  0.0951 -1.0684
 4024TIP3   OH233630   1.341   3.710   7.143  0.1189  0.4037 -0.0835
 4024TIP3    H133631   1.278   3.706   7.071  0.6171 -1.6357 -0.4786
 4024TIP3    H233632   1.379   3.622   7.146  0.8876  0.7515  1.9928
 4025TIP3   OH233633   4.818   4.916   7.442  0.5249 -0.6308 -0.3537
 4025TIP3    H133634   4.761   4.866   7.383  1.1210 -1.6681 -0.0753
 4025TIP3    H233635   4.892   4.943   7.388  0.5297 -0.6192 -0.3413
 4026TIP3   OH233636   4.023   4.970   6.878 -0.6996  0.6447  0.3401
 4026TIP3    H133637   4.045   5.063   6.869 -1.0163  1.0023  2.6496
 4026TIP3    H233638   4.101   4.925   6.846  0.4465  1.7726  1.3984
 4027TIP3   OH233639   4.604   5.035   8.166  0.5151  0.1801  0.1578
 4027TIP3    H133640   4.662   5.056   8.093 -0.3050 -0.1764 -0.6205
 4027TIP3    H233641   4.545   5.110   8.172  0.5104  0.1580  0.3844
 4028TIP3   OH233642   1.578   5.366   0.580  1.0196  0.0132  0.3711
 4028TIP3    H133643   1.539   5.427   0.518 -1.3290 -0.3891  1.3503
 4028TIP3    H233644   1.672   5.370   0.562  0.7760  2.6119 -0.7303
 4029TIP3   OH233645   5.951   1.848   0.920 -0.1592 -0.3882 -0.0611
 4029TIP3    H133646   5.860   1.826   0.903  0.7180 -2.6049 -2.4702
 4029TIP3    H233647   5.971   1.805   1.003 -0.9817 -0.9365 -0.1347
 4030TIP3   OH233648   1.267   2.283   6.297  0.5310  0.7887  0.5731
 4030TIP3    H133649   1.362   2.285   6.288  0.4004  0.3145 -1.3873
 4030TIP3    H233650   1.242   2.374   6.311  1.1096  1.3515 -1.5961
 4031TIP3   OH233651   5.063   3.778   2.020  0.1489 -0.2458  0.1246
 4031TIP3    H133652   5.144   3.729   2.008  0.3296 -0.2253  1.1702
 4031TIP3    H233653   5.037   3.804   1.931  1.9220  0.7734 -0.1251
 4032TIP3   OH233654   5.792   3.619   0.930 -0.1740 -0.6804 -0.5676
 4032TIP3    H133655   5.721   3.593   0.989  0.5673 -3.0650 -0.6387
 4032TIP3    H233656   5.872   3.588   0.972  0.6239 -0.0725 -1.5845
 4033TIP3   OH233657   4.398   2.620   7.469 -0.2241  0.1523  0.5097
 4033TIP3    H133658   4.386   2.587   7.558 -0.9744  0.3138  0.4772
 4033TIP3    H233659   4.411   2.542   7.416  0.4647  0.0690  0.7913
 4034TIP3   OH233660   1.513   1.456   0.571 -0.4220 -0.0627  0.2307
 4034TIP3    H133661   1.499   1.462   0.477 -0.8717 -0.9591  0.2331
 4034TIP3    H233662   1.581   1.389   0.582 -1.1433 -0.7506  0.5883
 4035TIP3   OH233663   0.790   3.720   1.205  0.3370 -0.9180 -0.7120
 4035TIP3    H133664   0.736   3.724   1.126 -0.0069 -1.5704 -0.5148
 4035TIP3    H233665   0.844   3.799   1.201 -3.0064  1.6656  0.8403
 4036TIP3   OH233666   3.757   3.837   8.399  0.2759 -0.3145  0.2533
 4036TIP3    H133667   3.760   3.878   8.313  1.5961  0.3325  0.5805
 4036TIP3    H233668   3.755   3.743   8.381  0.0787 -0.1746 -0.4794
 4037TIP3   OH233669   1.802   5.931   7.017 -0.0338  0.0660 -0.3430
 4037TIP3    H133670   1.718   5.887   7.033  0.4516 -0.9344 -0.5033
 4037TIP3    H233671   1.842   5.881   6.947  1.3984 -0.4369  0.7900
 4038TIP3   OH233672   1.479   1.171   7.003  0.1895 -0.5368 -0.2984
 4038TIP3    H133673   1.454   1.230   6.932 -2.3606  1.1047  1.7618
 4038TIP3    H233674   1.480   1.084   6.963 -0.9642  0.3368 -2.3937
 4039TIP3   OH233675   2.042   2.004   6.681  0.5531  0.2173  0.6303
 4039TIP3    H133676   2.025   1.952   6.603 -1.1719 -0.5858  1.4571
 4039TIP3    H233677   2.087   2.082   6.650 -0.2856  0.0228 -1.1921
 4040TIP3   OH233678   6.284   6.361   6.505  0.2665  0.4746 -0.6297
 4040TIP3    H133679   6.291   6.267   6.487 -3.3980  0.1156 -1.0484
 4040TIP3    H233680   6.240   6.365   6.589  1.6522  1.9076  0.0673
 4041TIP3   OH233681   1.245   2.570   8.277 -0.1835 -0.2344 -0.0435
 4041TIP3    H133682   1.194   2.536   8.204 -1.0938 -1.9767  1.3249
 4041TIP3    H233683   1.227   2.664   8.278 -1.2965 -0.4131 -1.1694
 4042TIP3   OH233684   2.423   2.230   0.316 -0.3614 -0.3966  0.3810
 4042TIP3    H133685   2.485   2.254   0.247 -1.5679  0.5503 -0.4089
 4042TIP3    H233686   2.425   2.305   0.376 -0.8242 -0.3091  0.2867
 4043TIP3   OH233687   6.021   4.441   8.011 -0.1226  0.2211 -0.1602
 4043TIP3    H133688   5.999   4.504   7.942  1.5344  0.0962 -0.8478
 4043TIP3    H233689   6.019   4.493   8.092  0.9163  1.1257 -0.6791
 4044TIP3   OH233690   6.763   0.853   0.560 -0.6951 -0.4719  0.1875
 4044TIP3    H133691   6.838   0.798   0.583 -0.0391 -0.4797 -1.7997
 4044TIP3    H233692   6.791   0.942   0.581  0.0715 -0.4289 -0.9205
 4045TIP3   OH233693   1.679   2.900   0.794  0.4899 -0.3351  0.9159
 4045TIP3    H133694   1.725   2.962   0.737  1.5363 -0.4781  1.5952
 4045TIP3    H233695   1.648   2.832   0.734 -2.1230  1.5893 -0.1280
 4046TIP3   OH233696   0.744   1.849   1.222  0.8065  0.2534 -0.9382
 4046TIP3    H133697   0.830   1.840   1.263  0.8132 -1.2209 -1.1998
 4046TIP3    H233698   0.730   1.943   1.216  1.2006  0.5501  1.5750
 4047TIP3   OH233699   2.427   2.977   8.438 -0.7790  0.1925 -0.3495
 4047TIP3    H133700   2.405   3.021   8.520 -1.4648 -0.0153 -0.4206
 4047TIP3    H233701   2.460   3.047   8.381 -1.3832  0.5277 -0.2861
 4048TIP3   OH233702   5.857   5.474   6.387  0.3478  0.3777 -0.6284
 4048TIP3    H133703   5.767   5.502   6.405  0.5524  0.0915  1.0876
 4048TIP3    H233704   5.877   5.510   6.301 -1.1268  1.1325 -0.6933
 4049TIP3   OH233705   1.070   4.019   6.785  0.2955  0.7360 -0.1260
 4049TIP3    H133706   0.989   4.003   6.737 -0.8166  0.4588  1.7354
 4049TIP3    H233707   1.044   4.018   6.877  2.4427  0.5385  0.5400
 4050TIP3   OH233708   1.133   4.310   7.025 -0.1577  0.1567  0.2395
 4050TIP3    H133709   1.129   4.216   7.039 -1.7196  0.1525 -0.0532
 4050TIP3    H233710   1.094   4.348   7.104 -1.0154  0.4873 -0.3346
 4051TIP3   OH233711   0.382   1.818   6.270 -0.1554  0.2865 -0.5475
 4051TIP3    H133712   0.435   1.875   6.325  1.4399 -0.3335 -1.4021
 4051TIP3    H233713   0.351   1.874   6.199  1.1539  0.1890 -1.2154
 4052TIP3   OH233714   2.110   1.963   7.475 -0.1678 -0.0586  0.6308
 4052TIP3    H133715   2.172   1.946   7.404 -0.7866  0.4238 -0.0393
 4052TIP3    H233716   2.070   2.046   7.452 -0.1559  0.2641  1.7214
 4053TIP3   OH233717   2.138   3.259   7.077 -0.3233 -0.1101 -0.3908
 4053TIP3    H133718   2.123   3.353   7.089  0.1406  0.1268 -1.5832
 4053TIP3    H233719   2.051   3.223   7.059 -0.5146  0.0668  0.1479
 4054TIP3   OH233720   4.485   0.113   0.067 -0.2832 -0.0108  0.3766
 4054TIP3    H133721   4.394   0.102   0.040  0.0787  0.3734 -1.0572
 4054TIP3    H233722   4.536   0.070  -0.002  0.6506  0.1762  0.9307
 4055TIP3   OH233723   1.455   2.992   6.562 -0.1133 -0.3480 -0.2175
 4055TIP3    H133724   1.418   3.043   6.634  0.5213  0.7312 -0.6423
 4055TIP3    H233725   1.527   2.944   6.601  0.4420  0.4912 -0.1862
 4056TIP3   OH233726   2.536   2.426   7.889  0.0368 -0.8863 -0.1939
 4056TIP3    H133727   2.551   2.511   7.846  1.0019 -1.2248 -0.5437
 4056TIP3    H233728   2.445   2.430   7.918  0.5900  1.0164  1.4678
 4057TIP3   OH233729   2.685   3.566   0.174  0.0266 -0.1714  0.0096
 4057TIP3    H133730   2.686   3.583   0.268  1.0957 -1.2993  0.2296
 4057TIP3    H233731   2.714   3.649   0.135  0.8851 -0.0905  0.7734
 4058TIP3   OH233732   1.123   3.719   6.945  0.7987 -0.0754  0.0691
 4058TIP3    H133733   1.082   3.784   6.888  0.8277  0.8473  1.0865
 4058TIP3    H233734   1.146   3.647   6.886 -0.6757  0.1421 -0.8040
 4059TIP3   OH233735   4.090   1.748   1.284 -0.1804 -0.1997 -0.2090
 4059TIP3    H133736   4.028   1.816   1.312 -0.1400 -0.6360  0.9682
 4059TIP3    H233737   4.036   1.684   1.238 -0.6999 -0.7617  1.1265
 4060TIP3   OH233738   2.762   6.518   7.897 -0.0071 -0.3508 -0.1019
 4060TIP3    H133739   2.784   6.611   7.895 -0.5475 -0.1761  1.3606
 4060TIP3    H233740   2.837   6.475   7.856  0.3690  0.6950 -0.5494
 4061TIP3   OH233741   0.607   0.459   8.539 -0.1768  0.0681 -0.3419
 4061TIP3    H133742   0.514   0.458   8.562 -0.2875  0.9502 -0.6792
 4061TIP3    H233743   0.647   0.393   8.595 -0.8977  0.1653  0.3011
 4062TIP3   OH233744   5.920   3.910   6.938 -0.1956  0.5732  0.2073
 4062TIP3    H133745   5.972   3.920   7.018  1.0775  1.9230 -0.7336
 4062TIP3    H233746   5.981   3.873   6.874 -1.5434 -1.7471  0.1485
 4063TIP3   OH233747   6.345   3.144   0.198  0.8684 -0.6854  0.5101
 4063TIP3    H133748   6.396   3.095   0.263 -1.9519  0.1186  3.6191
 4063TIP3    H233749   6.256   3.110   0.208 -0.2358  1.6798 -0.7016
 4064TIP3   OH233750   1.247   2.560   8.577  0.1968  0.0822  0.2848
 4064TIP3    H133751   1.253   2.573   8.482  1.2013 -2.1728 -0.0029
 4064TIP3    H233752   1.326   2.513   8.600  0.2866  1.1661  2.3962
 4065TIP3   OH233753   4.450   6.736   6.280 -0.4057 -0.3438 -0.2853
 4065TIP3    H133754   4.358   6.750   6.301 -0.4407  0.4600 -0.9310
 4065TIP3    H233755   4.482   6.680   6.351 -0.8345  1.2341  1.2463
 4066TIP3   OH233756   1.273   6.404   0.951  0.2432  0.2900 -0.1465
 4066TIP3    H133757   1.236   6.425   0.865  3.1156  1.1771 -1.2984
 4066TIP3    H233758   1.320   6.484   0.976  0.4999 -0.3909  1.6691
 4067TIP3   OH233759   3.159   0.668   1.156  0.0927 -0.8783 -0.0258
 4067TIP3    H133760   3.180   0.725   1.082  0.4147 -1.3915 -0.3297
 4067TIP3    H233761   3.210   0.704   1.229 -0.7573  0.0541  0.1409
 4068TIP3   OH233762   2.150   3.708   1.517 -0.0592 -0.1660 -0.2479
 4068TIP3    H133763   2.179   3.621   1.541 -2.9250 -1.6412 -1.6447
 4068TIP3    H233764   2.079   3.728   1.578 -1.1387  0.0357 -1.5125
 4069TIP3   OH233765   1.378   6.174   7.027  0.7988  0.3220 -0.2436
 4069TIP3    H133766   1.357   6.141   6.939 -1.2896  0.1043  0.3058
 4069TIP3    H233767   1.469   6.148   7.040  0.4581 -1.6661 -1.4505
 4070TIP3   OH233768   5.389   2.351   1.204 -0.0854 -0.0549 -0.0888
 4070TIP3    H133769   5.316   2.413   1.197  0.7545  1.8563  4.3767
 4070TIP3    H233770   5.351   2.272   1.240 -0.3637 -0.1604 -0.6097
 4071TIP3   OH233771   1.508   3.464   2.068  0.2108  0.8134 -0.0029
 4071TIP3    H133772   1.434   3.513   2.102  0.0913  0.3179  0.4556
 4071TIP3    H233773   1.585   3.516   2.094  0.1612  0.1764  1.5168
 4072TIP3   OH233774   0.058   1.131   0.502 -0.3156  0.2559  0.0047
 4072TIP3    H133775   0.127   1.162   0.443  0.0921 -2.6843 -1.2327
 4072TIP3    H233776  -0.009   1.093   0.444 -1.6805  0.5898  1.3028
 4073TIP3   OH233777   3.439   1.363   8.497  0.1558 -0.1712 -0.2158
 4073TIP3    H133778   3.436   1.350   8.592  0.0083  1.7645  0.0783
 4073TIP3    H233779   3.507   1.302   8.467  0.5276 -0.4835  1.1902
 4074TIP3   OH233780   0.155   5.276   1.866 -0.8125  0.5636  0.5588
 4074TIP3    H133781   0.227   5.308   1.812  0.8845 -1.9787  1.1565
 4074TIP3    H233782   0.148   5.340   1.937 -1.3159  2.5206 -1.1515
 4075TIP3   OH233783   5.892   1.948   2.394 -1.1543  0.2308  0.0532
 4075TIP3    H133784   5.910   1.879   2.331  1.9545 -0.3776  1.4043
 4075TIP3    H233785   5.883   2.027   2.341 -0.4574 -0.5438 -1.2744
 4076TIP3   OH233786   2.425   5.590   0.343 -0.0601 -0.5610  0.4400
 4076TIP3    H133787   2.474   5.666   0.375 -0.0137  0.3017 -1.5137
 4076TIP3    H233788   2.474   5.562   0.265 -2.1128 -0.2187 -1.0513
 4077TIP3   OH233789   0.527   6.060   8.640 -0.3891  0.0695 -0.2080
 4077TIP3    H133790   0.597   6.052   8.705  0.8555 -0.2163 -1.5249
 4077TIP3    H233791   0.463   6.119   8.679  1.0088  1.0259  0.6959
 4078TIP3   OH233792   3.395   2.507   6.478 -0.6690 -0.2300 -0.2866
 4078TIP3    H133793   3.336   2.509   6.403 -3.3944  0.6755  1.6862
 4078TIP3    H233794   3.397   2.597   6.510  0.3790 -0.5923  0.7354
 4079TIP3   OH233795   3.908   2.529   7.456 -0.0864  0.2204 -0.6141
 4079TIP3    H133796   3.891   2.515   7.549 -0.3182  0.8056 -0.5656
 4079TIP3    H233797   3.982   2.590   7.454  1.2069 -1.3067 -0.8215
 4080TIP3   OH233798   2.998   5.766   0.082  0.1794 -0.1690  0.1618
 4080TIP3    H133799   2.965   5.767  -0.007 -1.1678  1.7783  0.6316
 4080TIP3    H233800   2.972   5.680   0.116 -2.6229  0.4604 -0.1676
 4081TIP3   OH233801   3.220   5.102   1.622 -0.3255  0.2203 -0.4028
 4081TIP3    H133802   3.187   5.080   1.535 -0.1064  2.8795 -1.2648
 4081TIP3    H233803   3.314   5.090   1.615 -0.5558 -3.0878  0.6893
 4082TIP3   OH233804   3.456   5.884   0.056  0.4007 -0.3743  0.0837
 4082TIP3    H133805   3.455   5.816   0.123 -0.7771  1.7600  2.4249
 4082TIP3    H233806   3.365   5.914   0.051  1.2113  2.7396  1.1640
 4083TIP3   OH233807   6.159   3.374   7.253 -0.5644  0.0236 -0.6236
 4083TIP3    H133808   6.134   3.282   7.265  2.8651 -0.8518  1.6119
 4083TIP3    H233809   6.144   3.414   7.338  0.5303  0.7580 -0.7534
 4084TIP3   OH233810   5.804   5.141   0.777  0.4160  0.4318 -0.3333
 4084TIP3    H133811   5.770   5.053   0.759 -0.3380  0.6021  0.1752
 4084TIP3    H233812   5.844   5.169   0.695  0.6615 -0.3820 -0.5041
 4085TIP3   OH233813   4.648   0.927   1.478 -0.0898 -0.0990 -0.0600
 4085TIP3    H133814   4.657   1.001   1.419 -0.0699 -0.0155  0.0465
 4085TIP3    H233815   4.693   0.955   1.558  1.1277 -0.7520 -0.4953
 4086TIP3   OH233816   6.770   4.027   7.203 -0.3607  0.0423 -0.1223
 4086TIP3    H133817   6.768   4.116   7.169  2.2265  0.0220 -0.5534
 4086TIP3    H233818   6.728   4.034   7.289 -0.1100  1.7007 -0.0897
 4087TIP3   OH233819   1.308   5.335   0.299  0.3205 -0.0161  0.2214
 4087TIP3    H133820   1.403   5.338   0.283  0.2800 -1.1260 -0.3468
 4087TIP3    H233821   1.295   5.393   0.374  1.5700 -0.4462  0.8129
 4088TIP3   OH233822   2.675   5.084   0.693  0.6581 -0.1704 -0.1535
 4088TIP3    H133823   2.691   5.177   0.711  1.5348 -0.7046  2.1509
 4088TIP3    H233824   2.758   5.052   0.659  0.2588 -0.0755 -1.2571
 4089TIP3   OH233825   2.385   2.484   0.403 -0.3679  0.2964  0.4076
 4089TIP3    H133826   2.459   2.528   0.446 -0.7465  2.7792 -1.2636
 4089TIP3    H233827   2.311   2.543   0.418 -0.8824  0.3670 -2.1010
 4090TIP3   OH233828   0.531   2.104   6.339  0.4792 -0.0711  0.1431
 4090TIP3    H133829   0.544   2.134   6.429 -1.1599  1.2778 -0.0093
 4090TIP3    H233830   0.541   2.183   6.286 -0.5785 -0.4378 -0.6421
 4091TIP3   OH233831   3.319   4.267   7.396 -0.1717  0.6195  0.4862
 4091TIP3    H133832   3.341   4.207   7.324  1.2222  1.8774 -0.1941
 4091TIP3    H233833   3.267   4.336   7.355  0.5144  1.2697  0.6974
 4092TIP3   OH233834   6.190   6.465   6.751  0.4436  0.0357  0.3397
 4092TIP3    H133835   6.280   6.487   6.727  0.9528 -0.7046  1.4444
 4092TIP3    H233836   6.171   6.522   6.826 -0.4125  0.9539 -0.5505
 4093TIP3   OH233837   5.978   1.085   0.698 -0.7694  0.8038  0.1563
 4093TIP3    H133838   5.970   1.052   0.788  2.4607  1.9646  0.9951
 4093TIP3    H233839   5.889   1.111   0.675 -2.3286 -2.5580  1.7139
 4094TIP3   OH233840   6.619   0.393   0.868 -0.4462 -0.5119 -0.2177
 4094TIP3    H133841   6.542   0.337   0.875 -1.2954  0.4051 -1.6659
 4094TIP3    H233842   6.587   0.481   0.889  0.4561 -0.2777  0.2458
 4095TIP3   OH233843   1.174   0.925   7.262  0.2404 -0.2785  0.5464
 4095TIP3    H133844   1.184   0.889   7.174  1.0348  0.6383  0.2435
 4095TIP3    H233845   1.163   0.849   7.319  2.5381 -1.0649  0.0211
 4096TIP3   OH233846   5.200   5.893   8.717  0.2363 -0.0687 -0.3876
 4096TIP3    H133847   5.235   5.831   8.781  0.7485  0.4195 -0.1759
 4096TIP3    H233848   5.276   5.946   8.691 -0.0493  0.0079 -1.0919
 4097TIP3   OH233849   4.848   3.073   1.510 -0.0179 -0.2288  0.4633
 4097TIP3    H133850   4.847   3.076   1.414  0.8636  0.2890  0.4637
 4097TIP3    H233851   4.761   3.106   1.535  0.7061  2.4271 -0.1312
 4098TIP3   OH233852   6.202   0.770   5.832  0.4582  0.1251  0.4414
 4098TIP3    H133853   6.223   0.712   5.759  0.3373 -0.9347  1.2249
 4098TIP3    H233854   6.121   0.814   5.805  0.2194 -0.5185  0.0805
 4099TIP3   OH233855   0.574   4.905   6.343  0.8696 -0.2168  0.0312
 4099TIP3    H133856   0.541   4.892   6.254  2.8181  0.1954 -0.7856
 4099TIP3    H233857   0.661   4.942   6.332  1.4897 -0.8993  2.1130
 4100TIP3   OH233858   0.414   3.751   1.482 -0.1620  0.6096  0.3905
 4100TIP3    H133859   0.381   3.721   1.567 -0.1627  1.4951  0.7129
 4100TIP3    H233860   0.412   3.673   1.427  1.1431 -0.3061  1.5850
 4101TIP3   OH233861   0.202   1.978   0.390  0.0499 -0.1761 -0.0972
 4101TIP3    H133862   0.258   1.988   0.467 -0.9715  0.6875  0.5528
 4101TIP3    H233863   0.139   1.910   0.414  0.6226 -0.9532 -0.7282
 4102TIP3   OH233864   4.859   1.821   7.600 -0.3784  0.2096 -0.4622
 4102TIP3    H133865   4.766   1.821   7.579  0.0104  0.1652 -2.3050
 4102TIP3    H233866   4.900   1.772   7.528  0.7696 -2.3907  1.7645
 4103TIP3   OH233867   6.393   1.891   7.782 -0.8407 -0.1116 -0.0374
 4103TIP3    H133868   6.345   1.952   7.727  3.4666 -0.3227 -4.6803
 4103TIP3    H233869   6.447   1.946   7.838 -1.2085  0.2123  0.0009
 4104TIP3   OH233870   2.414   3.333   1.138 -0.1365 -0.0671 -0.1004
 4104TIP3    H133871   2.404   3.240   1.159  0.5540  0.1089  1.0325
 4104TIP3    H233872   2.324   3.363   1.123 -0.3392 -0.9928 -0.8842
 4105TIP3   OH233873   5.883   0.847   7.997  0.0548 -0.1132  0.3357
 4105TIP3    H133874   5.844   0.913   7.940  0.1391 -0.1828  0.1958
 4105TIP3    H233875   5.976   0.870   8.000  0.0245 -0.0212  0.5660
 4106TIP3   OH233876   5.601   1.744   1.210  0.4122  0.4724  0.0631
 4106TIP3    H133877   5.547   1.672   1.178  0.8011  0.5622 -0.8075
 4106TIP3    H233878   5.681   1.740   1.158  0.7256  1.1181  0.4784
 4107TIP3   OH233879   1.044   0.064   7.327  0.5954  0.1077 -0.0766
 4107TIP3    H133880   1.117   0.032   7.381  1.8519 -1.6058 -2.6351
 4107TIP3    H233881   1.079   0.068   7.239 -1.9724  0.8658 -1.1478
 4108TIP3   OH233882   5.376   2.783   1.786 -0.1949  0.5647 -0.4335
 4108TIP3    H133883   5.295   2.833   1.797 -0.3619 -0.0261  1.3379
 4108TIP3    H233884   5.348   2.692   1.785  0.0930  0.3754 -3.7805
 4109TIP3   OH233885   2.554   2.836   8.106 -0.4369  0.1952  0.9093
 4109TIP3    H133886   2.615   2.764   8.092 -1.2165 -0.2037 -0.7350
 4109TIP3    H233887   2.607   2.915   8.101 -0.0303 -0.1380 -0.6447
 4110TIP3   OH233888   5.120   5.251   8.383  0.1796 -0.2740  0.0164
 4110TIP3    H133889   5.090   5.340   8.399 -2.3923 -1.0912  0.2683
 4110TIP3    H233890   5.058   5.196   8.431  0.7800 -2.2581 -1.3454
 4111TIP3   OH233891   3.995   1.016   1.531  0.9021 -0.6549  0.2738
 4111TIP3    H133892   3.928   1.030   1.463  1.0505  0.7432  0.3936
 4111TIP3    H233893   3.997   0.921   1.542 -1.3905 -0.7431  0.5725
 4112TIP3   OH233894   4.126   2.205   6.847 -0.2592 -0.0002 -0.0078
 4112TIP3    H133895   4.053   2.147   6.867 -0.9844  0.3072 -1.6226
 4112TIP3    H233896   4.093   2.263   6.778  0.5178  2.1515  1.2984
 4113TIP3   OH233897   0.955   6.423   8.108 -0.1892 -0.0338 -0.0291
 4113TIP3    H133898   1.001   6.368   8.044  0.0781 -1.1647  1.1012
 4113TIP3    H233899   0.862   6.405   8.092 -0.1349 -0.0695 -0.3114
 4114TIP3   OH233900   4.600   0.784   1.922  0.0506  0.4420  0.3107
 4114TIP3    H133901   4.659   0.841   1.873  0.1026  0.3845  0.3065
 4114TIP3    H233902   4.623   0.695   1.894 -1.0571  0.4982 -0.8349
 4115TIP3   OH233903   2.526   2.479   1.492  0.0992  0.1100  0.4568
 4115TIP3    H133904   2.592   2.548   1.503  0.4738 -0.1158 -0.2896
 4115TIP3    H233905   2.491   2.465   1.580  0.4833  0.7929  0.7262
 4116TIP3   OH233906   3.679   2.323   7.545  0.0191 -0.2772  0.2349
 4116TIP3    H133907   3.726   2.241   7.534  1.4952  0.3313  1.5676
 4116TIP3    H233908   3.718   2.383   7.482  0.2595 -0.0926  0.5527
 4117TIP3   OH233909   4.188   2.513   7.099 -0.4690 -0.3190  0.0954
 4117TIP3    H133910   4.282   2.496   7.088 -0.2186  1.2379 -0.4024
 4117TIP3    H233911   4.164   2.462   7.176  1.3534  1.1316  1.7593
 4118TIP3   OH233912   6.741   2.612   1.627 -0.1768  0.1228 -0.0403
 4118TIP3    H133913   6.760   2.622   1.721 -0.4505  0.9131 -0.0614
 4118TIP3    H233914   6.657   2.656   1.615  0.2747  0.7874 -0.8228
 4119TIP3   OH233915   2.248   2.880   0.422 -0.4251 -0.2029  0.3087
 4119TIP3    H133916   2.225   2.790   0.444 -1.4897  0.4028  1.8079
 4119TIP3    H233917   2.166   2.928   0.427  0.4850  1.2888  1.9157
 4120TIP3   OH233918   4.366   1.265   7.842 -0.3361 -0.2915 -0.6555
 4120TIP3    H133919   4.290   1.230   7.796 -0.4017  0.7963 -1.4480
 4120TIP3    H233920   4.341   1.267   7.934 -1.5117  0.5701 -0.9609
 4121TIP3   OH233921   2.421   1.675   0.619  0.3427  0.1339 -0.4871
 4121TIP3    H133922   2.463   1.650   0.701  3.5213  0.3452 -1.9279
 4121TIP3    H233923   2.366   1.601   0.596  1.2248 -0.9120  0.6621
 4122TIP3   OH233924   2.848   2.410   7.922 -0.2380 -0.2903 -0.4010
 4122TIP3    H133925   2.774   2.398   7.862 -2.1028  1.2513  1.4181
 4122TIP3    H233926   2.865   2.323   7.957 -1.1796 -0.6850 -0.8806
 4123TIP3   OH233927   3.325   0.719   1.404 -0.4741  0.0668  0.2015
 4123TIP3    H133928   3.345   0.799   1.453  1.8638 -0.3891  0.1232
 4123TIP3    H233929   3.324   0.650   1.471  0.8554 -0.2800 -0.0994
 4124TIP3   OH233930   4.356   4.649   7.445  0.4829 -0.2280  0.0298
 4124TIP3    H133931   4.314   4.586   7.386 -1.4386 -1.6150  2.6474
 4124TIP3    H233932   4.422   4.598   7.492  2.6996  1.0923 -1.4527
 4125TIP3   OH233933   0.145   6.426   0.135  0.3052 -0.2704  0.4704
 4125TIP3    H133934   0.080   6.398   0.199  1.9236 -0.8347  1.9462
 4125TIP3    H233935   0.226   6.384   0.164  1.2086 -0.0758 -1.6516
 4126TIP3   OH233936   5.818   0.217   7.396 -0.0402 -0.0578  0.2322
 4126TIP3    H133937   5.840   0.137   7.349  1.2739  0.3569  0.0820
 4126TIP3    H233938   5.779   0.187   7.478  0.3578 -0.8463  0.1383
 4127TIP3   OH233939   2.988   0.197   8.626  0.0868  0.0112  0.1212
 4127TIP3    H133940   3.053   0.133   8.654  1.0412 -0.0212 -1.9903
 4127TIP3    H233941   3.039   0.277   8.612 -0.3015  0.0173 -1.4473
 4128TIP3   OH233942   5.500   2.879   5.927 -0.7904  0.6206  0.5186
 4128TIP3    H133943   5.503   2.969   5.893  0.2434 -0.6237 -3.2115
 4128TIP3    H233944   5.412   2.848   5.903  0.2850 -0.5865 -2.2058
 4129TIP3   OH233945   0.158   3.622   7.687  0.5022  0.3892  0.1123
 4129TIP3    H133946   0.120   3.544   7.728 -0.7215  1.8795  1.9927
 4129TIP3    H233947   0.147   3.608   7.593  1.9355 -2.4602  0.2714
 4130TIP3   OH233948   1.042   0.058   8.056 -0.0376  0.1743 -0.1879
 4130TIP3    H133949   1.011   0.069   8.146 -0.4337 -0.0097 -0.3029
 4130TIP3    H233950   0.989   0.119   8.005 -0.5265 -0.4611 -0.4528
 4131TIP3   OH233951   4.311   3.216   1.323  0.0353 -0.2733  0.9069
 4131TIP3    H133952   4.346   3.138   1.281 -1.5344 -0.9234  0.7657
 4131TIP3    H233953   4.323   3.201   1.417  1.7238  0.3102  0.8219
 4132TIP3   OH233954   5.024   5.704   1.895 -0.7780  0.7329  0.6870
 4132TIP3    H133955   4.985   5.792   1.900  1.1559  1.6429  0.6508
 4132TIP3    H233956   5.036   5.688   1.801 -0.8798  0.5454  0.7057
 4133TIP3   OH233957   2.311   2.849   7.991 -0.1702  0.6615  0.4739
 4133TIP3    H133958   2.401   2.847   8.025  0.1435  1.3445 -0.2730
 4133TIP3    H233959   2.256   2.846   8.069  0.5344  2.4440  1.1085
 4134TIP3   OH233960   6.733   4.675   8.463 -0.5188  0.0124  0.0337
 4134TIP3    H133961   6.687   4.604   8.416 -1.4334  2.2882 -2.8196
 4134TIP3    H233962   6.662   4.727   8.501 -0.0484  0.8813 -0.2598
 4135TIP3   OH233963   4.656   1.183   1.385  0.4484 -0.1154  0.3037
 4135TIP3    H133964   4.728   1.197   1.324  2.5639 -1.7098  2.2356
 4135TIP3    H233965   4.680   1.235   1.462 -0.2973 -0.9090  1.0880
 4136TIP3   OH233966   2.682   4.161   7.119  0.7109 -0.1547  0.9853
 4136TIP3    H133967   2.701   4.253   7.135 -1.4840  0.3118  1.1424
 4136TIP3    H233968   2.609   4.161   7.058  2.1157 -1.8546 -0.8204
 4137TIP3   OH233969   2.014   0.391   1.938 -0.4647  0.6993 -0.5745
 4137TIP3    H133970   2.008   0.361   1.847  0.3817 -0.2749 -0.3267
 4137TIP3    H233971   2.106   0.413   1.950 -0.4774  0.3867  0.1762
 4138TIP3   OH233972   4.835   2.055   0.470 -0.3269 -0.1645 -0.3104
 4138TIP3    H133973   4.907   2.008   0.430 -0.0632 -0.1391  0.1258
 4138TIP3    H233974   4.851   2.147   0.449 -1.2661 -0.3077 -1.8389
 4139TIP3   OH233975   1.671   3.363   8.592 -0.6455  0.2016 -0.2513
 4139TIP3    H133976   1.625   3.356   8.508  1.4634 -0.0830 -1.4533
 4139TIP3    H233977   1.654   3.280   8.636 -0.7554 -0.1664 -0.9670
 4140TIP3   OH233978   3.006   0.999   7.866 -0.2698 -0.7049 -0.2000
 4140TIP3    H133979   3.047   1.083   7.846  1.1155 -1.1854  0.4963
 4140TIP3    H233980   3.055   0.936   7.813 -2.2972 -0.9486 -1.9312
 4141TIP3   OH233981   4.900   3.119   6.858  0.6293 -0.5318 -0.6318
 4141TIP3    H133982   4.977   3.151   6.810  1.1799 -1.2123 -0.2187
 4141TIP3    H233983   4.857   3.058   6.798 -0.3075  0.7763 -1.3433
 4142TIP3   OH233984   6.331   1.837   6.546 -0.0121 -0.0271 -0.0463
 4142TIP3    H133985   6.366   1.920   6.579  3.1060 -1.0440 -0.5010
 4142TIP3    H233986   6.294   1.794   6.624  0.3588  0.8221  0.6127
 4143TIP3   OH233987   1.616   6.573   7.839  0.1767 -0.1444 -0.3652
 4143TIP3    H133988   1.623   6.538   7.750  2.6609  0.8602 -0.6711
 4143TIP3    H233989   1.601   6.667   7.827 -0.6066 -0.1697  0.3201
 4144TIP3   OH233990   3.661   2.968   2.106  0.0670 -0.0253 -0.0358
 4144TIP3    H133991   3.746   2.948   2.068 -0.2893 -0.1882 -0.7694
 4144TIP3    H233992   3.643   2.895   2.165  1.5580  1.2304  2.1209
 4145TIP3   OH233993   3.552   5.588   7.938  0.0053 -0.1125  0.2115
 4145TIP3    H133994   3.603   5.515   7.972 -0.3929 -0.4431  0.1035
 4145TIP3    H233995   3.461   5.566   7.958 -0.3478 -0.7864 -1.8607
 4146TIP3   OH233996   4.028   5.514   8.024 -0.9241 -0.0314  0.4092
 4146TIP3    H133997   4.093   5.444   8.024 -1.0926 -0.1853 -0.0904
 4146TIP3    H233998   4.067   5.584   7.972 -1.5164 -0.4551 -0.6146
 4147TIP3   OH233999   1.170   6.505   1.235 -0.0582  0.0641 -0.1990
 4147TIP3    H134000   1.238   6.478   1.174 -1.2562 -2.7112 -0.4921
 4147TIP3    H234001   1.211   6.499   1.322  0.3039 -0.8801 -0.4218
 4148TIP3   OH234002   4.323   4.621   6.193  0.4900 -0.7484 -0.5206
 4148TIP3    H134003   4.235   4.588   6.178  0.5240 -1.1000  0.0045
 4148TIP3    H234004   4.381   4.553   6.158  0.5535 -0.8125 -0.2955
 4149TIP3   OH234005   3.130   4.172   7.936  0.2289 -0.1468  0.3431
 4149TIP3    H134006   3.037   4.188   7.921  0.5864  0.7323 -1.1452
 4149TIP3    H234007   3.171   4.188   7.851  1.3763 -3.6350  0.1042
 4150TIP3   OH234008   1.567   3.692   1.471  0.5227  0.4962 -0.0774
 4150TIP3    H134009   1.547   3.598   1.474  0.6327  0.4878  0.4485
 4150TIP3    H234010   1.588   3.715   1.561  0.1443  1.1098 -0.1443
 4151TIP3   OH234011   4.390   3.613   6.474 -0.6317 -0.3051  0.2686
 4151TIP3    H134012   4.399   3.571   6.559  1.4283 -1.3374 -0.3911
 4151TIP3    H234013   4.298   3.602   6.451 -0.8558 -1.4937  1.6214
 4152TIP3   OH234014   1.646   3.862   6.005 -0.0877  0.1551 -0.5970
 4152TIP3    H134015   1.733   3.825   5.993 -0.0374 -0.0812  0.3685
 4152TIP3    H234016   1.606   3.860   5.918  0.6115 -0.3953 -0.9140
 4153TIP3   OH234017   5.191   4.601   1.008 -0.1759  0.5556 -0.2834
 4153TIP3    H134018   5.166   4.683   0.964  1.2135  0.4480 -1.3238
 4153TIP3    H234019   5.217   4.629   1.096  0.9374  1.3610 -0.8379
 4154TIP3   OH234020   2.907   3.859   1.293 -0.0887 -0.5670 -0.3128
 4154TIP3    H134021   2.820   3.895   1.311  0.1542  0.5116 -1.1219
 4154TIP3    H234022   2.891   3.769   1.266 -0.8165 -0.8225  0.9245
 4155TIP3   OH234023   2.928   5.029   0.619  0.0887  0.1641 -0.3811
 4155TIP3    H134024   3.001   5.027   0.681 -0.7135 -2.0717  0.5872
 4155TIP3    H234025   2.948   5.103   0.562  2.9205 -0.1219  0.0781
 4156TIP3   OH234026   1.696   5.605   0.480  0.0022 -0.2454  0.3110
 4156TIP3    H134027   1.696   5.650   0.565 -1.1057  0.7143 -0.1661
 4156TIP3    H234028   1.628   5.650   0.429  0.5316 -0.9063 -1.0333
 4157TIP3   OH234029   2.491   2.733   8.346 -0.5483 -0.1373 -0.1974
 4157TIP3    H134030   2.495   2.746   8.252 -0.1727 -0.3533 -0.2109
 4157TIP3    H234031   2.433   2.803   8.377 -0.6073 -0.0157 -0.5739
 4158TIP3   OH234032   3.599   1.419   0.384  0.3155 -0.2226 -0.2474
 4158TIP3    H134033   3.594   1.358   0.458  0.4990 -0.5498 -0.4991
 4158TIP3    H234034   3.590   1.363   0.307 -1.1519  0.2612 -0.4509
 4159TIP3   OH234035   1.206   1.265   8.482  0.0368 -0.3590 -0.1188
 4159TIP3    H134036   1.251   1.252   8.398  0.3496 -0.0271 -0.0005
 4159TIP3    H234037   1.139   1.196   8.483  1.6528 -1.9901  0.4816
 4160TIP3   OH234038   0.013   5.098   0.495  0.1074 -0.1535  0.0252
 4160TIP3    H134039  -0.041   5.082   0.572 -0.7927  0.4451 -0.4594
 4160TIP3    H234040   0.099   5.120   0.530  0.7832 -3.5032  0.7797
 4161TIP3   OH234041   0.996   0.946   7.534 -0.0843  0.6249 -0.1497
 4161TIP3    H134042   1.053   0.982   7.603  0.0272 -1.9756  1.2449
 4161TIP3    H234043   1.045   0.872   7.499 -1.7438 -0.3981 -0.3823
 4162TIP3   OH234044   2.364   3.635   8.804  0.1646  0.1194  0.2781
 4162TIP3    H134045   2.421   3.689   8.859  0.9846 -0.2705 -0.1677
 4162TIP3    H234046   2.277   3.645   8.842  0.2024  2.1247 -0.0598
 4163TIP3   OH234047   1.758   0.240   0.977  0.7848 -0.2816  0.2770
 4163TIP3    H134048   1.823   0.232   1.047  1.4202 -0.5189 -0.3277
 4163TIP3    H234049   1.683   0.189   1.008  0.8293  0.1027  1.0387
 4164TIP3   OH234050   6.390   0.451   6.074  0.2750  0.2770 -0.4944
 4164TIP3    H134051   6.450   0.378   6.059 -1.2626 -1.0684 -0.3227
 4164TIP3    H234052   6.417   0.518   6.010  1.3629 -0.6467 -1.0325
 4165TIP3   OH234053   4.155   5.687   0.208 -0.4394 -0.1594 -0.4141
 4165TIP3    H134054   4.234   5.674   0.156 -1.1845 -2.3993 -1.0900
 4165TIP3    H234055   4.181   5.749   0.276  1.3524  0.6227 -1.7266
 4166TIP3   OH234056   4.746   3.464   8.013  0.0795  0.2532  0.4969
 4166TIP3    H134057   4.745   3.558   7.994  0.8224 -0.1748 -2.1222
 4166TIP3    H234058   4.690   3.426   7.945  2.7599 -1.4802 -0.8901
 4167TIP3   OH234059   4.100   0.641   8.679 -0.4204  0.1312  0.5423
 4167TIP3    H134060   4.186   0.671   8.706 -0.1311 -0.3201  0.1498
 4167TIP3    H234061   4.060   0.605   8.758  0.2186 -0.7309  0.4766
 4168TIP3   OH234062   1.319   5.851   6.609 -0.3273 -0.1778  0.6164
 4168TIP3    H134063   1.306   5.929   6.555  1.6426 -0.8052 -0.8803
 4168TIP3    H234064   1.316   5.883   6.699  1.0200  1.7767  0.0293
 4169TIP3   OH234065   5.969   2.867   6.793  0.1366 -0.0792  0.5821
 4169TIP3    H134066   5.896   2.929   6.785  1.2016  1.2378  0.6188
 4169TIP3    H234067   6.009   2.888   6.877  0.1186 -1.3050  0.9172
 4170TIP3   OH234068   5.056   1.433   7.381  0.4489 -0.4175 -0.2371
 4170TIP3    H134069   5.145   1.398   7.394  0.5984  0.3473  0.9113
 4170TIP3    H234070   4.999   1.364   7.415  0.6672 -0.3359  0.3096
 4171TIP3   OH234071   1.131   5.422   6.487  0.0988 -0.2156  0.0586
 4171TIP3    H134072   1.194   5.371   6.537 -0.4155 -2.8831 -1.8044
 4171TIP3    H234073   1.046   5.399   6.524 -0.1054 -0.4100 -0.5179
 4172TIP3   OH234074   4.742   6.736   0.951 -0.3123  0.1119 -0.4162
 4172TIP3    H134075   4.724   6.642   0.961  0.2826 -0.0801 -1.1055
 4172TIP3    H234076   4.736   6.770   1.040  0.6767 -0.8045  0.0255
 4173TIP3   OH234077   5.000   4.123   7.276 -0.3320 -0.7188 -0.0242
 4173TIP3    H134078   4.938   4.179   7.323  0.9293  1.6050 -0.9709
 4173TIP3    H234079   4.960   4.111   7.190 -0.1200 -0.3834 -0.1712
 4174TIP3   OH234080   6.754   0.973   0.288 -0.5411  0.4270  0.1781
 4174TIP3    H134081   6.741   0.918   0.365 -0.1841  0.5731  0.3439
 4174TIP3    H234082   6.669   0.972   0.244 -0.1502 -1.4405 -0.6136
 4175TIP3   OH234083   2.725   1.745   1.687 -0.1214 -0.2229  0.1046
 4175TIP3    H134084   2.795   1.785   1.738  0.7857 -1.6586  0.0531
 4175TIP3    H234085   2.673   1.696   1.751 -0.7316  0.3485  0.0559
 4176TIP3   OH234086   4.925   5.328   7.108  0.0189  0.1435 -0.2579
 4176TIP3    H134087   4.961   5.311   7.195 -2.6512 -1.5752  0.6230
 4176TIP3    H234088   4.849   5.270   7.101 -0.9623  1.5609 -3.0300
 4177TIP3   OH234089   3.786   0.645   6.224 -0.2468 -0.6488 -0.1605
 4177TIP3    H134090   3.713   0.586   6.208 -1.7461  0.7956  1.0433
 4177TIP3    H234091   3.783   0.707   6.151 -0.9495  0.0684  0.4583
 4178TIP3   OH234092   1.764   2.789   8.230  0.1068 -0.2593 -0.4329
 4178TIP3    H134093   1.750   2.841   8.150  0.6445 -0.1594 -0.4697
 4178TIP3    H234094   1.682   2.743   8.244 -0.5638  0.9882 -0.1272
 4179TIP3   OH234095   5.397   0.461   1.470 -0.2460  0.7320 -0.4882
 4179TIP3    H134096   5.367   0.374   1.442 -2.1386  0.9061  0.8281
 4179TIP3    H234097   5.404   0.511   1.389  1.3691 -0.7456 -1.3360
 4180TIP3   OH234098   6.459   5.917   6.704 -0.4132 -0.2674  0.2981
 4180TIP3    H134099   6.506   5.992   6.669 -0.5520  0.1850  1.0649
 4180TIP3    H234100   6.475   5.919   6.799 -0.5245 -1.1249  0.3505
 4181TIP3   OH234101   5.359   0.038   6.074  0.3562 -0.2846  0.2412
 4181TIP3    H134102   5.431   0.005   6.128  0.0485 -0.0124  0.8318
 4181TIP3    H234103   5.311  -0.041   6.048  2.6472 -0.8264 -2.8574
 4182TIP3   OH234104   1.575   5.813   6.914  0.2282  0.4537  0.3207
 4182TIP3    H134105   1.584   5.881   6.848 -0.7599 -0.5822 -0.9523
 4182TIP3    H234106   1.561   5.733   6.863  1.3620 -0.7104  1.7640
 4183TIP3   OH234107   2.866   0.045   1.597 -0.4770 -0.3667 -0.6918
 4183TIP3    H134108   2.855  -0.047   1.620  0.5579 -0.4950 -0.6667
 4183TIP3    H234109   2.961   0.057   1.592 -0.6096 -0.0182 -3.5694
 4184TIP3   OH234110   2.575   4.924   0.903 -0.4676  0.0744  0.2307
 4184TIP3    H134111   2.624   4.968   0.834 -1.0592  0.9417  0.3434
 4184TIP3    H234112   2.519   4.861   0.857  2.8256 -3.2074  0.2537
 4185TIP3   OH234113   5.321   5.157   6.791  0.1176 -0.0363 -0.6707
 4185TIP3    H134114   5.315   5.208   6.872  0.8794 -1.5685  0.3984
 4185TIP3    H234115   5.252   5.092   6.798  0.7145 -0.7033 -0.8473
 4186TIP3   OH234116   4.137   6.351   0.053  0.2449  0.2425  0.3031
 4186TIP3    H134117   4.217   6.313   0.089  0.0517  1.3571  1.9804
 4186TIP3    H234118   4.071   6.339   0.121 -0.3664  1.6095 -0.0215
 4187TIP3   OH234119   1.057   6.640   0.393 -0.1288 -0.0934 -0.1106
 4187TIP3    H134120   1.004   6.576   0.440 -1.1473  1.3247  0.7769
 4187TIP3    H234121   1.015   6.648   0.307 -0.1303 -0.4565 -0.1423
 4188TIP3   OH234122   0.726   3.545   0.571  0.4410 -0.1063  0.5539
 4188TIP3    H134123   0.642   3.531   0.614  1.1434 -0.2497  1.9473
 4188TIP3    H234124   0.711   3.620   0.513 -1.2753 -1.6269 -1.1204
 4189TIP3   OH234125   0.768   4.447   6.868 -0.0089  0.4376  0.4009
 4189TIP3    H134126   0.679   4.423   6.842 -0.0995  1.5404 -0.3765
 4189TIP3    H234127   0.780   4.537   6.835  1.0546  0.6638  1.3217
 4190TIP3   OH234128   4.749   6.468   8.510  0.0896 -0.0200 -0.1967
 4190TIP3    H134129   4.779   6.397   8.567  0.0801 -0.2497 -0.4778
 4190TIP3    H234130   4.810   6.467   8.436 -0.0779  0.0869 -0.3362
 4191TIP3   OH234131   6.419   5.092   6.646  0.1462  0.0186 -0.0542
 4191TIP3    H134132   6.513   5.077   6.637  0.4361  1.5735  0.0808
 4191TIP3    H234133   6.409   5.187   6.639 -1.6490 -0.2416 -2.0603
 4192TIP3   OH234134   1.329   1.921   0.598  0.3329 -0.0009 -0.5488
 4192TIP3    H134135   1.346   1.849   0.536 -1.1381 -0.9558  0.0927
 4192TIP3    H234136   1.387   1.903   0.672 -0.2146 -0.7113 -0.2777
 4193TIP3   OH234137   6.681   0.524   6.130 -0.3019  0.3940  0.2431
 4193TIP3    H134138   6.637   0.564   6.205 -0.4715  1.4870 -0.4283
 4193TIP3    H234139   6.732   0.595   6.091 -1.1647  0.1700 -1.3990
 4194TIP3   OH234140   5.469   6.501   1.191 -0.2539 -0.1547 -0.2159
 4194TIP3    H134141   5.435   6.591   1.184 -1.1902 -0.3770  1.0650
 4194TIP3    H234142   5.505   6.495   1.279  0.3927 -0.8603 -0.5132
 4195TIP3   OH234143   2.768   5.813   6.349 -0.1130 -0.1358 -0.1656
 4195TIP3    H134144   2.853   5.770   6.340  1.0800  1.8448  0.8893
 4195TIP3    H234145   2.761   5.830   6.443 -2.7587 -2.2301  0.1365
 4196TIP3   OH234146   6.442   2.648   1.634 -0.4157  0.3371 -0.2365
 4196TIP3    H134147   6.432   2.564   1.678 -0.7109  0.0390 -0.8484
 4196TIP3    H234148   6.414   2.713   1.698 -1.0634 -0.1078 -0.0583
 4197TIP3   OH234149   6.313   2.980   1.213 -0.3037  0.0408 -0.5236
 4197TIP3    H134150   6.296   3.073   1.226 -0.0568  0.0137 -0.0014
 4197TIP3    H234151   6.230   2.937   1.232  0.1630 -0.0483  1.5497
 4198TIP3   OH234152   2.468   3.792   5.792 -0.0498 -0.2673 -0.4609
 4198TIP3    H134153   2.472   3.864   5.854  1.8124  0.8645 -1.7563
 4198TIP3    H234154   2.515   3.720   5.835 -0.1068 -0.0094  0.0339
 4199TIP3   OH234155   3.478   1.634   8.360 -0.0693  0.1320 -0.1984
 4199TIP3    H134156   3.443   1.599   8.442 -0.5189  1.8633  0.3859
 4199TIP3    H234157   3.567   1.598   8.356  0.2032  0.5224  1.3898
 4200TIP3   OH234158   5.373   3.102   7.278 -0.0200 -0.7673 -0.2371
 4200TIP3    H134159   5.343   3.175   7.332  1.8916  0.5819 -0.8528
 4200TIP3    H234160   5.432   3.143   7.215  0.0825 -2.6999 -1.4625
 4201TIP3   OH234161   4.293   4.150   6.900  0.4554 -0.3781 -0.2840
 4201TIP3    H134162   4.333   4.235   6.920  0.1557  0.2568 -2.1950
 4201TIP3    H234163   4.205   4.156   6.937  1.6355 -1.3807  2.9937
 4202TIP3   OH234164   2.722   2.518   7.666 -0.0972 -0.0827 -0.4331
 4202TIP3    H134165   2.685   2.596   7.709  0.0113  1.1507 -2.4805
 4202TIP3    H234166   2.736   2.544   7.575  1.1351 -2.1202 -0.8976
 4203TIP3   OH234167   4.514   5.451   6.395  0.0474  0.0653 -0.0482
 4203TIP3    H134168   4.461   5.438   6.317  2.8376 -0.6688 -1.9626
 4203TIP3    H234169   4.502   5.370   6.445 -1.5645  0.4395  0.2336
 4204TIP3   OH234170   5.713   4.655   0.093 -0.2903  0.7330  0.1862
 4204TIP3    H134171   5.693   4.671   0.186  2.3793 -1.6157  1.2995
 4204TIP3    H234172   5.714   4.560   0.085 -0.0801  0.8959 -2.2003
 4205TIP3   OH234173   3.411   1.100   6.789 -0.0568 -0.5650  0.0882
 4205TIP3    H134174   3.336   1.063   6.743 -0.7732  0.0201  0.7519
 4205TIP3    H234175   3.440   1.172   6.734  0.9038 -1.6458 -0.8592
 4206TIP3   OH234176   4.621   5.851   8.096 -0.0240 -0.4540  0.2286
 4206TIP3    H134177   4.552   5.910   8.127  0.0208 -0.1742 -0.1953
 4206TIP3    H234178   4.651   5.891   8.014 -0.1551 -1.1882 -0.1858
 4207TIP3   OH234179   2.861   1.110   0.045 -0.7079 -0.2408 -0.3201
 4207TIP3    H134180   2.841   1.203   0.040 -0.7500 -0.2968 -1.2476
 4207TIP3    H234181   2.944   1.105   0.092 -0.9607  0.2230  0.1936
 4208TIP3   OH234182   5.297   4.913   6.271 -0.1675 -0.3479 -0.0984
 4208TIP3    H134183   5.338   4.939   6.189 -0.8185  0.2069 -0.2560
 4208TIP3    H234184   5.238   4.985   6.292  0.6303 -0.0623  1.3162
 4209TIP3   OH234185   4.528   5.455   0.776 -0.6669  0.3043 -0.3083
 4209TIP3    H134186   4.585   5.387   0.810  1.0333  0.8708 -1.8677
 4209TIP3    H234187   4.441   5.433   0.809 -0.2220 -2.7440 -0.9518
 4210TIP3   OH234188   5.905   0.405   0.148  0.4547 -0.0885 -0.0112
 4210TIP3    H134189   5.832   0.386   0.089  1.0424  0.4168 -0.9219
 4210TIP3    H234190   5.877   0.482   0.198 -0.3944 -1.0246  1.0156
 4211TIP3   OH234191   4.542   1.248   0.412  0.4288  0.1861 -0.4710
 4211TIP3    H134192   4.579   1.272   0.327 -0.5339  0.4668 -0.8268
 4211TIP3    H234193   4.506   1.330   0.446  3.1056  0.6897  1.4485
 4212TIP3   OH234194   6.579   6.779   7.357  0.9131  0.1993  0.4899
 4212TIP3    H134195   6.665   6.739   7.343 -0.2754 -2.5884  0.6023
 4212TIP3    H234196   6.539   6.728   7.427 -0.7577  1.6241  0.6559
 4213TIP3   OH234197   1.911   0.355   6.471 -0.7293  0.2795  0.3588
 4213TIP3    H134198   1.941   0.274   6.428 -1.5916  1.6840 -3.3303
 4213TIP3    H234199   1.984   0.416   6.460 -1.4344  1.0291 -0.2391
 4214TIP3   OH234200   5.950   4.309   6.982  0.2004 -0.0990 -0.1265
 4214TIP3    H134201   5.950   4.251   6.905 -0.9908 -0.6790  0.2789
 4214TIP3    H234202   5.972   4.252   7.055  0.6572  0.3150  0.0610
 4215TIP3   OH234203   1.184   5.834   7.941  0.1695 -0.2936 -0.5783
 4215TIP3    H134204   1.118   5.859   7.876 -0.1456 -1.7423 -0.8467
 4215TIP3    H234205   1.225   5.756   7.905  3.2428  1.4396 -1.2096
 4216TIP3   OH234206   4.542   5.175   0.398 -0.4647 -0.2865  0.2968
 4216TIP3    H134207   4.466   5.222   0.433 -1.2628 -1.0824 -0.3120
 4216TIP3    H234208   4.527   5.172   0.304 -0.1228 -1.2166  0.2582
 4217TIP3   OH234209   2.771   3.279   7.232 -0.1994 -0.1423 -0.3286
 4217TIP3    H134210   2.832   3.285   7.158 -0.3666 -0.4127 -0.4900
 4217TIP3    H234211   2.686   3.303   7.195 -0.1434  0.5425 -0.0346
 4218TIP3   OH234212   4.437   3.698   7.894  0.3391  0.1690 -0.8424
 4218TIP3    H134213   4.439   3.767   7.827 -1.3756 -0.4740 -1.6029
 4218TIP3    H234214   4.523   3.704   7.936 -0.2706  3.9081  0.3179
 4219TIP3   OH234215   6.654   4.436   7.890 -0.5748 -0.4969  0.1355
 4219TIP3    H134216   6.741   4.437   7.851 -1.8768  1.0676 -3.0874
 4219TIP3    H234217   6.655   4.506   7.955  0.5068 -0.3643 -0.0173
 4220TIP3   OH234218   6.700   4.453   5.883  0.4994 -0.0034 -0.5743
 4220TIP3    H134219   6.762   4.429   5.814 -0.1475  0.7026 -1.4315
 4220TIP3    H234220   6.755   4.482   5.955  1.2198 -1.7577 -0.3696
 4221TIP3   OH234221   1.617   4.575   0.607 -0.5710  0.1763  0.2935
 4221TIP3    H134222   1.607   4.655   0.554  0.9039 -0.5751 -1.2227
 4221TIP3    H234223   1.709   4.575   0.632  0.1120 -2.2173 -1.8130
 4222TIP3   OH234224   6.537   1.657   2.041 -0.3232 -0.0689  0.2914
 4222TIP3    H134225   6.623   1.693   2.019 -1.0588  0.8545 -1.2445
 4222TIP3    H234226   6.545   1.630   2.133  1.4385  0.4707  0.3312
 4223TIP3   OH234227   3.816   6.668   6.725  0.2750  0.0769 -0.3144
 4223TIP3    H134228   3.880   6.662   6.797 -1.1631  0.6205  1.0713
 4223TIP3    H234229   3.805   6.577   6.696  2.0303  0.0334 -0.9335
 4224TIP3   OH234230   6.171   3.715   8.416  0.0590  0.3836  0.0340
 4224TIP3    H134231   6.176   3.644   8.480 -2.1683  1.2864  1.3260
 4224TIP3    H234232   6.177   3.795   8.468  3.0312  1.2689 -1.4443
 4225TIP3   OH234233   3.302   3.849   7.153 -0.8870  0.6565 -0.2016
 4225TIP3    H134234   3.329   3.827   7.063  0.3634 -0.2868  0.3674
 4225TIP3    H234235   3.237   3.782   7.175  0.3039 -0.3756  0.2823
 4226TIP3   OH234236   0.554   5.563   8.146  0.6897  0.5591 -0.2387
 4226TIP3    H134237   0.604   5.508   8.206  0.4102 -0.9347 -1.2927
 4226TIP3    H234238   0.592   5.650   8.155 -0.2628  0.7511  3.0895
 4227TIP3   OH234239   2.618   3.620   6.208 -0.1912  0.5477 -0.7334
 4227TIP3    H134240   2.652   3.693   6.157 -0.2700 -0.1115 -1.7620
 4227TIP3    H234241   2.654   3.542   6.165  1.1960 -0.0010  1.2790
 4228TIP3   OH234242   0.779   4.146   1.351  0.0939  0.0522  0.1458
 4228TIP3    H134243   0.710   4.084   1.374 -0.1635  0.4530  0.4921
 4228TIP3    H234244   0.731   4.227   1.331  0.2718 -0.3603 -2.1782
 4229TIP3   OH234245   5.896   3.855   8.361 -0.3163  0.3479  0.0824
 4229TIP3    H134246   5.940   3.911   8.297  0.0704 -0.0551 -0.0088
 4229TIP3    H234247   5.931   3.883   8.445 -1.3108  1.3253  0.1921
 4230TIP3   OH234248   0.586   3.505   1.013  0.1339  0.5622 -0.3811
 4230TIP3    H134249   0.520   3.486   0.947 -0.2735  0.8309 -0.0533
 4230TIP3    H234250   0.589   3.426   1.067 -0.5875  0.8987  0.1629
 4231TIP3   OH234251   4.011   1.430   8.809 -0.1780 -0.3438  0.0863
 4231TIP3    H134252   4.069   1.454   8.882 -1.2162 -0.1290  0.8751
 4231TIP3    H234253   4.041   1.344   8.781  0.6956 -0.1113  0.2847
 4232TIP3   OH234254   0.068   4.346   7.758 -0.2714 -0.1116  0.3852
 4232TIP3    H134255   0.047   4.400   7.681 -0.1110 -0.3743  0.1585
 4232TIP3    H234256   0.121   4.275   7.724  0.3766  0.1418  0.8435
 4233TIP3   OH234257   3.427   3.114   8.732  0.1281  0.0302 -0.5411
 4233TIP3    H134258   3.508   3.143   8.689  0.5583 -0.0029  0.2303
 4233TIP3    H234259   3.367   3.187   8.722  0.7994  0.7080  0.3138
 4234TIP3   OH234260   6.029   4.586   8.261 -0.0012  0.5603  0.0714
 4234TIP3    H134261   5.978   4.643   8.318 -1.3172  0.9380 -1.4228
 4234TIP3    H234262   6.118   4.621   8.265 -0.0492  0.6107  1.7930
 4235TIP3   OH234263   2.221   4.749   7.521 -0.3781 -0.0634  1.1291
 4235TIP3    H134264   2.280   4.804   7.470  0.0910 -0.7330  0.9389
 4235TIP3    H234265   2.229   4.662   7.481 -1.0730 -0.2831  1.4518
 4236TIP3   OH234266   1.198   5.517   1.003  0.4702  0.0954  0.3659
 4236TIP3    H134267   1.262   5.451   0.975  0.2654  1.0010 -2.5649
 4236TIP3    H234268   1.247   5.576   1.061  1.0266 -1.7191  1.8330
 4237TIP3   OH234269   5.688   2.649   0.918 -0.1731  0.1045 -0.4496
 4237TIP3    H134270   5.674   2.616   1.006  1.7177  0.0476 -0.1313
 4237TIP3    H234271   5.607   2.696   0.897 -0.7878 -0.1705  1.1644
 4238TIP3   OH234272   3.256   2.886   6.487  0.3252 -0.3208 -0.2337
 4238TIP3    H134273   3.280   2.947   6.417 -2.5871 -0.5825 -1.5856
 4238TIP3    H234274   3.303   2.919   6.564  1.4148  1.6719 -1.6584
 4239TIP3   OH234275   4.730   5.561   1.402 -0.0214  0.0216 -0.8282
 4239TIP3    H134276   4.680   5.510   1.466  0.1160  0.8330 -0.0423
 4239TIP3    H234277   4.664   5.593   1.340 -0.1685 -0.7066 -1.0537
 4240TIP3   OH234278   4.986   3.621   5.839 -0.1888  0.5553 -0.0353
 4240TIP3    H134279   4.929   3.639   5.914  0.0221  2.1411 -0.2159
 4240TIP3    H234280   5.064   3.674   5.855  1.2658 -1.5179  0.1780
 4241TIP3   OH234281   6.636   4.037   7.465  0.0744  0.1913  0.2602
 4241TIP3    H134282   6.631   4.040   7.561 -0.2556 -2.0370  0.3526
 4241TIP3    H234283   6.563   3.981   7.438 -0.0104  1.0022 -1.3398
 4242TIP3   OH234284   4.391   2.329   1.144  0.1850  0.9173 -0.2598
 4242TIP3    H134285   4.309   2.342   1.192  0.5981  0.3395  0.6295
 4242TIP3    H234286   4.439   2.265   1.196  0.3929 -0.1970 -1.7729
 4243TIP3   OH234287   0.704   5.915   0.963  0.1292 -0.2539  0.3019
 4243TIP3    H134288   0.627   5.937   1.015 -0.9060  1.5655 -1.8166
 4243TIP3    H234289   0.767   5.984   0.984  0.6187 -0.8657  0.8794
 4244TIP3   OH234290   4.334   0.722   8.806 -0.6456 -0.2719  0.0484
 4244TIP3    H134291   4.396   0.793   8.787  0.7654 -1.3905  0.3524
 4244TIP3    H234292   4.350   0.700   8.897  0.6095 -2.5031 -0.6312
 4245TIP3   OH234293   4.401   2.542   0.810  0.1008 -0.2604  0.2347
 4245TIP3    H134294   4.338   2.479   0.775 -1.4422  1.3814 -0.0312
 4245TIP3    H234295   4.380   2.549   0.903  0.9790 -0.9057  0.5006
 4246TIP3   OH234296   5.890   0.842   8.529  0.3718  0.2683 -0.2359
 4246TIP3    H134297   5.892   0.800   8.443 -1.6713  1.4840 -0.9461
 4246TIP3    H234298   5.870   0.771   8.590  1.3916 -0.5316 -0.7987
 4247TIP3   OH234299   5.095   3.068   7.182 -0.0458  0.4288  0.2018
 4247TIP3    H134300   5.190   3.071   7.189  0.4023  2.1607 -3.5253
 4247TIP3    H234301   5.074   2.975   7.174  1.6842  0.1002 -1.2412
 4248TIP3   OH234302   0.057   2.204   0.570  0.0768 -0.3456  0.8802
 4248TIP3    H134303   0.040   2.185   0.663  0.3841  0.2644  1.0628
 4248TIP3    H234304  -0.027   2.190   0.527 -0.5951  1.3415  1.5726
 4249TIP3   OH234305   5.925   3.859   7.817  0.1875 -0.9119 -0.1003
 4249TIP3    H134306   5.999   3.802   7.798  1.2998  0.9804 -1.7349
 4249TIP3    H234307   5.912   3.852   7.912  1.8575 -1.9555  0.0753
 4250TIP3   OH234308   1.996   6.091   0.478  0.7371 -0.1469 -0.6510
 4250TIP3    H134309   2.078   6.126   0.444  0.9039  0.3254  0.2243
 4250TIP3    H234310   1.929   6.153   0.447  0.9161  0.4109  0.0577
 4251TIP3   OH234311   1.385   0.890   6.911 -0.3817 -0.7014  0.9697
 4251TIP3    H134312   1.325   0.816   6.918 -1.8545  0.2687 -0.6781
 4251TIP3    H234313   1.426   0.880   6.825 -0.2312  0.1318  0.9334
 4252TIP3   OH234314   1.060   1.096   8.807 -0.6992  0.0509 -0.2961
 4252TIP3    H134315   1.034   1.167   8.748 -1.3562 -0.3628 -0.5148
 4252TIP3    H234316   1.109   1.139   8.877 -0.0767  0.5730 -1.0429
 4253TIP3   OH234317   1.288   0.999   1.510 -0.2031  0.1679  0.6140
 4253TIP3    H134318   1.252   0.978   1.596 -1.0382  1.2858  0.5587
 4253TIP3    H234319   1.355   0.932   1.495  1.7204  1.3661  3.2129
 4254TIP3   OH234320   2.594   4.737   6.960  0.0221 -0.1477  0.2500
 4254TIP3    H134321   2.505   4.727   6.927 -0.2788  1.9794  0.3093
 4254TIP3    H234322   2.592   4.694   7.046 -0.4287 -1.6643 -0.4899
 4255TIP3   OH234323   0.279   3.108   8.495  0.5515 -0.4518 -0.0500
 4255TIP3    H134324   0.333   3.170   8.543 -1.0404  0.0514  1.1904
 4255TIP3    H234325   0.311   3.113   8.405  1.0130  1.5912  0.1681
 4256TIP3   OH234326   3.277   4.149   1.823 -0.0658  0.0211 -0.0202
 4256TIP3    H134327   3.270   4.057   1.847 -2.7252 -0.2678 -1.5101
 4256TIP3    H234328   3.325   4.149   1.740 -0.7059 -0.1107 -0.3943
 4257TIP3   OH234329   5.487   4.966   8.289 -0.5013  0.8534 -0.4697
 4257TIP3    H134330   5.416   4.929   8.237  0.3285  1.7797 -2.3622
 4257TIP3    H234331   5.462   5.057   8.303 -0.1227  0.9408 -0.3543
 4258TIP3   OH234332   4.486   3.623   1.148 -0.2799  0.2272 -0.3497
 4258TIP3    H134333   4.503   3.533   1.176 -1.0556  0.1437 -0.1070
 4258TIP3    H234334   4.477   3.617   1.053  1.9939  0.4484 -0.6381
 4259TIP3   OH234335   6.306   4.911   6.255 -0.2248  0.1584 -0.4851
 4259TIP3    H134336   6.230   4.960   6.224 -1.0910 -1.1607 -0.5147
 4259TIP3    H234337   6.341   4.868   6.178 -0.8449 -1.0794 -0.0923
 4260TIP3   OH234338   2.695   3.659   0.416 -0.6642 -0.1406  0.0079
 4260TIP3    H134339   2.758   3.606   0.466  0.2243 -1.0141 -1.9184
 4260TIP3    H234340   2.703   3.747   0.452  0.7887 -0.4972  0.6291
 4261TIP3   OH234341   0.107   0.386   5.733 -0.0930 -0.3655  0.0357
 4261TIP3    H134342   0.077   0.452   5.671  0.6702  0.4772  0.5428
 4261TIP3    H234343   0.084   0.302   5.692 -1.8451  0.2115 -0.2227
 4262TIP3   OH234344   0.725   3.867   0.014 -0.0202 -0.5387  0.2055
 4262TIP3    H134345   0.770   3.874  -0.070  0.5273  1.5676  0.6168
 4262TIP3    H234346   0.766   3.933   0.069 -1.0090 -1.2271  1.8514
 4263TIP3   OH234347   5.064   5.492   6.612 -0.0437  0.1789 -0.0827
 4263TIP3    H134348   5.153   5.485   6.577  1.2224 -2.6426  3.0555
 4263TIP3    H234349   5.025   5.407   6.592 -1.3949  0.7189  0.1951
 4264TIP3   OH234350   2.412   5.861   6.959 -0.1245  0.9025 -0.3068
 4264TIP3    H134351   2.378   5.912   6.886  1.4655  1.0157 -1.0225
 4264TIP3    H234352   2.336   5.818   6.997 -0.8246 -0.6251 -3.1829
 4265TIP3   OH234353   3.501   4.825   6.672  0.3574  0.5625 -0.8701
 4265TIP3    H134354   3.587   4.787   6.653 -0.2325 -2.0114  1.1199
 4265TIP3    H234355   3.518   4.919   6.680  3.4108 -0.0328  1.2987
 4266TIP3   OH234356   4.792   6.770   0.298 -0.5252  0.2361 -0.5500
 4266TIP3    H134357   4.868   6.791   0.243 -0.3929  1.2809  0.0123
 4266TIP3    H234358   4.730   6.729   0.238 -0.2603  1.0816 -1.4317
 4267TIP3   OH234359   5.279   0.621   8.454  0.4104  0.7268 -0.7556
 4267TIP3    H134360   5.361   0.651   8.492 -0.6098  3.0790 -0.2058
 4267TIP3    H234361   5.229   0.585   8.528  1.6540 -2.7814 -1.4192
 4268TIP3   OH234362   0.957   3.289   7.656 -0.0305 -0.2038  0.2217
 4268TIP3    H134363   0.935   3.265   7.566  0.0219 -2.9585  0.8466
 4268TIP3    H234364   1.052   3.295   7.658 -0.0837  1.0831 -0.1304
 4269TIP3   OH234365   6.474   1.319   0.215 -0.2966  0.4340 -0.0065
 4269TIP3    H134366   6.527   1.374   0.157  1.7595 -1.1318  0.2781
 4269TIP3    H234367   6.520   1.319   0.298 -1.0456 -0.5570  0.4300
 4270TIP3   OH234368   3.353   1.013   0.538 -0.3589 -0.1823  0.0502
 4270TIP3    H134369   3.375   1.021   0.631  0.2732 -0.8797 -0.0329
 4270TIP3    H234370   3.436   1.023   0.493 -0.7245  0.6074 -0.4823
 4271TIP3   OH234371   1.240   1.692   7.702  0.5634  0.1709  0.0976
 4271TIP3    H134372   1.290   1.634   7.760 -1.0263 -0.2508  1.0941
 4271TIP3    H234373   1.164   1.639   7.676  0.5320  0.8505 -1.2551
 4272TIP3   OH234374   5.694   5.742   7.963 -0.4105  0.4533 -0.0688
 4272TIP3    H134375   5.696   5.831   7.998  0.5510 -0.0787  1.3649
 4272TIP3    H234376   5.602   5.726   7.941 -0.7402  1.4814  0.5102
 4273TIP3   OH234377   5.482   5.450   0.321 -0.0823 -0.4580  0.4680
 4273TIP3    H134378   5.408   5.493   0.365 -0.6718 -0.2052 -0.7221
 4273TIP3    H234379   5.516   5.388   0.386 -0.4028  0.4665  1.5535
 4274TIP3   OH234380   6.243   5.980   8.762  0.0702 -0.4118  0.1843
 4274TIP3    H134381   6.255   5.886   8.752  2.8958 -0.1933  0.7888
 4274TIP3    H234382   6.283   6.018   8.683  0.1469  0.3376  0.5727
 4275TIP3   OH234383   0.866   0.510   0.565  0.1356  0.3418 -0.0431
 4275TIP3    H134384   0.950   0.482   0.528  0.8746  0.1234  1.6948
 4275TIP3    H234385   0.888   0.583   0.622 -0.5438 -0.8129  1.7938
 4276TIP3   OH234386   2.414   5.745   1.321  0.1568  0.4162  0.6712
 4276TIP3    H134387   2.493   5.739   1.268 -0.9553  1.5193 -1.2453
 4276TIP3    H234388   2.383   5.654   1.327  0.2123  0.2637 -0.8102
 4277TIP3   OH234389   3.431   5.314   0.841 -0.2916  0.4597 -0.6594
 4277TIP3    H134390   3.476   5.289   0.760  0.5283 -1.0611  0.2099
 4277TIP3    H234391   3.480   5.389   0.874  0.2339  0.2213 -0.8809
 4278TIP3   OH234392   2.724   2.162   7.101  0.0939  0.7905 -0.1595
 4278TIP3    H134393   2.689   2.211   7.174  1.4449 -0.5443  1.4726
 4278TIP3    H234394   2.818   2.154   7.120  0.1090 -1.4476 -0.8833
 4279TIP3   OH234395   2.932   3.373   8.416  0.2194 -0.7595  0.3095
 4279TIP3    H134396   2.974   3.458   8.425 -2.5606  0.6404  1.3184
 4279TIP3    H234397   2.952   3.345   8.326 -1.8682  2.8179 -1.4883
 4280TIP3   OH234398   2.864   6.772   7.918  0.2267  0.3076  0.0898
 4280TIP3    H134399   2.841   6.863   7.940 -0.1509 -0.0639  1.3091
 4280TIP3    H234400   2.959   6.770   7.920  0.2518  0.7904 -0.4238
 4281TIP3   OH234401   6.155   5.113   7.588  0.0761  0.4394 -0.0500
 4281TIP3    H134402   6.073   5.160   7.599 -0.1988  0.1213 -0.6697
 4281TIP3    H234403   6.152   5.044   7.654 -0.4416  0.0514 -0.4650
 4282TIP3   OH234404   3.961   2.965   7.879 -0.0948  0.2741 -0.5802
 4282TIP3    H134405   4.006   2.896   7.832  1.7887  0.4646  0.8318
 4282TIP3    H234406   4.006   3.046   7.854  0.0734  0.5346  0.5120
 4283TIP3   OH234407   5.614   5.676   1.983  0.1591  0.1158  0.5051
 4283TIP3    H134408   5.639   5.718   2.065 -0.5379  1.1453  0.2179
 4283TIP3    H234409   5.519   5.672   1.987  0.2253 -2.9365  1.2068
 4284TIP3   OH234410   1.911   3.558   8.301  0.2013 -0.1318  0.8404
 4284TIP3    H134411   2.005   3.565   8.284  0.1397  2.2404  1.0890
 4284TIP3    H234412   1.904   3.553   8.397  0.0724 -0.0078  0.8382
 4285TIP3   OH234413   3.097   4.615   7.504  0.1885 -0.5753  0.1289
 4285TIP3    H134414   3.129   4.595   7.592  0.9267 -1.3936 -0.2982
 4285TIP3    H234415   3.115   4.708   7.492 -0.8168 -0.2199  1.1858
 4286TIP3   OH234416   6.293   0.523   8.541  0.1020  0.1036 -0.1730
 4286TIP3    H134417   6.254   0.437   8.530  1.2232 -0.3975 -0.4248
 4286TIP3    H234418   6.317   0.528   8.633  2.2766 -0.9058 -0.6043
 4287TIP3   OH234419   3.163   0.795   7.089  0.5415  0.1269 -0.1048
 4287TIP3    H134420   3.212   0.793   7.006  1.5407  0.8775  0.4435
 4287TIP3    H234421   3.227   0.772   7.155 -0.0747  0.2471  0.5431
 4288TIP3   OH234422   5.899   2.851   8.122  0.5960  0.0749  0.2520
 4288TIP3    H134423   5.990   2.842   8.094  0.6235  0.1305  0.3229
 4288TIP3    H234424   5.853   2.779   8.079  0.5726  0.3688 -0.2273
 4289TIP3   OH234425   5.167   1.113   6.455 -0.0867 -0.4739  0.1150
 4289TIP3    H134426   5.223   1.190   6.442 -1.2410  0.2043 -1.1727
 4289TIP3    H234427   5.078   1.149   6.454 -0.5913 -1.5832  1.6125
 4290TIP3   OH234428   1.062   3.035   0.637 -0.3490 -0.6479  0.2220
 4290TIP3    H134429   1.142   3.067   0.595 -0.3839 -0.4767  0.2832
 4290TIP3    H234430   1.017   3.115   0.666 -0.3804 -0.7593  0.4839
 4291TIP3   OH234431   0.897   4.993   7.718  0.7370 -0.2291  0.8106
 4291TIP3    H134432   0.925   5.031   7.802  0.2823  0.7879  0.5199
 4291TIP3    H234433   0.931   4.904   7.720  0.9615 -0.1420  1.9679
 4292TIP3   OH234434   2.193   2.798   8.266  0.4374 -0.5859  0.3306
 4292TIP3    H134435   2.160   2.868   8.323 -0.1994 -0.7162  0.1361
 4292TIP3    H234436   2.165   2.718   8.309 -0.9954 -0.6743 -0.6920
 4293TIP3   OH234437   2.894   0.385   8.170  0.2977 -0.0992  0.3208
 4293TIP3    H134438   2.886   0.350   8.259 -1.6940  1.5555  0.8782
 4293TIP3    H234439   2.970   0.444   8.175  0.8119 -0.7704  0.6274
 4294TIP3   OH234440   1.433   0.572   1.468  0.4823 -0.2643 -0.6258
 4294TIP3    H134441   1.516   0.533   1.440  0.4251  0.2469 -1.5595
 4294TIP3    H234442   1.454   0.665   1.480  0.0608 -0.1445 -0.8113
 4295TIP3   OH234443   3.557   5.399   1.098 -0.3296 -0.2885 -0.2755
 4295TIP3    H134444   3.597   5.316   1.124 -2.2834 -1.1613  0.1468
 4295TIP3    H234445   3.463   5.381   1.096 -0.7093  1.5166 -1.6730
 4296TIP3   OH234446   4.477   2.632   8.505 -0.3552 -0.0440 -0.4640
 4296TIP3    H134447   4.534   2.678   8.444 -0.8554  0.4174 -0.5921
 4296TIP3    H234448   4.395   2.682   8.503 -0.0520  0.5975  1.3445
 4297TIP3   OH234449   6.640   4.301   0.603 -0.7721  0.0107 -0.2919
 4297TIP3    H134450   6.679   4.374   0.556 -2.2446 -0.0501 -1.6421
 4297TIP3    H234451   6.694   4.226   0.578 -0.9451  0.1512 -1.1070
 4298TIP3   OH234452   0.988   1.468   8.180 -0.5232  0.1751  0.0114
 4298TIP3    H134453   0.919   1.529   8.207 -0.6702 -0.2772  0.6965
 4298TIP3    H234454   1.068   1.502   8.221 -0.2214  0.9849 -1.1955
 4299TIP3   OH234455   3.295   6.339   7.647 -0.8349 -0.8819 -0.1150
 4299TIP3    H134456   3.251   6.396   7.584 -0.9011  0.3947  1.0497
 4299TIP3    H234457   3.268   6.251   7.622 -0.6107 -0.4398 -2.0482
 4300TIP3   OH234458   4.094   2.872   6.206 -0.2717  0.4062  0.2987
 4300TIP3    H134459   4.086   2.778   6.221 -0.5831  0.0405 -1.7627
 4300TIP3    H234460   4.010   2.897   6.168  0.8567  0.8293 -2.0960
 4301TIP3   OH234461   6.379   3.442   1.578  0.7924 -0.2857  0.2872
 4301TIP3    H134462   6.422   3.521   1.611  0.9280  0.2190 -1.0318
 4301TIP3    H234463   6.384   3.379   1.650  0.5611  0.9516  1.4027
 4302TIP3   OH234464   2.624   0.225   6.770  0.0370  0.2460 -0.1736
 4302TIP3    H134465   2.561   0.279   6.818 -0.3602 -0.1352 -0.2677
 4302TIP3    H234466   2.659   0.165   6.836 -0.4111 -0.1894 -0.3353
 4303TIP3   OH234467   4.022   6.430   0.517 -0.1426  0.2201  0.5788
 4303TIP3    H134468   3.985   6.505   0.565  1.8714  0.6837  1.4905
 4303TIP3    H234469   4.088   6.469   0.460  1.4582 -0.9020  1.6074
 4304TIP3   OH234470   5.227   1.729   0.175  0.0178  0.4593  0.2855
 4304TIP3    H134471   5.238   1.644   0.219 -0.1845  0.7664  0.9387
 4304TIP3    H234472   5.273   1.719   0.092 -2.5880 -1.3605 -1.1029
 4305TIP3   OH234473   2.026   5.751   8.636  0.1337  0.3039 -0.1991
 4305TIP3    H134474   2.038   5.674   8.692  0.6592  0.9543  0.6048
 4305TIP3    H234475   1.963   5.806   8.684 -0.5498  0.1962 -0.9601
 4306TIP3   OH234476   4.216   0.390   7.277 -0.4387 -0.2597  0.2948
 4306TIP3    H134477   4.236   0.334   7.202 -1.6026 -0.1760 -0.0993
 4306TIP3    H234478   4.260   0.348   7.351  0.7738 -0.3102 -0.4361
 4307TIP3   OH234479   3.421   4.441   8.257 -0.1043 -0.3252 -0.0901
 4307TIP3    H134480   3.335   4.449   8.299  0.2763 -1.0253  0.8690
 4307TIP3    H234481   3.459   4.362   8.297  0.4871 -0.7219 -1.3991
 4308TIP3   OH234482   4.502   0.317   0.957  0.1447 -0.4882 -0.6865
 4308TIP3    H134483   4.421   0.285   0.997  0.1579  1.3678  0.9652
 4308TIP3    H234484   4.572   0.286   1.015  0.3084  0.7813 -0.1728
 4309TIP3   OH234485   2.760   0.330   6.542 -0.2542 -0.0192  0.1516
 4309TIP3    H134486   2.737   0.272   6.614 -2.1294  0.7219  0.2043
 4309TIP3    H234487   2.773   0.271   6.467  1.3330 -0.7541  0.9489
 4310TIP3   OH234488   5.968   0.854   5.701  0.0855  0.2948  0.1658
 4310TIP3    H134489   5.939   0.934   5.745 -0.2159  0.5522 -0.4804
 4310TIP3    H234490   5.932   0.783   5.754  0.9352  0.5657  1.1348
 4311TIP3   OH234491   2.334   0.010   8.415 -0.4340 -0.4494 -0.0810
 4311TIP3    H134492   2.336  -0.017   8.506  1.9856 -0.4899 -0.0923
 4311TIP3    H234493   2.347   0.105   8.418  2.5241 -0.7594 -0.4017
 4312TIP3   OH234494   4.123   4.472   6.095  0.8449 -0.0865  0.0522
 4312TIP3    H134495   4.101   4.483   6.002  0.9917  1.0971  0.1348
 4312TIP3    H234496   4.079   4.391   6.120  0.0849  0.0216 -0.8417
 4313TIP3   OH234497   4.657   3.574   7.088 -0.4335  0.0074  0.1058
 4313TIP3    H134498   4.609   3.540   7.163  0.3762 -0.7644  0.2915
 4313TIP3    H234499   4.705   3.650   7.122  2.7304 -2.3161  1.3862
 4314TIP3   OH234500   6.346   4.096   1.591 -0.2025 -0.1101  0.3257
 4314TIP3    H134501   6.440   4.087   1.575 -0.1914 -1.1571  0.8942
 4314TIP3    H234502   6.332   4.055   1.676 -0.9671  1.2889  0.8955
 4315TIP3   OH234503   3.676   6.522   0.921 -1.0319  0.2116 -0.6202
 4315TIP3    H134504   3.718   6.600   0.885 -1.9775  0.4369 -1.2486
 4315TIP3    H234505   3.584   6.530   0.896 -1.3138 -0.6526  0.0950
 4316TIP3   OH234506   1.256   4.414   2.097 -0.3952  0.7804 -0.4673
 4316TIP3    H134507   1.297   4.455   2.022  1.0486 -2.3063 -1.5579
 4316TIP3    H234508   1.326   4.362   2.137 -1.9403 -0.3323  0.9659
 4317TIP3   OH234509   2.430   3.280   7.974 -0.0317 -0.1837  0.0113
 4317TIP3    H134510   2.378   3.283   8.054  1.1543  0.2997  0.7996
 4317TIP3    H234511   2.409   3.196   7.934 -2.4732  0.5729 -0.4617
 4318TIP3   OH234512   5.403   5.060   7.349 -0.9389  0.3371  0.2692
 4318TIP3    H134513   5.323   5.026   7.390 -1.4338  0.9265 -0.1804
 4318TIP3    H234514   5.402   5.024   7.261 -1.7354  1.8679 -0.3855
 4319TIP3   OH234515   5.674   2.073   8.723 -0.0539  0.2372 -0.2306
 4319TIP3    H134516   5.641   2.161   8.707 -1.8865 -0.4630 -0.5131
 4319TIP3    H234517   5.669   2.063   8.818 -1.0533  0.0067 -0.2996
 4320TIP3   OH234518   1.132   0.673   6.639 -0.2537  0.7157 -0.2857
 4320TIP3    H134519   1.205   0.711   6.590 -0.1091  0.7460 -0.0427
 4320TIP3    H234520   1.058   0.732   6.619 -0.1023  0.9515 -0.1541
 4321TIP3   OH234521   5.058   2.959   6.651  0.3567 -0.5924 -0.5595
 4321TIP3    H134522   5.118   2.941   6.579  0.0907 -0.1260 -0.9007
 4321TIP3    H234523   5.084   2.897   6.720  1.3534 -0.2753 -0.6321
 4322TIP3   OH234524   3.109   3.997   7.306 -0.1633  0.6366  0.3259
 4322TIP3    H134525   3.015   4.010   7.315 -0.0366  0.9211  1.4773
 4322TIP3    H234526   3.135   4.054   7.233 -1.0206 -0.2277 -0.6775
 4323TIP3   OH234527   0.178   6.174   6.500  0.2431 -0.6054  0.0525
 4323TIP3    H134528   0.236   6.106   6.466  0.0459 -0.8219  0.1440
 4323TIP3    H234529   0.167   6.235   6.428  0.7397 -0.4584  0.0933
 4324TIP3   OH234530   3.250   1.569   1.032 -0.3383 -0.4152 -0.0064
 4324TIP3    H134531   3.235   1.511   1.107 -0.7726 -0.9351 -0.4894
 4324TIP3    H234532   3.209   1.652   1.059  0.6007 -0.1938  0.8307
 4325TIP3   OH234533   3.777   0.213   2.250 -0.3138  0.3359 -0.0985
 4325TIP3    H134534   3.808   0.143   2.192 -0.0031  2.0557 -2.0959
 4325TIP3    H234535   3.711   0.259   2.199  0.5633  2.4317  0.5845
 4326TIP3   OH234536   3.373   3.910   1.893  0.0353 -0.1429 -0.4466
 4326TIP3    H134537   3.412   3.857   1.962 -0.6140  1.4886  1.2725
 4326TIP3    H234538   3.348   3.847   1.825  0.6940 -1.8201  0.7944
 4327TIP3   OH234539   6.487   5.381   8.827 -0.0816  0.0638 -0.1384
 4327TIP3    H134540   6.495   5.454   8.888 -0.5511  1.2354 -1.4246
 4327TIP3    H234541   6.575   5.368   8.792  0.2114 -0.6870  0.8405
 4328TIP3   OH234542   4.087   1.242   7.694 -0.2798  0.2653 -0.2072
 4328TIP3    H134543   4.021   1.307   7.669  0.8911  0.9079 -1.7618
 4328TIP3    H234544   4.137   1.226   7.614  0.2801 -1.6052  0.4730
 4329TIP3   OH234545   4.902   3.148   1.006 -0.1725 -0.2474  0.2954
 4329TIP3    H134546   4.864   3.221   1.056  0.4082 -0.0262  0.4252
 4329TIP3    H234547   4.834   3.081   1.007 -0.2960 -0.1258  1.1215
 4330TIP3   OH234548   3.847   3.658   0.453 -0.5488 -0.5326  0.0425
 4330TIP3    H134549   3.906   3.667   0.378 -2.0754  0.5183 -1.0977
 4330TIP3    H234550   3.811   3.745   0.465 -2.5930 -1.3324  0.0681
 4331TIP3   OH234551   3.716   5.708   6.608  0.6010 -0.1729 -0.5829
 4331TIP3    H134552   3.767   5.778   6.649 -1.2253  1.3240 -0.6959
 4331TIP3    H234553   3.650   5.686   6.673 -0.1026 -0.3230 -1.3319
 4332TIP3   OH234554   3.501   4.609   0.059 -0.2346 -0.2464  0.4219
 4332TIP3    H134555   3.477   4.527   0.102 -0.0786 -0.9407 -0.7708
 4332TIP3    H234556   3.419   4.659   0.056  0.3670  1.3794  4.5893
 4333TIP3   OH234557   3.134   5.535   8.816 -0.0504  0.1498  0.3728
 4333TIP3    H134558   3.156   5.594   8.744 -1.0738 -0.7580 -0.7369
 4333TIP3    H234559   3.190   5.562   8.889  0.4826  1.5660 -0.5410
 4334TIP3   OH234560   3.207   0.012   7.543  0.1499 -0.2266 -0.2603
 4334TIP3    H134561   3.242   0.060   7.618  2.2674  0.9396 -1.8859
 4334TIP3    H234562   3.118   0.046   7.532  0.1986  0.3738  1.0162
 4335TIP3   OH234563   3.249   1.214   1.439 -0.0889  0.5989 -0.7013
 4335TIP3    H134564   3.320   1.244   1.496 -2.1228  2.0757  1.2311
 4335TIP3    H234565   3.294   1.172   1.365  2.7285  0.1427  1.1005
 4336TIP3   OH234566   1.935   2.177   6.089 -0.1940 -0.3225 -0.0370
 4336TIP3    H134567   1.889   2.256   6.117 -0.7774 -0.3422 -0.9302
 4336TIP3    H234568   1.964   2.196   6.000 -0.1730 -1.0422 -0.1869
 4337TIP3   OH234569   0.020   0.183   7.198 -0.1850 -0.0938  0.2044
 4337TIP3    H134570   0.115   0.193   7.193  0.0547 -1.1882  1.6536
 4337TIP3    H234571  -0.006   0.235   7.274 -0.5398 -0.8189  0.5943
 4338TIP3   OH234572   5.489   3.000   7.750  0.5614 -0.4288  0.0399
 4338TIP3    H134573   5.417   2.974   7.808  0.7721 -0.8302  0.1232
 4338TIP3    H234574   5.453   2.995   7.662 -0.1208  1.2939  0.1688
 4339TIP3   OH234575   0.377   2.296   6.684  0.1070  0.2045  0.0355
 4339TIP3    H134576   0.452   2.260   6.637  0.7801  1.1455  0.3661
 4339TIP3    H234577   0.411   2.374   6.728 -1.1504  0.8703 -0.1220
 4340TIP3   OH234578   3.477   3.316   6.529  0.0246  0.6635 -0.3457
 4340TIP3    H134579   3.401   3.324   6.585 -0.9126  2.1424 -1.7376
 4340TIP3    H234580   3.456   3.244   6.469  0.7754 -0.5187  0.7588
 4341TIP3   OH234581   2.940   2.955   7.089  0.1741  0.6791 -0.1974
 4341TIP3    H134582   2.960   3.045   7.066  3.9134 -0.1067 -0.5631
 4341TIP3    H234583   2.966   2.903   7.013 -3.1506 -0.7640 -0.5598
 4342TIP3   OH234584   3.361   1.468   7.207 -0.5794  0.2048  0.0599
 4342TIP3    H134585   3.389   1.405   7.141  1.0919  1.5288 -0.5690
 4342TIP3    H234586   3.266   1.456   7.212 -0.4211 -1.7692 -0.6097
 4343TIP3   OH234587   6.655   5.379   1.367 -0.0122 -0.0437 -0.1105
 4343TIP3    H134588   6.687   5.294   1.338 -0.2767 -0.2730  0.2483
 4343TIP3    H234589   6.695   5.391   1.453  2.6377  1.6839 -1.4591
 4344TIP3   OH234590   1.510   5.615   6.736  0.4377  0.3809  0.3522
 4344TIP3    H134591   1.420   5.607   6.768  0.5957  0.5042  0.8439
 4344TIP3    H234592   1.537   5.525   6.716  0.2131  0.3427  0.2234
 4345TIP3   OH234593   1.017   1.077   8.508  0.0375 -0.4976  0.1226
 4345TIP3    H134594   0.993   0.985   8.497  0.8941 -0.4230 -3.6593
 4345TIP3    H234595   0.942   1.126   8.475  0.5718  0.0827 -0.2502
 4346TIP3   OH234596   6.790   1.908   7.369  0.7349  0.2303 -0.0968
 4346TIP3    H134597   6.851   1.969   7.411  0.6462 -0.0146  0.3902
 4346TIP3    H234598   6.707   1.924   7.412  0.6517 -0.0506 -0.1518
 4347TIP3   OH234599   6.750   1.921   5.740  0.1425  0.1135 -0.1991
 4347TIP3    H134600   6.800   1.850   5.699  1.4111  1.0162 -0.2867
 4347TIP3    H234601   6.659   1.897   5.726  0.5392 -0.7814 -1.4915
 4348TIP3   OH234602   4.208   3.724   6.831 -0.2449  0.1353  0.0783
 4348TIP3    H134603   4.275   3.667   6.868  0.0776 -1.6987 -2.9848
 4348TIP3    H234604   4.198   3.795   6.895  1.4892 -1.7787  2.6383
 4349TIP3   OH234605   2.740   0.556   7.627 -0.1115 -0.2460 -0.2095
 4349TIP3    H134606   2.732   0.467   7.662 -1.1622  0.1956  0.7114
 4349TIP3    H234607   2.673   0.606   7.672  0.0836  0.9010 -1.1459
 4350TIP3   OH234608   0.306   3.218   7.514  0.4442  0.2076 -0.6719
 4350TIP3    H134609   0.398   3.216   7.542  0.4919 -0.3305 -0.8544
 4350TIP3    H234610   0.309   3.248   7.423  0.4531  0.0376 -0.7280
 4351TIP3   OH234611   3.561   3.789   8.096 -0.4736  0.0855 -0.1510
 4351TIP3    H134612   3.630   3.736   8.055 -1.4038 -1.2835  0.0107
 4351TIP3    H234613   3.609   3.853   8.149  0.7269 -2.5488  2.1847
 4352TIP3   OH234614   5.098   1.020   8.091  0.3478 -0.3002  0.6359
 4352TIP3    H134615   5.119   0.956   8.158  0.5126 -1.3965 -0.4280
 4352TIP3    H234616   5.137   1.102   8.122 -1.1350 -0.3236  2.7407
 4353TIP3   OH234617   0.710   2.113   1.246  1.1412 -0.2403  0.4949
 4353TIP3    H134618   0.717   2.208   1.256  1.3799 -0.2552  0.4858
 4353TIP3    H234619   0.665   2.083   1.325  0.1377 -0.0072  0.0272
 4354TIP3   OH234620   2.734   5.292   0.053  0.3855  0.1081 -0.4023
 4354TIP3    H134621   2.726   5.387   0.040  0.1095  0.0404 -0.7505
 4354TIP3    H234622   2.828   5.275   0.053  0.4239  0.3090 -0.8843
 4355TIP3   OH234623   4.963   1.510   1.284 -0.1243  0.3909  0.6471
 4355TIP3    H134624   4.941   1.417   1.285  3.3741 -0.6106 -0.5162
 4355TIP3    H234625   4.913   1.545   1.210 -0.7674 -0.7450  0.5081
 4356TIP3   OH234626   0.069   5.845   0.685  0.4150 -0.0960 -0.4501
 4356TIP3    H134627  -0.011   5.863   0.636  0.4547 -0.6924 -0.7472
 4356TIP3    H234628   0.052   5.878   0.773 -0.2237 -0.3869 -0.4617
 4357TIP3   OH234629   3.342   3.369   1.235  0.2361  0.0169 -0.0788
 4357TIP3    H134630   3.348   3.455   1.192  1.5229 -0.0447 -0.0631
 4357TIP3    H234631   3.257   3.335   1.208 -0.6320  1.6118  0.5290
 4358TIP3   OH234632   6.029   5.034   6.836 -0.1198 -0.1249 -0.1131
 4358TIP3    H134633   5.999   5.098   6.901 -0.2935 -0.6017  0.2857
 4358TIP3    H234634   6.051   4.956   6.888  2.3006  0.3555 -0.3342
 4359TIP3   OH234635   0.322   3.363   6.696  0.0430  0.5555  0.2192
 4359TIP3    H134636   0.317   3.314   6.614 -0.0560 -0.4225  0.7946
 4359TIP3    H234637   0.390   3.428   6.680  0.5324 -0.0843 -0.4119
 4360TIP3   OH234638   4.719   1.287   8.755  0.3233 -0.3690  0.8857
 4360TIP3    H134639   4.669   1.208   8.735 -0.4727  0.3616 -0.1607
 4360TIP3    H234640   4.654   1.358   8.749  1.1220  0.4209  1.3010
 4361TIP3   OH234641   6.572   0.168   7.060 -0.8587 -0.1606 -0.3280
 4361TIP3    H134642   6.655   0.158   7.107 -2.0053 -2.5853  1.4122
 4361TIP3    H234643   6.546   0.259   7.078  0.7169  0.2219  0.2592
 4362TIP3   OH234644   4.843   5.626   6.241  0.4247 -0.0372  0.2545
 4362TIP3    H134645   4.866   5.715   6.215  0.5597  0.0192  0.5645
 4362TIP3    H234646   4.909   5.571   6.198 -0.0767 -0.0502 -0.5063
 4363TIP3   OH234647   1.438   3.930   7.263  0.2453  0.5301  0.4216
 4363TIP3    H134648   1.461   4.011   7.216 -1.1445  0.1484 -0.9964
 4363TIP3    H234649   1.409   3.870   7.194  0.5232 -0.9346  1.5325
 4364TIP3   OH234650   2.567   3.506   8.370 -0.3006  0.2022  0.6570
 4364TIP3    H134651   2.606   3.532   8.286 -1.7685 -0.5546 -0.2993
 4364TIP3    H234652   2.641   3.502   8.431  0.8325  0.5413 -0.6496
 4365TIP3   OH234653   1.973   3.056   0.170  0.2526  0.2588 -0.2299
 4365TIP3    H134654   1.948   3.049   0.078 -0.2048 -0.5156 -0.0524
 4365TIP3    H234655   1.943   3.143   0.197  0.6222  0.5923 -0.8745
 4366TIP3   OH234656   4.927   1.383   7.110  0.8471 -0.7323 -0.0740
 4366TIP3    H134657   5.006   1.395   7.057  1.3611  1.1452  0.9935
 4366TIP3    H234658   4.958   1.392   7.200 -0.6164  0.4588  0.3491
 4367TIP3   OH234659   5.463   0.261   0.207  0.0774  0.7708 -0.0987
 4367TIP3    H134660   5.465   0.297   0.296 -0.0884  0.8366 -0.1205
 4367TIP3    H234661   5.528   0.191   0.208 -0.7110  0.0247  0.3965
 4368TIP3   OH234662   2.084   1.686   1.211  0.3026 -0.4498  0.1146
 4368TIP3    H134663   2.121   1.610   1.256  0.2171  0.1699  1.2747
 4368TIP3    H234664   2.110   1.761   1.265 -1.5467  0.1276  0.3080
 4369TIP3   OH234665   5.072   4.862   0.437 -0.1358  0.1341  0.2834
 4369TIP3    H134666   4.998   4.867   0.497  0.0264 -0.2908  0.5216
 4369TIP3    H234667   5.089   4.769   0.426  1.3671  0.2135  1.5000
 4370TIP3   OH234668   3.828   0.332   1.600 -0.3298 -0.9733  0.8672
 4370TIP3    H134669   3.901   0.393   1.592 -1.5794  0.5908  0.9049
 4370TIP3    H234670   3.858   0.253   1.554  0.8279  0.1478 -0.4124
 4371TIP3   OH234671   3.536   1.613   7.780 -0.2573  0.4401  0.1113
 4371TIP3    H134672   3.558   1.588   7.690 -1.7729  0.0202 -0.1631
 4371TIP3    H234673   3.495   1.699   7.772  1.2722  1.2453  0.6220
 4372TIP3   OH234674   2.339   3.588   0.523 -0.1929 -0.5611 -0.1540
 4372TIP3    H134675   2.351   3.657   0.458  1.7019  0.7467  1.4909
 4372TIP3    H234676   2.404   3.522   0.500 -0.0997 -0.4984 -0.0663
 4373TIP3   OH234677   5.913   5.379   7.017  0.3232 -0.1399  0.1727
 4373TIP3    H134678   5.833   5.403   6.972 -0.8522  0.7099  2.5197
 4373TIP3    H234679   5.983   5.397   6.954 -1.2330  0.1085 -1.5669
 4374TIP3   OH234680   5.275   0.669   8.172 -0.0036 -0.2653  0.6862
 4374TIP3    H134681   5.273   0.681   8.267 -0.0290  1.2424  0.5105
 4374TIP3    H234682   5.185   0.683   8.144  0.1115 -0.1394  0.3738
 4375TIP3   OH234683   3.174   6.247   0.596  0.2020 -0.2824 -0.1535
 4375TIP3    H134684   3.083   6.240   0.625  0.1774 -2.1424 -0.5391
 4375TIP3    H234685   3.175   6.204   0.510  1.5683 -0.8263  0.1090
 4376TIP3   OH234686   3.968   0.223   1.273  0.0802 -0.0027 -0.2500
 4376TIP3    H134687   4.016   0.293   1.318  2.2526 -1.1622 -0.5962
 4376TIP3    H234688   3.940   0.164   1.342  0.9046 -0.3070 -0.1582
 4377TIP3   OH234689   3.587   6.007   8.563 -0.1443  0.2757 -0.2574
 4377TIP3    H134690   3.612   5.955   8.486  2.3013 -0.1343  0.7088
 4377TIP3    H234691   3.492   6.005   8.564 -0.2402 -0.3977 -2.7985
 4378TIP3   OH234692   3.502   5.689   6.786 -0.1042  0.3169  0.1952
 4378TIP3    H134693   3.503   5.616   6.848  0.8156  0.3440  0.2287
 4378TIP3    H234694   3.500   5.767   6.841 -2.2623  0.3503  0.1619
 4379TIP3   OH234695   1.714   2.886   7.710 -0.0922 -0.3637 -0.5577
 4379TIP3    H134696   1.718   2.790   7.713 -0.0635 -0.3461  1.5179
 4379TIP3    H234697   1.758   2.910   7.628 -0.1165 -2.1117 -1.1187
 4380TIP3   OH234698   3.319   3.447   7.334  0.0380  0.2370  0.5848
 4380TIP3    H134699   3.266   3.508   7.283 -1.0733 -1.4906 -0.4202
 4380TIP3    H234700   3.346   3.497   7.411 -2.4651  1.4107  0.7918
 4381TIP3   OH234701   3.095   0.435   8.563  0.1313  0.0649  0.2559
 4381TIP3    H134702   3.120   0.442   8.471 -1.8967  0.0180 -0.3376
 4381TIP3    H234703   3.175   0.458   8.611  1.6042 -1.1233 -1.4709
 4382TIP3   OH234704   4.556   4.322   6.834 -0.1678  0.7382 -0.1322
 4382TIP3    H134705   4.481   4.372   6.801 -2.0419 -1.7166  0.0499
 4382TIP3    H234706   4.539   4.312   6.928  0.0800 -0.3297 -0.1913
 4383TIP3   OH234707   6.444   1.467   7.733 -0.2198  0.2327  0.1796
 4383TIP3    H134708   6.400   1.384   7.754 -0.8152  0.4100 -0.3371
 4383TIP3    H234709   6.443   1.471   7.638 -1.5278  1.5201  0.2115
 4384TIP3   OH234710   5.357   6.511   8.602 -0.4732 -0.2116 -0.1380
 4384TIP3    H134711   5.404   6.504   8.519  0.2616 -0.0521  0.2553
 4384TIP3    H234712   5.268   6.485   8.581 -0.1430 -0.8295 -0.8393
 4385TIP3   OH234713   0.046   5.869   7.201  0.5887 -0.2176  0.3562
 4385TIP3    H134714   0.111   5.798   7.194 -0.4082 -1.3426  1.8463
 4385TIP3    H234715   0.013   5.880   7.112  2.8679  0.4928 -0.4933
 4386TIP3   OH234716   0.463   0.428   0.185  0.8041 -0.6076  0.2817
 4386TIP3    H134717   0.442   0.358   0.247 -1.1078  0.9026  1.4815
 4386TIP3    H234718   0.492   0.501   0.241  0.7348  0.2277 -0.7356
 4387TIP3   OH234719   4.581   1.285   7.367 -0.8234  0.1717 -0.2654
 4387TIP3    H134720   4.607   1.227   7.439  0.2564  1.9226  0.8219
 4387TIP3    H234721   4.628   1.250   7.291 -0.0953 -0.3346  0.3959
 4388TIP3   OH234722   2.380   6.708   6.371 -0.0326 -0.3615 -0.2799
 4388TIP3    H134723   2.310   6.709   6.305 -2.3194 -2.3332  1.9232
 4388TIP3    H234724   2.384   6.797   6.404 -0.7861  0.0050 -1.1338
 4389TIP3   OH234725   1.883   3.399   1.397 -0.4892 -0.2797 -0.3047
 4389TIP3    H134726   1.791   3.412   1.372 -0.8729 -0.8680  0.7559
 4389TIP3    H234727   1.888   3.429   1.488  0.2843 -0.6110 -0.2293
 4390TIP3   OH234728   5.354   6.395   7.284  0.3112 -0.5541  0.2170
 4390TIP3    H134729   5.408   6.379   7.207 -0.6472  0.8687 -0.8238
 4390TIP3    H234730   5.306   6.313   7.298  0.3209 -0.7597 -0.8702
 4391TIP3   OH234731   5.951   1.330   7.356  0.5253  0.1296  0.1075
 4391TIP3    H134732   5.870   1.328   7.408  0.1567  0.5628 -0.4358
 4391TIP3    H234733   6.020   1.350   7.419  0.2606 -0.5624  0.6340
 4392TIP3   OH234734   0.725   2.730   7.224 -0.2172  0.3922  0.7278
 4392TIP3    H134735   0.691   2.691   7.305 -1.9127  0.8599  0.2962
 4392TIP3    H234736   0.650   2.777   7.188  0.2163 -0.6330 -1.6491
 4393TIP3   OH234737   6.235   6.691   1.404  0.4048 -0.2342  0.5024
 4393TIP3    H134738   6.319   6.708   1.361  0.2575  0.6052  0.5401
 4393TIP3    H234739   6.177   6.662   1.333  1.5722 -4.2021  0.8979
 4394TIP3   OH234740   6.325   1.531   7.420  0.3509 -0.2170  0.0967
 4394TIP3    H134741   6.316   1.509   7.327 -0.7983  1.5018 -0.2581
 4394TIP3    H234742   6.418   1.548   7.431  0.3282  0.9186 -1.1218
 4395TIP3   OH234743   2.248   2.616   7.029 -0.0167  0.5435 -1.2867
 4395TIP3    H134744   2.220   2.552   7.094 -1.3590  1.4970 -0.8901
 4395TIP3    H234745   2.235   2.572   6.945 -0.3562  0.0838 -0.9976
 4396TIP3   OH234746   0.960   3.328   7.365  0.1257 -0.6950 -0.1088
 4396TIP3    H134747   1.014   3.315   7.287  1.8148  3.4378  0.1412
 4396TIP3    H234748   0.873   3.347   7.331  0.5081 -0.3827 -0.9473
 4397TIP3   OH234749   0.301   2.531   0.961  0.3761 -0.4217  0.4680
 4397TIP3    H134750   0.320   2.591   1.032 -1.9282  1.8275 -0.6427
 4397TIP3    H234751   0.207   2.513   0.968  0.5169 -1.8902 -0.7277
 4398TIP3   OH234752   4.060   0.558   0.354  0.1602 -0.0926 -0.1643
 4398TIP3    H134753   4.109   0.638   0.375 -0.1512  0.2908 -0.8725
 4398TIP3    H234754   4.114   0.487   0.389 -0.2294  0.4845  1.7315
 4399TIP3   OH234755   4.060   0.425   6.795  0.1712 -0.1654 -0.0063
 4399TIP3    H134756   4.130   0.410   6.859  0.5298  0.5765 -0.2117
 4399TIP3    H234757   4.002   0.489   6.837  0.5989  0.5954 -0.5401
 4400TIP3   OH234758   4.521   1.640   7.759  0.1974 -0.3214 -0.5272
 4400TIP3    H134759   4.563   1.602   7.682 -1.3487 -2.0965 -0.5542
 4400TIP3    H234760   4.440   1.590   7.770 -0.8482  1.5353  0.7977
 4401TIP3   OH234761   0.812   1.055   1.977  0.0628  0.0836  0.7777
 4401TIP3    H134762   0.847   0.969   2.002  1.8397  0.5204 -0.0245
 4401TIP3    H234763   0.721   1.038   1.953  0.7839 -1.8866 -0.8556
 4402TIP3   OH234764   3.081   6.421   0.245  0.1359  0.1666  0.2193
 4402TIP3    H134765   3.095   6.508   0.283  1.4377  0.0570  0.0181
 4402TIP3    H234766   3.164   6.376   0.256 -0.2437 -0.7432 -0.5059
 4403TIP3   OH234767   6.355   4.424   7.196 -0.1136 -0.1116 -0.3028
 4403TIP3    H134768   6.321   4.466   7.117  1.3712  2.5427  0.3237
 4403TIP3    H234769   6.407   4.350   7.164  0.0343  0.6008 -1.7867
 4404TIP3   OH234770   3.883   2.293   6.929 -0.1613 -0.2217 -0.0617
 4404TIP3    H134771   3.861   2.367   6.986 -2.4007 -0.6430 -0.2816
 4404TIP3    H234772   3.932   2.331   6.857 -0.4223  0.8987  0.3368
 4405TIP3   OH234773   4.646   2.152   8.721 -0.1783 -0.3476 -0.5925
 4405TIP3    H134774   4.563   2.200   8.718 -0.8470 -1.2296  1.5903
 4405TIP3    H234775   4.713   2.221   8.720 -1.0245  0.5096 -0.2507
 4406TIP3   OH234776   2.317   5.016   1.119 -0.3295 -0.1136 -0.7409
 4406TIP3    H134777   2.223   5.031   1.108 -0.3251  0.0595 -0.5388
 4406TIP3    H234778   2.351   5.017   1.029 -0.9282 -2.9969 -1.0953
 4407TIP3   OH234779   2.782   3.252   0.468  0.4759 -0.9016  0.8258
 4407TIP3    H134780   2.782   3.169   0.515 -1.7447 -1.6218 -0.2980
 4407TIP3    H234781   2.855   3.244   0.406  2.0098 -0.8296  2.5444
 4408TIP3   OH234782   6.540   5.173   7.289  0.4443  0.0232  0.5072
 4408TIP3    H134783   6.445   5.178   7.280  0.5498 -0.3576 -1.1385
 4408TIP3    H234784   6.568   5.264   7.295  0.1350  0.2755 -1.3286
 4409TIP3   OH234785   2.781   5.025   1.876 -0.5770  0.0657  0.3364
 4409TIP3    H134786   2.861   4.987   1.839 -0.8440 -0.0973 -0.0800
 4409TIP3    H234787   2.796   5.119   1.875  0.1808 -0.0151  1.5749
 4410TIP3   OH234788   6.552   5.814   1.139 -0.2374 -0.3805  0.1515
 4410TIP3    H134789   6.508   5.741   1.183 -0.5574  0.7937  1.8804
 4410TIP3    H234790   6.541   5.888   1.198  0.6191  0.9394 -1.2604
 4411TIP3   OH234791   0.592   1.124   8.672 -0.3546  0.5967 -0.3744
 4411TIP3    H134792   0.564   1.174   8.596 -0.2268  1.3945  0.0861
 4411TIP3    H234793   0.567   1.178   8.747 -1.7274 -0.8006  0.2235
 4412TIP3   OH234794   6.624   1.846   0.583  0.2084 -0.0725  0.4656
 4412TIP3    H134795   6.686   1.843   0.655  0.6940  1.6216  0.1739
 4412TIP3    H234796   6.674   1.818   0.506  0.2850  0.1453  0.4351
 4413TIP3   OH234797   1.565   6.239   1.042 -0.0792  0.0044 -0.2648
 4413TIP3    H134798   1.577   6.308   0.978 -0.8206 -0.1376 -0.5695
 4413TIP3    H234799   1.644   6.241   1.096  0.5936  0.0499 -1.2443
 4414TIP3   OH234800   4.970   2.277   8.230 -0.5317 -0.1604  0.5854
 4414TIP3    H134801   4.960   2.202   8.172 -0.0886  0.8918 -0.9215
 4414TIP3    H234802   5.061   2.304   8.220 -0.7591  0.7664  0.8582
 4415TIP3   OH234803   3.302   6.011   8.602 -0.3901 -0.7464 -0.3879
 4415TIP3    H134804   3.235   6.073   8.575 -1.6967 -1.3648  1.3254
 4415TIP3    H234805   3.282   5.931   8.553 -1.4681 -1.2102  0.7924
 4416TIP3   OH234806   3.600   4.131   0.702 -0.2167  0.1015  0.2139
 4416TIP3    H134807   3.643   4.177   0.630  1.2545  0.3653  1.2216
 4416TIP3    H234808   3.671   4.085   0.747 -0.7052  1.6610  2.7717
 4417TIP3   OH234809   6.549   5.468   0.272 -0.1564  0.6064  0.5811
 4417TIP3    H134810   6.626   5.500   0.226  0.0044 -0.1973  0.2857
 4417TIP3    H234811   6.562   5.374   0.281 -1.5984  0.2743 -0.4226
 4418TIP3   OH234812   1.396   6.005   8.684  0.4217 -0.1270 -0.4992
 4418TIP3    H134813   1.433   6.094   8.682  2.2040 -0.8238 -0.4116
 4418TIP3    H234814   1.439   5.963   8.759  1.0142 -1.6098 -1.6124
 4419TIP3   OH234815   4.598   6.700   2.013 -0.4552  0.1717  0.2942
 4419TIP3    H134816   4.694   6.704   2.005 -0.4654  0.6696  0.3790
 4419TIP3    H234817   4.581   6.722   2.105 -0.5721 -1.3703  0.6690
 4420TIP3   OH234818   1.033   5.820   6.435 -0.1577  0.5190  0.0148
 4420TIP3    H134819   1.114   5.771   6.421 -0.2644  0.5458 -0.7807
 4420TIP3    H234820   1.042   5.897   6.379 -1.7300 -0.6768 -2.0419
 4421TIP3   OH234821   0.170   6.789   0.879 -0.1719  0.2061  0.6243
 4421TIP3    H134822   0.183   6.698   0.906 -0.5304 -0.1449 -0.3378
 4421TIP3    H234823   0.256   6.817   0.846 -0.6589 -0.6710 -1.5673
 4422TIP3   OH234824   5.853   3.075   0.131  0.4089  0.2696  0.1807
 4422TIP3    H134825   5.761   3.064   0.154  0.5239 -1.7013 -0.1743
 4422TIP3    H234826   5.883   3.147   0.187 -0.9972  0.0210  1.3151
 4423TIP3   OH234827   5.519   2.529   0.336 -0.0582 -0.0153  0.3740
 4423TIP3    H134828   5.494   2.621   0.340 -3.4473 -0.7424 -0.3650
 4423TIP3    H234829   5.509   2.498   0.426  0.7711  0.2618  0.5640
 4424TIP3   OH234830   4.893   2.941   7.604 -0.2037  0.4289 -0.4746
 4424TIP3    H134831   4.858   2.926   7.516  0.7438  0.8479 -0.9453
 4424TIP3    H234832   4.862   3.028   7.628 -2.5662 -0.6629  0.6875
 4425TIP3   OH234833   5.422   1.766   6.462  0.5108  0.1781 -0.1388
 4425TIP3    H134834   5.446   1.684   6.418  0.7902  0.2034 -0.0379
 4425TIP3    H234835   5.332   1.751   6.492  0.9264 -0.5105  0.8270
 4426TIP3   OH234836   1.584   2.706   8.547 -0.3168 -0.6077  0.3079
 4426TIP3    H134837   1.583   2.631   8.606  0.6489  0.7684  2.1750
 4426TIP3    H234838   1.553   2.671   8.464 -1.5881 -2.6752  1.5587
 4427TIP3   OH234839   1.848   1.778   1.466 -0.2752  0.5288 -0.0635
 4427TIP3    H134840   1.824   1.867   1.492 -4.2557 -0.5016  0.4055
 4427TIP3    H234841   1.849   1.729   1.549 -1.0122 -0.3862 -0.5748
 4428TIP3   OH234842   6.735   2.538   8.612 -0.9890  0.0542  0.1538
 4428TIP3    H134843   6.764   2.629   8.618  2.1949 -0.8151 -0.3826
 4428TIP3    H234844   6.719   2.511   8.703  2.1882  0.0092  0.7886
 4429TIP3   OH234845   2.892   5.873   7.553  0.3728 -0.1542  0.3455
 4429TIP3    H134846   2.948   5.798   7.533  0.5421 -0.0283  0.3484
 4429TIP3    H234847   2.850   5.893   7.470 -0.1191 -0.6170  0.4720
 4430TIP3   OH234848   5.534   0.694   1.662 -0.2006  0.2758 -0.1814
 4430TIP3    H134849   5.542   0.647   1.745 -1.6792  0.6432  0.1963
 4430TIP3    H234850   5.622   0.692   1.625  0.3861 -0.2958  1.1724
 4431TIP3   OH234851   2.360   3.045   7.790 -0.3501  0.2494 -0.1569
 4431TIP3    H134852   2.358   2.981   7.861  2.8355  0.5659  0.3541
 4431TIP3    H234853   2.445   3.031   7.748 -0.2679  3.0326 -1.1084
 4432TIP3   OH234854   6.486   6.087   0.313  0.0226 -0.2824 -0.4083
 4432TIP3    H134855   6.578   6.091   0.288 -0.0417  1.1340 -0.5469
 4432TIP3    H234856   6.438   6.104   0.232 -0.3193  0.1340 -0.1250
 4433TIP3   OH234857   1.642   6.708   2.143  0.0388 -0.5433  0.1608
 4433TIP3    H134858   1.664   6.619   2.172  1.2288  0.1278  1.3821
 4433TIP3    H234859   1.717   6.736   2.090 -0.3420 -0.2605 -0.2375
 4434TIP3   OH234860   1.612   2.541   6.563 -0.8873  0.7714  0.6919
 4434TIP3    H134861   1.534   2.552   6.508 -0.2688 -1.6053 -0.7988
 4434TIP3    H234862   1.684   2.574   6.509 -0.4228 -0.5055  0.4916
 4435TIP3   OH234863   2.270   4.809   0.247  0.5351 -0.0417 -0.3304
 4435TIP3    H134864   2.365   4.821   0.237  0.3759  1.7031 -0.0956
 4435TIP3    H234865   2.232   4.879   0.195 -0.6153 -0.1712  0.3094
 4436TIP3   OH234866   3.271   5.970   6.765  0.0596  0.2604  0.2172
 4436TIP3    H134867   3.214   5.906   6.723  0.5997 -0.7291  0.9582
 4436TIP3    H234868   3.320   5.920   6.830  2.6676  0.8337 -1.2018
 4437TIP3   OH234869   5.438   0.275   8.379 -0.6445 -0.5670  0.4172
 4437TIP3    H134870   5.369   0.309   8.322  0.3522  1.7423  0.4717
 4437TIP3    H234871   5.518   0.312   8.343  0.5538 -2.7731  0.6638
 4438TIP3   OH234872   1.794   0.522   7.680  0.0603 -0.3543  0.4919
 4438TIP3    H134873   1.774   0.473   7.760  0.3178 -0.5454  0.4400
 4438TIP3    H234874   1.881   0.558   7.695  1.3112 -2.6545 -0.7804
 4439TIP3   OH234875   6.044   6.598   1.964 -0.2083 -0.3360  0.1304
 4439TIP3    H134876   6.003   6.683   1.952 -0.5906 -0.5378 -0.0023
 4439TIP3    H234877   6.127   6.604   1.915 -0.6258 -0.3270 -0.5879
 4440TIP3   OH234878   4.772   0.502   1.593 -0.3630  0.1134  0.4980
 4440TIP3    H134879   4.822   0.421   1.593  2.4593  1.6794 -1.6200
 4440TIP3    H234880   4.746   0.514   1.685  0.2561 -2.4549  1.0949
 4441TIP3   OH234881   5.260   5.133   8.671 -0.0858 -0.6088  0.1075
 4441TIP3    H134882   5.178   5.175   8.699  0.5724  0.7279  0.1287
 4441TIP3    H234883   5.302   5.198   8.614  0.2472 -1.8833 -1.1749
 4442TIP3   OH234884   0.890   4.703   7.757  0.0803 -0.3090  0.0878
 4442TIP3    H134885   0.820   4.697   7.821 -0.8747 -0.3324 -0.9259
 4442TIP3    H234886   0.847   4.687   7.673  1.2923 -0.2649 -0.5629
 4443TIP3   OH234887   0.596   5.060   7.674  0.3770 -0.3714  0.1827
 4443TIP3    H134888   0.623   5.151   7.670  0.2296 -0.3460 -0.3062
 4443TIP3    H234889   0.672   5.014   7.710 -0.3360  0.2458  2.7474
 4444TIP3   OH234890   1.815   6.227   7.035  0.4031 -0.4713 -0.3526
 4444TIP3    H134891   1.859   6.249   7.117 -0.5765 -0.0590  0.0724
 4444TIP3    H234892   1.723   6.247   7.050 -0.2217 -2.8138 -0.6780
 4445TIP3   OH234893   4.762   2.942   7.372 -0.2817 -0.3325  0.4178
 4445TIP3    H134894   4.786   2.908   7.286  1.0715 -1.3868  1.1682
 4445TIP3    H234895   4.667   2.948   7.370 -0.5278 -3.2044 -0.1549
 4446TIP3   OH234896   3.807   4.036   0.027  0.4376  0.1579  0.2674
 4446TIP3    H134897   3.896   4.047  -0.008 -0.6939  2.4985 -2.3126
 4446TIP3    H234898   3.772   3.960  -0.020  0.6777  0.0039  0.3388
 4447TIP3   OH234899   4.066   4.717   7.637  0.2043 -0.1876  0.4510
 4447TIP3    H134900   4.149   4.683   7.603 -0.3237 -0.6195 -0.4620
 4447TIP3    H234901   4.005   4.643   7.631 -1.0583  0.8969 -1.9046
 4448TIP3   OH234902   1.574   4.743   7.502  0.2224 -0.8437  0.2408
 4448TIP3    H134903   1.625   4.720   7.424 -0.0660 -2.9193  0.6143
 4448TIP3    H234904   1.603   4.832   7.523  1.7813 -0.9783 -1.0622
 4449TIP3   OH234905   2.615   5.797   7.616 -0.5612  0.0544 -0.3061
 4449TIP3    H134906   2.684   5.737   7.646 -1.3332 -0.8790 -0.3179
 4449TIP3    H234907   2.657   5.850   7.548  0.1892 -0.3615 -0.1847
 4450TIP3   OH234908   1.832   3.255   1.096 -0.1301 -0.4538  0.6072
 4450TIP3    H134909   1.897   3.311   1.137  1.1186 -1.2775 -0.1655
 4450TIP3    H234910   1.875   3.169   1.091 -1.1111 -0.9102 -0.3107
 4451TIP3   OH234911   0.078   2.485   6.118 -0.1985  0.1275  0.0572
 4451TIP3    H134912   0.133   2.416   6.156  1.5582  1.0681 -0.6630
 4451TIP3    H234913   0.051   2.450   6.032 -1.1569 -0.5202  0.5999
 4452TIP3   OH234914   0.934   3.685   1.458  0.0285 -0.4308  0.0939
 4452TIP3    H134915   0.874   3.616   1.485 -0.2150 -1.1041 -1.9750
 4452TIP3    H234916   0.908   3.706   1.369  1.0863  1.2742  0.1374
 4453TIP3   OH234917   6.578   5.997   0.638 -0.2355 -0.0824  0.2562
 4453TIP3    H134918   6.523   6.066   0.601  0.4404  0.4781  0.2893
 4453TIP3    H234919   6.537   5.977   0.722 -0.8299 -0.2090 -0.0592
 4454TIP3   OH234920   2.955   5.847   0.907 -0.2979  0.1385 -0.2351
 4454TIP3    H134921   3.008   5.893   0.972 -1.1579 -1.9378  2.0828
 4454TIP3    H234922   2.866   5.879   0.922 -0.2394  1.1364 -1.8329
 4455TIP3   OH234923   0.514   6.041   5.640  0.3096  0.3265  0.2896
 4455TIP3    H134924   0.580   5.996   5.587 -0.0940  0.7972 -0.6300
 4455TIP3    H234925   0.454   5.971   5.667 -1.0365  0.4371 -2.1979
 4456TIP3   OH234926   4.596   4.100   0.422 -0.1660  0.4758  0.3970
 4456TIP3    H134927   4.613   4.180   0.371  1.8877  1.4293  2.4460
 4456TIP3    H234928   4.634   4.117   0.507 -1.0787 -2.1450  1.4215
 4457TIP3   OH234929   1.754   6.622   1.520 -0.1052 -0.1876  0.2497
 4457TIP3    H134930   1.833   6.634   1.467 -0.3649  1.0912  0.1087
 4457TIP3    H234931   1.730   6.531   1.507 -0.1846  0.0861 -1.8698
 4458TIP3   OH234932   4.379   2.051   8.389 -0.2695  0.8301  0.4513
 4458TIP3    H134933   4.301   2.094   8.352 -1.1647 -0.9655  0.1122
 4458TIP3    H234934   4.429   2.023   8.312  0.6114  1.7902  0.6716
 4459TIP3   OH234935   4.689   2.875   1.927 -0.1617 -0.0396  0.1215
 4459TIP3    H134936   4.687   2.875   2.023 -1.5944  0.2014  0.1076
 4459TIP3    H234937   4.660   2.963   1.902  1.4232  0.3338 -0.5478
 4460TIP3   OH234938   2.334   2.133   5.815 -0.6141  0.6486  0.2046
 4460TIP3    H134939   2.413   2.126   5.761 -0.9052  1.7816 -0.4090
 4460TIP3    H234940   2.332   2.052   5.866  0.1046 -0.0857 -0.9015
 4461TIP3   OH234941   1.065   1.712   7.287  0.1435  0.0581  0.0014
 4461TIP3    H134942   0.986   1.665   7.315  0.1518 -0.0780 -0.2076
 4461TIP3    H234943   1.110   1.652   7.228 -0.3996  0.7292 -1.1422
 4462TIP3   OH234944   1.326   0.649   0.025  0.0735  0.4279 -0.2298
 4462TIP3    H134945   1.325   0.554   0.017 -0.0138  0.4738 -0.7615
 4462TIP3    H234946   1.322   0.682  -0.065  0.1289  0.9345 -0.0532
 4463TIP3   OH234947   4.902   1.238   6.482  0.2953  0.1016  0.0024
 4463TIP3    H134948   4.844   1.229   6.406  0.7507 -0.3537 -0.3008
 4463TIP3    H234949   4.943   1.324   6.470 -0.4777  0.5348  0.3455
 4464TIP3   OH234950   3.812   3.772   6.710 -0.4062  0.3418  0.2152
 4464TIP3    H134951   3.863   3.794   6.788 -1.4742  1.1109  0.7194
 4464TIP3    H234952   3.735   3.828   6.715 -0.4943  0.4226 -1.4211
 4465TIP3   OH234953   3.497   3.224   7.474 -0.5484 -0.7254 -0.1389
 4465TIP3    H134954   3.569   3.162   7.472  1.8060  1.6647 -4.0712
 4465TIP3    H234955   3.538   3.308   7.495 -2.3897  0.4642 -1.0049
 4466TIP3   OH234956   2.595   1.738   0.398 -0.3447 -0.0585 -0.0836
 4466TIP3    H134957   2.503   1.737   0.423 -0.7583 -1.0890 -1.4589
 4466TIP3    H234958   2.605   1.658   0.345  0.8672  0.9783 -1.4943
 4467TIP3   OH234959   4.143   4.604   8.319  0.3739  0.1777  0.7899
 4467TIP3    H134960   4.060   4.652   8.327  0.7746  1.1335 -0.4637
 4467TIP3    H234961   4.166   4.612   8.226 -0.3927 -3.9642  0.0385
 4468TIP3   OH234962   3.572   1.726   2.201  0.7972 -0.3362  0.0593
 4468TIP3    H134963   3.639   1.715   2.134 -1.0053  1.4390 -2.1877
 4468TIP3    H234964   3.613   1.782   2.267  1.9434 -0.4269 -0.5538
 4469TIP3   OH234965   4.056   5.303   8.262  0.0341  0.1996 -0.6625
 4469TIP3    H134966   3.975   5.323   8.308 -0.1696  0.3140 -1.0682
 4469TIP3    H234967   4.107   5.384   8.268 -0.2722  0.4400 -1.2173
 4470TIP3   OH234968   0.792   2.897   0.751 -0.0214  0.0895  0.4713
 4470TIP3    H134969   0.790   2.843   0.830  1.2407 -0.9771 -0.1825
 4470TIP3    H234970   0.868   2.954   0.763  0.8840 -0.8702 -0.4193
 4471TIP3   OH234971   0.331   2.054   1.557 -0.0930  0.0955  0.3042
 4471TIP3    H134972   0.375   2.139   1.551 -2.7817  1.6084  0.3974
 4471TIP3    H234973   0.330   2.022   1.467  0.3012  0.5105  0.1473
 4472TIP3   OH234974   4.743   4.508   0.936  0.0803 -0.1935  0.3777
 4472TIP3    H134975   4.691   4.529   1.013 -1.4077 -0.0203 -0.6326
 4472TIP3    H234976   4.715   4.571   0.869  1.5533 -0.1364 -0.2323
 4473TIP3   OH234977   1.465   5.643   0.315  0.1855  0.1387  0.0142
 4473TIP3    H134978   1.425   5.613   0.234  1.8791 -1.3161 -0.3452
 4473TIP3    H234979   1.398   5.627   0.382 -1.1602  1.1874 -1.0332
 4474TIP3   OH234980   1.177   3.551   6.684 -0.3378  0.1467  0.3782
 4474TIP3    H134981   1.180   3.638   6.645  1.9483  0.5311  1.2855
 4474TIP3    H234982   1.259   3.510   6.659 -0.6312 -1.1236  1.3800
 4475TIP3   OH234983   1.441   1.037   6.366 -0.4414  0.2245  0.2282
 4475TIP3    H134984   1.517   1.006   6.316 -1.6007 -2.8329  0.1395
 4475TIP3    H234985   1.474   1.047   6.455  0.0246 -1.6706  0.3264
 4476TIP3   OH234986   4.263   1.062   0.497 -0.2423  0.4388 -0.2497
 4476TIP3    H134987   4.266   1.044   0.591 -0.4991  2.8360  0.2911
 4476TIP3    H234988   4.278   1.156   0.491 -3.6987  1.0222 -2.3227
 4477TIP3   OH234989   4.634   2.407   0.159 -0.4492 -0.4390 -0.4531
 4477TIP3    H134990   4.591   2.411   0.244  1.3993 -0.5457  0.5381
 4477TIP3    H234991   4.664   2.316   0.152 -1.8830 -0.8551 -1.9468
 4478TIP3   OH234992   6.341   2.147   7.370 -0.3790  0.2072  0.2864
 4478TIP3    H134993   6.313   2.067   7.326 -0.0797  0.9691 -1.3731
 4478TIP3    H234994   6.291   2.217   7.328  0.9705  1.1239  0.1184
 4479TIP3   OH234995   2.880   5.728   8.678 -0.4744 -1.2236  0.1258
 4479TIP3    H134996   2.786   5.713   8.666 -0.7149 -0.2066  0.5875
 4479TIP3    H234997   2.913   5.741   8.589 -1.5401  2.3876  0.1033
 4480TIP3   OH234998   1.676   3.400   6.599  0.0918  0.3184 -0.0654
 4480TIP3    H134999   1.713   3.378   6.514  0.0332 -2.0245  0.4327
 4480TIP3    H235000   1.727   3.349   6.661 -2.3651 -1.2347  0.8652
 4481TIP3   OH235001   0.845   6.038   8.136 -0.0985  0.8596  0.7689
 4481TIP3    H135002   0.786   6.098   8.182 -0.7880  0.6809  0.1417
 4481TIP3    H235003   0.815   6.041   8.045  0.6318  0.4784  0.5120
 4482TIP3   OH235004   2.819   2.412   1.474  0.4606 -0.0426 -0.2366
 4482TIP3    H135005   2.902   2.440   1.438  0.7815 -0.9859 -0.2565
 4482TIP3    H235006   2.777   2.493   1.504  2.3533  0.2662  1.8762
 4483TIP3   OH235007   2.909   5.177   7.816 -0.0142 -0.5781 -0.0183
 4483TIP3    H135008   2.843   5.130   7.765  0.3787 -1.4221  0.2322
 4483TIP3    H235009   2.948   5.109   7.872  1.0845 -0.0916 -0.1876
 4484TIP3   OH235010   4.825   5.927   0.762  0.3028 -0.5604 -0.5981
 4484TIP3    H135011   4.770   5.886   0.695 -0.5565  0.9135 -0.8682
 4484TIP3    H235012   4.914   5.921   0.728  0.0021 -0.7767 -1.3646
 4485TIP3   OH235013   0.647   6.063   0.409 -0.1278  0.4058  0.4623
 4485TIP3    H135014   0.574   6.009   0.381  0.2015  0.2516 -0.1190
 4485TIP3    H235015   0.624   6.152   0.381  1.1597 -0.0385 -2.3857
 4486TIP3   OH235016   2.789   0.363   7.383 -0.4819  0.5881  0.3877
 4486TIP3    H135017   2.849   0.431   7.351  0.0906  0.4618  1.1699
 4486TIP3    H235018   2.846   0.290   7.407 -1.1931 -1.0493 -2.4163
 4487TIP3   OH235019   4.815   4.408   6.836  0.1307 -0.2849  0.0823
 4487TIP3    H135020   4.836   4.392   6.744  0.6075 -0.3820  0.2098
 4487TIP3    H235021   4.720   4.396   6.841  0.1687 -0.7489 -0.2968
 4488TIP3   OH235022   5.762   0.731   7.433  0.1526 -0.2360 -0.1335
 4488TIP3    H135023   5.754   0.794   7.361 -0.0742 -0.1859 -0.0655
 4488TIP3    H235024   5.724   0.650   7.398 -0.6133 -0.0184  0.1639
 4489TIP3   OH235025   2.608   3.490   1.257  0.4823 -0.7177 -0.7253
 4489TIP3    H135026   2.566   3.569   1.291  0.1488 -0.7698 -1.0169
 4489TIP3    H235027   2.536   3.434   1.230  0.7090 -1.1926 -0.3709
 4490TIP3   OH235028   4.649   1.889   6.993 -0.3775 -0.2412 -1.0160
 4490TIP3    H135029   4.572   1.890   6.935 -0.6570 -0.5694 -0.6622
 4490TIP3    H235030   4.715   1.839   6.945 -1.1809 -2.0103 -0.3697
 4491TIP3   OH235031   1.929   1.829   6.884  0.0869 -0.1005  0.9009
 4491TIP3    H135032   1.985   1.865   6.815 -2.3266 -1.0436 -1.7569
 4491TIP3    H235033   1.982   1.835   6.963  3.6149 -0.2415 -1.2287
 4492TIP3   OH235034   2.817   6.565   1.561  0.4557 -0.0155  0.2386
 4492TIP3    H135035   2.799   6.519   1.643  2.6080  0.7304  1.2313
 4492TIP3    H235036   2.818   6.496   1.495 -0.2565 -0.8047  1.0174
 4493TIP3   OH235037   3.171   0.485   2.040 -0.4517 -0.6557 -0.3528
 4493TIP3    H135038   3.206   0.427   2.107 -1.2392 -0.7245  0.0011
 4493TIP3    H235039   3.151   0.428   1.966 -1.1619 -0.8358 -0.0294
 4494TIP3   OH235040   4.971   3.549   5.563  0.2113  0.2526 -0.6372
 4494TIP3    H135041   5.016   3.465   5.555  0.4407  0.3489 -0.3584
 4494TIP3    H235042   4.968   3.566   5.657 -1.1569 -0.1655 -0.5807
 4495TIP3   OH235043   5.196   5.241   6.140  0.3793 -0.9115  0.2301
 4495TIP3    H135044   5.199   5.162   6.087  2.9614 -3.4438  3.6856
 4495TIP3    H235045   5.139   5.219   6.214  0.0921  0.9911  0.6438
 4496TIP3   OH235046   1.665   4.409   7.089 -0.4034  0.1951  0.5514
 4496TIP3    H135047   1.701   4.478   7.034 -1.6356 -0.0839 -0.6534
 4496TIP3    H235048   1.733   4.341   7.090 -0.1985  0.3832 -0.2954
 4497TIP3   OH235049   2.706   3.232   8.005 -0.1790  0.4622 -0.2462
 4497TIP3    H135050   2.613   3.247   7.991  0.0156  1.0309 -1.0380
 4497TIP3    H235051   2.747   3.260   7.923  0.7784  1.1729  0.4426
 4498TIP3   OH235052   2.466   0.191   8.134 -0.0948 -0.1722  0.4884
 4498TIP3    H135053   2.480   0.232   8.219  0.6834 -0.0475  0.3080
 4498TIP3    H235054   2.439   0.102   8.155 -0.1501 -0.0685  0.8699
 4499TIP3   OH235055   6.421   3.534   0.660 -0.3396  0.2127 -0.1646
 4499TIP3    H135056   6.338   3.577   0.679 -0.1627  1.1697 -1.3931
 4499TIP3    H235057   6.397   3.450   0.620 -0.7563  0.7794 -1.1503
 4500TIP3   OH235058   5.436   1.494   5.708  0.3921 -0.0387  0.2677
 4500TIP3    H135059   5.397   1.488   5.621  1.4313 -0.3089 -0.2015
 4500TIP3    H235060   5.429   1.586   5.731  1.2705  0.2836 -0.6774
 4501TIP3   OH235061   3.379   2.720   0.680  0.0503 -0.4079  0.1255
 4501TIP3    H135062   3.454   2.742   0.625 -0.5384  0.0525 -0.4957
 4501TIP3    H235063   3.337   2.803   0.699 -0.2305 -0.6499  0.5858
 4502TIP3   OH235064   1.468   0.638   1.033  1.0208 -0.2420 -0.5602
 4502TIP3    H135065   1.403   0.608   1.096 -0.9288  1.1073 -1.8139
 4502TIP3    H235066   1.473   0.569   0.968  0.0534  0.0628 -0.9786
 4503TIP3   OH235067   6.583   0.381   6.769  0.4252  0.1498  0.3160
 4503TIP3    H135068   6.557   0.450   6.709 -3.1364 -0.5756  0.7665
 4503TIP3    H235069   6.589   0.424   6.854 -1.2536  0.1078  0.5007
 4504TIP3   OH235070   3.322   0.583   7.818  0.1825  0.0591  0.5674
 4504TIP3    H135071   3.335   0.569   7.912 -0.0615 -1.7092  0.3685
 4504TIP3    H235072   3.232   0.554   7.802 -0.4690  2.1867  0.1030
 4505TIP3   OH235073   6.017   0.966   7.030  0.2603 -0.2098 -0.5102
 4505TIP3    H135074   5.940   0.913   7.048  0.1963 -0.9180 -2.6004
 4505TIP3    H235075   5.983   1.042   6.982  0.6030  0.6977  0.6495
 4506TIP3   OH235076   3.903   1.027   0.778 -0.5494 -0.3395  0.4396
 4506TIP3    H135077   3.914   0.974   0.699  0.7085  1.7246 -0.8543
 4506TIP3    H235078   3.934   0.971   0.849  0.2988 -1.5040 -0.8052
 4507TIP3   OH235079   3.561   5.632   0.248  0.1846  0.5565 -0.1821
 4507TIP3    H135080   3.600   5.718   0.264 -1.0777  1.0275  0.5612
 4507TIP3    H235081   3.612   5.572   0.302  0.5637  0.9718 -0.0708
 4508TIP3   OH235082   3.083   4.925   7.060 -0.4210  0.1427 -0.0700
 4508TIP3    H135083   3.096   4.898   7.151 -0.1149  1.3720  0.2690
 4508TIP3    H235084   2.991   4.906   7.042 -0.7923  0.9476  0.8767
 4509TIP3   OH235085   0.055   6.003   1.657 -0.1993 -0.1401  0.1411
 4509TIP3    H135086  -0.040   5.991   1.653 -0.0785 -0.8233 -1.5154
 4509TIP3    H235087   0.086   5.927   1.707 -0.3841 -1.0598 -1.0806
 4510TIP3   OH235088   6.589   3.112   2.138  0.7389  0.6862 -0.0642
 4510TIP3    H135089   6.663   3.133   2.081 -0.0579  1.4113 -0.8738
 4510TIP3    H235090   6.610   3.155   2.221  2.6429 -1.6727  0.7630
 4511TIP3   OH235091   6.701   6.352   5.845  0.1260  0.3502 -0.8885
 4511TIP3    H135092   6.743   6.436   5.825 -0.3162  0.9480  0.5997
 4511TIP3    H235093   6.619   6.375   5.888  0.1414 -0.8582 -0.1704
 4512TIP3   OH235094   4.462   6.680   1.068  0.2906  0.3184  0.5514
 4512TIP3    H135095   4.471   6.754   1.129  1.1244 -0.6504  1.6523
 4512TIP3    H235096   4.427   6.609   1.122  0.2500 -0.3246 -0.3047
 4513TIP3   OH235097   0.823   5.525   0.511 -0.4192 -0.6601  0.2411
 4513TIP3    H135098   0.735   5.541   0.547  0.0088  0.2066  0.9603
 4513TIP3    H235099   0.840   5.433   0.529 -1.4486 -1.0156 -0.5234
 4514TIP3   OH235100   2.385   1.461   1.484  0.4047 -0.1012  0.3878
 4514TIP3    H135101   2.380   1.365   1.484  3.4888 -0.4042 -2.1858
 4514TIP3    H235102   2.413   1.483   1.573  0.2852 -1.6044  0.8352
 4515TIP3   OH235103   5.676   0.183   1.354  0.1446  0.1636  0.3988
 4515TIP3    H135104   5.649   0.180   1.446 -0.0560  1.4272  0.4057
 4515TIP3    H235105   5.691   0.276   1.337 -0.1553 -0.0198 -0.9473
 4516TIP3   OH235106   3.006   2.359   0.978 -0.2457  0.3228 -0.1601
 4516TIP3    H135107   2.985   2.271   1.010 -0.0918  0.5946  0.7005
 4516TIP3    H235108   3.101   2.358   0.967 -0.2859  0.2637 -0.5393
 4517TIP3   OH235109   3.910   6.185   8.664  0.3314  0.4688 -0.3911
 4517TIP3    H135110   3.856   6.257   8.698 -0.2575 -0.5036  0.8414
 4517TIP3    H235111   3.961   6.224   8.593 -1.6910  1.5471 -1.3362
 4518TIP3   OH235112   5.260   2.456   6.991  0.5681  0.4943  0.3857
 4518TIP3    H135113   5.316   2.509   6.934 -0.5109 -0.3451 -1.5460
 4518TIP3    H235114   5.259   2.504   7.074  3.5468  0.8863  0.3108
 4519TIP3   OH235115   4.911   6.704   1.912  0.1941  0.3021 -0.1312
 4519TIP3    H135116   4.950   6.792   1.922  1.3656 -0.0293 -1.4345
 4519TIP3    H235117   4.951   6.653   1.982  0.6773  0.4372 -0.3029
 4520TIP3   OH235118   6.280   1.239   1.079 -0.1278 -0.2362  0.2606
 4520TIP3    H135119   6.360   1.229   1.028 -0.7495  0.1143 -0.8222
 4520TIP3    H235120   6.210   1.215   1.018 -0.8278 -0.8933  1.3012
 4521TIP3   OH235121   2.279   4.916   1.759 -0.0007  0.4171 -0.3090
 4521TIP3    H135122   2.300   4.989   1.700 -0.1895  0.4393 -0.3494
 4521TIP3    H235123   2.349   4.852   1.744  0.8532  1.1041  0.6118
 4522TIP3   OH235124   2.204   6.107   0.094 -0.0776 -0.0101  0.5677
 4522TIP3    H135125   2.267   6.092   0.023 -0.2451 -0.7773  0.5633
 4522TIP3    H235126   2.172   6.196   0.080  0.2619  0.0255 -0.0226
 4523TIP3   OH235127   5.458   4.473   7.726  0.1142  0.6032  0.0883
 4523TIP3    H135128   5.493   4.452   7.812  2.5206  1.1771 -0.6731
 4523TIP3    H235129   5.509   4.419   7.665 -1.8564 -0.1493 -0.9919
 4524TIP3   OH235130   1.966   6.680   8.112  0.9622 -0.1217 -0.0500
 4524TIP3    H135131   2.028   6.750   8.131  0.5561  0.5961 -1.2495
 4524TIP3    H235132   2.020   6.607   8.082  1.2991  0.1147 -0.0150
 4525TIP3   OH235133   2.619   1.169   1.844  0.1501 -1.1792  0.6562
 4525TIP3    H135134   2.703   1.199   1.878  0.6197  0.7421 -1.8648
 4525TIP3    H235135   2.642   1.103   1.778  0.0439  1.3235 -2.0712
 4526TIP3   OH235136   0.169   4.718   8.002  0.0521 -0.4471 -0.2585
 4526TIP3    H135137   0.100   4.769   8.044  1.0744 -0.8850  2.0852
 4526TIP3    H235138   0.146   4.627   8.021  0.2637 -0.6941 -1.1465
 4527TIP3   OH235139   2.886   5.014   8.434 -0.2076 -0.5074 -0.0206
 4527TIP3    H135140   2.839   5.020   8.517 -0.0753 -0.3564  0.0433
 4527TIP3    H235141   2.826   5.054   8.370 -0.5128 -1.0656 -0.0826
 4528TIP3   OH235142   4.308   5.400   1.813  0.7003 -0.2787  0.0336
 4528TIP3    H135143   4.225   5.365   1.846 -0.0796  0.7680 -0.7242
 4528TIP3    H235144   4.353   5.432   1.891 -0.4703  0.8469  0.2920
 4529TIP3   OH235145   5.477   1.663   8.604 -0.3964 -0.3840 -0.0178
 4529TIP3    H135146   5.528   1.667   8.523  1.5187 -4.0442  0.8092
 4529TIP3    H235147   5.526   1.717   8.666  1.3494 -2.0509  0.1358
 4530TIP3   OH235148   4.445   4.108   1.276 -0.6032  0.3336 -0.7203
 4530TIP3    H135149   4.482   4.022   1.298 -1.1510  0.1678 -0.3927
 4530TIP3    H235150   4.486   4.169   1.337  1.0521  0.6123 -2.0564
 4531TIP3   OH235151   6.677   2.929   7.499  0.4084 -0.1801 -0.3953
 4531TIP3    H135152   6.725   2.983   7.435  2.3949  0.7819  1.7427
 4531TIP3    H235153   6.625   2.992   7.549  0.8450 -0.5481  0.5437
 4532TIP3   OH235154   3.701   6.199   8.385  0.3898 -0.1220 -0.2474
 4532TIP3    H135155   3.636   6.160   8.443  0.1101  0.2706 -0.3016
 4532TIP3    H235156   3.707   6.137   8.312 -1.5171  0.8798 -1.3319
 4533TIP3   OH235157   6.579   3.774   0.686 -0.1387 -0.1310 -0.4072
 4533TIP3    H135158   6.670   3.756   0.661 -0.1488 -2.2487  0.8654
 4533TIP3    H235159   6.535   3.690   0.678 -1.7922  0.6615 -0.0839
 4534TIP3   OH235160   1.426   6.600   1.013 -0.4417 -0.1718 -0.0424
 4534TIP3    H135161   1.520   6.586   1.004  0.0024  2.2572  0.2719
 4534TIP3    H235162   1.415   6.627   1.104 -0.9596  2.5097 -0.8207
 4535TIP3   OH235163   3.117   2.717   5.861  0.3730  0.4404  0.1874
 4535TIP3    H135164   3.057   2.657   5.906  0.1984 -0.8781 -1.6671
 4535TIP3    H235165   3.104   2.801   5.905 -2.0578 -0.0512  0.5814
 4536TIP3   OH235166   5.506   5.647   0.838  0.2796  0.2472  0.1728
 4536TIP3    H135167   5.416   5.676   0.825  0.3473  0.1714 -0.5495
 4536TIP3    H235168   5.522   5.657   0.932 -0.4873  0.2289  0.3113
 4537TIP3   OH235169   0.529   2.966   8.597 -0.4505  0.2657  0.5570
 4537TIP3    H135170   0.474   2.982   8.674 -0.0750 -0.4139  0.9760
 4537TIP3    H235171   0.590   2.899   8.625 -0.7848 -0.5389 -0.5793
 4538TIP3   OH235172   1.205   6.780   7.734  0.5782 -0.7026 -0.1937
 4538TIP3    H135173   1.114   6.807   7.732  0.4996 -0.8989  0.4275
 4538TIP3    H235174   1.252   6.858   7.764  0.5517 -0.7497 -0.0273
 4539TIP3   OH235175   4.573   3.255   8.471  0.7920 -0.1026 -0.1978
 4539TIP3    H135176   4.482   3.246   8.442  0.6522  0.2122  0.1316
 4539TIP3    H235177   4.617   3.301   8.399  0.2572  1.4288  0.3969
 4540TIP3   OH235178   4.091   6.075   1.425  0.4300 -0.4495 -0.6374
 4540TIP3    H135179   4.018   6.102   1.480 -0.7575 -1.4487 -1.6448
 4540TIP3    H235180   4.087   5.979   1.424 -0.0721 -0.4805 -2.9702
 4541TIP3   OH235181   0.507   4.210   7.437 -0.2015 -0.3343 -0.9198
 4541TIP3    H135182   0.525   4.116   7.436  3.8970  0.2763 -1.3174
 4541TIP3    H235183   0.578   4.249   7.387 -2.0937  3.0053 -1.3205
 4542TIP3   OH235184   2.992   0.807   7.553  0.4932  0.0582  0.8968
 4542TIP3    H135185   2.927   0.828   7.620 -1.0361  0.2580 -0.5807
 4542TIP3    H235186   2.998   0.887   7.501  0.2953 -0.6800 -0.2775
 4543TIP3   OH235187   1.329   0.388   8.792 -0.1791 -0.6493 -0.4121
 4543TIP3    H135188   1.414   0.410   8.755 -0.1434 -2.8980 -1.8745
 4543TIP3    H235189   1.331   0.292   8.803 -2.2946 -0.6980  0.0667
 4544TIP3   OH235190   0.849   6.638   8.310  0.5911 -0.4739  0.5322
 4544TIP3    H135191   0.866   6.563   8.252  3.6588  1.5419 -1.5138
 4544TIP3    H235192   0.782   6.689   8.264  0.4201 -0.6495  0.5867
 4545TIP3   OH235193   0.551   4.208   7.027 -0.2236  0.6255  0.2240
 4545TIP3    H135194   0.628   4.156   7.053  0.2676  1.2292 -0.0024
 4545TIP3    H235195   0.572   4.297   7.056 -0.5603  0.9148 -0.4123
 4546TIP3   OH235196   2.964   1.297   0.748 -0.1815 -0.2093 -0.3132
 4546TIP3    H135197   3.052   1.259   0.758  0.3254  0.8350 -0.6521
 4546TIP3    H235198   2.980   1.383   0.710 -1.2223  0.7854  1.4092
 4547TIP3   OH235199   2.984   6.288   6.519  0.4474 -1.0235  0.0063
 4547TIP3    H135200   2.952   6.343   6.591  0.7979 -0.0435 -0.5536
 4547TIP3    H235201   2.969   6.199   6.548 -1.4868 -0.6233  0.3477
 4548TIP3   OH235202   4.460   2.461   7.068 -0.0324  0.5357 -0.1157
 4548TIP3    H135203   4.525   2.465   6.998  0.2420 -0.6761  0.0503
 4548TIP3    H235204   4.462   2.370   7.098  2.1597  1.6014  3.6339
 4549TIP3   OH235205   0.357   4.784   1.472  0.0316 -0.1817 -0.4384
 4549TIP3    H135206   0.351   4.793   1.377 -0.8822  0.9159 -0.2968
 4549TIP3    H235207   0.393   4.868   1.502 -1.5495  0.2561  0.3334
 4550TIP3   OH235208   3.278   0.457   7.488 -0.0090  0.1852  0.3701
 4550TIP3    H135209   3.196   0.473   7.536 -0.8981 -1.3060 -0.5559
 4550TIP3    H235210   3.296   0.540   7.444  1.5128  2.0625  4.0522
 4551TIP3   OH235211   0.734   6.008   7.869  0.0504 -0.3777 -0.2247
 4551TIP3    H135212   0.639   6.018   7.868 -0.1262 -1.8305  0.1426
 4551TIP3    H235213   0.752   5.939   7.804  0.8335 -0.2659 -0.1378
 4552TIP3   OH235214   3.218   5.820   1.049 -0.0664 -0.0667  0.1357
 4552TIP3    H135215   3.259   5.901   1.018 -0.6111 -0.5524 -1.9710
 4552TIP3    H235216   3.264   5.750   1.002 -1.8136 -0.7607 -0.6011
 4553TIP3   OH235217   6.560   1.341   7.245  0.4908 -0.3773 -0.2583
 4553TIP3    H135218   6.557   1.307   7.156 -0.7415  2.1635 -1.2995
 4553TIP3    H235219   6.621   1.415   7.240  0.3204 -0.1305  0.9819
 4554TIP3   OH235220   4.169   4.971   5.809  0.3634  0.3671  0.3376
 4554TIP3    H135221   4.096   4.909   5.803  0.7918 -0.1256  0.0872
 4554TIP3    H235222   4.175   5.010   5.721  1.6762 -1.1005 -0.2936
 4555TIP3   OH235223   3.095   5.600   7.190  0.8011 -0.1989  0.1778
 4555TIP3    H135224   3.051   5.582   7.107  1.1492 -0.3303  0.0156
 4555TIP3    H235225   3.185   5.622   7.165  0.0103  3.7315  0.1793
 4556TIP3   OH235226   2.253   2.038   0.332 -0.3921  0.2097 -0.4472
 4556TIP3    H135227   2.318   2.101   0.301  1.4549 -1.2887  0.2401
 4556TIP3    H235228   2.282   2.014   0.419 -1.5972 -0.8866 -0.3176
 4557TIP3   OH235229   1.155   2.533   6.323 -0.1580 -0.6002 -0.2208
 4557TIP3    H135230   1.233   2.587   6.312 -1.0161  0.8368  0.3949
 4557TIP3    H235231   1.083   2.589   6.294 -0.9322 -2.0843 -1.3172
 4558TIP3   OH235232   6.458   6.433   1.998  0.3062  0.3045 -0.2076
 4558TIP3    H135233   6.441   6.370   2.067 -0.1866  1.5357  0.8384
 4558TIP3    H235234   6.538   6.402   1.956 -0.5774 -1.6647 -0.5476
 4559TIP3   OH235235   3.516   1.759   7.121  0.1057  0.3821 -0.2788
 4559TIP3    H135236   3.593   1.787   7.170  0.6492 -1.6985  0.1867
 4559TIP3    H235237   3.539   1.770   7.029  2.5681 -3.5220 -0.3815
 4560TIP3   OH235238   6.113   1.607   8.384  0.1295 -0.6193 -0.4873
 4560TIP3    H135239   6.108   1.526   8.335  0.0201 -0.2541 -1.0825
 4560TIP3    H235240   6.162   1.584   8.463  0.9550 -1.0448 -1.1129
 4561TIP3   OH235241   3.507   5.192   5.991 -0.4191  0.5816  0.0752
 4561TIP3    H135242   3.588   5.159   6.029 -0.0974 -0.2486 -1.2608
 4561TIP3    H235243   3.487   5.271   6.042  1.1635  0.7430  0.4975
 4562TIP3   OH235244   6.200   2.850   0.882  0.0825 -0.2357  1.0772
 4562TIP3    H135245   6.286   2.859   0.841 -0.8063  0.7437 -0.6461
 4562TIP3    H235246   6.177   2.938   0.910 -2.1085  0.4114 -2.2532
 4563TIP3   OH235247   6.487   5.794   8.039  0.1808  0.2409  0.2831
 4563TIP3    H135248   6.462   5.728   8.104  1.7370 -0.0414  0.6482
 4563TIP3    H235249   6.576   5.769   8.013 -0.5172  0.1549 -2.2239
 4564TIP3   OH235250   5.485   3.744   8.489 -0.9768 -0.1386 -0.1982
 4564TIP3    H135251   5.448   3.718   8.574  2.0533 -1.1213  0.9746
 4564TIP3    H235252   5.497   3.661   8.443  1.0040 -0.0657  0.0969
 4565TIP3   OH235253   4.116   5.308   7.617 -0.9890 -0.0680 -0.5220
 4565TIP3    H135254   4.031   5.265   7.624 -0.8686 -0.1250  1.2162
 4565TIP3    H235255   4.106   5.372   7.547 -2.2494 -0.5468 -0.8023
 4566TIP3   OH235256   1.938   4.888   7.934 -0.0424  0.1490 -0.0719
 4566TIP3    H135257   1.975   4.963   7.981 -0.7059 -0.7545  2.0194
 4566TIP3    H235258   1.845   4.890   7.955 -0.0844 -1.1929 -0.0553
 4567TIP3   OH235259   3.965   3.325   5.739 -0.1377 -0.3336  0.2836
 4567TIP3    H135260   3.927   3.401   5.783  0.1972 -1.3416  2.4956
 4567TIP3    H235261   4.059   3.338   5.746 -0.0656 -0.2121 -0.7655
 4568TIP3   OH235262   5.690   4.082   7.924  0.1636  0.2699  0.0894
 4568TIP3    H135263   5.632   4.157   7.932  1.3500  1.2365 -0.1560
 4568TIP3    H235264   5.753   4.106   7.856  0.1079 -1.2578 -0.5550
 4569TIP3   OH235265   3.688   6.061   8.140  0.4023  0.2331  1.1089
 4569TIP3    H135266   3.753   5.993   8.124  0.4340  0.3976  0.5135
 4569TIP3    H235267   3.604   6.016   8.139  0.3868  0.2719  0.2315
 4570TIP3   OH235268   5.208   2.538   1.574 -0.0715  0.0779  0.4871
 4570TIP3    H135269   5.284   2.492   1.538  1.1180  0.4836  2.3155
 4570TIP3    H235270   5.229   2.550   1.667 -2.7877 -0.5666  1.2752
 4571TIP3   OH235271   4.637   0.147   6.983 -0.2419  0.6289 -0.5934
 4571TIP3    H135272   4.665   0.058   6.965 -1.2841  0.0649  0.4550
 4571TIP3    H235273   4.707   0.184   7.037 -0.0854  0.2543 -0.5387
 4572TIP3   OH235274   1.171   6.081   0.634 -0.3650 -0.3921  0.6190
 4572TIP3    H135275   1.242   6.124   0.680  0.2533 -0.3858 -0.3096
 4572TIP3    H235276   1.143   6.010   0.692  0.4232 -0.4175  0.9704
 4573TIP3   OH235277   5.239   6.407   6.802  0.4591  0.1124 -0.7309
 4573TIP3    H135278   5.195   6.334   6.759 -0.8314  1.8155 -2.5165
 4573TIP3    H235279   5.307   6.434   6.741 -0.9343  2.1288 -1.4878
 4574TIP3   OH235280   4.065   5.365   1.633  0.1597  0.5763  0.1040
 4574TIP3    H135281   4.061   5.455   1.601 -1.1238  0.4836 -0.0785
 4574TIP3    H235282   4.078   5.373   1.727  3.1946  0.8668 -0.2470
 4575TIP3   OH235283   0.926   0.275   7.463  0.3560  0.0367  0.0309
 4575TIP3    H135284   0.832   0.256   7.464  0.2343  0.6433  0.3792
 4575TIP3    H235285   0.967   0.192   7.438 -0.1107 -0.9477  2.2600
 4576TIP3   OH235286   5.117   1.990   1.152  0.6165 -0.0881  0.2954
 4576TIP3    H135287   5.133   2.082   1.134  0.3857 -0.4563 -2.2465
 4576TIP3    H235288   5.198   1.959   1.193  0.3904  1.3760  1.9093
 4577TIP3   OH235289   0.021   3.229   8.821 -0.1652 -0.6121  0.5121
 4577TIP3    H135290   0.014   3.250   8.915 -1.0666  0.3774  0.2449
 4577TIP3    H235291   0.091   3.286   8.789 -1.4882  0.8743  0.1245
 4578TIP3   OH235292   5.048   6.744   7.899  0.1755  0.2362 -0.4894
 4578TIP3    H135293   5.105   6.723   7.825  1.6689 -0.3888  0.7663
 4578TIP3    H235294   4.966   6.697   7.880  0.1645  0.8681 -2.1683
 4579TIP3   OH235295   0.217   4.987   7.375  0.1249 -0.2171  0.4958
 4579TIP3    H135296   0.278   5.047   7.333  0.8446  0.0760  1.9020
 4579TIP3    H235297   0.214   4.911   7.316  1.4242 -0.0050  0.1273
 4580TIP3   OH235298   0.091   2.568   7.441  0.0894  0.2977 -0.0383
 4580TIP3    H135299   0.046   2.634   7.388  1.2921  1.2736  0.1131
 4580TIP3    H235300   0.035   2.555   7.517  0.6182  2.4690  0.8089
 4581TIP3   OH235301   1.174   5.018   8.232 -0.1301  0.1718 -0.1284
 4581TIP3    H135302   1.175   5.109   8.264  0.4644  0.2220 -0.2742
 4581TIP3    H235303   1.115   4.972   8.292  1.8897 -0.0017  1.8313
 4582TIP3   OH235304   6.133   1.834   2.133  0.2668 -0.3444  0.1867
 4582TIP3    H135305   6.066   1.817   2.199 -0.3355 -0.0261 -0.3268
 4582TIP3    H235306   6.095   1.903   2.078  1.2058  0.1611  0.1543
 4583TIP3   OH235307   2.001   3.138   7.492  0.1118 -0.1617  0.6936
 4583TIP3    H135308   2.084   3.168   7.453  0.1090  1.0721  1.5718
 4583TIP3    H235309   2.025   3.062   7.545  0.3431 -0.9976 -0.5694
 4584TIP3   OH235310   2.936   5.375   1.313  0.4510  0.1965 -0.0071
 4584TIP3    H135311   2.893   5.321   1.380 -1.4614 -0.3533 -1.5644
 4584TIP3    H235312   2.872   5.444   1.294  2.3552  2.3907  1.0750
 4585TIP3   OH235313   1.200   3.477   0.977 -0.0194  0.4735  0.1921
 4585TIP3    H135314   1.116   3.507   0.943 -0.4557 -1.5330 -0.6328
 4585TIP3    H235315   1.252   3.458   0.899  0.1910 -0.9396  0.6532
 4586TIP3   OH235316   4.951   3.809   8.054 -0.5458  0.4681 -0.2250
 4586TIP3    H135317   4.991   3.891   8.085 -2.9757  1.9037 -0.6765
 4586TIP3    H235318   4.945   3.819   7.959 -0.0410 -0.6641 -0.3924
 4587TIP3   OH235319   5.263   2.812   7.830  0.4997 -0.6445  0.8061
 4587TIP3    H135320   5.172   2.825   7.857  0.7595 -0.7708  1.7687
 4587TIP3    H235321   5.267   2.849   7.742 -0.0564  0.9441  1.4094
 4588TIP3   OH235322   3.030   5.367   1.021 -0.0712 -0.2159 -0.0269
 4588TIP3    H135323   2.967   5.420   1.069  0.9297  0.6118  0.3957
 4588TIP3    H235324   3.038   5.410   0.936  0.8712  0.4424  0.3782
 4589TIP3   OH235325   6.431   3.565   7.529 -0.0796 -0.3287 -0.6748
 4589TIP3    H135326   6.339   3.585   7.543  0.0144 -0.2680 -0.1097
 4589TIP3    H235327   6.467   3.643   7.486  0.4965  1.2178  2.3326
 4590TIP3   OH235328   0.394   1.105   0.620 -0.0059 -0.7052  0.1391
 4590TIP3    H135329   0.317   1.108   0.563  1.0738 -0.4085 -1.3763
 4590TIP3    H235330   0.402   1.193   0.656 -0.0651 -0.5927 -0.1240
 4591TIP3   OH235331   3.169   5.117   8.619 -0.1466 -0.0644  0.1104
 4591TIP3    H135332   3.101   5.184   8.629 -1.2208 -1.2552  1.1931
 4591TIP3    H235333   3.243   5.150   8.670 -0.6396  0.3495  0.5753
 4592TIP3   OH235334   5.414   1.952   1.156  0.1422 -0.1582 -0.3503
 4592TIP3    H135335   5.474   1.888   1.193 -0.0606 -0.0585  0.1680
 4592TIP3    H235336   5.404   2.018   1.225  1.6839  1.3564 -1.4886
 4593TIP3   OH235337   5.842   6.146   7.076  0.2089  0.0271  0.0463
 4593TIP3    H135338   5.804   6.230   7.098  0.6731  0.1489  0.3941
 4593TIP3    H235339   5.881   6.114   7.157 -0.0814 -0.5892 -0.0459
 4594TIP3   OH235340   0.702   6.780   0.680  0.3478 -0.4590  0.0889
 4594TIP3    H135341   0.796   6.763   0.673  0.4715  0.3258 -0.2099
 4594TIP3    H235342   0.694   6.835   0.757  0.0797 -0.8999  0.3760
 4595TIP3   OH235343   3.458   1.174   6.138  0.3085 -0.2272  0.0314
 4595TIP3    H135344   3.525   1.171   6.070 -0.0378  0.7636 -0.3797
 4595TIP3    H235345   3.506   1.186   6.220  0.6457  0.1363 -0.2185
 4596TIP3   OH235346   5.837   2.492   1.959 -0.6401 -0.0209 -0.3958
 4596TIP3    H135347   5.789   2.519   2.037  3.0549  1.0212  1.7659
 4596TIP3    H235348   5.851   2.574   1.910 -0.5339 -0.2004 -0.6712
 4597TIP3   OH235349   5.753   0.945   0.933 -0.2542  0.3429 -0.2266
 4597TIP3    H135350   5.840   0.954   0.973  0.3254  0.3993 -1.4520
 4597TIP3    H235351   5.770   0.909   0.846 -1.5333 -0.4284 -0.1862
 4598TIP3   OH235352   0.253   4.667   0.473  0.0478 -0.3794  0.1600
 4598TIP3    H135353   0.276   4.575   0.487 -0.3832 -0.6696 -0.9469
 4598TIP3    H235354   0.287   4.712   0.551 -1.0820 -1.6746  1.4622
 4599TIP3   OH235355   2.439   6.365   7.248  0.3123 -0.1831 -0.4104
 4599TIP3    H135356   2.412   6.403   7.332  2.5206 -0.5565  0.5233
 4599TIP3    H235357   2.403   6.276   7.249  0.7825 -0.3736  0.3983
 4600TIP3   OH235358   6.260   6.654   6.940 -0.4066  0.7865  0.6036
 4600TIP3    H135359   6.354   6.637   6.935 -0.2747  1.7011 -0.4890
 4600TIP3    H235360   6.253   6.746   6.965 -0.9903  0.9920 -0.2666
 4601TIP3   OH235361   5.610   4.337   7.084  0.2246  0.1734  0.3627
 4601TIP3    H135362   5.657   4.414   7.052 -0.3876  0.0017 -1.0541
 4601TIP3    H235363   5.642   4.266   7.028  0.2813 -0.4755  1.2028
 4602TIP3   OH235364   0.178   2.812   1.502  0.1532  0.2529 -0.6759
 4602TIP3    H135365   0.196   2.720   1.484 -1.2220 -0.1379 -0.2174
 4602TIP3    H235366   0.161   2.815   1.596  1.1710  1.1701 -0.4992
 4603TIP3   OH235367   3.545   3.082   6.979 -0.4929  0.3947 -0.6045
 4603TIP3    H135368   3.500   3.000   6.999 -0.0711  0.4739  0.7302
 4603TIP3    H235369   3.522   3.140   7.051  0.4419  0.9633 -0.7559
 4604TIP3   OH235370   3.471   3.331   7.086  0.0809  0.6147 -0.1919
 4604TIP3    H135371   3.459   3.357   7.177  0.0291 -0.8622  0.2485
 4604TIP3    H235372   3.382   3.312   7.055  0.1520  0.5934 -0.3844
 4605TIP3   OH235373   5.498   1.379   1.706 -0.0570  0.4768  0.7178
 4605TIP3    H135374   5.427   1.443   1.697  0.7730  1.3691  0.3132
 4605TIP3    H235375   5.527   1.389   1.796 -0.9380 -0.4418  1.1200
 4606TIP3   OH235376   0.352   3.808   0.225 -0.5783 -0.5705 -0.2739
 4606TIP3    H135377   0.439   3.782   0.253 -0.9638 -0.2703  1.3162
 4606TIP3    H235378   0.365   3.850   0.140  0.7541 -0.9128 -0.2547
 4607TIP3   OH235379   6.725   2.546   0.557  0.2587  0.3994 -0.4590
 4607TIP3    H135380   6.805   2.526   0.508  1.9693 -0.0535  2.2394
 4607TIP3    H235381   6.752   2.614   0.619 -0.8151 -1.1469  1.8765
 4608TIP3   OH235382   0.675   6.481   8.086 -0.9620 -0.4966  0.1352
 4608TIP3    H135383   0.703   6.567   8.055 -0.6725 -0.6887 -0.1486
 4608TIP3    H235384   0.694   6.422   8.013 -0.2925 -0.9549  0.6605
 4609TIP3   OH235385   6.059   6.591   0.940  0.0340 -0.2247 -0.1600
 4609TIP3    H135386   6.154   6.596   0.936  0.1152  1.1906  1.8995
 4609TIP3    H235387   6.029   6.662   0.882  0.2358 -0.1996 -0.2348
 4610TIP3   OH235388   5.738   3.618   8.305 -0.1154 -0.2635  0.2285
 4610TIP3    H135389   5.781   3.692   8.348 -1.2815  0.7263 -0.2518
 4610TIP3    H235390   5.702   3.566   8.376  0.3288 -0.1303  0.5553
 4611TIP3   OH235391   6.347   4.231   0.956  0.1896  0.0098 -0.1368
 4611TIP3    H135392   6.285   4.254   0.886  0.5400 -0.8220 -0.7285
 4611TIP3    H235393   6.382   4.146   0.930  1.6409  0.4959  0.1621
 4612TIP3   OH235394   6.028   4.782   1.225 -0.0234 -0.0551 -0.0542
 4612TIP3    H135395   5.984   4.767   1.142 -1.4520  1.1189  0.4582
 4612TIP3    H235396   6.072   4.866   1.214  1.3276 -0.7493 -0.2179
 4613TIP3   OH235397   6.588   3.744   7.870 -0.0765  0.6729  0.6072
 4613TIP3    H135398   6.633   3.705   7.796 -1.1321  0.6789 -0.0488
 4613TIP3    H235399   6.529   3.675   7.902 -0.8982  1.2379  0.3391
 4614TIP3   OH235400   6.326   0.484   7.970  0.0999 -0.8065  0.1757
 4614TIP3    H135401   6.373   0.567   7.979  1.2719 -1.6096  1.8794
 4614TIP3    H235402   6.238   0.510   7.942  1.1682  0.7992 -2.0866
 4615TIP3   OH235403   6.105   2.921   7.026  0.0234  0.1386  0.2088
 4615TIP3    H135404   6.190   2.921   7.069  0.2085 -1.6164 -0.1148
 4615TIP3    H235405   6.042   2.905   7.097  0.0706  0.1650  0.2566
 4616TIP3   OH235406   2.757   6.480   8.707 -0.8055 -0.5780  0.2419
 4616TIP3    H135407   2.801   6.411   8.657 -0.4893  0.3155 -0.7644
 4616TIP3    H235408   2.729   6.438   8.788  0.3147 -1.6197  0.1088
 4617TIP3   OH235409   2.123   4.237   1.062 -0.1187 -0.0233  0.6876
 4617TIP3    H135410   2.219   4.242   1.065 -0.1270 -0.1110  1.5334
 4617TIP3    H235411   2.100   4.257   0.972  0.7757 -1.1751  0.1827
 4618TIP3   OH235412   3.173   4.512   0.478  0.9790  0.2500  0.3949
 4618TIP3    H135413   3.229   4.584   0.506  0.5310  0.7631  0.0009
 4618TIP3    H235414   3.179   4.513   0.382  0.2681  0.3402  0.3460
 4619TIP3   OH235415   0.619   1.371   8.181 -0.0746 -0.2834 -0.3551
 4619TIP3    H135416   0.590   1.295   8.130  0.1334 -1.0015  0.5761
 4619TIP3    H235417   0.650   1.434   8.115  1.5107 -1.7389 -1.0683
 4620TIP3   OH235418   4.830   6.698   1.649  0.1492  0.1372 -0.1903
 4620TIP3    H135419   4.902   6.707   1.586  0.0082 -0.1036 -0.3883
 4620TIP3    H235420   4.874   6.681   1.732  0.3022 -1.9336 -0.6356
 4621TIP3   OH235421   5.521   0.801   6.817 -0.0577 -0.2782 -0.5879
 4621TIP3    H135422   5.502   0.843   6.901 -2.7869 -1.8302 -0.3293
 4621TIP3    H235423   5.444   0.818   6.763  1.1458 -0.3019 -2.4414
 4622TIP3   OH235424   5.108   2.073   5.743 -0.3836  0.6875 -0.1067
 4622TIP3    H135425   5.098   2.086   5.837  2.0260  3.1933 -0.0702
 4622TIP3    H235426   5.188   2.021   5.735 -0.5286  0.5566 -0.7886
 4623TIP3   OH235427   6.492   4.213   7.913 -0.4797  0.0884  0.0692
 4623TIP3    H135428   6.426   4.263   7.962  0.8821  0.9328  1.1363
 4623TIP3    H235429   6.561   4.277   7.895  0.3894 -0.9399 -0.3525
 4624TIP3   OH235430   2.930   4.261   6.825  0.4890  0.1509 -0.5807
 4624TIP3    H135431   2.877   4.182   6.809 -1.5465  1.2396  0.3373
 4624TIP3    H235432   2.872   4.317   6.876  2.6110  1.4323  0.5170
 4625TIP3   OH235433   1.578   3.155   8.748  0.0619  0.1346 -0.1604
 4625TIP3    H135434   1.524   3.079   8.728 -2.4492  2.0933 -1.3887
 4625TIP3    H235435   1.535   3.196   8.823  1.1535  0.5918  0.2402
 4626TIP3   OH235436   4.816   5.418   1.132 -0.0527  0.2391  0.4125
 4626TIP3    H135437   4.881   5.481   1.103  1.4851 -1.1794  0.6400
 4626TIP3    H235438   4.767   5.463   1.201  0.2805  1.5230 -0.1630
 4627TIP3   OH235439   0.520   3.374   8.707 -0.1741  0.0562 -0.1869
 4627TIP3    H135440   0.535   3.448   8.647  2.1075 -0.2127 -0.0402
 4627TIP3    H235441   0.547   3.407   8.793  2.2890 -1.2955 -0.3502
 4628TIP3   OH235442   0.048   0.907   0.933 -0.2362 -0.1371 -0.0506
 4628TIP3    H135443   0.052   0.812   0.941 -1.9713 -0.4929 -2.2160
 4628TIP3    H235444   0.139   0.935   0.936  0.3813 -1.9740 -0.2042
 4629TIP3   OH235445   6.550   4.963   7.974 -0.7160 -0.7793  0.2515
 4629TIP3    H135446   6.496   4.935   8.048 -0.2992 -2.3202 -0.0044
 4629TIP3    H235447   6.489   5.008   7.916 -0.8188  1.7102  2.1080
 4630TIP3   OH235448   3.950   4.690   6.253  0.0907 -0.0390 -0.6540
 4630TIP3    H135449   3.953   4.629   6.180  0.1408 -0.3242 -0.4174
 4630TIP3    H235450   3.857   4.697   6.275  0.1550 -0.6875 -0.1422
 4631TIP3   OH235451   3.130   0.708   8.427  0.7746 -0.0954  0.2188
 4631TIP3    H135452   3.144   0.752   8.511 -0.7707  1.0893 -0.0860
 4631TIP3    H235453   3.197   0.745   8.370 -0.8353  2.4399 -0.1815
 4632TIP3   OH235454   6.144   6.060   6.633  0.1132  0.1295  0.2392
 4632TIP3    H135455   6.100   5.975   6.632 -0.8666  0.6176  0.5281
 4632TIP3    H235456   6.178   6.071   6.544 -1.3072  0.2054 -0.3280
 4633TIP3   OH235457   3.474   4.062   8.164 -0.3871 -0.3779 -0.1408
 4633TIP3    H135458   3.516   4.123   8.225 -0.4490 -0.9329  0.4762
 4633TIP3    H235459   3.380   4.081   8.173 -0.4356 -0.8121  0.3422
 4634TIP3   OH235460   2.528   1.733   7.446  1.4359  0.4507  0.4297
 4634TIP3    H135461   2.547   1.697   7.532 -1.4847 -0.7203  0.7146
 4634TIP3    H235462   2.455   1.793   7.461  0.0732 -0.6596 -1.3183
 4635TIP3   OH235463   2.577   2.298   0.090  0.1467  0.0161  0.3712
 4635TIP3    H135464   2.529   2.270   0.012  0.2247 -1.3582  0.8000
 4635TIP3    H235465   2.565   2.393   0.092  1.5791  0.3738 -2.3095
 4636TIP3   OH235466   2.030   1.166   7.940 -0.2847 -0.3288  0.0403
 4636TIP3    H135467   1.962   1.219   7.898 -0.9540 -1.5378 -0.4566
 4636TIP3    H235468   2.102   1.227   7.956 -0.8240  0.6049 -0.9756
 4637TIP3   OH235469   3.473   5.355   0.527  0.4625 -0.0592  0.6215
 4637TIP3    H135470   3.414   5.281   0.515 -0.8289  1.3072 -2.8634
 4637TIP3    H235471   3.420   5.422   0.571  1.1417 -0.5786  2.3111
 4638TIP3   OH235472   1.406   2.726   1.239 -0.4345 -0.1771 -0.2082
 4638TIP3    H135473   1.472   2.789   1.267  0.8351 -1.4036 -0.2807
 4638TIP3    H235474   1.326   2.777   1.230  0.2146  1.1518  1.0386
 4639TIP3   OH235475   6.030   0.971   6.616 -0.0427  0.6624 -0.6038
 4639TIP3    H135476   5.941   0.951   6.647  0.7841 -0.7394  1.0318
 4639TIP3    H235477   6.033   0.933   6.528 -0.8698  0.1453 -0.4259
 4640TIP3   OH235478   6.540   4.753   0.027  0.3459  0.0701 -0.2792
 4640TIP3    H135479   6.471   4.688   0.027  0.3366  0.0089  1.8104
 4640TIP3    H235480   6.505   4.826   0.077  1.9415 -0.2049  1.3617
 4641TIP3   OH235481   5.006   0.745   8.163 -0.4201 -0.2985 -0.2629
 4641TIP3    H135482   4.958   0.763   8.244 -0.2116 -0.3243 -0.1328
 4641TIP3    H235483   4.957   0.675   8.120  0.3933 -1.4675  0.6550
 4642TIP3   OH235484   3.844   2.513   1.706 -0.5168  0.0953 -0.4489
 4642TIP3    H135485   3.816   2.439   1.760  1.7358 -0.1526  0.5074
 4642TIP3    H235486   3.939   2.517   1.719 -0.4320  2.4983 -1.3322
 4643TIP3   OH235487   2.522   3.063   2.080  0.6817 -0.3816 -0.1720
 4643TIP3    H135488   2.606   3.023   2.103 -0.8547 -1.8019  3.7554
 4643TIP3    H235489   2.484   3.002   2.016  1.5866 -1.1115 -0.0357
 4644TIP3   OH235490   3.461   1.368   7.675 -0.2674 -0.1023 -0.4295
 4644TIP3    H135491   3.402   1.300   7.707  0.3505 -0.4065  0.0981
 4644TIP3    H235492   3.469   1.429   7.748 -0.7055  0.4705 -0.8487
 4645TIP3   OH235493   0.377   2.959   7.374 -0.0735  0.4633  0.2617
 4645TIP3    H135494   0.451   2.918   7.329 -0.4942 -0.3342  0.2848
 4645TIP3    H235495   0.414   2.994   7.455  0.4791  0.9851 -0.2047
 4646TIP3   OH235496   2.122   6.733   7.380  0.4458 -0.3944 -0.1745
 4646TIP3    H135497   2.084   6.713   7.295 -0.3188  1.5017 -0.3428
 4646TIP3    H235498   2.166   6.817   7.368  0.7717 -0.3428  1.1731
 4647TIP3   OH235499   0.177   0.693   7.990  0.3026  0.0888 -0.0251
 4647TIP3    H135500   0.169   0.695   8.085 -0.9215 -2.1831 -0.0182
 4647TIP3    H235501   0.125   0.617   7.963 -1.8137  2.2808 -2.7663
 4648TIP3   OH235502   3.610   6.508   8.519  0.3422  0.1389  0.1104
 4648TIP3    H135503   3.551   6.583   8.518 -0.6679 -0.6390 -1.2916
 4648TIP3    H235504   3.646   6.504   8.431  0.2392 -1.1211  0.1060
 4649TIP3   OH235505   5.545   0.102   7.829  0.0847 -0.3436  0.0677
 4649TIP3    H135506   5.501   0.182   7.802 -1.0068 -1.0786 -0.4321
 4649TIP3    H235507   5.565   0.056   7.748 -0.9816 -1.4176  0.3771
 4650TIP3   OH235508   4.575   1.826   1.357  0.3098  0.2392  0.2041
 4650TIP3    H135509   4.566   1.734   1.331 -1.6033  0.4643 -0.0555
 4650TIP3    H235510   4.618   1.868   1.283  0.4552 -0.2924 -0.0181
 4651TIP3   OH235511   4.232   5.320   6.593  0.3816 -0.0278 -0.3035
 4651TIP3    H135512   4.177   5.250   6.558  0.4094 -0.1779 -0.0432
 4651TIP3    H235513   4.318   5.304   6.553  0.0028  0.8049 -1.5302
 4652TIP3   OH235514   2.086   2.874   7.685 -0.3890  0.3745 -0.0996
 4652TIP3    H135515   2.029   2.799   7.664  0.2913  0.1757 -1.2518
 4652TIP3    H235516   2.145   2.882   7.611  0.4028  1.2616  0.6002
 4653TIP3   OH235517   3.059   4.905   7.335  0.5337 -0.2841  0.3691
 4653TIP3    H135518   3.137   4.896   7.389  2.0243  0.2898 -1.5732
 4653TIP3    H235519   3.018   4.986   7.365  1.6266  0.3128  0.3020
 4654TIP3   OH235520   0.972   5.404   6.041 -0.2539 -0.7537  0.7035
 4654TIP3    H135521   1.000   5.482   5.993  1.2783 -1.7760 -0.1820
 4654TIP3    H235522   1.049   5.378   6.092 -0.7396 -1.6569  1.0093
 4655TIP3   OH235523   4.998   1.305   8.359  0.3171  0.3636 -0.8107
 4655TIP3    H135524   5.018   1.239   8.426  1.1032  0.9966 -0.4137
 4655TIP3    H235525   4.903   1.315   8.364  0.1822 -0.7121 -0.8563
 4656TIP3   OH235526   1.787   0.537   7.203 -0.2224 -0.5760  0.1053
 4656TIP3    H135527   1.859   0.477   7.224  0.1070 -0.3265 -0.3090
 4656TIP3    H235528   1.830   0.618   7.177 -0.6558  0.3584  2.0853
 4657TIP3   OH235529   6.280   0.871   6.699 -0.3950  0.6181  0.2433
 4657TIP3    H135530   6.361   0.906   6.735  0.9909 -0.3877 -1.6994
 4657TIP3    H235531   6.222   0.947   6.692  0.3715  1.3650  1.6466
 4658TIP3   OH235532   4.861   0.139   7.148  0.9970 -0.4536 -0.3093
 4658TIP3    H135533   4.949   0.104   7.137  0.7150 -0.9616 -1.1101
 4658TIP3    H235534   4.826   0.093   7.224  1.1463 -0.8641 -0.4828
 4659TIP3   OH235535   3.982   3.531   2.333 -0.5295  0.0692 -0.6478
 4659TIP3    H135536   4.067   3.573   2.322  0.1726 -1.3703 -0.9672
 4659TIP3    H235537   3.999   3.438   2.315 -1.5169 -0.7809  2.2358
 4660TIP3   OH235538   6.032   2.305   7.624 -0.4469  0.2703 -0.2844
 4660TIP3    H135539   5.938   2.324   7.627 -0.3452  1.0406 -1.4909
 4660TIP3    H235540   6.074   2.390   7.639  0.1148 -0.3638  2.2662
 4661TIP3   OH235541   3.429   4.188   6.400  0.4758  0.0762 -0.3365
 4661TIP3    H135542   3.383   4.241   6.465  0.0549 -0.7667  0.0753
 4661TIP3    H235543   3.505   4.154   6.446  0.4596 -0.1010 -0.4385
 4662TIP3   OH235544   1.141   6.167   1.055 -0.1824 -0.3693 -0.8336
 4662TIP3    H135545   1.082   6.230   1.012 -1.0589  0.2690  1.1885
 4662TIP3    H235546   1.224   6.213   1.064 -0.2617 -0.1847 -1.0455
 4663TIP3   OH235547   2.878   5.953   7.206  0.6502  0.4278 -0.2069
 4663TIP3    H135548   2.801   5.959   7.150  0.2567  1.6401  0.4374
 4663TIP3    H235549   2.869   6.025   7.268  0.3223 -1.7100  2.4110
 4664TIP3   OH235550   4.264   5.950   0.894 -0.2819 -0.6693 -0.0881
 4664TIP3    H135551   4.250   5.863   0.931 -1.3814 -0.4603  0.0240
 4664TIP3    H235552   4.190   6.001   0.925  0.3652  0.3239 -0.1308
 4665TIP3   OH235553   0.081   3.891   1.208  0.5988  0.1127 -0.0708
 4665TIP3    H135554   0.038   3.961   1.160  1.0659 -0.3411 -1.1861
 4665TIP3    H235555   0.126   3.935   1.280  0.1951  0.8513 -0.2579
 4666TIP3   OH235556   0.066   0.704   6.017 -1.0552 -0.6531 -0.4377
 4666TIP3    H135557   0.101   0.744   6.097 -0.6213 -0.2253 -0.8292
 4666TIP3    H235558   0.021   0.776   5.972  1.3644 -0.0403 -2.0924
 4667TIP3   OH235559   2.222   2.153   8.002  0.8108  0.6145  0.3528
 4667TIP3    H135560   2.190   2.064   8.014  0.5009  0.5966 -0.5596
 4667TIP3    H235561   2.193   2.200   8.081  0.2451  0.1150  0.4474
 4668TIP3   OH235562   3.673   6.602   8.249 -0.5720 -0.1050  0.3206
 4668TIP3    H135563   3.594   6.648   8.221 -0.4898 -0.6750 -0.8907
 4668TIP3    H235564   3.710   6.566   8.169  0.1905 -0.9913  1.0489
 4669TIP3   OH235565   2.893   1.359   0.140 -0.4264  0.1084  0.1886
 4669TIP3    H135566   2.803   1.392   0.143 -0.7734 -0.8854  1.3244
 4669TIP3    H235567   2.940   1.411   0.205 -0.5857 -0.4989  0.7978
 4670TIP3   OH235568   3.435   1.855   7.814  0.3207  0.3031  0.1880
 4670TIP3    H135569   3.388   1.857   7.730  1.3316  2.8509 -0.4104
 4670TIP3    H235570   3.401   1.931   7.862  2.2224  0.9136  0.6300
 4671TIP3   OH235571   5.898   3.322   0.242 -0.2768  0.5173  0.1257
 4671TIP3    H135572   5.814   3.346   0.282  0.6969  0.7904  2.1242
 4671TIP3    H235573   5.957   3.393   0.265  0.9351 -0.4916  0.2448
 4672TIP3   OH235574   0.976   3.813   6.552 -0.1375 -0.3925 -0.2099
 4672TIP3    H135575   1.070   3.800   6.565 -0.2266 -0.7201  0.1141
 4672TIP3    H235576   0.966   3.822   6.458 -0.1716 -3.5718 -0.6042
 4673TIP3   OH235577   3.309   1.848   0.222  0.0296  0.1121 -0.5523
 4673TIP3    H135578   3.308   1.943   0.208  0.9109  0.0905 -0.8096
 4673TIP3    H235579   3.387   1.833   0.275 -0.2954 -0.4314 -0.2311
 4674TIP3   OH235580   6.761   3.985   0.122  0.0426 -0.5554  0.1202
 4674TIP3    H135581   6.674   4.023   0.112  0.2957 -0.1515 -0.5725
 4674TIP3    H235582   6.804   3.999   0.037  0.3706 -1.7887  0.0617
 4675TIP3   OH235583   0.343   5.503   7.605 -0.1146  0.5549  0.1753
 4675TIP3    H135584   0.389   5.431   7.560  1.1823  1.3399  0.1702
 4675TIP3    H235585   0.292   5.460   7.673  0.7489 -0.3755  0.2694
 4676TIP3   OH235586   0.775   6.286   7.910  0.2612 -0.1601 -0.6973
 4676TIP3    H135587   0.755   6.193   7.904 -1.0329  0.0560  0.0507
 4676TIP3    H235588   0.849   6.299   7.850  0.6350 -1.7042 -0.5990
 4677TIP3   OH235589   5.898   3.552   7.244 -0.0511  0.5800 -0.4833
 4677TIP3    H135590   5.952   3.620   7.283 -0.8627  0.8957  0.1253
 4677TIP3    H235591   5.810   3.591   7.240 -0.6944 -0.6896  0.6030
 4678TIP3   OH235592   4.674   1.249   6.941 -0.0291 -0.1494 -0.3557
 4678TIP3    H135593   4.596   1.297   6.915  0.2220  0.6471  0.3099
 4678TIP3    H235594   4.744   1.285   6.888  0.0772 -0.0837 -0.1736
 4679TIP3   OH235595   0.495   2.605   8.211 -0.1066 -0.4323 -0.0989
 4679TIP3    H135596   0.573   2.564   8.247 -0.0129 -1.3992 -1.3070
 4679TIP3    H235597   0.425   2.542   8.228 -0.1585 -0.6597 -1.0625
 4680TIP3   OH235598   2.127   5.648   7.736 -0.1288  0.1788  0.0549
 4680TIP3    H135599   2.144   5.655   7.830 -1.5007 -1.1723  0.4374
 4680TIP3    H235600   2.202   5.692   7.695  0.5928  0.6273  1.7613
 4681TIP3   OH235601   3.123   3.839   8.263  0.2691  0.1174 -0.1365
 4681TIP3    H135602   3.105   3.847   8.169 -3.1125 -3.1896 -0.0127
 4681TIP3    H235603   3.202   3.785   8.268  0.7621  0.7345 -1.0550
 4682TIP3   OH235604   1.849   3.175   7.751 -0.2441 -0.4977  0.0957
 4682TIP3    H135605   1.758   3.202   7.744  0.1976  1.6041  1.2541
 4682TIP3    H235606   1.882   3.176   7.661 -0.5809  1.9636 -0.0665
 4683TIP3   OH235607   0.529   1.462   0.630 -0.4395 -0.3843 -0.0766
 4683TIP3    H135608   0.501   1.548   0.598  0.5178 -0.2842 -0.6743
 4683TIP3    H235609   0.599   1.436   0.571 -0.5582 -1.4804  0.2487
 4684TIP3   OH235610   3.681   5.998   1.799  0.5827  0.1290 -0.1431
 4684TIP3    H135611   3.662   5.914   1.840  1.6993  0.1367  0.4554
 4684TIP3    H235612   3.702   6.057   1.873 -0.5748  1.0465 -0.5228
 4685TIP3   OH235613   2.216   6.768   1.061  0.5677  0.0057  0.2128
 4685TIP3    H135614   2.127   6.740   1.038  0.0051  2.3475 -0.8173
 4685TIP3    H235615   2.218   6.763   1.157  0.0708 -2.0317  0.1594
 4686TIP3   OH235616   4.800   3.464   1.395 -0.3175 -0.4872  0.0898
 4686TIP3    H135617   4.850   3.537   1.360  0.4201 -0.6715  0.7357
 4686TIP3    H235618   4.802   3.476   1.489 -1.6178 -0.4291  0.1339
 4687TIP3   OH235619   6.043   1.337   1.373 -0.0277  0.3493 -0.3014
 4687TIP3    H135620   6.012   1.398   1.306  1.5819  1.6279  0.0317
 4687TIP3    H235621   6.137   1.356   1.380  0.0491 -0.5068  1.5360
 4688TIP3   OH235622   2.600   0.366   8.330  0.0492 -0.6033  0.4174
 4688TIP3    H135623   2.681   0.361   8.380  0.3461 -0.7130 -0.0627
 4688TIP3    H235624   2.616   0.437   8.267  0.5181 -1.8847 -0.9651
 4689TIP3   OH235625   2.143   4.518   8.226 -0.1122  0.4976 -0.2335
 4689TIP3    H135626   2.110   4.565   8.149  1.4067  0.6237 -0.8419
 4689TIP3    H235627   2.133   4.426   8.204  0.3321  0.5330 -0.5980
 4690TIP3   OH235628   1.774   3.364   0.721 -0.4429  0.2180  0.1049
 4690TIP3    H135629   1.679   3.363   0.708 -1.0777 -3.3632  3.1436
 4690TIP3    H235630   1.787   3.417   0.799 -0.1663 -0.4616  0.5318
 4691TIP3   OH235631   5.264   3.511   1.293 -0.4207 -0.3549  0.1593
 4691TIP3    H135632   5.338   3.540   1.239  0.7112  0.7386  2.1580
 4691TIP3    H235633   5.289   3.424   1.324  0.3855  0.2842  1.3700
 4692TIP3   OH235634   0.980   2.591   0.358  0.4410 -0.3657 -0.3674
 4692TIP3    H135635   0.915   2.540   0.311  0.4152 -0.1985 -0.5111
 4692TIP3    H235636   0.936   2.672   0.383 -0.6562 -1.7973  2.9461
 4693TIP3   OH235637   5.160   4.542   7.611 -0.6215 -0.7510 -0.7331
 4693TIP3    H135638   5.111   4.470   7.573  0.2619 -1.7286 -0.0822
 4693TIP3    H235639   5.207   4.503   7.684 -1.4268  0.8404  0.7124
 4694TIP3   OH235640   1.935   1.698   7.196 -0.7677 -0.4196 -0.1421
 4694TIP3    H135641   1.878   1.697   7.118 -0.2606  0.7994 -0.5496
 4694TIP3    H235642   2.003   1.761   7.175 -0.6344 -0.0407  1.3134
 4695TIP3   OH235643   3.362   4.101   7.169  0.6831  0.2034 -0.5582
 4695TIP3    H135644   3.339   4.010   7.185  0.3972  0.2605 -0.6438
 4695TIP3    H235645   3.334   4.118   7.079 -0.5318  0.7684 -0.0897
 4696TIP3   OH235646   2.911   5.789   0.658 -0.1702  0.1783 -0.2149
 4696TIP3    H135647   2.843   5.722   0.661  0.3787 -0.3882 -0.2472
 4696TIP3    H235648   2.924   5.814   0.749  1.0294 -1.2150  0.0354
 4697TIP3   OH235649   3.914   6.253   1.229 -0.0632 -0.3743  0.4721
 4697TIP3    H135650   3.846   6.205   1.276 -0.0452  0.9256  1.9346
 4697TIP3    H235651   3.996   6.229   1.274  0.1190 -0.0770  0.3059
 4698TIP3   OH235652   5.084   4.274   7.565 -0.0698  0.5251  0.2577
 4698TIP3    H135653   5.160   4.224   7.537 -2.1926 -3.0756  0.3289
 4698TIP3    H235654   5.060   4.235   7.649 -2.3062  1.1737 -0.0244
 4699TIP3   OH235655   5.742   0.073   7.614  0.4121  0.0558  0.5831
 4699TIP3    H135656   5.730  -0.022   7.618 -2.2568  0.1484 -1.6443
 4699TIP3    H235657   5.797   0.094   7.689  2.1578 -3.3575  0.4618
 4700TIP3   OH235658   5.191   6.222   6.535 -0.5111 -0.2438  0.7394
 4700TIP3    H135659   5.129   6.233   6.463 -1.2736 -0.7014  1.3124
 4700TIP3    H235660   5.272   6.262   6.503 -1.8644  3.1385  1.0947
 4701TIP3   OH235661   0.071   0.440   0.763 -0.5847  0.7093  0.2586
 4701TIP3    H135662  -0.018   0.423   0.795 -0.8573  1.6236  0.0233
 4701TIP3    H235663   0.084   0.376   0.694 -0.6617 -0.1167  0.9949
 4702TIP3   OH235664   5.065   3.566   6.666  0.1325 -0.4231  0.0951
 4702TIP3    H135665   4.992   3.615   6.628  0.0258 -0.7137 -0.0752
 4702TIP3    H235666   5.040   3.553   6.757  1.1691  1.8217  0.7930
 4703TIP3   OH235667   3.188   0.238   1.037  0.4757  0.2224  0.2827
 4703TIP3    H135668   3.103   0.254   1.078  0.6539 -1.6337  1.5154
 4703TIP3    H235669   3.237   0.319   1.050 -0.1272  0.3292  2.1433
 4704TIP3   OH235670   2.137   2.450   7.208 -0.6974 -0.5469 -0.8496
 4704TIP3    H135671   2.078   2.491   7.270 -1.7484 -0.2871 -1.9769
 4704TIP3    H235672   2.083   2.434   7.130  0.5961 -0.7306 -1.7512
 4705TIP3   OH235673   3.854   4.690   8.618  0.3876 -0.0487  0.2066
 4705TIP3    H135674   3.909   4.756   8.659 -1.4980  2.0650 -0.4294
 4705TIP3    H235675   3.802   4.653   8.689  1.1213 -0.5449  0.4960
 4706TIP3   OH235676   4.317   0.313   8.045  0.3205 -0.0589 -0.0296
 4706TIP3    H135677   4.260   0.269   8.108  0.3202  0.3394  0.2494
 4706TIP3    H235678   4.321   0.403   8.075 -1.3726  0.6814 -1.7636
 4707TIP3   OH235679   5.431   0.370   7.876  0.3185 -0.3934 -0.2115
 4707TIP3    H135680   5.430   0.453   7.827  2.7190 -0.5560 -0.6483
 4707TIP3    H235681   5.339   0.346   7.884 -0.3111  1.1103 -2.1553
 4708TIP3   OH235682   4.671   3.713   6.861 -0.4475  0.1394  0.5839
 4708TIP3    H135683   4.656   3.669   6.945 -1.2353  1.4202  1.1385
 4708TIP3    H235684   4.596   3.771   6.851  0.0955  0.6622 -0.5793
 4709TIP3   OH235685   4.023   0.095   6.709 -0.2878  0.3979 -0.4201
 4709TIP3    H135686   4.002   0.186   6.685 -0.3876  0.6752  0.6633
 4709TIP3    H235687   3.985   0.084   6.796  0.3600 -0.4613 -0.2335
 4710TIP3   OH235688   5.361   4.101   7.934 -0.0440 -0.2062 -0.5088
 4710TIP3    H135689   5.376   4.191   7.963 -0.8609 -0.3260  0.3371
 4710TIP3    H235690   5.448   4.069   7.908  0.6041  0.2018  1.0469
 4711TIP3   OH235691   6.480   0.226   1.306 -0.3015  0.4655  0.0363
 4711TIP3    H135692   6.440   0.286   1.368  1.2056  1.2266  0.3136
 4711TIP3    H235693   6.567   0.208   1.343  0.2765  0.2187 -1.3874
 4712TIP3   OH235694   0.574   4.358   1.286  0.6435  0.1281  0.6433
 4712TIP3    H135695   0.533   4.349   1.372 -0.5406 -1.7789 -0.0590
 4712TIP3    H235696   0.502   4.382   1.228  1.5440  2.0481  0.2373
 4713TIP3   OH235697   1.731   2.915   7.986 -0.0762  0.0326 -0.0486
 4713TIP3    H135698   1.820   2.943   7.966 -0.8692  3.0132  0.1357
 4713TIP3    H235699   1.696   2.884   7.903 -0.0246  2.4662 -1.0574
 4714TIP3   OH235700   5.742   5.415   6.798 -0.6046  0.0932 -0.1342
 4714TIP3    H135701   5.687   5.462   6.735 -0.8895  1.0174  0.7953
 4714TIP3    H235702   5.682   5.352   6.839 -0.6362  0.1468 -0.0987
 4715TIP3   OH235703   2.176   0.807   0.849 -0.3062  0.3456 -0.7079
 4715TIP3    H135704   2.170   0.857   0.931  2.5406  0.6191 -0.5409
 4715TIP3    H235705   2.171   0.873   0.780 -0.3695  0.4175 -0.6342
 4716TIP3   OH235706   2.939   2.540   8.140 -0.5628 -0.4438  0.3922
 4716TIP3    H135707   2.903   2.625   8.165 -0.8366 -0.4402 -0.0101
 4716TIP3    H235708   2.884   2.511   8.068 -0.6731 -1.1130  0.7380
 4717TIP3   OH235709   6.450   2.973   0.924  0.2839 -0.1155 -0.0825
 4717TIP3    H135710   6.406   2.957   1.007  0.6616 -2.9571 -0.3218
 4717TIP3    H235711   6.542   2.986   0.948  0.0862  1.1513  0.0589
 4718TIP3   OH235712   4.745   2.804   7.147  0.2410  0.1701 -0.1870
 4718TIP3    H135713   4.805   2.740   7.110 -0.3823 -0.3782 -0.2825
 4718TIP3    H235714   4.678   2.752   7.192 -0.7926  0.6929 -1.0525
 4719TIP3   OH235715   0.174   3.526   0.068  0.5740 -0.1118  0.1007
 4719TIP3    H135716   0.202   3.607   0.026  0.1043  0.3019  0.5741
 4719TIP3    H235717   0.078   3.531   0.069  0.5751  0.1162  1.6339
 4720TIP3   OH235718   3.463   4.521   1.201 -0.2822 -0.3778  0.2893
 4720TIP3    H135719   3.486   4.485   1.287  0.3767 -0.5422  0.0472
 4720TIP3    H235720   3.444   4.444   1.147 -1.5184 -0.2450  0.5056
 4721TIP3   OH235721   0.816   0.262   0.271  0.0776  0.1425 -0.8771
 4721TIP3    H135722   0.895   0.309   0.295  0.4022 -0.3402 -0.9815
 4721TIP3    H235723   0.844   0.202   0.201  0.0835 -1.4784  0.4576
 4722TIP3   OH235724   1.102   3.802   0.679  1.1339  0.1128  0.0492
 4722TIP3    H135725   1.197   3.801   0.688  1.4663  1.0143 -2.5357
 4722TIP3    H235726   1.074   3.880   0.727  1.5957 -0.4350  1.2518
 4723TIP3   OH235727   2.715   5.197   8.275 -0.0315 -0.4390  0.0934
 4723TIP3    H135728   2.664   5.116   8.270 -1.0469  0.2164 -0.2478
 4723TIP3    H235729   2.650   5.267   8.274  0.8815  0.4181 -0.4230
 4724TIP3   OH235730   4.372   6.434   6.737  0.5250 -0.4493 -0.4720
 4724TIP3    H135731   4.415   6.476   6.662  1.1936  0.3376  0.3266
 4724TIP3    H235732   4.343   6.508   6.792  1.6437 -1.0095  0.9305
 4725TIP3   OH235733   6.573   0.289   7.364  0.1043  0.0484 -0.0031
 4725TIP3    H135734   6.595   0.197   7.380  0.3542  0.4874  2.7145
 4725TIP3    H235735   6.580   0.331   7.450  2.3744  3.1476 -1.4798
 4726TIP3   OH235736   5.376   2.774   1.497 -0.0518 -0.5625  0.0076
 4726TIP3    H135737   5.397   2.773   1.590  0.5033 -0.7867 -0.1168
 4726TIP3    H235738   5.328   2.693   1.483  1.1211 -1.2505 -0.1743
 4727TIP3   OH235739   6.525   3.725   6.804 -0.0214 -0.3599 -0.0633
 4727TIP3    H135740   6.595   3.717   6.869  0.9264 -1.5898 -1.1864
 4727TIP3    H235741   6.552   3.667   6.733 -0.4322  1.7805 -2.0769
 4728TIP3   OH235742   2.132   6.357   1.490 -0.3098 -0.1398  0.6003
 4728TIP3    H135743   2.127   6.373   1.396 -1.7390 -2.4596  0.2094
 4728TIP3    H235744   2.104   6.439   1.530  1.0346  1.1361 -0.9347
 4729TIP3   OH235745   3.346   5.415   6.713 -0.1747  0.9751  0.3309
 4729TIP3    H135746   3.380   5.458   6.634  0.3065 -0.5967 -0.3580
 4729TIP3    H235747   3.339   5.486   6.777  1.3530  1.9422 -0.4980
 4730TIP3   OH235748   4.604   1.075   8.653  0.3051  0.2955 -0.3066
 4730TIP3    H135749   4.611   0.981   8.642  2.1659  0.5312 -1.6602
 4730TIP3    H235750   4.616   1.111   8.565  1.0088  1.8293  0.3666
 4731TIP3   OH235751   5.625   0.889   6.028  0.2394  0.1326 -0.2504
 4731TIP3    H135752   5.687   0.890   6.101 -1.3104  0.5948  1.1026
 4731TIP3    H235753   5.636   0.974   5.986  0.2965  0.3401  0.1800
 4732TIP3   OH235754   1.369   5.706   7.400  0.5235 -0.1955 -0.2257
 4732TIP3    H135755   1.383   5.675   7.311  1.8533  0.8796 -0.4271
 4732TIP3    H235756   1.457   5.715   7.437 -0.0199 -1.5340  1.5495
 4733TIP3   OH235757   4.908   0.064   8.312  0.2818 -0.6733  0.3283
 4733TIP3    H135758   4.990   0.046   8.359 -1.4528 -1.9006  3.1197
 4733TIP3    H235759   4.854   0.110   8.375 -1.1198  0.3707 -1.5583
 4734TIP3   OH235760   5.202   3.248   8.554  0.3790 -0.3007 -0.5161
 4734TIP3    H135761   5.135   3.186   8.583 -0.4543 -0.2383 -2.1963
 4734TIP3    H235762   5.245   3.275   8.635 -0.2339 -1.9163  0.4053
 4735TIP3   OH235763   6.750   0.428   8.772 -0.0574 -0.1853  0.0918
 4735TIP3    H135764   6.711   0.365   8.832 -0.0466 -0.4562 -0.1854
 4735TIP3    H235765   6.840   0.437   8.802 -0.1890  0.0743  0.4321
 4736TIP3   OH235766   5.499   5.804   6.794  0.2156 -0.6001 -0.1371
 4736TIP3    H135767   5.583   5.796   6.749 -0.2079  1.4457 -1.4697
 4736TIP3    H235768   5.511   5.880   6.852 -0.7104 -0.2162 -0.4337
 4737TIP3   OH235769   3.322   5.200   7.975  0.1615 -0.1077 -0.4261
 4737TIP3    H135770   3.276   5.273   8.018 -0.9191 -1.8507  1.5678
 4737TIP3    H235771   3.403   5.190   8.026  0.6186  0.0798 -1.0987
 4738TIP3   OH235772   2.267   6.523   8.331  0.8126 -0.3281  0.3845
 4738TIP3    H135773   2.304   6.609   8.349  0.5137  0.1539 -1.2211
 4738TIP3    H235774   2.191   6.517   8.389 -0.9712  1.7731 -1.5557
 4739TIP3   OH235775   2.663   4.363   1.213  0.2554  0.0040  0.0130
 4739TIP3    H135776   2.674   4.413   1.294  1.0283 -0.0887 -0.0271
 4739TIP3    H235777   2.610   4.287   1.239 -0.4145  0.5234  0.1998
 4740TIP3   OH235778   5.899   3.939   0.069  0.0778  0.3395 -0.2571
 4740TIP3    H135779   5.812   3.901   0.058 -0.0213  1.1215 -3.4242
 4740TIP3    H235780   5.959   3.871   0.038  0.5866 -0.0225  1.4587
 4741TIP3   OH235781   1.057   3.103   8.338 -0.2018  0.5330  0.5964
 4741TIP3    H135782   0.962   3.111   8.345 -0.1400  1.2872  0.5990
 4741TIP3    H235783   1.086   3.093   8.429 -0.4189 -1.5584  0.4916
 4742TIP3   OH235784   5.813   2.211   0.556 -0.9074  0.1494 -0.1317
 4742TIP3    H135785   5.901   2.239   0.579 -0.8954 -0.0747  0.0974
 4742TIP3    H235786   5.801   2.240   0.466 -1.6134  2.6987  0.6775
 4743TIP3   OH235787   2.972   0.600   7.347 -0.1144 -0.3101  0.0830
 4743TIP3    H135788   2.940   0.642   7.427  1.3029 -0.3320  0.7092
 4743TIP3    H235789   2.985   0.673   7.286 -1.0419 -0.2742 -0.0831
 4744TIP3   OH235790   4.560   2.663   7.263  0.2803 -0.5235  0.1579
 4744TIP3    H135791   4.502   2.612   7.206 -0.4282  1.0189 -0.5489
 4744TIP3    H235792   4.510   2.675   7.343 -0.2040  0.4054 -0.2755
 4745TIP3   OH235793   5.439   1.407   0.625  0.0044  0.0740 -0.7121
 4745TIP3    H135794   5.419   1.423   0.533  0.1933  2.1066 -0.4536
 4745TIP3    H235795   5.534   1.398   0.629 -0.1573 -2.6213 -1.0038
 4746TIP3   OH235796   0.364   5.824   1.372  0.1828 -0.2963  0.3048
 4746TIP3    H135797   0.398   5.840   1.460 -1.5002 -1.0853  1.1666
 4746TIP3    H235798   0.414   5.749   1.339  0.2586 -0.5374  0.9566
 4747TIP3   OH235799   1.828   5.378   0.501 -0.1321 -0.1981  0.9279
 4747TIP3    H135800   1.916   5.384   0.538 -0.1350 -0.7914  1.0507
 4747TIP3    H235801   1.806   5.467   0.476  1.2824 -0.2972 -0.8996
 4748TIP3   OH235802   4.092   4.873   8.091  0.0400  0.0025  0.0770
 4748TIP3    H135803   4.183   4.844   8.088  0.7056  1.9641 -0.1861
 4748TIP3    H235804   4.090   4.940   8.159 -1.3781 -0.5035  0.5710
 4749TIP3   OH235805   0.205   5.122   8.317 -0.3947 -0.4429 -0.2873
 4749TIP3    H135806   0.263   5.069   8.261  1.2008  0.1415  0.7306
 4749TIP3    H235807   0.200   5.072   8.398 -0.0918  0.2336  0.1524
 4750TIP3   OH235808   1.504   0.028   1.227 -0.4605  0.0330 -0.4229
 4750TIP3    H135809   1.412   0.020   1.203 -1.0444 -1.0929  1.9078
 4750TIP3    H235810   1.508   0.109   1.279  0.1689  0.7788 -1.5742
 4751TIP3   OH235811   6.393   2.576   7.397  0.4273 -0.0785 -0.3513
 4751TIP3    H135812   6.441   2.639   7.449 -1.6068  1.6443 -0.4219
 4751TIP3    H235813   6.397   2.610   7.308 -0.4199 -0.1967 -0.4476
 4752TIP3   OH235814   2.344   6.775   7.555  0.3974  0.2835  0.3128
 4752TIP3    H135815   2.411   6.785   7.488  0.1695 -1.6535 -0.2762
 4752TIP3    H235816   2.276   6.722   7.512 -1.7853  2.5708  0.7119
 4753TIP3   OH235817   4.416   4.303   0.134 -0.4800  0.0540  0.1075
 4753TIP3    H135818   4.417   4.287   0.229 -0.0337 -1.4043 -0.1237
 4753TIP3    H235819   4.508   4.308   0.110 -0.4610 -2.8438 -0.7251
 4754TIP3   OH235820   6.382   1.490   6.560  0.3511  0.5641 -0.4814
 4754TIP3    H135821   6.399   1.552   6.630  0.4716  0.5730 -0.5179
 4754TIP3    H235822   6.402   1.538   6.480 -0.4438  0.7771 -0.5644
 4755TIP3   OH235823   4.284   5.529   6.775 -0.4168 -0.2218  0.2762
 4755TIP3    H135824   4.348   5.487   6.832 -0.5299 -0.5420  0.1635
 4755TIP3    H235825   4.296   5.487   6.690 -1.1323 -0.6495  0.3832
 4756TIP3   OH235826   3.993   3.156   0.948  0.0701 -0.1550 -0.4515
 4756TIP3    H135827   3.950   3.229   0.905  0.3957  1.5807  1.9697
 4756TIP3    H235828   4.040   3.195   1.022  1.3128 -2.6501  0.2029
 4757TIP3   OH235829   3.198   5.883   5.778  0.6583 -0.0210  0.1019
 4757TIP3    H135830   3.257   5.919   5.712  0.5457 -0.6070 -0.3238
 4757TIP3    H235831   3.235   5.797   5.799 -0.2046 -0.5259 -0.3939
 4758TIP3   OH235832   1.061   4.178   2.202  0.1252 -0.3377  0.1333
 4758TIP3    H135833   1.112   4.140   2.130  1.3898  1.0169  0.2663
 4758TIP3    H235834   1.090   4.130   2.280  2.8887  1.7729  0.5545
 4759TIP3   OH235835   2.704   1.638   8.405  0.4929  0.3834 -0.6087
 4759TIP3    H135836   2.726   1.549   8.378  3.3384  0.9584 -0.4249
 4759TIP3    H235837   2.753   1.653   8.485 -0.4027  1.9507 -0.2895
 4760TIP3   OH235838   5.907   4.742   6.878 -0.4636  0.2038  0.6789
 4760TIP3    H135839   5.832   4.773   6.827  0.0040 -0.9605 -0.7681
 4760TIP3    H235840   5.955   4.684   6.819  2.0983  1.5965  1.2299
 4761TIP3   OH235841   3.563   3.954   6.770 -0.2848 -0.2350  0.5540
 4761TIP3    H135842   3.529   3.872   6.733  0.0772 -0.2892  0.3323
 4761TIP3    H235843   3.486   3.999   6.804 -0.7382  0.1026 -0.8357
 4762TIP3   OH235844   4.803   5.479   6.722 -0.5055 -1.1991 -0.2279
 4762TIP3    H135845   4.745   5.503   6.649  0.1769  3.8901  0.5074
 4762TIP3    H235846   4.891   5.497   6.689  0.0160 -1.2917  1.0656
 4763TIP3   OH235847   2.081   0.783   8.062  0.0152 -0.4323  0.1576
 4763TIP3    H135848   1.998   0.832   8.058 -1.1538 -2.2958  0.4688
 4763TIP3    H235849   2.140   0.831   8.004 -0.8105  1.7769  1.0328
 4764TIP3   OH235850   0.402   2.624   8.576 -0.4481  0.0001  0.2963
 4764TIP3    H135851   0.484   2.622   8.527 -0.2957  1.6540  0.4117
 4764TIP3    H235852   0.428   2.612   8.667 -0.4334 -0.2890  0.2560
 4765TIP3   OH235853   0.345   5.543   1.185  0.1681  0.0795  0.4938
 4765TIP3    H135854   0.251   5.535   1.198 -0.3460  0.5347 -2.2611
 4765TIP3    H235855   0.381   5.460   1.218 -1.8912 -2.5787 -3.1594
 4766TIP3   OH235856   6.569   6.215   2.128  0.5593  0.1417 -0.2223
 4766TIP3    H135857   6.523   6.170   2.057  1.7899 -0.8778 -0.3894
 4766TIP3    H235858   6.662   6.199   2.111  0.8999  0.4283  1.2624
 4767TIP3   OH235859   2.571   0.599   0.761 -0.2022  0.2136 -0.1028
 4767TIP3    H135860   2.643   0.552   0.719 -1.2838 -1.0219 -0.6444
 4767TIP3    H235861   2.536   0.656   0.692 -0.7556 -0.3810 -0.3160
 4768TIP3   OH235862   4.328   4.018   0.058 -0.0155 -0.2466  0.5477
 4768TIP3    H135863   4.376   4.101   0.063 -0.9549  0.2612  3.7545
 4768TIP3    H235864   4.389   3.954   0.094 -0.8114 -0.0436  2.3477
 4769TIP3   OH235865   0.628   5.394   6.471 -0.4020  0.0730 -0.1770
 4769TIP3    H135866   0.686   5.375   6.397 -0.3086 -0.3095 -0.0105
 4769TIP3    H235867   0.599   5.484   6.456  1.0411  0.6378  0.2667
 4770TIP3   OH235868   5.111   2.366   0.072 -0.2607 -0.1997  0.3344
 4770TIP3    H135869   5.139   2.392   0.159  0.0516 -2.4711  0.9834
 4770TIP3    H235870   5.190   2.372   0.018 -0.3486  0.7635  0.3011
 4771TIP3   OH235871   6.623   2.243   8.306  0.2939  0.3416 -0.1386
 4771TIP3    H135872   6.657   2.166   8.260 -1.0989  0.8547 -2.1360
 4771TIP3    H235873   6.696   2.305   8.303  1.4684 -0.8484  1.5686
 4772TIP3   OH235874   5.013   5.090   6.831 -0.1839 -0.2041 -0.1822
 4772TIP3    H135875   4.968   5.015   6.870  0.2944 -0.0011  0.8014
 4772TIP3    H235876   5.044   5.140   6.907 -0.2206  0.8139 -0.8290
 4773TIP3   OH235877   5.031   1.474   6.405  0.1532  0.2932  0.2130
 4773TIP3    H135878   5.090   1.432   6.342  0.8661  0.6355  0.6459
 4773TIP3    H235879   5.002   1.554   6.361  0.2509  0.2792  0.1224
 4774TIP3   OH235880   4.064   4.936   6.246  0.2930 -0.1629 -0.4042
 4774TIP3    H135881   4.034   4.845   6.252 -0.1839 -0.0423 -0.8551
 4774TIP3    H235882   4.036   4.964   6.159  2.1926 -0.1931 -1.0594
 4775TIP3   OH235883   1.468   5.351   2.070 -0.2627 -0.6074  1.0026
 4775TIP3    H135884   1.374   5.342   2.086 -0.6277 -0.6115 -0.8868
 4775TIP3    H235885   1.487   5.288   2.001  0.9348  0.0826  0.6631
 4776TIP3   OH235886   3.484   0.314   8.180 -0.0818 -0.6453 -0.2692
 4776TIP3    H135887   3.484   0.272   8.266 -1.7236 -2.1810 -0.9598
 4776TIP3    H235888   3.575   0.341   8.167  0.1520 -0.0682  2.0571
 4777TIP3   OH235889   0.710   4.302   1.029  0.3591 -0.1041  0.5106
 4777TIP3    H135890   0.631   4.255   1.004 -0.2451  1.8263 -1.6175
 4777TIP3    H235891   0.708   4.305   1.124 -2.5847  0.5768  0.5153
 4778TIP3   OH235892   0.581   2.158   7.211 -0.8133  0.0227  0.2266
 4778TIP3    H135893   0.613   2.241   7.174 -0.0889 -0.4794 -0.3065
 4778TIP3    H235894   0.616   2.157   7.300  1.2231 -0.7647 -0.5115
 4779TIP3   OH235895   3.952   0.601   6.971  0.4263 -1.0049 -0.3654
 4779TIP3    H135896   3.892   0.666   7.009 -1.7660 -2.6868 -0.7749
 4779TIP3    H235897   3.994   0.647   6.898 -1.0512 -0.0177 -0.6285
 4780TIP3   OH235898   3.092   5.081   0.266  1.1019 -0.5962  0.1024
 4780TIP3    H135899   3.133   4.996   0.281  0.0131 -1.3066 -0.7670
 4780TIP3    H235900   3.023   5.063   0.202 -0.6336  0.4883  1.5676
 4781TIP3   OH235901   0.753   4.733   7.489  0.0511  0.2449  0.3133
 4781TIP3    H135902   0.670   4.753   7.447  1.0729 -0.5631 -2.2707
 4781TIP3    H235903   0.819   4.770   7.430  1.7078 -3.9030 -0.8040
 4782TIP3   OH235904   4.849   0.407   7.270 -0.0320 -0.1187  0.1046
 4782TIP3    H135905   4.860   0.327   7.219 -1.1611 -0.7820  0.8169
 4782TIP3    H235906   4.825   0.375   7.358  0.6973  0.9889  0.7233
 4783TIP3   OH235907   3.546   4.237   8.369 -0.3351  0.2993  0.0498
 4783TIP3    H135908   3.524   4.165   8.428  1.0354 -0.2187 -0.0458
 4783TIP3    H235909   3.631   4.268   8.399 -0.4189  1.1908 -0.5725
 4784TIP3   OH235910   2.878   4.163   1.214 -0.0164  0.1365 -0.1844
 4784TIP3    H135911   2.856   4.256   1.225  0.8552  0.2683  0.5355
 4784TIP3    H235912   2.861   4.145   1.121 -0.7514  0.8588 -0.2020
 4785TIP3   OH235913   0.366   2.356   7.773  0.3023 -0.1137 -0.4553
 4785TIP3    H135914   0.365   2.370   7.868 -0.4644  2.7227 -0.7910
 4785TIP3    H235915   0.274   2.361   7.747  0.3986 -1.8636 -1.2762
 4786TIP3   OH235916   6.599   1.014   0.880 -0.0394  0.0474  0.6422
 4786TIP3    H135917   6.561   0.947   0.937 -0.5054  0.5645  0.9339
 4786TIP3    H235918   6.692   0.991   0.876  0.1926  0.5559  2.3914
 4787TIP3   OH235919   1.895   4.334   6.762  0.3500 -0.6376  0.5305
 4787TIP3    H135920   1.824   4.326   6.698  1.2109 -2.5742 -0.2524
 4787TIP3    H235921   1.957   4.265   6.738  2.5476  1.0100  1.1664
 4788TIP3   OH235922   6.067   5.747   7.591  0.1039 -0.0103 -0.0920
 4788TIP3    H135923   6.096   5.670   7.542 -1.5243 -1.2821  0.8345
 4788TIP3    H235924   6.134   5.759   7.658  1.5451  0.8130 -1.6231
 4789TIP3   OH235925   5.537   4.732   7.526  0.4409 -0.1319  0.2995
 4789TIP3    H135926   5.446   4.757   7.510  0.7848  0.7289 -0.4187
 4789TIP3    H235927   5.556   4.766   7.613  0.5900  1.2963 -0.2589
 4790TIP3   OH235928   4.570   3.356   7.788 -0.4948  0.4916  0.3850
 4790TIP3    H135929   4.527   3.441   7.796 -0.5752  0.4680  0.2073
 4790TIP3    H235930   4.511   3.305   7.732  1.1155  1.3677 -2.2880
 4791TIP3   OH235931   2.294   5.208   8.223 -0.7729 -0.2010  0.3730
 4791TIP3    H135932   2.291   5.156   8.142 -1.5040  0.5766 -0.1113
 4791TIP3    H235933   2.264   5.148   8.291 -2.1788 -0.2726 -0.2697
 4792TIP3   OH235934   3.431   2.531   8.438 -0.0965 -0.2472 -0.0648
 4792TIP3    H135935   3.453   2.604   8.380 -0.5754  0.4300  0.5924
 4792TIP3    H235936   3.372   2.477   8.385 -0.6905  0.4699 -0.1572
 4793TIP3   OH235937   4.193   4.588   1.269 -0.4889  0.3994 -0.2266
 4793TIP3    H135938   4.238   4.517   1.316 -1.1326  0.2761  0.2096
 4793TIP3    H235939   4.199   4.563   1.177  1.6480  1.1248 -0.3379
 4794TIP3   OH235940   6.467   3.234   0.848 -0.5101 -0.4808 -0.1806
 4794TIP3    H135941   6.435   3.144   0.861 -0.0458 -0.5690  0.4364
 4794TIP3    H235942   6.389   3.288   0.859 -0.3108 -0.5933  2.6222
 4795TIP3   OH235943   3.046   0.906   1.765  0.2884  0.0551  0.0402
 4795TIP3    H135944   2.954   0.883   1.755  0.5049 -0.7376 -0.2358
 4795TIP3    H235945   3.058   0.983   1.710  0.0726 -0.6065 -0.9652
 4796TIP3   OH235946   0.945   5.509   8.155 -0.2816 -0.5888 -0.3545
 4796TIP3    H135947   0.998   5.560   8.215  2.0030 -0.6629 -2.1824
 4796TIP3    H235948   0.890   5.573   8.111 -0.1842 -0.2168  0.0625
 4797TIP3   OH235949   5.261   5.509   7.673  0.0630 -0.1836  0.0381
 4797TIP3    H135950   5.210   5.443   7.626  0.4554 -0.2441 -0.3079
 4797TIP3    H235951   5.349   5.472   7.679  0.8984  1.2647 -2.2115
 4798TIP3   OH235952   1.231   3.974   7.538  0.2284  0.1332 -0.1400
 4798TIP3    H135953   1.221   4.069   7.532 -2.6225 -0.0479  0.3785
 4798TIP3    H235954   1.263   3.958   7.626  1.8199  0.6232 -0.5971
 4799TIP3   OH235955   4.888   4.883   0.684 -0.2755  0.4266  0.5342
 4799TIP3    H135956   4.838   4.948   0.635 -0.0832  1.0623  1.1529
 4799TIP3    H235957   4.823   4.821   0.717 -0.3930 -0.0567 -0.5823
 4800TIP3   OH235958   4.070   4.819   1.411 -0.0699 -0.1558 -0.1969
 4800TIP3    H135959   4.106   4.747   1.360  1.1108  0.7088 -0.6200
 4800TIP3    H235960   4.054   4.781   1.498  0.7122 -0.8732 -0.3517
 4801TIP3   OH235961   1.182   4.675   8.553  0.5794 -0.0673 -0.1764
 4801TIP3    H135962   1.245   4.690   8.481  0.2021 -1.0064 -0.7229
 4801TIP3    H235963   1.200   4.746   8.615  1.3795  0.3726 -0.8761
 4802TIP3   OH235964   3.462   3.692   0.093  0.5525 -0.0272  0.2163
 4802TIP3    H135965   3.530   3.683   0.161  0.8554  2.2544  0.2885
 4802TIP3    H235966   3.417   3.608   0.094  1.5656 -0.6236  2.1498
 4803TIP3   OH235967   3.396   1.714   7.360 -0.5504  0.0088  0.6076
 4803TIP3    H135968   3.424   1.732   7.270  1.4926 -0.4759  1.1116
 4803TIP3    H235969   3.319   1.658   7.349 -0.6471  0.3793 -0.8423
 4804TIP3   OH235970   0.047   2.080   6.640 -0.3191  0.0486  0.4939
 4804TIP3    H135971  -0.002   2.131   6.575  0.0813  0.0783  0.2160
 4804TIP3    H235972  -0.021   2.047   6.699 -0.5998  0.7549  0.5772
 4805TIP3   OH235973   5.393   3.720   6.654 -0.0564 -0.2685 -0.2803
 4805TIP3    H135974   5.317   3.777   6.667 -0.3717 -0.6888 -0.2538
 4805TIP3    H235975   5.363   3.633   6.683  0.2316 -0.5700 -0.8643
 4806TIP3   OH235976   1.586   4.801   1.368  0.0817  0.1567  0.3084
 4806TIP3    H135977   1.663   4.856   1.386  1.1116 -1.2159  0.2750
 4806TIP3    H235978   1.608   4.756   1.287 -1.0400  0.2108 -0.0303
 4807TIP3   OH235979   5.901   0.800   1.803  0.3857  0.0392  0.4027
 4807TIP3    H135980   5.821   0.793   1.857  0.4748 -1.4822  0.3782
 4807TIP3    H235981   5.901   0.720   1.750  0.9851  0.8978 -0.9296
 4808TIP3   OH235982   0.525   2.234   8.631 -0.1536 -0.0972 -0.3233
 4808TIP3    H135983   0.613   2.218   8.666  0.1445 -0.0448 -1.0316
 4808TIP3    H235984   0.535   2.221   8.536 -0.7185  0.7322 -0.4973
 4809TIP3   OH235985   0.039   5.610   0.415  0.2982 -0.2727 -0.8332
 4809TIP3    H135986   0.084   5.689   0.386  0.4039 -0.5727 -1.4939
 4809TIP3    H235987  -0.005   5.578   0.337 -0.3781 -0.4469 -0.3897
 4810TIP3   OH235988   4.712   3.895   8.833  0.1449  0.3731  0.1149
 4810TIP3    H135989   4.804   3.869   8.833 -0.2228 -0.9826  0.0786
 4810TIP3    H235990   4.675   3.855   8.912 -1.1678 -2.0004 -1.5894
 4811TIP3   OH235991   0.478   6.235   0.821 -0.1605  1.1392 -0.0494
 4811TIP3    H135992   0.423   6.198   0.752 -1.0109  1.1788  0.5960
 4811TIP3    H235993   0.562   6.191   0.811 -0.5669  0.4520 -0.5102
 4812TIP3   OH235994   3.261   0.131   8.348  0.2394  0.1194 -0.0697
 4812TIP3    H135995   3.206   0.061   8.383 -0.2303  1.1062  1.3005
 4812TIP3    H235996   3.259   0.198   8.417 -0.1642  1.8972 -1.7419
 4813TIP3   OH235997   3.294   1.434   0.350  0.7233 -0.0124 -0.1919
 4813TIP3    H135998   3.358   1.472   0.289  0.6753  1.3024  0.5394
 4813TIP3    H235999   3.346   1.398   0.421  0.8582 -2.6340 -1.5061
 4814TIP3   OH236000   1.633   0.437   7.484 -0.3020  0.3417  0.6573
 4814TIP3    H136001   1.586   0.520   7.492 -1.4344 -0.2025  0.0207
 4814TIP3    H236002   1.698   0.439   7.554 -0.2295  1.8054  0.5667
 4815TIP3   OH236003   4.309   1.114   8.344  0.0877 -0.1672 -0.0456
 4815TIP3    H136004   4.393   1.083   8.311 -0.1432 -0.3843 -0.4377
 4815TIP3    H236005   4.331   1.167   8.420  0.6062  0.0583 -0.3457
 4816TIP3   OH236006   4.807   6.406   0.528  0.5230  0.2119 -0.1628
 4816TIP3    H136007   4.834   6.319   0.498  0.4117  0.8922 -2.4210
 4816TIP3    H236008   4.804   6.398   0.624  2.1277 -1.7742 -0.1974
 4817TIP3   OH236009   1.244   3.775   6.568 -0.1741 -0.4492  0.8248
 4817TIP3    H136010   1.288   3.758   6.484 -1.5012  0.5202 -0.1193
 4817TIP3    H236011   1.293   3.847   6.607 -1.2186  1.0713 -0.5231
 4818TIP3   OH236012   4.721   1.246   8.143 -0.1759 -0.1883 -0.0029
 4818TIP3    H136013   4.808   1.267   8.108 -0.0021 -0.0929  0.4867
 4818TIP3    H236014   4.671   1.327   8.135 -0.0422 -0.0813  0.2598
 4819TIP3   OH236015   1.737   3.312   1.815  0.2714  0.2485  0.1740
 4819TIP3    H136016   1.658   3.322   1.868 -0.8208 -0.4968 -1.2291
 4819TIP3    H236017   1.809   3.336   1.873 -0.9379  0.3502  1.6820
 4820TIP3   OH236018   6.357   5.540   0.873  0.1233 -0.1048 -0.1084
 4820TIP3    H136019   6.436   5.490   0.892  0.3575 -0.1583 -1.1696
 4820TIP3    H236020   6.286   5.476   0.878  0.1513 -0.0825  0.7123
 4821TIP3   OH236021   5.468   3.759   8.142 -0.4985 -0.0793  0.6614
 4821TIP3    H136022   5.431   3.672   8.155  0.8019 -0.6796  0.5261
 4821TIP3    H236023   5.519   3.775   8.222  1.5847 -0.6787 -0.4969
 4822TIP3   OH236024   2.475   0.465   1.302  0.5699  0.4291  0.1680
 4822TIP3    H136025   2.500   0.492   1.214  1.6115 -0.7821  0.0597
 4822TIP3    H236026   2.381   0.482   1.307  0.3223 -0.2997 -1.4868
 4823TIP3   OH236027   2.977   5.977   5.952 -0.2296 -0.0472  0.1207
 4823TIP3    H136028   3.037   6.000   5.881 -0.2546 -0.9713 -0.2198
 4823TIP3    H236029   2.918   5.912   5.914 -1.5493  0.9394  0.4149
 4824TIP3   OH236030   2.177   5.090   8.451  0.5037 -0.0066  0.2544
 4824TIP3    H136031   2.087   5.116   8.470  0.1987 -0.6394 -0.2646
 4824TIP3    H236032   2.173   4.994   8.443  0.8985  0.0722 -1.3583
 4825TIP3   OH236033   2.425   0.254   7.692 -0.1298 -0.1950 -0.6689
 4825TIP3    H136034   2.391   0.172   7.725  0.7265 -0.8126 -1.2753
 4825TIP3    H236035   2.432   0.241   7.597  1.3862  0.0213 -0.6217
 4826TIP3   OH236036   3.123   5.205   8.187 -0.4002 -0.4530  0.5382
 4826TIP3    H136037   3.030   5.197   8.206 -1.2665  1.0537 -2.4865
 4826TIP3    H236038   3.144   5.129   8.134  0.5677 -1.5857  2.4137
 4827TIP3   OH236039   2.477   1.511   8.518  0.4563 -0.3033  0.4295
 4827TIP3    H136040   2.525   1.452   8.575  0.9700 -0.7070 -0.3958
 4827TIP3    H236041   2.545   1.563   8.475  0.1863 -0.9555 -0.8340
 4828TIP3   OH236042   0.089   2.888   0.567  0.2067  0.4663 -0.5469
 4828TIP3    H136043   0.095   2.829   0.643 -1.9748  0.3438 -0.3984
 4828TIP3    H236044   0.028   2.956   0.595  1.8734  2.2403 -1.0954
 4829TIP3   OH236045   4.114   1.875   7.105  0.0207  0.0713  0.3417
 4829TIP3    H136046   4.141   1.815   7.035  0.0551  1.9199 -1.3103
 4829TIP3    H236047   4.196   1.896   7.151  0.2990  0.1996 -0.1995
 4830TIP3   OH236048   6.424   4.993   0.544 -0.1051 -0.3508 -0.5797
 4830TIP3    H136049   6.446   5.070   0.491 -1.2364 -0.1722 -0.8235
 4830TIP3    H236050   6.407   4.924   0.480 -2.6016  0.1586 -0.5959
 4831TIP3   OH236051   3.705   2.381   0.682 -0.0996 -0.0614  0.3127
 4831TIP3    H136052   3.784   2.432   0.701 -1.1520  2.1460 -0.7942
 4831TIP3    H236053   3.737   2.293   0.665  2.0740  0.6489  0.3792
 4832TIP3   OH236054   2.442   3.872   6.281 -0.1643  0.1082  0.2515
 4832TIP3    H136055   2.498   3.812   6.231  0.3940  0.1082  0.8584
 4832TIP3    H236056   2.439   3.951   6.228  0.5456  0.1600  0.2680
 4833TIP3   OH236057   1.660   4.897   8.005 -0.0294  0.1054  0.3028
 4833TIP3    H136058   1.683   4.988   8.023 -0.6977  0.4881 -0.7293
 4833TIP3    H236059   1.576   4.884   8.049 -0.3632  0.2525 -0.2873
 4834TIP3   OH236060   2.335   4.176   7.251  0.8182  0.1539 -0.1797
 4834TIP3    H136061   2.383   4.259   7.241  1.0818  0.0067 -0.1481
 4834TIP3    H236062   2.300   4.180   7.340  0.1670  0.5764 -0.4451
 4835TIP3   OH236063   0.500   2.655   7.953  0.6150 -0.4411 -0.6196
 4835TIP3    H136064   0.481   2.749   7.948 -0.7358 -0.7619 -2.1862
 4835TIP3    H236065   0.504   2.637   8.047 -1.8163  0.7118 -0.2067
 4836TIP3   OH236066   5.472   5.127   0.266  0.0791  0.0029 -0.1068
 4836TIP3    H136067   5.463   5.068   0.191 -1.2580  0.3387 -0.2238
 4836TIP3    H236068   5.385   5.163   0.279  0.3785  0.2430  1.3854
 4837TIP3   OH236069   0.579   0.638   0.689  0.0910  0.5136 -0.0692
 4837TIP3    H136070   0.639   0.639   0.615  1.6897 -3.8328  0.8980
 4837TIP3    H236071   0.503   0.588   0.658 -0.2037  0.5349  0.5837
 4838TIP3   OH236072   0.736   2.466   0.927  0.2576  0.5281 -0.0800
 4838TIP3    H136073   0.679   2.401   0.887  0.5246 -0.0469  0.4533
 4838TIP3    H236074   0.817   2.462   0.876  0.1619  0.6633 -0.2417
 4839TIP3   OH236075   6.499   4.786   8.588  0.5632 -0.0548 -0.2704
 4839TIP3    H136076   6.528   4.820   8.672  1.7513 -1.2694 -0.1630
 4839TIP3    H236077   6.418   4.834   8.569  0.8147  0.9382  1.0750
 4840TIP3   OH236078   2.967   0.233   6.893 -0.2625 -0.8510 -0.2474
 4840TIP3    H136079   2.966   0.329   6.896  0.5320 -0.8525  2.1723
 4840TIP3    H236080   2.992   0.212   6.803  0.1621  1.2186 -0.6653
 4841TIP3   OH236081   2.021   2.035   8.594  0.1354 -0.2602  0.7099
 4841TIP3    H136082   2.110   2.035   8.559 -0.3245 -0.7826 -0.5262
 4841TIP3    H236083   2.028   1.992   8.679  1.0487 -0.3662  0.5849
 4842TIP3   OH236084   0.687   1.813   0.832 -0.1176 -0.4939 -0.5893
 4842TIP3    H136085   0.682   1.799   0.738 -1.2739 -0.5842 -0.5288
 4842TIP3    H236086   0.773   1.778   0.857  0.1239 -0.6291 -1.5743
 4843TIP3   OH236087   2.112   1.688   8.311 -0.1495  0.0035 -0.6817
 4843TIP3    H136088   2.206   1.708   8.316  0.6573 -3.3074 -0.2682
 4843TIP3    H236089   2.107   1.614   8.250 -2.4713 -0.0039 -0.5531
 4844TIP3   OH236090   2.170   4.817   8.450  0.1654  0.2949  0.3060
 4844TIP3    H136091   2.166   4.800   8.356 -2.2510  0.0718  0.3879
 4844TIP3    H236092   2.199   4.734   8.488 -1.6884 -0.5776 -0.0710
 4845TIP3   OH236093   4.415   4.768   1.506  0.3929 -0.1275  0.1265
 4845TIP3    H136094   4.370   4.686   1.524 -1.1920  0.2673 -1.7231
 4845TIP3    H236095   4.385   4.828   1.575 -2.7412  0.3704 -1.4793
 4846TIP3   OH236096   0.370   1.060   6.947  0.2411  0.0540  0.0874
 4846TIP3    H136097   0.439   1.002   6.914 -0.4935  0.1676 -1.7420
 4846TIP3    H236098   0.299   1.050   6.884 -1.0219  0.7306  1.3763
 4847TIP3   OH236099   0.690   6.233   8.239 -0.2901  0.1203  0.5031
 4847TIP3    H136100   0.656   6.250   8.326  2.9539  0.4273  1.8439
 4847TIP3    H236101   0.696   6.320   8.198 -1.3130  0.0290  0.1207
 4848TIP3   OH236102   4.418   4.741   1.117 -0.2561  0.0568  0.2289
 4848TIP3    H136103   4.350   4.700   1.064 -0.3743  0.5817 -0.0328
 4848TIP3    H236104   4.371   4.800   1.176  0.0936  3.2771 -2.4145
 4849TIP3   OH236105   0.932   1.771   0.948  0.0166  0.3185  0.0516
 4849TIP3    H136106   0.903   1.799   1.035  0.7162 -0.2678  0.4966
 4849TIP3    H236107   0.976   1.847   0.911  1.1084  0.1305  0.8762
 4850TIP3   OH236108   1.945   0.115   0.682  0.3641 -0.5642 -0.2601
 4850TIP3    H136109   1.977   0.163   0.605  1.4853 -0.9885 -0.0833
 4850TIP3    H236110   1.859   0.152   0.699  1.6378  2.2570  0.6172
 4851TIP3   OH236111   5.029   2.724   0.424  0.3544 -0.2797  0.6034
 4851TIP3    H136112   4.963   2.668   0.465 -0.0456 -1.1969 -1.1880
 4851TIP3    H236113   4.995   2.741   0.336  1.4289  1.1554  0.4225
 4852TIP3   OH236114   4.736   5.266   0.734  0.0345 -0.1463  0.0236
 4852TIP3    H136115   4.770   5.238   0.819 -1.1734 -2.0637 -0.0661
 4852TIP3    H236116   4.810   5.253   0.673  1.0258  1.5949  0.7734
 4853TIP3   OH236117   4.254   1.358   1.590 -0.5685 -0.7344  0.3353
 4853TIP3    H136118   4.340   1.398   1.603 -1.4682  0.6908  2.6233
 4853TIP3    H236119   4.265   1.267   1.619 -0.4288  0.2210  3.6861
 4854TIP3   OH236120   6.439   0.173   6.685  0.0614  0.4246 -0.0987
 4854TIP3    H136121   6.458   0.090   6.731  1.3267  0.3162 -0.7627
 4854TIP3    H236122   6.490   0.238   6.734 -0.6798  0.7613  0.2278
 4855TIP3   OH236123   1.758   3.158   8.112  0.0859 -0.5784 -0.7290
 4855TIP3    H136124   1.737   3.075   8.069 -0.6773 -0.8273  0.0694
 4855TIP3    H236125   1.740   3.225   8.047 -0.1922 -0.9977 -1.0880
 4856TIP3   OH236126   1.461   5.923   0.117  0.3209 -0.2673  0.2994
 4856TIP3    H136127   1.428   6.006   0.152  2.5658  1.7582 -1.9897
 4856TIP3    H236128   1.532   5.898   0.176  1.1338  0.7150 -0.2298
 4857TIP3   OH236129   0.800   2.704   8.210 -0.6682  0.8051 -0.2168
 4857TIP3    H136130   0.887   2.676   8.182 -0.8117 -0.8948  0.8582
 4857TIP3    H236131   0.788   2.790   8.170  0.9036  0.4407 -1.5786
 4858TIP3   OH236132   6.412   2.160   1.504  0.0044  0.0300  0.1734
 4858TIP3    H136133   6.383   2.210   1.428  0.1123 -1.3006 -0.7745
 4858TIP3    H236134   6.367   2.201   1.578  0.2103  1.6115 -0.5250
 4859TIP3   OH236135   2.024   5.995   6.376  0.3229 -0.2181 -0.3264
 4859TIP3    H136136   2.109   5.997   6.420 -0.4004  1.3563  1.0951
 4859TIP3    H236137   2.045   5.999   6.283  1.8670 -2.7891 -0.2054
 4860TIP3   OH236138   6.725   6.367   7.237 -0.2553  0.3249  0.7519
 4860TIP3    H136139   6.674   6.329   7.308  0.1455 -0.8974  0.4050
 4860TIP3    H236140   6.812   6.328   7.246 -0.0960  0.4445 -0.1846
 4861TIP3   OH236141   5.254   1.707   7.880  0.5867 -0.1268  0.6060
 4861TIP3    H136142   5.348   1.720   7.894  0.6195 -1.0880  1.3834
 4861TIP3    H236143   5.218   1.796   7.875  1.4938  0.2465  0.5757
 4862TIP3   OH236144   0.285   3.987   7.566  0.2669  0.1984 -0.0855
 4862TIP3    H136145   0.243   3.959   7.484  0.7348 -1.7337  0.3027
 4862TIP3    H236146   0.341   3.914   7.591  3.4230  2.4004 -0.2190
 4863TIP3   OH236147   0.476   2.619   0.007  0.2348  0.4524  0.2188
 4863TIP3    H136148   0.569   2.602   0.017  0.1089 -0.4417 -0.0504
 4863TIP3    H236149   0.435   2.577   0.082 -0.0059  0.3042  0.0073
 4864TIP3   OH236150   3.269   5.423   1.101 -0.0164  0.5832 -0.5663
 4864TIP3    H136151   3.248   5.493   1.164  0.6399 -0.5789  0.9983
 4864TIP3    H236152   3.187   5.376   1.090 -0.7200  2.0981 -2.3700
 4865TIP3   OH236153   5.350   1.940   0.893  0.2938  0.4672 -0.0309
 4865TIP3    H136154   5.391   1.866   0.848  0.1433 -0.4408  1.2351
 4865TIP3    H236155   5.383   1.933   0.983  1.0473  2.5514 -0.1080
 4866TIP3   OH236156   2.358   3.302   6.096 -0.2435  0.1211  0.7616
 4866TIP3    H136157   2.324   3.362   6.162 -2.5980 -0.3995  0.1152
 4866TIP3    H236158   2.315   3.328   6.014  0.6275 -0.8618 -0.0437
 4867TIP3   OH236159   6.202   2.312   8.352 -0.1548 -0.0268  0.3700
 4867TIP3    H136160   6.234   2.273   8.433  0.5065  0.3218  0.2822
 4867TIP3    H236161   6.273   2.299   8.289 -1.0479 -1.1831 -0.4508
 4868TIP3   OH236162   2.854   1.774   7.439 -0.2755 -0.3107 -0.1097
 4868TIP3    H136163   2.920   1.805   7.377  0.6441 -0.6257  0.6883
 4868TIP3    H236164   2.782   1.744   7.383  0.2298  0.0687 -0.9990
 4869TIP3   OH236165   6.760   1.249   7.421 -0.6398 -0.4759  0.2339
 4869TIP3    H136166   6.680   1.266   7.372  0.4119  1.1888 -1.0315
 4869TIP3    H236167   6.819   1.208   7.357 -0.6239 -2.2818  1.3106
 4870TIP3   OH236168   3.597   5.378   6.895 -0.3630 -0.2379 -0.1618
 4870TIP3    H136169   3.649   5.307   6.930  0.2621  0.8267  1.1731
 4870TIP3    H236170   3.653   5.456   6.903 -2.4384  1.1520  2.3202
 4871TIP3   OH236171   3.030   0.465   7.621  0.3940 -0.4415 -0.2418
 4871TIP3    H136172   3.032   0.434   7.712 -0.5213 -0.6164 -0.2674
 4871TIP3    H236173   2.967   0.537   7.622  0.9915  0.0916 -0.5860
 4872TIP3   OH236174   0.376   3.806   1.908 -0.2958 -0.0909  0.0885
 4872TIP3    H136175   0.434   3.863   1.958 -0.6189 -0.4561  0.8913
 4872TIP3    H236176   0.300   3.861   1.887  0.0872  0.2257 -0.4938
 4873TIP3   OH236177   0.466   5.982   6.120 -0.5594  0.6834 -0.4020
 4873TIP3    H136178   0.531   5.977   6.050 -0.2235  0.1396 -0.0583
 4873TIP3    H236179   0.500   6.049   6.180  0.3983 -0.5402  0.4764
 4874TIP3   OH236180   4.470   5.351   7.216  0.1212  0.2126  0.2340
 4874TIP3    H136181   4.547   5.297   7.196 -1.3214 -1.4186 -1.2494
 4874TIP3    H236182   4.457   5.340   7.310 -0.6065 -2.8543 -0.1111
 4875TIP3   OH236183   5.736   2.589   7.234 -0.0961 -0.3761  0.4072
 4875TIP3    H136184   5.720   2.592   7.140  1.5717 -1.3475  0.0565
 4875TIP3    H236185   5.684   2.513   7.264 -0.6801 -0.0280  0.3025
 4876TIP3   OH236186   5.089   4.975   8.830 -0.2404  0.3320 -0.2026
 4876TIP3    H136187   5.091   4.995   8.924 -0.4476  0.3114 -0.1939
 4876TIP3    H236188   5.126   4.887   8.824 -0.9290  0.0298 -0.0595
 4877TIP3   OH236189   2.711   5.672   6.976 -0.0859  0.5204  0.0400
 4877TIP3    H136190   2.745   5.637   6.894 -1.4353  0.0793 -0.3689
 4877TIP3    H236191   2.777   5.649   7.041  1.7195  2.1337 -1.0998
 4878TIP3   OH236192   1.034   2.474   1.582  0.0675 -0.3186  0.1733
 4878TIP3    H136193   1.019   2.567   1.600  0.9103 -0.1498  0.0530
 4878TIP3    H236194   1.010   2.430   1.663 -0.6779 -0.0340  0.1132
 4879TIP3   OH236195   5.066   5.991   1.602  0.6999  0.8932  0.4243
 4879TIP3    H136196   5.152   5.978   1.641  0.7190  0.8206  0.3573
 4879TIP3    H236197   5.076   6.069   1.548  1.4394 -0.5595 -1.6436
 4880TIP3   OH236198   4.517   3.945   7.146  0.9721 -0.0426  0.0429
 4880TIP3    H136199   4.490   3.906   7.063  1.9312 -0.2063 -0.2063
 4880TIP3    H236200   4.604   3.908   7.162  1.2403  0.7989  0.5794
 4881TIP3   OH236201   1.011   1.757   1.285 -0.2210 -0.1140 -0.1615
 4881TIP3    H136202   1.047   1.668   1.292 -0.3991 -0.1563  0.1969
 4881TIP3    H236203   1.026   1.796   1.370  0.1689  0.3236 -0.4275
 4882TIP3   OH236204   3.811   5.247   7.666 -0.3543 -0.3468 -0.0925
 4882TIP3    H136205   3.780   5.241   7.576 -1.6423 -1.7538  0.3881
 4882TIP3    H236206   3.754   5.187   7.715  0.1929  0.5025  1.6911
 4883TIP3   OH236207   2.240   0.387   0.357 -0.2408  0.4135  0.0302
 4883TIP3    H136208   2.179   0.457   0.336  0.7031  0.6242 -2.3677
 4883TIP3    H236209   2.318   0.408   0.306  0.4501 -1.8382  0.0682
 4884TIP3   OH236210   0.773   6.314   7.492  0.4306 -0.0288 -0.9872
 4884TIP3    H136211   0.728   6.387   7.448  0.7197  0.0379 -1.1815
 4884TIP3    H236212   0.823   6.356   7.562  0.0597 -0.1219 -0.6646
 4885TIP3   OH236213   2.306   0.095   0.430  0.5584  0.1630  0.2406
 4885TIP3    H136214   2.343   0.058   0.510 -0.7585  1.3098  1.4377
 4885TIP3    H236215   2.325   0.188   0.436  1.2354  0.1443 -1.2607
 4886TIP3   OH236216   3.008   3.266   0.314  0.3290 -0.2136  0.2720
 4886TIP3    H136217   3.080   3.324   0.338 -0.5818  0.7671  0.7007
 4886TIP3    H236218   3.051   3.188   0.278  1.5756  0.6209 -0.0966
 4887TIP3   OH236219   0.059   3.132   1.671  0.1155  0.2797 -0.8286
 4887TIP3    H136220   0.068   3.091   1.757  0.0788 -0.2962 -1.0909
 4887TIP3    H236221  -0.031   3.113   1.645 -0.1070  1.0884 -0.6803
 4888TIP3   OH236222   2.541   0.741   8.654 -0.1778  0.0671 -0.3001
 4888TIP3    H136223   2.605   0.770   8.720  1.0216  0.7741 -1.7324
 4888TIP3    H236224   2.560   0.649   8.641  1.3897  0.5154 -1.5468
 4889TIP3   OH236225   6.607   1.660   1.715 -0.3654  0.2548  0.0981
 4889TIP3    H136226   6.654   1.701   1.787 -2.6261  0.2908  1.6422
 4889TIP3    H236227   6.578   1.733   1.660  1.0168  0.2494 -0.6866
 4890TIP3   OH236228   0.093   3.707   1.728  0.5279  0.0336 -0.2352
 4890TIP3    H136229   0.003   3.675   1.724  0.0745  0.6865  2.4417
 4890TIP3    H236230   0.084   3.802   1.742  1.5178 -0.1087  1.7541
 4891TIP3   OH236231   1.368   2.725   0.905  0.9145 -0.6605  0.1652
 4891TIP3    H136232   1.332   2.638   0.921 -0.1547  0.0378  1.8708
 4891TIP3    H236233   1.304   2.785   0.944  3.1381  0.7506  1.9141
 4892TIP3   OH236234   5.921   3.034   1.155 -0.4392 -0.3380 -0.8196
 4892TIP3    H136235   5.945   2.970   1.221 -1.2224  0.8874  0.7295
 4892TIP3    H236236   5.995   3.094   1.151 -0.9193  0.3299 -0.0566
 4893TIP3   OH236237   1.398   6.223   7.641 -0.9000  0.1346  0.2071
 4893TIP3    H136238   1.413   6.151   7.703 -1.1102  0.3231  0.4723
 4893TIP3    H236239   1.462   6.290   7.666 -0.3944 -0.1398 -0.3247
 4894TIP3   OH236240   4.343   1.722   7.481 -0.1514 -0.1967 -0.3975
 4894TIP3    H136241   4.252   1.731   7.454  0.1711  2.2366 -0.8528
 4894TIP3    H236242   4.338   1.691   7.571 -1.3197 -2.8824 -1.2616
 4895TIP3   OH236243   1.396   3.979   1.158 -0.2030  0.3292  0.0122
 4895TIP3    H136244   1.434   3.892   1.146 -0.7524 -0.1642  1.5912
 4895TIP3    H236245   1.379   4.011   1.069  1.2065 -0.6202 -0.6279
 4896TIP3   OH236246   4.405   0.732   0.251 -0.4269  0.1481 -0.0971
 4896TIP3    H136247   4.464   0.807   0.247  0.1065 -0.2933 -0.6947
 4896TIP3    H236248   4.459   0.661   0.285 -0.9441  0.0339  0.5133
 4897TIP3   OH236249   1.981   2.460   7.445  0.2735 -0.4513 -0.0104
 4897TIP3    H136250   1.951   2.530   7.504 -0.2424  0.5026 -1.3615
 4897TIP3    H236251   2.051   2.417   7.493 -0.1357  0.2946  1.3020
 4898TIP3   OH236252   5.393   5.416   6.722 -0.2891 -0.0948 -0.0452
 4898TIP3    H136253   5.347   5.334   6.704  1.7899 -1.2783 -0.3181
 4898TIP3    H236254   5.405   5.455   6.635 -0.3396 -0.0605 -0.0363
 4899TIP3   OH236255   0.773   6.527   1.826 -0.0571  0.0476 -0.5236
 4899TIP3    H136256   0.803   6.613   1.855  0.8055 -0.4539  0.0964
 4899TIP3    H236257   0.689   6.545   1.782 -1.2567  0.8877  1.9436
 4900TIP3   OH236258   4.873   1.730   7.884  0.2803  0.4168 -0.0074
 4900TIP3    H136259   4.880   1.767   7.795  3.1842 -0.1004 -0.1134
 4900TIP3    H236260   4.852   1.805   7.939  1.9633  1.4878 -0.7402
 4901TIP3   OH236261   0.590   2.710   0.959 -0.3343  0.5721 -0.0827
 4901TIP3    H136262   0.558   2.677   1.042  1.3272 -0.4506  0.2012
 4901TIP3    H236263   0.663   2.652   0.936  2.5383  3.6783  0.2274
 4902TIP3   OH236264   4.792   5.795   8.736  0.1517  0.5554  0.0901
 4902TIP3    H136265   4.735   5.871   8.746  0.3898  0.7822 -0.2601
 4902TIP3    H236266   4.758   5.732   8.799  0.1034  1.0453  0.5657
 4903TIP3   OH236267   2.972   5.788   8.396  0.1250  0.3014  0.0583
 4903TIP3    H136268   3.005   5.809   8.309  0.3055 -1.4427 -0.3244
 4903TIP3    H236269   2.877   5.789   8.386  0.0664  2.1785  0.3939
 4904TIP3   OH236270   6.582   1.250   6.979 -0.2783 -0.2298  0.0675
 4904TIP3    H136271   6.527   1.300   6.919  0.9165 -0.2101 -1.0521
 4904TIP3    H236272   6.672   1.270   6.952  0.2632 -2.6994 -0.1944
 4905TIP3   OH236273   5.557   2.532   1.748 -0.1966  0.8091 -0.5016
 4905TIP3    H136274   5.462   2.524   1.738  0.0265 -2.7880 -1.3669
 4905TIP3    H236275   5.572   2.525   1.842 -0.7775 -0.6937 -0.4819
 4906TIP3   OH236276   1.534   5.346   6.620  0.0675 -0.2069 -0.3133
 4906TIP3    H136277   1.495   5.320   6.536 -1.4104  0.2628  0.2025
 4906TIP3    H236278   1.561   5.263   6.660  1.2797 -0.4024 -1.4517
 4907TIP3   OH236279   4.358   1.086   6.943  0.2185  0.5682  0.4917
 4907TIP3    H136280   4.263   1.083   6.957  0.0266 -0.1765 -0.8348
 4907TIP3    H236281   4.377   1.178   6.925 -0.2204  0.7460  0.9290
 4908TIP3   OH236282   1.837   3.429   8.020 -0.4154 -0.2507 -0.0293
 4908TIP3    H136283   1.837   3.508   8.073  0.6789  0.8467 -1.5810
 4908TIP3    H236284   1.906   3.374   8.058 -1.3442 -0.6162  1.2008
 4909TIP3   OH236285   6.321   3.448   0.135  0.0694 -0.3503  0.0075
 4909TIP3    H136286   6.373   3.499   0.198  0.9587 -0.4781 -0.6002
 4909TIP3    H236287   6.318   3.360   0.173 -0.1608 -0.2178  0.3043
 4910TIP3   OH236288   3.360   2.079   0.104 -0.1460  0.3940 -0.4419
 4910TIP3    H136289   3.292   2.145   0.091  0.5083  1.1068 -0.3595
 4910TIP3    H236290   3.415   2.115   0.173  0.9266  0.3466 -1.2387
 4911TIP3   OH236291   0.540   1.739   1.057  0.0861 -0.0577  0.2866
 4911TIP3    H136292   0.583   1.751   0.972 -0.9824 -2.0667 -0.6197
 4911TIP3    H236293   0.594   1.788   1.119  1.4917  0.6044 -1.3871
 4912TIP3   OH236294   0.891   3.680   7.121 -0.6433 -0.0105  0.2930
 4912TIP3    H136295   0.967   3.640   7.077  0.5159  1.6154  0.7195
 4912TIP3    H236296   0.825   3.610   7.122  1.2587 -1.9153  1.0023
 4913TIP3   OH236297   3.380   1.924   2.111 -0.7902  0.0166 -0.4585
 4913TIP3    H136298   3.417   1.851   2.161 -0.4426  0.7077  0.3218
 4913TIP3    H236299   3.448   1.947   2.047 -1.9844 -2.1243 -2.6364
 4914TIP3   OH236300   3.178   2.926   0.999 -0.3171 -0.5717  0.3345
 4914TIP3    H136301   3.109   2.866   0.971  0.9482 -1.8380 -0.2764
 4914TIP3    H236302   3.236   2.932   0.922  1.0728 -0.8261  1.3233
 4915TIP3   OH236303   3.294   3.001   0.758 -0.3563  0.1295 -0.5167
 4915TIP3    H136304   3.296   3.044   0.672 -0.3880 -0.0262 -0.5937
 4915TIP3    H236305   3.293   3.074   0.820 -1.5652  0.2560 -0.6589
 4916TIP3   OH236306   5.473   5.070   0.929  0.0143 -0.2339 -0.2086
 4916TIP3    H136307   5.439   5.116   1.006 -1.7498 -1.7396 -0.0331
 4916TIP3    H236308   5.491   5.140   0.866 -1.2721  0.8076  0.5336
 4917TIP3   OH236309   5.609   4.605   6.664  0.4911  0.4154 -0.0412
 4917TIP3    H136310   5.673   4.545   6.702  0.1801  0.2880  0.2861
 4917TIP3    H236311   5.527   4.585   6.710  0.2708  0.7365 -0.2923
 4918TIP3   OH236312   5.093   3.718   2.275  0.4091  0.2379 -0.1052
 4918TIP3    H136313   5.022   3.654   2.274  2.5237 -2.2662  0.6558
 4918TIP3    H236314   5.082   3.767   2.193 -3.3486  1.4370  0.9079
 4919TIP3   OH236315   1.065   2.839   6.313 -0.8509  0.1539 -0.2722
 4919TIP3    H136316   1.013   2.795   6.380  0.7483  0.2961  1.1364
 4919TIP3    H236317   1.025   2.925   6.303  0.2696  1.0715  2.3496
 4920TIP3   OH236318   0.724   5.180   1.362 -0.2667  0.1475  0.2502
 4920TIP3    H136319   0.700   5.178   1.269 -0.8029 -1.2216  0.3987
 4920TIP3    H236320   0.793   5.115   1.371  0.0877  0.5802  0.7449
 4921TIP3   OH236321   2.549   0.920   0.921 -0.1562  0.1242 -0.2502
 4921TIP3    H136322   2.616   0.983   0.895 -0.0559 -0.2148 -0.8221
 4921TIP3    H236323   2.598   0.841   0.941 -0.3524 -0.0057 -0.2851
 4922TIP3   OH236324   0.654   0.668   7.402 -0.1580  0.2409 -0.0639
 4922TIP3    H136325   0.731   0.676   7.457  0.1170  0.0549 -0.4190
 4922TIP3    H236326   0.661   0.581   7.362 -1.6007 -0.6605  1.4859
 4923TIP3   OH236327   1.861   0.463   0.850  0.2719  0.2504 -0.0222
 4923TIP3    H136328   1.803   0.400   0.893  1.2404 -0.1949  0.6562
 4923TIP3    H236329   1.938   0.468   0.907  1.9030 -0.8383 -1.9905
 4924TIP3   OH236330   2.342   0.888   0.409  0.6090 -0.1598  0.0531
 4924TIP3    H136331   2.376   0.839   0.334 -0.1552 -0.3103 -0.2120
 4924TIP3    H236332   2.391   0.970   0.408  0.2889  0.0386 -0.9100
 4925TIP3   OH236333   2.400   3.345   0.033 -0.1964 -0.5545  0.5745
 4925TIP3    H136334   2.411   3.354   0.127  2.1947  0.7602  0.2219
 4925TIP3    H236335   2.392   3.434   0.000 -1.5038 -1.0068 -0.4698
 4926TIP3   OH236336   5.971   1.266   8.043  0.0394 -0.1283  0.2855
 4926TIP3    H136337   5.984   1.329   7.972  1.1919  0.1893  0.7435
 4926TIP3    H236338   5.877   1.248   8.043  0.1767 -1.3110 -2.2940
 4927TIP3   OH236339   0.371   5.826   0.896  0.0518  0.1046 -0.5392
 4927TIP3    H136340   0.409   5.871   0.972 -1.1007 -0.5909  0.4995
 4927TIP3    H236341   0.387   5.733   0.913 -2.6784 -0.3021  0.3614
 4928TIP3   OH236342   2.218   4.378   7.021 -0.0213 -0.5785  0.2675
 4928TIP3    H136343   2.273   4.451   6.995  0.7081 -2.3103 -3.6572
 4928TIP3    H236344   2.278   4.305   7.032 -1.1374 -1.6603 -0.5533
 4929TIP3   OH236345   0.790   0.924   1.598  0.5640 -0.2040 -0.2798
 4929TIP3    H136346   0.749   0.875   1.527 -1.0678  0.1881  0.3369
 4929TIP3    H236347   0.747   1.010   1.596  1.4315  0.2668  0.3601
 4930TIP3   OH236348   4.442   5.747   0.441  0.6076 -0.2326 -0.2863
 4930TIP3    H136349   4.402   5.827   0.405  0.7638 -0.6568 -1.4590
 4930TIP3    H236350   4.401   5.676   0.391  0.4345 -0.8977  0.7819
 4931TIP3   OH236351   1.998   5.574   8.153  0.3495  0.0245 -0.0811
 4931TIP3    H136352   2.078   5.526   8.178  1.9591  1.3141 -2.3448
 4931TIP3    H236353   1.982   5.547   8.063 -0.6474  1.2679 -0.2951
 4932TIP3   OH236354   1.520   1.294   1.013  0.0632  0.2669  0.0398
 4932TIP3    H136355   1.434   1.328   0.987 -1.3396 -3.4603 -0.7250
 4932TIP3    H236356   1.549   1.355   1.081 -4.1391  0.6594  1.8443
 4933TIP3   OH236357   3.412   3.731   0.674  0.1447 -0.1264  0.2038
 4933TIP3    H136358   3.443   3.662   0.616  0.3247 -0.6795  0.9479
 4933TIP3    H236359   3.482   3.740   0.740  0.2906  1.0069 -0.0849
 4934TIP3   OH236360   0.474   5.240   0.946 -0.3077  0.1958 -0.4988
 4934TIP3    H136361   0.459   5.152   0.913 -3.2914  0.1226  0.6964
 4934TIP3    H236362   0.395   5.289   0.923  1.0434  2.4615 -0.7018
 4935TIP3   OH236363   1.173   4.433   0.716 -0.4870 -0.1373  0.2700
 4935TIP3    H136364   1.086   4.458   0.684  0.6502  0.8037 -2.4753
 4935TIP3    H236365   1.163   4.342   0.744 -2.2859 -0.1821 -0.3577
 4936TIP3   OH236366   1.130   1.925   0.819 -0.0875  0.1958  0.1479
 4936TIP3    H136367   1.205   1.895   0.870 -1.1500 -1.7842  0.6692
 4936TIP3    H236368   1.133   1.875   0.738 -1.4448 -0.8337  0.6798
 4937TIP3   OH236369   5.070   6.189   8.470  0.7079 -0.0103  0.0073
 4937TIP3    H136370   5.098   6.261   8.526 -1.3531  1.5078 -0.7702
 4937TIP3    H236371   5.025   6.128   8.530  0.9675  0.1993  0.4188
 4938TIP3   OH236372   2.484   4.167   1.882  0.0649 -0.3049  0.5042
 4938TIP3    H136373   2.438   4.097   1.836 -0.6921  1.3710 -1.3945
 4938TIP3    H236374   2.574   4.135   1.889  0.2036 -0.7029 -2.0923
 4939TIP3   OH236375   5.371   0.872   2.000 -0.3539  0.0278 -0.0080
 4939TIP3    H136376   5.343   0.790   1.959 -0.0477 -0.8879  1.5500
 4939TIP3    H236377   5.293   0.927   1.999 -1.1416 -1.0549  0.7823
 4940TIP3   OH236378   1.796   3.543   0.917 -0.1333  0.1485 -0.3615
 4940TIP3    H136379   1.875   3.597   0.922  0.1028 -0.0285 -1.7666
 4940TIP3    H236380   1.771   3.528   1.008  1.0139  0.8412  0.0869
 4941TIP3   OH236381   1.255   1.433   1.616  0.3039  0.0613  0.4112
 4941TIP3    H136382   1.312   1.508   1.632 -0.7325  0.9905 -0.0994
 4941TIP3    H236383   1.212   1.417   1.700  0.4456  0.1037  0.4918
 4942TIP3   OH236384   5.813   3.325   1.134 -0.0963  0.5363 -0.6772
 4942TIP3    H136385   5.815   3.247   1.079  0.7239  0.4869 -0.5873
 4942TIP3    H236386   5.746   3.306   1.200  0.3457 -0.2461 -0.4389
 4943TIP3   OH236387   6.587   5.974   8.277  0.0449 -0.1289  0.4208
 4943TIP3    H136388   6.591   6.059   8.321 -1.0508 -0.0762  0.4542
 4943TIP3    H236389   6.540   5.992   8.196  0.7917 -0.4994 -0.0990
 4944TIP3   OH236390   6.441   6.016   7.882 -0.5277 -0.3482  0.7761
 4944TIP3    H136391   6.484   5.990   7.801  0.4320  0.0798  1.1284
 4944TIP3    H236392   6.435   5.936   7.934  0.1923 -0.3489  0.8695
 4945TIP3   OH236393   2.180   6.534   8.020 -0.6633  0.2124  0.2302
 4945TIP3    H136394   2.270   6.536   8.054  0.2888 -0.1948 -2.1235
 4945TIP3    H236395   2.190   6.538   7.925 -3.1002 -1.2575 -0.1555
 4946TIP3   OH236396   2.824   4.837   1.231  0.1462 -0.1883 -0.2850
 4946TIP3    H136397   2.895   4.874   1.285  1.7038  0.2480 -2.4797
 4946TIP3    H236398   2.848   4.745   1.220  0.6992  0.0797 -1.4615
 4947TIP3   OH236399   3.590   1.304   1.361 -0.3009  0.0260 -0.0325
 4947TIP3    H136400   3.541   1.266   1.288  1.1184 -2.0166  0.0058
 4947TIP3    H236401   3.680   1.308   1.330  0.2514 -0.4488  1.4457
 4948TIP3   OH236402   0.955   2.976   6.554  0.6357 -0.1613  0.0338
 4948TIP3    H136403   0.984   3.016   6.636  1.8207 -0.1722 -0.3629
 4948TIP3    H236404   0.991   2.887   6.558  0.0957 -0.3884 -0.1774
 4949TIP3   OH236405   5.231   0.171   6.740  0.0300 -0.6337  0.1883
 4949TIP3    H136406   5.290   0.142   6.670  1.5771 -0.0462  1.1899
 4949TIP3    H236407   5.211   0.262   6.719  0.0024 -0.6370  0.1991
 4950TIP3   OH236408   5.661   0.371   0.039  0.1143  0.4437  0.0165
 4950TIP3    H136409   5.615   0.393  -0.041  0.8717  0.2344 -0.4927
 4950TIP3    H236410   5.592   0.360   0.105 -0.4731  1.2565 -0.4420
 4951TIP3   OH236411   5.211   4.988   0.257 -0.0735 -0.6287  0.6209
 4951TIP3    H136412   5.204   5.069   0.307 -2.2559 -0.0580 -0.5011
 4951TIP3    H236413   5.168   4.922   0.312  0.7153 -0.8161  1.0358
 4952TIP3   OH236414   4.691   5.237   6.826  0.1911  0.1526  0.0273
 4952TIP3    H136415   4.742   5.172   6.777 -1.0731 -1.6908  1.0238
 4952TIP3    H236416   4.725   5.321   6.797  1.8553 -0.9385 -1.3968
 4953TIP3   OH236417   6.471   2.327   6.310 -0.3342  0.2304 -0.0092
 4953TIP3    H136418   6.412   2.255   6.289  1.7901 -1.1284 -1.9116
 4953TIP3    H236419   6.472   2.381   6.230  0.2761  0.7249  0.3241
 4954TIP3   OH236420   0.483   6.577   6.673  0.2106  0.1795 -0.2081
 4954TIP3    H136421   0.470   6.550   6.764  3.2136  0.6263  0.4799
 4954TIP3    H236422   0.421   6.648   6.659 -1.3822 -0.9140  0.9425
 4955TIP3   OH236423   6.021   3.512   7.966 -1.8355  0.2486  0.1799
 4955TIP3    H136424   6.075   3.466   8.030 -1.9754  1.8500  1.5073
 4955TIP3    H236425   5.952   3.450   7.943 -2.0195 -0.2137  1.8882
 4956TIP3   OH236426   0.122   0.159   8.785 -0.1351 -0.0740  0.3739
 4956TIP3    H136427   0.110   0.080   8.732  0.5441 -1.0068  1.5781
 4956TIP3    H236428   0.048   0.215   8.761 -0.3674 -0.8664 -0.8413
 4957TIP3   OH236429   1.158   6.527   6.763 -0.9761 -0.0922  0.0558
 4957TIP3    H136430   1.177   6.615   6.731 -0.8634  0.5940  1.9157
 4957TIP3    H236431   1.238   6.501   6.809 -0.4094 -1.8278 -1.7448
 4958TIP3   OH236432   3.092   4.159   5.895  0.0110 -0.5783  0.3710
 4958TIP3    H136433   3.140   4.220   5.839  0.6133 -1.8826 -0.5893
 4958TIP3    H236434   3.050   4.215   5.961 -0.8298  1.0396 -1.4295
 4959TIP3   OH236435   6.422   3.831   7.412  0.4467 -0.5306  0.3129
 4959TIP3    H136436   6.338   3.874   7.429  0.3444 -0.9934  1.0260
 4959TIP3    H236437   6.426   3.823   7.317  1.2428  2.5854  0.0011
 4960TIP3   OH236438   6.209   2.115   0.663 -0.0056  0.5449  0.3266
 4960TIP3    H136439   6.267   2.136   0.736  1.8079 -0.7993 -0.6273
 4960TIP3    H236440   6.140   2.181   0.667  1.0683  1.6460  2.0978
 4961TIP3   OH236441   0.917   5.360   7.250  0.0223 -0.4277  0.0501
 4961TIP3    H136442   0.961   5.391   7.170  1.9779 -1.5161  0.6243
 4961TIP3    H236443   0.864   5.286   7.221 -0.8694  0.4327 -0.5487
 4962TIP3   OH236444   5.612   3.169   1.788  0.4232  0.2782  0.0727
 4962TIP3    H136445   5.687   3.227   1.797 -1.3788  2.7505  0.1460
 4962TIP3    H236446   5.563   3.204   1.713 -0.9344 -0.9294  0.3374
 4963TIP3   OH236447   3.230   2.333   7.381 -0.1498 -0.4700  0.0548
 4963TIP3    H136448   3.143   2.352   7.347 -0.4902 -0.1186  1.0977
 4963TIP3    H236449   3.225   2.352   7.475  0.3327 -2.8025  0.6311
 4964TIP3   OH236450   5.126   0.339   8.557 -0.0087 -0.0904  0.7531
 4964TIP3    H136451   5.168   0.339   8.471  1.4761 -0.7312  1.4371
 4964TIP3    H236452   5.182   0.395   8.611  0.0045 -0.9954  1.7073
 4965TIP3   OH236453   1.907   5.544   7.845 -0.1015  0.1381  0.9708
 4965TIP3    H136454   1.877   5.634   7.862 -0.1830 -0.0288  1.7382
 4965TIP3    H236455   1.941   5.547   7.756  0.9251  1.2096  1.3698
 4966TIP3   OH236456   5.795   3.302   7.346 -0.3490  0.5960  0.5736
 4966TIP3    H136457   5.838   3.269   7.424  1.2544  1.2545  0.0110
 4966TIP3    H236458   5.858   3.363   7.308 -1.9982  2.0042 -0.0283
 4967TIP3   OH236459   1.575   2.244   1.069  0.0891  0.1870  0.9520
 4967TIP3    H136460   1.614   2.227   0.983  2.9421 -0.4032  2.2577
 4967TIP3    H236461   1.584   2.338   1.081 -0.6543  0.3265  0.4807
 4968TIP3   OH236462   4.752   5.530   6.468 -0.3449  0.6652  0.0009
 4968TIP3    H136463   4.805   5.570   6.399 -0.3045 -0.4171 -0.6178
 4968TIP3    H236464   4.670   5.505   6.425 -0.7486  0.9447  0.5966
 4969TIP3   OH236465   4.349   5.461   0.405 -0.6129  0.3073 -0.0305
 4969TIP3    H136466   4.343   5.384   0.461  0.7662 -1.8875 -2.6377
 4969TIP3    H236467   4.275   5.452   0.344  1.2864 -0.8510 -2.3479
 4970TIP3   OH236468   6.690   3.378   0.920 -0.0868  0.1188  0.2355
 4970TIP3    H136469   6.653   3.446   0.976  0.4507  0.6155  0.0048
 4970TIP3    H236470   6.620   3.313   0.912 -0.7076  0.7605  0.2638
 4971TIP3   OH236471   3.386   4.406   8.699  0.0384  0.2866 -0.6532
 4971TIP3    H136472   3.331   4.470   8.653  0.0139  0.2581 -0.6642
 4971TIP3    H236473   3.473   4.446   8.701  0.0879  0.1969 -0.9094
 4972TIP3   OH236474   2.290   3.926   1.305 -0.4628  0.0997  0.6323
 4972TIP3    H136475   2.252   3.921   1.393 -1.4223  0.6947  0.2641
 4972TIP3    H236476   2.373   3.973   1.317 -0.8091  0.5890  1.1536
 4973TIP3   OH236477   0.380   5.349   0.576  0.1893  0.3878  0.2604
 4973TIP3    H136478   0.361   5.439   0.602  0.6599  0.8469 -0.9013
 4973TIP3    H236479   0.338   5.295   0.643 -1.7101  1.4321 -0.0278
 4974TIP3   OH236480   2.053   3.314   0.702  0.3430  0.2291 -0.1151
 4974TIP3    H136481   1.961   3.305   0.679  0.8524  0.4110 -2.4523
 4974TIP3    H236482   2.097   3.242   0.657  1.3676  0.1251  0.9857
 4975TIP3   OH236483   3.318   5.073   5.536 -0.0992  0.7124  0.5294
 4975TIP3    H136484   3.401   5.118   5.521 -0.0482  0.9761  1.5465
 4975TIP3    H236485   3.301   5.084   5.630 -0.3055 -0.9895  0.7240
 4976TIP3   OH236486   1.881   0.813   7.109 -0.0301 -0.3780  0.0914
 4976TIP3    H136487   1.794   0.837   7.078  0.5073  1.1125 -0.3736
 4976TIP3    H236488   1.922   0.769   7.035  0.0706  0.1427 -0.1696
 4977TIP3   OH236489   4.885   2.610   0.140 -0.0183  0.4751 -0.0248
 4977TIP3    H136490   4.967   2.618   0.090 -0.7068 -3.9815 -2.3757
 4977TIP3    H236491   4.816   2.622   0.075 -1.0974 -0.5567  0.8885
 4978TIP3   OH236492   6.039   2.588   7.680 -0.4602  0.0175  0.8362
 4978TIP3    H136493   6.060   2.592   7.773 -3.1126  0.5578  1.4744
 4978TIP3    H236494   6.053   2.677   7.647 -0.6425  0.1078  1.0011
 4979TIP3   OH236495   6.295   1.288   7.927 -0.6074  0.1303 -0.1565
 4979TIP3    H136496   6.269   1.221   7.989 -0.2020 -0.2398 -0.3863
 4979TIP3    H236497   6.331   1.240   7.853  0.8353  0.6374  0.1990
 4980TIP3   OH236498   5.264   3.444   0.453  0.1495 -0.2392 -0.6836
 4980TIP3    H136499   5.272   3.533   0.487 -0.0211 -0.5394  0.1754
 4980TIP3    H236500   5.318   3.391   0.511 -2.3423 -1.1996  0.9308
 4981TIP3   OH236501   6.692   1.276   6.426  0.0328 -0.1068  0.6362
 4981TIP3    H136502   6.663   1.200   6.476 -3.5788 -0.2137 -1.2929
 4981TIP3    H236503   6.761   1.242   6.369 -0.3057 -1.5070  1.0337
 4982TIP3   OH236504   4.554   3.747   8.549  0.8480 -0.4353 -0.3162
 4982TIP3    H136505   4.514   3.748   8.636  1.2422  0.6845 -0.1227
 4982TIP3    H236506   4.641   3.785   8.563  0.8608 -0.1122 -1.2151
 4983TIP3   OH236507   1.440   4.957   1.165  0.0167  0.1334  0.0821
 4983TIP3    H136508   1.437   5.047   1.199 -0.3238  0.4913 -0.8470
 4983TIP3    H236509   1.519   4.920   1.202 -0.5673  0.3445  1.6296
 4984TIP3   OH236510   4.167   6.787   0.838  0.1844 -0.6564 -0.0429
 4984TIP3    H136511   4.219   6.831   0.771  1.0797 -1.9530 -0.2493
 4984TIP3    H236512   4.180   6.839   0.917 -2.2556  1.9031 -1.1660
 4985TIP3   OH236513   0.988   3.090   1.656  0.3193 -0.4885  0.3263
 4985TIP3    H136514   1.074   3.053   1.678  0.5041  0.5535  1.5167
 4985TIP3    H236515   1.008   3.168   1.604  0.0583 -0.7361 -0.1415
 4986TIP3   OH236516   6.025   2.236   0.327 -0.8877 -0.5976 -0.2501
 4986TIP3    H136517   6.072   2.256   0.246 -1.0837 -1.7793 -0.6700
 4986TIP3    H236518   5.941   2.282   0.318 -0.5040  0.1197 -0.2497
 4987TIP3   OH236519   5.328   6.779   0.592 -0.0419 -0.2587 -0.0518
 4987TIP3    H136520   5.281   6.773   0.509 -0.9563  1.2254  0.3275
 4987TIP3    H236521   5.261   6.769   0.659  0.1092  1.8670  0.4965
 4988TIP3   OH236522   3.292   3.683   6.418  0.1293  0.1964 -0.2352
 4988TIP3    H136523   3.222   3.712   6.359 -1.5690 -1.6185  0.7785
 4988TIP3    H236524   3.337   3.613   6.369 -0.3095 -0.2696  0.0196
 4989TIP3   OH236525   6.028   1.709   6.434  0.1448  0.5248  0.7922
 4989TIP3    H136526   6.104   1.755   6.469 -0.4277  1.2865  1.0668
 4989TIP3    H236527   6.019   1.632   6.489 -0.1888  1.2309  1.7574
 4990TIP3   OH236528   0.850   2.664   7.749 -0.0030  0.5098  0.1437
 4990TIP3    H136529   0.797   2.740   7.774 -0.1263  0.5646 -0.2774
 4990TIP3    H236530   0.821   2.594   7.808 -0.9948  0.3681 -0.4879
 4991TIP3   OH236531   1.754   1.902   7.263  0.1447 -0.6877 -0.0917
 4991TIP3    H136532   1.675   1.860   7.231 -0.1588 -1.6846  1.8051
 4991TIP3    H236533   1.825   1.846   7.233 -0.1094 -1.4178  0.6120
 4992TIP3   OH236534   3.239   5.554   8.523 -0.4332  0.0482  0.3338
 4992TIP3    H136535   3.151   5.543   8.486 -0.5418 -0.1909  0.6550
 4992TIP3    H236536   3.285   5.472   8.500  0.1186  0.6777 -0.9260
 4993TIP3   OH236537   1.234   4.764   7.236 -0.2054 -0.5904  0.3165
 4993TIP3    H136538   1.300   4.696   7.227  0.9893  0.5671 -0.0489
 4993TIP3    H236539   1.247   4.821   7.160 -1.0644  0.1274  0.6842
 4994TIP3   OH236540   0.478   6.084   7.889  0.3297  0.3813 -0.4300
 4994TIP3    H136541   0.392   6.041   7.890  0.6010 -0.1583  1.0005
 4994TIP3    H236542   0.474   6.141   7.812 -1.2656  0.2690 -0.4747
 4995TIP3   OH236543   1.276   1.951   1.895  0.6194  0.0086  0.5342
 4995TIP3    H136544   1.228   2.027   1.928 -1.4713 -0.6674 -0.8089
 4995TIP3    H236545   1.272   1.887   1.967 -1.9067 -0.6047 -0.0768
 4996TIP3   OH236546   2.938   0.369   0.509 -0.1628 -0.1369  0.5697
 4996TIP3    H136547   2.975   0.284   0.487  1.3169  0.1320  1.8832
 4996TIP3    H236548   2.887   0.354   0.589  0.0891  0.1948  0.7973
 4997TIP3   OH236549   0.513   6.330   7.150  0.6380  0.1922 -0.4487
 4997TIP3    H136550   0.462   6.329   7.231  1.3416  0.9743  0.0310
 4997TIP3    H236551   0.544   6.240   7.139  0.5579  0.0886  0.1689
 4998TIP3   OH236552   2.804   0.768   8.096 -0.0974  0.2947  0.0256
 4998TIP3    H136553   2.890   0.751   8.135 -0.6240  1.7259  1.9904
 4998TIP3    H236554   2.820   0.837   8.032  0.4185 -0.5072 -0.7427
 4999TIP3   OH236555   6.071   0.712   7.211  0.1321 -0.4662 -0.2720
 4999TIP3    H136556   6.060   0.789   7.156 -0.8844 -0.8350 -0.6057
 4999TIP3    H236557   6.022   0.643   7.166 -1.9675 -0.4291  1.8155
 5000TIP3   OH236558   4.898   0.841   7.228  0.1711  0.2003  0.3060
 5000TIP3    H136559   4.859   0.813   7.145  0.9473  0.4036 -0.1348
 5000TIP3    H236560   4.841   0.803   7.295 -1.2412  1.1370 -0.3194
 5001TIP3   OH236561   5.686   4.878   7.325 -0.1921  0.2744  0.0518
 5001TIP3    H136562   5.689   4.960   7.373  1.1321  0.8594 -0.9527
 5001TIP3    H236563   5.639   4.817   7.383 -0.4755  1.5012  1.1496
 5002TIP3   OH236564   1.962   4.388   2.216  0.0774 -0.4692 -0.5372
 5002TIP3    H136565   1.927   4.463   2.263 -0.2838  0.5971 -2.3846
 5002TIP3    H236566   2.057   4.394   2.226 -0.0114 -0.4689  0.3216
 5003TIP3   OH236567   3.351   3.411   0.067 -0.3805  0.2799  0.2845
 5003TIP3    H136568   3.414   3.390   0.136  0.9548 -1.2425 -1.3081
 5003TIP3    H236569   3.273   3.360   0.088  0.6920 -1.7067 -0.2775
 5004TIP3   OH236570   3.385   1.731   6.116 -0.4896  0.1482 -0.1782
 5004TIP3    H136571   3.414   1.640   6.110 -1.9343 -0.3029 -0.7358
 5004TIP3    H236572   3.461   1.779   6.149  0.3979 -1.2015 -0.2174
 5005TIP3   OH236573   1.380   4.553   8.130  0.2685  0.8220  0.2416
 5005TIP3    H136574   1.376   4.623   8.065 -1.1109  0.6050  0.0753
 5005TIP3    H236575   1.466   4.514   8.117 -0.4271 -0.0281 -2.3275
 5006TIP3   OH236576   1.476   6.613   5.941  0.0937  0.5051  0.4877
 5006TIP3    H136577   1.530   6.534   5.938  1.1325  1.2063  0.1991
 5006TIP3    H236578   1.518   6.667   6.008  0.0604  1.2844 -0.1187
 5007TIP3   OH236579   2.068   3.685   7.523 -0.0837  0.1885 -0.1353
 5007TIP3    H136580   2.025   3.604   7.549 -0.4567 -0.4288 -2.4154
 5007TIP3    H236581   1.998   3.751   7.523 -0.5367 -0.2563 -1.4019
 5008TIP3   OH236582   0.056   3.246   6.756 -0.4825 -0.4023  0.0161
 5008TIP3    H136583   0.143   3.274   6.729 -0.3131 -1.8678 -1.1243
 5008TIP3    H236584   0.072   3.173   6.816 -0.9247  0.4172  1.1687
 5009TIP3   OH236585   1.694   0.865   7.390 -0.0389  0.6714  0.0274
 5009TIP3    H136586   1.773   0.874   7.336 -0.3216 -0.7458 -0.6833
 5009TIP3    H236587   1.632   0.928   7.353 -0.2702 -0.3672 -1.4357
 5010TIP3   OH236588   3.838   4.902   1.047  0.0727 -0.5102 -0.1704
 5010TIP3    H136589   3.817   4.865   1.132 -0.6896  0.0185 -0.1173
 5010TIP3    H236590   3.923   4.864   1.024  0.1184 -0.9243  0.6602
 5011TIP3   OH236591   4.641   4.891   7.104  0.2002 -0.4415 -0.2618
 5011TIP3    H136592   4.608   4.910   7.191  0.2833 -0.3192 -0.2566
 5011TIP3    H236593   4.619   4.799   7.089 -2.5417  0.2978 -1.3170
 5012TIP3   OH236594   3.783   3.406   0.547 -0.0511 -0.4316  0.2543
 5012TIP3    H136595   3.800   3.499   0.533  1.4564 -0.7769 -0.4090
 5012TIP3    H236596   3.688   3.398   0.539 -0.0431  0.7380 -1.8909
 5013TIP3   OH236597   2.257   5.278   1.209 -0.0677 -0.1737 -0.0780
 5013TIP3    H136598   2.337   5.230   1.190 -0.6476 -1.0410 -0.3747
 5013TIP3    H236599   2.208   5.221   1.269 -0.5193  0.2886  0.0044
 5014TIP3   OH236600   6.388   0.899   7.285 -0.1212 -0.2864  0.2007
 5014TIP3    H136601   6.443   0.902   7.364  1.4650 -0.1283 -0.8743
 5014TIP3    H236602   6.327   0.972   7.296  1.3630  0.9661  0.3880
 5015TIP3   OH236603   3.648   4.049   6.516 -0.3104  0.2036  0.2487
 5015TIP3    H136604   3.607   4.003   6.589 -1.3247  0.0892 -0.3724
 5015TIP3    H236605   3.740   4.025   6.521 -0.2243  0.7891  1.9211
 5016TIP3   OH236606   6.421   3.982   8.210  0.0896 -0.2429  0.4503
 5016TIP3    H136607   6.396   3.998   8.119  0.8934 -0.6671  0.1444
 5016TIP3    H236608   6.410   3.888   8.222 -1.3697 -0.0110  1.2367
 5017TIP3   OH236609   1.939   0.143   6.867  0.3948  0.0597 -0.1731
 5017TIP3    H136610   1.928   0.099   6.783 -0.1297 -0.3973  0.1281
 5017TIP3    H236611   2.021   0.192   6.858 -0.3202  1.1037 -1.4269
 5018TIP3   OH236612   2.408   2.277   8.656 -0.8072 -0.3534 -0.6006
 5018TIP3    H136613   2.407   2.370   8.635  1.1511  0.6557  2.9164
 5018TIP3    H236614   2.323   2.260   8.697 -0.3642  0.5026  0.7230
 5019TIP3   OH236615   5.819   0.583   1.582 -0.5920 -0.5251  0.7664
 5019TIP3    H136616   5.793   0.492   1.593 -0.1179 -0.5567  1.7019
 5019TIP3    H236617   5.886   0.581   1.513 -0.1232 -0.9628  1.2329
 5020TIP3   OH236618   5.214   5.551   2.018 -0.0446 -0.2838  0.0460
 5020TIP3    H136619   5.146   5.592   1.965  0.7468  0.9471 -0.0585
 5020TIP3    H236620   5.214   5.600   2.100  0.1898 -0.7803  0.3468
 5021TIP3   OH236621   3.162   3.984   7.707 -0.6359 -0.8295 -0.4655
 5021TIP3    H136622   3.069   3.963   7.709 -0.9172  0.3242  1.9295
 5021TIP3    H236623   3.190   3.974   7.798  0.6306  2.7510 -0.3357
 5022TIP3   OH236624   2.513   5.219   8.609  1.1262 -0.4073 -0.2978
 5022TIP3    H136625   2.456   5.154   8.648  0.4888 -0.2320 -0.9180
 5022TIP3    H236626   2.593   5.172   8.587  0.9678 -0.8023 -0.0219
 5023TIP3   OH236627   5.889   6.474   0.525  0.3945 -0.1873  0.0026
 5023TIP3    H136628   5.861   6.391   0.486 -0.1613 -0.3152  0.6659
 5023TIP3    H236629   5.904   6.531   0.449  0.4774 -0.7916 -0.4474
 5024TIP3   OH236630   3.119   2.484   0.233  0.4443  0.4951 -0.5054
 5024TIP3    H136631   3.146   2.517   0.318  1.4474  0.2510 -0.7209
 5024TIP3    H236632   3.151   2.549   0.170  0.1693  0.4119 -0.7365
 5025TIP3   OH236633   3.617   4.075   0.244 -0.5235  0.3043  0.1399
 5025TIP3    H136634   3.697   4.085   0.192  0.2977 -1.6651  0.9409
 5025TIP3    H236635   3.557   4.140   0.208  0.4732 -0.0500 -2.3548
 5026TIP3   OH236636   0.201   5.407   7.817 -0.3051 -0.9847  0.0637
 5026TIP3    H136637   0.244   5.436   7.897  0.1936  2.5239 -1.3060
 5026TIP3    H236638   0.108   5.419   7.835 -0.1543  0.8369 -0.1383
 5027TIP3   OH236639   2.663   4.157   7.574  0.0479 -0.1476 -0.1083
 5027TIP3    H136640   2.633   4.081   7.625 -0.2532  1.0290  1.5400
 5027TIP3    H236641   2.584   4.208   7.558 -0.1515 -1.2290 -3.2007
 5028TIP3   OH236642   2.928   2.141   6.415 -0.3489 -0.1745 -0.7255
 5028TIP3    H136643   2.856   2.142   6.351 -0.4018  0.1264 -0.6631
 5028TIP3    H236644   2.997   2.193   6.374 -1.7011  3.3346  0.9489
 5029TIP3   OH236645   5.645   4.704   0.494  0.5488 -0.1517  0.0253
 5029TIP3    H136646   5.575   4.765   0.471  1.1541  0.5516  0.0159
 5029TIP3    H236647   5.623   4.674   0.582  0.9979  1.2062  0.6236
 5030TIP3   OH236648   1.322   1.782   8.375  0.0779 -0.5480 -0.1544
 5030TIP3    H136649   1.383   1.854   8.388  0.0325 -0.4125 -0.6609
 5030TIP3    H236650   1.286   1.796   8.287 -0.8461 -0.5066  0.2228
 5031TIP3   OH236651   0.158   0.631   0.945  0.3181 -0.4906  0.2366
 5031TIP3    H136652   0.241   0.661   0.910 -0.2824  1.6398  0.5119
 5031TIP3    H236653   0.123   0.574   0.876  0.7284  0.8661 -1.1580
 5032TIP3   OH236654   0.961   4.353   1.267  0.1161 -0.2624 -0.2211
 5032TIP3    H136655   0.962   4.420   1.198 -1.8017 -3.4494 -3.7503
 5032TIP3    H236656   1.023   4.288   1.237  2.0762 -0.1630  3.2067
 5033TIP3   OH236657   1.856   2.025   0.766 -0.1523  0.7492  0.4785
 5033TIP3    H136658   1.772   2.052   0.803 -0.0179  1.2301  0.4413
 5033TIP3    H236659   1.914   2.100   0.781 -0.2682  1.2335 -1.2644
 5034TIP3   OH236660   4.646   1.518   7.531  0.0874 -0.4460 -0.1872
 5034TIP3    H136661   4.727   1.552   7.494 -0.8461 -0.6330 -2.5870
 5034TIP3    H236662   4.617   1.451   7.468 -2.6564  0.6526 -0.2404
 5035TIP3   OH236663   6.380   3.244   6.806  0.5079 -0.4750  0.0956
 5035TIP3    H136664   6.425   3.159   6.811 -3.2728 -2.8735 -1.8000
 5035TIP3    H236665   6.311   3.238   6.871  1.7799  2.4822  1.9058
 5036TIP3   OH236666   6.244   2.561   0.252 -0.0749 -0.6542 -0.4119
 5036TIP3    H136667   6.209   2.562   0.163 -0.3203 -0.8405 -0.3184
 5036TIP3    H236668   6.307   2.489   0.252  1.4346  0.5995 -0.9994
 5037TIP3   OH236669   5.537   2.217   7.868  0.3969 -0.2057  0.1312
 5037TIP3    H136670   5.520   2.130   7.904  0.7841  0.5686  2.3212
 5037TIP3    H236671   5.452   2.262   7.873 -0.3102 -0.9815 -2.8281
 5038TIP3   OH236672   6.004   6.560   8.533 -0.3170  0.2794  0.2287
 5038TIP3    H136673   5.959   6.477   8.548  1.0260 -0.3693  0.8676
 5038TIP3    H236674   6.038   6.553   8.444  0.1730 -0.0448  0.4400
 5039TIP3   OH236675   4.983   6.519   0.097  0.0862 -0.4477  0.2884
 5039TIP3    H136676   4.934   6.547   0.175 -1.5143  1.1223 -1.1901
 5039TIP3    H236677   5.055   6.582   0.091  0.1515 -0.5073  0.4554
 5040TIP3   OH236678   2.768   0.487   1.155  0.0531 -0.0976  0.3142
 5040TIP3    H136679   2.734   0.400   1.177 -0.1628 -0.2726 -0.6646
 5040TIP3    H236680   2.861   0.482   1.175 -0.2479  0.0285  1.9522
 5041TIP3   OH236681   6.353   4.892   7.648  0.2444 -0.3404  0.1417
 5041TIP3    H136682   6.401   4.884   7.565  1.3052 -0.8509  0.7940
 5041TIP3    H236683   6.328   4.984   7.652 -1.0398 -0.5625 -1.3942
 5042TIP3   OH236684   3.630   4.881   8.038 -0.0297  0.0541 -0.2184
 5042TIP3    H136685   3.655   4.928   8.117  0.1740 -0.6979  0.1768
 5042TIP3    H236686   3.616   4.791   8.067 -0.8185 -0.0454 -0.8839
 5043TIP3   OH236687   4.936   3.582   6.396  0.2062 -0.2391 -0.7062
 5043TIP3    H136688   4.978   3.524   6.460  0.5817  0.3337 -0.4250
 5043TIP3    H236689   4.884   3.643   6.448 -0.3741 -0.4572 -1.0135
 5044TIP3   OH236690   4.269   5.652   8.219 -0.7865  0.0792 -0.3069
 5044TIP3    H136691   4.269   5.614   8.306  0.5043 -0.7832 -0.6491
 5044TIP3    H236692   4.293   5.744   8.233 -0.4213 -0.0936  0.2385
 5045TIP3   OH236693   2.904   4.672   8.711 -0.2907 -0.1233 -0.0529
 5045TIP3    H136694   2.972   4.711   8.766 -0.6825 -0.9924  1.0753
 5045TIP3    H236695   2.917   4.578   8.719  0.8183 -0.3044 -2.9707
 5046TIP3   OH236696   6.715   6.166   6.972 -0.1526  0.2306  0.2418
 5046TIP3    H136697   6.727   6.077   7.004  3.5109  0.6697  0.5413
 5046TIP3    H236698   6.711   6.157   6.877  0.3834 -0.2591  0.2613
 5047TIP3   OH236699   0.173   3.260   1.442 -0.0235  0.1188  0.2155
 5047TIP3    H136700   0.155   3.216   1.525  1.1587 -0.8369 -0.0161
 5047TIP3    H236701   0.185   3.352   1.466  0.0787 -0.1103  1.0686
 5048TIP3   OH236702   0.383   4.581   8.273  0.0730  0.0546 -0.1189
 5048TIP3    H136703   0.452   4.595   8.337 -0.5124 -0.4961  0.6595
 5048TIP3    H236704   0.411   4.629   8.196 -0.5536  3.2173  1.4664
 5049TIP3   OH236705   0.950   5.106   7.022 -0.0085 -0.2427  0.2910
 5049TIP3    H136706   0.922   5.027   6.976  0.1213 -1.1533  1.7254
 5049TIP3    H236707   1.044   5.091   7.038  0.1423  0.4621  0.0873
 5050TIP3   OH236708   4.081   2.798   7.136  0.0331 -0.1481 -0.1990
 5050TIP3    H136709   3.994   2.837   7.135 -0.1062 -0.4515 -1.6212
 5050TIP3    H236710   4.066   2.705   7.120  0.3863 -0.8137  2.7540
 5051TIP3   OH236711   2.791   4.853   6.819  0.4725 -0.4933 -0.2988
 5051TIP3    H136712   2.809   4.768   6.779 -0.2780  0.3000 -2.4137
 5051TIP3    H236713   2.704   4.843   6.858  0.4864 -0.7614 -0.3348
 5052TIP3   OH236714   0.314   5.836   8.486 -0.2090 -0.2769  0.1255
 5052TIP3    H136715   0.357   5.770   8.540  1.4859  1.8644  1.5586
 5052TIP3    H236716   0.262   5.887   8.548 -0.3467  0.6124 -0.6999
 5053TIP3   OH236717   3.597   2.775   8.361  0.4876 -0.4179  0.0263
 5053TIP3    H136718   3.666   2.838   8.381  0.1446 -0.4390  1.3312
 5053TIP3    H236719   3.522   2.803   8.414  0.8164 -2.8313  1.9153
 5054TIP3   OH236720   0.797   3.200   8.333 -0.0081 -0.5193 -0.2196
 5054TIP3    H136721   0.734   3.204   8.405 -0.8413 -2.1172 -0.8184
 5054TIP3    H236722   0.746   3.219   8.255  1.3635  3.9264 -0.3143
 5055TIP3   OH236723   6.568   1.691   7.817 -0.7176  0.1106 -0.2356
 5055TIP3    H136724   6.530   1.612   7.779  0.4436  0.1766 -1.6222
 5055TIP3    H236725   6.502   1.759   7.805 -1.6468 -0.5677  0.7925
 5056TIP3   OH236726   2.143   2.776   7.232 -0.0002  0.0052  0.0321
 5056TIP3    H136727   2.181   2.724   7.161  2.0109  1.0987  0.2404
 5056TIP3    H236728   2.186   2.744   7.311 -0.5938  0.2924  0.4774
 5057TIP3   OH236729   1.940   6.656   7.573  0.2823  0.6980 -0.3558
 5057TIP3    H136730   2.008   6.684   7.512  1.4581 -0.1298  0.5165
 5057TIP3    H236731   1.947   6.717   7.646  1.5154 -0.5929  0.6572
 5058TIP3   OH236732   6.392   2.831   0.137 -0.4969  0.9979 -0.1954
 5058TIP3    H136733   6.378   2.763   0.071 -0.1958  1.9956 -1.3155
 5058TIP3    H236734   6.314   2.886   0.131 -2.0020 -0.6114  2.5038
 5059TIP3   OH236735   5.858   3.160   0.863  0.8002  1.0469 -0.3232
 5059TIP3    H136736   5.769   3.196   0.853  0.6638  0.3048 -2.0468
 5059TIP3    H236737   5.844   3.073   0.902  0.8921  1.4570  0.6601
 5060TIP3   OH236738   1.976   1.729   7.476  0.5272  0.3732 -0.0371
 5060TIP3    H136739   2.022   1.813   7.477 -2.3516  2.0857  0.5876
 5060TIP3    H236740   1.943   1.720   7.387 -0.1705  0.5039  0.2049
 5061TIP3   OH236741   1.777   5.301   1.502  0.4506  0.5357  0.0727
 5061TIP3    H136742   1.732   5.368   1.451 -0.7572  0.1991  0.6512
 5061TIP3    H236743   1.823   5.349   1.570  1.6283  0.9447 -0.9900
 5062TIP3   OH236744   1.997   4.883   8.673 -1.2266  0.4222 -0.9535
 5062TIP3    H136745   1.976   4.973   8.648 -0.6252  0.7904 -0.1715
 5062TIP3    H236746   2.054   4.852   8.602 -0.3169  1.1309 -0.5521
 5063TIP3   OH236747   3.774   3.580   8.298 -0.4753  0.0159  0.3212
 5063TIP3    H136748   3.735   3.493   8.313 -1.0540  0.1025 -0.6094
 5063TIP3    H236749   3.831   3.568   8.222 -1.3841  0.6788 -0.4925
 5064TIP3   OH236750   4.798   3.975   7.844 -0.0500  0.2698  0.1970
 5064TIP3    H136751   4.720   4.030   7.834 -0.2586  0.0482  0.5714
 5064TIP3    H236752   4.848   4.016   7.915 -0.7026 -0.5767  1.1744
 5065TIP3   OH236753   5.033   3.940   8.385  0.0442 -0.1826  0.2338
 5065TIP3    H136754   5.087   3.968   8.311 -0.4215 -0.3982 -0.2007
 5065TIP3    H236755   4.995   3.857   8.355 -0.7426  0.1059  0.4156
 5066TIP3   OH236756   4.585   1.931   7.814  0.1279  0.0763 -0.4638
 5066TIP3    H136757   4.569   1.937   7.720  0.0995 -1.1257 -0.5573
 5066TIP3    H236758   4.579   1.837   7.833 -3.8024  0.4998  1.4305
 5067TIP3   OH236759   5.750   5.049   8.656 -0.3189 -0.3026 -0.2189
 5067TIP3    H136760   5.711   5.028   8.741  0.5876 -0.7223  0.1113
 5067TIP3    H236761   5.797   4.969   8.631 -0.1161  0.0082 -0.8497
 5068TIP3   OH236762   6.392   3.262   1.285 -0.7887 -0.1347 -0.3752
 5068TIP3    H136763   6.447   3.311   1.346  0.3325 -1.1606 -0.5202
 5068TIP3    H236764   6.400   3.310   1.202  0.7815 -0.8424 -0.6724
 5069TIP3   OH236765   1.882   1.533   1.105  0.6622  0.5503 -0.1630
 5069TIP3    H136766   1.803   1.580   1.132  0.7981  0.6636  0.0405
 5069TIP3    H236767   1.954   1.589   1.133  0.8671 -0.4694  1.4426
 5070TIP3   OH236768   0.040   3.667   8.137  0.0454 -0.2855 -0.2340
 5070TIP3    H136769   0.077   3.751   8.163  0.0929 -0.2672 -0.3631
 5070TIP3    H236770  -0.050   3.687   8.112 -0.3344 -0.4636  0.9251
 5071TIP3   OH236771   0.796   1.035   7.077  0.0579  0.0407 -0.5697
 5071TIP3    H136772   0.810   0.987   7.159  0.7013  1.6812  0.3193
 5071TIP3    H236773   0.849   1.114   7.086 -3.5402  2.7085 -0.4593
 5072TIP3   OH236774   6.302   3.949   0.624  0.1934 -0.2870 -0.1515
 5072TIP3    H136775   6.270   3.860   0.638  1.0441 -0.6366 -0.3705
 5072TIP3    H236776   6.371   3.940   0.559  0.8672  0.4143  0.4504
 5073TIP3   OH236777   0.789   6.160   6.899  0.0630 -0.0107  0.5064
 5073TIP3    H136778   0.851   6.231   6.914 -1.5873  1.4754  0.7086
 5073TIP3    H236779   0.820   6.088   6.953  1.6750  0.6090  0.4541
 5074TIP3   OH236780   2.741   0.142   8.767 -0.3595 -0.4655  0.1019
 5074TIP3    H136781   2.746   0.062   8.820 -0.4302 -0.3352  0.3062
 5074TIP3    H236782   2.829   0.153   8.732 -1.0119 -2.2851 -2.3870
 5075TIP3   OH236783   4.481   5.402   6.922  0.0763  0.7182  0.2268
 5075TIP3    H136784   4.481   5.380   7.015 -0.9369 -0.0857  0.0498
 5075TIP3    H236785   4.533   5.332   6.881 -1.8999 -0.6277 -0.1450
 5076TIP3   OH236786   3.459   0.117   0.171 -0.0862  0.0847 -0.3271
 5076TIP3    H136787   3.553   0.100   0.175 -0.0843  0.2654  0.7347
 5076TIP3    H236788   3.420   0.054   0.231 -0.2633  2.2919  2.0796
 5077TIP3   OH236789   2.039   6.311   8.518 -0.7931  0.1707 -0.6711
 5077TIP3    H136790   2.063   6.219   8.510  0.6600  0.2722  1.5995
 5077TIP3    H236791   1.953   6.318   8.475 -0.6689 -2.0817 -1.3892
 5078TIP3   OH236792   4.616   6.023   8.793 -0.3956 -0.8926 -0.4096
 5078TIP3    H136793   4.532   6.017   8.838 -0.1296  1.0510  0.4070
 5078TIP3    H236794   4.603   6.091   8.727  0.4262 -0.8419 -0.5273
 5079TIP3   OH236795   4.982   5.083   1.200 -0.1578  0.2842  0.4090
 5079TIP3    H136796   5.042   5.117   1.267 -0.3376 -0.2966  0.8810
 5079TIP3    H236797   5.039   5.043   1.135 -0.0314 -1.3716  1.4677
 5080TIP3   OH236798   1.535   6.387   7.140  0.6757 -0.3411 -0.1006
 5080TIP3    H136799   1.482   6.416   7.065 -0.3423 -1.9541 -0.0726
 5080TIP3    H236800   1.470   6.364   7.207  1.3878 -2.2147  0.0029
 5081TIP3   OH236801   0.537   3.523   6.599 -0.4219  0.7834  0.0562
 5081TIP3    H136802   0.523   3.560   6.512 -1.5185  2.0655  0.7451
 5081TIP3    H236803   0.630   3.534   6.615 -0.4098  1.6099 -0.4977
 5082TIP3   OH236804   3.468   0.640   8.389  0.8604  0.1143 -0.0381
 5082TIP3    H136805   3.462   0.685   8.473 -2.3209 -1.9442  1.0206
 5082TIP3    H236806   3.519   0.561   8.408  0.7118 -0.0234 -0.2038
 5083TIP3   OH236807   3.869   3.752   1.563 -0.1869 -0.3479 -0.1202
 5083TIP3    H136808   3.928   3.688   1.524  0.0669  0.2303 -0.7108
 5083TIP3    H236809   3.917   3.787   1.638  0.4035  0.3989 -0.8226
 5084TIP3   OH236810   2.421   3.999   6.654  0.3498 -0.4448 -0.0229
 5084TIP3    H136811   2.345   4.006   6.597  0.9278  0.3785 -0.7276
 5084TIP3    H236812   2.495   4.022   6.597  0.9668  0.1268  0.9899
 5085TIP3   OH236813   0.417   5.530   8.790  0.5177 -0.4569 -0.1214
 5085TIP3    H136814   0.491   5.568   8.744  1.1598 -1.9099 -0.3576
 5085TIP3    H236815   0.347   5.527   8.724  0.5068  0.1650 -0.1388
 5086TIP3   OH236816   1.004   4.955   1.182  0.2506 -0.2601 -0.3209
 5086TIP3    H136817   0.965   4.971   1.268 -0.7321  0.2704 -0.8499
 5086TIP3    H236818   1.090   4.998   1.187  0.4234 -0.6769  0.5617
 5087TIP3   OH236819   0.187   0.104   8.198 -0.4385  0.0827 -0.0999
 5087TIP3    H136820   0.184   0.085   8.105  0.5808 -2.2696  0.2697
 5087TIP3    H236821   0.114   0.054   8.235  1.8092 -2.7615  0.8208
 5088TIP3   OH236822   0.007   3.749   7.491  0.6523 -0.1301 -0.7913
 5088TIP3    H136823   0.076   3.790   7.438  0.0268  0.3816 -1.2149
 5088TIP3    H236824   0.018   3.788   7.578 -0.4397  1.5745 -1.3831
 5089TIP3   OH236825   0.916   5.297   6.651 -0.3734 -0.1865 -0.2509
 5089TIP3    H136826   1.004   5.269   6.677  0.0967  2.7421  1.8265
 5089TIP3    H236827   0.868   5.216   6.639  1.4755 -1.9460  2.7923
 5090TIP3   OH236828   5.667   4.655   8.106  0.0738  0.0973  0.1442
 5090TIP3    H136829   5.693   4.565   8.123  0.0854 -0.1323 -1.0541
 5090TIP3    H236830   5.710   4.678   8.024  0.0082  1.1724  0.3982
 5091TIP3   OH236831   5.530   1.597   7.411 -0.2527 -0.1057  0.1853
 5091TIP3    H136832   5.504   1.687   7.393  0.2858 -0.2814 -1.6463
 5091TIP3    H236833   5.512   1.585   7.504  2.5359  2.8728  1.2932
 5092TIP3   OH236834   3.851   6.768   0.810  0.2815  0.0159 -0.1457
 5092TIP3    H136835   3.940   6.732   0.812  0.4718  0.5077  0.4642
 5092TIP3    H236836   3.852   6.838   0.875 -1.3687 -1.9280  2.1891
 5093TIP3   OH236837   0.216   0.480   0.413  0.1327 -0.3696 -0.1953
 5093TIP3    H136838   0.175   0.411   0.467 -1.3150  1.4481  1.1650
 5093TIP3    H236839   0.310   0.467   0.426 -0.1149 -1.7185  0.5010
 5094TIP3   OH236840   2.088   6.413   0.178  0.0205  0.1873 -0.0642
 5094TIP3    H136841   2.062   6.465   0.255  2.1230  0.5625  0.4522
 5094TIP3    H236842   2.005   6.383   0.141 -1.2119  2.4554  0.6285
 5095TIP3   OH236843   3.127   0.531   8.197 -0.1329 -0.5299 -0.2956
 5095TIP3    H136844   3.100   0.608   8.248  0.6442 -0.8036  0.5664
 5095TIP3    H236845   3.218   0.550   8.173 -0.2956 -0.6891 -1.0340
 5096TIP3   OH236846   2.577   2.957   6.956 -0.1376 -0.4968 -0.5017
 5096TIP3    H136847   2.592   2.865   6.936  0.3381 -0.4538 -0.3681
 5096TIP3    H236848   2.567   2.959   7.051  1.4329 -0.2252 -0.3026
 5097TIP3   OH236849   2.621   0.788   7.179  0.3547 -0.1891  0.0651
 5097TIP3    H136850   2.649   0.750   7.263  0.5319 -1.0824 -0.3876
 5097TIP3    H236851   2.551   0.849   7.203 -0.8314 -1.7156  0.7117
 5098TIP3   OH236852   2.075   3.985   7.669 -0.1353 -0.0004 -0.8007
 5098TIP3    H136853   2.110   3.914   7.723 -1.8466 -0.7487 -0.6431
 5098TIP3    H236854   1.990   3.954   7.640 -0.7580  1.8480 -1.0446
 5099TIP3   OH236855   4.153   1.671   6.922 -0.8668 -0.3317  0.0997
 5099TIP3    H136856   4.073   1.632   6.956 -2.2700  1.4190 -0.9866
 5099TIP3    H236857   4.146   1.661   6.827 -0.5673  1.2018 -0.1077
 5100TIP3   OH236858   1.687   5.157   2.047  0.1251  0.0513 -0.2545
 5100TIP3    H136859   1.650   5.119   2.127  1.7348  0.5035  0.7679
 5100TIP3    H236860   1.772   5.114   2.036 -0.2225 -0.2643 -1.9570
 5101TIP3   OH236861   1.386   0.476   6.226 -0.2564 -0.2281  0.1059
 5101TIP3    H136862   1.346   0.389   6.221 -0.2743 -0.2565  0.6887
 5101TIP3    H236863   1.314   0.535   6.247 -0.0963 -0.1909  0.5477
 5102TIP3   OH236864   1.605   4.119   8.091  0.3574  0.3412 -0.6799
 5102TIP3    H136865   1.539   4.141   8.026  0.1791  1.9029 -0.0121
 5102TIP3    H236866   1.681   4.173   8.067  1.4247 -1.3970 -1.4187
 5103TIP3   OH236867   0.050   4.067   0.524 -0.3278  0.1888 -0.3171
 5103TIP3    H136868   0.099   4.132   0.473 -0.7333  0.4189 -0.4113
 5103TIP3    H236869   0.083   3.983   0.492 -0.2617  0.3385 -0.6489
 5104TIP3   OH236870   6.632   4.172   0.913  0.3886  0.1968 -0.8185
 5104TIP3    H136871   6.602   4.257   0.881 -1.4234  1.2160  2.9854
 5104TIP3    H236872   6.568   4.109   0.877  1.3547  0.4292 -3.1103
 5105TIP3   OH236873   0.975   0.147   7.702 -0.6477  0.3634  0.0270
 5105TIP3    H136874   0.979   0.231   7.656 -0.5970 -0.6061 -1.8555
 5105TIP3    H236875   0.891   0.109   7.676 -0.2090 -0.6203 -0.0095
 5106TIP3   OH236876   1.558   1.444   1.252 -0.3543 -0.0257 -0.6643
 5106TIP3    H136877   1.585   1.507   1.319  1.6318  0.1210 -1.5186
 5106TIP3    H236878   1.509   1.377   1.299 -0.0120  0.6835  0.7268
 5107TIP3   OH236879   0.527   2.849   7.099  0.2590 -0.2497  0.2761
 5107TIP3    H136880   0.435   2.829   7.081  0.6834 -1.2081 -0.9252
 5107TIP3    H236881   0.561   2.882   7.016  1.1800 -0.5714  0.5212
 5108TIP3   OH236882   4.860   6.028   6.499  0.4480 -0.0734 -0.1677
 5108TIP3    H136883   4.916   5.951   6.511 -0.5181 -0.7552  0.0756
 5108TIP3    H236884   4.876   6.082   6.577  0.8309 -0.2063 -0.1514
 5109TIP3   OH236885   2.033   5.516   1.491 -0.2547  0.0692  0.0563
 5109TIP3    H136886   1.966   5.569   1.448 -0.2724 -1.0401 -1.3351
 5109TIP3    H236887   1.999   5.499   1.578 -1.4138  0.1888 -0.3636
 5110TIP3   OH236888   0.997   4.736   0.347 -0.2705 -0.0773  0.3203
 5110TIP3    H136889   1.003   4.701   0.436  1.3270 -0.9836 -0.1089
 5110TIP3    H236890   1.028   4.664   0.291 -1.6559  0.3197 -1.0173
 5111TIP3   OH236891   2.140   1.375   6.317 -0.0046 -0.1097 -0.2021
 5111TIP3    H136892   2.100   1.415   6.240 -0.6753 -0.2739  0.0589
 5111TIP3    H236893   2.161   1.449   6.375 -2.2197 -0.1696  0.7514
 5112TIP3   OH236894   0.896   1.264   7.485 -0.8478  0.5229  0.1070
 5112TIP3    H136895   0.818   1.212   7.469 -1.1558  0.6323  1.1498
 5112TIP3    H236896   0.955   1.243   7.413 -1.9722  0.7219 -0.8977
 5113TIP3   OH236897   0.266   4.796   0.947 -0.0495 -0.3698 -0.2580
 5113TIP3    H136898   0.197   4.733   0.967 -2.3428  2.5430  1.8319
 5113TIP3    H236899   0.242   4.833   0.862  0.2290 -0.9160 -0.5801
 5114TIP3   OH236900   5.978   2.171   7.263 -0.1340 -0.0560 -0.4536
 5114TIP3    H136901   5.924   2.120   7.323  0.2556 -0.5665 -0.5294
 5114TIP3    H236902   5.915   2.214   7.205 -0.4627 -0.6963 -0.5868
 5115TIP3   OH236903   4.761   6.688   6.953 -0.0103  0.1556  0.0856
 5115TIP3    H136904   4.683   6.634   6.960  0.3705 -0.4220 -0.0489
 5115TIP3    H236905   4.834   6.629   6.971  0.4015  0.6797  0.1882
 5116TIP3   OH236906   5.876   4.164   6.096  0.1765  0.4459  0.7257
 5116TIP3    H136907   5.919   4.238   6.053  1.5912  0.2088  1.6535
 5116TIP3    H236908   5.946   4.123   6.148 -0.4573 -1.7713 -0.0605
 5117TIP3   OH236909   1.942   0.834   0.647 -0.3342  0.5287 -0.4428
 5117TIP3    H136910   1.873   0.863   0.707 -0.4657 -1.5181  0.4869
 5117TIP3    H236911   2.011   0.899   0.656 -0.4716  0.4521  1.7633
 5118TIP3   OH236912   1.287   6.087   6.430 -0.0549 -0.4046 -0.0604
 5118TIP3    H136913   1.283   6.171   6.475  0.3317 -1.3733  1.8560
 5118TIP3    H236914   1.206   6.084   6.379 -0.3357  0.8852  0.2631
 5119TIP3   OH236915   1.627   6.430   7.610  0.6279 -0.5835 -0.5046
 5119TIP3    H136916   1.675   6.387   7.538  2.3654  1.6617 -0.8214
 5119TIP3    H236917   1.612   6.519   7.578 -2.1565 -0.6348  0.4034
 5120TIP3   OH236918   4.560   1.695   0.252 -0.0385  0.0061  0.2916
 5120TIP3    H136919   4.649   1.664   0.271  0.2592  0.7098  0.1032
 5120TIP3    H236920   4.557   1.700   0.157 -0.7495 -1.3165  0.2298
 5121TIP3   OH236921   6.150   0.654   6.829 -0.0303 -0.2152  0.3955
 5121TIP3    H136922   6.120   0.662   6.738  0.7263  0.6546  0.2099
 5121TIP3    H236923   6.197   0.736   6.846 -0.1478 -0.3763  1.5690
 5122TIP3   OH236924   4.252   3.738   1.234 -0.3571  0.3035 -0.1262
 5122TIP3    H136925   4.256   3.826   1.197  0.2411  0.1860 -0.3529
 5122TIP3    H236926   4.320   3.689   1.187 -1.5573 -0.6465 -0.9543
 5123TIP3   OH236927   6.098   3.373   8.189 -0.2356 -0.0231 -0.6831
 5123TIP3    H136928   6.183   3.332   8.206 -0.7314 -0.7913  0.0316
 5123TIP3    H236929   6.072   3.409   8.274  0.0480  1.5553 -1.2239
 5124TIP3   OH236930   1.339   0.182   0.437  0.5631  0.4832  0.5193
 5124TIP3    H136931   1.351   0.276   0.452 -1.5392  0.8506  0.1807
 5124TIP3    H236932   1.247   0.173   0.412  1.5362 -1.1844 -3.2061
 5125TIP3   OH236933   6.172   1.967   7.266  0.2836 -0.6695  0.2598
 5125TIP3    H136934   6.163   1.913   7.188 -1.8200 -1.2910  0.8681
 5125TIP3    H236935   6.106   2.035   7.256  1.5343  0.6263  0.4643
 5126TIP3   OH236936   0.653   0.982   0.288 -0.5388  0.3771  0.1619
 5126TIP3    H136937   0.743   1.003   0.264 -0.0951 -1.0136  0.5274
 5126TIP3    H236938   0.637   0.896   0.250 -1.2459  0.0037  1.2597
 5127TIP3   OH236939   0.913   3.962   8.672 -0.4228 -0.0002  0.0214
 5127TIP3    H136940   0.947   3.997   8.590  0.0514 -0.1458  0.1517
 5127TIP3    H236941   0.990   3.952   8.728 -0.5466 -1.1487  0.0265
 5128TIP3   OH236942   5.327   3.293   6.891  1.1787  0.4799 -0.1353
 5128TIP3    H136943   5.328   3.358   6.821 -0.7584  0.5067 -0.2053
 5128TIP3    H236944   5.241   3.304   6.932  1.4068 -1.0259  0.8222
 5129TIP3   OH236945   4.632   5.511   6.078  0.0618 -0.5000  0.3008
 5129TIP3    H136946   4.686   5.547   6.148 -1.2204  1.4016  0.3783
 5129TIP3    H236947   4.554   5.478   6.122 -0.6712  0.5422 -0.1726
 5130TIP3   OH236948   1.681   6.672   7.484 -0.1447  0.0519  0.1316
 5130TIP3    H136949   1.688   6.765   7.463  0.8650  0.2887  1.4047
 5130TIP3    H236950   1.767   6.648   7.519 -1.1952 -0.6446  2.4440
 5131TIP3   OH236951   1.032   4.303   6.704  0.1448  0.1152 -0.3242
 5131TIP3    H136952   0.962   4.241   6.726 -1.4326  1.7986 -0.3146
 5131TIP3    H236953   1.102   4.283   6.766 -0.3124 -1.6116 -0.2976
 5132TIP3   OH236954   3.066   0.819   8.121 -0.1494 -0.7171 -0.5537
 5132TIP3    H136955   3.122   0.864   8.184 -0.1326  0.5815 -1.4681
 5132TIP3    H236956   3.076   0.869   8.040 -1.8377 -1.0734 -1.0124
 5133TIP3   OH236957   0.927   4.279   7.683  0.0442 -0.2558 -0.3474
 5133TIP3    H136958   0.836   4.308   7.682 -0.5828 -1.8449  2.0430
 5133TIP3    H236959   0.924   4.190   7.647  0.6944 -0.2305 -0.4741
 5134TIP3   OH236960   6.560   2.806   0.540  0.1382 -0.0514 -0.1691
 5134TIP3    H136961   6.474   2.803   0.496  0.1816  2.1373 -0.4774
 5134TIP3    H236962   6.550   2.747   0.615 -1.9643  0.8422  0.3300
 5135TIP3   OH236963   0.034   5.319   8.432 -0.1315 -0.7301 -0.2186
 5135TIP3    H136964   0.111   5.274   8.397  0.1727  0.1780 -0.7563
 5135TIP3    H236965   0.033   5.403   8.386  0.2122  0.4905  1.8696
 5136TIP3   OH236966   5.964   1.517   0.681  0.7027  0.1474  0.5957
 5136TIP3    H136967   5.880   1.521   0.725 -0.5282  0.4529 -1.6362
 5136TIP3    H236968   5.992   1.426   0.691  0.5318  0.2290  2.0275
 5137TIP3   OH236969   5.302   0.868   6.615 -0.1411  0.5149  0.2093
 5137TIP3    H136970   5.270   0.779   6.598  1.1627 -0.1058  0.8730
 5137TIP3    H236971   5.342   0.894   6.532  1.1310 -0.2721  0.5450
 5138TIP3   OH236972   2.938   1.908   0.706 -0.0656 -0.2022  0.1305
 5138TIP3    H136973   2.856   1.859   0.697 -0.4177  0.6114 -1.5642
 5138TIP3    H236974   2.975   1.909   0.617  0.6599  1.3288  0.4164
 5139TIP3   OH236975   2.995   4.301   6.352 -0.3329  0.0165  0.0951
 5139TIP3    H136976   3.009   4.320   6.445  0.6055  2.3990 -0.4667
 5139TIP3    H236977   2.977   4.207   6.349 -0.9111 -0.0223  2.7270
 5140TIP3   OH236978   5.011   0.159   1.997 -0.0738 -0.0873 -0.4688
 5140TIP3    H136979   5.101   0.180   1.972  0.1151  0.3743  0.5411
 5140TIP3    H236980   4.960   0.233   1.964  0.1375  0.4009  0.2924
 5141TIP3   OH236981   0.732   0.434   6.962  0.1161  0.1556  0.4056
 5141TIP3    H136982   0.815   0.472   6.990  0.4594  0.2065 -0.6472
 5141TIP3    H236983   0.740   0.425   6.867 -0.5656 -1.0714  0.4413
 5142TIP3   OH236984   1.485   3.030   7.748 -0.0858 -0.1216  0.0272
 5142TIP3    H136985   1.562   2.974   7.751 -0.4706 -0.7330 -0.9491
 5142TIP3    H236986   1.431   2.994   7.677 -2.4467 -1.2469  2.2050
 5143TIP3   OH236987   3.580   6.478   6.613 -0.5741  0.1547 -0.2887
 5143TIP3    H136988   3.485   6.474   6.599 -0.5261 -0.4216 -0.4811
 5143TIP3    H236989   3.609   6.387   6.609  0.0734  0.3740 -0.8582
 5144TIP3   OH236990   3.245   0.281   8.060 -0.5316 -0.6219  0.3584
 5144TIP3    H136991   3.228   0.333   8.139  0.3117 -1.2975  1.0040
 5144TIP3    H236992   3.322   0.229   8.082 -0.2802 -0.8113 -0.9298
 5145TIP3   OH236993   0.478   3.245   7.870 -0.1392 -0.0256  0.0004
 5145TIP3    H136994   0.551   3.307   7.860 -1.9221  2.2489  0.1200
 5145TIP3    H236995   0.473   3.201   7.785 -0.0607  1.5275 -0.8553
 5146TIP3   OH236996   3.219   0.737   0.878  0.1042 -0.3485  0.4236
 5146TIP3    H136997   3.143   0.795   0.883 -0.6002 -0.8383 -2.5915
 5146TIP3    H236998   3.190   0.663   0.825  2.6939 -0.4041 -1.1311
 5147TIP3   OH236999   5.926   5.190   7.770 -0.1077  0.5779 -0.0928
 5147TIP3    H137000   5.973   5.273   7.770  0.1553  0.4324  0.0694
 5147TIP3    H237001   5.835   5.213   7.789 -0.0014  0.8076  0.1422
 5148TIP3   OH237002   0.419   4.294   8.187  0.1322 -0.3942  0.3806
 5148TIP3    H137003   0.513   4.298   8.174  0.1452 -1.1638  0.2213
 5148TIP3    H237004   0.394   4.383   8.211  0.7354  0.0612 -0.6430
 5149TIP3   OH237005   4.559   0.296   0.517  0.0213  0.5260  0.2955
 5149TIP3    H137006   4.643   0.263   0.485  0.1113  1.8330 -0.8996
 5149TIP3    H237007   4.543   0.246   0.597  2.0414  0.3983  0.6758
 5150TIP3   OH237008   3.424   6.081   7.837 -0.0588 -0.3686  0.4717
 5150TIP3    H137009   3.418   6.020   7.764 -0.5603 -0.9598  1.0006
 5150TIP3    H237010   3.450   6.028   7.912  2.1276  0.4935  0.4133
 5151TIP3   OH237011   2.089   5.551   7.034 -0.7669  0.2427  0.4873
 5151TIP3    H137012   2.121   5.585   6.950  0.5525  0.9843  1.2415
 5151TIP3    H237013   2.098   5.625   7.094 -0.0317 -0.7506  1.6644
 5152TIP3   OH237014   3.590   6.563   7.586 -0.4621  0.2445 -0.8597
 5152TIP3    H137015   3.610   6.649   7.624 -1.4380  0.6707 -1.2792
 5152TIP3    H237016   3.562   6.510   7.660  0.5106  0.1637 -0.5379
 5153TIP3   OH237017   1.651   4.570   6.204  0.4353  0.6070  0.4594
 5153TIP3    H137018   1.586   4.515   6.159  0.5411  0.8716 -0.0282
 5153TIP3    H237019   1.726   4.570   6.145  0.0184  2.2178 -0.1343
 5154TIP3   OH237020   4.617   5.485   0.523  0.2376 -0.4867 -0.0975
 5154TIP3    H137021   4.585   5.466   0.611 -0.8863 -1.3614 -0.6761
 5154TIP3    H237022   4.539   5.487   0.468  0.7570  1.4640 -0.8724
 5155TIP3   OH237023   6.271   4.227   1.989 -0.0235 -0.2399 -0.4162
 5155TIP3    H137024   6.287   4.158   2.053 -1.6289 -1.6806 -1.4965
 5155TIP3    H237025   6.355   4.273   1.982  0.8839 -1.6191  0.8534
 5156TIP3   OH237026   5.599   6.035   8.028 -0.0789 -0.3345  0.2447
 5156TIP3    H137027   5.654   6.111   8.044  0.2321 -0.4022 -0.4607
 5156TIP3    H237028   5.532   6.066   7.967  0.8435 -0.9331 -1.1473
 5157TIP3   OH237029   3.890   4.722   7.281 -0.4807  0.1243  0.5014
 5157TIP3    H137030   3.865   4.793   7.221  1.5999  0.0483 -0.5533
 5157TIP3    H237031   3.849   4.746   7.364 -0.4670  2.1987 -0.0157
 5158TIP3   OH237032   3.518   6.578   0.600 -0.1624 -0.2819 -0.3389
 5158TIP3    H137033   3.425   6.559   0.593 -0.7049 -0.3172  4.0920
 5158TIP3    H237034   3.530   6.659   0.550 -2.7858  0.3117 -0.1480
 5159TIP3   OH237035   5.032   0.149   8.076  0.1002 -0.1280  0.5588
 5159TIP3    H137036   5.036   0.096   7.996  0.3918  0.3794  0.2297
 5159TIP3    H237037   4.988   0.093   8.140  0.4057 -0.7666  0.2200
 5160TIP3   OH237038   6.012   4.928   7.790 -0.3484  0.6085 -0.4747
 5160TIP3    H137039   6.097   4.924   7.833 -0.7528 -0.4750  0.2883
 5160TIP3    H237040   5.970   5.006   7.825 -1.4171 -1.2039  2.6620
 5161TIP3   OH237041   1.211   5.226   7.663 -0.0544  0.2200  0.1859
 5161TIP3    H137042   1.267   5.300   7.641  1.1526 -1.0866 -1.3846
 5161TIP3    H237043   1.123   5.263   7.668  0.3788  1.6118 -1.5079
 5162TIP3   OH237044   2.147   4.489   6.458 -0.5232  0.8762 -0.1726
 5162TIP3    H137045   2.168   4.396   6.461  0.4151  1.1016  0.8245
 5162TIP3    H237046   2.099   4.500   6.376 -3.4666 -1.0199  1.1322
 5163TIP3   OH237047   4.713   0.148   8.491 -0.0530 -0.4135 -0.1661
 5163TIP3    H137048   4.699   0.214   8.559  0.0292 -0.7505  0.1848
 5163TIP3    H237049   4.685   0.065   8.532  1.2707 -0.8285 -0.0611
 5164TIP3   OH237050   2.310   6.021   1.313 -0.2551 -0.2225 -0.7276
 5164TIP3    H137051   2.354   5.937   1.322  0.4389  0.2409  0.4132
 5164TIP3    H237052   2.269   6.036   1.398 -1.4314  0.0257 -1.3169
 5165TIP3   OH237053   6.452   3.191   7.394  0.0435 -0.4115  0.4852
 5165TIP3    H137054   6.541   3.156   7.388 -0.0499 -0.6169  0.3033
 5165TIP3    H237055   6.448   3.256   7.324  0.1127 -0.2542  0.6222
 5166TIP3   OH237056   5.113   3.345   2.272  0.1062  0.1208 -0.1655
 5166TIP3    H137057   5.184   3.410   2.278 -0.6088  0.8113  1.5575
 5166TIP3    H237058   5.036   3.397   2.249 -0.2446 -0.2910  0.0816
 5167TIP3   OH237059   5.464   0.360   1.714 -0.1673  0.1423  0.5637
 5167TIP3    H137060   5.515   0.286   1.681  0.2686  0.7092 -0.0820
 5167TIP3    H237061   5.435   0.406   1.635 -1.7865 -0.2325  0.9218
 5168TIP3   OH237062   6.045   2.593   7.124 -0.0564 -0.9174 -0.3409
 5168TIP3    H137063   6.136   2.611   7.101 -0.3807  1.9718  0.2681
 5168TIP3    H237064   6.037   2.620   7.216 -1.5823 -0.8704 -0.4489
 5169TIP3   OH237065   0.793   0.957   8.776  0.4956 -0.7756  0.1245
 5169TIP3    H137066   0.732   1.010   8.724 -0.2427 -1.1225  0.6177
 5169TIP3    H237067   0.804   0.877   8.724 -0.9659 -1.5164  0.9020
 5170TIP3   OH237068   1.068   1.176   7.285 -0.7545 -0.0788  0.6148
 5170TIP3    H137069   1.093   1.084   7.291  0.0139  0.0197 -0.8817
 5170TIP3    H237070   1.148   1.225   7.304 -0.5658  0.2483 -0.8991
 5171TIP3   OH237071   3.368   2.130   1.330 -0.3086 -0.3133 -0.2176
 5171TIP3    H137072   3.367   2.104   1.237 -0.3978  2.3143 -1.0413
 5171TIP3    H237073   3.308   2.205   1.334  0.7153  0.4714  1.6884
 5172TIP3   OH237074   1.677   6.009   5.854 -0.3111 -0.2017  0.0135
 5172TIP3    H137075   1.652   6.089   5.900  0.7369 -0.0164  0.2999
 5172TIP3    H237076   1.733   5.962   5.917 -2.0649 -1.8808  0.4214
 5173TIP3   OH237077   1.475   3.243   6.358  0.9336 -0.1109 -0.1727
 5173TIP3    H137078   1.509   3.177   6.298  1.5049  2.1014 -2.4373
 5173TIP3    H237079   1.550   3.266   6.412  0.8705 -0.8794  0.2652
 5174TIP3   OH237080   1.526   5.793   8.248 -0.0786 -0.2745 -0.8163
 5174TIP3    H137081   1.445   5.742   8.249  0.7986 -1.7486 -1.2843
 5174TIP3    H237082   1.531   5.829   8.160 -1.5557  2.1669 -0.0045
 5175TIP3   OH237083   5.352   6.708   7.282 -0.4656 -0.2582 -0.0098
 5175TIP3    H137084   5.327   6.617   7.266 -2.0061 -0.1533  1.5115
 5175TIP3    H237085   5.446   6.704   7.301 -0.7273 -1.7077  1.1518
 5176TIP3   OH237086   6.550   0.912   7.495  0.2853 -0.4155  0.1720
 5176TIP3    H137087   6.641   0.936   7.482 -0.9987  3.8644 -3.3112
 5176TIP3    H237088   6.524   0.961   7.574  0.1355  1.8298 -1.1954
 5177TIP3   OH237089   4.341   4.794   8.101 -0.2976 -0.0595  0.0368
 5177TIP3    H137090   4.416   4.763   8.051 -2.0333 -2.1507 -1.4797
 5177TIP3    H237091   4.372   4.797   8.191  1.3966 -1.6849 -0.4287
 5178TIP3   OH237092   5.600   1.698   8.361  0.0718  0.1645 -0.0861
 5178TIP3    H137093   5.545   1.655   8.296 -1.0012  0.3642  0.6598
 5178TIP3    H237094   5.686   1.702   8.321 -0.8839  1.7166 -2.1606
 5179TIP3   OH237095   2.344   1.189   6.272 -0.8037 -0.3002  0.6937
 5179TIP3    H137096   2.279   1.238   6.323  0.8888  1.8766  0.9031
 5179TIP3    H237097   2.383   1.129   6.334 -2.0847 -1.1328  0.7335
 5180TIP3   OH237098   2.241   1.748   6.824  0.2814  0.7848  0.1074
 5180TIP3    H137099   2.238   1.813   6.894 -1.5671  2.6177 -1.5489
 5180TIP3    H237100   2.330   1.713   6.828  0.5450  1.5442  2.6877
 5181TIP3   OH237101   0.140   0.767   8.245 -0.2146  0.2461  0.0248
 5181TIP3    H137102   0.198   0.727   8.311  0.0187  0.4383 -0.0606
 5181TIP3    H237103   0.052   0.740   8.271 -0.2079  1.0612  0.9387
 5182TIP3   OH237104   2.741   2.244   7.719 -0.3310 -0.3325 -0.5194
 5182TIP3    H137105   2.742   2.186   7.642  2.8685 -0.1838 -0.7598
 5182TIP3    H237106   2.727   2.331   7.682  0.3021 -0.3629 -0.8481
 5183TIP3   OH237107   2.887   3.040   0.610  0.3824 -0.6632 -0.3594
 5183TIP3    H137108   2.980   3.039   0.634  0.5693  2.0680 -0.6893
 5183TIP3    H237109   2.842   3.015   0.691  1.3510 -1.1640  0.0486
 5184TIP3   OH237110   0.582   6.119   7.584 -0.0691  0.5575  0.0423
 5184TIP3    H137111   0.502   6.169   7.601 -0.2328  0.2915  0.0599
 5184TIP3    H237112   0.645   6.184   7.553  0.1063  0.9936  1.2716
 5185TIP3   OH237113   3.663   1.765   8.557 -0.1890  0.0832 -0.2363
 5185TIP3    H137114   3.752   1.762   8.592 -0.8117  0.3091  1.4653
 5185TIP3    H237115   3.660   1.844   8.505  0.1990  0.9256  0.9706
 5186TIP3   OH237116   1.731   0.184   7.473  0.0950  0.0105 -0.1756
 5186TIP3    H137117   1.708   0.275   7.488  1.2766  0.4555 -0.9097
 5186TIP3    H237118   1.820   0.175   7.507  1.6083  0.2294 -3.5973
 5187TIP3   OH237119   2.012   6.045   7.190 -0.1043 -0.5395  0.0523
 5187TIP3    H137120   1.961   6.048   7.109  1.5744  1.6148 -1.0437
 5187TIP3    H237121   1.948   6.066   7.259 -0.8257  2.1897 -1.2686
 5188TIP3   OH237122   4.994   0.934   7.479  0.3864  0.3663  0.6213
 5188TIP3    H137123   5.056   0.862   7.493  0.1840  0.2891  1.1524
 5188TIP3    H237124   4.956   0.916   7.393  1.0488  0.3769  0.3216
 5189TIP3   OH237125   3.673   3.950   7.204 -0.1768  0.5642  1.0417
 5189TIP3    H137126   3.594   3.937   7.256 -0.9137  1.3709  0.1653
 5189TIP3    H237127   3.739   3.978   7.268 -0.7933  0.5793  1.6877
 5190TIP3   OH237128   0.329   6.260   0.267 -0.0837 -0.2387  0.4152
 5190TIP3    H137129   0.418   6.244   0.237 -0.2268 -0.7332  0.2359
 5190TIP3    H237130   0.313   6.192   0.333 -0.3629 -0.2240  0.3646
 5191TIP3   OH237131   6.221   5.822   7.835 -0.0798  0.0776  0.0795
 5191TIP3    H137132   6.192   5.899   7.786 -2.3969 -0.4812  0.4209
 5191TIP3    H237133   6.217   5.850   7.927 -2.0309 -0.7093  0.2786
 5192TIP3   OH237134   5.679   1.407   8.710  0.1356 -0.5889  0.3905
 5192TIP3    H137135   5.691   1.477   8.646  1.0082 -2.2114 -1.3013
 5192TIP3    H237136   5.763   1.400   8.754  0.8471 -2.0837 -1.1028
 5193TIP3   OH237137   3.999   1.367   7.463  0.1494  0.2020  0.3744
 5193TIP3    H137138   4.009   1.404   7.375 -4.9512  1.3123 -0.0191
 5193TIP3    H237139   3.948   1.287   7.450 -0.4754  0.2463  2.3160
 5194TIP3   OH237140   0.190   1.321   7.034 -0.5038 -0.0150  0.1960
 5194TIP3    H137141   0.131   1.301   7.106 -2.3526 -0.2749 -1.3023
 5194TIP3    H237142   0.142   1.295   6.955  0.7552  1.7194 -1.2452
 5195TIP3   OH237143   6.660   2.280   1.194 -0.0975  0.2268  0.7305
 5195TIP3    H137144   6.674   2.353   1.133  0.2196 -0.4284 -0.0053
 5195TIP3    H237145   6.578   2.302   1.239  0.2045  1.2310  0.8256
 5196TIP3   OH237146   3.557   1.096   8.467 -0.0637  0.3903  0.8476
 5196TIP3    H137147   3.595   1.090   8.554  0.8005 -0.4746  0.4328
 5196TIP3    H237148   3.469   1.060   8.477  0.5334 -1.0894  1.0967
 5197TIP3   OH237149   0.525   4.514   1.046  0.1774  0.1209  0.6070
 5197TIP3    H137150   0.569   4.595   1.018  0.7957 -0.8718 -1.5401
 5197TIP3    H237151   0.595   4.456   1.074 -0.1782  0.0173  1.3017
 5198TIP3   OH237152   0.384   4.166   6.803 -0.0769 -0.3116 -0.4383
 5198TIP3    H137153   0.389   4.071   6.793 -1.5382 -0.3550 -0.9319
 5198TIP3    H237154   0.424   4.184   6.888  0.9444 -1.2720 -0.6929
 5199TIP3   OH237155   6.707   6.671   1.040  0.1989 -0.4305  0.1145
 5199TIP3    H137156   6.686   6.670   1.133 -1.1893 -2.1525 -0.1533
 5199TIP3    H237157   6.627   6.640   0.997  1.1425 -0.6930 -1.5700
 5200TIP3   OH237158   6.228   3.825   7.713 -0.6283 -0.0872  0.5868
 5200TIP3    H137159   6.308   3.840   7.662 -0.5051  1.1560  1.1003
 5200TIP3    H237160   6.219   3.905   7.766 -1.8669 -0.4879  0.9999
 5201TIP3   OH237161   4.837   0.244   6.032 -1.0490  0.2071 -0.4787
 5201TIP3    H137162   4.763   0.193   6.066 -0.6121  1.0384  1.9127
 5201TIP3    H237163   4.843   0.319   6.090  1.8922  0.0062 -0.3726
 5202TIP3   OH237164   5.885   2.365   1.232 -0.2793  0.1745  0.0589
 5202TIP3    H137165   5.889   2.401   1.321 -0.1965 -0.5595  0.3532
 5202TIP3    H237166   5.893   2.271   1.244  1.2040  0.1605 -0.8287
 5203TIP3   OH237167   3.143   4.432   8.292  0.3594  0.4780  0.1517
 5203TIP3    H137168   3.142   4.451   8.199  0.9314 -2.6671 -0.5868
 5203TIP3    H237169   3.050   4.427   8.316  0.0757  4.6609  0.6889
 5204TIP3   OH237170   6.584   0.398   7.621  0.2358 -0.3212  0.0043
 5204TIP3    H137171   6.664   0.346   7.624 -0.4168 -1.3150  0.7427
 5204TIP3    H237172   6.611   0.485   7.651  0.9996 -0.6998  0.4419
 5205TIP3   OH237173   1.225   5.570   7.846  0.2517  0.0009  0.1740
 5205TIP3    H137174   1.269   5.546   7.765  1.1617 -1.0648  0.9451
 5205TIP3    H237175   1.147   5.514   7.848  1.6256 -2.0170  1.2755
 5206TIP3   OH237176   5.332   0.959   0.322 -0.0834 -0.3147  0.2314
 5206TIP3    H137177   5.389   1.035   0.314  0.7388 -0.8098  1.1925
 5206TIP3    H237178   5.292   0.967   0.409 -2.1815  0.4656 -0.7234
 5207TIP3   OH237179   0.977   6.344   1.805 -0.2426 -0.0524 -0.2033
 5207TIP3    H137180   0.893   6.389   1.816 -0.7870 -0.6917 -1.5253
 5207TIP3    H237181   0.999   6.356   1.713  1.9895  1.5274  0.4386
 5208TIP3   OH237182   0.887   2.190   0.719 -0.4126 -0.3604  0.0904
 5208TIP3    H137183   0.908   2.190   0.813  0.2529  1.6719 -0.0158
 5208TIP3    H237184   0.932   2.267   0.685 -2.0172 -0.1179 -1.6061
 5209TIP3   OH237185   2.719   4.484   7.511 -0.0031 -0.0821  0.1451
 5209TIP3    H137186   2.726   4.495   7.416 -0.4888 -0.5853  0.0468
 5209TIP3    H237187   2.629   4.512   7.531  0.1485  0.1706  0.4778
 5210TIP3   OH237188   5.688   1.457   6.841 -0.0350  0.2002 -0.0787
 5210TIP3    H137189   5.723   1.522   6.780 -0.5131  1.8209  1.3158
 5210TIP3    H237190   5.719   1.485   6.927  0.2280 -1.7690  0.5124
 5211TIP3   OH237191   3.900   6.393   6.610 -0.0037  0.0466 -0.3699
 5211TIP3    H137192   3.883   6.303   6.581 -0.3103 -0.2983  0.8237
 5211TIP3    H237193   3.994   6.404   6.597  0.2727 -0.8945  0.5881
 5212TIP3   OH237194   2.624   5.453   8.685  0.2980  0.1611 -0.6339
 5212TIP3    H137195   2.576   5.372   8.668 -0.0614  0.0857  0.6342
 5212TIP3    H237196   2.690   5.457   8.616  0.3128 -1.2050 -0.7277
 5213TIP3   OH237197   1.167   2.503   7.580 -0.2056  0.5307  0.9044
 5213TIP3    H137198   1.148   2.493   7.487  1.8019  1.3180  0.3453
 5213TIP3    H237199   1.143   2.593   7.601  1.4858  1.1227  0.5035
 5214TIP3   OH237200   0.707   4.144   8.335  0.2133 -0.1208  0.5625
 5214TIP3    H137201   0.670   4.216   8.284 -1.7348 -0.2880  1.6647
 5214TIP3    H237202   0.798   4.170   8.349  0.0287  1.2763 -0.5534
 5215TIP3   OH237203   0.250   2.692   2.104 -0.6018  0.4696 -0.3524
 5215TIP3    H137204   0.269   2.659   2.016  1.8119 -0.8312  0.5670
 5215TIP3    H237205   0.221   2.615   2.153  2.2811  0.1479  1.0648
 5216TIP3   OH237206   1.158   1.333   1.867 -0.1890  0.7655 -0.3585
 5216TIP3    H137207   1.071   1.293   1.858 -0.7015  1.8535 -0.4382
 5216TIP3    H237208   1.215   1.262   1.896 -0.7330 -0.4041 -2.0096
 5217TIP3   OH237209   0.603   3.679   7.815 -0.0360 -0.0278  0.0575
 5217TIP3    H137210   0.643   3.595   7.837  0.1270  0.1945  0.6430
 5217TIP3    H237211   0.622   3.735   7.891 -1.1297  0.1926  0.1851
 5218TIP3   OH237212   2.021   4.185   7.860  0.5065 -0.4157  0.1535
 5218TIP3    H137213   2.089   4.158   7.922  0.8341 -1.4024 -0.5972
 5218TIP3    H237214   2.024   4.118   7.791 -1.2734 -0.5047  0.1273
 5219TIP3   OH237215   6.246   2.743   6.727  0.1386 -0.0248  0.2791
 5219TIP3    H137216   6.169   2.796   6.748 -0.4369 -1.4020  1.8886
 5219TIP3    H237217   6.243   2.731   6.632 -1.3325  0.3859  0.2597
 5220TIP3   OH237218   6.659   4.684   0.667 -0.2552 -0.3069  0.3172
 5220TIP3    H137219   6.647   4.778   0.680 -0.4242  0.1124 -2.2421
 5220TIP3    H237220   6.571   4.651   0.646 -0.1306 -0.9647  0.7869
 5221TIP3   OH237221   3.941   2.481   1.188 -0.3551  0.4601 -0.5878
 5221TIP3    H137222   3.855   2.499   1.151  0.2064  0.7645 -1.8160
 5221TIP3    H237223   3.990   2.562   1.175 -0.1380  0.6056  0.9337
 5222TIP3   OH237224   1.491   4.287   0.632  0.4687 -0.3430 -0.6972
 5222TIP3    H137225   1.401   4.261   0.615  0.0705 -0.3050  1.1191
 5222TIP3    H237226   1.490   4.383   0.630  0.0032 -0.2648  1.1914
 5223TIP3   OH237227   1.749   6.545   7.179  0.4065 -0.0287 -0.6512
 5223TIP3    H137228   1.674   6.489   7.159 -0.3048  0.3063  0.8717
 5223TIP3    H237229   1.747   6.554   7.275  2.8641 -0.6314 -0.4867
 5224TIP3   OH237230   3.796   5.549   6.919  0.2155  0.3082  0.4527
 5224TIP3    H137231   3.835   5.590   6.997 -1.2216 -0.3892  1.5906
 5224TIP3    H237232   3.869   5.534   6.860  1.4003  0.5607  1.8112
 5225TIP3   OH237233   5.432   2.993   0.582 -0.8542 -0.0543 -0.3162
 5225TIP3    H137234   5.402   2.920   0.636 -1.8079  0.0480 -0.6952
 5225TIP3    H237235   5.527   2.996   0.598 -0.9508 -0.7119  0.4988
 5226TIP3   OH237236   2.792   1.407   0.486  0.7786 -0.1815  0.4515
 5226TIP3    H137237   2.816   1.319   0.456  0.5608  0.1688 -0.8207
 5226TIP3    H237238   2.863   1.463   0.453 -0.9844  0.6745 -2.2178
 5227TIP3   OH237239   3.676   2.086   1.314  0.1154  0.3493 -0.1451
 5227TIP3    H137240   3.739   2.145   1.274  0.4325 -0.1428 -0.3721
 5227TIP3    H237241   3.591   2.116   1.281  0.1658  1.3682  0.6061
 5228TIP3   OH237242   0.288   6.090   0.474 -0.1869  0.6166  0.1724
 5228TIP3    H137243   0.318   6.084   0.565  0.6146  0.0035 -0.1163
 5228TIP3    H237244   0.224   6.019   0.466 -0.8644  1.1759  0.4620
 5229TIP3   OH237245   3.851   3.594   1.046  0.4507  0.0812 -0.0028
 5229TIP3    H137246   3.803   3.631   1.119 -0.2977 -1.0533  0.1010
 5229TIP3    H237247   3.924   3.655   1.032  0.2781  0.6110  1.3000
 5230TIP3   OH237248   2.113   0.615   0.587  0.6521 -0.1534  0.5164
 5230TIP3    H137249   2.153   0.593   0.671 -0.0304  1.6272  1.3696
 5230TIP3    H237250   2.054   0.688   0.607  0.3362  0.1968 -1.4787
 5231TIP3   OH237251   5.151   3.782   0.899 -0.3290  0.2767  0.0954
 5231TIP3    H137252   5.188   3.696   0.921 -0.8292  0.3723  1.3807
 5231TIP3    H237253   5.224   3.843   0.906  0.0565 -0.0331 -0.9371
 5232TIP3   OH237254   4.213   1.163   0.012 -0.2380  0.0380  0.3162
 5232TIP3    H137255   4.185   1.116   0.090 -0.9046 -1.1637 -0.6093
 5232TIP3    H237256   4.294   1.118  -0.015 -0.1260  0.3109  0.1903
 5233TIP3   OH237257   0.827   3.429   0.109  0.7786  0.4397  0.0954
 5233TIP3    H137258   0.738   3.464   0.110  0.3958 -0.5032 -0.2720
 5233TIP3    H237259   0.860   3.445   0.197  0.0587  0.3222  0.3919
 5234TIP3   OH237260   2.509   1.113   0.020  0.0193 -0.4505  0.5528
 5234TIP3    H137261   2.430   1.166   0.008 -0.1117 -0.6718  0.4319
 5234TIP3    H237262   2.492   1.033  -0.030 -0.1058 -0.9404  1.3520
 5235TIP3   OH237263   2.602   5.485   1.357 -0.1020  0.0116  0.5771
 5235TIP3    H137264   2.591   5.546   1.430  0.5547  0.2268  0.5112
 5235TIP3    H237265   2.603   5.541   1.280  2.9218  0.2625  0.6703
 5236TIP3   OH237266   0.668   2.564   8.491  0.4977  0.6162  0.0364
 5236TIP3    H137267   0.726   2.639   8.476  1.1128  0.1473 -0.0005
 5236TIP3    H237268   0.728   2.491   8.506 -0.0860  0.4148  1.5184
 5237TIP3   OH237269   0.284   6.766   6.593  0.1518 -0.0651  0.2273
 5237TIP3    H137270   0.193   6.741   6.608  0.1441 -0.2619 -0.1422
 5237TIP3    H237271   0.296   6.759   6.499  0.4778  0.2137  0.2462
 5238TIP3   OH237272   4.027   3.506   1.764  0.0585 -0.1265  0.1086
 5238TIP3    H137273   4.087   3.580   1.757 -0.2157 -0.0321 -1.7666
 5238TIP3    H237274   4.078   3.431   1.735 -0.5679 -0.1090 -1.1288
 5239TIP3   OH237275   0.628   3.627   8.216  0.1922 -0.1711  0.3825
 5239TIP3    H137276   0.700   3.681   8.249 -0.7616 -0.1258  2.6179
 5239TIP3    H237277   0.593   3.676   8.142  1.7736  0.3183 -0.0764
 5240TIP3   OH237278   2.295   6.232   6.930 -0.5473 -0.1764  0.4974
 5240TIP3    H137279   2.378   6.185   6.920 -1.5284 -2.0695  0.7462
 5240TIP3    H237280   2.247   6.182   6.997 -2.5159 -0.1028 -0.7608
 5241TIP3   OH237281   5.785   0.905   6.726  0.2452  0.0208 -0.3035
 5241TIP3    H137282   5.699   0.874   6.696 -0.9872  0.2507  2.6454
 5241TIP3    H237283   5.771   0.998   6.747  0.5251 -0.4523  2.2865
 5242TIP3   OH237284   3.689   4.487   8.754 -0.4679 -0.0716  0.1669
 5242TIP3    H137285   3.674   4.523   8.667 -2.8192  0.9825  0.9200
 5242TIP3    H237286   3.634   4.540   8.812  1.4132 -0.4066  2.3942
 5243TIP3   OH237287   4.282   0.558   7.638 -0.5022  0.1331  0.0654
 5243TIP3    H137288   4.305   0.563   7.731 -1.6267 -1.6957  0.5003
 5243TIP3    H237289   4.204   0.612   7.629  0.4680  1.5609 -0.1859
 5244TIP3   OH237290   4.785   3.088   6.470 -0.6023  0.1164  0.0168
 5244TIP3    H137291   4.880   3.087   6.461 -0.3319 -0.3575  2.3747
 5244TIP3    H237292   4.758   2.997   6.455 -0.5343  0.0069  0.5408
 5245TIP3   OH237293   5.754   3.787   6.374 -0.3573 -0.3385  0.6525
 5245TIP3    H137294   5.768   3.695   6.352 -0.0174 -0.3249  0.8164
 5245TIP3    H237295   5.696   3.819   6.304  0.2403 -0.4500  0.1006
 5246TIP3   OH237296   0.766   4.693   1.360 -0.2270  0.2444  0.0383
 5246TIP3    H137297   0.693   4.639   1.391 -0.4279  0.4469 -0.0816
 5246TIP3    H237298   0.843   4.635   1.366  0.0937  0.8173  2.6707
 5247TIP3   OH237299   3.785   3.505   0.212 -0.7058 -0.3378  0.1720
 5247TIP3    H137300   3.832   3.445   0.269 -2.4956 -1.3492  0.6733
 5247TIP3    H237301   3.841   3.582   0.206  1.2781 -1.7103  0.1861
 5248TIP3   OH237302   2.869   1.958   6.865  0.6265 -0.0460  0.1758
 5248TIP3    H137303   2.860   1.885   6.927 -0.9778 -0.5575 -0.6091
 5248TIP3    H237304   2.831   2.033   6.910 -1.2119 -0.5814 -0.4177
 5249TIP3   OH237305   1.638   4.074   0.528 -0.5231 -0.2683  0.1956
 5249TIP3    H137306   1.605   4.149   0.579  0.2437 -0.2769  0.7181
 5249TIP3    H237307   1.573   4.063   0.458 -0.4538  1.1357 -0.1227
 5250TIP3   OH237308   3.970   0.425   7.565 -0.8387  0.0648  0.7592
 5250TIP3    H137309   4.020   0.502   7.540  0.1813 -0.9333 -0.4203
 5250TIP3    H237310   4.017   0.390   7.641  0.7418 -1.2420 -0.7425
 5251TIP3   OH237311   5.943   0.349   0.909  0.1332  0.0854  0.5301
 5251TIP3    H137312   5.932   0.313   0.821  0.2748 -2.5600  1.5149
 5251TIP3    H237313   5.854   0.357   0.944  0.1455 -0.1847  0.6263
 5252TIP3   OH237314   6.570   3.538   6.604  0.1250  0.1787 -0.1494
 5252TIP3    H137315   6.594   3.516   6.514  0.2302 -0.9553  0.1352
 5252TIP3    H237316   6.537   3.456   6.640  2.2327  0.0025  1.5533
 5253TIP3   OH237317   4.892   0.472   8.689  0.2427  0.6074  0.3424
 5253TIP3    H137318   4.807   0.440   8.658 -0.4010  2.6018 -0.0809
 5253TIP3    H237319   4.954   0.404   8.661 -0.6431  1.0282 -3.1396
 5254TIP3   OH237320   5.563   6.115   7.285 -0.1141  0.1167 -0.7243
 5254TIP3    H137321   5.470   6.115   7.264 -0.0116 -0.7879 -1.2387
 5254TIP3    H237322   5.597   6.197   7.249 -0.6365  0.2688 -0.8664
 5255TIP3   OH237323   4.209   6.408   7.044 -0.1605  0.1134  0.1092
 5255TIP3    H137324   4.299   6.389   7.070 -0.2630  0.2432  0.5531
 5255TIP3    H237325   4.183   6.482   7.098 -0.7153 -0.2647  0.3731
 5256TIP3   OH237326   0.351   4.447   0.033 -0.0967  0.1749  0.5636
 5256TIP3    H137327   0.298   4.489   0.101 -0.7436 -1.2970  1.0026
 5256TIP3    H237328   0.376   4.363   0.071  1.7699  0.4278 -0.0105
 5257TIP3   OH237329   4.007   4.971   7.559  0.8779  0.2659  0.4279
 5257TIP3    H137330   3.974   5.000   7.645  0.1062  0.5685  0.0451
 5257TIP3    H237331   3.995   4.876   7.560  0.4512  0.3165  0.4944
 5258TIP3   OH237332   4.469   3.471   6.693 -0.3019 -0.0738 -0.1935
 5258TIP3    H137333   4.433   3.383   6.684  0.6474 -0.4413 -0.4503
 5258TIP3    H237334   4.460   3.492   6.786 -0.1243 -0.6160 -0.0530
 5259TIP3   OH237335   5.960   6.094   7.362  0.6373  0.0077  0.2001
 5259TIP3    H137336   5.893   6.026   7.359 -0.0647  0.5722  1.7796
 5259TIP3    H237337   6.042   6.048   7.340 -0.0685 -0.9640 -0.4730
 5260TIP3   OH237338   2.783   2.407   6.324  0.5379 -0.5676  0.0878
 5260TIP3    H137339   2.867   2.416   6.278  0.3297  0.0577 -0.1960
 5260TIP3    H237340   2.742   2.330   6.284  1.3589 -1.4191  0.8642
 5261TIP3   OH237341   1.581   5.375   8.346 -0.5519  0.6394  0.4668
 5261TIP3    H137342   1.646   5.443   8.331  1.1899 -1.2302 -0.9514
 5261TIP3    H237343   1.536   5.366   8.262  0.5788 -1.2394  0.0165
 5262TIP3   OH237344   6.236   3.940   6.707  0.1192 -0.0797  0.1646
 5262TIP3    H137345   6.223   3.974   6.618  1.0551 -0.8625 -0.2834
 5262TIP3    H237346   6.235   3.845   6.696  0.6465 -0.1772  0.9309
 5263TIP3   OH237347   0.153   2.283   7.352 -0.9071  0.0948 -0.1951
 5263TIP3    H137348   0.228   2.256   7.405 -1.1568 -0.7036 -0.2359
 5263TIP3    H237349   0.098   2.333   7.412 -0.7806 -0.0938  0.0816
 5264TIP3   OH237350   2.665   2.220   7.410  0.1058  0.2463  0.3153
 5264TIP3    H137351   2.647   2.132   7.446  1.7411  0.7055  2.4602
 5264TIP3    H237352   2.581   2.265   7.415 -1.0486 -1.4518 -1.8531
 5265TIP3   OH237353   3.574   2.720   1.031 -0.8872  0.2079 -0.5889
 5265TIP3    H137354   3.583   2.794   0.972 -1.3961 -0.1055 -1.0660
 5265TIP3    H237355   3.571   2.759   1.118 -2.5305  0.8662 -0.9142
 5266TIP3   OH237356   2.409   3.678   1.236 -0.0277 -0.4314 -0.3049
 5266TIP3    H137357   2.374   3.672   1.147 -1.0276  3.0663 -0.3085
 5266TIP3    H237358   2.377   3.762   1.268  1.1823 -1.1004  3.0148
 5267TIP3   OH237359   2.577   3.542   5.886  0.4701  0.8478  0.0433
 5267TIP3    H137360   2.648   3.529   5.948  0.8036 -0.0452 -0.5036
 5267TIP3    H237361   2.579   3.464   5.830 -1.5257  0.3209  0.5862
 5268TIP3   OH237362   2.489   3.079   1.752 -0.1007  0.5622  0.2095
 5268TIP3    H137363   2.491   3.001   1.807 -2.3173  0.3210  0.0504
 5268TIP3    H237364   2.518   3.150   1.809  0.4342 -0.1168  0.8029
 5269TIP3   OH237365   2.300   4.666   6.940 -0.0746 -0.1585 -0.1888
 5269TIP3    H137366   2.249   4.637   6.865 -1.9797 -1.3287  1.4614
 5269TIP3    H237367   2.261   4.750   6.964 -0.4084 -0.4595  0.3315
 5270TIP3   OH237368   3.218   6.060   0.370 -0.0792 -0.0919  0.4700
 5270TIP3    H137369   3.169   6.039   0.291  1.2866  0.7215 -0.6461
 5270TIP3    H237370   3.156   6.048   0.442 -0.9276 -2.4404 -0.5534
 5271TIP3   OH237371   1.371   1.811   8.765  0.1109 -0.0873 -0.4154
 5271TIP3    H137372   1.305   1.818   8.696  1.1601 -1.2114 -1.5927
 5271TIP3    H237373   1.454   1.824   8.720  0.7706  0.4997  0.8984
 5272TIP3   OH237374   0.958   5.799   1.394  0.1590 -0.1359 -0.0820
 5272TIP3    H137375   0.871   5.824   1.364  0.5061  0.1872 -0.8235
 5272TIP3    H237376   0.943   5.766   1.483 -0.2894  2.9117  1.0787
 5273TIP3   OH237377   0.527   1.544   7.419 -0.3056  0.4913  0.0870
 5273TIP3    H137378   0.469   1.619   7.428 -1.8540 -0.4950 -1.1720
 5273TIP3    H237379   0.492   1.478   7.479 -0.3631 -0.0295 -0.5071
 5274TIP3   OH237380   2.495   2.551   7.310  0.1685 -0.6222  0.1359
 5274TIP3    H137381   2.446   2.472   7.286  0.9142 -1.3037  0.7853
 5274TIP3    H237382   2.466   2.570   7.399 -0.8404  0.5143 -0.4070
 5275TIP3   OH237383   2.355   5.357   0.453  0.0826 -0.0645 -0.3703
 5275TIP3    H137384   2.346   5.383   0.545  0.8145  2.8070 -1.0015
 5275TIP3    H237385   2.394   5.434   0.410  0.0859 -1.4331 -3.0285
 5276TIP3   OH237386   6.322   1.337   1.341  0.0366 -0.6002 -0.2005
 5276TIP3    H137387   6.310   1.311   1.250 -1.1758 -0.0771 -0.2065
 5276TIP3    H237388   6.416   1.354   1.349  1.0154 -4.9286 -0.1724
 5277TIP3   OH237389   3.392   1.161   1.172 -0.3685  0.2104 -0.1835
 5277TIP3    H137390   3.468   1.165   1.114 -1.3038 -0.3654 -1.4977
 5277TIP3    H237391   3.318   1.187   1.117 -1.5447 -1.9419  0.2438
 5278TIP3   OH237392   3.987   2.502   0.065 -0.2056 -0.1932 -0.0321
 5278TIP3    H137393   4.042   2.429   0.096  1.3900  0.8123 -0.3539
 5278TIP3    H237394   4.037   2.540  -0.007 -0.5465  1.7949  0.7124
 5279TIP3   OH237395   4.064   5.497   7.414  0.1738  0.0346 -0.3925
 5279TIP3    H137396   4.148   5.511   7.370  0.6439 -1.2028  0.0700
 5279TIP3    H237397   3.998   5.509   7.346  0.7354  0.7684 -0.8143
 5280TIP3   OH237398   4.234   6.509   8.376  0.0038 -0.8380 -0.2433
 5280TIP3    H137399   4.204   6.525   8.465  1.3251  4.4551 -0.4380
 5280TIP3    H237400   4.153   6.496   8.326 -0.9885 -0.4024  1.1844
 5281TIP3   OH237401   1.491   3.475   1.062 -0.7015  0.4344  0.0816
 5281TIP3    H137402   1.509   3.565   1.090  0.2014  0.6441 -1.0838
 5281TIP3    H237403   1.423   3.485   0.995 -1.1156  0.1729  0.4614
 5282TIP3   OH237404   5.177   6.676   8.753 -0.1745 -0.4556  0.7430
 5282TIP3    H137405   5.232   6.662   8.676 -1.3194  1.8615 -0.6149
 5282TIP3    H237406   5.219   6.746   8.802 -1.6360  1.1425 -0.1604
 5283TIP3   OH237407   0.852   3.949   1.933  0.1151  0.4914 -0.1311
 5283TIP3    H137408   0.868   3.929   1.841  0.9625  2.5614 -0.4928
 5283TIP3    H237409   0.757   3.957   1.939  0.0771  0.8745 -0.9813
 5284TIP3   OH237410   2.344   2.318   7.331  0.0533  0.3851 -0.0696
 5284TIP3    H137411   2.298   2.293   7.412 -0.7122  2.3499  0.1658
 5284TIP3    H237412   2.274   2.331   7.267  0.2618  2.8804  0.1374
 5285TIP3   OH237413   6.777   3.257   5.902 -0.2693  0.1472  0.1727
 5285TIP3    H137414   6.766   3.275   5.809  0.6602  1.5620  0.2943
 5285TIP3    H237415   6.802   3.165   5.906 -1.4656 -0.2483 -0.8685
 5286TIP3   OH237416   2.818   0.729   1.631 -0.3802  0.8280 -0.0765
 5286TIP3    H137417   2.732   0.692   1.608 -0.4427  0.8812  0.0717
 5286TIP3    H237418   2.880   0.680   1.577 -0.2908 -0.5687  1.2005
 5287TIP3   OH237419   4.776   1.185   7.181  0.1050 -0.1789  0.5564
 5287TIP3    H137420   4.716   1.178   7.106 -0.9148  0.1405  1.3291
 5287TIP3    H237421   4.839   1.251   7.154  0.4443 -0.8790 -0.4720
 5288TIP3   OH237422   0.323   2.069   8.692 -0.4945  0.2336 -0.7841
 5288TIP3    H137423   0.370   1.986   8.680  0.5913  0.7873 -0.5412
 5288TIP3    H237424   0.387   2.136   8.666 -0.6236  1.0906  0.9563
 5289TIP3   OH237425   0.528   4.231   0.117  0.0185 -0.2764 -0.2010
 5289TIP3    H137426   0.455   4.184   0.077 -0.2559  0.2256 -0.3024
 5289TIP3    H237427   0.552   4.179   0.193 -0.5523 -0.3583 -0.0764
 5290TIP3   OH237428   4.756   2.863   7.918 -0.1542 -0.5538  0.1503
 5290TIP3    H137429   4.834   2.898   7.962  0.1022 -1.4478  0.4271
 5290TIP3    H237430   4.700   2.939   7.904 -0.1830 -0.2239  1.9095
 5291TIP3   OH237431   1.146   6.110   1.886  0.0813 -0.5617  0.3575
 5291TIP3    H137432   1.210   6.124   1.817  0.9343 -0.8654  1.0654
 5291TIP3    H237433   1.097   6.192   1.890  0.9791 -0.0098  0.3676
 5292TIP3   OH237434   2.191   5.134   7.786  0.2936 -0.3041 -0.3051
 5292TIP3    H137435   2.139   5.159   7.862  0.9772 -0.3595  0.1932
 5292TIP3    H237436   2.213   5.042   7.802  3.1398  0.5133  1.0733
 5293TIP3   OH237437   0.066   3.396   6.274 -0.0635  0.1353 -0.6662
 5293TIP3    H137438   0.042   3.322   6.330  0.9194  2.3657  3.0626
 5293TIP3    H237439  -0.006   3.458   6.284  0.8461  1.2144 -0.5999
 5294TIP3   OH237440   6.209   3.724   8.036 -0.4233 -0.0731  0.3756
 5294TIP3    H137441   6.212   3.814   8.005  0.4467 -0.3426 -0.3671
 5294TIP3    H237442   6.116   3.706   8.050 -0.6557  0.7154 -0.1330
 5295TIP3   OH237443   3.863   1.247   8.285 -0.1462  0.0669 -0.3168
 5295TIP3    H137444   3.768   1.250   8.290 -0.0664  0.8057  1.9514
 5295TIP3    H237445   3.893   1.295   8.362  2.0760 -0.1870 -0.9344
 5296TIP3   OH237446   0.138   3.148   0.981 -0.0662 -0.2320  0.2140
 5296TIP3    H137447   0.144   3.121   0.889 -1.4582  0.4901 -0.1128
 5296TIP3    H237448   0.161   3.241   0.980  0.4724 -0.3558  0.6933
 5297TIP3   OH237449   6.226   3.031   6.532 -0.7429  0.8017 -0.0015
 5297TIP3    H137450   6.262   2.996   6.613 -2.1355 -2.3843 -0.5930
 5297TIP3    H237451   6.302   3.040   6.474 -0.2709 -2.3866 -0.0940
 5298TIP3   OH237452   6.686   5.224   7.590 -0.0124  0.3129 -0.1084
 5298TIP3    H137453   6.662   5.279   7.515  0.7924  0.1780 -0.4847
 5298TIP3    H237454   6.678   5.135   7.557  0.0270  0.2438  0.0680
 5299TIP3   OH237455   4.703   4.591   6.131 -0.3531 -0.0026 -0.0654
 5299TIP3    H137456   4.750   4.531   6.190  0.5229 -0.4540 -1.1879
 5299TIP3    H237457   4.678   4.664   6.187  0.0496 -0.6308  0.9676
 5300TIP3   OH237458   6.284   4.300   1.210  0.2218  0.3640 -0.5277
 5300TIP3    H137459   6.248   4.388   1.196  0.7638  0.8790  1.0526
 5300TIP3    H237460   6.332   4.281   1.130 -1.8576  0.4880 -1.8757
 5301TIP3   OH237461   0.951   4.841   2.346 -0.2651  0.2086 -0.2835
 5301TIP3    H137462   0.869   4.817   2.389  0.8393 -1.8827  0.7856
 5301TIP3    H237463   0.981   4.760   2.305  1.3228  0.9021 -0.5722
 5302TIP3   OH237464   3.914   4.101   8.504 -0.3871 -0.0253 -0.4292
 5302TIP3    H137465   3.894   4.172   8.444 -0.3401  0.9094  0.6303
 5302TIP3    H237466   3.830   4.059   8.521 -0.4429 -0.1178 -0.9236
 5303TIP3   OH237467   0.643   0.102   8.407  0.0932 -0.7761  0.2559
 5303TIP3    H137468   0.646   0.042   8.333  1.1639  1.8764 -2.0508
 5303TIP3    H237469   0.550   0.108   8.429 -0.4321 -0.6144 -1.8245
 5304TIP3   OH237470   5.918   1.762   7.650  0.5678  0.3606  0.0334
 5304TIP3    H137471   6.012   1.767   7.633  1.1597 -1.4000  2.2325
 5304TIP3    H237472   5.909   1.689   7.711 -2.1402  0.9937  0.5187
 5305TIP3   OH237473   0.893   0.537   8.252  0.0909  0.3333  0.4164
 5305TIP3    H137474   0.842   0.464   8.220 -0.3416  1.1159 -0.7465
 5305TIP3    H237475   0.978   0.499   8.275  0.8442 -0.1610 -2.7221
 5306TIP3   OH237476   5.700   1.623   7.204 -0.5890 -0.7128 -0.2747
 5306TIP3    H137477   5.627   1.586   7.155  0.7653 -3.6723 -0.2782
 5306TIP3    H237478   5.669   1.629   7.294 -2.1014  1.9942 -0.8503
 5307TIP3   OH237479   1.944   0.909   8.488  0.4896 -0.1444  0.4426
 5307TIP3    H137480   1.885   0.864   8.549 -0.1565  0.5508  0.3433
 5307TIP3    H237481   2.027   0.862   8.497 -0.5927 -2.5151 -0.9572
 5308TIP3   OH237482   4.934   5.162   0.215 -0.3479 -0.6859  0.2386
 5308TIP3    H137483   5.023   5.178   0.184 -0.9252 -0.8891 -1.6382
 5308TIP3    H237484   4.888   5.244   0.199  0.0314  0.3382  3.5794
 5309TIP3   OH237485   6.789   0.275   6.553 -0.2328  0.4371  0.0133
 5309TIP3    H137486   6.876   0.311   6.572 -0.7981  1.5776  0.5158
 5309TIP3    H237487   6.728   0.340   6.588 -1.3033  0.4327 -1.7728
 5310TIP3   OH237488   1.192   5.431   6.220 -0.4166 -0.3363  0.2426
 5310TIP3    H137489   1.146   5.464   6.297 -0.2276  0.0141  0.2060
 5310TIP3    H237490   1.284   5.433   6.244 -0.4565 -1.9352  0.6655
 5311TIP3   OH237491   1.250   3.606   1.241  0.4551  0.3080  0.0266
 5311TIP3    H137492   1.222   3.558   1.163 -3.0206  0.0057  1.2515
 5311TIP3    H237493   1.270   3.537   1.305 -0.5001  0.4531  0.5123
 5312TIP3   OH237494   5.153   3.107   2.150  0.1677  0.3514  0.0153
 5312TIP3    H137495   5.248   3.120   2.143  0.2430 -0.2728 -0.1434
 5312TIP3    H237496   5.124   3.179   2.207  0.7489  0.4832  0.1588
 5313TIP3   OH237497   2.206   3.754   7.167  0.1413  0.6224  0.2005
 5313TIP3    H137498   2.135   3.692   7.185  0.1264  0.3444 -0.7784
 5313TIP3    H237499   2.206   3.764   7.072 -2.0420  4.7074  0.4086
 5314TIP3   OH237500   2.609   5.856   0.144 -0.2690 -0.2193  0.3514
 5314TIP3    H137501   2.694   5.861   0.186 -0.9483 -0.4379  1.8280
 5314TIP3    H237502   2.607   5.770   0.102 -0.1445 -0.6575  1.2184
 5315TIP3   OH237503   0.093   1.749   8.473 -0.1318 -0.0819 -0.4735
 5315TIP3    H137504   0.006   1.713   8.495  0.8122 -1.9471  0.4619
 5315TIP3    H237505   0.102   1.734   8.379  0.1027 -2.1801 -0.1691
 5316TIP3   OH237506   6.349   0.873   8.480 -0.0663  0.6337 -0.2495
 5316TIP3    H137507   6.343   0.827   8.564  0.6561  0.0614 -0.4951
 5316TIP3    H237508   6.346   0.803   8.415 -0.3722  1.0550 -0.6870
 5317TIP3   OH237509   2.529   3.838   7.003 -0.5826  0.0244  0.5635
 5317TIP3    H137510   2.527   3.836   7.099  0.8825  1.2206  0.6614
 5317TIP3    H237511   2.525   3.931   6.980  1.9489 -0.0078 -0.3626
 5318TIP3   OH237512   0.243   0.420   7.757 -0.1899  0.1132 -0.3586
 5318TIP3    H137513   0.338   0.421   7.768 -0.0947  3.3947 -0.3728
 5318TIP3    H237514   0.230   0.406   7.664  0.0902 -2.9945 -0.0081
 5319TIP3   OH237515   0.934   0.334   8.012 -0.2193 -0.1970 -0.5723
 5319TIP3    H137516   0.858   0.349   8.069 -0.2190  0.2952 -0.6980
 5319TIP3    H237517   0.937   0.411   7.956 -0.9991 -1.2548 -2.1392
 5320TIP3   OH237518   2.986   4.799   8.160  0.2065 -0.1581  0.5329
 5320TIP3    H137519   2.970   4.833   8.248  1.4481 -0.5383  0.9204
 5320TIP3    H237520   3.061   4.740   8.169  0.8253  0.3500 -0.8940
 5321TIP3   OH237521   0.006   6.747   0.233  0.2966  0.2862 -0.3637
 5321TIP3    H137522   0.076   6.727   0.171  0.8786  0.6163  0.1711
 5321TIP3    H237523   0.030   6.698   0.312  0.4384  1.1610  0.1411
 5322TIP3   OH237524   6.675   3.607   7.258  0.1562 -0.4718 -0.1653
 5322TIP3    H137525   6.708   3.627   7.346 -0.4833 -0.5473  0.0977
 5322TIP3    H237526   6.679   3.690   7.211  0.4494 -0.4190 -0.0494
 5323TIP3   OH237527   5.253   3.645   0.632 -0.0551 -0.1089 -0.2992
 5323TIP3    H137528   5.286   3.613   0.716  0.8548 -0.5240 -0.7971
 5323TIP3    H237529   5.304   3.725   0.614 -0.1524 -0.0923 -0.5157
 5324TIP3   OH237530   3.243   3.926   6.723 -0.0447  0.3037 -0.3917
 5324TIP3    H137531   3.318   3.877   6.690  0.1268  0.6272 -0.4946
 5324TIP3    H237532   3.191   3.862   6.771 -0.6172 -0.3151 -1.7935
 5325TIP3   OH237533   4.762   0.263   0.093  0.4961 -0.4796  0.0419
 5325TIP3    H137534   4.689   0.201   0.083  1.6015 -2.2826  2.2102
 5325TIP3    H237535   4.818   0.245   0.017  0.1792 -1.3003 -0.0153
 5326TIP3   OH237536   2.842   4.078   6.328  0.4615 -0.0640  0.0903
 5326TIP3    H137537   2.880   4.017   6.390 -0.6889 -1.6333 -0.6923
 5326TIP3    H237538   2.750   4.086   6.353 -0.4480 -1.9773 -2.2328
 5327TIP3   OH237539   5.963   3.780   6.607 -0.6477  0.2251 -0.0071
 5327TIP3    H137540   5.873   3.759   6.633 -1.1543  2.3013  0.1246
 5327TIP3    H237541   5.955   3.864   6.561  0.7963 -1.1294 -3.0214
 5328TIP3   OH237542   6.605   2.686   0.238 -0.2403  0.4145 -0.4087
 5328TIP3    H137543   6.570   2.613   0.289 -0.4117  1.1082  0.4866
 5328TIP3    H237544   6.529   2.740   0.219  0.2418  1.7270  1.2041
 5329TIP3   OH237545   4.725   6.473   1.049 -0.1152  0.0277  0.3885
 5329TIP3    H137546   4.671   6.394   1.061 -0.0296 -0.5324 -2.3070
 5329TIP3    H237547   4.766   6.487   1.134  0.1284 -3.0565  0.8872
 5330TIP3   OH237548   3.994   2.879   8.221 -0.4366 -0.4818  0.0512
 5330TIP3    H137549   4.003   2.968   8.188  2.1726 -0.2571  1.1950
 5330TIP3    H237550   4.006   2.823   8.144 -0.9770  0.1195 -0.4778
 5331TIP3   OH237551   5.754   2.665   7.986  0.1832  0.2501  0.4074
 5331TIP3    H137552   5.800   2.582   7.972  1.0195  0.4043  2.0081
 5331TIP3    H237553   5.661   2.641   7.984  0.4103 -0.7543  0.9467
 5332TIP3   OH237554   3.191   6.658   8.459  0.0946 -0.2671 -0.2407
 5332TIP3    H137555   3.232   6.577   8.491  0.3385  0.0001  0.1288
 5332TIP3    H237556   3.181   6.644   8.365  1.0060 -0.3526 -0.3329
 5333TIP3   OH237557   5.839   3.393   6.615  0.2939  0.1128 -0.3246
 5333TIP3    H137558   5.806   3.480   6.633  1.0702  0.4238 -0.3583
 5333TIP3    H237559   5.934   3.405   6.602  0.3122 -0.6269 -0.9954
 5334TIP3   OH237560   6.567   2.149   0.958  0.1792 -0.2758 -0.3857
 5334TIP3    H137561   6.595   2.195   1.037 -0.1875  0.2511 -0.5601
 5334TIP3    H237562   6.474   2.170   0.949  0.0191 -0.9881 -0.5115
 5335TIP3   OH237563   4.897   5.050   8.222 -0.6790 -0.0858  0.3776
 5335TIP3    H137564   4.874   4.964   8.187 -0.3649  0.1043 -0.3049
 5335TIP3    H237565   4.891   5.109   8.147  0.1213  0.3034  0.6111
 5336TIP3   OH237566   5.965   0.485   7.694 -0.1461 -0.7247 -0.1921
 5336TIP3    H137567   5.875   0.480   7.727  0.2880 -1.5711  0.9139
 5336TIP3    H237568   5.962   0.554   7.627 -1.5336 -0.5011  0.0654
 5337TIP3   OH237569   5.939   2.915   0.383  0.0975  0.3345  0.1060
 5337TIP3    H137570   6.018   2.923   0.329 -0.4968 -0.6021 -0.9567
 5337TIP3    H237571   5.971   2.908   0.472  1.3505 -1.9779 -0.4620
 5338TIP3   OH237572   0.215   1.589   1.152 -0.3772  0.4598 -0.1131
 5338TIP3    H137573   0.233   1.673   1.109 -2.1984  1.3109  0.6963
 5338TIP3    H237574   0.193   1.612   1.242 -0.2528 -0.9639  0.3096
 5339TIP3   OH237575   5.943   5.830   1.133  0.4237 -0.2130  0.0784
 5339TIP3    H137576   5.934   5.913   1.179 -1.9245  0.7501 -1.9318
 5339TIP3    H237577   5.977   5.854   1.047  0.2612 -1.4249 -0.3442
 5340TIP3   OH237578   1.998   6.219   0.820 -0.6789  0.3246 -0.4889
 5340TIP3    H137579   1.957   6.290   0.870 -1.8520 -0.6386 -0.0278
 5340TIP3    H237580   2.019   6.258   0.736 -0.0047  1.5856  0.2341
 5341TIP3   OH237581   3.677   5.877   0.302 -0.1554  0.3907 -0.3981
 5341TIP3    H137582   3.749   5.882   0.239 -0.7247  1.0902 -1.0091
 5341TIP3    H237583   3.632   5.961   0.293 -1.5082 -0.3400 -0.5874
 5342TIP3   OH237584   6.185   4.642   6.715  0.5994 -0.1834 -0.5084
 5342TIP3    H137585   6.118   4.642   6.647  0.1377  2.5669 -0.1590
 5342TIP3    H237586   6.267   4.631   6.667  0.0564 -2.6110 -1.0306
 5343TIP3   OH237587   2.393   4.231   7.748 -0.5201  0.1603 -0.0692
 5343TIP3    H137588   2.425   4.168   7.812 -0.1342  0.4687  0.0494
 5343TIP3    H237589   2.427   4.315   7.778 -1.4537  0.5074  0.0649
 5344TIP3   OH237590   0.560   5.659   7.691  0.4266  0.2732 -0.5869
 5344TIP3    H137591   0.468   5.641   7.675  0.2827  0.1968  0.2504
 5344TIP3    H237592   0.576   5.623   7.779  0.5990  2.5140  0.3637
 5345TIP3   OH237593   6.312   2.198   0.950 -0.7140  0.4928 -0.0636
 5345TIP3    H137594   6.282   2.287   0.932 -0.9489  0.7359  1.4289
 5345TIP3    H237595   6.233   2.151   0.978 -0.8647 -0.5777 -2.0963
 5346TIP3   OH237596   4.220   4.192   1.706 -0.1381 -0.5812  0.4965
 5346TIP3    H137597   4.217   4.096   1.711 -2.9061 -0.7834 -2.4056
 5346TIP3    H237598   4.132   4.220   1.728 -0.2997  1.0318 -1.9093
 5347TIP3   OH237599   1.938   2.382   6.760  0.7888 -0.8718 -0.0750
 5347TIP3    H137600   1.911   2.383   6.668  0.8111  0.1780 -0.0787
 5347TIP3    H237601   1.893   2.306   6.797 -0.2451 -0.5661 -0.6557
 5348TIP3   OH237602   5.039   0.038   1.522 -0.5174  0.0800 -0.1041
 5348TIP3    H137603   5.080   0.066   1.604 -0.2548 -0.2798 -0.1110
 5348TIP3    H237604   5.097  -0.031   1.489 -0.2107  0.7339 -0.9661
 5349TIP3   OH237605   4.667   6.309   0.207  0.0972 -0.1499  0.8894
 5349TIP3    H137606   4.732   6.249   0.172 -1.0104 -0.6959 -0.3148
 5349TIP3    H237607   4.654   6.279   0.298  0.3519 -1.0522  0.6409
 5350TIP3   OH237608   1.684   2.242   8.576 -0.2812  0.0142 -0.2438
 5350TIP3    H137609   1.685   2.211   8.485  0.2457 -1.5355  0.2636
 5350TIP3    H237610   1.771   2.279   8.589 -0.6146  0.9538 -0.5815
 5351TIP3   OH237611   6.170   3.293   8.638  0.3350  0.1051  0.0509
 5351TIP3    H137612   6.156   3.198   8.638 -1.2857  0.3198  0.5893
 5351TIP3    H237613   6.104   3.327   8.699  2.0098  1.4337  1.2216
 5352TIP3   OH237614   2.073   5.998   6.086  0.5399  0.4170 -0.4421
 5352TIP3    H137615   2.057   6.083   6.046 -0.6266  0.8309  0.8498
 5352TIP3    H237616   2.169   5.988   6.085  0.6457  1.4115 -1.2289
 5353TIP3   OH237617   1.219   2.204   8.020  0.3704 -0.3656 -0.2344
 5353TIP3    H137618   1.237   2.269   7.952 -0.8031 -1.9802 -2.2265
 5353TIP3    H237619   1.124   2.204   8.028  0.4380 -0.9612  0.6327
 5354TIP3   OH237620   2.448   0.353   6.943 -0.0652  0.0415 -0.1366
 5354TIP3    H137621   2.474   0.282   7.002  3.0824  2.3542  1.5380
 5354TIP3    H237622   2.395   0.411   6.998  1.3877  1.3206 -0.0508
 5355TIP3   OH237623   3.258   4.837   6.892  0.5096  1.0159 -0.0229
 5355TIP3    H137624   3.225   4.898   6.825 -1.7886 -0.9522 -0.8770
 5355TIP3    H237625   3.198   4.848   6.966  0.7767  0.6376  0.2523
 5356TIP3   OH237626   5.684   6.698   8.219 -0.0221  0.2334 -0.2225
 5356TIP3    H137627   5.623   6.641   8.266  1.4560 -1.9940 -0.8534
 5356TIP3    H237628   5.630   6.746   8.157 -1.3428 -0.4036  0.4015
 5357TIP3   OH237629   0.867   5.134   5.926  0.5419 -0.0290 -0.1555
 5357TIP3    H137630   0.879   5.169   5.838 -1.0443  1.1852  0.0756
 5357TIP3    H237631   0.914   5.194   5.983  2.0269 -1.1096 -0.1671
 5358TIP3   OH237632   2.906   1.588   1.902  0.3244 -0.5078 -0.0167
 5358TIP3    H137633   2.820   1.569   1.866  0.6763 -0.7173 -0.7688
 5358TIP3    H237634   2.910   1.537   1.983 -0.0599 -0.9075 -0.2489
 5359TIP3   OH237635   1.486   1.742   7.123 -0.1635 -0.2106 -0.0464
 5359TIP3    H137636   1.451   1.701   7.202 -0.2845 -0.6573 -0.3274
 5359TIP3    H237637   1.427   1.714   7.054 -0.7423  1.1369 -0.1141
 5360TIP3   OH237638   4.521   2.430   2.015  0.2062  0.2220 -0.5027
 5360TIP3    H137639   4.444   2.456   1.966 -0.9804 -1.6856  0.2562
 5360TIP3    H237640   4.552   2.351   1.972  2.1551  1.2620 -1.1638
 5361TIP3   OH237641   6.224   4.066   7.423 -0.0037  0.5534  0.2724
 5361TIP3    H137642   6.132   4.048   7.444  0.4651 -1.2423  0.9530
 5361TIP3    H237643   6.259   4.106   7.502  0.3087 -0.7688  0.8267
 5362TIP3   OH237644   1.415   0.073   0.674 -0.1997  0.1705 -0.8330
 5362TIP3    H137645   1.367  -0.009   0.664  1.2089 -0.7592 -0.2337
 5362TIP3    H237646   1.367   0.135   0.619 -1.6095 -0.8968 -0.8742
 5363TIP3   OH237647   6.114   5.570   0.524  0.1573 -0.7571  0.1892
 5363TIP3    H137648   6.185   5.567   0.460  1.1523  0.7398  1.1552
 5363TIP3    H237649   6.036   5.588   0.473  1.1893  2.2220 -0.4930
 5364TIP3   OH237650   0.790   1.211   1.423  0.1309  0.2206  0.2294
 5364TIP3    H137651   0.742   1.173   1.496 -0.5715 -0.5801 -0.6160
 5364TIP3    H237652   0.882   1.207   1.449 -0.1319  0.2209  1.1782
 5365TIP3   OH237653   1.605   2.133   0.808 -0.5242  0.2618 -0.3180
 5365TIP3    H137654   1.557   2.053   0.784 -0.5831  0.3223 -0.4039
 5365TIP3    H237655   1.601   2.187   0.729  1.0834 -0.3962 -0.8862
 5366TIP3   OH237656   4.818   5.708   7.437 -0.0196  0.5485 -0.2287
 5366TIP3    H137657   4.879   5.637   7.416 -0.0297  0.6148 -0.4876
 5366TIP3    H237658   4.840   5.778   7.375 -1.0646  0.1757 -1.0678
 5367TIP3   OH237659   2.072   5.812   8.343  0.0922 -0.0190  0.1932
 5367TIP3    H137660   2.065   5.792   8.437  1.4049 -2.2001 -0.1078
 5367TIP3    H237661   2.039   5.733   8.300  1.0090  0.3263 -1.1785
 5368TIP3   OH237662   1.768   5.350   8.025  0.1728 -0.6646  0.1178
 5368TIP3    H137663   1.812   5.421   7.977 -0.3774  0.1191  0.7516
 5368TIP3    H237664   1.729   5.296   7.957 -2.1111  1.4024 -0.3440
 5369TIP3   OH237665   3.965   0.821   0.626  0.0361  0.3165 -0.0179
 5369TIP3    H137666   4.056   0.826   0.654  0.1441 -0.3527 -0.2493
 5369TIP3    H237667   3.969   0.787   0.537 -0.4592 -0.0278  0.0894
 5370TIP3   OH237668   2.115   1.448   8.201  0.7357 -0.0036  0.2346
 5370TIP3    H137669   2.038   1.398   8.226  0.5837  0.4841  0.7735
 5370TIP3    H237670   2.188   1.403   8.245  0.8975 -0.9800 -0.9723
 5371TIP3   OH237671   3.025   2.588   7.718  0.3803  0.0656  0.5709
 5371TIP3    H137672   3.006   2.646   7.792 -1.8743  2.0874 -1.3820
 5371TIP3    H237673   2.942   2.544   7.700  1.7459 -3.0491  1.2503
 5372TIP3   OH237674   2.915   4.014   7.055  1.2781 -0.1882 -0.0816
 5372TIP3    H137675   2.982   4.071   7.094  0.4594  1.3109 -0.7711
 5372TIP3    H237676   2.834   4.066   7.059  0.9003 -0.4963 -2.5522
 5373TIP3   OH237677   1.470   2.630   5.638  0.1691  0.2351 -0.1909
 5373TIP3    H137678   1.413   2.612   5.713 -0.1408 -0.6445 -0.6265
 5373TIP3    H237679   1.551   2.582   5.658 -0.3074 -0.9005 -0.9064
 5374TIP3   OH237680   4.466   6.541   1.860  0.3899 -0.2493 -0.4583
 5374TIP3    H137681   4.501   6.616   1.908  0.6358  1.8376 -3.6134
 5374TIP3    H237682   4.396   6.507   1.917  1.6332  1.0160  1.9842
 5375TIP3   OH237683   5.508   2.116   7.216  0.3806  0.6433 -0.6838
 5375TIP3    H137684   5.422   2.158   7.229  1.0953  1.9981 -0.0764
 5375TIP3    H237685   5.541   2.153   7.134  1.0928  1.4228 -0.0578
 5376TIP3   OH237686   5.185   2.348   0.841  0.2698  0.2455 -0.2106
 5376TIP3    H137687   5.269   2.309   0.816  1.0729  1.0646  1.0783
 5376TIP3    H237688   5.167   2.312   0.928  0.2012  1.4335  0.2878
 5377TIP3   OH237689   4.616   0.318   2.375 -0.4573 -0.2249  0.9214
 5377TIP3    H137690   4.627   0.409   2.348 -0.2594 -0.2970  0.7498
 5377TIP3    H237691   4.691   0.273   2.337 -0.4063 -0.4106  1.2387
 5378TIP3   OH237692   1.592   5.115   6.754 -0.0505 -0.1095  0.1019
 5378TIP3    H137693   1.639   5.035   6.776  0.1785 -0.0662 -0.2203
 5378TIP3    H237694   1.501   5.096   6.774 -0.1051 -0.7096 -0.6453
 5379TIP3   OH237695   4.102   6.791   8.453  0.1721 -0.6443 -0.3701
 5379TIP3    H137696   4.150   6.741   8.388  0.5253 -2.6677  1.3522
 5379TIP3    H237697   4.169   6.824   8.513 -0.1042  1.5287 -1.1572
 5380TIP3   OH237698   5.378   1.442   1.062 -0.3820 -0.0536  0.1669
 5380TIP3    H137699   5.338   1.525   1.088 -0.6381 -0.0982 -0.0896
 5380TIP3    H237700   5.358   1.383   1.134 -0.6713 -0.0439  0.0925
 5381TIP3   OH237701   2.162   2.626   0.437 -0.0197  0.5921  0.2088
 5381TIP3    H137702   2.119   2.607   0.354  0.8264 -0.6674  0.0155
 5381TIP3    H237703   2.116   2.571   0.501  0.5040  0.1505  0.2176
 5382TIP3   OH237704   5.882   2.851   8.454 -0.6159 -0.1741 -0.0286
 5382TIP3    H137705   5.927   2.803   8.523 -0.9640 -0.3305  0.0942
 5382TIP3    H237706   5.865   2.784   8.387  1.3743  0.3330 -1.1211
 5383TIP3   OH237707   6.780   3.528   2.130 -0.5000  0.0833  0.8034
 5383TIP3    H137708   6.713   3.460   2.139 -0.7334  0.3412  1.0104
 5383TIP3    H237709   6.733   3.610   2.142 -0.7963  0.4811 -2.3916
 5384TIP3   OH237710   3.336   6.136   6.282  0.3794 -0.0806  0.4527
 5384TIP3    H137711   3.252   6.090   6.274  0.8866 -1.2062  1.4550
 5384TIP3    H237712   3.364   6.149   6.191 -1.4216  1.4043  0.0217
 5385TIP3   OH237713   3.298   2.243   8.156 -0.0925  0.4056 -0.1835
 5385TIP3    H137714   3.254   2.321   8.120 -2.0497 -0.2240  0.7040
 5385TIP3    H237715   3.339   2.202   8.080 -1.2451  0.9326 -1.1234
 5386TIP3   OH237716   2.072   5.802   7.391 -0.1755  0.2963  0.3053
 5386TIP3    H137717   2.139   5.739   7.421  0.4334 -0.8785 -3.1087
 5386TIP3    H237718   2.098   5.885   7.431  1.5628 -0.7495  1.4917
 5387TIP3   OH237719   4.890   4.834   0.962  0.2474 -0.3497 -0.1557
 5387TIP3    H137720   4.942   4.901   1.007  1.0941 -1.2945  0.3195
 5387TIP3    H237721   4.898   4.856   0.870  1.5172 -0.4551 -0.0943
 5388TIP3   OH237722   3.370   4.793   5.566  0.2670  0.0527 -0.1718
 5388TIP3    H137723   3.315   4.869   5.546  0.3651 -0.4094 -2.4838
 5388TIP3    H237724   3.458   4.829   5.576  0.1688  0.3646 -0.4073
 5389TIP3   OH237725   1.992   4.844   1.161 -0.3460 -0.0570  0.2953
 5389TIP3    H137726   1.995   4.909   1.231  0.9816  1.5046 -1.1025
 5389TIP3    H237727   1.983   4.896   1.081  1.2660 -1.5568 -0.9369
 5390TIP3   OH237728   1.295   3.304   6.544 -0.0922 -0.5630 -0.2692
 5390TIP3    H137729   1.215   3.261   6.514 -0.9936  0.6539  0.3051
 5390TIP3    H237730   1.355   3.298   6.469 -1.7588  1.0671 -1.8609
 5391TIP3   OH237731   4.243   0.381   0.456 -0.3401 -0.3918  0.5744
 5391TIP3    H137732   4.307   0.367   0.386 -1.6565  1.8706 -1.2271
 5391TIP3    H237733   4.202   0.295   0.469 -1.0473 -0.6539 -2.5175
 5392TIP3   OH237734   0.328   5.345   8.382 -0.1313  0.3062 -0.2488
 5392TIP3    H137735   0.316   5.255   8.352  2.0503  0.2461 -1.1109
 5392TIP3    H237736   0.412   5.344   8.428 -0.3398  1.7914  0.2106
 5393TIP3   OH237737   3.356   1.239   8.155  0.2838  0.2848  0.4656
 5393TIP3    H137738   3.431   1.290   8.126  1.3754 -2.1646 -1.3120
 5393TIP3    H237739   3.324   1.195   8.076 -0.9130 -1.3718  1.7933
 5394TIP3   OH237740   6.564   1.917   8.643 -0.2271 -0.2434 -0.4909
 5394TIP3    H137741   6.529   1.881   8.561 -1.8838 -0.2572  0.1694
 5394TIP3    H237742   6.551   2.011   8.635  3.9921  0.4156 -2.1640
 5395TIP3   OH237743   0.808   1.570   7.307  0.5188  0.3595  0.1282
 5395TIP3    H137744   0.764   1.614   7.235  0.9576 -2.1494 -1.7857
 5395TIP3    H237745   0.739   1.557   7.373 -0.7968 -0.4013 -1.3313
 5396TIP3   OH237746   2.822   1.884   0.349  0.3496 -0.2976 -0.2216
 5396TIP3    H137747   2.738   1.838   0.354  0.9999 -1.4192  1.0252
 5396TIP3    H237748   2.806   1.968   0.392 -0.3275 -0.1685 -0.7065
 5397TIP3   OH237749   3.276   1.026   7.326 -0.1173 -0.0446  0.0288
 5397TIP3    H137750   3.275   1.021   7.231 -0.6294 -1.4789  0.0954
 5397TIP3    H237751   3.340   1.095   7.346 -1.1352  1.3853 -1.3694
 5398TIP3   OH237752   4.714   1.166   7.876  0.1971  0.3278  0.1351
 5398TIP3    H137753   4.682   1.207   7.957  3.2460 -1.7648  2.6706
 5398TIP3    H237754   4.808   1.185   7.876  1.4021 -4.3537  0.2711
 5399TIP3   OH237755   4.893   1.504   8.817  0.1180  0.0567 -0.3709
 5399TIP3    H137756   4.843   1.429   8.785  2.9341 -1.3960 -1.7347
 5399TIP3    H237757   4.832   1.550   8.875 -2.5139 -1.9025 -1.3396
 5400TIP3   OH237758   6.092   2.516   0.476  0.1333 -0.2890 -0.0210
 5400TIP3    H137759   6.066   2.605   0.500 -2.6618 -0.6338 -1.3510
 5400TIP3    H237760   6.141   2.527   0.394 -0.2303  0.0470 -0.1996
 5401TIP3   OH237761   6.210   5.879   0.220 -0.4057 -0.1590 -0.1119
 5401TIP3    H137762   6.306   5.882   0.216 -0.2577 -2.9668 -0.7487
 5401TIP3    H237763   6.191   5.856   0.311 -0.3657 -1.1783 -0.3510
 5402TIP3   OH237764   3.619   6.258   5.941  0.3382  0.6054  0.0219
 5402TIP3    H137765   3.673   6.206   5.881 -0.4033  0.2063 -0.3085
 5402TIP3    H237766   3.650   6.347   5.930 -0.4623  0.7071 -1.7222
 5403TIP3   OH237767   5.812   1.862   6.586 -0.0811 -0.4557  0.7048
 5403TIP3    H137768   5.874   1.933   6.567 -1.5476  0.3940 -1.3469
 5403TIP3    H237769   5.860   1.782   6.565  0.7962  0.0808  0.6215
 5404TIP3   OH237770   2.440   3.011   6.403  0.2139 -0.3581 -0.0714
 5404TIP3    H137771   2.466   2.997   6.312 -1.1753  0.5042 -0.6300
 5404TIP3    H237772   2.523   3.024   6.450  0.9461 -0.8085 -1.2072
 5405TIP3   OH237773   1.607   4.521   0.928  0.3473  0.4864  0.4726
 5405TIP3    H137774   1.671   4.493   0.863  0.3854  1.5796  0.0270
 5405TIP3    H237775   1.531   4.549   0.877  0.8346  2.5512  0.7656
 5406TIP3   OH237776   0.694   1.037   1.013  0.2169  0.0276  0.4049
 5406TIP3    H137777   0.732   0.951   0.998  0.3045  0.2273 -0.5816
 5406TIP3    H237778   0.695   1.079   0.927 -0.3330  0.8072  0.7677
 5407TIP3   OH237779   0.003   5.495   8.213  0.6881 -0.3331  0.4558
 5407TIP3    H137780  -0.007   5.507   8.118 -0.5102 -0.3390  0.5727
 5407TIP3    H237781   0.030   5.581   8.245 -1.2372  0.3331  0.3995
 5408TIP3   OH237782   1.783   6.391   0.644  0.1154 -0.9297  0.1324
 5408TIP3    H137783   1.727   6.410   0.719  1.4921 -1.8629  1.4246
 5408TIP3    H237784   1.838   6.469   0.635 -1.6935  0.2632 -1.5283
 5409TIP3   OH237785   2.319   0.240   1.151 -0.2720  0.2710  0.4827
 5409TIP3    H137786   2.268   0.159   1.161 -0.8560  0.4477 -0.8874
 5409TIP3    H237787   2.275   0.303   1.208 -1.5864  0.3998 -0.6150
 5410TIP3   OH237788   4.989   2.740   7.783 -0.4044  0.1439 -0.4701
 5410TIP3    H137789   4.955   2.763   7.870  0.7620  0.1266  0.0065
 5410TIP3    H237790   4.937   2.792   7.722 -0.0113  1.5603  0.3718
 5411TIP3   OH237791   5.314   3.605   1.990 -0.7538  0.3575  0.3246
 5411TIP3    H137792   5.310   3.643   2.077 -1.2445  0.6994  0.1604
 5411TIP3    H237793   5.405   3.576   1.980 -0.8878 -0.4330  1.2581
 5412TIP3   OH237794   5.682   1.521   1.419 -0.4272 -0.1926  0.1136
 5412TIP3    H137795   5.598   1.546   1.459 -0.9940  0.1059 -1.2153
 5412TIP3    H237796   5.695   1.431   1.448 -0.7802  0.0208  1.0080
 5413TIP3   OH237797   3.422   5.463   1.675 -0.5841  0.2810  0.3823
 5413TIP3    H137798   3.450   5.389   1.728 -1.2492 -1.1270 -1.1640
 5413TIP3    H237799   3.329   5.449   1.660 -0.5821  1.0540 -0.4974
 5414TIP3   OH237800   0.546   5.003   0.769 -0.1261  0.2118  0.5122
 5414TIP3    H137801   0.576   5.047   0.689  0.5542  0.9148  1.1434
 5414TIP3    H237802   0.625   4.960   0.803 -0.6833 -1.1579  0.1363
 5415TIP3   OH237803   5.618   6.775   0.328 -0.3669 -0.0924  0.1337
 5415TIP3    H137804   5.680   6.735   0.267  2.6135 -1.7956  3.8848
 5415TIP3    H237805   5.562   6.702   0.356 -0.8914  0.3870  0.3380
 5416TIP3   OH237806   2.922   3.870   0.493  0.5438 -0.2596  0.4535
 5416TIP3    H137807   2.986   3.870   0.564 -1.1165  1.5574  2.0953
 5416TIP3    H237808   2.930   3.957   0.453 -0.0398 -0.4606 -0.1259
 5417TIP3   OH237809   5.223   2.189   7.225 -0.3773  0.0785  0.1752
 5417TIP3    H137810   5.223   2.129   7.299 -0.2930 -0.3143 -0.1349
 5417TIP3    H237811   5.170   2.263   7.253 -0.8749 -0.3564  0.4027
 5418TIP3   OH237812   5.947   1.851   8.298  0.0243  0.1742 -0.0989
 5418TIP3    H137813   6.026   1.811   8.334 -0.5114 -0.2182  0.6394
 5418TIP3    H237814   5.914   1.906   8.369 -1.9610 -1.8808  0.6702
 5419TIP3   OH237815   4.077   4.792   0.952  0.2137  0.5166  0.2276
 5419TIP3    H137816   4.075   4.802   0.857 -1.8702 -1.9036 -0.0912
 5419TIP3    H237817   4.122   4.709   0.966 -1.4614 -0.2945  1.1328
 5420TIP3   OH237818   5.874   4.596   7.437  1.0283  0.0209  0.2750
 5420TIP3    H137819   5.898   4.566   7.349 -0.5575 -0.5448  0.0082
 5420TIP3    H237820   5.901   4.688   7.440  1.6177 -0.1167 -0.5918
 5421TIP3   OH237821   2.530   1.340   6.134 -0.2898  0.5509  0.1572
 5421TIP3    H137822   2.544   1.261   6.083 -0.1433 -0.6083  1.9212
 5421TIP3    H237823   2.454   1.321   6.189  0.3829  1.1938  1.3753
 5422TIP3   OH237824   5.667   5.797   8.470  0.5658  0.2667  0.6029
 5422TIP3    H137825   5.629   5.838   8.392 -0.9610 -0.7110  0.7971
 5422TIP3    H237826   5.606   5.728   8.494  1.3398  0.1049  2.2943
 5423TIP3   OH237827   6.228   0.465   0.549 -0.6851 -0.8757 -0.4540
 5423TIP3    H137828   6.236   0.394   0.486  1.7715  1.0820 -2.6063
 5423TIP3    H237829   6.165   0.525   0.510 -1.0375 -0.8015  0.2125
 5424TIP3   OH237830   0.609   1.984   6.715 -0.0691 -0.0306  0.0286
 5424TIP3    H137831   0.620   2.065   6.665  0.0038  0.1234  0.2909
 5424TIP3    H237832   0.608   1.915   6.649 -2.2635  0.3484 -0.3973
 5425TIP3   OH237833   0.514   2.596   0.469  0.2461  0.1866  0.0393
 5425TIP3    H137834   0.570   2.671   0.488  0.0080  0.9313 -1.9562
 5425TIP3    H237835   0.486   2.564   0.555 -0.6288  3.1294  0.9547
 5426TIP3   OH237836   0.663   6.756   6.568 -0.7487  0.0498 -0.0188
 5426TIP3    H137837   0.622   6.675   6.597  0.2660 -0.8562 -1.0074
 5426TIP3    H237838   0.592   6.806   6.528 -1.6602  0.2830  1.7917
 5427TIP3   OH237839   1.294   2.465   0.143  0.0199 -0.8336 -1.2217
 5427TIP3    H137840   1.329   2.490   0.229  0.4641 -1.5967 -1.1740
 5427TIP3    H237841   1.251   2.544   0.111  0.5243 -0.3123 -0.6336
 5428TIP3   OH237842   2.611   3.938   8.417  0.0714 -0.0373  0.1720
 5428TIP3    H137843   2.603   4.032   8.432 -1.9766  0.1442 -1.4570
 5428TIP3    H237844   2.689   3.929   8.363 -0.5918  0.9631 -1.0138
 5429TIP3   OH237845   4.387   6.476   1.235 -0.3151 -0.1399 -0.3859
 5429TIP3    H137846   4.366   6.392   1.193  1.8856 -0.4283 -1.0441
 5429TIP3    H237847   4.466   6.458   1.285 -1.7699  0.7042  2.3967
 5430TIP3   OH237848   2.047   1.763   2.039 -0.6620  0.3602  0.1598
 5430TIP3    H137849   1.977   1.790   2.098 -0.8482  0.3114 -0.0366
 5430TIP3    H237850   2.010   1.773   1.951 -0.5139  0.0849  0.0629
 5431TIP3   OH237851   1.436   2.608   6.275 -0.4305 -0.6062 -0.2890
 5431TIP3    H137852   1.502   2.674   6.296  1.7111 -2.9543  0.9480
 5431TIP3    H237853   1.458   2.580   6.186  0.8079 -1.9030  0.3864
 5432TIP3   OH237854   0.335   4.028   8.538 -0.0957 -0.2130  0.3002
 5432TIP3    H137855   0.372   4.116   8.528  0.1944 -0.1884  1.4468
 5432TIP3    H237856   0.385   3.974   8.477  0.0580  0.3216 -0.0557
 5433TIP3   OH237857   6.221   0.719   0.702  0.1212 -0.0712  0.4694
 5433TIP3    H137858   6.254   0.634   0.673  0.5214  0.3506 -0.3250
 5433TIP3    H237859   6.190   0.703   0.792 -2.1933 -1.6903 -0.5117
 5434TIP3   OH237860   0.648   1.887   7.893  0.0870 -0.4671  0.1344
 5434TIP3    H137861   0.690   1.854   7.813 -0.9982  0.4703 -0.8455
 5434TIP3    H237862   0.614   1.973   7.869 -0.5748 -0.3179  1.5176
 5435TIP3   OH237863   4.318   1.343   0.208  0.1559  0.1788  0.1850
 5435TIP3    H137864   4.375   1.272   0.179 -0.5020 -0.4034  0.2943
 5435TIP3    H237865   4.289   1.385   0.128  0.1971  0.0511  0.1031
 5436TIP3   OH237866   1.858   3.970   8.039 -1.0782 -0.5777  0.4213
 5436TIP3    H137867   1.818   3.919   8.109  1.1054 -0.4267  1.8643
 5436TIP3    H237868   1.836   4.061   8.058  1.0611 -0.3423  2.0820
 5437TIP3   OH237869   6.282   4.034   7.997 -0.1264  0.6141  0.0820
 5437TIP3    H137870   6.208   4.094   7.984  0.5968  1.2458 -1.3725
 5437TIP3    H237871   6.326   4.032   7.912 -0.0319 -1.9054  0.1353
 5438TIP3   OH237872   4.674   1.874   8.615  0.0555 -0.5569  0.0534
 5438TIP3    H137873   4.662   1.969   8.618  1.0517 -0.3264 -1.9440
 5438TIP3    H237874   4.595   1.841   8.572 -0.5141 -0.7113  1.1849
 5439TIP3   OH237875   5.212   2.315   8.441 -0.0622 -0.1413  0.2719
 5439TIP3    H137876   5.193   2.385   8.380  0.7060 -0.8499 -0.8114
 5439TIP3    H237877   5.252   2.359   8.517  1.9473  0.4854 -1.0591
 5440TIP3   OH237878   3.438   2.812   7.426 -0.2040 -0.6187 -0.3693
 5440TIP3    H137879   3.502   2.817   7.497 -0.8570 -2.0951  0.3625
 5440TIP3    H237880   3.356   2.839   7.465 -0.5694 -1.4423 -0.5371
 5441TIP3   OH237881   1.590   5.887   6.246  0.1307  0.5299  0.0681
 5441TIP3    H137882   1.670   5.877   6.194 -0.5007  0.2719 -0.8672
 5441TIP3    H237883   1.596   5.819   6.312  0.9052  0.8128  0.3067
 5442TIP3   OH237884   0.026   0.394   8.194 -0.2379  0.0156  0.3581
 5442TIP3    H137885   0.106   0.442   8.214 -0.9739  1.7688 -0.6608
 5442TIP3    H237886   0.033   0.374   8.100 -0.4262 -0.9669  0.5429
 5443TIP3   OH237887   3.374   0.231   6.755  0.1336 -0.0586  0.2195
 5443TIP3    H137888   3.401   0.267   6.670 -0.3498  1.2019  0.5793
 5443TIP3    H237889   3.339   0.306   6.803 -0.4314 -0.9236  1.2034
 5444TIP3   OH237890   1.821   1.898   7.948  0.4021 -0.0459  0.4345
 5444TIP3    H137891   1.876   1.922   7.874 -0.9253  0.6606 -0.3473
 5444TIP3    H237892   1.883   1.865   8.014  2.0326  2.7759  0.4629
 5445TIP3   OH237893   3.310   1.877   7.583 -0.2879 -0.3493  0.2288
 5445TIP3    H137894   3.269   1.949   7.533 -1.8150 -1.2054  0.1724
 5445TIP3    H237895   3.338   1.815   7.517  0.6103 -0.0368  0.3029
 5446TIP3   OH237896   2.975   2.223   8.079  1.0688  0.4544 -0.5954
 5446TIP3    H137897   2.915   2.171   8.133 -0.2503  1.6607 -0.8086
 5446TIP3    H237898   3.062   2.190   8.101  0.3280 -1.6239 -0.5346
 5447TIP3   OH237899   4.938   2.046   2.079  0.3402  0.7364  0.4961
 5447TIP3    H137900   4.854   2.029   2.034  0.2919  0.9339  0.5113
 5447TIP3    H237901   4.915   2.048   2.172  0.7512 -1.6562  0.7180
 5448TIP3   OH237902   1.503   2.005   8.357  0.5169 -0.0698 -0.2404
 5448TIP3    H137903   1.539   2.067   8.421  0.2272 -0.6405  0.4843
 5448TIP3    H237904   1.552   2.024   8.277  0.7960  0.7472  0.1051
 5449TIP3   OH237905   5.965   6.500   6.967 -0.3973  0.0625 -0.0587
 5449TIP3    H137906   5.948   6.429   7.028 -0.8994  0.7260  0.5920
 5449TIP3    H237907   5.962   6.458   6.880 -0.0894 -0.8059  0.3423
 5450TIP3   OH237908   3.891   6.633   8.588  0.2783 -0.2814  0.3926
 5450TIP3    H137909   3.813   6.639   8.533 -0.4901  0.8543  1.5400
 5450TIP3    H237910   3.956   6.686   8.542  0.4849 -1.4454 -0.7050
 5451TIP3   OH237911   5.723   5.943   8.757 -0.1838 -0.5760 -0.4572
 5451TIP3    H137912   5.789   5.999   8.798  0.9793 -2.4148  0.3172
 5451TIP3    H237913   5.737   5.955   8.663 -1.3376  1.9120 -0.4012
 5452TIP3   OH237914   6.120   4.068   0.373 -0.5794 -0.0897 -0.1032
 5452TIP3    H137915   6.121   4.040   0.465 -0.3140 -1.2225 -0.4477
 5452TIP3    H237916   6.209   4.056   0.342 -0.5079  0.9269 -0.3389
 5453TIP3   OH237917   5.986   4.510   7.199 -0.1737 -0.2050  0.0830
 5453TIP3    H137918   5.965   4.419   7.216  0.8857 -0.2121  1.5139
 5453TIP3    H237919   6.063   4.507   7.142  0.9759 -0.2579  1.5787
 5454TIP3   OH237920   5.225   1.973   7.394  0.1603  0.0480  0.3774
 5454TIP3    H137921   5.180   1.888   7.402 -0.7005  0.3461 -0.9510
 5454TIP3    H237922   5.280   1.979   7.473 -2.1463 -0.3357  2.1305
 5455TIP3   OH237923   3.926   3.540   6.621 -0.1129 -0.2647 -0.3059
 5455TIP3    H137924   3.962   3.575   6.539  2.3911  0.4575  0.9986
 5455TIP3    H237925   3.873   3.611   6.656 -2.6662 -1.1668 -2.0100
 5456TIP3   OH237926   2.153   3.806   7.850  0.8814 -0.2199  0.4896
 5456TIP3    H137927   2.157   3.848   7.936 -1.5463 -0.0817  0.5998
 5456TIP3    H237928   2.115   3.720   7.867 -0.0626 -0.0162 -0.4895
 5457TIP3   OH237929   2.954   6.394   7.735 -0.7129 -0.5295  0.6997
 5457TIP3    H137930   2.980   6.307   7.705 -1.2370 -0.5955  0.4189
 5457TIP3    H237931   3.009   6.454   7.685 -0.3560 -0.6951  0.8867
 5458TIP3   OH237932   2.863   1.655   6.650 -0.3257  0.0664  0.1132
 5458TIP3    H137933   2.910   1.733   6.623 -1.9001  0.6551 -1.0732
 5458TIP3    H237934   2.898   1.635   6.737  1.0750  1.2740 -0.1374
 5459TIP3   OH237935   3.811   1.575   7.107 -0.6631  0.4703  0.3753
 5459TIP3    H137936   3.780   1.660   7.137 -0.4577  0.8749 -0.5159
 5459TIP3    H237937   3.838   1.590   7.016  0.0485 -0.3793  0.4318
 5460TIP3   OH237938   4.590   5.565   8.512  0.0897  0.3873 -0.2188
 5460TIP3    H137939   4.510   5.538   8.557 -0.6938  1.4174 -0.9372
 5460TIP3    H237940   4.639   5.484   8.498 -0.9442 -0.2933  0.0111
 5461TIP3   OH237941   1.048   6.231   7.652  0.1535 -0.4145  0.4061
 5461TIP3    H137942   1.140   6.258   7.652 -0.5458  2.2822 -0.5084
 5461TIP3    H237943   0.999   6.312   7.637 -2.3757 -1.8210  0.4825
 5462TIP3   OH237944   6.438   3.837   1.134 -0.0216 -1.0176  0.2882
 5462TIP3    H137945   6.493   3.772   1.091  1.9988 -0.7826  2.3241
 5462TIP3    H237946   6.500   3.898   1.173 -1.7889  0.0197  1.5936
 5463TIP3   OH237947   6.477   6.381   8.153  0.6072  0.2415  0.4414
 5463TIP3    H137948   6.442   6.413   8.236 -2.1762  0.8286 -0.8418
 5463TIP3    H237949   6.496   6.460   8.103 -0.1340 -0.0662 -0.3614
 5464TIP3   OH237950   1.203   2.892   1.724 -0.4660  0.4866  0.5146
 5464TIP3    H137951   1.213   2.918   1.815 -0.6121 -2.0042  1.3112
 5464TIP3    H237952   1.286   2.918   1.683 -0.8711  2.7519  1.0021
 5465TIP3   OH237953   6.268   6.075   7.497  0.0318  0.1667  0.3496
 5465TIP3    H137954   6.201   6.033   7.551 -0.4845  1.4840  0.7828
 5465TIP3    H237955   6.261   6.168   7.518  1.0354  0.5033 -0.6759
 5466TIP3   OH237956   3.425   3.113   0.535  0.3907 -0.2858  0.1441
 5466TIP3    H137957   3.398   3.205   0.545 -0.0289 -0.4843  0.8819
 5466TIP3    H237958   3.500   3.103   0.593 -0.9586 -0.9807  1.8383
 5467TIP3   OH237959   5.509   2.658   6.564 -0.1667  0.1085  0.5116
 5467TIP3    H137960   5.538   2.567   6.553 -0.1378  0.2566 -0.7957
 5467TIP3    H237961   5.417   2.657   6.541 -0.1646  0.4161  0.4883
 5468TIP3   OH237962   5.306   2.141   1.362  0.0816  0.5985  0.2332
 5468TIP3    H137963   5.318   2.124   1.456 -1.7256 -3.1774 -0.0166
 5468TIP3    H237964   5.234   2.205   1.359 -0.5565 -0.0139  1.4497
 5469TIP3   OH237965   2.578   6.744   7.393  0.1557  0.1346 -0.0147
 5469TIP3    H137966   2.576   6.723   7.300 -1.2735  0.6556 -0.1231
 5469TIP3    H237967   2.669   6.770   7.410  0.6117 -0.6930 -1.0835
 5470TIP3   OH237968   1.244   4.923   1.429 -0.5617 -0.0428 -0.6899
 5470TIP3    H137969   1.234   5.002   1.376 -1.3869 -0.4098 -1.1008
 5470TIP3    H237970   1.174   4.929   1.495 -1.0351 -0.7304 -1.1163
 5471TIP3   OH237971   4.511   0.980   0.313 -0.1328  0.7532  0.1430
 5471TIP3    H137972   4.485   0.943   0.397 -0.0940  1.2232  0.3617
 5471TIP3    H237973   4.499   1.074   0.323 -1.4968  0.7154 -0.8409
 5472TIP3   OH237974   0.992   4.653   8.361  0.0838 -0.2416 -0.0313
 5472TIP3    H137975   1.025   4.621   8.277 -2.6916 -1.4703 -0.7865
 5472TIP3    H237976   1.046   4.609   8.426 -0.2530 -2.5281 -1.1587
 5473TIP3   OH237977   3.753   5.391   8.011 -0.3730 -0.4207  0.0901
 5473TIP3    H137978   3.819   5.326   7.987  0.1420  0.6745 -1.6038
 5473TIP3    H237979   3.801   5.457   8.061 -0.9037 -1.2999  1.8448
 5474TIP3   OH237980   3.756   1.035   8.667  0.2248 -0.0178  0.1477
 5474TIP3    H137981   3.722   0.950   8.696  0.1027  0.0058  0.0748
 5474TIP3    H237982   3.757   1.089   8.746 -1.5622  0.5321 -0.1669
 5475TIP3   OH237983   1.936   6.569   5.998 -0.3398 -0.5616  0.0461
 5475TIP3    H137984   2.010   6.629   5.987 -0.5067 -0.3388  0.1480
 5475TIP3    H237985   1.952   6.500   5.934 -1.4070  0.8316 -1.8053
 5476TIP3   OH237986   5.103   5.099   6.375  0.3433  0.5518  0.1544
 5476TIP3    H137987   5.015   5.061   6.376  0.7062 -0.3060  0.1972
 5476TIP3    H237988   5.104   5.156   6.452 -0.3808  1.0835 -0.2069
 5477TIP3   OH237989   0.114   6.179   8.428  0.2476  0.3428  0.6282
 5477TIP3    H137990   0.033   6.211   8.388 -0.0162  0.2173  1.0623
 5477TIP3    H237991   0.152   6.256   8.470  0.5650  0.4923  0.0763
 5478TIP3   OH237992   3.241   5.153   0.951 -0.4176  0.0572  0.2922
 5478TIP3    H137993   3.295   5.224   0.917 -1.7013  0.9037 -0.0729
 5478TIP3    H237994   3.152   5.188   0.950 -1.2418 -1.9006 -0.8780
 5479TIP3   OH237995   6.531   2.666   1.364  0.0381 -0.3897 -0.1392
 5479TIP3    H137996   6.524   2.760   1.384  0.4154 -0.8284  2.3859
 5479TIP3    H237997   6.488   2.623   1.437  1.3813 -2.2319 -0.3706
 5480TIP3   OH237998   3.446   4.100   0.468 -0.2525 -0.0697  0.0436
 5480TIP3    H137999   3.503   4.092   0.544  1.2113  1.6835 -0.8051
 5480TIP3    H238000   3.502   4.081   0.393 -0.8517  1.3413 -0.7967
 5481TIP3   OH238001   2.875   3.613   1.669 -0.0383  0.3970 -0.1409
 5481TIP3    H138002   2.880   3.629   1.763  0.1544  0.6007 -0.1864
 5481TIP3    H238003   2.787   3.577   1.656 -0.2333  0.7997  0.0531
 5482TIP3   OH238004   1.257   0.405   2.014  0.1005 -0.4879 -0.0219
 5482TIP3    H138005   1.342   0.436   2.046  0.2929 -1.2306  0.2023
 5482TIP3    H238006   1.215   0.484   1.978  1.5204 -0.3756 -1.5726
 5483TIP3   OH238007   0.846   4.204   0.798  0.1265 -0.2320  0.8833
 5483TIP3    H138008   0.931   4.204   0.841 -0.3324  1.6216  1.9134
 5483TIP3    H238009   0.787   4.243   0.863 -1.3062 -0.5723 -0.1777
 5484TIP3   OH238010   2.405   0.855   6.626  0.5152 -0.2566  0.1620
 5484TIP3    H138011   2.439   0.867   6.715  0.1914 -0.4920  0.3186
 5484TIP3    H238012   2.340   0.785   6.635  1.1791 -0.9681 -0.4387
 5485TIP3   OH238013   2.517   5.649   7.958  0.2429  0.1397  0.3294
 5485TIP3    H138014   2.489   5.644   8.050 -0.1069  1.4396  0.3247
 5485TIP3    H238015   2.612   5.662   7.963  0.2817 -0.1868  0.4882
 5486TIP3   OH238016   1.234   6.764   1.254  0.1365  0.2605  0.1084
 5486TIP3    H138017   1.156   6.814   1.277  0.4358  0.8615 -0.1704
 5486TIP3    H238018   1.204   6.673   1.253 -0.9057  0.5752 -1.3164
 5487TIP3   OH238019   3.942   0.524   0.957  0.0779  0.3652 -0.1569
 5487TIP3    H138020   3.874   0.465   0.987 -0.7438  0.8336 -1.0514
 5487TIP3    H238021   4.022   0.491   0.998 -0.6580 -0.2259  0.8627
 5488TIP3   OH238022   2.799   6.527   0.739 -0.4043 -0.1388  0.0755
 5488TIP3    H138023   2.871   6.476   0.775 -0.2802 -0.4422 -0.5785
 5488TIP3    H238024   2.841   6.606   0.704 -0.5426  0.2247  0.7247
 5489TIP3   OH238025   1.655   5.660   7.486 -0.2676  0.2648 -0.8056
 5489TIP3    H138026   1.740   5.668   7.442  0.3959  3.6135  0.7149
 5489TIP3    H238027   1.675   5.673   7.579 -2.4154  0.9657 -0.3838
 5490TIP3   OH238028   6.282   2.173   8.570 -0.2738 -0.4186  0.8598
 5490TIP3    H138029   6.254   2.085   8.595  0.9055 -0.3632  2.5893
 5490TIP3    H238030   6.378   2.171   8.577 -0.2786  1.3666  2.3685
 5491TIP3   OH238031   6.475   3.840   1.545 -0.8690 -0.0180  0.0343
 5491TIP3    H138032   6.546   3.798   1.497 -0.6743 -0.1624  0.4398
 5491TIP3    H238033   6.510   3.852   1.634 -0.5020  2.0098 -0.3285
 5492TIP3   OH238034   4.437   6.555   7.596 -0.7172  0.1622 -0.0112
 5492TIP3    H138035   4.364   6.512   7.641 -2.1257  1.2133 -1.1975
 5492TIP3    H238036   4.416   6.648   7.599  1.2504  0.6494  0.7213
 5493TIP3   OH238037   5.064   5.101   0.678  0.2102 -0.3601  0.2453
 5493TIP3    H138038   5.007   5.046   0.623 -1.2166  0.8763  0.4238
 5493TIP3    H238039   5.052   5.067   0.766 -1.5977  0.9142  0.5380
 5494TIP3   OH238040   3.836   2.911   8.432  0.2165  0.1601  0.5900
 5494TIP3    H138041   3.881   2.910   8.516  0.3614 -0.9883  0.5092
 5494TIP3    H238042   3.906   2.920   8.367  0.1541  0.3814  0.5492
 5495TIP3   OH238043   0.942   3.590   7.523 -0.1021  0.0209  0.5580
 5495TIP3    H138044   0.988   3.508   7.537 -0.6577 -0.9566 -2.6880
 5495TIP3    H238045   1.005   3.646   7.477 -0.1629  0.9838  1.5905
 5496TIP3   OH238046   0.785   0.698   6.669 -0.1500 -0.1794 -0.0041
 5496TIP3    H138047   0.765   0.620   6.618  0.8867 -1.8306  1.9457
 5496TIP3    H238048   0.865   0.733   6.629 -0.0248 -0.7431 -0.2519
 5497TIP3   OH238049   3.676   3.453   6.433 -0.2430  0.0973  0.4274
 5497TIP3    H138050   3.672   3.425   6.341 -1.8005  0.7902  0.2394
 5497TIP3    H238051   3.597   3.417   6.472  0.6164 -0.5283  1.6233
 5498TIP3   OH238052   0.121   0.249   0.528 -0.2153  0.2888  0.0735
 5498TIP3    H138053   0.126   0.195   0.450  2.1014  0.5469 -0.0440
 5498TIP3    H238054   0.028   0.259   0.545 -0.7543 -2.3831 -0.8122
 5499TIP3   OH238055   5.458   4.422   8.550  0.0948 -0.1874 -0.2311
 5499TIP3    H138056   5.496   4.506   8.576  0.9910  0.3752 -2.9900
 5499TIP3    H238057   5.514   4.356   8.592  1.0540  0.6350 -0.1798
 5500TIP3   OH238058   5.280   2.911   7.575  0.2196 -0.3714  0.3429
 5500TIP3    H138059   5.351   2.897   7.512  0.4500 -0.2141  0.5639
 5500TIP3    H238060   5.205   2.867   7.536  0.2386  0.1187 -0.2639
 5501TIP3   OH238061   4.428   3.017   1.193  0.0007 -0.5568  0.6009
 5501TIP3    H138062   4.414   2.980   1.106  1.2092  2.4801 -1.0734
 5501TIP3    H238063   4.518   2.994   1.215  0.0852 -0.3631  0.4707
 5502TIP3   OH238064   6.519   2.526   8.428  0.5903 -0.0339 -0.0967
 5502TIP3    H138065   6.577   2.542   8.503  1.4610  0.2687 -0.8201
 5502TIP3    H238066   6.559   2.452   8.383  0.3280  0.0859 -0.5300
 5503TIP3   OH238067   5.281   0.293   0.552  0.6099 -0.6585 -0.1818
 5503TIP3    H138068   5.333   0.344   0.490  0.8637  0.4527  0.8914
 5503TIP3    H238069   5.344   0.231   0.590  0.9877  0.1295  0.5174
 5504TIP3   OH238070   3.397   5.730   1.618  0.0237  0.0113 -0.0164
 5504TIP3    H138071   3.414   5.656   1.677 -0.5760 -0.7001 -0.7185
 5504TIP3    H238072   3.302   5.738   1.616  0.0908  1.1332  0.4331
 5505TIP3   OH238073   1.760   0.978   0.789 -0.1227  0.5797  0.7545
 5505TIP3    H138074   1.666   0.995   0.789 -0.1393  0.6796 -0.8913
 5505TIP3    H238075   1.799   1.058   0.754  0.5373  0.3413  0.9250
 5506TIP3   OH238076   3.822   6.227   0.921 -0.1537 -0.2209  0.1994
 5506TIP3    H138077   3.756   6.193   0.982  2.4061 -1.3474  2.5919
 5506TIP3    H238078   3.826   6.162   0.851 -2.7263  0.7777 -0.9960
 5507TIP3   OH238079   0.803   2.996   7.139  0.1438  0.2604  0.0173
 5507TIP3    H138080   0.766   2.912   7.114 -0.2526  0.3168  0.3992
 5507TIP3    H238081   0.883   2.974   7.187  0.5317  0.1327 -0.6802
 5508TIP3   OH238082   5.716   5.634   8.709 -0.2363 -0.0054 -0.2103
 5508TIP3    H138083   5.625   5.650   8.737  0.0937 -0.3691  1.1626
 5508TIP3    H238084   5.742   5.716   8.667 -0.9002  0.4554  0.2434
 5509TIP3   OH238085   3.531   3.394   0.255 -0.0151  0.3201  0.3611
 5509TIP3    H138086   3.535   3.413   0.348  0.4915  2.5976 -0.0654
 5509TIP3    H238087   3.605   3.443   0.217  0.1250 -0.9847 -1.1716
 5510TIP3   OH238088   5.873   5.145   1.134 -0.3861 -0.6831  0.2071
 5510TIP3    H138089   5.848   5.198   1.210  2.8308 -0.0765  0.9671
 5510TIP3    H238090   5.868   5.206   1.060 -1.4076 -0.7024  0.2360
 5511TIP3   OH238091   4.511   0.191   8.333  0.1984  0.0391  0.4663
 5511TIP3    H138092   4.519   0.274   8.287  1.0560 -0.9467 -1.2937
 5511TIP3    H238093   4.598   0.174   8.368 -0.0727  0.0750  1.1582
 5512TIP3   OH238094   5.563   2.759   7.084 -0.0382  0.0667  0.1298
 5512TIP3    H138095   5.543   2.753   7.177 -0.0784  0.8302  0.1764
 5512TIP3    H238096   5.595   2.848   7.072 -1.1094  0.3451 -0.7898
 5513TIP3   OH238097   5.482   2.873   7.401  0.0121 -0.2638 -0.3301
 5513TIP3    H138098   5.416   2.885   7.333 -0.8436  0.7638  0.6421
 5513TIP3    H238099   5.535   2.953   7.397  0.2561 -0.4124 -0.1022
 5514TIP3   OH238100   4.655   6.374   6.773 -1.0890 -0.4229  0.1435
 5514TIP3    H138101   4.565   6.407   6.779 -1.0367 -0.2094 -0.2363
 5514TIP3    H238102   4.695   6.399   6.857 -1.5560 -1.0470  0.5609
 5515TIP3   OH238103   5.483   0.390   2.057  0.0603 -0.2870  0.5551
 5515TIP3    H138104   5.469   0.300   2.086 -0.8427 -0.6881 -0.9894
 5515TIP3    H238105   5.403   0.436   2.082 -0.6606 -0.6006 -1.0202
 5516TIP3   OH238106   5.952   2.051   8.090  0.2733 -0.7708  0.0568
 5516TIP3    H138107   5.970   1.988   8.160  1.1647 -0.1482  0.4038
 5516TIP3    H238108   6.009   2.025   8.018  1.8839  0.5810  0.7826
 5517TIP3   OH238109   3.036   5.639   7.506 -0.1576 -0.0965 -0.3937
 5517TIP3    H138110   3.124   5.624   7.541 -0.8886 -1.0694  1.1217
 5517TIP3    H238111   3.031   5.583   7.428 -0.0683 -1.5324  0.5987
 5518TIP3   OH238112   2.735   0.696   0.966 -0.2526 -0.0934  0.4885
 5518TIP3    H138113   2.689   0.652   0.894  0.4753  0.1420 -0.1325
 5518TIP3    H238114   2.758   0.624   1.025 -0.9925 -0.2715  0.5811
 5519TIP3   OH238115   2.796   6.182   1.695 -0.0328  0.7703 -0.2770
 5519TIP3    H138116   2.765   6.098   1.728  0.9000  0.8611  0.9237
 5519TIP3    H238117   2.887   6.166   1.670 -0.4331  0.9540 -1.9541
 5520TIP3   OH238118   1.238   0.147   8.410  0.2634 -0.0998  0.2725
 5520TIP3    H138119   1.261   0.141   8.317 -1.0465 -1.3707 -0.0058
 5520TIP3    H238120   1.254   0.060   8.445 -0.2884  0.0685  0.9867
 5521TIP3   OH238121   4.050   1.777   1.688 -0.5554  0.2515 -0.4002
 5521TIP3    H138122   4.056   1.736   1.601 -1.0208 -2.1025  0.6054
 5521TIP3    H238123   4.108   1.725   1.743  0.4677  2.2953  0.5724
 5522TIP3   OH238124   1.678   0.252   6.894  0.0299 -0.5635 -0.0306
 5522TIP3    H138125   1.702   0.324   6.835  0.9355  0.9215  2.0229
 5522TIP3    H238126   1.762   0.218   6.926 -0.4350 -1.1376  0.6119
 5523TIP3   OH238127   4.456   5.796   6.205 -0.0222 -0.1436 -0.1610
 5523TIP3    H138128   4.545   5.791   6.170  1.3912  0.4125  2.9507
 5523TIP3    H238129   4.413   5.863   6.152  1.7243  0.2346 -1.1898
 5524TIP3   OH238130   1.028   5.318   1.080 -0.2309 -0.2965 -0.2264
 5524TIP3    H138131   1.051   5.402   1.041 -0.6369  0.7791  1.7060
 5524TIP3    H238132   0.932   5.321   1.087 -0.2983 -1.1832 -0.6625
 5525TIP3   OH238133   3.463   4.827   7.705  0.2306  0.1136  0.2467
 5525TIP3    H138134   3.448   4.763   7.635 -0.2412 -0.2899  0.7133
 5525TIP3    H238135   3.557   4.822   7.722  0.4937  0.7882 -0.9048
 5526TIP3   OH238136   3.939   4.209   6.755 -0.6806  0.5111  0.2645
 5526TIP3    H138137   3.868   4.272   6.750 -0.9945  0.2468  1.1628
 5526TIP3    H238138   4.001   4.246   6.818  1.4656  2.1332 -2.5104
 5527TIP3   OH238139   2.115   4.649   0.400 -0.3206 -0.3444 -0.1953
 5527TIP3    H138140   2.047   4.592   0.364 -0.8657  0.8023 -1.0612
 5527TIP3    H238141   2.166   4.676   0.324 -1.7872  2.5188 -0.3103
 5528TIP3   OH238142   1.952   2.661   0.263 -0.1611  0.1092 -0.6518
 5528TIP3    H138143   1.937   2.569   0.240 -1.3618 -0.4424  2.0310
 5528TIP3    H238144   1.873   2.688   0.309  0.5048  2.2761 -0.6723
 5529TIP3   OH238145   2.137   3.897   6.212  0.0800  0.5117 -0.1132
 5529TIP3    H138146   2.141   3.813   6.257  2.3749  0.7526  0.2671
 5529TIP3    H238147   2.173   3.880   6.125  3.0531  1.4943  0.8000
 5530TIP3   OH238148   6.579   6.510   0.121 -0.1623  0.2466 -0.0317
 5530TIP3    H138149   6.617   6.597   0.111 -0.4625  0.6297  1.7194
 5530TIP3    H238150   6.520   6.500   0.046 -0.3742  1.6943 -0.0847
 5531TIP3   OH238151   0.233   5.813   1.803 -0.0830 -0.0653  0.3962
 5531TIP3    H138152   0.301   5.880   1.811  1.7497 -1.8491  0.6215
 5531TIP3    H238153   0.278   5.737   1.768 -2.1915 -1.0705 -0.3208
 5532TIP3   OH238154   0.247   1.377   1.590  0.5392 -0.4937  0.5072
 5532TIP3    H138155   0.186   1.342   1.525  1.3352  1.2333 -1.2637
 5532TIP3    H238156   0.314   1.309   1.598  2.0628  0.3852 -2.8701
 5533TIP3   OH238157   0.616   4.947   6.873  0.2376 -0.7651  0.2874
 5533TIP3    H138158   0.619   5.042   6.885 -1.9601 -0.4667 -0.9135
 5533TIP3    H238159   0.619   4.935   6.778 -0.9829 -1.7798  0.3538
 5534TIP3   OH238160   5.416   3.984   8.335 -0.0945  0.3404 -0.2700
 5534TIP3    H138161   5.362   3.957   8.261 -0.5837  0.2688  0.1074
 5534TIP3    H238162   5.430   3.904   8.386 -1.5664  0.7519  0.8612
 5535TIP3   OH238163   0.853   1.621   0.615  0.3135 -0.4544  0.1254
 5535TIP3    H138164   0.818   1.698   0.570  1.0627  0.1264  0.5062
 5535TIP3    H238165   0.946   1.641   0.628 -0.0406 -0.1315  2.8114
 5536TIP3   OH238166   2.175   3.532   0.813  0.5067 -0.3546 -0.0138
 5536TIP3    H138167   2.115   3.466   0.779 -0.3594  1.1339 -1.5716
 5536TIP3    H238168   2.256   3.519   0.763 -0.2132  0.7552 -1.5642
 5537TIP3   OH238169   0.510   6.689   7.081 -0.0695 -0.5300 -0.0577
 5537TIP3    H138170   0.474   6.602   7.062 -1.3314  0.0919 -0.5759
 5537TIP3    H238171   0.448   6.728   7.141 -1.2925  1.2227 -2.2911
 5538TIP3   OH238172   2.189   2.301   0.756  0.1619  0.1282  0.5134
 5538TIP3    H138173   2.248   2.363   0.799 -2.0372  1.1579  2.2359
 5538TIP3    H238174   2.119   2.356   0.721 -0.6406 -1.1834  0.0065
 5539TIP3   OH238175   1.343   2.301   7.439 -0.0205  0.3956  0.4888
 5539TIP3    H138176   1.398   2.284   7.363 -0.6545 -1.6502  0.4278
 5539TIP3    H238177   1.289   2.376   7.413 -1.5296 -1.3643 -1.8899
 5540TIP3   OH238178   4.283   2.974   7.866  0.1787  0.0164  0.3552
 5540TIP3    H138179   4.301   3.039   7.798  0.7938 -1.3170 -0.8167
 5540TIP3    H238180   4.273   3.025   7.946  3.8920  1.3721  0.1535
 5541TIP3   OH238181   3.108   2.265   1.353  0.4057 -0.2428 -0.3063
 5541TIP3    H138182   3.063   2.234   1.274 -0.7702  0.6721 -0.0166
 5541TIP3    H238183   3.063   2.222   1.425  1.5290 -1.1376 -0.1041
 5542TIP3   OH238184   1.085   4.632   1.314  0.4560  0.2527 -0.5579
 5542TIP3    H138185   1.069   4.678   1.231  1.5958 -0.2575 -1.0785
 5542TIP3    H238186   1.146   4.562   1.291  0.8396  0.1448  0.7304
 5543TIP3   OH238187   6.087   3.705   1.258 -0.3834 -0.5236 -0.0410
 5543TIP3    H138188   6.145   3.780   1.276 -1.8290  0.2340  1.7659
 5543TIP3    H238189   5.999   3.743   1.258 -1.2107 -2.2969  1.5494
 5544TIP3   OH238190   3.065   1.603   8.769 -0.1953  0.2427  0.0604
 5544TIP3    H138191   3.129   1.543   8.808 -2.8857 -2.8491  0.2455
 5544TIP3    H238192   3.071   1.683   8.821  2.4843 -0.4330  0.9361
 5545TIP3   OH238193   1.299   3.148   8.536  0.0132  0.4769 -0.0259
 5545TIP3    H138194   1.343   3.218   8.584 -0.9681  0.5821  0.7461
 5545TIP3    H238195   1.326   3.068   8.580  0.4617  0.4288 -0.3785
 5546TIP3   OH238196   1.866   1.317   7.793  0.2659 -0.0370  0.2353
 5546TIP3    H138197   1.826   1.404   7.808  0.3908 -0.4071  3.5319
 5546TIP3    H238198   1.903   1.322   7.705  0.8003  3.4900  0.5185
 5547TIP3   OH238199   5.986   0.084   1.504  0.2207  0.0797  0.3827
 5547TIP3    H138200   5.944   0.122   1.427 -1.4753 -0.6527  0.9106
 5547TIP3    H238201   6.038   0.156   1.541  0.7861  0.5302 -1.2218
 5548TIP3   OH238202   0.051   4.029   0.803  0.5029  0.3175 -0.0766
 5548TIP3    H138203   0.025   4.005   0.714  1.7541  1.6421 -0.8487
 5548TIP3    H238204  -0.013   4.096   0.829 -1.2651 -1.6534  0.9815
 5549TIP3   OH238205   3.361   0.722   6.911 -0.1222  0.3250 -0.2048
 5549TIP3    H138206   3.435   0.702   6.968  1.2710 -2.2810 -2.6671
 5549TIP3    H238207   3.402   0.755   6.830 -1.8290  1.1889 -0.7554
 5550TIP3   OH238208   0.902   0.727   6.962  0.1430 -0.1240  0.2244
 5550TIP3    H138209   0.866   0.708   6.875 -1.1095 -1.5406  1.0046
 5550TIP3    H238210   0.826   0.740   7.018  0.9273  0.4783  1.1863
 5551TIP3   OH238211   5.024   0.346   1.512  0.2542 -0.3677  0.6134
 5551TIP3    H138212   5.028   0.386   1.425 -1.5828  0.9064  1.0639
 5551TIP3    H238213   5.058   0.257   1.499  0.2423 -0.1293 -1.3466
 5552TIP3   OH238214   5.256   0.513   8.746 -0.2987  0.0910  0.2074
 5552TIP3    H138215   5.195   0.585   8.755 -0.5397 -0.0553 -0.2431
 5552TIP3    H238216   5.319   0.525   8.818 -1.0201  0.0737  0.8574
 5553TIP3   OH238217   5.094   1.104   0.795  0.2014  0.0461  0.1300
 5553TIP3    H138218   5.074   1.056   0.876  0.0437  2.3596  1.5325
 5553TIP3    H238219   5.161   1.167   0.820 -0.4045  1.3398 -1.3359
 5554TIP3   OH238220   6.666   3.332   0.245  0.0542  1.0088  0.1884
 5554TIP3    H138221   6.732   3.286   0.297  0.9811  2.3298  0.2341
 5554TIP3    H238222   6.597   3.354   0.307 -0.0969  0.2645  0.2928
 5555TIP3   OH238223   2.441   3.713   7.292  0.7817  0.3514  0.1415
 5555TIP3    H138224   2.365   3.718   7.234 -1.2860  2.0045  2.7884
 5555TIP3    H238225   2.470   3.803   7.302 -0.2660  0.4815  3.1472
 5556TIP3   OH238226   1.669   2.920   1.135  0.5548  0.0455 -0.0935
 5556TIP3    H138227   1.707   2.840   1.172 -1.3107 -1.0458 -0.3996
 5556TIP3    H238228   1.642   2.972   1.212 -1.7042 -1.4196  0.2227
 5557TIP3   OH238229   6.365   3.799   6.446  0.2314  0.4894 -0.0711
 5557TIP3    H138230   6.309   3.876   6.453 -0.4107 -0.0410  0.7725
 5557TIP3    H238231   6.454   3.835   6.437 -0.0978  1.3200 -0.1070
 5558TIP3   OH238232   4.734   3.049   8.553 -0.3623  0.4835 -0.2775
 5558TIP3    H138233   4.718   3.029   8.646 -1.0030  0.2409 -0.4360
 5558TIP3    H238234   4.666   3.112   8.530 -0.6066  0.0506 -0.7546
 5559TIP3   OH238235   2.985   1.050   6.881  0.0532  0.2704  0.2239
 5559TIP3    H138236   2.974   1.097   6.964  0.3142 -0.7337  0.8495
 5559TIP3    H238237   2.922   0.978   6.886 -1.1358  1.1401 -1.1967
 5560TIP3   OH238238   1.336   3.419   8.206 -0.5139 -0.0010 -0.3326
 5560TIP3    H138239   1.329   3.341   8.152 -0.0391 -0.1125 -0.2361
 5560TIP3    H238240   1.400   3.474   8.161 -2.3573  1.2716 -1.5378
 5561TIP3   OH238241   4.222   0.783   0.443  0.0917  1.2319 -0.2787
 5561TIP3    H138242   4.254   0.864   0.481  2.3863  0.5985 -0.7212
 5561TIP3    H238243   4.298   0.745   0.400 -1.1062 -0.7858 -0.7401
 5562TIP3   OH238244   0.712   2.975   1.551  0.1910 -0.1739 -0.7965
 5562TIP3    H138245   0.799   2.983   1.590 -0.0839  0.6015 -0.3195
 5562TIP3    H238246   0.657   2.939   1.621 -0.5053  2.0665 -0.1306
 5563TIP3   OH238247   0.445   4.173   1.011  0.0209 -0.1135  0.0746
 5563TIP3    H138248   0.391   4.175   1.090  0.9885  0.2278  0.7385
 5563TIP3    H238249   0.382   4.173   0.939 -0.8598  0.7485  0.8194
 5564TIP3   OH238250   2.560   4.102   1.562 -0.1566  0.5037  0.3542
 5564TIP3    H138251   2.495   4.064   1.622  1.3036 -0.5936  1.2860
 5564TIP3    H238252   2.605   4.168   1.614  0.2086  0.4912  0.0588
 5565TIP3   OH238253   4.275   4.167   6.022 -0.5246  0.6956  0.2236
 5565TIP3    H138254   4.200   4.124   5.981  0.4102 -0.5669 -0.2252
 5565TIP3    H238255   4.238   4.217   6.094 -1.8029  0.1817 -0.0616
 5566TIP3   OH238256   4.981   4.572   6.119 -0.2366  0.2438 -0.3300
 5566TIP3    H138257   4.943   4.530   6.042  0.5262  1.3833 -1.3461
 5566TIP3    H238258   4.942   4.659   6.121 -0.5951  0.0744  0.8520
 5567TIP3   OH238259   1.283   5.651   8.145 -0.3682  0.3524 -1.1217
 5567TIP3    H138260   1.250   5.657   8.056  2.5963  1.4214 -2.2885
 5567TIP3    H238261   1.328   5.566   8.148  0.1455  0.6293 -0.8918
 5568TIP3   OH238262   3.976   1.968   6.876 -0.2194  0.0098 -0.3015
 5568TIP3    H138263   3.920   1.892   6.865 -0.1881 -0.0459 -0.0749
 5568TIP3    H238264   4.000   1.968   6.969 -1.6088  1.2693  0.0979
 5569TIP3   OH238265   4.947   5.866   6.177 -0.9431 -0.3704 -0.2115
 5569TIP3    H138266   5.027   5.918   6.185  0.3888 -2.2589 -0.5358
 5569TIP3    H238267   4.876   5.926   6.199  0.6841  0.8811  1.9153
 5570TIP3   OH238268   2.018   6.631   6.240  0.0615 -0.6401 -0.3873
 5570TIP3    H138269   1.985   6.608   6.153  0.4468 -1.2415 -0.3811
 5570TIP3    H238270   2.093   6.573   6.253  0.5021  0.0082  0.0162
 5571TIP3   OH238271   2.057   3.387   6.599 -0.6474  0.0620 -0.1057
 5571TIP3    H138272   2.040   3.408   6.508 -0.1777 -0.1247 -0.2370
 5571TIP3    H238273   2.021   3.461   6.648 -2.0297 -0.4120 -0.3560
 5572TIP3   OH238274   4.644   6.051   8.320  0.2114  0.3019  0.1782
 5572TIP3    H138275   4.620   5.964   8.351  1.1477 -0.0406 -0.0294
 5572TIP3    H238276   4.595   6.063   8.239  1.8293 -1.0206 -1.0770
 5573TIP3   OH238277   0.210   2.758   7.589 -0.4715 -0.0405 -0.0998
 5573TIP3    H138278   0.303   2.740   7.577 -0.3539  0.3069  0.2291
 5573TIP3    H238279   0.165   2.707   7.522  0.0250  0.5415 -0.8949
 5574TIP3   OH238280   1.366   0.873   7.565 -0.2580  0.5335 -1.0110
 5574TIP3    H138281   1.294   0.814   7.541 -1.1587  1.9797 -2.0392
 5574TIP3    H238282   1.428   0.817   7.612 -1.2441 -1.1357 -1.5983
 5575TIP3   OH238283   0.628   5.842   8.129 -0.0206 -0.1168 -0.5408
 5575TIP3    H138284   0.629   5.910   8.061  3.0330  2.1825  1.5083
 5575TIP3    H238285   0.602   5.888   8.209  1.8887 -1.3209  0.8728
 5576TIP3   OH238286   2.787   4.440   0.231  0.4428  0.6466  0.8284
 5576TIP3    H138287   2.819   4.530   0.240 -1.9103  1.5640  0.7293
 5576TIP3    H238288   2.816   4.397   0.312 -1.9138  2.7392  3.0029
 5577TIP3   OH238289   5.266   1.716   7.255  0.2098 -0.5036 -0.1770
 5577TIP3    H138290   5.229   1.668   7.329 -0.9201  0.2416 -0.2393
 5577TIP3    H238291   5.224   1.677   7.178 -2.2232  1.7382 -0.1417
 5578TIP3   OH238292   6.190   1.728   7.662  0.3329  0.0401  0.5052
 5578TIP3    H138293   6.253   1.798   7.647 -0.5744  0.7946  0.0614
 5578TIP3    H238294   6.211   1.662   7.596 -0.4026  1.0696 -0.8231
 5579TIP3   OH238295   2.427   4.107   0.523  0.4610  0.5452  0.7550
 5579TIP3    H138296   2.409   4.183   0.467 -1.2557 -0.1768  0.2589
 5579TIP3    H238297   2.388   4.129   0.607  0.4673  0.4463  0.7839
 5580TIP3   OH238298   6.635   1.365   7.945  0.5718 -0.0485  0.0362
 5580TIP3    H138299   6.545   1.394   7.960  0.6057  1.0451 -1.5455
 5580TIP3    H238300   6.630   1.309   7.867  1.0705 -1.1527  0.7833
 5581TIP3   OH238301   2.570   5.101   0.146 -0.4212 -0.0476  0.3333
 5581TIP3    H138302   2.616   5.179   0.116  1.2941 -1.2127 -0.2349
 5581TIP3    H238303   2.552   5.117   0.238 -3.5101  2.5402 -0.5419
 5582TIP3   OH238304   0.732   1.649   7.070  0.2798 -0.2182 -0.8602
 5582TIP3    H138305   0.644   1.638   7.034 -0.7927 -0.9809  1.7398
 5582TIP3    H238306   0.741   1.743   7.084 -0.2803 -0.1840 -0.7435
 5583TIP3   OH238307   5.752   3.906   7.597 -0.2558 -0.6539 -0.4081
 5583TIP3    H138308   5.658   3.901   7.610 -0.2194 -2.0593 -0.6210
 5583TIP3    H238309   5.790   3.877   7.680  0.0301  1.0816  0.1217
 5584TIP3   OH238310   2.435   3.332   7.138 -0.2536 -0.3284 -0.0676
 5584TIP3    H138311   2.430   3.241   7.167  2.5764 -0.8074 -0.7489
 5584TIP3    H238312   2.372   3.379   7.192 -1.6246 -2.6320  0.4580
 5585TIP3   OH238313   3.105   0.743   0.124  0.0751 -0.0120  0.1110
 5585TIP3    H138314   3.077   0.833   0.142  0.3330  0.0182  0.3566
 5585TIP3    H238315   3.088   0.696   0.206 -2.0888 -0.6966 -0.6378
 5586TIP3   OH238316   5.392   4.998   0.016 -0.4868  0.5943  0.4232
 5586TIP3    H138317   5.321   4.962   0.069 -0.6861  0.6596  0.2011
 5586TIP3    H238318   5.348   5.053  -0.049 -0.2524  0.3919  0.0928
 5587TIP3   OH238319   6.724   6.211   1.066 -0.0669 -0.2164 -0.6034
 5587TIP3    H138320   6.657   6.222   0.997 -0.0401  0.5632 -0.5180
 5587TIP3    H238321   6.694   6.268   1.137 -1.6545 -3.1375  1.2813
 5588TIP3   OH238322   3.673   2.103   6.942  0.2024  0.5189  0.4810
 5588TIP3    H138323   3.736   2.168   6.913  0.1598  0.0058 -0.8088
 5588TIP3    H238324   3.588   2.137   6.915  0.3524 -1.2012 -2.6138
 5589TIP3   OH238325   1.832   5.905   8.825  0.0531 -0.4557  0.1508
 5589TIP3    H138326   1.827   5.963   8.900  1.0430  0.5605 -0.5469
 5589TIP3    H238327   1.800   5.957   8.752 -2.6751 -2.0076  0.1177
 5590TIP3   OH238328   2.970   6.042   0.483  0.3797  0.1436 -0.0546
 5590TIP3    H138329   2.887   6.089   0.475  0.6423  0.6289  0.0632
 5590TIP3    H238330   2.957   5.984   0.558  0.7465  1.4898  1.0903
 5591TIP3   OH238331   2.382   5.743   7.730 -0.3673 -0.1655 -0.1781
 5591TIP3    H138332   2.460   5.767   7.681 -0.3417 -0.8833 -0.5072
 5591TIP3    H238333   2.414   5.707   7.812 -0.3680 -0.0065 -0.1087
 5592TIP3   OH238334   5.493   4.703   6.162  0.4763  0.1311  0.3110
 5592TIP3    H138335   5.551   4.710   6.238  0.1873  2.2700  0.3820
 5592TIP3    H238336   5.415   4.752   6.186 -0.9519 -1.7276 -0.2412
 5593TIP3   OH238337   3.942   0.655   1.275 -0.0110 -0.3128 -0.2435
 5593TIP3    H138338   3.997   0.579   1.292  0.9405  0.4211  0.0319
 5593TIP3    H238339   3.897   0.671   1.359  0.0224 -0.3804 -0.2124
 5594TIP3   OH238340   4.099   2.131   1.116  0.1583 -0.2695 -0.5199
 5594TIP3    H138341   4.169   2.094   1.169  0.0380  0.2365  0.0070
 5594TIP3    H238342   4.038   2.168   1.180 -0.4001 -0.3707 -0.9844
 5595TIP3   OH238343   0.373   2.676   1.180  0.0103 -0.0313  0.2515
 5595TIP3    H138344   0.412   2.701   1.264 -1.1709 -0.7080  1.0205
 5595TIP3    H238345   0.314   2.748   1.158  1.2679  0.7778 -0.6947
 5596TIP3   OH238346   1.867   1.849   0.214  0.9880  0.7055  0.7839
 5596TIP3    H138347   1.910   1.935   0.215  0.0103  1.2024  0.3738
 5596TIP3    H238348   1.819   1.846   0.297 -2.0821  2.1821 -0.7831
 5597TIP3   OH238349   2.679   5.153   6.304 -0.3240  0.0311  0.4117
 5597TIP3    H138350   2.758   5.102   6.285  0.0171 -0.2537  2.3134
 5597TIP3    H238351   2.608   5.090   6.301 -0.6032  0.3969 -1.8757
 5598TIP3   OH238352   3.732   4.192   0.479 -0.6988  0.0691 -0.3383
 5598TIP3    H138353   3.664   4.228   0.422  0.3682  2.1249 -0.4347
 5598TIP3    H238354   3.811   4.193   0.425 -0.1300 -0.1126  0.4719
 5599TIP3   OH238355   1.614   3.310   7.684 -0.0453 -0.0822 -0.0987
 5599TIP3    H138356   1.621   3.382   7.622 -0.1807  0.2174  0.2255
 5599TIP3    H238357   1.588   3.352   7.766 -2.6742 -0.7725 -0.5045
 5600TIP3   OH238358   0.048   1.340   8.276 -0.0329  0.2467  0.0756
 5600TIP3    H138359   0.055   1.260   8.224 -0.9543 -0.2764  0.7425
 5600TIP3    H238360   0.134   1.347   8.319  0.2280 -0.1069 -0.3692
 5601TIP3   OH238361   3.155   2.909   7.783 -0.1012 -0.1702  0.1244
 5601TIP3    H138362   3.241   2.951   7.785 -0.0379 -0.3024  2.1328
 5601TIP3    H238363   3.132   2.905   7.690  0.6296  2.7512 -0.2672
 5602TIP3   OH238364   6.590   6.156   8.767 -0.3143 -0.1315 -0.6550
 5602TIP3    H138365   6.574   6.108   8.687 -1.0016 -0.7089 -0.1782
 5602TIP3    H238366   6.503   6.172   8.805 -0.2056  2.2263 -1.2032
 5603TIP3   OH238367   3.336   5.312   8.405  0.6634 -0.0054  0.0517
 5603TIP3    H138368   3.421   5.280   8.435 -0.3035 -2.2371  0.6305
 5603TIP3    H238369   3.280   5.234   8.406 -2.0292  1.7954  1.9314
 5604TIP3   OH238370   2.871   4.646   7.955 -0.0511  0.0520  0.0650
 5604TIP3    H138371   2.846   4.704   7.884  0.5340 -0.1321 -0.2956
 5604TIP3    H238372   2.911   4.704   8.020  0.5008  0.0671 -0.2789
 5605TIP3   OH238373   0.539   2.743   2.101 -0.2299 -0.4600  0.4674
 5605TIP3    H138374   0.451   2.714   2.125 -0.6839 -0.5349 -1.2171
 5605TIP3    H238375   0.573   2.675   2.044  2.2486 -2.0794  3.5325
 5606TIP3   OH238376   3.102   1.684   6.058  0.2842  0.1369 -0.2920
 5606TIP3    H138377   3.136   1.606   6.013  1.1004 -0.4498  1.2750
 5606TIP3    H238378   3.168   1.704   6.125 -0.0874  1.9690 -0.4134
 5607TIP3   OH238379   5.728   3.911   0.905  0.7370 -1.0221  0.2134
 5607TIP3    H138380   5.664   3.907   0.976 -1.2614  0.0895 -1.4029
 5607TIP3    H238381   5.728   3.822   0.869  0.0021 -1.0147  0.1731
 5608TIP3   OH238382   5.829   5.609   1.039 -0.8225 -0.3119  0.3884
 5608TIP3    H138383   5.874   5.678   1.088  0.8912 -1.4850  0.5479
 5608TIP3    H238384   5.736   5.623   1.058 -0.4772  1.5081  0.9695
 5609TIP3   OH238385   4.339   3.560   7.502 -0.6982 -0.4758  0.5311
 5609TIP3    H138386   4.426   3.595   7.523 -0.8877  0.4802 -0.2172
 5609TIP3    H238387   4.278   3.616   7.550 -1.0151  0.3636 -0.8055
 5610TIP3   OH238388   1.386   4.332   6.934 -0.5586  0.1798  0.6635
 5610TIP3    H138389   1.362   4.367   6.848  1.1749  0.2275  0.1747
 5610TIP3    H238390   1.304   4.333   6.984 -1.2690  1.6238 -0.4732
 5611TIP3   OH238391   4.032   3.241   7.852  0.2158  0.1050 -0.7795
 5611TIP3    H138392   4.108   3.282   7.894 -1.7876  4.5799 -0.8748
 5611TIP3    H238393   4.035   3.273   7.762  0.3725 -3.1699 -2.0643
 5612TIP3   OH238394   2.899   4.372   0.486 -0.1457  0.0876  0.0987
 5612TIP3    H138395   2.867   4.359   0.575 -0.0408 -1.4461 -0.0543
 5612TIP3    H238396   2.974   4.430   0.495  1.3603 -1.9085  1.3595
 5613TIP3   OH238397   6.699   3.041   0.690  0.3912 -0.0640 -0.0077
 5613TIP3    H138398   6.645   3.078   0.761  0.8394 -0.8020  0.7331
 5613TIP3    H238399   6.653   2.961   0.664 -0.5037  0.8993 -1.5175
 5614TIP3   OH238400   0.815   5.165   0.323 -0.0605  0.2290  0.4641
 5614TIP3    H138401   0.762   5.186   0.400 -0.6595  0.8312 -0.0954
 5614TIP3    H238402   0.864   5.245   0.306 -3.7697  2.1811 -2.8376
 5615TIP3   OH238403   6.327   4.720   7.324  0.5014 -0.3805  0.4333
 5615TIP3    H138404   6.241   4.759   7.339  0.2454 -1.0812  0.8074
 5615TIP3    H238405   6.387   4.795   7.321 -0.3009  0.2622 -1.3274
 5616TIP3   OH238406   0.224   5.964   7.848 -0.0461  0.1658  0.3041
 5616TIP3    H138407   0.206   5.882   7.894 -0.1349  0.6113  1.0755
 5616TIP3    H238408   0.142   5.985   7.804 -0.0455 -0.1163  0.1638
 5617TIP3   OH238409   0.205   3.510   1.548  0.1646  0.4159 -0.2231
 5617TIP3    H138410   0.189   3.575   1.480  2.9466  0.3457 -1.0483
 5617TIP3    H238411   0.178   3.553   1.629  1.3820  2.4151 -0.8157
 5618TIP3   OH238412   4.784   6.084   6.785 -0.2755  0.1137  0.6539
 5618TIP3    H138413   4.873   6.056   6.805  0.4654  1.3926 -0.7353
 5618TIP3    H238414   4.769   6.158   6.844  0.1626  0.8841 -0.1951
 5619TIP3   OH238415   5.876   3.707   7.492  0.2450  0.0501 -0.7556
 5619TIP3    H138416   5.815   3.634   7.485  0.1723 -0.1187  1.1049
 5619TIP3    H238417   5.824   3.780   7.524  0.9146 -0.0222  0.5936
 5620TIP3   OH238418   1.921   1.665   8.506  0.1739  0.3822  0.3738
 5620TIP3    H138419   2.009   1.679   8.470 -0.0051  0.3076 -0.0922
 5620TIP3    H238420   1.899   1.749   8.546 -0.8552  1.5082 -2.3455
 5621TIP3   OH238421   5.649   1.752   7.634 -0.0120 -0.3491  0.3086
 5621TIP3    H138422   5.645   1.845   7.611  1.0772 -0.6593 -1.2172
 5621TIP3    H238423   5.742   1.732   7.636 -0.2432 -1.4573  0.4592
 5622TIP3   OH238424   3.445   4.971   0.315 -0.3498 -0.2805  0.3025
 5622TIP3    H138425   3.446   4.980   0.220 -0.4126 -0.9188  0.2359
 5622TIP3    H238426   3.491   4.889   0.332 -0.6161 -0.3317  0.8037
 5623TIP3   OH238427   4.707   3.413   8.299 -0.1398  0.6355 -0.6272
 5623TIP3    H138428   4.734   3.405   8.207  1.4729 -0.8617 -0.0921
 5623TIP3    H238429   4.775   3.468   8.339 -1.1638  1.7900 -0.4271
 5624TIP3   OH238430   6.672   2.114   5.953 -0.2026  0.0767 -0.3014
 5624TIP3    H138431   6.728   2.186   5.923  0.1935 -0.8896 -2.0315
 5624TIP3    H238432   6.688   2.044   5.890 -1.0814 -1.2984  0.9518
 5625TIP3   OH238433   0.149   5.858   1.171  0.4311 -0.3846 -0.0956
 5625TIP3    H138434   0.240   5.871   1.195 -0.1451  0.2871  1.9164
 5625TIP3    H238435   0.135   5.763   1.181  1.0882 -0.6289 -1.2683
 5626TIP3   OH238436   1.858   5.650   7.293  0.2248 -0.2241 -0.5067
 5626TIP3    H138437   1.822   5.676   7.209  0.5633  0.5298 -0.4267
 5626TIP3    H238438   1.934   5.708   7.306 -0.6996  0.7191  1.0069
 5627TIP3   OH238439   5.820   0.341   0.408 -0.0910 -0.2313  0.2353
 5627TIP3    H138440   5.832   0.339   0.313 -2.1393 -2.0283 -0.0752
 5627TIP3    H238441   5.761   0.414   0.423  0.2714  0.0838  0.1269
 5628TIP3   OH238442   1.070   2.398   1.340 -0.3565  0.1013  0.0683
 5628TIP3    H138443   1.024   2.315   1.330  0.8335 -0.4122 -1.6035
 5628TIP3    H238444   1.046   2.428   1.427 -1.0604 -1.8380  0.6024
 5629TIP3   OH238445   5.257   0.154   8.829 -0.0510 -0.0580  0.1259
 5629TIP3    H138446   5.299   0.217   8.771 -1.8451  0.5097 -0.6419
 5629TIP3    H238447   5.275   0.187   8.917  1.7114 -0.2750 -0.1244
 5630TIP3   OH238448   6.417   1.673   7.165 -0.0287  0.3148 -0.0483
 5630TIP3    H138449   6.463   1.686   7.248  0.5999  0.2547 -0.3782
 5630TIP3    H238450   6.324   1.684   7.186  0.0299 -0.7666  0.8853
 5631TIP3   OH238451   5.803   1.512   7.793 -0.4173  0.0182  0.3933
 5631TIP3    H138452   5.862   1.471   7.855 -0.4206 -0.6451 -0.0331
 5631TIP3    H238453   5.717   1.508   7.835 -0.4295 -0.4765  0.3180
 5632TIP3   OH238454   5.543   4.749   0.966 -0.2222 -0.0923  0.5076
 5632TIP3    H138455   5.602   4.798   1.023 -0.0522  0.1750  0.1094
 5632TIP3    H238456   5.460   4.796   0.972 -0.2946 -0.2547  0.7863
 5633TIP3   OH238457   1.080   6.150   7.371 -0.6519  0.3191 -0.4763
 5633TIP3    H138458   1.042   6.183   7.453 -1.7833 -0.6257 -0.5915
 5633TIP3    H238459   1.027   6.074   7.349  0.2460 -0.0136 -1.5957
 5634TIP3   OH238460   0.848   4.891   7.251 -0.3277  0.8686  0.2785
 5634TIP3    H138461   0.809   4.973   7.284  0.5142  1.2736  0.2990
 5634TIP3    H238462   0.785   4.858   7.188 -0.1273  2.1768 -0.6362
 5635TIP3   OH238463   2.006   3.272   5.905  0.2105 -0.4006 -0.1395
 5635TIP3    H138464   1.928   3.325   5.891  0.2778 -0.7801 -2.4461
 5635TIP3    H238465   2.078   3.327   5.875  0.6985 -0.5502  0.7167
 5636TIP3   OH238466   3.407   4.165   8.587 -0.6871  0.4765  0.7859
 5636TIP3    H138467   3.376   4.248   8.623  1.2564  0.9593  1.4592
 5636TIP3    H238468   3.488   4.147   8.635  0.7655 -0.0526 -1.6919
 5637TIP3   OH238469   2.812   5.543   0.863 -0.2301 -0.1617  0.0119
 5637TIP3    H138470   2.725   5.577   0.842 -0.8029 -1.2662  0.5078
 5637TIP3    H238471   2.816   5.541   0.959  0.6929  0.7100  0.0139
 5638TIP3   OH238472   0.388   0.742   0.848 -0.4960  0.0162 -0.5504
 5638TIP3    H138473   0.477   0.713   0.830 -0.3159  0.1241  0.1625
 5638TIP3    H238474   0.398   0.824   0.896 -0.9788  0.0140 -0.4363
 5639TIP3   OH238475   3.049   2.659   6.395 -0.1906 -0.0337 -0.1441
 5639TIP3    H138476   3.038   2.580   6.343  0.6181  0.1202 -0.5751
 5639TIP3    H238477   3.070   2.728   6.332 -1.8319  0.7597  0.1229
 5640TIP3   OH238478   1.580   3.465   1.633 -0.2286  0.0234 -0.5263
 5640TIP3    H138479   1.570   3.371   1.617 -0.5520  0.0470 -0.4736
 5640TIP3    H238480   1.671   3.476   1.660 -0.7133 -0.5664  1.4934
 5641TIP3   OH238481   4.549   0.407   7.091 -0.7419  0.3417 -0.2858
 5641TIP3    H138482   4.552   0.381   7.183 -0.3678  0.6108 -0.2193
 5641TIP3    H238483   4.584   0.332   7.043  2.1835  1.3687  0.0486
 5642TIP3   OH238484   3.053   0.879   6.526 -0.7983  0.1140 -0.7420
 5642TIP3    H138485   3.001   0.957   6.505 -1.5379  0.4141  1.8103
 5642TIP3    H238486   3.135   0.914   6.562  0.1492 -0.3566 -2.3297
 5643TIP3   OH238487   6.443   6.087   5.963  0.3217 -0.4128 -0.2749
 5643TIP3    H138488   6.372   6.107   6.024 -0.4719 -0.4825 -1.1561
 5643TIP3    H238489   6.480   6.173   5.941  0.5031 -0.3743  0.1666
 5644TIP3   OH238490   0.053   0.082   6.929 -0.1707  0.5957  0.2261
 5644TIP3    H138491   0.040   0.075   7.023 -3.5036  2.6407  0.0651
 5644TIP3    H238492   0.063   0.176   6.913 -1.8697  0.5237 -1.6403
 5645TIP3   OH238493   3.680   3.998   7.816  0.6941 -0.2000 -0.8048
 5645TIP3    H138494   3.730   4.070   7.777 -0.4328  0.1740 -1.6097
 5645TIP3    H238495   3.592   4.008   7.780  1.0735 -3.5592 -3.1661
 5646TIP3   OH238496   3.610   3.783   1.172  0.8442  0.6875  0.0130
 5646TIP3    H138497   3.679   3.812   1.232  1.1863 -2.0575  1.0618
 5646TIP3    H238498   3.566   3.712   1.218 -2.3163  1.8648 -0.9244
 5647TIP3   OH238499   0.048   0.237   7.556  0.4786 -0.8806  0.2396
 5647TIP3    H138500   0.142   0.233   7.540  0.5580 -0.0621  0.4723
 5647TIP3    H238501   0.027   0.153   7.597  1.1020 -1.0738  0.1731
 5648TIP3   OH238502   0.700   4.773   0.529 -0.6108  0.3429 -0.5896
 5648TIP3    H138503   0.661   4.796   0.445 -0.7151 -2.0788 -1.2515
 5648TIP3    H238504   0.629   4.787   0.592 -0.9675  0.8382 -1.0865
 5649TIP3   OH238505   3.322   0.520   8.703  0.0821 -0.5687  0.4550
 5649TIP3    H138506   3.301   0.613   8.691 -1.6536 -0.5177  3.0127
 5649TIP3    H238507   3.387   0.520   8.774 -1.0649 -1.3339  1.5357
 5650TIP3   OH238508   4.611   3.131   6.767  0.1185 -0.1581  0.2845
 5650TIP3    H138509   4.665   3.209   6.756  0.5926 -0.5552 -0.2407
 5650TIP3    H238510   4.670   3.058   6.748 -0.8503 -0.5618 -1.2936
 5651TIP3   OH238511   1.293   4.726   1.131  0.2185 -0.8106  0.8139
 5651TIP3    H138512   1.336   4.808   1.154  1.0696 -1.2978  1.0273
 5651TIP3    H238513   1.246   4.745   1.050  1.9282 -0.5845 -0.1767
 5652TIP3   OH238514   5.353   3.561   7.628 -0.1712  0.4088  0.2868
 5652TIP3    H138515   5.341   3.630   7.563 -1.1939 -0.0004  0.0239
 5652TIP3    H238516   5.342   3.606   7.712  1.5650  1.0187  0.2259
 5653TIP3   OH238517   5.930   5.686   8.254 -0.1577 -0.0967  0.3692
 5653TIP3    H138518   5.851   5.671   8.305  1.0277 -1.4702  1.9082
 5653TIP3    H238519   5.997   5.633   8.297  1.0102 -1.0675 -2.4028
 5654TIP3   OH238520   1.993   1.466   6.101 -0.0979  0.0373  1.0193
 5654TIP3    H138521   1.959   1.555   6.094  1.5652  0.6055 -0.4331
 5654TIP3    H238522   1.933   1.413   6.049  1.4011  1.1195 -2.0279
 5655TIP3   OH238523   5.748   4.360   0.089 -0.2649 -0.1839  0.2412
 5655TIP3    H138524   5.838   4.332   0.104 -0.2169  0.6782  1.7922
 5655TIP3    H238525   5.695   4.305   0.148 -0.5867  0.2924  0.4039
 5656TIP3   OH238526   5.204   2.206   6.332  0.4534 -0.1196  0.3376
 5656TIP3    H138527   5.168   2.284   6.288  1.2960 -0.9855 -2.0405
 5656TIP3    H238528   5.135   2.178   6.391  0.2956  2.6723  1.6586
 5657TIP3   OH238529   0.889   2.214   1.514  0.9929  0.2414  0.1537
 5657TIP3    H138530   0.812   2.157   1.516  1.7216 -0.7860 -0.3553
 5657TIP3    H238531   0.854   2.302   1.526 -0.0557 -0.3930  2.2300
 5658TIP3   OH238532   5.501   5.834   8.206  0.3490  0.6755 -0.2658
 5658TIP3    H138533   5.425   5.813   8.152 -0.3463 -0.0339  0.9352
 5658TIP3    H238534   5.547   5.902   8.157 -1.5721  1.8199 -0.5776
 5659TIP3   OH238535   0.353   0.201   0.794 -0.2893 -0.1438 -0.1126
 5659TIP3    H138536   0.412   0.259   0.841  0.6132  0.9495 -2.4471
 5659TIP3    H238537   0.281   0.258   0.766 -0.0480 -0.3916 -1.3070
 5660TIP3   OH238538   2.106   6.022   7.523  0.0175  0.2849 -0.1340
 5660TIP3    H138539   2.055   6.026   7.605 -0.7756  0.1033 -0.6047
 5660TIP3    H238540   2.095   6.108   7.484  1.5732  0.8590  0.6175
 5661TIP3   OH238541   0.817   2.959   0.026  0.4343 -0.2235  0.1419
 5661TIP3    H138542   0.724   2.961   0.048  0.2825  0.5698 -0.5485
 5661TIP3    H238543   0.838   3.048  -0.002  0.7460 -1.0118 -2.3260
 5662TIP3   OH238544   3.011   6.615   1.326 -0.1211  0.4276 -0.9995
 5662TIP3    H138545   2.941   6.626   1.391  0.0655 -0.6301 -0.6023
 5662TIP3    H238546   3.092   6.626   1.376  0.0131  0.1924 -1.1664
 5663TIP3   OH238547   4.927   6.107   7.298 -0.0702 -0.0498 -0.0392
 5663TIP3    H138548   4.957   6.150   7.378 -0.6028 -0.4149  0.3686
 5663TIP3    H238549   4.979   6.027   7.293 -0.6578 -0.4746  0.4412
 5664TIP3   OH238550   1.755   4.059   6.782 -0.1990 -0.3867 -0.3654
 5664TIP3    H138551   1.724   4.150   6.787  0.2057 -0.2117 -0.8617
 5664TIP3    H238552   1.677   4.006   6.799 -0.1958  0.0487  1.1847
 5665TIP3   OH238553   2.961   4.785   0.508 -0.0293 -0.1242  0.2612
 5665TIP3    H138554   2.932   4.873   0.532 -0.1560  0.5332 -2.0066
 5665TIP3    H238555   2.956   4.734   0.588 -1.7742  1.4710  1.2158
 5666TIP3   OH238556   1.733   5.419   0.941 -0.1641 -0.1430  0.0940
 5666TIP3    H138557   1.742   5.326   0.920 -1.3524 -0.3847  0.5682
 5666TIP3    H238558   1.815   5.459   0.910  0.5775 -1.4215  0.3394
 5667TIP3   OH238559   1.762   6.764   1.145  0.1316 -0.3642  0.2646
 5667TIP3    H138560   1.671   6.773   1.174 -0.2534 -1.6404 -0.4609
 5667TIP3    H238561   1.813   6.770   1.225 -0.5774  0.4261  0.6766
 5668TIP3   OH238562   3.152   0.467   7.188 -0.3440 -0.0127 -0.2714
 5668TIP3    H138563   3.077   0.487   7.244 -0.1108  0.2706 -0.0542
 5668TIP3    H238564   3.209   0.543   7.197  0.0137 -0.2688 -0.3621
 5669TIP3   OH238565   5.738   5.711   7.053 -0.0733  0.5720  0.1531
 5669TIP3    H138566   5.657   5.661   7.045 -0.5063  0.9066  1.9791
 5669TIP3    H238567   5.709   5.799   7.079  0.7852  1.2078 -0.9598
 5670TIP3   OH238568   4.944   5.665   0.500  0.3306  0.8817  0.2316
 5670TIP3    H138569   4.920   5.603   0.568  1.8353 -0.8006 -0.6690
 5670TIP3    H238570   4.973   5.743   0.547 -2.9035  1.5351  1.3763
 5671TIP3   OH238571   2.267   5.544   6.351  0.0724  0.4010 -0.2509
 5671TIP3    H138572   2.362   5.539   6.341  0.2938  0.3643  1.5836
 5671TIP3    H238573   2.237   5.456   6.327  0.5510  0.2316 -0.2487
 5672TIP3   OH238574   2.161   2.245   1.546 -0.3946 -0.1865  0.5948
 5672TIP3    H138575   2.072   2.250   1.511 -0.2537 -1.6750 -0.0677
 5672TIP3    H238576   2.160   2.170   1.604  0.5792 -0.6313  0.0679
 5673TIP3   OH238577   0.119   6.740   0.553 -0.6512  0.2651  0.7501
 5673TIP3    H138578   0.049   6.770   0.610 -1.1752 -0.9970  0.8091
 5673TIP3    H238579   0.127   6.647   0.572 -0.1294  0.0358 -0.4808
 5674TIP3   OH238580   2.553   3.817   0.056 -0.0915  0.4151  0.9503
 5674TIP3    H138581   2.591   3.822  -0.032 -0.1972 -0.6213  0.8351
 5674TIP3    H238582   2.531   3.907   0.078 -0.1509  0.6696 -0.1220
 5675TIP3   OH238583   5.651   0.116   6.680 -0.4848  0.2458 -0.4854
 5675TIP3    H138584   5.576   0.176   6.680 -1.0923 -0.4889 -1.2357
 5675TIP3    H238585   5.686   0.122   6.769 -0.1832  2.1128 -0.6791
 5676TIP3   OH238586   3.182   2.244   8.800 -0.3498  0.4082  0.6012
 5676TIP3    H138587   3.168   2.193   8.720  0.3945 -2.0082  1.9140
 5676TIP3    H238588   3.244   2.312   8.775  0.1950 -0.5620 -0.7855
 5677TIP3   OH238589   1.386   0.112   8.809  0.0790  0.2990 -0.2935
 5677TIP3    H138590   1.478   0.106   8.835 -0.3717  0.0179  1.2887
 5677TIP3    H238591   1.351   0.024   8.824 -0.9229  0.8982  1.0582
 5678TIP3   OH238592   0.561   1.116   6.351  0.0757  0.2405 -0.3370
 5678TIP3    H138593   0.528   1.029   6.329  1.8052 -0.5481 -0.0205
 5678TIP3    H238594   0.650   1.101   6.383  0.1428  2.0531  0.5095
 5679TIP3   OH238595   0.737   3.743   6.904 -0.3911  0.1512  0.8607
 5679TIP3    H138596   0.747   3.650   6.884  0.6771  0.6371 -1.0826
 5679TIP3    H238597   0.800   3.760   6.974  0.6241 -0.2611  0.0720
 5680TIP3   OH238598   1.689   6.493   1.002 -0.5130  0.6038 -0.1138
 5680TIP3    H138599   1.712   6.534   1.086  1.1502  0.4923 -0.4718
 5680TIP3    H238600   1.774   6.476   0.960 -1.2556 -0.8207 -1.1209
 5681TIP3   OH238601   5.101   6.701   0.739  0.2360 -0.1833 -0.0376
 5681TIP3    H138602   5.094   6.701   0.834 -0.8873  0.6783 -0.1073
 5681TIP3    H238603   5.011   6.703   0.708  0.6046  0.1238 -1.1231
 5682TIP3   OH238604   4.066   3.898   8.418  0.3262 -0.0663  0.4294
 5682TIP3    H138605   3.997   3.946   8.463  1.5979  0.7425  1.5950
 5682TIP3    H238606   4.060   3.809   8.452 -0.2985 -0.0668  0.3281
 5683TIP3   OH238607   0.576   3.207   8.484  0.3382  0.0735  0.0297
 5683TIP3    H138608   0.567   3.114   8.506  1.4798 -0.2845 -0.9264
 5683TIP3    H238609   0.545   3.253   8.562  0.3542 -1.1150  0.7620
 5684TIP3   OH238610   1.713   2.443   0.730  0.3245  0.4157  0.1394
 5684TIP3    H138611   1.752   2.527   0.705  0.2635 -0.0389 -1.5913
 5684TIP3    H238612   1.620   2.463   0.744  0.1432  0.5131 -1.0821
 5685TIP3   OH238613   2.637   6.777   8.258  0.1027 -0.2890 -0.1953
 5685TIP3    H138614   2.620   6.819   8.342  3.0844  4.1305 -1.4597
 5685TIP3    H238615   2.709   6.716   8.275 -0.5766 -0.8623  0.7103
 5686TIP3   OH238616   0.697   1.895   7.169 -0.1438 -0.0364  0.0234
 5686TIP3    H138617   0.765   1.922   7.231  0.1668 -1.6853  0.4562
 5686TIP3    H238618   0.668   1.976   7.128 -0.5019  1.1658  2.4792
 5687TIP3   OH238619   3.697   4.603   7.499  0.0641  0.9687  0.1872
 5687TIP3    H138620   3.769   4.555   7.540  0.4040 -0.1492 -1.5991
 5687TIP3    H238621   3.619   4.550   7.518  0.5737 -0.9811 -2.6085
 5688TIP3   OH238622   2.670   4.822   8.795 -1.0336  0.2582 -0.2170
 5688TIP3    H138623   2.607   4.773   8.743 -0.1111  2.8078 -4.2425
 5688TIP3    H238624   2.755   4.804   8.754  0.1968  0.7397  1.9099
 5689TIP3   OH238625   3.267   0.098   8.805 -0.1983  0.4402 -0.1304
 5689TIP3    H138626   3.315   0.150   8.741  2.7104 -0.3609  1.2159
 5689TIP3    H238627   3.328   0.087   8.877 -3.0245  0.6283  2.5120
 5690TIP3   OH238628   2.728   6.022   8.467 -1.0222  0.2345  0.0716
 5690TIP3    H138629   2.710   5.950   8.528  0.0138  0.2013  0.3626
 5690TIP3    H238630   2.749   6.096   8.523  0.2501  0.1187 -0.2226
 5691TIP3   OH238631   3.420   4.349   6.932  0.4236 -0.1258  0.2440
 5691TIP3    H138632   3.401   4.442   6.923  4.0412  0.5361 -2.7195
 5691TIP3    H238633   3.344   4.305   6.893  0.0595  1.7327 -1.2951
 5692TIP3   OH238634   5.075   0.460   7.551 -0.0221  0.1753  0.5636
 5692TIP3    H138635   5.135   0.533   7.543 -0.5960  0.5776 -0.1050
 5692TIP3    H238636   5.036   0.450   7.465 -1.9265  0.7974  1.3120
 5693TIP3   OH238637   0.171   4.799   8.407 -0.0469  1.1152 -0.7885
 5693TIP3    H138638   0.231   4.760   8.471  0.3708  0.7942 -1.3639
 5693TIP3    H238639   0.084   4.786   8.445  0.2048  1.0666 -0.2157
 5694TIP3   OH238640   4.911   2.501   7.703 -0.2747  0.0240  0.1313
 5694TIP3    H138641   4.927   2.458   7.619 -0.6275 -3.4843  1.6945
 5694TIP3    H238642   4.986   2.559   7.715 -0.0358  0.3328 -2.4041
 5695TIP3   OH238643   0.864   4.394   1.524  0.4246 -0.2659 -0.3670
 5695TIP3    H138644   0.783   4.352   1.554 -0.2181  0.4763 -1.0049
 5695TIP3    H238645   0.870   4.370   1.431  0.4541  0.4287 -0.5451
 5696TIP3   OH238646   2.183   5.804   7.137 -0.2914 -0.0589  0.1707
 5696TIP3    H138647   2.149   5.893   7.126 -1.6221 -0.6493 -0.8365
 5696TIP3    H238648   2.156   5.778   7.224  0.3575  0.6062  0.5867
 5697TIP3   OH238649   0.990   5.042   7.976 -0.0203  0.3292  0.0851
 5697TIP3    H138650   0.948   4.970   8.021  0.0048  0.7613  0.8088
 5697TIP3    H238651   1.073   5.054   8.022  3.0296 -3.2117 -3.7345
 5698TIP3   OH238652   4.870   2.357   8.699  0.6208  0.4800  0.3109
 5698TIP3    H138653   4.963   2.336   8.699  0.1015 -2.4511 -2.3671
 5698TIP3    H238654   4.858   2.413   8.621 -0.2406 -1.8955 -1.3679
 5699TIP3   OH238655   1.136   5.636   0.240 -0.6492 -0.0368 -0.4237
 5699TIP3    H138656   1.062   5.587   0.275 -0.7006  0.0719 -0.3777
 5699TIP3    H238657   1.158   5.699   0.309 -0.3007 -0.2891 -0.3033
 5700TIP3   OH238658   4.043   3.393   1.412 -0.1455 -0.2833 -0.7262
 5700TIP3    H138659   3.966   3.337   1.402 -0.6087  0.3029 -0.5316
 5700TIP3    H238660   4.085   3.361   1.492  0.5131 -1.4104 -1.5025
 5701TIP3   OH238661   0.599   1.823   7.494  1.0569  0.7180 -0.2920
 5701TIP3    H138662   0.539   1.837   7.567  0.5607 -0.4748 -0.4620
 5701TIP3    H238663   0.674   1.778   7.532 -0.2479 -2.1635 -0.8715
 5702TIP3   OH238664   1.927   4.435   7.450  0.4023 -0.9534  0.3413
 5702TIP3    H138665   1.858   4.419   7.386  0.3439 -2.4115  0.7302
 5702TIP3    H238666   1.928   4.356   7.504  1.2432 -0.2456  1.3997
 5703TIP3   OH238667   5.334   5.767   6.312 -0.0224  0.0197  0.2519
 5703TIP3    H138668   5.322   5.858   6.285 -0.4693 -0.2396 -0.4281
 5703TIP3    H238669   5.327   5.771   6.408  1.3042  0.8932  0.3339
 5704TIP3   OH238670   1.044   5.786   8.283 -0.2109 -0.0092  0.2004
 5704TIP3    H138671   1.101   5.752   8.214 -1.4095  0.1552 -0.9021
 5704TIP3    H238672   1.093   5.770   8.364  1.0142 -0.6500 -0.6295
 5705TIP3   OH238673   4.165   0.353   0.974 -0.0350 -0.1779 -0.6184
 5705TIP3    H138674   4.114   0.319   0.901 -0.1147 -0.5224 -0.4054
 5705TIP3    H238675   4.179   0.277   1.031  0.6644 -0.0701 -0.6470
 5706TIP3   OH238676   1.922   5.732   6.781  0.1862 -0.7231 -0.2256
 5706TIP3    H138677   1.920   5.818   6.738  0.0276 -0.4625  0.3007
 5706TIP3    H238678   2.012   5.702   6.769  0.0724 -0.7955 -1.0092
 5707TIP3   OH238679   2.517   4.769   7.226 -0.0426 -0.3443  0.7110
 5707TIP3    H138680   2.443   4.826   7.245 -0.9957 -1.6209  0.9362
 5707TIP3    H238681   2.490   4.683   7.256  2.2266 -0.5479  2.5196
 5708TIP3   OH238682   6.725   1.867   6.784 -0.1764 -0.0819 -0.5416
 5708TIP3    H138683   6.815   1.844   6.811  0.3113  1.0013 -1.1804
 5708TIP3    H238684   6.687   1.906   6.862 -0.3721 -1.2255 -0.0336
 5709TIP3   OH238685   4.489   4.678   6.392  0.3916  0.0593  0.0108
 5709TIP3    H138686   4.425   4.686   6.321  0.5348  1.0146 -0.0131
 5709TIP3    H238687   4.561   4.735   6.366  0.9465 -0.4543  0.3865
 5710TIP3   OH238688   4.229   6.747   1.963  0.2522  0.3528  1.0928
 5710TIP3    H138689   4.241   6.653   1.976 -0.7743 -0.1842 -1.1956
 5710TIP3    H238690   4.212   6.782   2.050  4.0536 -0.9614  2.5317
 5711TIP3   OH238691   6.645   6.246   8.347  1.1750  0.4703  0.4269
 5711TIP3    H138692   6.598   6.279   8.270  2.1213  0.7746 -0.0456
 5711TIP3    H238693   6.605   6.292   8.421 -0.0316 -0.1430  0.1694
 5712TIP3   OH238694   2.533   0.202   0.094 -0.1293 -0.1423  0.7819
 5712TIP3    H138695   2.447   0.168   0.069 -0.7274  0.3353  2.1036
 5712TIP3    H238696   2.591   0.177   0.022 -1.4950  0.0660 -0.4206
 5713TIP3   OH238697   6.764   4.348   0.103 -0.3292  0.0646 -0.2889
 5713TIP3    H138698   6.770   4.407   0.028  0.3015  0.4354  0.0538
 5713TIP3    H238699   6.669   4.334   0.114 -0.6840  3.0079  1.1771
 5714TIP3   OH238700   3.321   1.089   7.057  0.0234  0.1167  0.2304
 5714TIP3    H138701   3.415   1.084   7.039  0.1260  0.1883  0.7185
 5714TIP3    H238702   3.280   1.046   6.982  0.4284  0.3687 -0.1454
 5715TIP3   OH238703   4.871   1.640   7.407  0.7591  1.1447 -0.1696
 5715TIP3    H138704   4.944   1.579   7.418 -0.3912  0.0278  1.8512
 5715TIP3    H238705   4.825   1.608   7.328  0.9035  0.1514  0.1282
 5716TIP3   OH238706   2.100   1.885   0.632 -0.2164 -0.1653  0.1378
 5716TIP3    H138707   2.071   1.861   0.720 -1.2518 -1.3868 -0.4929
 5716TIP3    H238708   2.019   1.890   0.581  0.1578  2.6521 -0.3095
 5717TIP3   OH238709   1.069   4.543   6.795 -0.1163  0.1685 -0.5726
 5717TIP3    H138710   0.991   4.488   6.806  0.0075 -0.4303 -2.4256
 5717TIP3    H238711   1.088   4.540   6.702  1.2987  1.4811 -0.3651
 5718TIP3   OH238712   1.935   2.389   7.909  0.0266 -0.6102 -0.0006
 5718TIP3    H138713   1.860   2.336   7.938 -0.4578 -0.8210 -1.5840
 5718TIP3    H238714   1.949   2.451   7.981 -1.8250 -0.4032  0.2238
 5719TIP3   OH238715   1.336   3.987   6.974 -0.3202 -0.6015  0.8356
 5719TIP3    H138716   1.259   3.940   7.006 -1.2673  0.8839  0.8449
 5719TIP3    H238717   1.354   4.052   7.042  0.1368 -0.0749  0.2247
 5720TIP3   OH238718   4.191   3.273   0.747  0.0157  0.2091  0.1614
 5720TIP3    H138719   4.156   3.261   0.659  0.9633 -3.0526  0.1112
 5720TIP3    H238720   4.114   3.293   0.801 -0.6727  1.5188 -1.2219
 5721TIP3   OH238721   6.511   2.893   8.363  0.5007  0.4147 -0.2005
 5721TIP3    H138722   6.535   2.963   8.303  1.6212 -1.1932 -1.7326
 5721TIP3    H238723   6.424   2.865   8.336  0.4451  0.5895 -0.1986
 5722TIP3   OH238724   0.107   1.464   0.429 -0.1891 -0.1253  0.2977
 5722TIP3    H138725   0.150   1.514   0.360  0.0955  1.3468  1.4914
 5722TIP3    H238726   0.166   1.471   0.504 -0.9102 -0.9481  0.9745
 5723TIP3   OH238727   2.050   0.458   6.722  0.1705 -0.1347 -0.2120
 5723TIP3    H138728   2.094   0.382   6.684 -1.1977 -0.6345 -0.8649
 5723TIP3    H238729   2.023   0.511   6.646 -1.3004 -0.4031  0.0895
 5724TIP3   OH238730   2.922   2.164   1.164 -0.1555  0.5267 -0.6428
 5724TIP3    H138731   2.844   2.216   1.185 -1.0601 -0.1562 -2.1993
 5724TIP3    H238732   2.891   2.074   1.163  0.6175  0.2595 -1.4003
 5725TIP3   OH238733   6.550   0.504   0.575  0.4130 -0.2187 -0.2662
 5725TIP3    H138734   6.466   0.466   0.599  0.8759 -0.9417  0.2338
 5725TIP3    H238735   6.583   0.449   0.504  0.5523 -0.0410 -0.3414
 5726TIP3   OH238736   5.198   4.973   7.735  0.4735  0.2468 -0.5105
 5726TIP3    H138737   5.192   4.910   7.806 -0.8264 -0.3196 -1.0898
 5726TIP3    H238738   5.255   5.043   7.769  0.5686 -0.4188  0.7441
 5727TIP3   OH238739   2.179   3.320   1.366 -0.9077  0.2381 -0.2614
 5727TIP3    H138740   2.164   3.312   1.272 -1.8717  2.0573 -0.2922
 5727TIP3    H238741   2.095   3.346   1.402 -1.4392 -3.3184  1.6061
 5728TIP3   OH238742   3.112   5.914   7.323 -0.1550 -0.0270 -0.3051
 5728TIP3    H138743   3.026   5.931   7.283 -0.5676  0.3260  0.6959
 5728TIP3    H238744   3.116   5.819   7.329 -0.6493 -0.0363 -0.0152
 5729TIP3   OH238745   0.082   5.463   7.461 -0.4248  0.4386  0.2026
 5729TIP3    H138746   0.027   5.538   7.482 -2.7273 -0.9609 -0.4678
 5729TIP3    H238747   0.138   5.452   7.538 -2.3132  0.9080  1.7192
 5730TIP3   OH238748   1.426   1.948   7.352 -0.2342  0.0377 -0.0293
 5730TIP3    H138749   1.365   1.992   7.410 -1.2319  0.5702 -1.4399
 5730TIP3    H238750   1.449   1.867   7.398 -0.1433  0.9407  1.5661
 5731TIP3   OH238751   1.709   6.471   6.089  0.3886  0.1570  0.7157
 5731TIP3    H138752   1.787   6.510   6.051  0.5183  0.2693  1.1041
 5731TIP3    H238753   1.700   6.512   6.175 -0.7129  0.9592  0.2399
 5732TIP3   OH238754   5.973   0.374   6.782  0.2454  0.0088 -0.4450
 5732TIP3    H138755   5.893   0.360   6.832 -0.0780 -0.8204 -1.1599
 5732TIP3    H238756   6.040   0.391   6.848  0.2152 -2.8108  0.4518
 5733TIP3   OH238757   6.270   3.396   8.429 -0.3972  0.8550  0.3044
 5733TIP3    H138758   6.233   3.341   8.499 -0.1899 -0.6398 -0.7217
 5733TIP3    H238759   6.364   3.396   8.446 -0.2467 -0.2111 -0.4183
 5734TIP3   OH238760   3.268   0.556   1.625  0.5888 -0.3173 -0.4457
 5734TIP3    H138761   3.206   0.549   1.698  0.1590  1.0806 -0.6355
 5734TIP3    H238762   3.321   0.477   1.630  1.2672  0.1936  2.0464
 5735TIP3   OH238763   3.035   0.883   6.195  0.3850 -0.0174 -0.1213
 5735TIP3    H138764   3.008   0.955   6.253  1.1881  1.3543 -1.3746
 5735TIP3    H238765   3.131   0.888   6.194  0.5200 -1.7335  0.4822
 5736TIP3   OH238766   1.840   6.480   6.612  0.0412 -0.3219  0.1965
 5736TIP3    H138767   1.894   6.401   6.609 -0.0622 -0.3671 -0.6577
 5736TIP3    H238768   1.882   6.534   6.680 -0.3713 -1.4344  1.3906
 5737TIP3   OH238769   0.498   1.522   6.585  0.6423  0.2114  0.1081
 5737TIP3    H138770   0.554   1.453   6.620  1.8626  0.5408 -1.1044
 5737TIP3    H238771   0.498   1.507   6.491 -2.0187 -0.2642  0.1065
 5738TIP3   OH238772   4.978   0.189   8.727 -0.0861 -0.0534  0.2088
 5738TIP3    H138773   5.051   0.215   8.671 -0.1041  0.5491  0.4592
 5738TIP3    H238774   4.942   0.112   8.684 -0.0998  0.3994 -0.6135
 5739TIP3   OH238775   4.592   1.118   8.375  1.0217 -0.7830 -0.2475
 5739TIP3    H138776   4.614   1.096   8.285  0.9491  1.9770 -1.0047
 5739TIP3    H238777   4.662   1.175   8.405 -0.0887  0.1737  0.6470
 5740TIP3   OH238778   1.869   4.733   0.585 -0.4012 -0.3802 -0.0554
 5740TIP3    H138779   1.795   4.750   0.526 -1.5754  1.1376  1.7484
 5740TIP3    H238780   1.946   4.745   0.529 -1.4681  0.1244 -1.5051
 5741TIP3   OH238781   3.584   5.202   8.523 -0.4012 -0.1417  0.5423
 5741TIP3    H138782   3.615   5.159   8.603  0.0739  0.5190  0.7154
 5741TIP3    H238783   3.635   5.162   8.453  1.4772  1.4710  0.8944
 5742TIP3   OH238784   5.929   0.017   8.245 -0.2985  0.8571  0.2530
 5742TIP3    H138785   5.842  -0.011   8.215 -0.0877  0.0552  0.3654
 5742TIP3    H238786   5.941   0.103   8.205 -0.8664  0.6849 -0.3155
 5743TIP3   OH238787   5.269   4.183   0.203  0.0864  0.0358  0.0036
 5743TIP3    H138788   5.212   4.116   0.165 -0.1332  0.8285 -1.1107
 5743TIP3    H238789   5.268   4.165   0.297  2.0353 -3.0911 -0.4317
 5744TIP3   OH238790   6.447   2.480   0.536  0.4783 -0.2367 -0.4091
 5744TIP3    H138791   6.533   2.520   0.520  0.2119 -0.0830 -1.5336
 5744TIP3    H238792   6.457   2.390   0.507  0.4451 -0.3978  0.0788
 5745TIP3   OH238793   0.276   6.638   1.984  0.0050 -0.1372  0.4117
 5745TIP3    H138794   0.196   6.589   1.963 -0.7330  1.3354 -0.4087
 5745TIP3    H238795   0.340   6.571   2.006 -0.3733 -1.6603 -2.5416
 5746TIP3   OH238796   2.334   5.046   0.838  0.5630 -0.6199  0.1302
 5746TIP3    H138797   2.426   5.033   0.815  0.8774  0.7632  0.4832
 5746TIP3    H238798   2.291   5.068   0.755  0.6252 -0.8764  0.0295
 5747TIP3   OH238799   1.966   0.540   8.624 -0.6889  0.3586  0.0073
 5747TIP3    H138800   1.999   0.490   8.699 -1.1678 -1.6197 -1.0324
 5747TIP3    H238801   2.044   0.575   8.581 -0.4444  2.7375  2.1159
 5748TIP3   OH238802   5.485   6.489   0.697  0.0038  0.1671  0.0224
 5748TIP3    H138803   5.558   6.528   0.745 -0.1908  0.4146  0.1168
 5748TIP3    H238804   5.409   6.543   0.720 -0.7022 -1.4327  1.7566
 5749TIP3   OH238805   6.374   1.470   6.950 -0.1559 -0.0678  0.3531
 5749TIP3    H138806   6.342   1.525   6.878 -1.0982  0.4458  1.1264
 5749TIP3    H238807   6.425   1.530   7.004  0.4724 -0.4323  0.1781
 5750TIP3   OH238808   4.772   6.212   8.603 -0.2758 -0.2938  0.6184
 5750TIP3    H138809   4.784   6.142   8.539 -1.8700  1.3351 -1.6281
 5750TIP3    H238810   4.856   6.219   8.648  1.0703 -1.2549 -1.6037
 5751TIP3   OH238811   2.024   5.198   0.680 -0.3444  0.5065  0.2721
 5751TIP3    H138812   1.975   5.116   0.688 -0.2840  0.3291 -0.9833
 5751TIP3    H238813   2.039   5.226   0.770 -1.4592 -0.2087  0.6987
 5752TIP3   OH238814   3.103   3.580   8.453 -0.2140  0.0012  0.3142
 5752TIP3    H138815   3.124   3.584   8.359  0.6339 -0.5259  0.4778
 5752TIP3    H238816   3.187   3.566   8.496 -0.6248  0.0683  1.1496
 5753TIP3   OH238817   1.762   1.175   0.090  0.1184 -0.1875  0.2708
 5753TIP3    H138818   1.695   1.108   0.077  0.4121 -0.1599 -1.6161
 5753TIP3    H238819   1.828   1.157   0.023 -0.2692  2.5724 -0.9823
 5754TIP3   OH238820   6.180   2.820   8.316 -0.2797  0.3893 -0.0328
 5754TIP3    H138821   6.100   2.767   8.314  0.2611 -0.4227 -0.5392
 5754TIP3    H238822   6.218   2.811   8.229  0.7605  0.1518  0.4317
 5755TIP3   OH238823   2.256   1.399   6.742  0.2051 -0.4168 -0.5126
 5755TIP3    H138824   2.221   1.441   6.662 -1.7131  0.4900  0.7254
 5755TIP3    H238825   2.341   1.441   6.755  0.1125  0.1412 -1.5519
 5756TIP3   OH238826   5.735   2.599   1.212 -0.3916 -0.0090  0.4016
 5756TIP3    H138827   5.726   2.606   1.307 -0.7309 -0.3989  0.4049
 5756TIP3    H238828   5.777   2.514   1.198 -1.2820 -0.4325  0.1711
 5757TIP3   OH238829   1.430   4.154   0.943 -0.2050  0.0960  0.4318
 5757TIP3    H138830   1.483   4.202   1.007  1.0820 -0.8664  0.1254
 5757TIP3    H238831   1.428   4.212   0.866 -0.2192  0.4548  0.6988
 5758TIP3   OH238832   5.810   5.243   0.483 -0.3535  0.2007 -0.5142
 5758TIP3    H138833   5.903   5.229   0.469 -0.6842 -2.2737 -0.7065
 5758TIP3    H238834   5.803   5.333   0.513  2.1652  0.2388  0.1430
 5759TIP3   OH238835   5.866   5.448   0.000  0.2013 -0.2042  0.0049
 5759TIP3    H138836   5.800   5.379   0.008 -0.1738  0.1941  0.4389
 5759TIP3    H238837   5.815   5.527  -0.019  0.4821  0.2349  0.9802
 5760TIP3   OH238838   6.410   1.291   8.642  0.1217 -0.7285 -0.2950
 5760TIP3    H138839   6.404   1.229   8.715  0.2470  0.2900  0.6047
 5760TIP3    H238840   6.365   1.248   8.570 -1.2394 -1.1832  0.7859
 5761TIP3   OH238841   3.438   3.510   8.522 -0.1598  0.3654  0.1627
 5761TIP3    H138842   3.484   3.479   8.601 -0.4693 -0.1732  0.1373
 5761TIP3    H238843   3.474   3.457   8.451 -1.4335 -0.6965  0.2683
 5762TIP3   OH238844   5.080   2.444   7.299  0.3244  0.1887 -0.2589
 5762TIP3    H138845   5.009   2.496   7.261  1.4164  1.8440 -0.1330
 5762TIP3    H238846   5.049   2.423   7.388 -0.6743 -0.5403 -0.7544
 5763TIP3   OH238847   0.214   5.974   8.261 -0.0305  0.0730  0.7586
 5763TIP3    H138848   0.203   6.067   8.282  1.1072  0.4713 -0.3013
 5763TIP3    H238849   0.246   5.935   8.342 -0.8252  0.5385  1.3095
 5764TIP3   OH238850   0.223   4.448   7.993  0.1801 -0.0655  0.2928
 5764TIP3    H138851   0.271   4.370   8.018 -1.3313 -1.1165  0.0192
 5764TIP3    H238852   0.188   4.428   7.906  0.7632  1.3882 -0.3106
 5765TIP3   OH238853   3.197   1.071   8.624  0.0571  0.1356 -0.2103
 5765TIP3    H138854   3.214   1.114   8.540  0.8664 -0.7302 -0.5096
 5765TIP3    H238855   3.102   1.077   8.636 -0.1420 -0.2512 -1.4810
 5766TIP3   OH238856   2.935   2.392   7.438 -0.0658  0.4575  0.3576
 5766TIP3    H138857   2.871   2.354   7.377 -0.1594  0.5108  0.4234
 5766TIP3    H238858   2.906   2.482   7.451 -0.3306  0.2972  0.8726
 5767TIP3   OH238859   6.027   0.409   8.036  0.1989  0.2434 -0.4535
 5767TIP3    H138860   5.947   0.370   8.070  0.9207 -1.9813 -1.1286
 5767TIP3    H238861   6.001   0.496   8.006 -0.9107  1.5281  3.6922
 5768TIP3   OH238862   2.303   3.896   0.755 -0.3012  0.5718  0.3104
 5768TIP3    H138863   2.323   3.989   0.760 -0.2550  0.6097 -0.4550
 5768TIP3    H238864   2.276   3.872   0.844 -1.1666  1.5116  0.3249
 5769TIP3   OH238865   4.140   4.515   8.051 -0.6102 -0.6974  0.4276
 5769TIP3    H138866   4.107   4.425   8.049  1.5021 -1.5269  0.0118
 5769TIP3    H238867   4.122   4.549   7.964 -2.9375 -0.0645  1.0880
 5770TIP3   OH238868   4.043   0.666   7.504 -0.1063  0.0319 -0.5842
 5770TIP3    H138869   4.057   0.759   7.520  2.3569 -0.3874  0.2111
 5770TIP3    H238870   4.066   0.653   7.412  1.1779 -0.0077 -0.2794
 5771TIP3   OH238871   1.445   5.047   8.364 -0.0980  0.3854  0.0136
 5771TIP3    H138872   1.381   5.055   8.292 -0.1210  1.1828  0.1163
 5771TIP3    H238873   1.421   5.117   8.425 -1.0538 -1.2539  1.5795
 5772TIP3   OH238874   0.184   2.846   1.776  0.0436 -0.1974 -0.3708
 5772TIP3    H138875   0.209   2.756   1.798 -1.5473 -0.8484 -1.0626
 5772TIP3    H238876   0.242   2.900   1.830 -0.0677 -1.6490  1.3167
 5773TIP3   OH238877   4.053   4.683   0.390  0.1434  0.2283 -0.2996
 5773TIP3    H138878   4.039   4.661   0.482  0.0913 -2.4332 -0.8614
 5773TIP3    H238879   4.095   4.605   0.352  0.7636  1.4883 -2.4014
 5774TIP3   OH238880   1.064   4.923   7.404 -0.1834  0.0352 -0.2530
 5774TIP3    H138881   0.987   4.903   7.350 -1.5860 -0.8454  1.9457
 5774TIP3    H238882   1.138   4.893   7.352 -1.2768  0.8621 -2.4361
 5775TIP3   OH238883   3.753   0.202   8.783  0.3234 -0.3050 -0.0620
 5775TIP3    H138884   3.827   0.198   8.722  0.8961  0.8335  0.5358
 5775TIP3    H238885   3.722   0.112   8.790  1.1806 -0.6724 -0.8931
 5776TIP3   OH238886   2.725   1.694   0.079 -0.4013 -0.5093  0.0219
 5776TIP3    H138887   2.695   1.623   0.136  0.1058 -0.4285  0.3973
 5776TIP3    H238888   2.777   1.751   0.137  1.1137 -1.0383 -0.7586
 5777TIP3   OH238889   1.804   5.249   7.523  0.1636 -0.2403 -0.1412
 5777TIP3    H138890   1.763   5.297   7.595 -1.4366 -0.9782 -0.4967
 5777TIP3    H238891   1.790   5.305   7.447  0.7013 -0.0479 -0.0989
 5778TIP3   OH238892   6.605   5.527   0.629 -0.0943 -0.2934  0.0281
 5778TIP3    H138893   6.561   5.612   0.631  0.8346  0.1826  0.9281
 5778TIP3    H238894   6.676   5.538   0.565 -0.8402 -0.8481 -0.9158
 5779TIP3   OH238895   3.028   3.854   6.873 -0.3111 -0.0771  0.2820
 5779TIP3    H138896   2.992   3.911   6.941  0.1584 -0.7616  1.1290
 5779TIP3    H238897   2.962   3.786   6.862 -0.5746  0.2593 -0.2590
 5780TIP3   OH238898   4.675   5.815   6.606  0.3685 -0.2643 -0.5936
 5780TIP3    H138899   4.611   5.744   6.617  0.0665  0.1784  0.7111
 5780TIP3    H238900   4.749   5.774   6.562  0.0556 -1.3099 -0.1712
 5781TIP3   OH238901   5.089   3.628   1.472 -0.7362  0.2006 -0.0374
 5781TIP3    H138902   5.155   3.621   1.403 -0.4195  2.6397 -0.0992
 5781TIP3    H238903   5.007   3.643   1.426 -0.4860  2.0820  0.0385
 5782TIP3   OH238904   5.497   1.251   7.186 -0.0233 -0.0134  0.0569
 5782TIP3    H138905   5.407   1.247   7.154 -0.2397 -1.4205  0.7712
 5782TIP3    H238906   5.528   1.338   7.159 -0.9544 -0.2131 -1.8491
 5783TIP3   OH238907   6.237   3.883   1.805 -0.1793  0.5416  0.2827
 5783TIP3    H138908   6.192   3.822   1.747 -1.2859 -1.5910  3.1579
 5783TIP3    H238909   6.192   3.966   1.793 -1.5374 -0.2932 -0.6175
 5784TIP3   OH238910   0.276   2.355   0.479  0.3794 -0.7504  0.5686
 5784TIP3    H138911   0.197   2.324   0.523  2.1922 -2.4704  2.8920
 5784TIP3    H238912   0.336   2.378   0.550  2.3990 -0.6505 -1.0570
 5785TIP3   OH238913   2.096   3.448   0.438 -0.2399  0.2706 -0.2062
 5785TIP3    H138914   2.079   3.506   0.512 -0.6905  0.6461 -0.5972
 5785TIP3    H238915   2.187   3.421   0.449 -0.3533  0.1761  0.5852
 5786TIP3   OH238916   0.347   5.205   1.227 -0.7213  0.1690 -0.5804
 5786TIP3    H138917   0.360   5.203   1.132 -0.2446  2.5605 -0.6227
 5786TIP3    H238918   0.399   5.280   1.256 -0.3944 -0.8734  1.6708
 5787TIP3   OH238919   3.989   0.874   0.072 -0.4656  0.1673  0.4146
 5787TIP3    H138920   4.026   0.919   0.148 -2.0222  1.5029  0.4271
 5787TIP3    H238921   3.967   0.944   0.010 -0.0364 -0.8339 -0.9142
 5788TIP3   OH238922   4.399   5.844   8.683  0.8221  0.1448 -0.4746
 5788TIP3    H138923   4.308   5.816   8.674  1.4644 -1.6561 -1.7735
 5788TIP3    H238924   4.395   5.918   8.744 -1.4200 -0.2947 -0.0083
 5789TIP3   OH238925   1.886   1.322   8.287  0.0003  0.3551 -0.1212
 5789TIP3    H138926   1.831   1.396   8.260 -1.8350 -0.6863  0.5542
 5789TIP3    H238927   1.823   1.253   8.307  1.6123 -0.9676  0.5335
 5790TIP3   OH238928   2.295   5.915   6.482  0.1500  0.4924 -0.1372
 5790TIP3    H138929   2.337   5.989   6.525  0.8976  0.8325 -1.4140
 5790TIP3    H238930   2.367   5.859   6.453 -0.2648  0.7317 -1.7345
 5791TIP3   OH238931   6.294   2.813   8.075  0.1839  0.0213  0.5027
 5791TIP3    H138932   6.352   2.766   8.015 -0.7223 -0.9230  0.3352
 5791TIP3    H238933   6.220   2.840   8.021 -1.1676 -1.7851  1.3621
 5792TIP3   OH238934   1.680   5.009   0.154 -0.2225  0.0604 -0.0589
 5792TIP3    H138935   1.637   5.055   0.083  0.5846  2.1994  0.7481
 5792TIP3    H238936   1.620   5.016   0.228 -0.0952 -0.2139  0.0741
 5793TIP3   OH238937   1.327   4.907   0.074  0.0441 -0.2092 -0.9315
 5793TIP3    H138938   1.356   4.896  -0.016  1.0338  0.9102 -0.7787
 5793TIP3    H238939   1.298   4.998   0.079  0.3170 -0.1586 -0.0331
 5794TIP3   OH238940   0.649   5.559   0.718  0.1538 -0.3388 -0.2000
 5794TIP3    H138941   0.734   5.525   0.748 -0.2598 -1.1829  0.0404
 5794TIP3    H238942   0.585   5.507   0.766 -0.5006  0.9201  0.3168
 5795TIP3   OH238943   1.329   0.781   6.445 -0.0495  0.0322  0.2530
 5795TIP3    H138944   1.253   0.744   6.400 -1.2703 -0.0567  2.2296
 5795TIP3    H238945   1.347   0.863   6.399 -1.9183  0.4765  0.2364
 5796TIP3   OH238946   4.211   1.483   1.068  0.4419 -0.4562  0.1464
 5796TIP3    H138947   4.186   1.418   1.133  0.3169 -0.3426  0.2144
 5796TIP3    H238948   4.203   1.438   0.984  1.4036 -0.8531  0.2584
 5797TIP3   OH238949   5.682   5.657   0.269 -0.7729 -0.7919  0.6364
 5797TIP3    H138950   5.604   5.603   0.277 -2.0365  0.8302 -0.2651
 5797TIP3    H238951   5.663   5.718   0.198  2.1013 -1.6032 -0.9753
 5798TIP3   OH238952   0.710   1.159   7.819 -0.4514 -0.4631 -0.2881
 5798TIP3    H138953   0.777   1.225   7.800 -0.7183  0.2336  1.1158
 5798TIP3    H238954   0.747   1.106   7.889 -0.8093 -0.9651 -0.4663
 5799TIP3   OH238955   1.214   0.982   8.133 -0.0726 -0.3586  0.3808
 5799TIP3    H138956   1.157   0.944   8.067  0.8892 -0.9953 -0.1193
 5799TIP3    H238957   1.191   1.075   8.135 -0.3538 -0.3961 -0.6013
 5800TIP3   OH238958   6.552   6.473   8.523 -0.0532  0.1330 -0.3395
 5800TIP3    H138959   6.525   6.421   8.599 -1.8838  0.3145 -0.8130
 5800TIP3    H238960   6.469   6.498   8.481  0.8954 -0.0743 -2.4708
 5801TIP3   OH238961   1.027   5.350   0.269 -0.4040  0.2624  0.3497
 5801TIP3    H138962   1.123   5.345   0.265 -0.4595 -3.2471 -2.3532
 5801TIP3    H238963   1.000   5.359   0.177 -2.6478 -0.7827  0.8400
 5802TIP3   OH238964   1.055   3.357   6.818 -0.0098  0.0799 -0.1750
 5802TIP3    H138965   1.105   3.423   6.771 -2.1282  1.8321 -0.0944
 5802TIP3    H238966   1.004   3.313   6.751  0.9586 -1.1501 -0.1503
 5803TIP3   OH238967   3.546   1.347   6.994  0.1101 -0.1109  0.0335
 5803TIP3    H138968   3.636   1.378   6.993  0.5201 -1.2544  0.6379
 5803TIP3    H238969   3.533   1.309   6.907  0.8638 -1.7404  0.6118
 5804TIP3   OH238970   1.283   6.483   1.496 -0.4261 -0.1307 -0.0846
 5804TIP3    H138971   1.293   6.533   1.577 -0.2456  0.3193 -0.3787
 5804TIP3    H238972   1.350   6.415   1.502 -1.2954 -0.9377  0.7470
 5805TIP3   OH238973   2.048   6.699   7.088 -0.2281 -0.3451 -0.1916
 5805TIP3    H138974   1.998   6.781   7.083 -0.1651 -0.2266  0.9504
 5805TIP3    H238975   2.131   6.719   7.044 -1.1686 -0.5639 -2.1610
 5806TIP3   OH238976   3.995   4.998   7.848 -0.7162  0.6089  0.1605
 5806TIP3    H138977   3.964   5.063   7.910  1.0643  1.1074  0.5833
 5806TIP3    H238978   4.059   4.946   7.898 -0.9644 -0.4733 -0.6075
 5807TIP3   OH238979   1.694   4.973   7.645 -0.0034  0.2363  0.1808
 5807TIP3    H138980   1.768   4.929   7.605  0.5386  0.7590  0.5937
 5807TIP3    H238981   1.700   5.064   7.615 -0.4008  0.3121  0.3197
 5808TIP3   OH238982   6.053   2.009   6.640  0.2003 -0.0631 -0.4339
 5808TIP3    H138983   6.003   2.034   6.717 -1.0417  0.3242 -1.3304
 5808TIP3    H238984   6.139   2.049   6.653  0.5152 -1.1732  1.3782
 5809TIP3   OH238985   6.793   2.761   7.813  0.4164 -0.0188 -0.2884
 5809TIP3    H138986   6.818   2.839   7.763  5.0074 -1.2136 -0.3004
 5809TIP3    H238987   6.771   2.696   7.746 -0.0223  0.2496 -0.4111
 5810TIP3   OH238988   2.149   5.402   0.274 -0.3064  0.1028 -0.1448
 5810TIP3    H138989   2.153   5.498   0.271 -0.8191  0.1669  0.8247
 5810TIP3    H238990   2.231   5.377   0.316  1.2262 -0.0986 -2.9654
 5811TIP3   OH238991   4.721   4.153   0.715 -0.7236  0.4734 -0.1906
 5811TIP3    H138992   4.773   4.231   0.695  0.2127 -0.4676 -1.6282
 5811TIP3    H238993   4.744   4.132   0.806  2.5556 -0.6634 -1.1274
 5812TIP3   OH238994   4.075   4.249   8.078 -0.1466  0.1126 -0.5854
 5812TIP3    H138995   4.087   4.219   7.987 -1.4852 -1.7421 -0.2189
 5812TIP3    H238996   4.135   4.193   8.128 -0.3360  0.2597 -0.2008
 5813TIP3   OH238997   5.225   6.223   7.641  0.1715 -0.4848 -0.5749
 5813TIP3    H138998   5.251   6.245   7.731  0.1153 -0.1554 -0.6415
 5813TIP3    H238999   5.170   6.145   7.651  2.0023 -1.8504 -0.5072
 5814TIP3   OH239000   3.455   0.335   7.294  0.3173  0.0849  0.4404
 5814TIP3    H139001   3.474   0.258   7.348  0.7332 -0.5435 -0.5864
 5814TIP3    H239002   3.378   0.374   7.336  0.5080 -0.4951  1.3702
 5815TIP3   OH239003   4.331   0.761   8.394  0.1893  0.5704  0.2909
 5815TIP3    H139004   4.421   0.794   8.387  0.2590  0.4364  0.5375
 5815TIP3    H239005   4.298   0.801   8.475  0.1300  0.3763  0.3617
 5816TIP3   OH239006   2.349   1.940   6.032 -0.1718 -0.2054 -0.0056
 5816TIP3    H139007   2.374   1.855   6.069 -0.4717 -0.2288  0.1485
 5816TIP3    H239008   2.420   1.999   6.055 -1.6502  0.5227  3.2147
 5817TIP3   OH239009   2.557   2.656   0.543 -0.5752  0.0423 -0.3148
 5817TIP3    H139010   2.580   2.589   0.608  0.5376  0.4154 -0.2937
 5817TIP3    H239011   2.551   2.737   0.593  1.2924  0.5230 -0.7647
 5818TIP3   OH239012   4.511   1.933   6.434 -0.2187 -0.2985  0.0417
 5818TIP3    H139013   4.518   1.865   6.501  1.7652  0.0280  0.2281
 5818TIP3    H239014   4.600   1.945   6.402 -0.7495  1.2217 -1.0002
 5819TIP3   OH239015   0.398   5.156   0.038  0.0823  0.4990 -0.1310
 5819TIP3    H139016   0.465   5.209   0.081 -0.4089 -0.1147  1.4587
 5819TIP3    H239017   0.408   5.069   0.077  0.2527 -0.3674 -1.9942
 5820TIP3   OH239018   0.896   6.389   1.176 -0.1066 -0.0507  0.1496
 5820TIP3    H139019   0.844   6.452   1.126  0.0052  0.2287  0.3822
 5820TIP3    H239020   0.969   6.441   1.210 -1.5275  0.3835  2.8131
 5821TIP3   OH239021   1.970   4.951   0.401 -0.2238 -0.4041  0.3094
 5821TIP3    H139022   2.033   4.976   0.334  2.3349 -1.3005  2.2119
 5821TIP3    H239023   1.905   4.898   0.354 -0.6797  2.0143 -2.0533
 5822TIP3   OH239024   3.813   6.211   7.471  0.8182 -0.2160 -0.0147
 5822TIP3    H139025   3.825   6.123   7.435  0.3962 -0.1482 -0.3206
 5822TIP3    H239026   3.723   6.234   7.450  0.5563 -0.1701  1.0759
 5823TIP3   OH239027   4.100   5.315   0.292 -0.4432 -0.3055  0.0159
 5823TIP3    H139028   4.054   5.240   0.254 -0.0903 -1.3027  1.4705
 5823TIP3    H239029   4.139   5.360   0.217 -1.4141 -1.0505 -0.9659
 5824TIP3   OH239030   3.572   6.666   7.246  0.3178  0.1308  0.1206
 5824TIP3    H139031   3.650   6.621   7.280 -1.0679 -2.0708  0.5811
 5824TIP3    H239032   3.586   6.668   7.151  1.6734  1.3200  0.3033
 5825TIP3   OH239033   0.562   0.286   8.811  0.2004  0.0763 -0.5412
 5825TIP3    H139034   0.640   0.341   8.820  0.6593 -0.4695 -1.0815
 5825TIP3    H239035   0.503   0.316   8.881  0.2003  1.6283 -1.1646
 5826TIP3   OH239036   2.616   4.954   8.289  0.5989  0.2264  0.0028
 5826TIP3    H139037   2.588   4.893   8.357 -1.0153  1.2026  0.2814
 5826TIP3    H239038   2.548   4.947   8.222 -0.2568  2.4494  0.5354
 5827TIP3   OH239039   1.758   1.898   6.535 -0.0251  0.1202 -0.2494
 5827TIP3    H139040   1.776   1.965   6.470  0.4532 -0.0289 -0.2693
 5827TIP3    H239041   1.740   1.947   6.616 -0.8627  0.3126 -0.5411
 5828TIP3   OH239042   6.400   3.669   8.213  0.0502 -0.0333  0.1152
 5828TIP3    H139043   6.371   3.669   8.304  0.1234  0.5970  0.1418
 5828TIP3    H239044   6.318   3.664   8.163 -0.0709  0.9447  0.2025
 5829TIP3   OH239045   0.549   4.518   7.942 -0.3438  0.2683 -0.1458
 5829TIP3    H139046   0.591   4.603   7.943  0.2238  0.0552 -2.3077
 5829TIP3    H239047   0.455   4.537   7.932 -0.2601  0.6217 -0.2512
 5830TIP3   OH239048   1.468   5.376   0.974  0.4186 -0.6046  0.0823
 5830TIP3    H139049   1.454   5.364   1.068 -1.1063  2.1247  0.2977
 5830TIP3    H239050   1.563   5.377   0.964  0.6365  0.4332  1.8267
 5831TIP3   OH239051   2.557   4.311   0.191 -0.0126 -0.1847 -0.6530
 5831TIP3    H139052   2.640   4.358   0.189 -1.0328  1.8743  0.8074
 5831TIP3    H239053   2.495   4.369   0.148 -1.0096 -0.9372 -0.2864
 5832TIP3   OH239054   5.493   3.735   0.757  0.0095 -0.2015  0.4169
 5832TIP3    H139055   5.558   3.680   0.713  2.1592  0.6080  2.4206
 5832TIP3    H239056   5.469   3.686   0.836 -0.6339  0.2367  0.5065
 5833TIP3   OH239057   1.122   5.732   7.148  0.3554  0.0866  0.8156
 5833TIP3    H139058   1.104   5.781   7.068 -3.2638 -3.4078 -0.8877
 5833TIP3    H239059   1.216   5.715   7.146  1.3686  4.5082  0.3104
 5834TIP3   OH239060   6.240   5.194   7.321 -0.2672  0.0416  0.0501
 5834TIP3    H139061   6.165   5.253   7.329 -0.4278 -0.2617  0.8395
 5834TIP3    H239062   6.232   5.134   7.395 -0.3649 -1.2629 -0.9767
 5835TIP3   OH239063   6.322   0.622   0.314 -0.2377 -0.2353  0.1832
 5835TIP3    H139064   6.353   0.694   0.369 -1.8011  1.3427 -0.8823
 5835TIP3    H239065   6.302   0.663   0.230 -0.2389 -2.1177 -0.7889
 5836TIP3   OH239066   6.218   0.799   8.050 -0.0085 -0.1152  0.8744
 5836TIP3    H139067   6.218   0.787   7.955 -1.5511  0.5867  0.7710
 5836TIP3    H239068   6.235   0.893   8.062 -2.9007  0.4658  1.1322
 5837TIP3   OH239069   0.724   4.249   0.519 -0.4215 -0.6333 -0.0861
 5837TIP3    H139070   0.795   4.287   0.468 -1.7516  0.5060 -1.1947
 5837TIP3    H239071   0.758   4.241   0.608  1.4266 -1.1639 -0.8051
 5838TIP3   OH239072   5.777   0.645   8.755  0.5206 -0.1984 -0.0742
 5838TIP3    H139073   5.767   0.637   8.850 -0.4674 -1.0434 -0.2216
 5838TIP3    H239074   5.861   0.602   8.737  1.2868  0.9847  0.5137
 5839TIP3   OH239075   1.142   2.827   8.269  0.2480 -0.3892  0.0402
 5839TIP3    H139076   1.178   2.916   8.266  0.6619 -0.5233  0.9380
 5839TIP3    H239077   1.078   2.825   8.197 -0.2304  0.8319  0.4111
 5840TIP3   OH239078   6.471   6.287   0.953  0.1146  0.0725  0.5102
 5840TIP3    H139079   6.422   6.205   0.946 -0.2953  0.3963 -0.5995
 5840TIP3    H239080   6.404   6.355   0.947  0.5465  0.5055  0.5366
 5841TIP3   OH239081   1.825   4.030   0.801 -0.1293  0.1020  0.0660
 5841TIP3    H139082   1.864   3.950   0.764 -5.1914 -2.5120 -0.5481
 5841TIP3    H239083   1.787   4.075   0.725  0.6932  2.0096  0.7180
 5842TIP3   OH239084   3.397   0.937   0.841 -0.0316 -0.0660 -0.0433
 5842TIP3    H139085   3.479   0.939   0.889 -0.4220  0.6607  0.6201
 5842TIP3    H239086   3.348   0.865   0.880 -0.2520  0.3710  0.4920
 5843TIP3   OH239087   3.606   0.477   6.845 -0.0811 -0.0980  0.2030
 5843TIP3    H139088   3.637   0.387   6.852  0.3914  0.1506  1.7279
 5843TIP3    H239089   3.616   0.499   6.752 -0.2109 -1.6008 -0.1850
 5844TIP3   OH239090   5.833   1.392   7.124  0.3499 -1.4367 -0.4154
 5844TIP3    H139091   5.894   1.361   7.191  0.0100 -2.1392 -0.4248
 5844TIP3    H239092   5.779   1.457   7.169 -1.2571 -3.3853  0.6086
 5845TIP3   OH239093   2.766   1.441   6.150 -0.3304  0.1566 -0.0096
 5845TIP3    H139094   2.674   1.416   6.159  0.0273 -1.0666  0.4784
 5845TIP3    H239095   2.808   1.406   6.228  0.6683  0.1453 -0.5349
 5846TIP3   OH239096   4.454   4.348   1.138 -0.1766  0.5848  0.1437
 5846TIP3    H139097   4.378   4.367   1.083 -0.2524  1.8507  0.6566
 5846TIP3    H239098   4.429   4.270   1.188 -0.9760  0.7490  0.0161
 5847TIP3   OH239099   1.902   6.552   6.883  0.4465 -0.0028 -0.4545
 5847TIP3    H139100   1.977   6.609   6.901  1.7370 -1.3875 -1.1841
 5847TIP3    H239101   1.940   6.465   6.871 -1.5119 -1.1545  1.1240
 5848TIP3   OH239102   3.348   3.713   6.018 -0.5192 -0.4334  0.3018
 5848TIP3    H139103   3.420   3.682   5.964  0.6925 -1.5384  2.4160
 5848TIP3    H239104   3.282   3.643   6.012 -0.9597  0.0345 -0.6813
 5849TIP3   OH239105   2.092   0.630   0.321  0.0389  0.3662  0.4256
 5849TIP3    H139106   2.123   0.633   0.411 -0.5923  2.1761  0.6223
 5849TIP3    H239107   2.026   0.699   0.316 -0.3463 -0.0858 -1.2693
 5850TIP3   OH239108   5.884   4.637   6.201  0.3262 -0.6494  0.1175
 5850TIP3    H139109   5.875   4.723   6.159 -0.8026 -1.1535 -0.7461
 5850TIP3    H239110   5.794   4.614   6.226  0.7662 -1.1065  1.3378
 5851TIP3   OH239111   3.766   5.146   6.943 -0.1959  0.0666  0.2819
 5851TIP3    H139112   3.861   5.158   6.939  0.0420 -1.3140  0.8356
 5851TIP3    H239113   3.755   5.073   7.004 -1.5371 -0.6731 -0.7997
 5852TIP3   OH239114   5.767   4.108   8.198 -0.3602  0.0516 -0.2346
 5852TIP3    H139115   5.711   4.112   8.120 -0.7610  1.0511  0.0923
 5852TIP3    H239116   5.746   4.023   8.238 -0.7913 -0.0865 -0.7330
 5853TIP3   OH239117   4.738   5.273   8.389 -0.7711  0.6005  0.1892
 5853TIP3    H139118   4.792   5.206   8.348  1.0133  1.2736  1.3264
 5853TIP3    H239119   4.773   5.281   8.478 -2.7854  1.0575  0.9915
 5854TIP3   OH239120   4.133   3.744   0.311 -0.1505  0.4763 -0.5311
 5854TIP3    H139121   4.143   3.839   0.302  2.1523  0.4044  0.6257
 5854TIP3    H239122   4.156   3.726   0.402  1.7985 -1.4392 -1.3343
 5855TIP3   OH239123   5.148   3.904   1.457  0.2063  0.0196 -0.0517
 5855TIP3    H139124   5.122   3.928   1.546 -0.9137  1.0454 -0.6364
 5855TIP3    H239125   5.109   3.818   1.443  0.9147 -0.4315  0.6553
 5856TIP3   OH239126   3.148   3.033   2.059  0.1574  0.1898  0.2237
 5856TIP3    H139127   3.091   3.101   2.098  2.4145  2.4628 -0.1784
 5856TIP3    H239128   3.215   3.018   2.126 -0.5136 -2.0329  0.4588
 5857TIP3   OH239129   2.644   1.223   7.684 -0.1614  0.2045  0.0143
 5857TIP3    H139130   2.551   1.218   7.707 -0.4638 -0.4736 -1.2800
 5857TIP3    H239131   2.646   1.212   7.589  1.3785 -1.7617  0.2002
 5858TIP3   OH239132   1.741   4.502   8.257 -0.1819 -0.3186  0.2437
 5858TIP3    H139133   1.708   4.547   8.180  1.8780 -0.7983 -0.9897
 5858TIP3    H239134   1.755   4.571   8.321 -0.3148  0.3203 -0.4093
 5859TIP3   OH239135   4.298   4.733   0.641 -0.0639  0.0352 -0.5531
 5859TIP3    H139136   4.289   4.770   0.553 -1.2726  0.3900 -0.3081
 5859TIP3    H239137   4.317   4.809   0.696  2.6220 -0.4288 -0.7380
 5860TIP3   OH239138   6.249   6.357   8.338 -0.4965  0.2695 -0.2570
 5860TIP3    H139139   6.182   6.295   8.306  0.7135 -0.7885 -0.8222
 5860TIP3    H239140   6.207   6.443   8.328 -1.2791 -0.2433 -1.9600
 5861TIP3   OH239141   6.328   2.331   6.979 -0.5346  0.0313 -0.0897
 5861TIP3    H139142   6.269   2.397   6.942  1.1875  1.9822  0.4337
 5861TIP3    H239143   6.295   2.317   7.068 -0.1443  1.2578  0.2684
 5862TIP3   OH239144   0.896   4.585   0.598  0.5237  0.8571  0.3728
 5862TIP3    H139145   0.830   4.646   0.564 -0.4423  0.1956  1.0166
 5862TIP3    H239146   0.859   4.554   0.680  0.9888 -0.6012  0.0522
 5863TIP3   OH239147   4.462   5.171   0.142 -0.4254  0.1481 -0.2803
 5863TIP3    H139148   4.500   5.112   0.077  0.1112 -0.6919  0.7622
 5863TIP3    H239149   4.369   5.175   0.120 -0.5272 -1.3302 -0.2050
 5864TIP3   OH239150   4.725   6.669   7.530  0.1156 -0.6425 -0.1505
 5864TIP3    H139151   4.634   6.686   7.506  0.3458  1.3109  0.1795
 5864TIP3    H239152   4.764   6.756   7.538  2.0336 -1.4481 -0.3281
 5865TIP3   OH239153   2.069   5.199   1.527  0.1710 -0.5108 -0.0510
 5865TIP3    H139154   1.981   5.237   1.534  0.3107 -0.3737  1.2588
 5865TIP3    H239155   2.128   5.273   1.545  0.5069 -0.8761  0.3641
 5866TIP3   OH239156   5.630   6.580   7.599  0.0493 -0.0178  0.2778
 5866TIP3    H139157   5.558   6.522   7.619 -0.5889  0.5194 -0.4003
 5866TIP3    H239158   5.643   6.571   7.505 -0.4348  1.3239  0.0478
 5867TIP3   OH239159   5.113   1.439   1.712  0.6485 -0.2541 -0.3191
 5867TIP3    H139160   5.055   1.428   1.788  0.8634  1.3119  0.0849
 5867TIP3    H239161   5.066   1.394   1.641 -1.1948  1.1276 -0.0550
 5868TIP3   OH239162   5.435   1.536   7.674  0.7793  0.3859  0.4053
 5868TIP3    H139163   5.421   1.620   7.718 -0.2058 -0.1499  1.1582
 5868TIP3    H239164   5.453   1.475   7.745  1.3668 -0.0693 -0.1276
 5869TIP3   OH239165   2.855   5.548   0.200 -0.0620  0.1923  0.7052
 5869TIP3    H139166   2.795   5.521   0.270  0.2275 -1.7305  0.2859
 5869TIP3    H239167   2.906   5.469   0.181  0.5223  0.9307 -1.0212
 5870TIP3   OH239168   4.152   0.663   7.252  0.5387  0.3094 -0.2766
 5870TIP3    H139169   4.158   0.569   7.234 -0.5860  0.2164 -0.2815
 5870TIP3    H239170   4.236   0.686   7.292  0.5086 -0.8791  0.5175
 5871TIP3   OH239171   1.864   1.488   0.407 -0.7029 -0.3835  0.2411
 5871TIP3    H139172   1.803   1.549   0.365 -1.2019 -1.2587 -0.3244
 5871TIP3    H239173   1.848   1.404   0.365  3.1457 -0.0712 -2.3309
 5872TIP3   OH239174   0.455   2.603   7.673 -0.2541  0.4868  0.2528
 5872TIP3    H139175   0.466   2.508   7.685  0.7649  0.5265 -0.2570
 5872TIP3    H239176   0.500   2.641   7.748  0.0408  0.5802  0.0304
 5873TIP3   OH239177   1.123   1.873   6.997  0.4089  0.1202  0.7191
 5873TIP3    H139178   1.167   1.840   6.919 -0.7068  0.1981  0.0285
 5873TIP3    H239179   1.055   1.808   7.015 -0.1234  0.7194  0.8981
 5874TIP3   OH239180   1.322   0.813   1.257  0.4080  0.3612 -0.6200
 5874TIP3    H139181   1.384   0.811   1.331  0.4402 -2.5565 -0.6297
 5874TIP3    H239182   1.240   0.781   1.294 -0.2370  1.1270 -1.3549
 5875TIP3   OH239183   1.245   2.370   6.895  0.0387  0.2133  0.3639
 5875TIP3    H139184   1.273   2.278   6.900  0.7122  0.3233 -1.0602
 5875TIP3    H239185   1.305   2.411   6.833 -0.6985  1.4617  0.4319
 5876TIP3   OH239186   4.518   5.972   1.095  0.0766  0.3868  0.1041
 5876TIP3    H139187   4.440   5.924   1.124 -1.0628  1.3800 -1.1409
 5876TIP3    H239188   4.509   5.975   0.999  0.8093  1.8912  0.0544
 5877TIP3   OH239189   2.048   6.451   7.213 -0.0445 -0.0139  0.5804
 5877TIP3    H139190   1.981   6.495   7.159 -1.0604 -1.2480  0.7981
 5877TIP3    H239191   2.129   6.461   7.162 -0.4911  0.9919  0.0237
 5878TIP3   OH239192   6.223   3.389   6.198 -0.3176 -0.2816  0.1667
 5878TIP3    H139193   6.182   3.429   6.121  1.1248 -0.4816 -0.7355
 5878TIP3    H239194   6.309   3.430   6.204  0.1748 -1.3518  0.7850
 5879TIP3   OH239195   5.420   2.907   8.201  0.3164 -0.6461  0.6675
 5879TIP3    H139196   5.486   2.964   8.163  0.3069 -0.2817  1.2040
 5879TIP3    H239197   5.427   2.920   8.295 -0.4917 -0.6346  0.7311
 5880TIP3   OH239198   1.473   4.856   0.766  0.1979 -0.1646  0.0061
 5880TIP3    H139199   1.424   4.890   0.691  0.3318 -1.1699 -0.5557
 5880TIP3    H239200   1.443   4.766   0.776 -0.3897  0.1688  1.6676
 5881TIP3   OH239201   4.298   3.203   5.983  0.4675 -0.3637  0.0442
 5881TIP3    H139202   4.319   3.111   5.995  0.8851 -0.3866 -0.8104
 5881TIP3    H239203   4.346   3.229   5.905 -0.5696  0.2804 -0.4071
 5882TIP3   OH239204   5.981   3.261   6.331 -0.2392 -0.0116 -0.0949
 5882TIP3    H139205   5.975   3.173   6.367  0.8935 -0.2433 -0.4310
 5882TIP3    H239206   6.072   3.269   6.302 -0.5619  0.9321 -0.9154
 5883TIP3   OH239207   3.237   2.441   1.190 -0.7457 -0.2933 -0.2674
 5883TIP3    H139208   3.185   2.386   1.249 -0.0976 -0.3725  0.2429
 5883TIP3    H239209   3.308   2.384   1.161 -1.3430 -0.4119 -1.5445
 5884TIP3   OH239210   0.305   5.079   1.662  0.0523 -0.0384 -0.0563
 5884TIP3    H139211   0.278   5.169   1.641 -0.8083 -0.1872  0.3364
 5884TIP3    H239212   0.353   5.049   1.585  1.3679  1.1508  0.2610
 5885TIP3   OH239213   5.706   2.262   1.877  0.3680 -0.1606 -0.2491
 5885TIP3    H139214   5.781   2.205   1.896 -0.8307 -1.2696  1.4317
 5885TIP3    H239215   5.741   2.350   1.887  1.9218 -0.5800 -1.5271
 5886TIP3   OH239216   6.368   4.917   1.063 -0.8026  0.5799 -0.1151
 5886TIP3    H139217   6.375   4.833   1.018 -0.7569  0.1817  0.6143
 5886TIP3    H239218   6.286   4.955   1.032 -0.9720  0.1229 -0.2201
 5887TIP3   OH239219   1.687   1.634   0.224 -0.8876  0.3184 -0.2611
 5887TIP3    H139220   1.725   1.715   0.189 -1.4795  1.3372  1.3134
 5887TIP3    H239221   1.735   1.564   0.180  1.4568  1.5304  0.2038
 5888TIP3   OH239222   6.137   5.017   0.967  0.0012  0.4815 -0.3589
 5888TIP3    H139223   6.160   5.021   0.874 -1.1440  1.4286 -0.6197
 5888TIP3    H239224   6.047   5.050   0.972 -0.1774 -0.1255  1.0161
 5889TIP3   OH239225   2.393   1.944   0.548 -0.3124 -0.4035 -0.6437
 5889TIP3    H139226   2.410   1.853   0.572  1.8581  0.4715  1.5521
 5889TIP3    H239227   2.310   1.965   0.592  0.2203 -0.7813  0.5951
 5890TIP3   OH239228   2.331   1.066   0.797 -0.0552 -0.0613  0.3595
 5890TIP3    H139229   2.367   1.155   0.793  0.5297 -0.3416 -2.5432
 5890TIP3    H239230   2.407   1.010   0.815  0.0671 -0.1705 -0.4416
 5891TIP3   OH239231   6.214   4.547   5.949  0.1955 -0.2729 -0.0377
 5891TIP3    H139232   6.174   4.634   5.943  1.4108  0.2339 -1.8010
 5891TIP3    H239233   6.304   4.561   5.919  0.3635 -2.1725 -0.5230
 5892TIP3   OH239234   0.408   2.386   8.377 -0.0663 -0.4731 -0.0634
 5892TIP3    H139235   0.342   2.447   8.411  0.2798 -0.6693  1.0184
 5892TIP3    H239236   0.479   2.390   8.442  1.2063  0.0976 -1.4327
 5893TIP3   OH239237   5.957   6.241   6.823  0.4333 -0.2927 -0.2051
 5893TIP3    H139238   5.995   6.245   6.735 -0.3351 -0.2140 -0.5512
 5893TIP3    H239239   6.031   6.227   6.882  1.2704  1.9185 -0.6403
 5894TIP3   OH239240   0.370   1.291   6.405 -0.5995  0.0122  0.1996
 5894TIP3    H139241   0.422   1.213   6.387  1.5268  1.0251  1.5008
 5894TIP3    H239242   0.394   1.352   6.336 -1.2939 -0.0448 -0.0982
 5895TIP3   OH239243   4.427   6.045   8.140 -0.7002  0.2660  0.2848
 5895TIP3    H139244   4.435   6.140   8.147 -1.0402  0.2936  0.2894
 5895TIP3    H239245   4.335   6.029   8.118 -1.3687 -0.1928  3.0100
 5896TIP3   OH239246   6.081   5.287   0.457  0.1773 -0.1824 -0.0363
 5896TIP3    H139247   6.156   5.250   0.411 -0.4449 -1.6291  0.0479
 5896TIP3    H239248   6.118   5.331   0.533  0.9425 -0.8376 -0.0223
 5897TIP3   OH239249   1.866   4.143   0.404  0.4856  0.7113  0.3020
 5897TIP3    H139250   1.792   4.106   0.452  0.5446  0.2354  0.0268
 5897TIP3    H239251   1.881   4.228   0.446 -0.5442  1.0453  0.0297
 5898TIP3   OH239252   3.028   6.142   7.637  0.1756 -0.1427  0.6351
 5898TIP3    H139253   3.103   6.083   7.625  0.6222  0.1143  1.9260
 5898TIP3    H239254   2.953   6.084   7.648  0.4572 -0.4508  0.9487
 5899TIP3   OH239255   0.170   3.539   7.102 -0.1784 -0.2344  0.2317
 5899TIP3    H139256   0.113   3.603   7.145 -2.5768  0.0375 -2.9836
 5899TIP3    H239257   0.110   3.473   7.068  1.6127 -0.9827 -1.6906
 5900TIP3   OH239258   0.412   3.825   7.142  0.0643  0.3986 -0.0788
 5900TIP3    H139259   0.455   3.907   7.117  0.3586 -0.1815 -1.6250
 5900TIP3    H239260   0.477   3.778   7.194  1.0403 -0.0733 -1.6355
 5901TIP3   OH239261   4.984   1.218   0.116  0.3290 -0.5109  0.2078
 5901TIP3    H139262   5.058   1.194   0.060  0.3913 -0.7588  0.3959
 5901TIP3    H239263   4.932   1.139   0.122  0.1269 -0.3789  0.2004
 5902TIP3   OH239264   3.598   4.913   6.347 -0.4960  0.6496  0.4206
 5902TIP3    H139265   3.644   4.881   6.269  0.5913  0.7511  0.9986
 5902TIP3    H239266   3.668   4.946   6.404 -1.2852  0.7023  1.3837
 5903TIP3   OH239267   5.822   1.649   8.167 -0.7328  0.4365 -0.2754
 5903TIP3    H139268   5.856   1.580   8.110 -1.5648  1.1755 -1.7271
 5903TIP3    H239269   5.893   1.712   8.173 -0.0648 -0.3744  0.8435
 5904TIP3   OH239270   5.512   0.807   7.587  0.0041  0.3849 -0.7204
 5904TIP3    H139271   5.516   0.847   7.500 -0.0888 -0.2748 -1.0327
 5904TIP3    H239272   5.570   0.731   7.582 -0.6482 -0.1443 -0.4745
 5905TIP3   OH239273   0.923   2.363   8.707  0.2486 -0.0622 -0.5925
 5905TIP3    H139274   1.011   2.340   8.737  0.4520 -0.3547 -1.3639
 5905TIP3    H239275   0.881   2.278   8.690  0.2044  0.0809 -1.2554
 5906TIP3   OH239276   5.624   0.920   0.491 -0.2464  0.0156 -0.9920
 5906TIP3    H139277   5.529   0.920   0.504 -0.0653  0.2635  0.5898
 5906TIP3    H239278   5.648   0.827   0.491 -0.4223 -0.0307 -0.7871
 5907TIP3   OH239279   1.863   2.017   6.295  0.2058 -0.4767 -0.0624
 5907TIP3    H139280   1.889   2.063   6.216 -0.7189  0.7936  0.3508
 5907TIP3    H239281   1.768   2.006   6.287  0.1777 -0.8238  0.6250
 5908TIP3   OH239282   4.629   0.007   7.238 -0.5823 -0.3276 -0.2123
 5908TIP3    H139283   4.588   0.027   7.154  0.2490 -0.2120 -0.5948
 5908TIP3    H239284   4.620  -0.088   7.247 -0.2874 -0.3943 -0.6300
 5909TIP3   OH239285   5.196   1.616   8.529 -0.5465 -0.5414  0.0287
 5909TIP3    H139286   5.280   1.659   8.510  0.9756 -3.6100 -0.7716
 5909TIP3    H239287   5.140   1.687   8.562  1.8383  1.9300 -0.8561
 5910TIP3   OH239288   3.467   4.731   1.009 -0.6664  0.6239  0.4742
 5910TIP3    H139289   3.484   4.666   1.077 -0.2578  0.9893  0.7227
 5910TIP3    H239290   3.385   4.701   0.968  0.8990 -1.6176 -1.2944
 5911TIP3   OH239291   2.695   2.270   1.230 -0.0563  0.2731 -0.4851
 5911TIP3    H139292   2.720   2.336   1.294 -2.0065  0.0761  0.5475
 5911TIP3    H239293   2.667   2.320   1.153  0.2816  0.5737 -0.4123
 5912TIP3   OH239294   1.830   4.810   0.222  0.2280  0.0436  0.0278
 5912TIP3    H139295   1.903   4.854   0.178  1.1302 -1.0257  0.4224
 5912TIP3    H239296   1.765   4.880   0.234  1.1597  1.0162 -0.3595
 5913TIP3   OH239297   2.662   0.019   8.532 -0.2990  0.3406  0.4170
 5913TIP3    H139298   2.672   0.055   8.620 -0.2061 -1.6978  1.3071
 5913TIP3    H239299   2.752   0.018   8.497  0.0124 -0.8576  1.1860
 5914TIP3   OH239300   2.848   2.950   2.131  0.4498  0.0621 -0.2848
 5914TIP3    H139301   2.827   2.941   2.038 -0.1741 -2.5385  0.0293
 5914TIP3    H239302   2.943   2.942   2.135  0.5004  0.4264 -0.7237
 5915TIP3   OH239303   6.724   2.257   7.162  0.2336  0.0939  0.1469
 5915TIP3    H139304   6.812   2.256   7.198  0.2696  0.7918  0.0813
 5915TIP3    H239305   6.668   2.280   7.236  0.2335  0.8378 -0.0824
 5916TIP3   OH239306   0.348   4.373   1.486  0.0188 -0.3984  0.0169
 5916TIP3    H139307   0.397   4.454   1.499 -2.2578  0.9769  0.5126
 5916TIP3    H239308   0.361   4.323   1.567  0.9999 -0.3191 -0.0809
 5917TIP3   OH239309   5.584   6.011   7.003 -0.0667 -0.4879 -0.4000
 5917TIP3    H139310   5.623   6.039   7.086 -0.2995 -0.9700 -0.1217
 5917TIP3    H239311   5.497   6.050   7.003 -0.4727 -1.3484  0.0865
 5918TIP3   OH239312   0.816   6.000   8.434 -0.1204  0.4804  0.3444
 5918TIP3    H139313   0.825   6.034   8.523  0.3695  1.0323  0.0954
 5918TIP3    H239314   0.722   6.004   8.416 -0.0779  1.7734  0.3118
 5919TIP3   OH239315   2.155   6.754   0.744  0.2979  0.1199  0.1360
 5919TIP3    H139316   2.166   6.775   0.837  2.2393  2.1124 -0.4686
 5919TIP3    H239317   2.088   6.815   0.713  1.5215  1.3063 -0.2819
 5920TIP3   OH239318   3.135   0.639   6.413 -0.1990 -0.5430  0.1469
 5920TIP3    H139319   3.223   0.618   6.442 -0.3623  0.0697  1.1273
 5920TIP3    H239320   3.118   0.726   6.447 -1.2466 -0.7145  0.1140
 5921TIP3   OH239321   0.810   0.421   8.782  0.2003 -0.4786 -0.6799
 5921TIP3    H139322   0.838   0.494   8.837 -1.0988  0.2509 -0.9281
 5921TIP3    H239323   0.884   0.360   8.783  0.3170 -0.4077  1.6757
 5922TIP3   OH239324   4.931   3.538   6.950  0.1254 -0.0535  0.1370
 5922TIP3    H139325   4.968   3.473   7.010  0.1068 -0.7124 -0.5588
 5922TIP3    H239326   4.836   3.526   6.957  0.1381 -0.4920 -0.4178
 5923TIP3   OH239327   0.447   1.260   0.068  0.4988 -0.2970 -0.3302
 5923TIP3    H139328   0.453   1.304   0.153  1.1967  0.9156 -0.9724
 5923TIP3    H239329   0.353   1.258   0.049  0.3219 -0.7241  0.5321
 5924TIP3   OH239330   1.200   4.248   7.570  0.0219  0.4190  0.1779
 5924TIP3    H139331   1.252   4.326   7.589  0.2638 -0.2480  2.6041
 5924TIP3    H239332   1.116   4.264   7.613 -1.3299  0.8236 -2.4050
 5925TIP3   OH239333   4.290   3.870   0.589  0.1597 -0.4450 -0.0463
 5925TIP3    H139334   4.199   3.901   0.582  0.6924  1.1395 -0.3442
 5925TIP3    H239335   4.307   3.866   0.683 -0.4694 -1.5469  0.0303
 5926TIP3   OH239336   1.016   6.582   7.090  0.2155  0.1154 -0.0913
 5926TIP3    H139337   0.920   6.581   7.089 -0.0641  4.6100  0.9927
 5926TIP3    H239338   1.040   6.529   7.166 -1.5605  0.6595  0.9096
 5927TIP3   OH239339   4.337   4.843   6.895  0.2105 -0.4998  0.1319
 5927TIP3    H139340   4.417   4.792   6.884 -0.0789 -1.2443  1.2317
 5927TIP3    H239341   4.314   4.871   6.807  1.2152 -0.9933 -0.3078
 5928TIP3   OH239342   2.650   0.069   0.534 -0.2462  0.1375  0.4737
 5928TIP3    H139343   2.685  -0.002   0.479 -2.0089  0.8401 -1.6770
 5928TIP3    H239344   2.570   0.033   0.571  0.3176  0.0845  1.6777
 5929TIP3   OH239345   4.356   3.828   6.211  0.3810  0.7074 -0.3587
 5929TIP3    H139346   4.449   3.805   6.213  0.5955  1.3922 -1.3411
 5929TIP3    H239347   4.313   3.749   6.177  0.5377  0.2309  0.5256
 5930TIP3   OH239348   1.804   0.610   6.902 -0.1229 -0.2885  0.2618
 5930TIP3    H139349   1.721   0.631   6.946 -1.0176 -0.6386 -1.1770
 5930TIP3    H239350   1.779   0.547   6.834  1.7574 -2.4711  1.4925
 5931TIP3   OH239351   4.689   3.783   0.659 -0.2624  0.0187 -0.6615
 5931TIP3    H139352   4.765   3.730   0.634  0.7599  2.0560 -2.1153
 5931TIP3    H239353   4.723   3.872   0.667 -2.2977  0.8152 -0.2958
 5932TIP3   OH239354   3.882   4.531   8.170 -0.3379 -0.3586 -0.0525
 5932TIP3    H139355   3.879   4.611   8.222  0.3790  0.2622 -0.9178
 5932TIP3    H239356   3.967   4.492   8.191  0.7494  0.8015 -1.9740
 5933TIP3   OH239357   1.404   5.680   7.108  0.0153  0.1050  0.2256
 5933TIP3    H139358   1.472   5.689   7.041 -0.9206 -1.8890 -1.1067
 5933TIP3    H239359   1.415   5.591   7.141 -1.9799 -0.3254 -0.1370
 5934TIP3   OH239360   4.662   2.668   0.295 -0.3172  0.0524  0.5403
 5934TIP3    H139361   4.734   2.635   0.241  0.6879 -0.0939  1.9148
 5934TIP3    H239362   4.659   2.610   0.371 -1.0240  0.8393  1.1439
 5935TIP3   OH239363   6.357   3.307   0.505 -0.4655  0.0265 -0.4361
 5935TIP3    H139364   6.292   3.245   0.537 -0.2983 -0.4542 -1.0082
 5935TIP3    H239365   6.342   3.311   0.411 -0.9280  1.3908 -0.3272
 5936TIP3   OH239366   0.861   3.158   7.873 -0.4437 -0.6778 -0.3284
 5936TIP3    H139367   0.903   3.188   7.792 -0.7927 -2.2211 -1.1247
 5936TIP3    H239368   0.896   3.215   7.941  1.3894 -0.6136 -1.2666
 5937TIP3   OH239369   2.578   4.670   0.462 -0.3122  0.1763 -0.1469
 5937TIP3    H139370   2.652   4.696   0.409  0.8831  0.7611  1.7131
 5937TIP3    H239371   2.502   4.711   0.420  0.7599  1.7383 -0.6403
 5938TIP3   OH239372   5.835   0.262   8.629 -0.2873  0.4724  0.2172
 5938TIP3    H139373   5.796   0.287   8.713 -0.2425  1.5803 -0.0861
 5938TIP3    H239374   5.840   0.166   8.633 -0.5695  0.4932  1.3483
 5939TIP3   OH239375   2.884   1.366   1.140 -0.0670  0.0123 -0.0336
 5939TIP3    H139376   2.864   1.290   1.085  1.8296 -1.4660  1.1850
 5939TIP3    H239377   2.847   1.343   1.226 -0.0984  0.8001  0.1708
 5940TIP3   OH239378   4.319   5.684   6.401  0.0305  0.3013 -0.1115
 5940TIP3    H139379   4.373   5.611   6.429  0.1174  1.3560  2.7633
 5940TIP3    H239380   4.360   5.713   6.319  0.9336 -1.8324 -0.4800
 5941TIP3   OH239381   2.915   6.170   0.095 -0.5775 -0.3745 -0.0975
 5941TIP3    H139382   2.906   6.263   0.074  0.9969  0.7696  3.4376
 5941TIP3    H239383   2.837   6.150   0.147 -1.0875 -1.1554 -1.1478
 5942TIP3   OH239384   4.955   1.265   7.725 -0.2153 -0.6468 -0.4812
 5942TIP3    H139385   4.914   1.251   7.640  0.0871  0.8493 -0.9081
 5942TIP3    H239386   4.981   1.357   7.724 -0.9755 -0.3441  1.5656
 5943TIP3   OH239387   2.199   2.856   0.121  1.1745  0.6038  0.7954
 5943TIP3    H139388   2.181   2.949   0.136 -0.5646  0.3442  0.5146
 5943TIP3    H239389   2.127   2.811   0.164  0.3589 -0.4747 -1.5554
 5944TIP3   OH239390   2.124   3.949   7.342  0.0766 -0.2452  0.1802
 5944TIP3    H139391   2.156   3.885   7.279  0.4136  0.8787 -0.8226
 5944TIP3    H239392   2.146   3.911   7.428  1.6377 -0.7673 -0.4220
 5945TIP3   OH239393   4.825   5.706   0.185  0.3453 -0.4345 -0.3899
 5945TIP3    H139394   4.861   5.755   0.258  0.2222  0.1045 -0.6884
 5945TIP3    H239395   4.783   5.630   0.226  0.6702 -0.3778  0.0584
 5946TIP3   OH239396   2.572   3.416   6.926 -0.3642  0.1344 -0.6188
 5946TIP3    H139397   2.615   3.338   6.892  0.5108 -0.2127  1.1203
 5946TIP3    H239398   2.532   3.387   7.008 -1.6319  1.1016 -0.8704
 5947TIP3   OH239399   2.482   0.759   0.214  0.4202 -0.8027  0.0724
 5947TIP3    H139400   2.569   0.729   0.186  1.3357  2.1104 -0.5468
 5947TIP3    H239401   2.430   0.762   0.134  0.6496  0.1350 -0.0543
 5948TIP3   OH239402   4.302   0.363   6.937  0.3038 -0.0181  0.2316
 5948TIP3    H139403   4.319   0.410   6.856 -0.1687 -0.5444 -0.1853
 5948TIP3    H239404   4.374   0.387   6.995 -0.6000  2.2812  0.5265
 5949TIP3   OH239405   2.494   3.963   7.249 -0.1068 -0.6760  0.0889
 5949TIP3    H139406   2.429   4.021   7.288  0.1646 -0.5831  0.4119
 5949TIP3    H239407   2.565   4.021   7.222 -0.4270 -0.7041 -0.8358
 5950TIP3   OH239408   5.631   1.078   8.831  0.3823  0.1246  0.2458
 5950TIP3    H139409   5.638   1.053   8.739 -2.2685 -0.3004  0.0541
 5950TIP3    H239410   5.606   0.996   8.875  0.3747  0.5870  1.1137
 5951TIP3   OH239411   5.688   5.175   6.557 -0.1707 -0.2551 -0.0086
 5951TIP3    H139412   5.631   5.132   6.620 -1.4811  1.0150 -0.2705
 5951TIP3    H239413   5.674   5.269   6.572 -1.6161  0.1435 -3.0122
 5952TIP3   OH239414   2.293   3.540   2.062  0.2451  0.0209  0.9942
 5952TIP3    H139415   2.279   3.498   2.147  0.1721 -0.0812  0.9326
 5952TIP3    H239416   2.287   3.468   1.999 -0.3031  0.1877  0.8531
 5953TIP3   OH239417   0.922   2.184   0.130  0.0390 -0.3974 -0.6196
 5953TIP3    H139418   1.001   2.226   0.096  0.6110 -0.3233  0.7341
 5953TIP3    H239419   0.953   2.101   0.167 -0.2836  0.1652  1.0004
 5954TIP3   OH239420   1.626   1.815   8.675  0.4332 -0.0395  0.3728
 5954TIP3    H139421   1.686   1.854   8.611 -0.3704 -0.1156 -0.4401
 5954TIP3    H239422   1.676   1.743   8.713  0.9741  0.1043 -0.0524
 5955TIP3   OH239423   5.548   5.664   1.107  0.3552  0.5869 -0.2762
 5955TIP3    H139424   5.561   5.759   1.114 -0.9066  0.7062  0.8391
 5955TIP3    H239425   5.461   5.649   1.144  0.3961 -0.9760 -0.7442
 5956TIP3   OH239426   4.563   2.385   8.547  0.0242  0.0008  0.3372
 5956TIP3    H139427   4.650   2.368   8.510  0.3553 -0.1193  1.1430
 5956TIP3    H239428   4.536   2.468   8.507  1.0379  0.6650  0.9678
 5957TIP3   OH239429   1.267   3.266   1.222  0.1901 -0.3150 -0.6101
 5957TIP3    H139430   1.195   3.243   1.282  0.8171 -0.3957  0.1199
 5957TIP3    H239431   1.223   3.312   1.150 -0.6613 -0.8127 -0.4346
 5958TIP3   OH239432   2.826   1.148   0.982 -0.1769  0.0014  0.2603
 5958TIP3    H139433   2.774   1.101   0.917  1.4366 -1.5740  0.0421
 5958TIP3    H239434   2.885   1.204   0.931  1.2810 -1.4422  0.3012
 5959TIP3   OH239435   6.630   6.149   6.679  0.4266 -0.0873  0.0650
 5959TIP3    H139436   6.535   6.163   6.670  0.0621 -2.7898 -1.3040
 5959TIP3    H239437   6.668   6.236   6.664 -1.8139  1.1192  0.8500
 5960TIP3   OH239438   6.128   4.073   2.284 -0.5005 -0.1412 -0.6109
 5960TIP3    H139439   6.189   4.029   2.224  0.1856  0.2563 -0.2183
 5960TIP3    H239440   6.049   4.018   2.282 -0.4471 -0.2106 -1.7644
 5961TIP3   OH239441   1.812   4.680   8.436 -0.3103 -0.2767 -0.5201
 5961TIP3    H139442   1.860   4.731   8.371 -0.2721  0.0399 -0.2437
 5961TIP3    H239443   1.736   4.734   8.457 -0.0389 -0.1350  0.1033
 5962TIP3   OH239444   4.728   3.884   6.365  0.5238  0.0747  0.1478
 5962TIP3    H139445   4.726   3.964   6.313  2.3137 -0.8687 -1.5103
 5962TIP3    H239446   4.698   3.815   6.305 -2.3319 -0.4261  1.9235
 5963TIP3   OH239447   4.431   1.362   6.888 -0.5745  0.1497 -0.5655
 5963TIP3    H139448   4.447   1.401   6.802  0.1838  1.0641 -0.0353
 5963TIP3    H239449   4.349   1.401   6.918 -0.0412  1.0223 -0.2230
 5964TIP3   OH239450   5.117   0.759   8.767 -0.4793 -0.0137 -0.5192
 5964TIP3    H139451   5.184   0.827   8.769  0.7556 -1.1957  0.0454
 5964TIP3    H239452   5.073   0.766   8.852 -0.4679  0.1806 -0.5289
 5965TIP3   OH239453   3.083   3.558   7.517  0.0001 -0.0862 -0.3570
 5965TIP3    H139454   3.134   3.633   7.488 -0.1927  0.1318 -0.1375
 5965TIP3    H239455   3.007   3.557   7.459  0.1026 -0.2289 -0.4880
 5966TIP3   OH239456   3.969   5.960   0.198 -0.3637  0.0064 -0.6557
 5966TIP3    H139457   4.010   5.980   0.282 -0.3505  0.2445 -0.7194
 5966TIP3    H239458   3.975   5.865   0.191 -0.4752 -0.0271 -0.3285
 5967TIP3   OH239459   1.774   0.220   0.382 -0.1715 -0.0643 -0.0495
 5967TIP3    H139460   1.840   0.151   0.368 -1.1913 -1.1584  0.3816
 5967TIP3    H239461   1.745   0.207   0.472 -1.7799 -0.3396 -0.5829
 5968TIP3   OH239462   6.298   3.009   0.588 -0.6077 -0.2257  0.0959
 5968TIP3    H139463   6.297   2.916   0.567 -3.4591 -0.1063 -0.6394
 5968TIP3    H239464   6.259   3.015   0.675  2.0441  0.1394  1.3566
 5969TIP3   OH239465   6.439   6.373   5.943 -0.5991  0.3788 -0.6068
 5969TIP3    H139466   6.428   6.392   6.036 -0.0454  3.1953 -1.0247
 5969TIP3    H239467   6.354   6.393   5.904 -0.8352 -0.8090 -0.7446
 5970TIP3   OH239468   5.501   2.455   8.214  0.0553 -0.0823 -0.0754
 5970TIP3    H139469   5.503   2.361   8.233 -2.1489 -0.3006 -0.6712
 5970TIP3    H239470   5.525   2.496   8.297 -0.6775 -1.1678  0.7161
 5971TIP3   OH239471   0.770   0.751   1.255  0.1338 -0.3669  0.3012
 5971TIP3    H139472   0.748   0.695   1.330 -1.4743  0.8194  0.7747
 5971TIP3    H239473   0.721   0.831   1.270  0.1309  0.0807 -1.8018
 5972TIP3   OH239474   4.022   4.633   6.808  0.3552  0.3185  0.0246
 5972TIP3    H139475   3.990   4.723   6.798 -1.4971 -0.1945  0.9895
 5972TIP3    H239476   4.036   4.623   6.902 -3.3475 -1.5543  0.5621
 5973TIP3   OH239477   5.042   0.038   0.181 -0.3491 -0.0083  0.2709
 5973TIP3    H139478   5.062   0.099   0.110 -1.5476 -0.0200 -0.1071
 5973TIP3    H239479   5.127   0.016   0.219  0.2691  0.4064 -0.8275
 5974TIP3   OH239480   0.676   1.418   6.204 -0.2849  0.4405 -0.0369
 5974TIP3    H139481   0.685   1.352   6.135 -1.1831 -1.1527  1.2845
 5974TIP3    H239482   0.583   1.440   6.204 -0.1529  1.0170  0.1585
 5975TIP3   OH239483   1.036   3.809   7.787 -0.1042 -0.4249  0.0679
 5975TIP3    H139484   1.064   3.779   7.874 -0.4157  0.8411  0.6300
 5975TIP3    H239485   0.942   3.827   7.798  0.1450  1.1189 -0.1112
 5976TIP3   OH239486   0.669   4.391   7.716  0.7590  0.8674  1.0729
 5976TIP3    H139487   0.642   4.420   7.803  0.2740 -0.2377  1.2974
 5976TIP3    H239488   0.619   4.311   7.700  1.1825  0.8093 -0.0338
 5977TIP3   OH239489   4.191   3.890   6.615 -0.0615 -0.0097  0.3167
 5977TIP3    H139490   4.228   3.835   6.683  0.8033  0.4103  0.1979
 5977TIP3    H239491   4.157   3.828   6.550 -0.5041 -0.4042  0.9151
 5978TIP3   OH239492   6.651   0.309   5.549 -0.2310 -0.4989  0.6970
 5978TIP3    H139493   6.580   0.301   5.613  0.1604 -0.4383  1.1400
 5978TIP3    H239494   6.707   0.233   5.566 -1.0681 -1.4909 -0.7627
 5979TIP3   OH239495   1.171   4.121   1.243  0.4803 -0.2228  0.2995
 5979TIP3    H139496   1.201   4.190   1.303 -0.4715 -0.9123  1.6328
 5979TIP3    H239497   1.248   4.065   1.230  0.5806 -0.3468  1.3148
 5980TIP3   OH239498   3.239   1.475   8.250 -0.0710 -0.3505 -0.4630
 5980TIP3    H139499   3.284   1.462   8.333 -0.3377 -1.9622 -0.5519
 5980TIP3    H239500   3.272   1.405   8.193 -0.3079  0.3904 -1.5491
 5981TIP3   OH239501   5.440   2.049   7.634  0.2572 -0.1738  0.2528
 5981TIP3    H139502   5.433   2.144   7.630 -0.9032 -0.2721 -3.3883
 5981TIP3    H239503   5.377   2.023   7.702 -1.2143  1.5624 -0.3792
 5982TIP3   OH239504   6.345   2.114   6.573 -0.2270 -0.1747 -0.0981
 5982TIP3    H139505   6.349   2.189   6.513  1.3474  0.5410  0.8251
 5982TIP3    H239506   6.408   2.136   6.642 -0.9383 -1.6276  1.0553
 5983TIP3   OH239507   1.404   5.015   7.144  0.5459 -0.6907  0.0262
 5983TIP3    H139508   1.478   5.061   7.182  0.3814  0.2158 -0.6790
 5983TIP3    H239509   1.327   5.057   7.183  0.3833  0.0309 -1.0011
 5984TIP3   OH239510   4.575   5.728   5.894  0.1779  0.8490  0.3085
 5984TIP3    H139511   4.596   5.642   5.931 -0.9214  0.2443 -0.3974
 5984TIP3    H239512   4.655   5.757   5.851 -0.0845 -1.0133 -1.6469
 5985TIP3   OH239513   6.043   0.031   0.034 -0.0877 -0.4073 -0.3566
 5985TIP3    H139514   6.073   0.069   0.117 -0.3913 -1.5856  0.3290
 5985TIP3    H239515   6.087  -0.054   0.030  1.1522  0.2604 -2.1983
 5986TIP3   OH239516   2.810   3.459   0.625  0.8729 -0.4230  0.3119
 5986TIP3    H139517   2.776   3.381   0.581 -1.3269  1.6114 -1.8918
 5986TIP3    H239518   2.905   3.455   0.611  0.6574 -2.0175 -0.9261
 5987TIP3   OH239519   4.139   0.233   8.254  0.3444 -0.1392  0.1667
 5987TIP3    H139520   4.109   0.312   8.299 -0.2097  1.2920 -2.4779
 5987TIP3    H239521   4.072   0.168   8.272 -0.3869  0.7018  0.5478
 5988TIP3   OH239522   3.465   0.677   0.620 -0.2780 -0.3148  0.1974
 5988TIP3    H139523   3.457   0.770   0.643  1.2050  0.2939 -1.5307
 5988TIP3    H239524   3.398   0.663   0.553  1.2473  0.2677 -1.5272
 5989TIP3   OH239525   2.999   4.187   8.520  0.3343 -0.7051  0.0975
 5989TIP3    H139526   2.954   4.267   8.495 -0.1084 -1.2553 -0.9330
 5989TIP3    H239527   3.043   4.209   8.602 -0.6007  0.2757  0.3543
 5990TIP3   OH239528   3.881   1.343   1.037  0.0928 -0.1789 -0.2601
 5990TIP3    H139529   3.893   1.342   1.132 -0.8869  0.7648 -0.1138
 5990TIP3    H239530   3.946   1.406   1.006 -0.5328  0.5682 -0.0672
 5991TIP3   OH239531   2.001   5.540   0.020  0.1764 -0.5732 -0.0461
 5991TIP3    H139532   1.936   5.528   0.089 -0.5533  1.0633 -0.3982
 5991TIP3    H239533   1.974   5.480  -0.050  0.1017 -1.2037  0.5106
 5992TIP3   OH239534   2.860   5.857   0.320 -0.3078 -0.1703 -0.2616
 5992TIP3    H139535   2.921   5.895   0.384 -2.4700  1.3081  1.0685
 5992TIP3    H239536   2.911   5.851   0.240  1.2886  2.1433  0.4482
 5993TIP3   OH239537   4.855   5.688   8.505 -0.6025  0.7064 -0.9599
 5993TIP3    H139538   4.766   5.659   8.482 -0.7355 -0.7740  1.1382
 5993TIP3    H239539   4.844   5.735   8.587  0.7043 -0.7959  0.1197
 5994TIP3   OH239540   3.073   6.002   6.465  0.1913  0.2786  0.0224
 5994TIP3    H139541   3.025   6.026   6.386  3.3375  2.6461 -1.3570
 5994TIP3    H239542   3.117   5.920   6.442 -1.3545 -0.7379  0.5341
 5995TIP3   OH239543   6.234   1.911   8.557 -0.1471 -0.1391  0.2193
 5995TIP3    H139544   6.212   1.841   8.619 -0.2598  0.1039  0.4553
 5995TIP3    H239545   6.270   1.865   8.481  0.5374 -0.4078  0.6937
 5996TIP3   OH239546   1.167   6.678   1.977  0.3387 -0.1753  0.3613
 5996TIP3    H139547   1.248   6.718   2.009  0.1636 -0.0648  0.6731
 5996TIP3    H239548   1.156   6.711   1.888  1.1359 -0.9279 -0.0349
 5997TIP3   OH239549   2.253   4.316   8.640 -0.0250  0.2673 -0.5114
 5997TIP3    H139550   2.159   4.313   8.659  0.1920  0.3684  0.6400
 5997TIP3    H239551   2.289   4.237   8.679  0.4420  0.4627 -0.5297
 5998TIP3   OH239552   2.593   1.611   7.680 -0.4579 -0.4567 -0.1696
 5998TIP3    H139553   2.674   1.596   7.728 -0.0642 -0.5800 -0.8484
 5998TIP3    H239554   2.525   1.617   7.747  0.2175  0.4097  0.4675
 5999TIP3   OH239555   4.121   5.080   1.655 -0.3181  0.4610  0.3508
 5999TIP3    H139556   4.065   5.022   1.706 -1.5976  0.2803 -1.1741
 5999TIP3    H239557   4.100   5.168   1.686 -0.4276  0.2965  0.7451
 6000TIP3   OH239558   2.780   2.885   6.296  0.3640 -0.3328 -0.1795
 6000TIP3    H139559   2.875   2.884   6.283  0.5948  0.9735  1.0991
 6000TIP3    H239560   2.767   2.947   6.367 -1.5062 -0.1716 -0.6245
 6001TIP3   OH239561   5.843   1.774   0.478 -0.6583  0.3900 -0.0237
 6001TIP3    H139562   5.922   1.753   0.428 -0.8811 -0.8339  0.0996
 6001TIP3    H239563   5.875   1.823   0.554 -0.0460  0.1624 -0.1282
 6002TIP3   OH239564   3.517   5.861   7.991  0.2411 -0.5677  0.1449
 6002TIP3    H139565   3.537   5.773   7.960 -0.2113 -0.5877 -0.0942
 6002TIP3    H239566   3.509   5.852   8.086 -2.9552 -1.4483 -0.0888
 6003TIP3   OH239567   2.477   6.689   8.035  0.2207 -0.0756  0.6634
 6003TIP3    H139568   2.542   6.739   8.085 -1.1975  1.1013  1.3791
 6003TIP3    H239569   2.478   6.730   7.948  1.4027 -0.9754  0.2170
 6004TIP3   OH239570   4.304   1.726   6.702  0.0973  0.7670 -0.0077
 6004TIP3    H139571   4.369   1.656   6.697 -0.5216  0.0764  1.1965
 6004TIP3    H239572   4.230   1.694   6.651  0.6939  1.5843 -1.4392
 6005TIP3   OH239573   4.826   5.502   7.832 -0.0593  0.0077 -0.1156
 6005TIP3    H139574   4.789   5.478   7.916  0.7758  1.7663  0.8102
 6005TIP3    H239575   4.773   5.577   7.803  1.1105  0.9068 -0.0024
 6006TIP3   OH239576   4.838   6.700   0.702  0.1164 -0.4824 -0.1436
 6006TIP3    H139577   4.760   6.725   0.652  0.5403 -0.3539 -0.7542
 6006TIP3    H239578   4.807   6.689   0.792 -1.3688 -3.7885 -0.9003
 6007TIP3   OH239579   1.449   3.516   8.477 -0.0202  0.0161  0.5295
 6007TIP3    H139580   1.392   3.471   8.415 -0.1631  0.8739  0.0269
 6007TIP3    H239581   1.515   3.559   8.423  0.8964 -0.6648  1.0884
 6008TIP3   OH239582   4.160   4.353   7.518  0.3942 -0.0309  0.2669
 6008TIP3    H139583   4.207   4.379   7.438 -0.0720  1.0661  0.3374
 6008TIP3    H239584   4.108   4.277   7.491  0.7806 -0.1098 -0.2869
 6009TIP3   OH239585   0.183   4.565   7.054 -0.3711 -0.5937  0.6023
 6009TIP3    H139586   0.143   4.483   7.084 -1.1046 -1.0489 -1.4285
 6009TIP3    H239587   0.109   4.621   7.030  0.1453 -0.3502 -0.4933
 6010TIP3   OH239588   0.399   0.496   7.472 -0.0885  0.3106  0.4265
 6010TIP3    H139589   0.329   0.558   7.451 -0.0150  0.4554  0.6040
 6010TIP3    H239590   0.461   0.505   7.400 -0.3219  0.0785  0.1968
 6011TIP3   OH239591   5.629   4.444   7.462  0.4803 -0.1300  0.2677
 6011TIP3    H139592   5.552   4.492   7.431  0.1499 -1.3893 -0.9275
 6011TIP3    H239593   5.700   4.509   7.459 -0.7204  1.4289  2.6253
 6012TIP3   OH239594   6.028   0.485   8.706 -0.2225  0.1672 -0.3464
 6012TIP3    H139595   6.010   0.489   8.613  0.2470 -0.7892 -0.4923
 6012TIP3    H239596   6.065   0.398   8.720  0.9747  0.7768  0.5056
 6013TIP3   OH239597   1.205   0.659   7.787 -0.0605 -0.2951 -0.0770
 6013TIP3    H139598   1.203   0.671   7.692  0.1694 -1.3152 -0.2194
 6013TIP3    H239599   1.272   0.592   7.802 -0.7796 -0.8668  0.7185
 6014TIP3   OH239600   0.066   3.495   6.587  0.2427  0.2437  0.0240
 6014TIP3    H139601   0.069   3.400   6.596  1.3166  0.2900  0.4095
 6014TIP3    H239602  -0.017   3.513   6.543  0.2487 -0.9000 -0.4970
 6015TIP3   OH239603   5.341   5.178   7.923  0.4459  0.5374  0.6488
 6015TIP3    H139604   5.262   5.227   7.947  0.8933  1.4824  0.2138
 6015TIP3    H239605   5.402   5.194   7.995 -0.0270 -0.8790  1.4058
 6016TIP3   OH239606   0.564   6.290   8.465 -0.4668  0.3625 -1.0673
 6016TIP3    H139607   0.539   6.216   8.521  1.0852 -1.6877 -2.8547
 6016TIP3    H239608   0.482   6.333   8.443 -1.7103 -2.0351 -1.4506
 6017TIP3   OH239609   4.964   4.370   8.679  0.1280  0.0751 -0.2583
 6017TIP3    H139610   5.046   4.420   8.681 -0.0907  0.4197  1.3001
 6017TIP3    H239611   4.899   4.433   8.648  0.6200 -0.5724 -2.9137
 6018TIP3   OH239612   4.781   0.228   0.845  0.6371  0.1080 -0.6629
 6018TIP3    H139613   4.706   0.182   0.808 -1.1994  0.9180  1.7118
 6018TIP3    H239614   4.857   0.176   0.820 -0.6843 -0.7578 -3.1875
 6019TIP3   OH239615   4.979   6.409   8.692 -0.1576  0.6161  0.8301
 6019TIP3    H139616   5.052   6.456   8.651  0.8212 -1.4789  0.0124
 6019TIP3    H239617   4.970   6.450   8.778  0.5502  2.3394  0.1290
 6020TIP3   OH239618   4.073   3.017   8.511 -0.4017 -0.3469 -0.0389
 6020TIP3    H139619   4.097   3.059   8.594  3.0787  0.3700 -1.2240
 6020TIP3    H239620   4.035   3.088   8.459  1.7915  0.4773 -0.6295
 6021TIP3   OH239621   3.987   1.855   8.400  0.0036 -0.4756  0.1104
 6021TIP3    H139622   4.041   1.802   8.459  0.6201 -0.1638 -0.1658
 6021TIP3    H239623   4.002   1.945   8.429  1.4501 -0.1849 -1.4122
 6022TIP3   OH239624   1.001   4.429   7.229  0.2509 -0.0488  0.0604
 6022TIP3    H139625   0.992   4.491   7.157 -1.2725 -1.0520 -0.6449
 6022TIP3    H239626   0.989   4.483   7.308  2.3377  1.1319 -0.3363
 6023TIP3   OH239627   3.690   2.831   7.854 -0.7386 -0.2586 -0.3925
 6023TIP3    H139628   3.703   2.745   7.894 -1.3880 -0.1784 -0.0003
 6023TIP3    H239629   3.775   2.874   7.861 -0.3570 -0.9305 -0.7584
 6024TIP3   OH239630   2.220   3.142   7.358 -0.0913 -0.0783  0.2751
 6024TIP3    H139631   2.296   3.108   7.311  0.1113 -1.3669  1.4767
 6024TIP3    H239632   2.202   3.226   7.317  0.4415 -0.8677 -1.6995
 6025TIP3   OH239633   5.218   1.535   8.804 -1.0051 -0.6412 -0.0704
 6025TIP3    H139634   5.127   1.506   8.814 -1.5228  0.4776 -1.1976
 6025TIP3    H239635   5.223   1.566   8.713 -0.1671  1.5681  0.6607
 6026TIP3   OH239636   3.563   1.880   6.294  0.5207  0.0193 -0.6059
 6026TIP3    H139637   3.589   1.879   6.386 -0.5810  2.4810 -0.1887
 6026TIP3    H239638   3.605   1.958   6.258  0.0281 -0.2963 -1.9189
 6027TIP3   OH239639   3.988   0.932   7.284 -0.0131 -0.2003  0.6796
 6027TIP3    H139640   3.967   0.966   7.197 -0.4781  0.5627  1.0768
 6027TIP3    H239641   4.031   0.848   7.267 -1.8929 -1.0571 -0.2556
 6028TIP3   OH239642   5.382   4.959   1.254  0.2070 -0.2211  0.0087
 6028TIP3    H139643   5.330   5.030   1.291  1.2135  0.1754  0.6991
 6028TIP3    H239644   5.323   4.883   1.257 -1.4222  0.8208 -2.1222
 6029TIP3   OH239645   0.202   1.838   2.243 -0.3548  1.0117 -0.5391
 6029TIP3    H139646   0.174   1.747   2.253  2.2018  0.1828 -0.1641
 6029TIP3    H239647   0.207   1.851   2.148  2.4454 -0.4185 -0.6839
 6030TIP3   OH239648   2.216   0.044   7.936  0.2582 -0.1244 -0.4867
 6030TIP3    H139649   2.301   0.008   7.962 -0.3565  0.2552  2.4709
 6030TIP3    H239650   2.189   0.096   8.012 -1.9774  0.9222 -1.9238
 6031TIP3   OH239651   3.571   0.857   7.893 -0.1587 -0.1228  0.0391
 6031TIP3    H139652   3.662   0.879   7.874  0.0553 -1.0249 -0.0118
 6031TIP3    H239653   3.575   0.772   7.936 -1.0713 -0.8005 -1.1733
 6032TIP3   OH239654   4.069   2.703   1.092 -0.2371 -0.4264  0.2125
 6032TIP3    H139655   4.024   2.773   1.138 -2.7550 -0.8507 -1.3911
 6032TIP3    H239656   4.053   2.721   0.999  3.4826 -0.3312 -0.5547
 6033TIP3   OH239657   4.905   0.423   8.371  0.0533 -0.4229 -0.1251
 6033TIP3    H139658   4.978   0.378   8.413  1.6006  1.3132 -0.7713
 6033TIP3    H239659   4.937   0.442   8.283 -1.5674 -0.4392 -0.7399
 6034TIP3   OH239660   1.767   1.036   8.295  0.0798  0.1599 -0.6890
 6034TIP3    H139661   1.836   0.996   8.348  0.6946  0.5610 -1.1786
 6034TIP3    H239662   1.687   1.024   8.346  0.3485 -1.1465 -0.5352
 6035TIP3   OH239663   0.970   4.078   5.927  0.0173  0.4601 -0.2543
 6035TIP3    H139664   0.986   4.025   5.849 -0.1890  1.9281 -1.3353
 6035TIP3    H239665   1.031   4.043   5.992 -0.1452 -1.1105 -0.9033
 6036TIP3   OH239666   4.223   1.105   1.029  0.4836  0.7263 -0.2545
 6036TIP3    H139667   4.291   1.107   1.096  0.0445 -0.8388  0.2739
 6036TIP3    H239668   4.142   1.121   1.076 -0.0407 -2.0097 -0.0210
 6037TIP3   OH239669   0.467   5.054   7.237  0.2960  0.7225 -0.5154
 6037TIP3    H139670   0.514   4.986   7.188  0.0678 -0.3529  0.7042
 6037TIP3    H239671   0.528   5.081   7.306 -0.7085 -0.4846  0.9079
 6038TIP3   OH239672   6.484   1.715   0.288  0.1639 -0.1830  0.3084
 6038TIP3    H139673   6.562   1.679   0.330  0.7340  0.3120 -0.3052
 6038TIP3    H239674   6.504   1.712   0.194  0.0045  1.2110  0.2116
 6039TIP3   OH239675   4.809   4.692   7.882 -0.2573 -0.1967 -0.3742
 6039TIP3    H139676   4.797   4.698   7.787 -1.0237 -1.4379 -0.3741
 6039TIP3    H239677   4.732   4.646   7.913 -0.8423  1.6207  1.0899
 6040TIP3   OH239678   6.421   0.262   1.035 -0.3696  0.2783  0.1654
 6040TIP3    H139679   6.468   0.256   1.119  0.7428  0.8827 -0.3955
 6040TIP3    H239680   6.341   0.311   1.056 -0.3270  0.0294  0.9592
 6041TIP3   OH239681   1.498   1.198   8.453  0.0012 -0.2173  0.1710
 6041TIP3    H139682   1.478   1.289   8.474 -0.2129 -0.2601  0.1587
 6041TIP3    H239683   1.459   1.184   8.367 -0.8536 -0.6072  0.6143
 6042TIP3   OH239684   1.345   5.346   0.729  0.4192  0.2352  0.6241
 6042TIP3    H139685   1.434   5.332   0.697  0.0280  0.6564 -0.6969
 6042TIP3    H239686   1.355   5.351   0.824  1.8519  0.5932  0.4881
 6043TIP3   OH239687   6.169   3.559   7.739 -0.7304  0.1720 -0.0162
 6043TIP3    H139688   6.195   3.649   7.756  0.6770 -0.4507  1.3479
 6043TIP3    H239689   6.116   3.534   7.815  0.5199 -0.7320  0.5951
 6044TIP3   OH239690   2.723   3.896   0.847  0.0702  0.3275  0.4933
 6044TIP3    H139691   2.689   3.902   0.757  1.7715  2.4184 -0.1004
 6044TIP3    H239692   2.781   3.820   0.845 -0.9359 -0.4676  0.2414
 6045TIP3   OH239693   1.410   2.893   7.491  0.0785  0.8778 -0.2762
 6045TIP3    H139694   1.456   2.809   7.497 -1.3869  0.1136  0.9485
 6045TIP3    H239695   1.351   2.882   7.417 -0.0311  0.8780 -0.1881
 6046TIP3   OH239696   2.512   5.530   0.104  0.2972 -0.3335 -0.5782
 6046TIP3    H139697   2.433   5.576   0.074 -0.1528 -0.2927  0.6212
 6046TIP3    H239698   2.552   5.496   0.023 -1.0968 -0.6010 -1.1850
 6047TIP3   OH239699   4.648   1.732   0.001 -0.2339  0.4649 -0.3763
 6047TIP3    H139700   4.693   1.796   0.055  1.6823 -1.1174  0.0169
 6047TIP3    H239701   4.648   1.770  -0.086  3.3710 -0.0268 -0.7610
 6048TIP3   OH239702   4.196   5.065   8.270  0.1296 -0.2295  0.1385
 6048TIP3    H139703   4.146   5.147   8.275  0.1285 -0.0937 -1.5239
 6048TIP3    H239704   4.281   5.091   8.235 -0.5418 -1.1405 -2.3894
 6049TIP3   OH239705   3.165   5.738   6.465  0.3526 -0.3264 -0.0666
 6049TIP3    H139706   3.094   5.699   6.414 -1.7643  1.8538  0.9612
 6049TIP3    H239707   3.142   5.719   6.556  0.6731  0.9685  0.3127
 6050TIP3   OH239708   4.936   3.131   7.989  0.1092  0.0338 -0.7461
 6050TIP3    H139709   4.916   3.161   7.900  0.3142 -0.2948 -0.9079
 6050TIP3    H239710   4.956   3.211   8.038 -0.6019  0.2752 -0.8373
 6051TIP3   OH239711   0.430   6.230   6.252 -0.3243  0.1959  0.1004
 6051TIP3    H139712   0.512   6.238   6.205  1.2591 -1.0407  2.4579
 6051TIP3    H239713   0.405   6.319   6.274  0.6133  0.5472 -0.2539
 6052TIP3   OH239714   3.854   1.558   7.627 -0.2440  0.0774 -0.0191
 6052TIP3    H139715   3.776   1.586   7.580 -0.6017 -0.9167 -0.0390
 6052TIP3    H239716   3.907   1.512   7.562  0.3628  0.7270 -0.0022
 6053TIP3   OH239717   6.249   1.362   7.170 -1.0997  0.3502  0.5011
 6053TIP3    H139718   6.308   1.375   7.096  1.2996 -1.3842  1.9697
 6053TIP3    H239719   6.188   1.436   7.166  1.2796  2.3780 -1.0234
 6054TIP3   OH239720   3.786   4.841   1.303 -0.6741 -0.0673 -0.0200
 6054TIP3    H139721   3.812   4.913   1.361 -2.6443  0.8818 -0.2371
 6054TIP3    H239722   3.775   4.766   1.362  0.1965  0.1085  0.3842
 6055TIP3   OH239723   3.087   3.511   8.174 -0.0488 -0.7186 -0.2011
 6055TIP3    H139724   3.173   3.485   8.140  0.7752 -0.3683  1.5238
 6055TIP3    H239725   3.028   3.441   8.146  0.9786 -1.4490 -0.6073
 6056TIP3   OH239726   6.353   2.525   1.905  0.8663 -0.4300  0.3120
 6056TIP3    H139727   6.369   2.619   1.897  2.0425 -0.6865 -0.6894
 6056TIP3    H239728   6.281   2.518   1.968 -0.3617  1.2034 -0.8319
 6057TIP3   OH239729   3.879   3.758   8.729  0.2633 -0.3553 -0.1792
 6057TIP3    H139730   3.784   3.758   8.724  0.1583  0.3118  1.3427
 6057TIP3    H239731   3.907   3.720   8.646 -1.2959  0.3065 -1.0509
 6058TIP3   OH239732   2.777   2.197   1.648 -0.1446  0.2249  0.3561
 6058TIP3    H139733   2.791   2.262   1.579  1.3843 -2.6138 -2.2757
 6058TIP3    H239734   2.865   2.169   1.673 -0.7476 -1.0565  1.1354
 6059TIP3   OH239735   4.902   0.957   0.520 -0.6153  0.4567 -0.0793
 6059TIP3    H139736   4.907   0.868   0.484  1.2857  0.7690 -0.7226
 6059TIP3    H239737   4.811   0.967   0.547 -0.8692 -1.7167  0.0886
 6060TIP3   OH239738   4.961   5.074   8.580 -0.1569 -0.4389 -0.2586
 6060TIP3    H139739   5.020   5.058   8.653 -0.8750 -1.0753  0.1898
 6060TIP3    H239740   4.976   5.000   8.521  1.3080  0.6821 -1.3809
 6061TIP3   OH239741   3.232   4.912   7.557 -0.0252  0.6492 -0.2678
 6061TIP3    H139742   3.189   4.972   7.618 -0.6157 -1.0024  1.0051
 6061TIP3    H239743   3.300   4.870   7.608  0.5612  0.4040 -1.2156
 6062TIP3   OH239744   2.086   4.623   6.222  0.0247  0.1174  0.5231
 6062TIP3    H139745   2.082   4.564   6.147  1.8568  1.6053 -0.8642
 6062TIP3    H239746   2.159   4.681   6.202  1.6346 -0.3551  4.1949
 6063TIP3   OH239747   3.304   5.512   0.180  0.5451 -0.2963 -0.2015
 6063TIP3    H139748   3.394   5.546   0.184  1.1256 -1.3270 -2.4749
 6063TIP3    H239749   3.315   5.420   0.156 -1.1244 -0.2567 -1.2479
 6064TIP3   OH239750   0.973   3.356   6.552  0.6759  0.4822 -0.7083
 6064TIP3    H139751   0.920   3.306   6.490  0.1800 -0.1845  0.2254
 6064TIP3    H239752   1.047   3.388   6.501  0.6793 -0.6893 -1.4671
 6065TIP3   OH239753   3.154   4.593   8.052  0.5783  0.6665  0.1537
 6065TIP3    H139754   3.098   4.579   7.976 -0.7909 -0.6019  1.3214
 6065TIP3    H239755   3.222   4.653   8.021 -0.9583  1.6512 -1.5379
 6066TIP3   OH239756   5.688   2.109   7.531 -0.4062 -0.0867 -0.2451
 6066TIP3    H139757   5.598   2.104   7.561 -0.6707 -0.5596 -1.0771
 6066TIP3    H239758   5.736   2.151   7.603 -1.0928 -0.7639  0.6219
 6067TIP3   OH239759   6.574   3.999   6.755 -0.3317 -0.6806  0.0457
 6067TIP3    H139760   6.536   3.911   6.748  0.2084 -0.9903  0.7593
 6067TIP3    H239761   6.510   4.048   6.807 -0.2113 -0.9273  0.4375
 6068TIP3   OH239762   6.413   4.602   0.687  0.8866 -0.6661  0.2579
 6068TIP3    H139763   6.381   4.516   0.661  0.4839 -0.6311  0.6256
 6068TIP3    H239764   6.334   4.651   0.711  1.0697 -0.0501 -0.3747
 6069TIP3   OH239765   1.841   6.282   8.365 -0.1506  0.0661  0.0054
 6069TIP3    H139766   1.858   6.275   8.271 -0.5015 -0.0360 -0.0515
 6069TIP3    H239767   1.749   6.255   8.375 -0.6089  1.6246  0.1736
 6070TIP3   OH239768   2.332   4.823   0.521  0.2928  0.2361 -0.3335
 6070TIP3    H139769   2.275   4.778   0.458  1.1888 -1.7850  0.1960
 6070TIP3    H239770   2.287   4.905   0.541 -0.3229  0.6632 -3.0962
 6071TIP3   OH239771   0.479   6.553   1.124  0.0536  0.5921 -0.4926
 6071TIP3    H139772   0.521   6.639   1.123  1.0743  0.2202  2.6152
 6071TIP3    H239773   0.405   6.563   1.064  0.7442  3.2999 -1.0369
 6072TIP3   OH239774   3.297   5.159   6.761  0.2653 -0.1525  0.2797
 6072TIP3    H139775   3.390   5.138   6.755  0.6354  1.2823  0.6032
 6072TIP3    H239776   3.294   5.255   6.763 -1.1545 -0.1816  1.1296
 6073TIP3   OH239777   2.464   3.037   1.474  0.3483 -0.1365  0.0385
 6073TIP3    H139778   2.483   2.943   1.469  1.2808  0.0524 -0.2502
 6073TIP3    H239779   2.462   3.057   1.568  0.4862 -0.3827  0.0930
 6074TIP3   OH239780   6.188   1.095   7.292  0.1935 -0.3477  0.2231
 6074TIP3    H139781   6.094   1.096   7.278  0.3269 -0.1239 -0.7028
 6074TIP3    H239782   6.220   1.174   7.249  1.1092 -1.7722 -1.8856
 6075TIP3   OH239783   3.134   0.823   0.529  0.2652  0.0706  0.0241
 6075TIP3    H139784   3.133   0.919   0.525  0.3147  0.0878  0.3548
 6075TIP3    H239785   3.226   0.800   0.515 -0.0432 -0.0478 -2.1944
 6076TIP3   OH239786   6.230   1.715   6.833 -0.0254 -0.2624 -0.7267
 6076TIP3    H139787   6.264   1.802   6.855  0.0777 -0.1627 -1.2483
 6076TIP3    H239788   6.143   1.713   6.873  0.7388 -0.6851  0.9710
 6077TIP3   OH239789   5.437   4.027   0.726  1.1751 -0.3116  0.1781
 6077TIP3    H139790   5.458   3.940   0.759  0.9791 -0.3009  0.3310
 6077TIP3    H239791   5.517   4.056   0.682  0.5685 -1.4601 -1.8018
 6078TIP3   OH239792   3.716   0.353   1.024  0.4685  0.4069  0.1373
 6078TIP3    H139793   3.662   0.393   0.956 -0.0351 -1.9435 -0.9583
 6078TIP3    H239794   3.664   0.360   1.104 -1.2573 -1.2129 -0.7675
 6079TIP3   OH239795   3.674   3.210   0.889  0.3324  0.1231  0.8283
 6079TIP3    H139796   3.653   3.302   0.873 -2.2433 -0.6006 -0.7446
 6079TIP3    H239797   3.627   3.188   0.969  0.3550  0.0353  0.8178
 6080TIP3   OH239798   6.169   4.196   0.743  0.1316  0.1977 -0.0409
 6080TIP3    H139799   6.180   4.104   0.719  0.8494  0.5849 -1.3292
 6080TIP3    H239800   6.076   4.214   0.730  0.2160 -0.0382 -1.0156
 6081TIP3   OH239801   0.133   1.260   6.566  0.5851  0.3431  0.0172
 6081TIP3    H139802   0.063   1.297   6.511  0.4191  0.9361  0.6160
 6081TIP3    H239803   0.214   1.293   6.527  0.4495  1.1418  0.3825
 6082TIP3   OH239804   2.389   4.381   0.452 -0.3570  0.2732 -0.0806
 6082TIP3    H139805   2.437   4.406   0.373  0.6427 -0.3000  0.3209
 6082TIP3    H239806   2.302   4.357   0.420  0.0103  0.1073 -1.0067
 6083TIP3   OH239807   1.963   3.836   8.790  0.1617  0.3098  0.8734
 6083TIP3    H139808   1.955   3.879   8.875  0.3226 -0.5404  1.3274
 6083TIP3    H239809   1.951   3.743   8.809 -1.9947  0.2619 -0.3209
 6084TIP3   OH239810   3.811   0.177   7.389  0.3860 -0.2374  0.5945
 6084TIP3    H139811   3.737   0.175   7.450  0.9303  0.1754  1.2794
 6084TIP3    H239812   3.817   0.268   7.360 -0.0389 -0.4841 -0.2989
 6085TIP3   OH239813   6.028   4.448   6.536 -0.2621 -0.3363  0.0422
 6085TIP3    H139814   6.019   4.529   6.485 -1.4496  1.2958  2.6452
 6085TIP3    H239815   6.089   4.395   6.485  1.2815  2.5419 -1.3687
 6086TIP3   OH239816   3.642   4.364   6.311 -0.0178 -0.3780 -0.3688
 6086TIP3    H139817   3.573   4.300   6.332 -0.5967 -0.2496 -1.7296
 6086TIP3    H239818   3.723   4.320   6.334 -0.4195 -1.5528 -1.0709
 6087TIP3   OH239819   3.899   5.800   0.549 -0.4882 -0.3297 -0.4080
 6087TIP3    H139820   3.811   5.765   0.541 -0.7001  0.2216 -0.4803
 6087TIP3    H239821   3.956   5.728   0.520 -0.9846 -0.1738 -1.7930
 6088TIP3   OH239822   2.409   5.198   6.909 -0.2859 -0.3969  0.2331
 6088TIP3    H139823   2.490   5.229   6.950 -0.2538 -2.0987  1.5835
 6088TIP3    H239824   2.346   5.194   6.981 -0.9010 -1.2495 -0.3355
 6089TIP3   OH239825   2.214   2.355   6.857 -0.4883  0.1283  0.3584
 6089TIP3    H139826   2.233   2.316   6.771 -2.0885  1.8827 -0.8578
 6089TIP3    H239827   2.120   2.369   6.856 -0.7122 -0.7002  2.8532
 6090TIP3   OH239828   4.921   0.744   1.480  0.2892  0.4411 -0.0533
 6090TIP3    H139829   4.969   0.753   1.563  0.5433  0.1017 -0.1584
 6090TIP3    H239830   4.865   0.668   1.494  0.4395  0.2953 -0.2419
 6091TIP3   OH239831   0.253   0.563   6.242  0.3113  0.8329  0.3796
 6091TIP3    H139832   0.233   0.570   6.336 -1.8926 -0.5440  0.0926
 6091TIP3    H239833   0.264   0.653   6.213 -2.9502  1.6281  1.2318
 6092TIP3   OH239834   5.679   3.773   6.643 -0.4861  0.0749  0.2064
 6092TIP3    H139835   5.586   3.754   6.658 -0.6607 -0.0331 -0.9159
 6092TIP3    H239836   5.688   3.775   6.548  0.7275 -0.1779  0.2990
 6093TIP3   OH239837   1.592   3.846   0.866  0.1859  0.0742 -0.1619
 6093TIP3    H139838   1.673   3.894   0.851 -0.7216  2.0215  0.8368
 6093TIP3    H239839   1.571   3.863   0.957 -1.5443 -0.0911 -0.5029
 6094TIP3   OH239840   4.772   3.871   7.592  0.0626  0.3553 -0.3118
 6094TIP3    H139841   4.790   3.888   7.685  0.7521  0.6761 -0.4917
 6094TIP3    H239842   4.859   3.874   7.550 -0.3135  0.9420 -1.0746
 6095TIP3   OH239843   3.152   1.198   7.618  0.3544  0.1419  0.9713
 6095TIP3    H139844   3.088   1.266   7.600  0.0628 -0.0884  1.1206
 6095TIP3    H239845   3.226   1.218   7.561 -0.5362 -0.5764 -0.5018
 6096TIP3   OH239846   3.034   3.660   0.379  0.0922 -0.0247 -0.0162
 6096TIP3    H139847   2.986   3.732   0.420  0.0127  0.5544 -1.0834
 6096TIP3    H239848   3.033   3.681   0.286  0.3535 -1.2479 -0.3139
 6097TIP3   OH239849   5.698   4.131   6.910  0.2237  0.1920 -0.1342
 6097TIP3    H139850   5.776   4.119   6.855  1.0176 -0.2255  1.0367
 6097TIP3    H239851   5.686   4.046   6.953 -0.5193  0.4392  0.1629
 6098TIP3   OH239852   6.080   6.576   8.269 -0.0820  0.5489  0.2432
 6098TIP3    H139853   6.044   6.520   8.200  1.4547  0.1691 -0.2932
 6098TIP3    H239854   6.034   6.659   8.258 -0.9734  0.0132 -0.2372
 6099TIP3   OH239855   4.295   6.281   7.999 -0.2302  0.0019 -0.1438
 6099TIP3    H139856   4.214   6.285   8.050  0.2560 -0.2228  0.6768
 6099TIP3    H239857   4.329   6.371   8.002  0.0627 -0.1223  0.3872
 6100TIP3   OH239858   3.098   1.486   7.715  0.3240 -0.0220  0.2756
 6100TIP3    H139859   3.101   1.457   7.807  0.6160 -1.4132 -0.1484
 6100TIP3    H239860   3.072   1.578   7.720  0.2937 -0.0824  1.7537
 6101TIP3   OH239861   5.265   4.728   8.797  0.0581 -0.6089  0.9444
 6101TIP3    H139862   5.321   4.714   8.873 -1.1797 -1.4603  1.7542
 6101TIP3    H239863   5.314   4.788   8.741  0.9498  0.1446  2.4659
 6102TIP3   OH239864   1.276   0.376   1.075  0.0435 -0.8014  0.1249
 6102TIP3    H139865   1.316   0.401   0.991  1.1150  2.2623  1.3999
 6102TIP3    H239866   1.197   0.429   1.080 -0.2014 -1.2347  0.8808
 6103TIP3   OH239867   0.368   0.008   7.301  0.4624 -0.0409 -0.1531
 6103TIP3    H139868   0.295  -0.023   7.356  0.9959 -0.2319  0.4644
 6103TIP3    H239869   0.326   0.055   7.230 -0.2477  0.9057  0.8494
 6104TIP3   OH239870   2.963   4.639   7.096  0.3568  0.1026  0.3425
 6104TIP3    H139871   3.031   4.579   7.065 -0.2111 -0.6456  0.5009
 6104TIP3    H239872   2.903   4.583   7.145 -1.1559  0.4532 -1.0158
 6105TIP3   OH239873   5.809   1.043   0.327 -0.1806  0.0242  0.6635
 6105TIP3    H139874   5.758   1.004   0.398  0.5622 -2.6274 -0.1376
 6105TIP3    H239875   5.900   1.020   0.348  0.2723  1.0988 -0.0528
 6106TIP3   OH239876   0.630   5.179   0.549  0.2956  0.3917 -0.0049
 6106TIP3    H139877   0.544   5.220   0.561  0.0178 -0.6349  1.8236
 6106TIP3    H239878   0.685   5.219   0.616  0.9271  0.1724 -0.3893
 6107TIP3   OH239879   0.154   3.773   8.750 -0.0291  0.1371 -0.2171
 6107TIP3    H139880   0.104   3.851   8.725  0.5871 -0.0029 -2.0333
 6107TIP3    H239881   0.245   3.802   8.748  0.0686  0.3276  2.8248
 6108TIP3   OH239882   5.565   5.183   7.759 -0.6037 -0.6290  0.0884
 6108TIP3    H139883   5.482   5.171   7.805 -0.7742  0.4325  0.0863
 6108TIP3    H239884   5.608   5.254   7.807  0.0510 -0.7894 -0.2569
 6109TIP3   OH239885   5.453   0.980   7.332 -0.1340  0.2372 -0.0195
 6109TIP3    H139886   5.491   1.055   7.378  0.4253 -0.4732  0.7210
 6109TIP3    H239887   5.366   1.009   7.305 -0.1588  0.9556  0.7913
 6110TIP3   OH239888   3.142   2.432   7.980 -0.8352 -0.5385  0.3289
 6110TIP3    H139889   3.136   2.471   7.893 -0.5862  0.4763  0.7491
 6110TIP3    H239890   3.051   2.419   8.007 -0.9243 -0.3586  0.1216
 6111TIP3   OH239891   4.440   6.399   1.626 -0.2520  0.2202  0.1991
 6111TIP3    H139892   4.458   6.450   1.706 -0.4733  1.9570 -0.8023
 6111TIP3    H239893   4.524   6.356   1.606  0.0042  0.3392  0.9708
 6112TIP3   OH239894   5.639   2.542   8.829 -0.1800 -0.1671  0.4561
 6112TIP3    H139895   5.593   2.487   8.765  0.0251 -1.2645  1.2103
 6112TIP3    H239896   5.732   2.528   8.810 -0.1267 -0.0210  0.6039
 6113TIP3   OH239897   6.090   2.709   1.810 -0.0104  0.0415  0.1832
 6113TIP3    H139898   6.023   2.777   1.814  0.0614  0.1251 -0.0593
 6113TIP3    H239899   6.158   2.739   1.871 -0.6305 -0.5243  1.1947
 6114TIP3   OH239900   0.664   0.105   0.441  0.2571  0.3361  0.0649
 6114TIP3    H139901   0.725   0.152   0.383 -0.1679 -0.0017 -0.6714
 6114TIP3    H239902   0.658   0.160   0.519  1.1284  0.6192 -0.0519
 6115TIP3   OH239903   6.655   0.369   0.361 -0.3762  0.0282  0.3996
 6115TIP3    H139904   6.654   0.286   0.408  1.4849  0.3937  1.1753
 6115TIP3    H239905   6.713   0.355   0.287  1.8571  1.2022  1.8132
 6116TIP3   OH239906   0.116   2.035   8.448  0.0748  0.5361 -0.1097
 6116TIP3    H139907   0.139   1.950   8.486  1.5337  0.9537  0.0073
 6116TIP3    H239908   0.134   2.098   8.518 -1.2580  0.9307 -0.1014
 6117TIP3   OH239909   0.016   3.580   6.866  0.1062 -0.5365 -0.1098
 6117TIP3    H139910   0.057   3.663   6.889 -1.3055 -0.4261  2.3913
 6117TIP3    H239911   0.041   3.565   6.775 -0.7680  3.3613 -1.1949
 6118TIP3   OH239912   0.525   5.104   8.078 -0.5276 -0.8018 -0.3422
 6118TIP3    H139913   0.470   5.055   8.139  0.3550 -2.8298 -1.0866
 6118TIP3    H239914   0.477   5.100   7.995 -0.4827 -0.3205 -0.3921
 6119TIP3   OH239915   6.415   6.617   8.327 -0.1915  0.0436 -0.2531
 6119TIP3    H139916   6.363   6.697   8.319 -1.0716 -0.6377 -1.9320
 6119TIP3    H239917   6.465   6.613   8.246 -1.0610 -1.6938 -0.7410
 6120TIP3   OH239918   4.709   2.334   7.794  0.0064  0.4044  0.2245
 6120TIP3    H139919   4.708   2.327   7.889 -0.8353 -1.4603  0.1271
 6120TIP3    H239920   4.769   2.407   7.776 -0.1774  1.0943  2.1698
 6121TIP3   OH239921   3.910   0.100   8.063  0.2075  0.1982 -0.3670
 6121TIP3    H139922   3.983   0.048   8.030  1.6912  1.8995  0.0414
 6121TIP3    H239923   3.840   0.087   8.000  1.5816  0.1510 -1.9610
 6122TIP3   OH239924   3.347   5.607   7.138  0.6031 -0.4001 -0.3367
 6122TIP3    H139925   3.349   5.513   7.119  1.2180 -0.3560 -0.5055
 6122TIP3    H239926   3.418   5.620   7.201 -1.2741 -0.5183  1.9341
 6123TIP3   OH239927   3.196   4.285   7.651  0.1635 -0.2307  0.4443
 6123TIP3    H139928   3.247   4.263   7.573 -2.0138 -1.3877 -0.7570
 6123TIP3    H239929   3.105   4.273   7.624 -0.6961 -0.0043  2.9890
 6124TIP3   OH239930   1.039   2.823   8.512 -0.1195 -0.2334 -0.6589
 6124TIP3    H139931   1.069   2.814   8.421 -1.7370  0.3244 -1.2888
 6124TIP3    H239932   0.997   2.739   8.532  0.3248 -0.3928 -0.3793
 6125TIP3   OH239933   4.454   5.950   6.472  0.4107 -0.1965 -0.4168
 6125TIP3    H139934   4.461   5.876   6.411  0.5143 -0.3311 -0.2424
 6125TIP3    H239935   4.373   5.994   6.447  1.6493  1.1949 -2.2684
 6126TIP3   OH239936   0.718   5.150   6.563  0.2827  0.5799  0.0223
 6126TIP3    H139937   0.687   5.241   6.565 -0.9839  0.1691  0.1187
 6126TIP3    H239938   0.727   5.130   6.470 -1.5495  0.1593 -0.1104
 6127TIP3   OH239939   4.189   4.462   0.324  0.2419 -0.2895  0.4724
 6127TIP3    H139940   4.168   4.398   0.391 -0.0507  1.7261  2.4198
 6127TIP3    H239941   4.278   4.492   0.345 -0.0807  0.8021  0.3570
 6128TIP3   OH239942   2.140   1.064   6.476 -0.2074 -0.0677  0.1413
 6128TIP3    H139943   2.133   0.969   6.478  1.2173 -0.1836  0.3507
 6128TIP3    H239944   2.234   1.082   6.477 -0.3964  1.3035 -1.7029
 6129TIP3   OH239945   0.790   2.580   6.990 -0.2287 -0.4981 -0.0555
 6129TIP3    H139946   0.777   2.637   6.914 -1.0292  0.5919  0.8744
 6129TIP3    H239947   0.809   2.639   7.062 -0.0746 -1.4842  0.7414
 6130TIP3   OH239948   5.519   4.182   1.103  0.0469  0.3402  0.1773
 6130TIP3    H139949   5.586   4.246   1.078  1.2621  0.0442  2.3645
 6130TIP3    H239950   5.436   4.226   1.086  0.7544  0.7880 -2.4556
 6131TIP3   OH239951   1.351   6.397   8.154  0.7758 -0.3446 -0.1433
 6131TIP3    H139952   1.410   6.421   8.082 -0.8738  0.4882 -1.2924
 6131TIP3    H239953   1.302   6.476   8.172  1.0040 -0.6038  1.8177
 6132TIP3   OH239954   3.897   5.881   1.208 -0.3223 -0.2645 -0.0742
 6132TIP3    H139955   3.912   5.796   1.250 -0.5978 -0.5426 -0.5275
 6132TIP3    H239956   3.813   5.910   1.241  0.5259  0.6433  1.3951
 6133TIP3   OH239957   2.093   1.055   0.339 -0.4601 -0.0259  0.0492
 6133TIP3    H139958   2.143   1.046   0.420 -1.7241 -0.5341  0.8115
 6133TIP3    H239959   2.037   0.977   0.337 -1.9822  1.0165 -0.2001
 6134TIP3   OH239960   4.616   0.899   7.276 -0.1971 -0.0594 -0.4645
 6134TIP3    H139961   4.681   0.964   7.248  0.6067  0.9864  3.3012
 6134TIP3    H239962   4.533   0.947   7.276  0.1413  0.5743  0.8030
 6135TIP3   OH239963   2.934   3.914   1.635 -0.1583 -0.1429 -0.2986
 6135TIP3    H139964   2.894   3.923   1.722 -0.5863 -0.8320 -0.4177
 6135TIP3    H239965   2.977   3.829   1.637  2.0278  0.8819  0.1000
 6136TIP3   OH239966   0.292   1.170   0.374  0.5144 -0.0563  0.3518
 6136TIP3    H139967   0.362   1.234   0.381  0.6178  0.2592 -2.5313
 6136TIP3    H239968   0.313   1.119   0.296 -1.9332 -0.5986 -0.0446
 6137TIP3   OH239969   5.375   0.567   0.132 -0.5997 -0.4189 -0.0183
 6137TIP3    H139970   5.407   0.486   0.172 -2.2619 -0.7412  0.7756
 6137TIP3    H239971   5.319   0.606   0.199  0.0797  1.3546 -0.4329
 6138TIP3   OH239972   1.612   4.155   8.795 -0.0442 -0.2987  0.0606
 6138TIP3    H139973   1.531   4.116   8.828 -0.6236  0.7200 -0.0939
 6138TIP3    H239974   1.605   4.149   8.700 -0.0138 -0.0845  0.0425
 6139TIP3   OH239975   2.734   6.161   0.456 -0.1814 -0.2913  0.0391
 6139TIP3    H139976   2.704   6.163   0.365 -2.0438  0.2566  0.6228
 6139TIP3    H239977   2.726   6.252   0.486 -0.6502 -0.6434  1.0497
 6140TIP3   OH239978   3.930   3.296   7.396 -0.1181 -1.1049  0.4834
 6140TIP3    H139979   3.963   3.236   7.463 -0.0728 -0.2700  1.2323
 6140TIP3    H239980   3.964   3.262   7.314 -1.1742 -2.8747  0.7107
 6141TIP3   OH239981   0.439   3.630   2.140  0.0139 -0.4001  0.2894
 6141TIP3    H139982   0.476   3.682   2.211 -1.1824 -1.9481  2.1211
 6141TIP3    H239983   0.514   3.584   2.102  0.5516 -0.2692  1.1789
 6142TIP3   OH239984   4.317   4.797   0.378 -0.7146  0.5873  0.0214
 6142TIP3    H139985   4.291   4.888   0.395 -0.6609  0.7947 -0.9469
 6142TIP3    H239986   4.235   4.752   0.357 -0.7142  0.4509  0.3010
 6143TIP3   OH239987   1.399   1.254   1.460  0.0699 -0.2638  0.3425
 6143TIP3    H139988   1.368   1.309   1.532 -2.3800 -0.3576 -0.5649
 6143TIP3    H239989   1.364   1.167   1.479  0.0034 -0.4540 -0.5885
 6144TIP3   OH239990   2.356   5.564   8.696 -0.4356 -0.3197  0.3357
 6144TIP3    H139991   2.447   5.576   8.671 -1.2196  1.7979 -2.0162
 6144TIP3    H239992   2.327   5.488   8.646 -0.3318 -0.0741 -0.1013
 6145TIP3   OH239993   1.085   2.983   8.734 -0.1181  0.0188  0.1672
 6145TIP3    H139994   1.009   2.961   8.788  0.7941 -2.5299  0.5655
 6145TIP3    H239995   1.058   2.959   8.645 -0.1456  0.1606  0.1367
 6146TIP3   OH239996   5.628   3.962   1.551  0.2347  0.6615 -0.2856
 6146TIP3    H139997   5.652   4.005   1.468  0.9537  1.2655  0.2211
 6146TIP3    H239998   5.693   3.893   1.562  1.5497  2.0419  0.8910
 6147TIP3   OH239999   0.297   6.366   0.530  0.0604 -0.1043 -0.2039
 6147TIP3    H140000   0.267   6.300   0.467 -2.0142 -0.2752  0.8916
 6147TIP3    H240001   0.217   6.403   0.566  1.1888  1.8567  0.4413
 6148TIP3   OH240002   1.070   0.885   7.924 -0.0503  0.1217  0.1466
 6148TIP3    H140003   1.104   0.797   7.913  0.8037  0.5767 -0.9578
 6148TIP3    H240004   1.109   0.936   7.853  0.4173  1.6681  1.4484
 6149TIP3   OH240005   6.434   2.381   0.076  0.2315  0.4446  0.3334
 6149TIP3    H140006   6.497   2.308   0.074  0.9094  1.0264 -1.2713
 6149TIP3    H240007   6.352   2.341   0.105  0.7547 -0.8260  0.1273
 6150TIP3   OH240008   1.228   1.532   7.099  0.4141  0.3350 -0.2096
 6150TIP3    H140009   1.285   1.505   7.027  0.7133  1.5381 -0.4351
 6150TIP3    H240010   1.144   1.550   7.057  0.6047  1.0916 -0.2701
 6151TIP3   OH240011   2.840   4.344   0.744 -0.4702  0.1289 -0.3885
 6151TIP3    H140012   2.749   4.365   0.723 -0.8433 -1.4415 -0.5308
 6151TIP3    H240013   2.848   4.362   0.837 -1.1903 -0.4672 -0.1952
 6152TIP3   OH240014   6.265   0.431   0.819 -0.0993 -0.3353 -0.1286
 6152TIP3    H140015   6.179   0.462   0.848 -0.1481  0.1790 -0.8047
 6152TIP3    H240016   6.260   0.431   0.723  0.4875 -0.7808 -0.1661
 6153TIP3   OH240017   0.113   5.987   6.698 -0.1520  0.5987 -0.1240
 6153TIP3    H140018   0.196   5.941   6.683 -0.5152 -0.1587  0.1023
 6153TIP3    H240019   0.106   6.050   6.627  0.7940  0.9204  0.0620
 6154TIP3   OH240020   5.622   3.540   7.766  0.1340  0.0424  0.2855
 6154TIP3    H140021   5.598   3.548   7.674 -1.2443 -0.2232  0.6046
 6154TIP3    H240022   5.606   3.627   7.803  1.3773  0.3490  0.1321
 6155TIP3   OH240023   1.164   4.014   6.099 -0.2095  0.1422 -0.4383
 6155TIP3    H140024   1.235   4.031   6.037  0.6970  0.7368  0.7208
 6155TIP3    H240025   1.203   3.959   6.166 -1.2057 -0.5873 -0.4379
 6156TIP3   OH240026   0.011   2.077   0.805 -0.4904  0.5106 -0.1938
 6156TIP3    H140027  -0.077   2.087   0.840  0.0371  2.7196  0.6706
 6156TIP3    H240028   0.036   1.987   0.826 -1.8836  0.3955  1.0939
 6157TIP3   OH240029   0.406   3.424   0.820 -0.0663 -0.0810 -0.0531
 6157TIP3    H140030   0.313   3.434   0.840  0.6238  3.4765  2.3510
 6157TIP3    H240031   0.425   3.492   0.755  0.9886 -0.3968 -0.1097
 6158TIP3   OH240032   4.959   5.989   8.618 -0.4843 -0.0716 -0.1963
 6158TIP3    H140033   5.038   5.973   8.668  0.0012 -1.6562 -1.3861
 6158TIP3    H240034   4.905   5.912   8.632 -1.1837  0.3339 -0.5608
 6159TIP3   OH240035   0.033   1.232   1.083  0.2340  0.3461 -0.8377
 6159TIP3    H140036   0.016   1.151   1.130  1.7928  0.7756  0.5162
 6159TIP3    H240037  -0.054   1.260   1.052 -0.7813 -0.2228  1.3182
 6160TIP3   OH240038   4.842   3.976   1.237 -0.7701 -0.0535  0.0348
 6160TIP3    H140039   4.837   4.057   1.287  2.1713 -0.0636  0.5276
 6160TIP3    H240040   4.887   4.000   1.156  1.8683 -1.3655  0.9616
 6161TIP3   OH240041   3.733   5.983   7.814 -0.5138 -0.1446 -0.2829
 6161TIP3    H140042   3.674   5.986   7.889 -0.2248 -0.7786 -0.0247
 6161TIP3    H240043   3.741   5.890   7.793 -1.1203  0.0591 -1.5320
 6162TIP3   OH240044   4.457   4.233   0.736 -0.0486  0.2243 -0.2011
 6162TIP3    H140045   4.466   4.327   0.748  0.0180  0.1176  0.6504
 6162TIP3    H240046   4.546   4.200   0.728 -0.1201  0.4621 -2.5523
 6163TIP3   OH240047   6.677   5.212   8.020  0.0301  0.5461  0.1331
 6163TIP3    H140048   6.694   5.274   7.950  1.0548  1.2027  0.9306
 6163TIP3    H240049   6.642   5.135   7.976  0.4999  0.9998 -1.0775
 6164TIP3   OH240050   5.164   5.398   1.302  0.2453 -0.0560  0.3558
 6164TIP3    H140051   5.232   5.355   1.354  0.9054  0.4767 -0.0459
 6164TIP3    H240052   5.082   5.368   1.341  0.6738 -1.4876  0.2434
 6165TIP3   OH240053   3.212   0.378   0.246 -0.3905 -0.2508  0.0346
 6165TIP3    H140054   3.185   0.467   0.271 -0.2659 -0.2208  0.0630
 6165TIP3    H240055   3.299   0.390   0.208 -0.9898 -0.1521 -1.3774
 6166TIP3   OH240056   4.061   4.004   0.557  0.4659 -0.5436 -0.1619
 6166TIP3    H140057   3.974   3.982   0.526 -0.3992  0.1468  1.6618
 6166TIP3    H240058   4.058   3.991   0.651  2.1621  0.0735  0.0234
 6167TIP3   OH240059   0.138   1.789   6.965 -0.1641 -0.3477 -0.2213
 6167TIP3    H140060   0.208   1.725   6.951  0.2993  0.4750 -1.9292
 6167TIP3    H240061   0.174   1.871   6.931 -1.4031  0.4411  0.3019
 6168TIP3   OH240062   2.529   6.582   8.575 -0.5267  0.4696 -0.2136
 6168TIP3    H140063   2.588   6.545   8.641 -0.2326 -0.4328 -0.9572
 6168TIP3    H240064   2.578   6.655   8.537 -0.0192 -0.0507 -0.5793
 6169TIP3   OH240065   4.463   4.548   0.747  0.3119 -0.4379  0.6057
 6169TIP3    H140066   4.422   4.599   0.677  0.5596 -2.4077 -1.0603
 6169TIP3    H240067   4.391   4.514   0.798 -0.0661 -1.7505 -0.7516
 6170TIP3   OH240068   0.391   2.809   0.324 -0.9936  0.1035 -0.0585
 6170TIP3    H140069   0.453   2.858   0.377 -0.6785  1.3857 -1.5321
 6170TIP3    H240070   0.415   2.718   0.337  0.3807  0.5089  0.3879
 6171TIP3   OH240071   2.782   1.015   6.059 -0.1658 -0.2555 -0.0797
 6171TIP3    H140072   2.700   1.050   6.024  0.0465  1.0292  0.6632
 6171TIP3    H240073   2.848   1.081   6.038  0.4442 -0.6643  0.4868
 6172TIP3   OH240074   4.726   6.777   8.129 -0.4289 -0.5220  0.4949
 6172TIP3    H140075   4.639   6.815   8.137  0.0591  0.8337 -0.2530
 6172TIP3    H240076   4.776   6.815   8.201  0.0006  0.0689 -0.1084
 6173TIP3   OH240077   5.588   2.805   0.057  0.2365  0.0418 -0.0864
 6173TIP3    H140078   5.613   2.715   0.038 -2.6231 -0.8452 -0.2296
 6173TIP3    H240079   5.582   2.809   0.153 -0.2154 -0.1036 -0.1081
 6174TIP3   OH240080   4.147   5.973   8.152 -0.4821  0.2051 -0.2011
 6174TIP3    H140081   4.189   5.942   8.232 -0.4746 -0.1192 -0.3297
 6174TIP3    H240082   4.098   6.051   8.180  1.1416  1.2882 -0.2742
 6175TIP3   OH240083   2.494   2.839   0.281 -0.6060 -0.3118 -0.4281
 6175TIP3    H140084   2.530   2.753   0.262 -0.1647 -0.5536  1.3437
 6175TIP3    H240085   2.399   2.825   0.283 -0.7260 -0.1826 -2.6620
 6176TIP3   OH240086   2.121   5.244   8.836  0.0320 -0.7158  0.3208
 6176TIP3    H140087   2.197   5.198   8.802 -0.1400  0.4258 -1.7516
 6176TIP3    H240088   2.157   5.308   8.898  1.1563  1.4104 -2.3039
 6177TIP3   OH240089   5.718   2.029   6.986 -0.0001  0.0587  0.4148
 6177TIP3    H140090   5.756   1.959   7.039 -1.5903 -0.8823  0.3769
 6177TIP3    H240091   5.743   2.110   7.032  0.8928 -0.5781  1.0954
 6178TIP3   OH240092   3.289   5.804   8.410 -0.3110 -0.2429  0.6814
 6178TIP3    H140093   3.290   5.713   8.442 -0.8746 -0.5820 -0.2292
 6178TIP3    H240094   3.196   5.827   8.409 -0.4337 -0.5909 -1.6123
 6179TIP3   OH240095   3.656   3.335   8.402  0.2067 -0.1726  0.1827
 6179TIP3    H140096   3.600   3.318   8.327  1.5129 -0.1963 -0.8272
 6179TIP3    H240097   3.661   3.252   8.449  0.8233 -0.6636 -0.7285
 6180TIP3   OH240098   1.848   2.905   7.485 -0.3590  0.0197 -0.0078
 6180TIP3    H140099   1.806   2.962   7.421 -0.7997 -1.4338 -1.0619
 6180TIP3    H240100   1.925   2.871   7.440  0.1403  0.0985  0.7623
 6181TIP3   OH240101   5.442   0.753   0.674  0.2918  0.6221  0.3518
 6181TIP3    H140102   5.347   0.740   0.678  0.3141  0.7198  1.5082
 6181TIP3    H240103   5.472   0.689   0.610 -0.6270  1.0800 -0.5786
 6182TIP3   OH240104   3.309   0.922   6.192 -0.4111  0.2537 -0.3519
 6182TIP3    H140105   3.343   1.010   6.177 -1.5520  0.7199 -0.3338
 6182TIP3    H240106   3.347   0.870   6.122  0.1022  0.8110 -0.4997
 6183TIP3   OH240107   4.463   3.353   1.148 -0.4721 -0.1980 -0.0626
 6183TIP3    H140108   4.411   3.314   1.219 -1.0671 -0.2473 -0.5182
 6183TIP3    H240109   4.437   3.304   1.070  1.1801 -1.0693 -0.1068
 6184TIP3   OH240110   4.232   2.787   8.523 -0.0063 -0.0674 -0.7780
 6184TIP3    H140111   4.185   2.715   8.563 -0.3326  0.7568  0.3682
 6184TIP3    H240112   4.172   2.862   8.529  1.4859  1.0722  0.9570
 6185TIP3   OH240113   3.696   1.147   7.661  0.5411 -0.2847  0.2158
 6185TIP3    H140114   3.615   1.196   7.645  0.3766 -0.5621  0.2012
 6185TIP3    H240115   3.734   1.136   7.574  0.1689 -0.8886  0.1265
 6186TIP3   OH240116   5.826   2.535   8.417  0.0475 -0.6265  0.2611
 6186TIP3    H140117   5.865   2.468   8.474 -1.3626 -1.8389 -0.1306
 6186TIP3    H240118   5.743   2.557   8.459 -1.1137 -1.6850 -1.3389
 6187TIP3   OH240119   2.769   4.813   7.690  0.6060  0.5917 -0.2880
 6187TIP3    H140120   2.800   4.776   7.607  0.0182 -0.2983 -0.1176
 6187TIP3    H240121   2.771   4.908   7.676 -0.0055  0.4411 -1.5086
 6188TIP3   OH240122   3.339   2.639   1.435  0.0074 -0.2066  0.0629
 6188TIP3    H140123   3.313   2.727   1.407 -0.3652 -0.3902 -0.1714
 6188TIP3    H240124   3.281   2.619   1.509  1.2264  0.4236  1.2443
 6189TIP3   OH240125   2.103   5.317   0.915  0.3153  0.2586 -0.7596
 6189TIP3    H140126   2.175   5.373   0.944 -1.1939  1.4610  0.8546
 6189TIP3    H240127   2.029   5.377   0.903 -0.6579 -1.0503 -1.5862
 6190TIP3   OH240128   2.885   0.381   1.669  0.3580  0.1220  0.2402
 6190TIP3    H140129   2.838   0.311   1.713 -0.5893  0.4533 -0.2139
 6190TIP3    H240130   2.817   0.435   1.630  1.0652  1.3077  0.5867
 6191TIP3   OH240131   5.981   4.354   8.616  0.0240 -0.5393 -0.2004
 6191TIP3    H140132   5.918   4.421   8.589  0.4913  0.0192  0.0914
 6191TIP3    H240133   5.936   4.271   8.598 -2.0483 -0.2314  2.7508
 6192TIP3   OH240134   3.065   4.935   8.806 -0.3153 -0.1263 -0.1453
 6192TIP3    H140135   3.046   5.007   8.747  1.1711  0.5307  0.1391
 6192TIP3    H240136   3.143   4.893   8.770 -1.5037 -2.0538 -0.6770
 6193TIP3   OH240137   1.766   3.527   0.353  0.1462 -0.0228  0.2380
 6193TIP3    H140138   1.788   3.434   0.362 -1.5647 -0.5383 -0.4259
 6193TIP3    H240139   1.824   3.558   0.283  1.4856 -0.2855  1.1906
 6194TIP3   OH240140   0.492   4.608   7.014 -0.0922  0.3223 -0.1162
 6194TIP3    H140141   0.421   4.544   7.007  0.9868 -1.0497  0.9585
 6194TIP3    H240142   0.565   4.559   7.052  0.8055  2.1844  0.6726
 6195TIP3   OH240143   6.136   6.064   1.458  0.2218  0.2580 -0.0796
 6195TIP3    H140144   6.169   6.015   1.383  1.1550  1.3281 -0.4093
 6195TIP3    H240145   6.136   6.001   1.530  0.2642 -0.5201 -0.7452
 6196TIP3   OH240146   6.065   3.879   8.609 -0.3893 -0.1115  0.1838
 6196TIP3    H140147   6.067   3.842   8.697  0.2530  0.3244  0.3605
 6196TIP3    H240148   6.112   3.962   8.617  0.4689 -0.4907 -0.7673
 6197TIP3   OH240149   4.167   1.080   6.366 -0.7099 -0.2984  0.5329
 6197TIP3    H140150   4.098   1.042   6.420 -0.8305 -0.1861  0.4589
 6197TIP3    H240151   4.128   1.160   6.330 -1.6622 -1.8822 -2.1605
 6198TIP3   OH240152   4.626   1.126   7.587 -0.2319  0.1536 -0.3252
 6198TIP3    H140153   4.628   1.030   7.588 -1.3151  0.0929 -1.3709
 6198TIP3    H240154   4.647   1.151   7.676 -0.6377 -1.0952  0.1466
 6199TIP3   OH240155   4.101   3.461   0.286  0.1791 -0.0636 -0.5847
 6199TIP3    H140156   4.195   3.443   0.279 -0.1315 -0.9685 -3.9884
 6199TIP3    H240157   4.097   3.557   0.297  1.4626 -0.0471  0.0020
 6200TIP3   OH240158   6.291   5.620   7.687 -0.0725  0.1543 -0.2836
 6200TIP3    H140159   6.311   5.550   7.749  1.8379 -0.1942 -1.2130
 6200TIP3    H240160   6.276   5.697   7.742  1.2049 -0.2287  0.6579
 6201TIP3   OH240161   2.763   3.288   1.367 -0.9240  0.0760 -0.4942
 6201TIP3    H140162   2.673   3.321   1.364 -2.3318 -3.0568  1.4106
 6201TIP3    H240163   2.775   3.258   1.457  3.2880  3.1102  0.2522
 6202TIP3   OH240164   6.708   1.023   6.602 -0.5482 -0.1901  0.6591
 6202TIP3    H140165   6.777   0.975   6.557 -0.6584 -0.6161  0.9371
 6202TIP3    H240166   6.647   0.955   6.632 -1.2751  0.1970  0.1108
 6203TIP3   OH240167   0.834   5.784   8.669  0.0955  0.1023 -0.1933
 6203TIP3    H140168   0.865   5.874   8.665  0.1232  0.1051  0.0540
 6203TIP3    H240169   0.814   5.761   8.578 -0.3027  0.4950 -0.2100
 6204TIP3   OH240170   2.786   6.343   7.191  0.2623 -0.2488  0.0147
 6204TIP3    H140171   2.696   6.369   7.168 -0.0579 -1.7295 -0.5060
 6204TIP3    H240172   2.793   6.363   7.284 -0.5207  0.1177  0.0085
 6205TIP3   OH240173   1.445   4.489   7.440 -0.3374  0.1104  0.1629
 6205TIP3    H140174   1.516   4.553   7.439  0.6774 -0.9689  1.1154
 6205TIP3    H240175   1.366   4.541   7.458 -0.0385  1.5040 -2.1465
 6206TIP3   OH240176   1.739   2.629   6.871 -0.0962 -0.3077  0.3683
 6206TIP3    H140177   1.751   2.708   6.819  0.1358  0.5842  1.7223
 6206TIP3    H240178   1.782   2.648   6.954 -2.1274 -0.8886  1.6453
 6207TIP3   OH240179   0.546   0.278   6.511  0.3327 -0.3899 -0.1919
 6207TIP3    H140180   0.457   0.312   6.502 -0.2802 -1.0147  2.6039
 6207TIP3    H240181   0.593   0.315   6.436 -2.1723  0.2017 -1.5908
 6208TIP3   OH240182   4.670   0.269   1.157  0.2777 -0.1228 -0.6013
 6208TIP3    H140183   4.711   0.267   1.070  0.3546 -0.5979 -0.5602
 6208TIP3    H240184   4.708   0.346   1.200 -3.0381  2.8659 -2.5318
 6209TIP3   OH240185   6.257   5.960   0.728  0.8726  0.1699 -0.2569
 6209TIP3    H140186   6.306   6.010   0.663 -1.5134  0.0753 -2.2952
 6209TIP3    H240187   6.306   5.879   0.740  0.7172 -0.4053 -3.0186
 6210TIP3   OH240188   6.213   1.056   0.185  0.3080 -0.8224 -0.4517
 6210TIP3    H140189   6.302   1.071   0.217  0.4720  1.0758 -1.6596
 6210TIP3    H240190   6.158   1.061   0.263  1.1492 -0.9369  0.1596
 6211TIP3   OH240191   5.891   1.824   7.207 -0.0710 -0.3931  0.8395
 6211TIP3    H140192   5.904   1.859   7.295 -0.3215  0.0272  0.7138
 6211TIP3    H240193   5.826   1.754   7.218  2.4591 -2.7981  1.5372
 6212TIP3   OH240194   4.812   6.076   0.133  0.7840 -0.2671 -0.3970
 6212TIP3    H140195   4.898   6.036   0.117  0.8739 -0.2586  0.0318
 6212TIP3    H240196   4.756   6.041   0.064  0.6144 -1.9527  0.5439
 6213TIP3   OH240197   1.883   1.214   6.908  0.2555  0.0953 -0.2231
 6213TIP3    H140198   1.940   1.206   6.986 -0.1683  0.8572  0.1723
 6213TIP3    H240199   1.826   1.138   6.913  0.2850  0.0950  0.1683
 6214TIP3   OH240200   0.626   6.340   1.022 -0.0040 -0.6373 -0.3695
 6214TIP3    H140201   0.606   6.424   1.065  1.9178 -0.4414  0.2201
 6214TIP3    H240202   0.542   6.312   0.985 -0.9302  0.9981  0.3709
 6215TIP3   OH240203   4.460   3.136   7.665 -0.0803  0.3750 -0.1465
 6215TIP3    H140204   4.502   3.088   7.594  0.2767  0.3770  0.0619
 6215TIP3    H240205   4.402   3.199   7.620  1.5198  1.6609 -0.5076
 6216TIP3   OH240206   2.933   1.889   1.825  0.4675 -0.3205  0.1554
 6216TIP3    H140207   2.965   1.974   1.855 -1.0590  0.0828  0.7211
 6216TIP3    H240208   2.930   1.835   1.905 -1.1127 -0.0524  0.3126
 6217TIP3   OH240209   0.805   5.183   8.129 -0.5131  0.3292 -0.3969
 6217TIP3    H140210   0.717   5.185   8.090 -0.9647  0.8065  0.6229
 6217TIP3    H240211   0.861   5.148   8.059 -1.3859  0.6854 -1.3035
 6218TIP3   OH240212   4.417   0.157   7.846 -0.2613 -0.3306 -0.0584
 6218TIP3    H140213   4.363   0.218   7.895  1.4896 -0.6432  2.4470
 6218TIP3    H240214   4.421   0.079   7.901 -1.3857 -2.3079 -2.5631
 6219TIP3   OH240215   0.072   6.741   8.601 -0.5980  0.0812 -0.3238
 6219TIP3    H140216   0.070   6.812   8.537 -0.2991 -1.0336 -1.6225
 6219TIP3    H240217   0.063   6.661   8.549 -0.8646 -0.8548  1.0836
 6220TIP3   OH240218   0.058   2.171   0.236 -0.3892  0.3199 -0.4963
 6220TIP3    H140219   0.107   2.128   0.306 -0.5242  1.4172  0.2970
 6220TIP3    H240220   0.099   2.257   0.228 -1.5462  0.8839 -0.5069
 6221TIP3   OH240221   5.111   5.998   0.364  0.6459 -0.0308  0.6070
 6221TIP3    H140222   5.182   6.054   0.333  0.0896  0.1681 -0.3258
 6221TIP3    H240223   5.078   5.954   0.286 -0.5761  0.2387  0.9459
 6222TIP3   OH240224   4.266   2.039   6.460  0.0622  0.7322 -0.3504
 6222TIP3    H140225   4.346   1.986   6.456  0.2666  0.9226  0.7639
 6222TIP3    H240226   4.290   2.121   6.418  0.7486  1.1238  0.7677
 6223TIP3   OH240227   0.475   3.507   7.058  0.7205  0.7163 -0.2627
 6223TIP3    H140228   0.474   3.534   6.966  0.6873  1.4967 -0.0440
 6223TIP3    H240229   0.384   3.490   7.079  0.7201  0.5995 -0.3624
 6224TIP3   OH240230   5.780   2.978   7.908 -0.4451 -0.1458  1.0932
 6224TIP3    H140231   5.812   2.888   7.909  1.8645  0.5695 -0.6782
 6224TIP3    H240232   5.725   2.984   7.829  1.2507  0.4864 -0.1109
 6225TIP3   OH240233   0.057   2.040   7.907 -0.0375  0.0238 -0.2212
 6225TIP3    H140234   0.053   1.950   7.875 -1.5302  0.1197 -0.3663
 6225TIP3    H240235   0.140   2.045   7.954 -0.9351 -2.0795  1.7332
 6226TIP3   OH240236   2.028   6.282   6.276 -0.0230  0.4505 -0.0700
 6226TIP3    H140237   1.993   6.272   6.188 -1.2492  1.8052  0.2222
 6226TIP3    H240238   1.975   6.224   6.330  1.2898 -1.0482 -0.3030
 6227TIP3   OH240239   1.361   3.561   0.455  1.0498 -0.3829  0.4002
 6227TIP3    H140240   1.406   3.641   0.482 -0.3185  1.2192 -1.7691
 6227TIP3    H240241   1.273   3.590   0.430 -0.3030 -2.9532  1.7452
 6228TIP3   OH240242   5.148   4.118   1.100 -0.3105 -0.4754 -0.1671
 6228TIP3    H140243   5.108   4.203   1.122  1.7699  0.8711 -1.3106
 6228TIP3    H240244   5.156   4.119   1.005  1.4585 -1.1249 -0.0515
 6229TIP3   OH240245   6.641   1.623   1.172  0.0395 -0.2498 -0.1620
 6229TIP3    H140246   6.689   1.697   1.209  1.6123 -1.2345 -0.1436
 6229TIP3    H240247   6.629   1.645   1.080 -1.6068  1.0481  0.3153
 6230TIP3   OH240248   4.853   5.813   5.905  0.0850  0.0863 -0.2470
 6230TIP3    H140249   4.912   5.753   5.861 -1.9106 -1.0711 -1.4884
 6230TIP3    H240250   4.901   5.842   5.983  2.4728 -0.2870 -1.4964
 6231TIP3   OH240251   1.414   0.453   7.813 -0.2502 -0.4349  0.8104
 6231TIP3    H140252   1.421   0.410   7.728 -1.1606  0.6764  0.1468
 6231TIP3    H240253   1.368   0.389   7.868 -1.8616 -0.2339 -0.2422
 6232TIP3   OH240254   3.122   5.789   1.625  0.2699 -0.0160 -0.3623
 6232TIP3    H140255   3.036   5.785   1.667  0.8603 -1.6702  0.7699
 6232TIP3    H240256   3.111   5.855   1.555 -1.3770  1.1363  0.8989
 6233TIP3   OH240257   5.776   0.016   1.016 -0.8177 -0.5734  0.2443
 6233TIP3    H140258   5.713   0.088   1.006 -0.0456 -0.0501 -1.0539
 6233TIP3    H240259   5.848   0.054   1.067 -0.6601 -0.5904  0.0333
 6234TIP3   OH240260   4.846   5.714   8.149  0.2389  0.1000 -0.2927
 6234TIP3    H140261   4.866   5.737   8.058 -0.7370 -1.3059 -0.9082
 6234TIP3    H240262   4.757   5.745   8.163 -0.8575 -2.4324 -0.9335
 6235TIP3   OH240263   0.349   2.323   8.041  0.0155  0.0311 -0.4865
 6235TIP3    H140264   0.308   2.328   8.128 -0.2350  1.3055 -0.6544
 6235TIP3    H240265   0.376   2.232   8.032 -0.6331 -0.2849  0.6215
 6236TIP3   OH240266   6.163   6.279   0.214  0.2319 -0.1399  0.5129
 6236TIP3    H140267   6.124   6.365   0.203  1.5548  0.4600  0.3285
 6236TIP3    H240268   6.138   6.252   0.302 -0.6245  0.1915  0.3783
 6237TIP3   OH240269   6.110   3.528   7.488  0.0134 -0.1983 -0.3867
 6237TIP3    H140270   6.126   3.529   7.583  0.0947 -0.7989 -0.3894
 6237TIP3    H240271   6.037   3.588   7.476  0.4917  0.4843 -0.0388
 6238TIP3   OH240272   4.678   3.144   7.060 -0.0668 -0.2246 -0.3870
 6238TIP3    H140273   4.737   3.127   6.986 -1.1166 -0.3538 -1.2233
 6238TIP3    H240274   4.681   3.064   7.111 -1.6708 -1.3748 -1.9754
 6239TIP3   OH240275   3.942   5.019   6.003 -0.1503  0.8234 -0.2035
 6239TIP3    H140276   3.852   4.985   6.001 -0.0999  0.5857  0.8620
 6239TIP3    H240277   3.983   4.983   5.924 -1.0976  1.2537 -0.9082
 6240TIP3   OH240278   6.215   1.528   1.118 -0.0757 -0.1478  0.1929
 6240TIP3    H140279   6.221   1.443   1.074 -1.6622 -0.6116  0.8005
 6240TIP3    H240280   6.212   1.592   1.047  1.1790 -0.5789 -0.2729
 6241TIP3   OH240281   5.253   6.159   7.366 -0.6451  0.5441 -0.0579
 6241TIP3    H140282   5.241   6.159   7.461  0.4798  0.6499  0.0941
 6241TIP3    H240283   5.212   6.077   7.338  0.7074 -0.4711  0.7697
 6242TIP3   OH240284   1.446   4.812   1.683 -0.2841  0.1470 -0.0674
 6242TIP3    H140285   1.381   4.868   1.726  1.4533  3.1064 -0.9464
 6242TIP3    H240286   1.530   4.842   1.718  0.9068 -0.1224 -2.4652
 6243TIP3   OH240287   1.353   1.942   1.037  0.3325  0.1354  0.0301
 6243TIP3    H140288   1.305   1.863   1.064  1.1956 -0.4727 -0.1604
 6243TIP3    H240289   1.377   1.984   1.120  0.3419 -0.1022  0.1505
 6244TIP3   OH240290   4.890   1.233   1.238 -0.2649  0.5611 -0.3646
 6244TIP3    H140291   4.938   1.216   1.319 -0.4627  1.0101 -0.1490
 6244TIP3    H240292   4.958   1.256   1.175 -0.0779 -0.1297 -0.4235
 6245TIP3   OH240293   4.657   4.449   8.030 -0.0398  0.1453 -0.1364
 6245TIP3    H140294   4.562   4.464   8.028 -0.3333 -1.4204  0.4198
 6245TIP3    H240295   4.678   4.420   7.941  0.1076  1.4419 -0.5361
 6246TIP3   OH240296   1.940   3.520   1.638  0.4872 -0.2061  0.7545
 6246TIP3    H140297   1.896   3.583   1.695  1.0788  0.2644  0.7031
 6246TIP3    H240298   1.973   3.453   1.697 -0.7479 -0.8607  0.7454
 6247TIP3   OH240299   4.753   0.840   0.804 -0.0262  0.3369 -0.1847
 6247TIP3    H140300   4.693   0.899   0.758  0.1805  0.4221 -0.3491
 6247TIP3    H240301   4.697   0.791   0.865 -0.3272  0.1239 -0.6241
 6248TIP3   OH240302   6.495   0.178   8.747 -0.1156  0.2738 -0.2362
 6248TIP3    H140303   6.530   0.091   8.727  0.5967  0.5134 -0.0733
 6248TIP3    H240304   6.402   0.172   8.727  0.1602 -0.1452 -1.5060
 6249TIP3   OH240305   2.395   2.574   7.546 -0.4479 -0.7839  0.1698
 6249TIP3    H140306   2.341   2.496   7.556 -1.4174  0.0111  1.6253
 6249TIP3    H240307   2.413   2.602   7.636  0.4972  0.2520 -0.3193
 6250TIP3   OH240308   3.480   2.073   6.580  0.4575 -0.9255  1.0292
 6250TIP3    H140309   3.552   2.012   6.563  0.8281  0.0333 -1.2500
 6250TIP3    H240310   3.523   2.155   6.606  0.1824 -0.5810  0.4382
 6251TIP3   OH240311   0.919   0.739   1.713 -0.9655  0.4920 -0.2636
 6251TIP3    H140312   0.851   0.799   1.684 -2.3893 -1.0615 -0.3131
 6251TIP3    H240313   0.879   0.652   1.707  1.0540 -0.5083 -0.3855
 6252TIP3   OH240314   4.562   3.217   7.309  0.5840 -0.1695 -0.6705
 6252TIP3    H140315   4.550   3.130   7.346 -0.0962 -0.4064 -1.4300
 6252TIP3    H240316   4.599   3.201   7.223  1.1310  0.3324 -0.5358
 6253TIP3   OH240317   6.156   0.220   7.915 -0.6582 -0.3795 -0.3480
 6253TIP3    H140318   6.122   0.298   7.958  1.3269 -0.3029  1.2635
 6253TIP3    H240319   6.212   0.252   7.845 -1.2827 -0.4238 -0.8752
 6254TIP3   OH240320   2.696   3.842   8.657  0.1133 -0.4821  0.5443
 6254TIP3    H140321   2.791   3.829   8.649  0.2322  0.7213 -0.3056
 6254TIP3    H240322   2.667   3.858   8.567 -0.7308  0.1512  0.9141
 6255TIP3   OH240323   1.945   4.390   0.505 -0.0276  0.1860 -0.6401
 6255TIP3    H140324   1.919   4.456   0.440 -0.2884 -0.7989 -1.5570
 6255TIP3    H240325   2.039   4.378   0.492  0.2756  1.2480  0.3660
 6256TIP3   OH240326   0.563   3.560   8.519  0.3280 -0.2894 -0.1574
 6256TIP3    H140327   0.656   3.582   8.510  0.2639 -0.7318 -2.3474
 6256TIP3    H240328   0.517   3.631   8.474 -0.3178 -0.7509 -0.2344
 6257TIP3   OH240329   1.763   5.582   8.286  0.2434 -0.2379 -0.2734
 6257TIP3    H140330   1.721   5.641   8.223 -0.4440 -1.3748 -0.9160
 6257TIP3    H240331   1.851   5.570   8.251  0.4581  0.5614 -0.0260
 6258TIP3   OH240332   6.709   4.124   5.917  0.2282  0.3769  0.0706
 6258TIP3    H140333   6.790   4.084   5.886 -0.4236  0.8117 -2.4081
 6258TIP3    H240334   6.737   4.208   5.955  1.1106 -0.3734  1.1490
 6259TIP3   OH240335   4.315   2.224   7.890 -0.3121 -0.4444 -0.3951
 6259TIP3    H140336   4.375   2.175   7.834  1.1047  1.0989 -0.3069
 6259TIP3    H240337   4.241   2.245   7.833  0.6341  0.2288 -1.4238
 6260TIP3   OH240338   2.856   3.554   7.339 -0.4381 -0.7344  0.1697
 6260TIP3    H140339   2.831   3.471   7.297 -3.1800 -0.5257  1.1690
 6260TIP3    H240340   2.873   3.614   7.266  1.0540 -1.9810 -0.5668
 6261TIP3   OH240341   2.866   0.393   0.857  0.2986 -0.1415 -0.3172
 6261TIP3    H140342   2.882   0.362   0.946 -2.8966  1.9860  1.1777
 6261TIP3    H240343   2.807   0.327   0.819 -0.8974  0.4901  0.3671
 6262TIP3   OH240344   2.913   6.060   6.687  0.0356 -0.4093 -0.2002
 6262TIP3    H140345   2.990   6.036   6.636  0.9478 -0.4380  1.1496
 6262TIP3    H240346   2.931   6.029   6.775 -1.8427 -1.0481  0.0056
 6263TIP3   OH240347   0.334   0.133   0.145  0.3779 -0.1196 -0.0139
 6263TIP3    H140348   0.392   0.067   0.107  0.9186  0.2745  0.1248
 6263TIP3    H240349   0.250   0.118   0.102  0.2422 -1.4875  0.6500
 6264TIP3   OH240350   3.566   3.643   5.852  0.1018  0.2309 -0.9419
 6264TIP3    H140351   3.570   3.547   5.853 -0.3798  0.1813 -2.1819
 6264TIP3    H240352   3.645   3.669   5.804  0.5083  0.5010 -0.1585
 6265TIP3   OH240353   5.292   3.681   7.389  0.2105  0.3815 -0.1475
 6265TIP3    H140354   5.266   3.598   7.349  1.5657 -0.5057  0.7107
 6265TIP3    H240355   5.302   3.741   7.315 -0.9663 -0.1540 -0.7679
 6266TIP3   OH240356   3.099   1.861   0.030 -0.4488 -0.3432  0.1729
 6266TIP3    H140357   3.176   1.840   0.082 -1.1701 -1.4282  0.8618
 6266TIP3    H240358   3.125   1.936  -0.023 -0.0771  1.6415  2.9885
 6267TIP3   OH240359   5.603   3.956   1.245  0.4241 -0.5816  0.6477
 6267TIP3    H140360   5.601   4.045   1.209  0.1047 -1.3887 -1.5162
 6267TIP3    H240361   5.511   3.928   1.242  0.8274 -1.9252 -1.4146
 6268TIP3   OH240362   4.912   2.485   1.198  0.3378  0.4243 -0.1715
 6268TIP3    H140363   4.936   2.504   1.289 -0.4165 -0.7930  0.2963
 6268TIP3    H240364   4.826   2.444   1.204 -0.7553  2.3337 -1.6195
 6269TIP3   OH240365   4.364   1.557   8.490  0.2742 -0.3619 -0.4302
 6269TIP3    H140366   4.400   1.496   8.426  3.0454  0.2540  0.4396
 6269TIP3    H240367   4.397   1.643   8.463 -0.3316  0.2122  0.5803
 6270TIP3   OH240368   6.637   0.721   0.053 -0.1329 -0.3406  0.0606
 6270TIP3    H140369   6.701   0.652   0.037  2.5642  2.1941 -0.9284
 6270TIP3    H240370   6.620   0.716   0.147  1.4986 -1.1520  0.3540
 6271TIP3   OH240371   6.622   4.040   1.181  0.0135 -0.0365 -0.1948
 6271TIP3    H140372   6.575   4.099   1.122 -1.8575 -1.4312 -0.1742
 6271TIP3    H240373   6.632   4.090   1.262 -1.7130  0.2182 -0.1013
 6272TIP3   OH240374   4.952   5.407   7.589  0.1509 -0.0595 -0.7505
 6272TIP3    H140375   4.909   5.409   7.674 -2.5949 -0.1956 -2.0322
 6272TIP3    H240376   4.963   5.314   7.570  0.7507 -0.0295 -0.5763
 6273TIP3   OH240377   0.728   2.897   7.847  0.1424  0.2178  0.4650
 6273TIP3    H140378   0.710   2.878   7.940  0.3366  0.9609  0.6596
 6273TIP3    H240379   0.783   2.975   7.849  0.5353 -0.0308 -0.2637
 6274TIP3   OH240380   0.228   2.202   0.910  0.3278 -0.0222 -0.1570
 6274TIP3    H140381   0.208   2.295   0.899  0.3433 -0.1486 -1.3990
 6274TIP3    H240382   0.148   2.157   0.882  0.3463 -0.3976  0.3701
 6275TIP3   OH240383   5.286   2.622   0.427 -0.3178 -0.1712 -0.8279
 6275TIP3    H140384   5.222   2.693   0.420  0.7541  0.9684  0.4000
 6275TIP3    H240385   5.317   2.626   0.518  3.0978  0.7724 -1.9008
 6276TIP3   OH240386   4.476   0.585   7.810 -0.4253  0.2034  0.0878
 6276TIP3    H140387   4.503   0.570   7.901 -0.4483 -3.2220 -0.3632
 6276TIP3    H240388   4.519   0.668   7.786  0.3471  0.7056  2.8939
 6277TIP3   OH240389   1.469   4.800   6.810 -0.1749 -0.3696 -0.2877
 6277TIP3    H140390   1.429   4.810   6.724 -1.2410 -0.7640  0.1418
 6277TIP3    H240391   1.416   4.733   6.853 -0.7360  1.0025  1.2798
 6278TIP3   OH240392   6.109   2.823   1.283  0.3003 -0.2009  0.6251
 6278TIP3    H140393   6.125   2.749   1.224 -1.1624 -1.1301  1.3287
 6278TIP3    H240394   6.140   2.793   1.368 -0.3673 -0.0355  0.9326
 6279TIP3   OH240395   4.498   0.553   7.396  0.5504  0.0600  0.2032
 6279TIP3    H140396   4.454   0.632   7.427 -0.0813  0.3774 -1.3946
 6279TIP3    H240397   4.472   0.484   7.457 -0.5418  0.6758  0.4382
 6280TIP3   OH240398   6.678   6.015   6.450 -0.0591  0.3769  0.0438
 6280TIP3    H140399   6.677   6.054   6.537  0.3395 -0.2131  0.3178
 6280TIP3    H240400   6.590   6.029   6.416 -0.2553  0.4941  0.5941
 6281TIP3   OH240401   3.271   6.406   8.672  0.7207  0.0497  0.5094
 6281TIP3    H140402   3.323   6.366   8.603  2.5026  0.6721  1.4447
 6281TIP3    H240403   3.271   6.342   8.743 -0.0362 -0.0561  0.4243
 6282TIP3   OH240404   2.068   5.046   0.982  0.6299  0.4887  0.1172
 6282TIP3    H140405   2.091   5.139   0.982  3.4395 -0.1032 -0.7201
 6282TIP3    H240406   2.116   5.010   0.908 -2.3077 -1.2802 -1.0867
 6283TIP3   OH240407   3.867   5.957   8.528  0.4477  0.2109 -0.8935
 6283TIP3    H140408   3.857   6.035   8.582  2.8812  0.0395 -0.0841
 6283TIP3    H240409   3.820   5.889   8.577  0.7139  0.5563 -0.1441
 6284TIP3   OH240410   4.673   6.164   7.197  0.4125 -0.3954 -0.3456
 6284TIP3    H140411   4.759   6.161   7.237  0.4504 -1.1681 -0.4754
 6284TIP3    H240412   4.684   6.119   7.113  0.6259  2.1962 -1.8038
 6285TIP3   OH240413   5.890   3.140   6.762  0.6497  0.3960 -0.2435
 6285TIP3    H140414   5.970   3.189   6.744  0.3996  1.3733  1.1489
 6285TIP3    H240415   5.827   3.173   6.698  1.1144  0.2756 -0.7638
 6286TIP3   OH240416   3.262   2.255   0.887 -0.3861  0.4769 -0.1650
 6286TIP3    H140417   3.340   2.309   0.877 -0.0290  0.0484  0.2580
 6286TIP3    H240418   3.235   2.235   0.797  0.0079  0.6052 -0.3129
 6287TIP3   OH240419   0.190   1.238   7.614 -0.3819 -0.1233  0.3315
 6287TIP3    H140420   0.121   1.253   7.549 -0.0919  0.2567  0.1012
 6287TIP3    H240421   0.271   1.256   7.566 -0.2237  1.7938  1.2267
 6288TIP3   OH240422   2.232   0.905   7.883  0.6418 -0.3307  0.0342
 6288TIP3    H140423   2.236   0.886   7.789 -0.3141 -0.1729 -0.0522
 6288TIP3    H240424   2.207   0.997   7.888 -2.9569 -1.1924  0.3841
 6289TIP3   OH240425   3.387   4.976   7.101  0.2829  0.5833  0.4248
 6289TIP3    H140426   3.354   4.956   7.014  0.4855  0.9093  0.2679
 6289TIP3    H240427   3.482   4.975   7.091  0.3425 -0.6838  0.9484
 6290TIP3   OH240428   2.456   3.031   7.217  0.1268 -0.3680  0.0260
 6290TIP3    H140429   2.432   2.942   7.189  0.0715 -0.4117  0.2127
 6290TIP3    H240430   2.538   3.020   7.264 -1.0151 -0.6572  2.0809
 6291TIP3   OH240431   1.778   4.180   1.037  0.1715  0.4960 -0.5260
 6291TIP3    H140432   1.872   4.189   1.053  0.1121 -0.1168  0.2193
 6291TIP3    H240433   1.772   4.135   0.953  0.5837 -0.9042  0.1576
 6292TIP3   OH240434   6.731   2.594   6.323  0.3646  0.0652 -0.5701
 6292TIP3    H140435   6.785   2.562   6.251  1.2289 -1.5106  0.7397
 6292TIP3    H240436   6.642   2.564   6.301  0.5727 -0.2011 -1.0697
 6293TIP3   OH240437   5.593   1.425   7.906 -0.0952 -1.0444  0.1128
 6293TIP3    H140438   5.646   1.374   7.968  0.7963  0.1985  0.4204
 6293TIP3    H240439   5.508   1.382   7.908 -0.0035 -1.2544  1.9701
 6294TIP3   OH240440   0.846   4.971   1.465 -0.7886 -0.6735 -0.1636
 6294TIP3    H140441   0.914   4.960   1.532 -1.0134  1.0309  0.3767
 6294TIP3    H240442   0.795   4.890   1.470 -0.3718 -0.8788  1.2334
 6295TIP3   OH240443   1.319   0.854   0.906  0.5970  0.1070  0.0440
 6295TIP3    H140444   1.354   0.884   0.822  0.9969 -2.5575 -0.8502
 6295TIP3    H240445   1.386   0.794   0.940 -1.1848 -1.8504  0.3401
 6296TIP3   OH240446   0.761   1.336   0.113  0.3600  0.1474 -0.6358
 6296TIP3    H140447   0.687   1.289   0.151  1.2133 -1.0894 -0.4615
 6296TIP3    H240448   0.799   1.386   0.186  0.9064 -0.8097 -0.2496
 6297TIP3   OH240449   0.926   1.379   8.730  0.4291 -0.7067  1.1872
 6297TIP3    H140450   0.864   1.376   8.803 -0.1545  1.8187  0.8947
 6297TIP3    H240451   0.878   1.341   8.656 -1.2178  1.9634  0.7546
 6298TIP3   OH240452   0.356   4.815   1.207 -0.1333 -0.7667  0.3127
 6298TIP3    H140453   0.263   4.834   1.214 -0.1275 -0.5159 -0.2340
 6298TIP3    H240454   0.371   4.802   1.113  0.6588  0.6678  0.2213
 6299TIP3   OH240455   1.956   1.166   6.156 -0.1795  0.4813 -0.4786
 6299TIP3    H140456   2.043   1.167   6.114  0.2753  0.2488  0.4281
 6299TIP3    H240457   1.898   1.204   6.091 -0.0042 -2.2382 -2.4168
 6300TIP3   OH240458   3.757   3.200   6.870 -0.7167 -0.3005 -0.4719
 6300TIP3    H140459   3.814   3.200   6.946 -0.7645 -0.2006 -0.4361
 6300TIP3    H240460   3.683   3.145   6.895  0.0204 -1.5837 -1.0131
 6301TIP3   OH240461   2.722   5.737   8.218 -0.0114 -0.8938 -0.4603
 6301TIP3    H140462   2.751   5.741   8.127 -0.0260  0.0097 -0.4318
 6301TIP3    H240463   2.638   5.783   8.219 -0.6725 -2.0664 -0.2309
 6302TIP3   OH240464   2.341   1.163   7.733  0.0280  0.0966  0.7750
 6302TIP3    H140465   2.318   1.158   7.641  0.7909 -0.2794  0.5940
 6302TIP3    H240466   2.275   1.221   7.772  1.4990  2.9402 -0.6214
 6303TIP3   OH240467   0.314   4.039   8.007 -0.7033  0.5935  0.2826
 6303TIP3    H140468   0.357   4.098   8.069 -0.2606  0.1703  0.3747
 6303TIP3    H240469   0.330   4.079   7.921 -0.1911  0.4771  0.3234
 6304TIP3   OH240470   3.565   0.858   7.295 -0.3313 -0.3223  0.7130
 6304TIP3    H140471   3.581   0.950   7.275 -2.1334 -0.0498  0.3642
 6304TIP3    H240472   3.652   0.817   7.293  0.2302  0.8594 -1.7120
 6305TIP3   OH240473   1.790   0.818   6.625 -0.3834  0.1474  0.2612
 6305TIP3    H140474   1.877   0.813   6.586 -0.9270  1.5891 -1.2340
 6305TIP3    H240475   1.749   0.734   6.603  0.3441 -0.2427  0.3442
 6306TIP3   OH240476   6.427   1.420   1.735 -0.0991 -0.8978 -0.0055
 6306TIP3    H140477   6.403   1.412   1.827 -2.5061  1.0729 -0.3667
 6306TIP3    H240478   6.514   1.458   1.736 -0.9095  1.0960  1.5299
 6307TIP3   OH240479   0.640   3.963   7.358  0.5385  0.3947 -0.0605
 6307TIP3    H140480   0.736   3.964   7.363  0.5726  0.6178 -0.6598
 6307TIP3    H240481   0.615   3.875   7.386  0.9710  0.0705 -0.6750
 6308TIP3   OH240482   1.163   0.647   6.275 -0.0149 -0.2273  0.1858
 6308TIP3    H140483   1.110   0.582   6.321  1.7007 -1.6052  0.3152
 6308TIP3    H240484   1.100   0.699   6.225 -1.5667 -1.0574  1.2123
 6309TIP3   OH240485   0.991   4.318   8.154 -0.1096 -0.4360  0.8070
 6309TIP3    H140486   1.010   4.247   8.092 -0.2047  0.2932 -0.0901
 6309TIP3    H240487   1.010   4.282   8.240 -1.0199 -1.8535  0.4450
 6310TIP3   OH240488   6.424   6.744   1.227 -0.4158  0.0117  0.1445
 6310TIP3    H140489   6.436   6.838   1.214  1.2241 -0.3329 -1.0438
 6310TIP3    H240490   6.506   6.714   1.265  0.4363 -1.4559 -2.6129
 6311TIP3   OH240491   2.528   3.675   1.492  0.9365 -0.4619 -0.6066
 6311TIP3    H140492   2.534   3.603   1.555  1.1866 -0.6357 -0.8314
 6311TIP3    H240493   2.450   3.655   1.441  1.4418 -0.9841 -1.1818
 6312TIP3   OH240494   5.202   3.833   5.917 -0.2984  0.9299  0.4323
 6312TIP3    H140495   5.143   3.882   5.860 -1.6983 -1.6326 -0.4547
 6312TIP3    H240496   5.157   3.829   6.001 -0.3083  0.9046  0.4256
 6313TIP3   OH240497   2.266   5.510   1.350 -0.5004  0.0239  0.3322
 6313TIP3    H140498   2.194   5.502   1.412  0.2090 -1.1727  1.0552
 6313TIP3    H240499   2.267   5.426   1.303  0.1101  0.2117 -0.0030
 6314TIP3   OH240500   4.258   3.518   0.973 -0.6166  0.0638  0.0820
 6314TIP3    H140501   4.302   3.470   0.903  1.4883 -0.3146  1.5711
 6314TIP3    H240502   4.223   3.450   1.031  0.5853  0.3128  1.1252
 6315TIP3   OH240503   6.273   1.016   8.761 -0.0038 -0.0245 -0.0129
 6315TIP3    H140504   6.225   1.009   8.844 -2.0469 -1.4277 -1.2078
 6315TIP3    H240505   6.205   1.036   8.696  1.3291 -0.3187 -1.5397
 6316TIP3   OH240506   0.570   5.060   8.559  0.1717  0.3223 -0.2302
 6316TIP3    H140507   0.618   5.054   8.477 -0.4654  1.1325 -0.6682
 6316TIP3    H240508   0.530   4.973   8.570  0.5116  0.1172 -0.6084
 6317TIP3   OH240509   5.013   3.602   8.590  0.0664 -0.6163 -0.5106
 6317TIP3    H140510   4.949   3.648   8.535  0.3675  0.8348  0.3126
 6317TIP3    H240511   4.993   3.509   8.576 -0.4266 -0.2810 -2.3800
 6318TIP3   OH240512   3.190   6.629   0.057 -0.0048 -0.4106  0.1971
 6318TIP3    H140513   3.196   6.579  -0.025 -0.3130 -0.6131  0.2987
 6318TIP3    H240514   3.197   6.720   0.029  3.7819 -0.5005  0.2475
 6319TIP3   OH240515   5.648   1.749   5.993  0.8667 -0.0864 -0.1215
 6319TIP3    H140516   5.581   1.817   5.991  0.6945 -0.2486  0.0021
 6319TIP3    H240517   5.676   1.739   5.902  0.9957  0.2497 -0.1178
 6320TIP3   OH240518   0.251   5.640   6.474 -0.1538 -0.1833  0.5123
 6320TIP3    H140519   0.317   5.677   6.415  0.9083 -0.3657  1.5418
 6320TIP3    H240520   0.170   5.685   6.451  0.1716 -0.4137 -1.2240
 6321TIP3   OH240521   4.358   0.771   7.441  0.4902 -0.7355 -0.5661
 6321TIP3    H140522   4.331   0.796   7.529 -2.0313  0.7435 -1.6482
 6321TIP3    H240523   4.396   0.851   7.404 -0.8693 -0.5506 -1.6367
 6322TIP3   OH240524   4.718   0.603   0.066  0.3950  0.4315 -0.2410
 6322TIP3    H140525   4.778   0.542   0.024  0.4906  1.5288 -1.8112
 6322TIP3    H240526   4.635   0.555   0.073  1.3123 -0.9875  1.6583
 6323TIP3   OH240527   3.633   3.675   8.706  0.1112  0.2342 -0.0348
 6323TIP3    H140528   3.665   3.585   8.700  1.5439  0.5418  1.9469
 6323TIP3    H240529   3.564   3.671   8.772  0.6775  0.7043  0.5873
 6324TIP3   OH240530   3.070   6.281   6.941  0.3691 -0.7778  0.6079
 6324TIP3    H140531   3.063   6.251   7.032  0.2629 -0.2967  0.7586
 6324TIP3    H240532   3.039   6.371   6.943  0.4594 -0.7356  0.1093
 6325TIP3   OH240533   2.936   2.614   1.049  0.3731  0.7677  0.0201
 6325TIP3    H140534   2.936   2.671   0.971  3.2255 -0.0456 -0.7058
 6325TIP3    H240535   2.961   2.528   1.015  1.9757  0.4611  1.8424
 6326TIP3   OH240536   1.899   4.141   1.979  0.2521 -0.0766  0.0816
 6326TIP3    H140537   1.861   4.078   1.918  2.6086 -1.3106 -0.2153
 6326TIP3    H240538   1.979   4.099   2.011  1.4862  2.4325  0.5140
 6327TIP3   OH240539   4.657   3.323   0.785 -0.0408  0.6667 -0.0587
 6327TIP3    H140540   4.627   3.277   0.707  0.5804  0.7450 -0.3500
 6327TIP3    H240541   4.612   3.279   0.857  1.5398 -1.3397 -0.1840
 6328TIP3   OH240542   5.559   4.381   0.743  0.5441  0.4935 -0.2566
 6328TIP3    H140543   5.589   4.373   0.834 -1.5562  2.1857  0.6917
 6328TIP3    H240544   5.588   4.301   0.700  0.8610 -0.7541  2.1371
 6329TIP3   OH240545   5.691   5.073   7.006 -0.0093  0.7372 -0.2709
 6329TIP3    H140546   5.656   5.162   7.008 -0.3230  0.6474 -1.3426
 6329TIP3    H240547   5.629   5.022   7.058 -0.1044  1.0397 -0.0814
 6330TIP3   OH240548   3.945   5.920   5.640  0.1631 -0.1851  0.1296
 6330TIP3    H140549   4.030   5.964   5.631 -0.5449  1.0002 -1.0490
 6330TIP3    H240550   3.955   5.866   5.719  1.4879  1.1350  0.9257
 6331TIP3   OH240551   5.277   5.367   7.327  0.3964  0.1413  0.0418
 6331TIP3    H140552   5.360   5.327   7.356  0.3661 -0.6128 -0.8623
 6331TIP3    H240553   5.292   5.390   7.236  0.4485  2.3800  0.5584
 6332TIP3   OH240554   0.015   1.217   6.805  0.0248  1.1278 -0.6791
 6332TIP3    H140555   0.085   1.225   6.740 -0.0530 -1.2101 -1.1460
 6332TIP3    H240556  -0.055   1.170   6.760  0.3695 -1.5521  1.2698
 6333TIP3   OH240557   5.575   3.088   0.022  0.0452  0.6466 -0.1687
 6333TIP3    H140558   5.559   2.997   0.047 -0.4756  0.8150  0.1238
 6333TIP3    H240559   5.509   3.138   0.070  0.9425  1.2761  0.4474
 6334TIP3   OH240560   6.233   4.143   6.897  0.5412 -0.0037 -0.1166
 6334TIP3    H140561   6.231   4.078   6.826 -0.2557  0.0743 -0.1760
 6334TIP3    H240562   6.294   4.210   6.866  1.6909 -0.9050  0.1206
 6335TIP3   OH240563   5.751   4.821   6.654  0.2008 -0.1844 -0.5755
 6335TIP3    H140564   5.684   4.754   6.648  0.4114 -0.5102  0.4065
 6335TIP3    H240565   5.702   4.902   6.672  0.0441 -0.3595 -0.2021
 6336TIP3   OH240566   6.246   1.955   0.118  0.3646  0.1073 -0.0203
 6336TIP3    H140567   6.211   1.896   0.184 -0.6740  1.8099  1.0375
 6336TIP3    H240568   6.213   1.921   0.035 -0.9600 -0.3242  0.6485
 6337TIP3   OH240569   6.686   0.013   6.457 -0.4387  0.0877 -0.1104
 6337TIP3    H140570   6.702   0.090   6.512 -2.8803 -1.3985  3.0150
 6337TIP3    H240571   6.601   0.030   6.417 -0.8456 -0.8529  0.3552
 6338TIP3   OH240572   5.246   4.391   8.003 -0.2672 -0.0216 -0.1318
 6338TIP3    H140573   5.290   4.421   8.082  1.7071  0.2174 -1.2440
 6338TIP3    H240574   5.187   4.462   7.979 -0.1550  0.3167  0.5805
 6339TIP3   OH240575   4.576   0.361   7.996  0.3804 -0.4632  0.0513
 6339TIP3    H140576   4.610   0.353   7.907  0.2970  0.5275 -0.0770
 6339TIP3    H240577   4.487   0.326   7.992  0.9498 -1.9912  0.1336
 6340TIP3   OH240578   4.252   5.580   8.478  0.4955 -0.3548  0.0938
 6340TIP3    H140579   4.187   5.648   8.493  1.2617  0.1806  1.1244
 6340TIP3    H240580   4.220   5.505   8.527  1.9270  0.7368  2.9252
 6341TIP3   OH240581   0.413   5.519   6.995 -0.3803 -0.8593  0.6168
 6341TIP3    H140582   0.477   5.574   6.950  0.1940 -0.5543  1.7788
 6341TIP3    H240583   0.461   5.438   7.016 -0.8602 -1.3065  0.0308
 6342TIP3   OH240584   2.711   4.293   1.712  0.1141 -0.7833  0.3273
 6342TIP3    H140585   2.745   4.220   1.764 -1.1788 -0.8514  1.1056
 6342TIP3    H240586   2.730   4.371   1.764 -1.3314 -0.8656  1.0313
 6343TIP3   OH240587   2.707   1.017   6.311  0.2837 -0.6375  0.2767
 6343TIP3    H140588   2.780   1.047   6.366  0.0659  1.1059 -0.3106
 6343TIP3    H240589   2.742   1.018   6.222 -0.9565  2.4397 -0.3361
 6344TIP3   OH240590   3.002   3.524   1.009  0.2158 -0.0986 -0.0702
 6344TIP3    H140591   2.947   3.556   1.081  1.0811  1.0094  0.1348
 6344TIP3    H240592   2.972   3.574   0.933 -0.5995 -1.1653 -0.4747
 6345TIP3   OH240593   0.768   3.099   2.065 -0.2577  0.5877 -0.4827
 6345TIP3    H140594   0.807   3.185   2.077  0.1177  0.3776 -0.1623
 6345TIP3    H240595   0.678   3.109   2.095  0.3469  0.3629  1.5665
 6346TIP3   OH240596   4.978   3.324   8.822  0.4983 -0.2023 -0.1428
 6346TIP3    H140597   4.969   3.311   8.916 -2.5215 -0.8388 -0.4315
 6346TIP3    H240598   5.017   3.411   8.814  1.5954 -0.4775  1.6614
 6347TIP3   OH240599   3.776   1.666   0.522  0.6352  0.9264  0.1660
 6347TIP3    H140600   3.847   1.703   0.575 -1.0737  0.9492  2.5832
 6347TIP3    H240601   3.696   1.700   0.562 -0.8564 -1.5938 -0.4726
 6348TIP3   OH240602   5.017   6.549   0.437 -0.1441  0.9701 -0.0045
 6348TIP3    H140603   4.944   6.487   0.435 -0.6940  1.6229 -1.3957
 6348TIP3    H240604   4.977   6.634   0.453  0.4797  1.1604  0.6217
 6349TIP3   OH240605   3.625   1.653   8.037 -0.0074 -0.1176 -0.1283
 6349TIP3    H140606   3.632   1.625   7.945 -1.0586 -0.0133 -0.2531
 6349TIP3    H240607   3.714   1.679   8.061  0.5820 -1.4867 -0.6801
 6350TIP3   OH240608   5.756   5.477   8.501 -0.2841 -0.3278 -0.3528
 6350TIP3    H140609   5.755   5.483   8.596  1.7301  0.2650 -0.3244
 6350TIP3    H240610   5.678   5.525   8.473 -0.9564 -0.5861  0.9717
 6351TIP3   OH240611   5.007   1.352   1.000 -0.1749  0.7119  0.2935
 6351TIP3    H140612   5.064   1.315   0.933  0.1024 -2.0293  1.8608
 6351TIP3    H240613   5.053   1.430   1.030  2.0031 -0.5156  0.3623
 6352TIP3   OH240614   3.163   3.620   7.185  0.3322  0.0995 -0.0045
 6352TIP3    H140615   3.079   3.665   7.180 -0.1007 -0.7199 -0.2357
 6352TIP3    H240616   3.170   3.572   7.103  1.7900  1.4386 -0.7398
 6353TIP3   OH240617   6.452   0.186   8.036 -0.1424 -0.1223  0.2252
 6353TIP3    H140618   6.370   0.195   8.085 -1.4123  1.0182 -1.9255
 6353TIP3    H240619   6.488   0.275   8.033  0.7771 -0.4825  0.5100
 6354TIP3   OH240620   3.329   2.944   7.190  0.1141  0.2349 -0.2731
 6354TIP3    H140621   3.321   3.014   7.255  0.2575  0.1627 -0.1757
 6354TIP3    H240622   3.383   2.878   7.233  1.5286  0.8562 -1.0163
 6355TIP3   OH240623   5.962   5.492   7.996  0.1138  1.0236  0.3479
 6355TIP3    H140624   5.947   5.567   8.053 -1.7099  1.1128 -0.1974
 6355TIP3    H240625   5.963   5.528   7.908  0.9348  0.6161  0.1779
 6356TIP3   OH240626   2.721   6.311   1.014 -0.0944  0.3065  0.1698
 6356TIP3    H140627   2.723   6.260   1.095  2.0437 -0.9349 -0.5882
 6356TIP3    H240628   2.799   6.366   1.018  1.7177 -1.8751 -2.2581
 6357TIP3   OH240629   3.081   0.409   7.903 -0.4869 -0.0935  0.5087
 6357TIP3    H140630   3.047   0.459   7.977  2.1629  1.1115  1.0386
 6357TIP3    H240631   3.133   0.339   7.943 -0.8006 -0.7713 -0.2399
 6358TIP3   OH240632   3.578   5.057   7.567 -0.2332  0.0929 -1.1615
 6358TIP3    H140633   3.491   5.017   7.574  0.0021 -0.2527 -0.0057
 6358TIP3    H240634   3.594   5.094   7.654  0.8202  0.0706 -1.3418
 6359TIP3   OH240635   2.204   6.778   5.991  0.0382  0.2573  0.3514
 6359TIP3    H140636   2.255   6.816   6.062 -0.6600 -1.4895  1.8707
 6359TIP3    H240637   2.163   6.853   5.947  0.8328  1.4019  1.5017
 6360TIP3   OH240638   6.038   5.712   8.625  0.3395  0.0905 -0.4828
 6360TIP3    H140639   6.069   5.661   8.700 -0.8562  0.2400  0.1378
 6360TIP3    H240640   6.046   5.652   8.551 -2.5402 -1.7218  0.4663
 6361TIP3   OH240641   4.279   5.913   8.373  0.3869 -0.4306  0.1454
 6361TIP3    H140642   4.374   5.906   8.361  0.5997 -0.8384  1.8811
 6361TIP3    H240643   4.265   6.001   8.407  0.1074 -0.3098 -0.2685
 6362TIP3   OH240644   3.992   3.645   1.326 -0.2582  0.0485  0.9208
 6362TIP3    H140645   4.006   3.555   1.354 -0.0490  0.6759  3.0001
 6362TIP3    H240646   4.079   3.683   1.320 -0.3346  0.0963 -0.1050
 6363TIP3   OH240647   4.171   2.175   0.843 -0.1417 -0.1608  0.1700
 6363TIP3    H140648   4.159   2.108   0.775  0.4866 -0.2307  0.1261
 6363TIP3    H240649   4.136   2.134   0.922  0.7690 -0.7733  0.2653
 6364TIP3   OH240650   5.058   3.245   6.687  0.5767 -0.0993  0.4600
 6364TIP3    H140651   5.068   3.282   6.599  0.2476 -1.4056 -0.1450
 6364TIP3    H240652   5.093   3.157   6.681  1.3486  0.0798  1.8835
 6365TIP3   OH240653   0.414   3.849   0.638  0.3737 -0.3959  0.2965
 6365TIP3    H140654   0.385   3.895   0.717 -0.2861  0.9377 -0.6869
 6365TIP3    H240655   0.501   3.885   0.620  0.4619 -0.5920  0.3271
 6366TIP3   OH240656   3.517   0.634   1.713 -0.1936 -0.5079 -0.0678
 6366TIP3    H140657   3.425   0.653   1.695 -0.4097 -1.1694  0.3093
 6366TIP3    H240658   3.561   0.719   1.706 -0.7575 -0.2652 -0.7009
 6367TIP3   OH240659   2.632   2.449   1.034  0.4245  0.0033 -0.2936
 6367TIP3    H140660   2.659   2.463   0.943 -0.9710 -0.2026 -0.7620
 6367TIP3    H240661   2.606   2.535   1.066  0.0012 -0.0802 -0.4065
 6368TIP3   OH240662   2.906   1.786   7.110 -0.1539 -0.1275  0.0901
 6368TIP3    H140663   2.821   1.787   7.154 -0.6528 -0.6511 -0.8237
 6368TIP3    H240664   2.969   1.806   7.179 -1.2761  4.9335  0.0547
 6369TIP3   OH240665   1.215   1.484   8.686  0.8657 -0.5288  0.6147
 6369TIP3    H140666   1.150   1.414   8.683 -1.9139  1.8071  1.0540
 6369TIP3    H240667   1.183   1.542   8.755  0.5009  3.3012 -2.4402
 6370TIP3   OH240668   4.506   4.236   5.880  0.0282 -0.0758  0.4379
 6370TIP3    H140669   4.427   4.223   5.933 -1.1271 -0.9156 -1.3823
 6370TIP3    H240670   4.538   4.148   5.863  0.3124  0.1664 -0.3209
 6371TIP3   OH240671   0.847   0.859   7.289  0.0700 -0.2839  0.2978
 6371TIP3    H140672   0.914   0.792   7.276 -0.5859 -0.9286  0.1739
 6371TIP3    H240673   0.875   0.907   7.368  1.3736  0.3377 -0.5179
 6372TIP3   OH240674   1.522   0.306   7.111 -0.5173 -0.8100 -0.4818
 6372TIP3    H140675   1.430   0.280   7.101 -1.2927  1.6049 -0.2070
 6372TIP3    H240676   1.565   0.270   7.033 -1.1895 -3.7043  0.3508
 6373TIP3   OH240677   1.079   4.504   7.801 -0.6924  0.2057  0.0648
 6373TIP3    H140678   1.022   4.428   7.812 -0.7710  0.0806 -1.0671
 6373TIP3    H240679   1.020   4.579   7.801 -0.4820  0.4706  2.8008
 6374TIP3   OH240680   5.093   0.379   0.103 -0.6584  0.0862  0.3057
 6374TIP3    H140681   5.025   0.336   0.051  0.3324 -1.2588  0.0886
 6374TIP3    H240682   5.136   0.438   0.042 -1.1676  0.4324  0.2723
 6375TIP3   OH240683   0.410   1.231   7.461 -0.0661 -0.1470  0.2620
 6375TIP3    H140684   0.487   1.194   7.504 -0.2294  0.6969  1.3228
 6375TIP3    H240685   0.420   1.206   7.369  2.5876  1.7014 -0.0858
 6376TIP3   OH240686   3.128   5.988   0.062 -0.1672  0.4045 -0.2600
 6376TIP3    H140687   3.080   5.906   0.050 -0.4241  0.5455 -0.2050
 6376TIP3    H240688   3.062   6.049   0.096  0.0972  0.5445  0.0008
 6377TIP3   OH240689   2.504   2.747   1.226  0.2676  0.7271  0.1471
 6377TIP3    H140690   2.539   2.768   1.313  0.4122  0.3803  0.1751
 6377TIP3    H240691   2.412   2.771   1.230  0.0997  0.0068  0.6411
 6378TIP3   OH240692   6.736   3.271   7.417  0.3735  0.4564 -0.3463
 6378TIP3    H140693   6.784   3.292   7.336  1.0372  0.7495  0.1144
 6378TIP3    H240694   6.648   3.306   7.402  0.7760  1.4283 -0.5433
 6379TIP3   OH240695   4.114   1.390   0.827 -0.2686 -0.0550  0.2128
 6379TIP3    H140696   4.126   1.456   0.759 -0.7798 -0.8425 -0.6694
 6379TIP3    H240697   4.086   1.311   0.780  1.6286 -1.3218  1.0442
 6380TIP3   OH240698   3.902   4.962   8.538  0.7733  0.7689  0.2486
 6380TIP3    H140699   3.865   4.983   8.453 -0.5969  0.0578  0.6386
 6380TIP3    H240700   3.997   4.964   8.525  0.6166 -1.4606 -1.8604
 6381TIP3   OH240701   6.247   0.932   7.569  0.8420 -0.3313 -0.2849
 6381TIP3    H140702   6.204   0.847   7.579  0.0988  0.0808  0.1473
 6381TIP3    H240703   6.211   0.968   7.488  0.0954  0.1590  0.2517
 6382TIP3   OH240704   4.163   0.388   2.299  0.0264  0.2648 -0.3920
 6382TIP3    H140705   4.084   0.379   2.352  0.0640  0.5932 -0.2776
 6382TIP3    H240706   4.225   0.327   2.338 -0.1109  0.1401 -0.3680
 6383TIP3   OH240707   4.393   0.473   8.461  0.8273 -0.1506 -0.4349
 6383TIP3    H140708   4.461   0.461   8.396 -0.1883 -0.0471 -1.5586
 6383TIP3    H240709   4.353   0.557   8.439  0.5102 -0.0811  0.3642
 6384TIP3   OH240710   0.797   2.370   1.192  0.0348  0.0128  0.3013
 6384TIP3    H140711   0.750   2.389   1.111  0.1750 -1.6695 -0.2197
 6384TIP3    H240712   0.882   2.412   1.181 -0.2781  0.5757 -0.0156
 6385TIP3   OH240713   6.630   0.718   0.359 -0.1562 -0.1450  0.2638
 6385TIP3    H140714   6.644   0.744   0.449 -3.0523 -1.8587  1.3731
 6385TIP3    H240715   6.621   0.622   0.362 -0.0965 -0.2810 -1.8621
 6386TIP3   OH240716   5.191   3.000   1.490  0.3960  0.1196  0.1720
 6386TIP3    H140717   5.114   2.969   1.537  0.7533  0.2655  0.8739
 6386TIP3    H240718   5.242   2.921   1.473  1.7765  0.3271  2.8089
 6387TIP3   OH240719   0.277   4.214   1.219 -0.2609  0.0840 -0.2535
 6387TIP3    H140720   0.196   4.254   1.188 -0.7770  0.8322  1.9124
 6387TIP3    H240721   0.286   4.244   1.310  1.8728 -0.8696 -0.0869
 6388TIP3   OH240722   0.125   2.699   0.762  0.4501 -0.0246 -0.4620
 6388TIP3    H140723   0.100   2.673   0.851 -0.4330  0.0464 -0.6810
 6388TIP3    H240724   0.214   2.733   0.772  1.0150 -1.5865  0.1019
 6389TIP3   OH240725   6.000   2.400   0.968 -0.3589  0.1064  0.2158
 6389TIP3    H140726   5.973   2.380   1.057 -1.7027  1.1426  0.0670
 6389TIP3    H240727   5.947   2.343   0.913  0.1807 -0.2422  0.0461
 6390TIP3   OH240728   4.885   2.342   2.180 -0.0717 -0.1183 -0.0348
 6390TIP3    H140729   4.830   2.302   2.248 -0.3691  0.2616 -0.0539
 6390TIP3    H240730   4.975   2.327   2.211 -0.0878 -2.3768 -0.9014
 6391TIP3   OH240731   0.966   3.810   6.289  0.2476 -0.2484 -0.1210
 6391TIP3    H140732   0.923   3.724   6.292  0.6240 -0.4434 -0.2043
 6391TIP3    H240733   1.055   3.790   6.259  0.6750  0.0448  0.9382
 6392TIP3   OH240734   0.656   6.008   6.410  0.1242 -0.3002  0.8767
 6392TIP3    H140735   0.685   5.919   6.391 -0.2322 -0.4319  0.9533
 6392TIP3    H240736   0.737   6.057   6.423  0.4344 -0.1337 -1.2420
 6393TIP3   OH240737   5.983   1.518   5.980  0.3144  0.3782 -0.1077
 6393TIP3    H140738   5.951   1.608   5.969 -0.1200  0.4507  1.4572
 6393TIP3    H240739   6.053   1.526   6.046  2.9624  0.0792 -2.6786
 6394TIP3   OH240740   5.488   0.370   8.637  0.8132  0.3188 -0.2161
 6394TIP3    H140741   5.495   0.463   8.614 -3.0040  0.7011 -0.3888
 6394TIP3    H240742   5.469   0.326   8.554  0.6434 -0.3219  0.1554
 6395TIP3   OH240743   1.154   6.304   7.144 -0.7175  0.0624  0.6054
 6395TIP3    H140744   1.118   6.255   7.219  1.8590 -1.0308  1.2286
 6395TIP3    H240745   1.217   6.245   7.105  0.3658  1.8338 -0.4457
 6396TIP3   OH240746   6.517   3.377   7.196  0.3840  0.3868 -0.0866
 6396TIP3    H140747   6.513   3.354   7.103  3.0386  1.7297 -0.6498
 6396TIP3    H240748   6.568   3.458   7.198 -0.2731  0.8249  2.5127
 6397TIP3   OH240749   2.447   4.552   7.475  0.3721 -0.0163 -0.1303
 6397TIP3    H140750   2.491   4.609   7.538  1.8584 -0.1669 -0.9691
 6397TIP3    H240751   2.369   4.521   7.520 -0.1440  2.1470  0.5733
 6398TIP3   OH240752   0.489   3.577   1.775 -0.2365  0.3548 -0.2169
 6398TIP3    H140753   0.462   3.668   1.789 -0.2914  0.0930  1.7441
 6398TIP3    H240754   0.546   3.557   1.849  0.4515 -0.9708 -1.0528
 6399TIP3   OH240755   5.540   4.113   7.560  0.4424 -0.4073 -0.4158
 6399TIP3    H140756   5.501   4.198   7.538 -0.3520 -0.5216  0.4623
 6399TIP3    H240757   5.620   4.134   7.607  1.5879 -0.1632 -2.3976
 6400TIP3   OH240758   6.763   4.580   6.548 -0.1845  0.2487 -0.2233
 6400TIP3    H140759   6.857   4.578   6.568 -0.3552 -3.0353  0.8225
 6400TIP3    H240760   6.757   4.549   6.458 -0.2786 -0.2370 -0.0540
 6401TIP3   OH240761   4.248   0.800   7.037  0.2954  0.4606  0.1173
 6401TIP3    H140762   4.327   0.745   7.032 -1.5556 -2.2505 -2.0930
 6401TIP3    H240763   4.207   0.774   7.119 -0.1212 -0.9040 -0.4968
 6402TIP3   OH240764   3.747   3.983   8.130 -0.0771 -0.2289  0.1382
 6402TIP3    H140765   3.693   4.003   8.053  0.4593 -0.1428 -0.2150
 6402TIP3    H240766   3.759   4.067   8.174 -1.1755 -0.4186  0.8480
 6403TIP3   OH240767   2.307   6.265   1.225 -0.2829  0.4365  0.7797
 6403TIP3    H140768   2.307   6.172   1.247  1.8304  0.0747 -0.4574
 6403TIP3    H240769   2.227   6.278   1.175  0.1751 -1.1237 -0.4319
 6404TIP3   OH240770   1.793   1.639   8.796  0.9836  0.0788 -0.5527
 6404TIP3    H140771   1.809   1.546   8.812  0.1619 -0.1713 -1.0845
 6404TIP3    H240772   1.879   1.675   8.777  1.6871 -0.0802  1.8987
 6405TIP3   OH240773   1.113   1.688   0.660 -0.4596 -0.2858 -0.1726
 6405TIP3    H140774   1.148   1.626   0.724  0.2190 -0.3206 -0.5679
 6405TIP3    H240775   1.168   1.676   0.582 -0.3560  0.7598 -0.2755
 6406TIP3   OH240776   6.178   1.069   8.056 -0.5544  0.4281  0.2304
 6406TIP3    H140777   6.127   1.096   7.979 -1.1529  0.4118  0.6126
 6406TIP3    H240778   6.119   1.083   8.129  0.4574  1.6718  0.8388
 6407TIP3   OH240779   6.671   0.962   2.038  0.5805 -0.4835  0.2082
 6407TIP3    H140780   6.714   1.036   1.995  1.5035 -0.7397  0.6586
 6407TIP3    H240781   6.743   0.904   2.063 -0.1156 -1.4473  0.0331
 6408TIP3   OH240782   2.391   1.291   7.284  0.1893  0.3489 -0.4627
 6408TIP3    H140783   2.329   1.248   7.344  1.1532 -1.3925 -0.6302
 6408TIP3    H240784   2.448   1.342   7.341  1.2426 -1.4710  0.2027
 6409TIP3   OH240785   4.923   1.361   8.000 -0.0400 -0.6196 -0.2650
 6409TIP3    H140786   4.949   1.337   7.911  0.2516 -0.0853 -0.3276
 6409TIP3    H240787   4.993   1.418   8.031  0.3688 -1.6035  0.6858
 6410TIP3   OH240788   6.650   3.148   7.893  0.1474 -0.3264  0.9903
 6410TIP3    H140789   6.626   3.162   7.802 -3.3351 -1.3665  1.5781
 6410TIP3    H240790   6.638   3.234   7.934  2.5612  0.3583  0.4298
 6411TIP3   OH240791   5.973   0.081   1.875 -0.6739  0.0189 -0.5599
 6411TIP3    H140792   5.960   0.170   1.844  1.1268  0.1691 -0.9746
 6411TIP3    H240793   6.023   0.038   1.805 -1.7723 -1.4291 -0.5167
 6412TIP3   OH240794   3.186   1.163   8.364  0.7361  0.3450  0.1839
 6412TIP3    H140795   3.251   1.199   8.304  0.6107 -0.3580 -0.3859
 6412TIP3    H240796   3.106   1.157   8.313  0.3426  0.7388  0.7400
 6413TIP3   OH240797   0.730   2.793   1.258 -0.1542 -0.0144  0.0694
 6413TIP3    H140798   0.651   2.809   1.310  1.0786  0.8186  1.8040
 6413TIP3    H240799   0.754   2.703   1.279 -0.9837 -0.5066 -0.9995
 6414TIP3   OH240800   0.205   6.678   0.076 -0.0593 -0.2288 -0.7148
 6414TIP3    H140801   0.203   6.582   0.075 -1.1315 -0.2316 -0.1765
 6414TIP3    H240802   0.202   6.703  -0.016  2.3708 -0.7033 -0.9808
 6415TIP3   OH240803   2.037   2.067   0.202  0.1218 -0.2855 -0.1390
 6415TIP3    H140804   1.989   2.124   0.261  1.2782  2.0845 -1.3200
 6415TIP3    H240805   2.118   2.045   0.248 -0.0377 -0.4519  0.0633
 6416TIP3   OH240806   1.813   3.608   8.583  0.6360  0.5427 -0.6135
 6416TIP3    H140807   1.736   3.658   8.610 -0.3059  0.0090 -2.1726
 6416TIP3    H240808   1.780   3.519   8.569  1.7310  0.0940 -0.4327
 6417TIP3   OH240809   5.820   3.978   5.886  0.2070  0.0552 -0.1563
 6417TIP3    H140810   5.876   3.900   5.884 -0.4547 -0.4864  1.1269
 6417TIP3    H240811   5.852   4.029   5.960  0.5898  0.9845 -0.9488
 6418TIP3   OH240812   3.721   1.096   0.305  0.0504  0.2190 -0.2870
 6418TIP3    H140813   3.693   1.012   0.270  0.3626 -0.3590  0.8033
 6418TIP3    H240814   3.741   1.079   0.397  3.3678  0.6809 -0.7786
 6419TIP3   OH240815   4.805   0.197   0.470  0.4577  0.2987 -0.0695
 6419TIP3    H140816   4.803   0.108   0.434  2.0235  0.4667 -0.6580
 6419TIP3    H240817   4.894   0.228   0.453 -0.1459  2.1113 -0.1726
 6420TIP3   OH240818   0.835   4.554   8.038  0.0139  0.4754 -0.2341
 6420TIP3    H140819   0.886   4.634   8.030 -0.4258  0.6503 -1.5159
 6420TIP3    H240820   0.900   4.484   8.043  0.4041  0.7107 -1.6764
 6421TIP3   OH240821   5.394   3.747   1.500  0.8694 -0.2164 -0.3923
 6421TIP3    H140822   5.419   3.834   1.467  2.1114 -0.1971  0.5048
 6421TIP3    H240823   5.299   3.751   1.509  0.7320  0.5213 -1.7927
 6422TIP3   OH240824   5.634   2.972   1.136  0.0821 -0.0912  0.3499
 6422TIP3    H140825   5.628   2.974   1.231  1.3728  1.4202  0.4488
 6422TIP3    H240826   5.721   3.008   1.117 -0.8762  1.4361 -1.4604
 6423TIP3   OH240827   3.589   2.308   8.087  0.9061  0.1049 -0.4746
 6423TIP3    H140828   3.572   2.339   7.998  0.6906 -0.9643 -0.8214
 6423TIP3    H240829   3.529   2.359   8.142  0.3802  0.1324 -1.0573
 6424TIP3   OH240830   2.251   5.319   7.103  0.1609 -0.4480  1.2119
 6424TIP3    H140831   2.329   5.362   7.138  0.9377 -0.2995 -0.5644
 6424TIP3    H240832   2.195   5.391   7.073 -0.9886 -0.5238  3.0124
 6425TIP3   OH240833   5.150   4.366   6.246  0.4020  0.3421 -0.4975
 6425TIP3    H140834   5.106   4.432   6.193 -1.1994  1.2100  1.7756
 6425TIP3    H240835   5.081   4.305   6.271  0.6409  1.0118  2.0860
 6426TIP3   OH240836   4.789   4.226   1.008 -0.5290 -0.1530 -0.3378
 6426TIP3    H140837   4.844   4.222   1.086 -0.7623  0.3549 -0.1404
 6426TIP3    H240838   4.786   4.319   0.986 -1.2962 -0.1764 -0.3509
 6427TIP3   OH240839   3.077   5.567   0.781 -0.2574  0.1343  0.4090
 6427TIP3    H140840   3.100   5.654   0.748 -0.0127 -0.3047 -0.6141
 6427TIP3    H240841   2.983   5.572   0.799 -0.2738  0.5568  0.2249
 6428TIP3   OH240842   4.283   5.103   8.719 -0.7084  0.5385 -0.4141
 6428TIP3    H140843   4.378   5.107   8.715 -0.5713 -0.5683  0.8872
 6428TIP3    H240844   4.258   5.033   8.659 -0.5349 -0.3346  0.4984
 6429TIP3   OH240845   2.569   3.063   0.087  0.5630  0.8221 -0.1929
 6429TIP3    H140846   2.579   3.131   0.154 -0.1202  0.0544  0.7125
 6429TIP3    H240847   2.532   2.988   0.134 -0.7507  0.5453 -1.6104
 6430TIP3   OH240848   6.015   3.491   1.094  0.1260  0.2423  0.2528
 6430TIP3    H140849   6.011   3.551   1.168 -1.3000  1.8864 -1.0407
 6430TIP3    H240850   5.929   3.448   1.093 -0.3677  1.1577 -1.0823
 6431TIP3   OH240851   6.571   3.486   8.342  0.0791 -0.3614 -0.3465
 6431TIP3    H140852   6.521   3.556   8.299  0.9704  1.1547  0.9682
 6431TIP3    H240853   6.610   3.528   8.419  1.6657 -2.0126 -0.1756
 6432TIP3   OH240854   1.142   5.598   6.763  0.3599  0.5534  0.5742
 6432TIP3    H140855   1.139   5.617   6.670 -1.8330  0.6250  0.6088
 6432TIP3    H240856   1.101   5.674   6.804  0.9313  0.3417  1.5837
 6433TIP3   OH240857   5.145   5.542   7.902  0.5076  0.4141  0.2224
 6433TIP3    H140858   5.185   5.556   7.817 -0.9864  0.1135 -0.5762
 6433TIP3    H240859   5.051   5.541   7.884  0.1995 -0.9664  1.6794
 6434TIP3   OH240860   0.319   0.240   7.548  0.0505  0.3242 -0.4377
 6434TIP3    H140861   0.387   0.184   7.510  0.3791  0.1699  0.3440
 6434TIP3    H240862   0.333   0.326   7.510  0.2911  0.1430 -0.7540
 6435TIP3   OH240863   2.494   1.099   7.974  0.4302 -0.0751  0.4660
 6435TIP3    H140864   2.444   1.142   7.904 -1.4234 -1.6144  0.7415
 6435TIP3    H240865   2.454   1.132   8.055  0.8399 -0.2434  0.7362
 6436TIP3   OH240866   4.077   3.960   0.817  0.3292  0.9631  0.2624
 6436TIP3    H140867   4.127   4.032   0.856  0.2125  0.5988  1.1106
 6436TIP3    H240868   4.095   3.885   0.873  0.0406  0.4513 -0.3181
 6437TIP3   OH240869   3.511   4.611   7.234 -0.2915 -0.1125 -0.6591
 6437TIP3    H140870   3.564   4.672   7.284 -1.9825  0.9471 -0.0753
 6437TIP3    H240871   3.552   4.526   7.248  0.7035  0.5302  0.4954
 6438TIP3   OH240872   0.112   4.955   7.805 -1.0597 -0.1596 -0.1748
 6438TIP3    H140873   0.179   5.020   7.825 -0.0570 -1.1204 -0.2747
 6438TIP3    H240874   0.120   4.889   7.874 -1.4107 -0.6513 -0.5874
 6439TIP3   OH240875   2.941   5.102   7.542  0.5407 -0.6206 -0.0386
 6439TIP3    H140876   2.853   5.138   7.554  0.6404 -0.3383 -0.1570
 6439TIP3    H240877   2.998   5.178   7.537  0.6955 -0.7829 -0.7425
 6440TIP3   OH240878   1.512   1.032   0.128  0.7846  0.5092 -0.0573
 6440TIP3    H140879   1.475   1.117   0.151 -1.9303 -0.8082  0.7890
 6440TIP3    H240880   1.488   1.019   0.036 -1.9130 -0.7456  0.7375
 6441TIP3   OH240881   1.211   4.928   7.627  0.0496 -0.0663 -0.6136
 6441TIP3    H140882   1.219   5.022   7.640  0.9722 -0.1854 -0.2776
 6441TIP3    H240883   1.125   4.917   7.587 -0.5729  0.8079  0.4203
 6442TIP3   OH240884   0.911   5.532   0.802 -0.2256  0.6241 -0.0913
 6442TIP3    H140885   0.939   5.569   0.886 -1.1795  2.5788 -0.5882
 6442TIP3    H240886   0.984   5.550   0.742 -0.5885  1.5135 -0.2742
 6443TIP3   OH240887   6.534   3.317   1.886  0.3798 -0.4109  0.4352
 6443TIP3    H140888   6.447   3.303   1.849  0.7804  0.1734 -0.8072
 6443TIP3    H240889   6.561   3.232   1.919  1.0499 -1.7037 -3.0381
 6444TIP3   OH240890   1.911   1.419   0.089  0.4254  0.5199  0.1147
 6444TIP3    H140891   1.891   1.326   0.103  2.7775  0.0564  0.8349
 6444TIP3    H240892   1.999   1.430   0.125 -0.3399  3.3774  1.3634
 6445TIP3   OH240893   2.150   6.079   8.430  0.2781 -0.2525  0.2311
 6445TIP3    H140894   2.185   6.129   8.356  1.0044 -0.4948  0.4072
 6445TIP3    H240895   2.108   6.003   8.389  2.1692 -1.2954  0.1279
 6446TIP3   OH240896   0.431   0.456   1.676 -0.2842 -0.3777  0.4421
 6446TIP3    H140897   0.457   0.383   1.620 -0.2600  0.5196 -0.7697
 6446TIP3    H240898   0.506   0.472   1.732  0.3492 -0.2164 -0.4377
 6447TIP3   OH240899   5.878   5.649   7.778 -0.1938 -0.0049 -0.6258
 6447TIP3    H140900   5.916   5.705   7.710  1.1162  0.1894  0.2417
 6447TIP3    H240901   5.817   5.706   7.825  2.5901  1.4398  1.5586
 6448TIP3   OH240902   5.749   0.838   7.176 -0.4949 -0.0547 -0.1497
 6448TIP3    H140903   5.663   0.836   7.134 -1.8334 -3.4779  2.2819
 6448TIP3    H240904   5.806   0.788   7.118 -0.5024  0.8808 -0.9942
 6449TIP3   OH240905   0.146   1.136   7.249 -0.2352 -0.3025 -0.0859
 6449TIP3    H140906   0.237   1.166   7.240 -0.5047  0.0215 -2.4712
 6449TIP3    H240907   0.146   1.048   7.212 -1.2631  0.5502 -2.2783
 6450TIP3   OH240908   2.036   2.602   8.650 -0.1090  0.4254 -0.0232
 6450TIP3    H140909   2.102   2.672   8.649 -0.2561  0.5854 -1.9237
 6450TIP3    H240910   1.958   2.644   8.686 -0.0681  1.1413 -0.7385
 6451TIP3   OH240911   3.148   4.227   8.742 -0.2882 -0.2274  0.0980
 6451TIP3    H140912   3.182   4.148   8.784  1.2230  0.3270 -0.0244
 6451TIP3    H240913   3.224   4.284   8.731 -1.4740  1.6700  1.0286
 6452TIP3   OH240914   1.214   3.174   7.786  0.4776 -0.2788  0.3401
 6452TIP3    H140915   1.305   3.173   7.756  0.0232 -1.2188 -1.1670
 6452TIP3    H240916   1.219   3.196   7.879  2.0770  1.9121 -0.1712
 6453TIP3   OH240917   0.949   1.745   6.580  0.3114 -0.2365 -0.2863
 6453TIP3    H140918   0.916   1.835   6.578  1.2571  0.1181 -1.1493
 6453TIP3    H240919   0.961   1.722   6.488  0.9250 -0.9182 -0.0468
 6454TIP3   OH240920   2.685   5.083   7.675 -0.1710  0.2807 -0.2768
 6454TIP3    H140921   2.664   5.175   7.658  0.0202  0.3273 -0.2716
 6454TIP3    H240922   2.617   5.034   7.629  0.5747  0.3898 -1.5548
 6455TIP3   OH240923   1.404   3.928   7.753  0.3957 -0.7054 -0.0411
 6455TIP3    H140924   1.479   3.897   7.702 -0.5941 -1.1649 -1.3027
 6455TIP3    H240925   1.407   3.877   7.834  0.4916 -1.9604 -0.8068
 6456TIP3   OH240926   4.784   5.265   8.708 -0.3772 -0.1774  0.1688
 6456TIP3    H140927   4.863   5.211   8.704 -1.1290 -1.3523  0.5894
 6456TIP3    H240928   4.807   5.338   8.765  0.2709 -0.7541  0.6654
 6457TIP3   OH240929   0.920   0.331   7.142  0.4413 -0.4426  0.0857
 6457TIP3    H140930   0.836   0.341   7.097  0.3758 -2.0825 -0.2024
 6457TIP3    H240931   0.913   0.248   7.189  0.8722  0.7452  2.4079
 6458TIP3   OH240932   2.122   1.878   7.076 -0.4274 -0.2551 -0.2098
 6458TIP3    H140933   2.195   1.882   7.137 -0.0545  0.3651 -0.6794
 6458TIP3    H240934   2.083   1.966   7.079 -2.7252 -1.2088  1.8736
 6459TIP3   OH240935   1.729   5.916   8.390 -0.4320  0.0038 -0.0009
 6459TIP3    H140936   1.634   5.900   8.387 -0.4595 -0.4908  2.0161
 6459TIP3    H240937   1.768   5.831   8.368 -0.4925 -0.2314  0.7624
 6460TIP3   OH240938   4.447   0.665   7.141  0.4373  0.3399 -0.1064
 6460TIP3    H140939   4.461   0.576   7.110  0.9652  0.2502  0.3846
 6460TIP3    H240940   4.488   0.668   7.227 -2.3177  0.1323  1.3441
 6461TIP3   OH240941   0.811   3.837   8.285  0.1905  0.3520 -0.0357
 6461TIP3    H140942   0.895   3.821   8.329  1.1965  0.7114 -1.7119
 6461TIP3    H240943   0.768   3.904   8.338 -0.5216 -2.0696  2.6386
 6462TIP3   OH240944   5.452   5.591   6.931  0.3989  0.4087 -0.5794
 6462TIP3    H140945   5.431   5.530   6.860 -1.3168  0.3333 -0.0379
 6462TIP3    H240946   5.482   5.670   6.886  0.4217 -0.0260 -1.3481
 6463TIP3   OH240947   1.606   4.591   0.032 -0.5173  0.0611  0.2348
 6463TIP3    H140948   1.571   4.639   0.107 -2.0170  1.3682 -1.2046
 6463TIP3    H240949   1.552   4.621  -0.042  1.0285 -1.0123 -1.3977
 6464TIP3   OH240950   5.858   6.496   8.099  0.3299 -0.4904 -0.0240
 6464TIP3    H140951   5.826   6.579   8.065  1.7727 -0.2955 -1.0265
 6464TIP3    H240952   5.798   6.430   8.064  1.0105 -0.1601 -1.9244
 6465TIP3   OH240953   5.729   1.300   1.581  0.0233 -0.2357  0.3186
 6465TIP3    H140954   5.650   1.309   1.635  0.3755  0.5455  0.7295
 6465TIP3    H240955   5.796   1.348   1.630 -0.0219  1.8603 -1.5348
 6466TIP3   OH240956   1.272   1.539   7.982  0.3604 -0.3684  0.0682
 6466TIP3    H140957   1.321   1.594   8.044 -0.3239  1.2697 -0.7805
 6466TIP3    H240958   1.180   1.554   8.006  0.1694 -1.9857  0.4726
 6467TIP3   OH240959   5.447   0.139   6.450 -0.2839  0.0299 -0.4679
 6467TIP3    H140960   5.397   0.220   6.445  0.6967  0.6544 -0.4631
 6467TIP3    H240961   5.538   0.166   6.436  0.2411 -0.8518  0.9940
 6468TIP3   OH240962   2.407   4.967   6.758  0.0238  0.6819  0.2109
 6468TIP3    H140963   2.312   4.976   6.757  0.0552  1.0692  0.6183
 6468TIP3    H240964   2.437   5.029   6.824  0.3969 -1.0426  1.7237
 6469TIP3   OH240965   1.722   3.291   7.280  0.2783 -0.2721  0.2776
 6469TIP3    H140966   1.690   3.230   7.347  0.7578 -1.0608 -0.1893
 6469TIP3    H240967   1.646   3.306   7.224 -0.5743  1.6149  1.8247
 6470TIP3   OH240968   4.173   1.585   0.144 -0.5829  0.1079 -0.1574
 6470TIP3    H140969   4.186   1.652   0.077 -0.3967  0.6406  0.4009
 6470TIP3    H240970   4.139   1.632   0.220 -0.5695 -0.4474  0.2066
 6471TIP3   OH240971   1.278   5.648   1.522 -0.4950 -0.3018 -0.1322
 6471TIP3    H140972   1.318   5.561   1.517  0.8982  0.3717 -1.2415
 6471TIP3    H240973   1.327   5.692   1.592 -0.7187 -0.1587 -0.0647
 6472TIP3   OH240974   6.458   0.717   8.690  0.5215 -0.4237 -0.2867
 6472TIP3    H140975   6.511   0.733   8.768  1.1463 -0.9251 -0.6007
 6472TIP3    H240976   6.512   0.660   8.635 -0.0323 -0.3186 -0.9553
 6473TIP3   OH240977   1.411   5.677   1.157 -0.0334  0.4899 -0.3404
 6473TIP3    H140978   1.487   5.680   1.216  0.3114  1.0259 -0.7968
 6473TIP3    H240979   1.339   5.713   1.209  0.3719  1.3967 -0.3724
 6474TIP3   OH240980   4.730   3.390   5.864 -0.5237  0.3704  0.0394
 6474TIP3    H140981   4.750   3.306   5.905  1.9142  0.9528  0.1873
 6474TIP3    H240982   4.657   3.424   5.915  0.7343 -0.0919  2.3169
 6475TIP3   OH240983   6.349   5.679   0.641 -0.3202  0.0175 -0.4369
 6475TIP3    H140984   6.359   5.631   0.723 -0.3813  0.5952 -0.0840
 6475TIP3    H240985   6.262   5.655   0.610 -0.6926  0.5352  0.1697
 6476TIP3   OH240986   2.799   3.481   6.024 -0.3172 -0.0145  0.6840
 6476TIP3    H140987   2.893   3.502   6.029 -0.2667  0.9123 -2.3078
 6476TIP3    H240988   2.792   3.395   6.065  2.7507 -2.3001 -2.9580
 6477TIP3   OH240989   4.898   5.529   0.738  0.1692 -0.2868 -0.0720
 6477TIP3    H140990   4.826   5.467   0.745 -0.4034  0.2432 -1.0877
 6477TIP3    H240991   4.913   5.559   0.828 -1.3636  0.1304  0.0659
 6478TIP3   OH240992   3.843   1.323   6.925 -0.3041  0.2567  0.2959
 6478TIP3    H140993   3.774   1.311   6.860  0.3638  0.2270 -0.4185
 6478TIP3    H240994   3.887   1.404   6.900 -0.9171  1.0006  1.5407
 6479TIP3   OH240995   1.862   5.383   7.188  0.0101 -0.3641 -0.1780
 6479TIP3    H140996   1.904   5.441   7.126 -0.8590 -0.6576 -1.0645
 6479TIP3    H240997   1.841   5.439   7.263  1.0375 -0.0018 -0.1514
 6480TIP3   OH240998   1.373   2.307   7.767  0.0406 -0.0814  0.6896
 6480TIP3    H140999   1.416   2.223   7.752  1.6750  0.9205 -0.6003
 6480TIP3    H241000   1.369   2.347   7.680 -1.6675  0.7597  1.1184
 6481TIP3   OH241001   0.185   1.797   0.634  0.3477 -0.2921  0.3278
 6481TIP3    H141002   0.272   1.793   0.673 -0.0263 -1.5309  1.0692
 6481TIP3    H241003   0.125   1.796   0.709 -0.3242  2.2532 -0.0578
 6482TIP3   OH241004   5.049   3.972   7.505 -0.2030  0.0355  0.5442
 6482TIP3    H141005   5.124   3.993   7.561 -0.5301  1.7848  0.3812
 6482TIP3    H241006   5.026   4.055   7.463 -1.5048 -0.7154 -0.3071
 6483TIP3   OH241007   4.245   5.661   7.607 -0.5664 -0.3378  0.7474
 6483TIP3    H141008   4.212   5.594   7.548  1.6179 -2.0628  1.3790
 6483TIP3    H241009   4.199   5.741   7.580 -0.4485 -1.2443 -2.5351
 6484TIP3   OH241010   5.605   6.208   1.406  0.1578  0.0865  0.1051
 6484TIP3    H141011   5.600   6.302   1.419 -0.8367 -0.1439  1.7563
 6484TIP3    H241012   5.526   6.174   1.447  1.4444 -1.6114  1.3674
 6485TIP3   OH241013   6.415   1.668   1.363 -0.3412 -0.1893  0.0210
 6485TIP3    H141014   6.472   1.631   1.296  0.7976  1.1210  0.1949
 6485TIP3    H241015   6.384   1.593   1.413  0.5777 -1.0142 -0.6067
 6486TIP3   OH241016   6.592   5.187   0.327 -0.5672  0.7456 -0.3976
 6486TIP3    H141017   6.681   5.169   0.358 -0.9585  0.7704  0.7725
 6486TIP3    H241018   6.581   5.129   0.252 -0.3425 -0.9316  0.7997
 6487TIP3   OH241019   3.066   4.396   7.314  0.1939 -0.3913  0.6017
 6487TIP3    H141020   2.977   4.405   7.281  0.0037  0.5513  1.3457
 6487TIP3    H241021   3.062   4.426   7.405  0.9039 -1.9952  1.2214
 6488TIP3   OH241022   3.233   2.517   0.566 -0.3930  0.3506 -0.2882
 6488TIP3    H141023   3.313   2.568   0.578 -0.4718  0.3601  0.1981
 6488TIP3    H241024   3.162   2.574   0.596 -0.4279 -0.2470  0.7944
 6489TIP3   OH241025   4.274   2.964   7.215  0.5707 -0.6752  0.4087
 6489TIP3    H141026   4.338   2.973   7.145  1.7179  1.2501  1.6358
 6489TIP3    H241027   4.205   2.909   7.177  2.5062 -2.1265 -1.2290
 6490TIP3   OH241028   1.649   6.155   0.067  0.1619 -0.3070  0.7208
 6490TIP3    H141029   1.590   6.153   0.141 -1.6241  0.2751 -0.6101
 6490TIP3    H241030   1.599   6.198  -0.003  2.7230  1.8236 -0.0119
 6491TIP3   OH241031   3.565   0.100   6.384  0.3520 -0.2532 -0.4357
 6491TIP3    H141032   3.523   0.176   6.425 -0.1361 -0.2219 -0.9744
 6491TIP3    H241033   3.643   0.084   6.437 -0.4898 -0.4930  0.7920
 6492TIP3   OH241034   6.660   6.237   6.192  0.0612 -0.1137  0.1255
 6492TIP3    H141035   6.618   6.153   6.211  1.2398 -1.1619 -1.5886
 6492TIP3    H241036   6.588   6.293   6.162 -0.5330 -0.9913 -0.1526
 6493TIP3   OH241037   3.856   5.339   1.455 -0.1862  0.1328 -0.2620
 6493TIP3    H141038   3.820   5.252   1.475 -0.7771  0.1157 -1.3320
 6493TIP3    H241039   3.935   5.344   1.508 -0.7839 -0.5705  0.7382
 6494TIP3   OH241040   3.120   1.143   0.453 -0.3528 -0.3311  0.0583
 6494TIP3    H141041   3.060   1.199   0.503  1.1304  0.9126  0.5001
 6494TIP3    H241042   3.201   1.143   0.503  1.1258  0.7577 -2.1568
 6495TIP3   OH241043   2.138   1.120   8.619  0.0152  0.3427  0.9700
 6495TIP3    H141044   2.147   1.212   8.646  1.8230  0.3370  0.5477
 6495TIP3    H241045   2.220   1.079   8.648 -0.5173 -0.9980  0.6232
 6496TIP3   OH241046   1.507   2.493   6.811 -0.3895  0.4289  0.6321
 6496TIP3    H141047   1.551   2.501   6.726 -0.2598  0.3907  0.6952
 6496TIP3    H241048   1.574   2.517   6.875  1.0203 -3.8744  1.0866
 6497TIP3   OH241049   4.791   0.370   7.559  0.2202  0.1294  0.0498
 6497TIP3    H141050   4.698   0.362   7.580  0.2036 -3.6782 -0.7725
 6497TIP3    H241051   4.822   0.443   7.612 -2.7285 -0.0311  2.2042
 6498TIP3   OH241052   2.546   2.823   6.069  0.5716 -0.5629  0.5538
 6498TIP3    H141053   2.606   2.804   5.997 -0.1542 -1.9880  0.2969
 6498TIP3    H241054   2.571   2.911   6.098  2.8551 -1.1408  0.5372
 6499TIP3   OH241055   1.126   0.943   1.714  0.1923 -0.3113 -0.3125
 6499TIP3    H141056   1.050   0.885   1.724 -0.4890  0.6769  0.4194
 6499TIP3    H241057   1.172   0.937   1.798 -0.0009  0.3519 -0.1514
 6500TIP3   OH241058   4.089   1.812   7.383 -0.0187  0.1533  0.2606
 6500TIP3    H141059   4.095   1.885   7.444  1.3143  0.3052 -0.0103
 6500TIP3    H241060   4.059   1.851   7.301 -0.6876  0.1451  0.4963
 6501TIP3   OH241061   2.531   5.233   7.961 -0.3069 -0.1165 -0.5182
 6501TIP3    H141062   2.467   5.261   7.896 -1.2320  1.3489  0.9405
 6501TIP3    H241063   2.595   5.183   7.911 -1.9523 -0.6418 -2.2194
 6502TIP3   OH241064   2.810   6.480   6.372 -0.4957 -0.1300  0.5767
 6502TIP3    H141065   2.856   6.406   6.413 -0.5670 -0.1430  0.6339
 6502TIP3    H241066   2.732   6.493   6.427 -2.1055 -1.9462 -1.1173
 6503TIP3   OH241067   5.428   1.418   0.348 -0.1885 -0.6250 -0.4902
 6503TIP3    H141068   5.447   1.352   0.281  0.1897 -0.7579 -0.2520
 6503TIP3    H241069   5.336   1.439   0.334 -0.0295 -0.4198 -1.2546
 6504TIP3   OH241070   4.820   0.450   0.304  0.1414  0.5790  0.5514
 6504TIP3    H141071   4.807   0.381   0.369 -2.4432  1.2451  0.8542
 6504TIP3    H241072   4.832   0.404   0.221  0.7185 -0.2343  1.0771
 6505TIP3   OH241073   0.485   5.937   2.089  0.3772  0.5397  0.3250
 6505TIP3    H141074   0.574   5.963   2.113  0.0361  1.5751  0.5398
 6505TIP3    H241075   0.482   5.947   1.994  0.5997  0.1295  0.2732
 6506TIP3   OH241076   0.396   3.760   7.651 -0.1643  0.3403 -0.0467
 6506TIP3    H141077   0.471   3.728   7.701  0.1686  0.5322 -0.4166
 6506TIP3    H241078   0.323   3.706   7.681  0.3882 -0.7868 -0.6477
 6507TIP3   OH241079   1.362   5.447   5.758  0.1174 -0.3562  0.1995
 6507TIP3    H141080   1.269   5.467   5.764  0.0605 -0.6374  0.2424
 6507TIP3    H241081   1.391   5.491   5.678  0.0631  0.1747  0.4634
 6508TIP3   OH241082   2.707   2.763   0.023  0.1262 -0.3607 -0.4856
 6508TIP3    H141083   2.671   2.708  -0.047 -2.4626  0.0781  0.3880
 6508TIP3    H241084   2.699   2.709   0.102  1.4489 -0.2189 -0.2241
 6509TIP3   OH241085   3.801   0.053   6.531 -0.1328 -0.2111 -0.2033
 6509TIP3    H141086   3.836  -0.003   6.600 -0.9802 -0.1520  0.2865
 6509TIP3    H241087   3.878   0.100   6.496  0.7328 -2.2106 -1.1577
 6510TIP3   OH241088   5.418   2.639   6.869 -0.4537 -0.4612  0.1753
 6510TIP3    H141089   5.459   2.620   6.785 -1.9144 -1.1301 -0.4270
 6510TIP3    H241090   5.489   2.674   6.923  0.6376 -0.5425 -1.1447
 6511TIP3   OH241091   1.615   0.724   0.548  0.0528 -0.8346 -0.0393
 6511TIP3    H141092   1.621   0.766   0.462  1.3344  0.4959  0.6582
 6511TIP3    H241093   1.673   0.648   0.541  1.1618 -0.0213  0.0043
 6512TIP3   OH241094   4.208   5.723   6.988  0.3933  0.3913  0.0061
 6512TIP3    H141095   4.150   5.782   6.939  1.5040  2.1299  0.6709
 6512TIP3    H241096   4.237   5.659   6.923 -0.5675  0.7846 -0.8499
 6513TIP3   OH241097   3.426   5.389   6.139  0.2328  0.2586  0.3839
 6513TIP3    H141098   3.472   5.440   6.205 -0.7574  1.9311 -0.1837
 6513TIP3    H241099   3.341   5.431   6.130 -0.2241 -0.8668 -0.8618
 6514TIP3   OH241100   3.318   4.114   0.738  0.0013 -0.3179  0.0044
 6514TIP3    H141101   3.409   4.095   0.715  0.5630  0.8268  1.1413
 6514TIP3    H241102   3.312   4.210   0.732 -0.7707 -0.2769  1.1482
 6515TIP3   OH241103   3.761   0.568   7.483 -0.1653 -0.5900  0.2638
 6515TIP3    H141104   3.697   0.610   7.542  0.0524  0.3867 -0.1908
 6515TIP3    H241105   3.836   0.549   7.539  0.6236  1.6444  0.0460
 6516TIP3   OH241106   1.578   1.358   0.207  0.4696 -0.0019  0.1047
 6516TIP3    H141107   1.548   1.414   0.136  1.4317  2.1147  1.2613
 6516TIP3    H241108   1.664   1.326   0.179  0.3998  0.0038 -0.1109
 6517TIP3   OH241109   5.910   2.679   6.596  0.5370 -0.2603  0.1657
 6517TIP3    H141110   5.930   2.726   6.678 -5.3335  1.6708  0.9467
 6517TIP3    H241111   5.911   2.747   6.529  0.4137 -0.8219 -0.4107
 6518TIP3   OH241112   4.053   4.216   6.202 -0.3483 -0.2379  0.5880
 6518TIP3    H141113   4.029   4.136   6.156  0.1792 -0.7011  1.0928
 6518TIP3    H241114   3.977   4.236   6.257 -0.2077 -0.7923  0.9873
 6519TIP3   OH241115   3.809   2.112   0.637 -0.4039  0.0756 -0.1642
 6519TIP3    H141116   3.891   2.073   0.605  0.1896 -0.7824  2.1791
 6519TIP3    H241117   3.756   2.037   0.664 -2.3544  0.5677 -2.3471
 6520TIP3   OH241118   2.026   0.603   7.802 -0.4234 -0.2285  0.0759
 6520TIP3    H141119   2.025   0.600   7.897  0.1440  0.0338  0.0961
 6520TIP3    H241120   2.093   0.538   7.777 -0.1784  0.0945 -0.1182
 6521TIP3   OH241121   2.597   1.259   0.237  0.3908 -0.2008  0.0090
 6521TIP3    H141122   2.572   1.204   0.162 -0.9377 -1.4531  1.3080
 6521TIP3    H241123   2.671   1.212   0.277  0.8909  0.2998 -0.3128
 6522TIP3   OH241124   1.916   5.569   6.139  0.2975 -0.1212  0.0634
 6522TIP3    H141125   1.979   5.532   6.200  1.0504  0.2315 -0.4755
 6522TIP3    H241126   1.849   5.502   6.128  2.0592 -1.7287 -1.5644
 6523TIP3   OH241127   5.485   0.060   7.543 -0.3272  0.4548 -0.6822
 6523TIP3    H141128   5.469   0.099   7.457  2.2899  0.4036 -1.2585
 6523TIP3    H241129   5.579   0.070   7.558 -0.2677 -1.7948  1.0661
 6524TIP3   OH241130   6.290   6.553   1.839  0.4479  0.7151 -0.0226
 6524TIP3    H141131   6.254   6.466   1.857  1.1161  0.0972 -1.5280
 6524TIP3    H241132   6.365   6.560   1.899  0.0696  0.4799  0.4845
 6525TIP3   OH241133   3.495   5.735   7.577 -0.0207 -0.1434  0.7100
 6525TIP3    H141134   3.493   5.674   7.504 -1.0654  1.9955 -1.2019
 6525TIP3    H241135   3.437   5.697   7.642 -3.2749  0.1962 -1.7313
 6526TIP3   OH241136   0.280   0.279   7.195  0.2601 -0.4097 -0.3791
 6526TIP3    H141137   0.250   0.363   7.161  0.3602  0.0049  0.5123
 6526TIP3    H241138   0.364   0.263   7.151  0.7984  0.5244  0.2753
 6527TIP3   OH241139   2.930   0.815   1.240 -0.0789  0.0360  0.1785
 6527TIP3    H141140   2.905   0.811   1.147 -0.7618  0.0483  0.3545
 6527TIP3    H241141   3.017   0.775   1.243  0.8682  1.9046 -0.7780
 6528TIP3   OH241142   4.297   4.811   0.101  0.3089  0.2823 -0.0455
 6528TIP3    H141143   4.375   4.854   0.066  0.7358 -1.8926 -1.9944
 6528TIP3    H241144   4.322   4.783   0.189  0.7953  1.8377  0.3512
 6529TIP3   OH241145   0.365   2.831   0.804 -0.5467  0.0276  0.3953
 6529TIP3    H141146   0.451   2.789   0.815 -0.3777  0.1964 -0.2609
 6529TIP3    H241147   0.376   2.889   0.729 -1.0874  0.4507  0.6423
 6530TIP3   OH241148   4.382   2.133   7.640  0.1246 -0.3698 -0.6035
 6530TIP3    H141149   4.292   2.136   7.608 -0.5318  2.8100  1.0579
 6530TIP3    H241150   4.434   2.170   7.569 -0.0549 -1.0509 -1.0950
 6531TIP3   OH241151   6.208   4.737   0.841 -0.2209  0.1393 -0.1037
 6531TIP3    H141152   6.163   4.802   0.787 -1.0154  1.4152  1.9731
 6531TIP3    H241153   6.144   4.715   0.909  1.8841  1.3924  2.4614
 6532TIP3   OH241154   0.589   1.580   8.465  0.6600  0.0846 -0.4088
 6532TIP3    H141155   0.554   1.491   8.451  1.0503 -0.1693  0.1919
 6532TIP3    H241156   0.611   1.583   8.558 -0.8380  1.3531 -0.0571
 6533TIP3   OH241157   0.970   0.050   0.602 -0.5790  0.4036  0.2913
 6533TIP3    H141158   1.009  -0.017   0.545  0.1446  0.5633  0.5893
 6533TIP3    H241159   0.906   0.094   0.545 -2.3625 -1.6454  0.5679
 6534TIP3   OH241160   4.689   2.990   0.913  0.4833  0.0001 -0.0180
 6534TIP3    H141161   4.723   2.962   0.828 -1.3104  0.3279 -0.8979
 6534TIP3    H241162   4.623   2.924   0.935 -0.8212  1.2316 -0.0968
 6535TIP3   OH241163   4.635   2.526   6.842 -0.0947  0.6129 -0.4403
 6535TIP3    H141164   4.718   2.574   6.839 -0.4801  1.5869  2.0388
 6535TIP3    H241165   4.661   2.435   6.829  0.8974  1.1764 -3.1584
 6536TIP3   OH241166   4.233   6.138   1.203 -0.5821 -0.0261  1.0110
 6536TIP3    H141167   4.184   6.089   1.137 -0.8156  0.8807  0.5018
 6536TIP3    H241168   4.199   6.106   1.287 -1.1755 -0.2822  0.6746
 6537TIP3   OH241169   6.488   6.372   7.447  0.4714 -0.2965 -0.0859
 6537TIP3    H141170   6.417   6.330   7.494  1.4065 -1.1330  0.6086
 6537TIP3    H241171   6.551   6.302   7.430  2.0338  0.7604  1.0281
 6538TIP3   OH241172   0.431   6.282   6.639  0.0753  0.4984  0.3480
 6538TIP3    H141173   0.438   6.376   6.652 -0.1022  0.6711 -0.6907
 6538TIP3    H241174   0.417   6.272   6.545 -1.2215 -0.4959  0.6200
 6539TIP3   OH241175   0.406   0.553   1.115  0.2410 -0.3104  0.2287
 6539TIP3    H141176   0.312   0.552   1.097 -0.0963 -1.0588  1.8623
 6539TIP3    H241177   0.416   0.612   1.189  1.4296  1.7791 -1.4882
 6540TIP3   OH241178   1.183   3.118   0.931 -0.1571  0.3946  0.6480
 6540TIP3    H141179   1.088   3.119   0.945 -0.2481  2.3386  0.1500
 6540TIP3    H241180   1.203   3.206   0.898  1.4391 -0.7652 -1.7902
 6541TIP3   OH241181   2.791   3.355   7.784 -0.4255 -0.6177 -0.2674
 6541TIP3    H141182   2.864   3.389   7.732  2.2090 -3.1040  1.4982
 6541TIP3    H241183   2.742   3.301   7.722  1.8151 -2.3677 -0.6571
 6542TIP3   OH241184   3.916   2.029   1.671 -0.3984  0.2525  0.3982
 6542TIP3    H141185   3.837   2.048   1.721  0.4844  0.2542  1.8569
 6542TIP3    H241186   3.933   1.936   1.688 -0.6378 -0.0229 -0.7586
 6543TIP3   OH241187   4.166   3.572   8.741 -0.3552  0.3902  0.5335
 6543TIP3    H141188   4.076   3.542   8.752 -0.5961  0.8848 -0.0167
 6543TIP3    H241189   4.193   3.535   8.657  0.1727 -0.2741  0.9876
 6544TIP3   OH241190   0.697   0.317   0.651  0.3192 -0.0910  0.4476
 6544TIP3    H141191   0.709   0.289   0.741  0.9186  1.0293  0.7223
 6544TIP3    H241192   0.768   0.379   0.635  0.0884 -0.1085 -0.7249
 6545TIP3   OH241193   6.529   0.424   7.094  0.0118  0.1398  0.4953
 6545TIP3    H141194   6.598   0.487   7.075  0.2244  0.4460  2.1595
 6545TIP3    H241195   6.517   0.429   7.189 -1.0034 -1.2516  0.4712
 6546TIP3   OH241196   0.038   5.016   0.063  0.2897 -0.2055 -0.3566
 6546TIP3    H141197   0.075   5.101   0.089 -0.5327 -0.5474  2.1342
 6546TIP3    H241198   0.071   4.954   0.129 -0.5867 -1.4897 -1.0828
 6547TIP3   OH241199   1.832   1.644   6.470 -0.2960  0.4001  0.2313
 6547TIP3    H141200   1.915   1.672   6.431 -0.2327 -0.3703 -0.2156
 6547TIP3    H241201   1.791   1.725   6.500  0.1216  0.9097 -0.5237
 6548TIP3   OH241202   2.998   3.839   8.591  0.5471  0.0005 -0.2932
 6548TIP3    H141203   3.061   3.910   8.587  2.6729 -1.6847  1.0648
 6548TIP3    H241204   3.051   3.760   8.607 -1.8919 -1.4713  1.3052
 6549TIP3   OH241205   5.217   2.461   8.194  0.2632 -0.2004 -0.2251
 6549TIP3    H141206   5.311   2.454   8.180  0.7610  2.6696  1.0388
 6549TIP3    H241207   5.198   2.554   8.185 -2.2308 -0.5264  0.8518
 6550TIP3   OH241208   6.369   2.177   8.162 -0.5852  0.0370 -0.1344
 6550TIP3    H141209   6.311   2.107   8.194  0.3974 -1.0133 -0.5575
 6550TIP3    H241210   6.448   2.169   8.216 -0.8734  1.5553  0.5475
 6551TIP3   OH241211   3.025   0.595   0.367  0.1333  0.6150  0.4905
 6551TIP3    H141212   3.057   0.660   0.430  1.3170  0.3687  0.1794
 6551TIP3    H241213   2.989   0.525   0.422 -1.4402  1.6379  0.8227
 6552TIP3   OH241214   1.130   4.684   8.091  0.2602 -0.0765 -0.0089
 6552TIP3    H141215   1.164   4.726   8.012  0.3712 -0.4618 -0.1705
 6552TIP3    H241216   1.199   4.623   8.117 -0.3057 -0.8865 -0.3588
 6553TIP3   OH241217   0.715   2.081   7.461  0.6427 -0.3959  0.5075
 6553TIP3    H141218   0.672   1.996   7.457  0.0970 -0.1105  0.2588
 6553TIP3    H241219   0.804   2.064   7.430 -0.0312 -0.5056 -1.4896
 6554TIP3   OH241220   1.644   4.325   1.437  0.5797  0.1645 -0.2462
 6554TIP3    H141221   1.716   4.294   1.493  0.7846  0.5418 -0.3032
 6554TIP3    H241222   1.648   4.420   1.443  0.8547  0.2190 -1.2280
 6555TIP3   OH241223   3.276   2.376   7.693 -0.0354 -0.4023  0.1319
 6555TIP3    H141224   3.340   2.364   7.763  0.5655 -0.2120 -0.3753
 6555TIP3    H241225   3.272   2.471   7.680 -1.2917 -0.3188  0.9421
 6556TIP3   OH241226   0.243   4.487   6.535 -0.9190 -0.6521 -0.0658
 6556TIP3    H141227   0.228   4.436   6.615  0.0552 -1.1384 -0.1852
 6556TIP3    H241228   0.222   4.426   6.464 -1.6157 -0.2751 -0.1922
 6557TIP3   OH241229   4.265   3.067   6.342  0.3587 -0.7367  0.0862
 6557TIP3    H141230   4.205   3.021   6.282 -1.3552 -0.1092  1.2410
 6557TIP3    H241231   4.319   2.998   6.380  0.1467 -1.3695 -0.7331
 6558TIP3   OH241232   6.494   2.224   6.767  0.1125 -0.1058 -0.6697
 6558TIP3    H141233   6.424   2.263   6.820 -1.3388 -1.3021 -1.6105
 6558TIP3    H241234   6.566   2.286   6.773 -1.2309  1.4822 -0.1308
 6559TIP3   OH241235   4.424   0.007   8.079 -0.1585  0.2376 -0.3603
 6559TIP3    H141236   4.406   0.074   8.145 -0.3281 -0.3402  0.1882
 6559TIP3    H241237   4.340  -0.037   8.067  0.2390 -0.7032  0.2128
 6560TIP3   OH241238   6.564   4.400   1.467 -0.1815  0.6608 -0.2977
 6560TIP3    H141239   6.565   4.307   1.488  1.3300  0.8545  0.5884
 6560TIP3    H241240   6.644   4.435   1.505 -0.0158  2.0780 -1.8297
 6561TIP3   OH241241   4.392   6.393   0.419 -0.4075 -0.1154  0.1910
 6561TIP3    H141242   4.335   6.468   0.408 -0.9309 -0.2895  1.5029
 6561TIP3    H241243   4.409   6.389   0.513 -0.4484 -1.6674  0.1594
 6562TIP3   OH241244   4.561   3.119   1.863 -0.2567 -0.3424  0.6456
 6562TIP3    H141245   4.468   3.136   1.874 -0.3705 -0.0110 -0.6409
 6562TIP3    H241246   4.598   3.204   1.840  0.1270 -0.7244 -0.1977
 6563TIP3   OH241247   6.748   2.873   6.709 -0.6355  0.6122  0.0456
 6563TIP3    H141248   6.665   2.898   6.668 -0.4580  0.8395 -0.1836
 6563TIP3    H241249   6.814   2.922   6.660 -0.1990 -0.8511 -0.8965
 6564TIP3   OH241250   1.943   6.239   6.020 -0.2634  0.0193 -0.2759
 6564TIP3    H141251   1.981   6.295   5.952  0.8731 -0.6532 -0.2124
 6564TIP3    H241252   1.848   6.248   6.008 -0.1070  1.6973 -0.4671
 6565TIP3   OH241253   3.974   5.628   0.789 -0.8425 -0.2442 -0.0066
 6565TIP3    H141254   3.908   5.660   0.728  0.5517  3.4477  0.1130
 6565TIP3    H241255   4.049   5.606   0.734  0.1541  2.3839  0.1249
 6566TIP3   OH241256   2.531   3.200   8.330 -1.1516 -0.8528  0.4974
 6566TIP3    H141257   2.480   3.277   8.307 -0.7155 -0.5128  0.6684
 6566TIP3    H241258   2.591   3.230   8.398 -0.0782 -1.0116 -0.3460
 6567TIP3   OH241259   5.268   4.483   1.678 -0.1470  0.4526 -0.9103
 6567TIP3    H141260   5.196   4.545   1.692 -0.5348  0.2326 -1.8381
 6567TIP3    H241261   5.225   4.398   1.672  0.4987 -0.1527  1.7078
 6568TIP3   OH241262   4.264   0.228   0.736  1.0322 -0.4743 -0.6320
 6568TIP3    H141263   4.261   0.214   0.641 -1.9521 -1.4962 -0.4919
 6568TIP3    H241264   4.295   0.318   0.746  2.2251 -0.6097 -2.4836
 6569TIP3   OH241265   3.142   0.018   8.010 -0.0109  0.4475  0.2760
 6569TIP3    H141266   3.171   0.104   8.042  0.9559  0.2382  0.0112
 6569TIP3    H241267   3.219  -0.016   7.963 -0.2135 -0.7824  0.8220
 6570TIP3   OH241268   1.779   1.084   6.433 -0.3173 -0.0673 -0.3169
 6570TIP3    H141269   1.705   1.120   6.483  0.4576  0.4094  0.5221
 6570TIP3    H241270   1.741   1.012   6.382 -1.4401  0.4462 -0.2334
 6571TIP3   OH241271   4.660   5.181   7.091 -0.5489 -0.2478 -0.2603
 6571TIP3    H141272   4.646   5.087   7.080 -1.4679 -0.1329 -0.1468
 6571TIP3    H241273   4.669   5.215   7.003  0.5362 -0.5469 -0.2731
 6572TIP3   OH241274   1.144   1.586   0.111  0.7200 -0.6603 -0.4940
 6572TIP3    H141275   1.070   1.615   0.164  0.5069  1.4412 -1.8195
 6572TIP3    H241276   1.219   1.636   0.144  1.0672 -1.0369 -0.6918
 6573TIP3   OH241277   3.914   0.991   6.135  0.1367  0.0535 -0.0314
 6573TIP3    H141278   3.971   0.918   6.159 -0.9964 -0.3526  1.5663
 6573TIP3    H241279   3.892   1.032   6.218 -3.2624 -0.8524 -0.3572
 6574TIP3   OH241280   2.975   4.330   6.079 -0.0042 -0.1030  0.2509
 6574TIP3    H141281   2.900   4.389   6.072 -0.7292 -0.8638  1.2773
 6574TIP3    H241282   2.989   4.321   6.173 -1.2471 -3.1573  0.2763
 6575TIP3   OH241283   2.512   6.476   6.433  0.0613  0.4963 -0.5838
 6575TIP3    H141284   2.520   6.432   6.348  0.1674  0.5200 -0.5867
 6575TIP3    H241285   2.466   6.558   6.415  2.2384  1.6885 -1.0372
 6576TIP3   OH241286   4.194   0.590   0.698 -0.1789 -0.2431 -0.3533
 6576TIP3    H141287   4.272   0.537   0.712  1.0066  1.9196  2.1273
 6576TIP3    H241288   4.177   0.584   0.604  1.0172 -3.3263 -0.4706
 6577TIP3   OH241289   1.751   5.612   7.042  0.0026  0.9081  0.5471
 6577TIP3    H141290   1.728   5.689   6.990 -0.6090  0.6832  0.4766
 6577TIP3    H241291   1.680   5.549   7.025  0.6367  0.2220  0.3859
 6578TIP3   OH241292   4.873   1.656   1.068 -0.1061 -0.3218 -0.7020
 6578TIP3    H141293   4.815   1.581   1.054  1.5933 -1.5390 -1.5892
 6578TIP3    H241294   4.855   1.714   0.994  2.1592 -2.3446 -3.0513
 6579TIP3   OH241295   3.922   3.400   0.840 -0.0275  0.5769 -0.2240
 6579TIP3    H141296   3.884   3.458   0.907  0.1231 -0.3023  0.6457
 6579TIP3    H241297   3.868   3.414   0.763 -1.5127  0.0957  0.6872
 6580TIP3   OH241298   0.998   1.533   7.611  0.2406 -0.0299  0.0296
 6580TIP3    H141299   1.080   1.483   7.612  0.3929  0.1989  1.1653
 6580TIP3    H241300   0.936   1.477   7.565  0.6743 -0.8286  0.3879
 6581TIP3   OH241301   5.413   4.705   0.192  0.0092 -0.0692  0.1163
 6581TIP3    H141302   5.426   4.621   0.235  0.6752  0.3128  0.6865
 6581TIP3    H241303   5.408   4.769   0.264 -0.9318  0.3338 -0.2810
 6582TIP3   OH241304   0.192   0.706   0.648  0.0948  0.4737 -0.0207
 6582TIP3    H141305   0.138   0.639   0.689  2.1423 -2.6073 -1.8843
 6582TIP3    H241306   0.244   0.742   0.720  1.3033 -2.4431  0.7158
 6583TIP3   OH241307   5.972   0.381   8.439 -0.4083  0.2630 -0.0250
 6583TIP3    H141308   5.932   0.337   8.513  0.0016 -1.1019 -0.5920
 6583TIP3    H241309   6.042   0.322   8.411  1.7733  2.3469  0.6775
 6584TIP3   OH241310   3.115   6.365   5.637 -0.4637  0.0558 -0.0882
 6584TIP3    H141311   3.101   6.375   5.731  0.1194 -2.1602  0.2982
 6584TIP3    H241312   3.196   6.414   5.619 -0.7719  0.7893  0.4615
 6585TIP3   OH241313   6.058   6.305   7.971 -0.6941 -0.0807 -0.1473
 6585TIP3    H141314   6.073   6.219   8.012  2.5261  0.8841  1.0052
 6585TIP3    H241315   5.992   6.347   8.026 -1.4271 -1.3544 -0.0215
 6586TIP3   OH241316   3.839   4.450   7.269  0.4371 -0.8798  0.1080
 6586TIP3    H141317   3.748   4.432   7.249  0.6546  0.4013 -2.4070
 6586TIP3    H241318   3.838   4.538   7.307  0.4858 -1.6622  2.0665
 6587TIP3   OH241319   2.773   3.303   0.909 -0.4185  0.0906 -0.5120
 6587TIP3    H141320   2.688   3.346   0.893 -0.2152  1.5281  1.7652
 6587TIP3    H241321   2.838   3.369   0.885 -0.0626  0.4154  1.1840
 6588TIP3   OH241322   5.984   3.918   1.037  0.1261  0.2464 -0.2696
 6588TIP3    H141323   5.932   3.901   0.959  0.4748  0.2358 -0.5031
 6588TIP3    H241324   5.932   3.882   1.109  0.8800 -1.9941 -0.7514
 6589TIP3   OH241325   0.416   6.226   8.116  0.1437 -0.0052 -0.6590
 6589TIP3    H141326   0.445   6.177   8.039  0.7063  0.4784 -0.7662
 6589TIP3    H241327   0.492   6.229   8.173 -0.3448 -0.5733  0.0377
 6590TIP3   OH241328   3.562   0.926   0.162  0.1023  0.1979 -0.3401
 6590TIP3    H141329   3.501   0.955   0.094 -1.0410 -1.8121 -0.2353
 6590TIP3    H241330   3.603   0.847   0.125 -0.1621 -0.6313  1.0802
 6591TIP3   OH241331   4.292   0.858   7.684  0.6229  0.0379  0.7210
 6591TIP3    H141332   4.310   0.821   7.770  0.3081 -0.6918  0.4833
 6591TIP3    H241333   4.200   0.883   7.687  0.2866 -1.0520  0.2396
 6592TIP3   OH241334   6.733   2.004   8.250  0.1969  0.5219  0.9252
 6592TIP3    H141335   6.769   2.046   8.328  0.5144  0.3828  0.8563
 6592TIP3    H241336   6.783   1.923   8.240 -1.5305 -0.7418  1.9994
 6593TIP3   OH241337   2.030   1.774   6.341  0.2656  0.1797  0.2975
 6593TIP3    H141338   2.119   1.810   6.345 -0.0296  0.9659 -0.1207
 6593TIP3    H241339   1.983   1.831   6.281  0.0961 -1.5792 -1.3265
 6594TIP3   OH241340   3.760   1.944   0.258 -0.7044  0.1611  0.5017
 6594TIP3    H141341   3.801   2.026   0.229  0.8470 -1.4410 -2.3028
 6594TIP3    H241342   3.709   1.915   0.182 -2.4277 -0.8046  1.9521
 6595TIP3   OH241343   3.755   5.183   6.141  0.3840 -0.4759 -0.5030
 6595TIP3    H141344   3.836   5.136   6.126 -0.2710 -2.0992  0.7927
 6595TIP3    H241345   3.779   5.254   6.201  1.0218 -0.3303 -0.9302
 6596TIP3   OH241346   5.728   0.410   6.966  0.1686  0.2579  0.0701
 6596TIP3    H141347   5.734   0.318   6.940 -0.5645  0.0395  0.6384
 6596TIP3    H241348   5.636   0.422   6.990  0.4842  0.8681  1.0110
 6597TIP3   OH241349   1.043   1.332   0.656 -0.2303 -0.5463  0.5190
 6597TIP3    H141350   0.957   1.345   0.694 -0.6955 -1.8999  0.0099
 6597TIP3    H241351   1.050   1.237   0.645  1.5080 -0.5033  0.9725
 6598TIP3   OH241352   5.025   6.460   0.933  0.5417  0.0016 -0.0152
 6598TIP3    H141353   5.119   6.475   0.918  0.4186  0.8802  0.0053
 6598TIP3    H241354   5.022   6.398   1.006  1.1100  0.1247  0.1246
 6599TIP3   OH241355   1.876   3.870   0.580  0.1862 -0.0992 -0.0095
 6599TIP3    H141356   1.944   3.804   0.572 -0.2908 -0.7882  1.4180
 6599TIP3    H241357   1.812   3.846   0.513  0.7389 -0.1758 -0.5176
 6600TIP3   OH241358   2.419   5.417   7.557  0.2399 -0.7504 -0.2600
 6600TIP3    H141359   2.511   5.390   7.553  1.0304  1.4202  1.1685
 6600TIP3    H241360   2.420   5.509   7.528 -1.1953 -0.1975  1.2513
 6601TIP3   OH241361   4.378   3.880   7.366 -0.5360  0.0177  0.1395
 6601TIP3    H141362   4.371   3.786   7.351 -0.5632 -0.0349  0.4775
 6601TIP3    H241363   4.425   3.913   7.290 -0.2302 -0.3150  0.1800
 6602TIP3   OH241364   1.307   6.489   6.997  0.1749  0.6595 -0.1892
 6602TIP3    H141365   1.259   6.422   7.045 -1.0833  1.2549 -0.5714
 6602TIP3    H241366   1.280   6.572   7.038  2.3145  0.9330  0.8175
 6603TIP3   OH241367   4.170   6.710   8.086 -0.5626 -0.2035  0.1418
 6603TIP3    H141368   4.089   6.673   8.119 -0.9239  0.1150 -0.3701
 6603TIP3    H241369   4.161   6.708   7.990  0.8511 -1.9983 -0.0015
 6604TIP3   OH241370   1.591   1.970   6.807  0.2250 -0.2122  0.1170
 6604TIP3    H141371   1.540   2.024   6.746  0.2827  1.8709  1.7993
 6604TIP3    H241372   1.527   1.910   6.845 -0.5887  0.9622  0.6621
 6605TIP3   OH241373   5.744   4.585   7.052 -0.4378 -0.5789 -0.2483
 6605TIP3    H141374   5.814   4.545   7.104 -0.0201 -0.1747 -0.4893
 6605TIP3    H241375   5.780   4.669   7.024 -0.8655 -0.5528 -0.7317
 6606TIP3   OH241376   4.842   0.541   8.068 -0.2629 -0.5797  0.1901
 6606TIP3    H141377   4.755   0.580   8.059  0.1787  0.0942 -1.4657
 6606TIP3    H241378   4.862   0.507   7.981  1.7801  0.7174  0.0923
 6607TIP3   OH241379   5.574   5.628   6.321  0.1943  0.5934  0.4815
 6607TIP3    H141380   5.579   5.582   6.237 -0.4563  0.9234  0.2493
 6607TIP3    H241381   5.491   5.676   6.317  1.2193  2.4768  0.3342
 6608TIP3   OH241382   3.237   2.698   8.003 -0.5088  0.3807 -0.4456
 6608TIP3    H141383   3.245   2.749   8.083 -1.6148 -0.5402  0.2785
 6608TIP3    H241384   3.182   2.623   8.027  1.4415 -1.4319 -1.3364
 6609TIP3   OH241385   1.478   0.554   8.100  0.2009  0.3139  0.9278
 6609TIP3    H141386   1.466   0.531   8.008  0.2114  1.5424  0.6082
 6609TIP3    H241387   1.394   0.534   8.141  0.3725 -0.7739  0.7824
 6610TIP3   OH241388   1.276   4.318   1.439  0.5986 -0.0359  0.1852
 6610TIP3    H141389   1.286   4.226   1.466  0.1045  0.0724  0.7727
 6610TIP3    H241390   1.230   4.359   1.512  2.0364  1.0132  0.5376
 6611TIP3   OH241391   0.466   1.588   0.306 -0.2956 -0.2501 -0.4152
 6611TIP3    H141392   0.550   1.618   0.272 -0.4379 -0.6899 -1.1656
 6611TIP3    H241393   0.443   1.653   0.374  0.2781  0.2952 -0.7373
 6612TIP3   OH241394   2.304   6.261   8.230 -0.1570  0.0648 -0.0678
 6612TIP3    H141395   2.302   6.350   8.266 -2.3978  0.8070 -1.8057
 6612TIP3    H241396   2.395   6.250   8.200  0.5444  1.1610  1.5073
 6613TIP3   OH241397   2.274   2.433   7.933 -1.1021  0.2670 -0.2968
 6613TIP3    H141398   2.216   2.503   7.902 -2.3367 -0.1944  0.8411
 6613TIP3    H241399   2.214   2.368   7.972 -0.0915 -1.8483 -2.0463
 6614TIP3   OH241400   6.501   1.645   6.760  0.6923  0.5796  0.1844
 6614TIP3    H141401   6.570   1.584   6.787 -0.9029 -0.1480  3.1849
 6614TIP3    H241402   6.515   1.723   6.814 -0.1198  0.8733 -0.0092
 6615TIP3   OH241403   3.347   4.393   0.708 -0.0106 -0.1679  0.5696
 6615TIP3    H141404   3.386   4.479   0.692 -0.9076 -0.2711 -3.3430
 6615TIP3    H241405   3.261   4.412   0.746  0.3042  0.5565  0.9275
 6616TIP3   OH241406   2.008   3.521   7.124 -0.1734  0.9376 -0.1658
 6616TIP3    H141407   1.940   3.561   7.070 -0.9512 -0.5554 -0.3410
 6616TIP3    H241408   1.965   3.500   7.207 -0.3455 -1.1653 -0.7175
 6617TIP3   OH241409   0.263   4.869   6.413 -0.6481  0.1624 -0.6692
 6617TIP3    H141410   0.202   4.903   6.347 -1.7043 -1.8473 -0.7891
 6617TIP3    H241411   0.210   4.863   6.493 -0.4186 -0.8902 -0.5879
 6618TIP3   OH241412   1.177   5.964   6.918  0.1406  0.6407  0.1393
 6618TIP3    H141413   1.117   5.910   6.866  1.0241 -0.7833  0.5745
 6618TIP3    H241414   1.213   6.027   6.855  0.1544 -0.1676 -0.6736
 6619TIP3   OH241415   2.989   5.528   6.958  0.0880  0.4068 -0.0966
 6619TIP3    H141416   3.031   5.447   6.929 -1.6534 -0.0898 -1.3545
 6619TIP3    H241417   2.909   5.534   6.906 -0.6395  2.1102  1.1343
 6620TIP3   OH241418   3.114   1.570   1.526 -0.1265 -0.2006 -0.1895
 6620TIP3    H141419   3.125   1.492   1.581  1.5769 -1.0078 -1.5592
 6620TIP3    H241420   3.078   1.536   1.444 -0.4987  0.6415 -0.3777
 6621TIP3   OH241421   3.908   0.470   0.670  0.5506  0.5526 -0.2917
 6621TIP3    H141422   3.876   0.508   0.752  0.1845 -0.5832  0.1116
 6621TIP3    H241423   4.003   0.476   0.677  0.5452 -0.0799  0.5054
 6622TIP3   OH241424   0.519   1.346   7.698 -0.3665  0.4661  0.3241
 6622TIP3    H141425   0.488   1.338   7.788 -1.7767 -0.7645 -0.2302
 6622TIP3    H241426   0.586   1.277   7.690 -0.8980 -0.0436  0.1859
 6623TIP3   OH241427   2.287   4.278   6.675 -0.0670  0.2675 -0.0858
 6623TIP3    H141428   2.213   4.218   6.684  1.0013 -1.3786 -1.4327
 6623TIP3    H241429   2.316   4.266   6.584  1.1259  1.7326  0.0682
 6624TIP3   OH241430   1.244   4.901   0.570 -0.1531 -0.4561 -0.5820
 6624TIP3    H141431   1.267   4.924   0.480  2.1356 -0.6140 -0.0971
 6624TIP3    H241432   1.150   4.915   0.575 -0.3052 -0.2459 -2.9359
 6625TIP3   OH241433   4.276   1.267   8.119  0.0719  0.0757  0.3741
 6625TIP3    H141434   4.186   1.290   8.097  0.0017 -1.1704 -0.8330
 6625TIP3    H241435   4.271   1.234   8.209 -0.5888  0.4400  0.4782
 6626TIP3   OH241436   4.774   4.533   8.251  0.1148  0.0158 -0.0655
 6626TIP3    H141437   4.712   4.530   8.324 -2.3713  0.2686 -2.0364
 6626TIP3    H241438   4.730   4.484   8.181  1.6814  1.1468 -1.9136
 6627TIP3   OH241439   2.770   4.076   6.694 -0.2027 -0.2818 -0.0415
 6627TIP3    H141440   2.705   4.084   6.625  0.1397 -0.9777 -0.4613
 6627TIP3    H241441   2.820   3.997   6.671 -0.1160 -0.5519  1.0220
 6628TIP3   OH241442   6.395   1.094   7.752 -0.5947  0.0687 -0.3701
 6628TIP3    H141443   6.432   1.022   7.802 -1.3472  0.8332  1.3417
 6628TIP3    H241444   6.351   1.052   7.678  0.2221 -1.1038 -0.2113
 6629TIP3   OH241445   0.933   4.392   0.406  0.5494  0.5651  0.0852
 6629TIP3    H141446   0.930   4.471   0.460 -0.0757  1.5053 -1.2736
 6629TIP3    H241447   0.969   4.421   0.322  1.0125 -0.7558 -0.2113
 6630TIP3   OH241448   6.061   5.161   1.365  0.7321  0.3438  0.4389
 6630TIP3    H141449   6.148   5.120   1.358  0.7578  0.3877  0.5044
 6630TIP3    H241450   6.007   5.111   1.304  1.3646  1.7767 -1.4092
 6631TIP3   OH241451   0.841   5.992   7.119 -0.1463  0.1564 -0.0429
 6631TIP3    H141452   0.826   5.901   7.091 -1.4330  0.5424 -0.6899
 6631TIP3    H241453   0.848   5.987   7.214  0.1855 -0.6621 -0.0997
 6632TIP3   OH241454   5.472   2.215   0.261 -0.6471 -0.0460 -0.3437
 6632TIP3    H141455   5.419   2.149   0.305 -0.5899  0.1004 -0.0516
 6632TIP3    H241456   5.418   2.293   0.261  0.1665  0.5743  1.4171
 6633TIP3   OH241457   0.240   1.758   7.941  0.1443 -0.0466  0.1892
 6633TIP3    H141458   0.297   1.688   7.910  1.6904  0.9918  0.6131
 6633TIP3    H241459   0.169   1.762   7.876  0.5582 -1.3220 -0.3699
 6634TIP3   OH241460   3.406   5.858   6.974  0.9106 -0.6674 -0.7723
 6634TIP3    H141461   3.387   5.933   7.030  1.2783 -0.2185 -1.2260
 6634TIP3    H241462   3.363   5.784   7.015 -1.1009  0.1373 -1.3374
 6635TIP3   OH241463   5.107   2.101   6.012  0.4574 -0.5562  0.2619
 6635TIP3    H141464   5.199   2.128   6.007  0.0150  1.5217  1.8795
 6635TIP3    H241465   5.063   2.174   6.057 -1.6584 -2.2821  1.1745
 6636TIP3   OH241466   1.012   0.822   1.356 -0.3077 -0.3063  0.1180
 6636TIP3    H141467   1.010   0.824   1.451  1.3986 -0.4533  0.1860
 6636TIP3    H241468   0.923   0.797   1.330 -0.7286 -0.4818  1.6618
 6637TIP3   OH241469   4.022   6.026   7.796  0.4476 -0.4202  0.2377
 6637TIP3    H141470   4.094   6.014   7.858 -0.6914 -2.7114  1.2352
 6637TIP3    H241471   3.963   5.953   7.814 -1.1859  0.2980 -1.8598
 6638TIP3   OH241472   2.924   1.884   1.310  0.1553  0.2417 -0.1367
 6638TIP3    H141473   2.870   1.822   1.261  1.2703 -0.5388 -0.4116
 6638TIP3    H241474   2.862   1.948   1.344 -0.8450 -0.1960 -1.0863
 6639TIP3   OH241475   5.878   1.854   0.171 -0.2306  0.2446 -0.0787
 6639TIP3    H141476   5.795   1.900   0.184 -0.9509 -1.2647  1.1574
 6639TIP3    H241477   5.857   1.762   0.191  1.3898 -0.4342 -1.2615
 6640TIP3   OH241478   6.698   3.629   8.566  0.4520 -0.0925  0.4475
 6640TIP3    H141479   6.740   3.706   8.527 -0.7560  0.7007  0.6878
 6640TIP3    H241480   6.764   3.594   8.626  1.2391  0.3862 -0.1135
 6641TIP3   OH241481   3.036   3.802   0.146 -0.0404  0.6223 -0.6245
 6641TIP3    H141482   3.117   3.850   0.166 -0.4527  0.1701  2.7907
 6641TIP3    H241483   2.969   3.870   0.139  0.3181  0.8836 -1.5800
 6642TIP3   OH241484   0.375   4.856   7.663  0.5782  0.0327  0.4929
 6642TIP3    H141485   0.451   4.914   7.656 -0.5566  1.4807 -0.6865
 6642TIP3    H241486   0.304   4.912   7.695 -0.2757 -0.9976  0.4961
 6643TIP3   OH241487   6.249   6.597   7.643 -0.0025  0.3756 -0.1308
 6643TIP3    H141488   6.230   6.676   7.592 -0.7377  0.2670 -0.0403
 6643TIP3    H241489   6.172   6.586   7.699 -0.0756 -0.6080 -0.4058
 6644TIP3   OH241490   3.344   4.887   8.185 -0.0820  0.9512  0.7257
 6644TIP3    H141491   3.397   4.966   8.198 -0.1246  1.2375 -0.6878
 6644TIP3    H241492   3.272   4.896   8.247  0.2011  1.7783  0.9484
 6645TIP3   OH241493   0.988   4.508   7.513  0.4034 -0.1876 -0.9017
 6645TIP3    H141494   0.985   4.428   7.565 -0.4463  1.0481  1.0735
 6645TIP3    H241495   1.056   4.562   7.555 -0.2785  0.8357 -1.0648
 6646TIP3   OH241496   2.058   3.358   0.179 -0.0219  0.4431  0.2164
 6646TIP3    H141497   2.025   3.434   0.132 -1.5143  0.0097  0.5105
 6646TIP3    H241498   2.091   3.393   0.261  0.0165  0.8657  0.0206
 6647TIP3   OH241499   2.061   4.100   6.685 -0.1805  0.1299  0.1612
 6647TIP3    H141500   2.054   4.014   6.726  0.5467 -0.3022 -0.6146
 6647TIP3    H241501   1.988   4.103   6.622  0.0090 -0.0583 -0.0667
 6648TIP3   OH241502   3.653   0.345   0.308 -0.2691 -0.2628  0.6461
 6648TIP3    H141503   3.637   0.273   0.247 -1.7017 -0.3305  1.0550
 6648TIP3    H241504   3.669   0.302   0.392 -0.8943 -0.1293  0.8419
 6649TIP3   OH241505   3.329   4.609   6.991  0.0867 -0.0548  0.4250
 6649TIP3    H141506   3.308   4.697   6.960 -0.9685 -0.1704  0.7728
 6649TIP3    H241507   3.379   4.622   7.071 -1.2880  0.2540  1.2692
 6650TIP3   OH241508   0.585   0.849   7.906 -0.1000 -0.2645 -0.5910
 6650TIP3    H141509   0.666   0.814   7.943 -0.1510  0.4690  0.2292
 6650TIP3    H241510   0.546   0.775   7.860 -1.9821 -2.4394  3.9310
 6651TIP3   OH241511   2.920   0.513   6.939  0.2637 -0.3431  0.0716
 6651TIP3    H141512   2.833   0.552   6.957  0.1805  0.0436 -1.0915
 6651TIP3    H241513   2.973   0.587   6.910  0.2534 -1.0029 -1.6937
 6652TIP3   OH241514   4.916   4.191   0.060  0.0710 -0.5334  0.4893
 6652TIP3    H141515   4.925   4.117  -0.000  1.8312 -0.5720  0.7370
 6652TIP3    H241516   4.929   4.268   0.005 -0.7267 -0.4551  0.4093
 6653TIP3   OH241517   0.741   0.093   8.829 -0.4179 -0.5738  0.2100
 6653TIP3    H141518   0.808   0.090   8.761  0.2430  2.0600  0.6159
 6653TIP3    H241519   0.700   0.178   8.819 -2.6362 -1.4718  1.0284
 6654TIP3   OH241520   5.026   5.463   6.146  0.3358  0.3804  0.3983
 6654TIP3    H141521   5.087   5.395   6.117 -1.4047 -0.5044 -1.4115
 6654TIP3    H241522   4.958   5.415   6.194 -1.7015  0.5355 -2.1515
 6655TIP3   OH241523   4.056   1.435   6.744  0.5113  0.3526 -0.0357
 6655TIP3    H141524   4.058   1.406   6.653 -0.7318  0.5105 -0.1349
 6655TIP3    H241525   4.095   1.363   6.794  0.9648  0.1572 -0.6599
 6656TIP3   OH241526   6.589   5.909   8.552 -0.2474  0.3195 -0.2243
 6656TIP3    H141527   6.580   5.914   8.457  0.2049  0.9135 -0.2448
 6656TIP3    H241528   6.537   5.833   8.578  4.7263 -4.2713 -1.7062
 6657TIP3   OH241529   0.899   6.515   7.626  0.6134  0.1430  0.5215
 6657TIP3    H141530   0.853   6.591   7.662 -1.9413 -0.3522 -1.4119
 6657TIP3    H241531   0.923   6.541   7.537  0.3164 -1.0603  0.0699
 6658TIP3   OH241532   3.997   0.263   7.846  0.1611  0.4860 -0.1859
 6658TIP3    H141533   3.919   0.217   7.878  1.6709 -0.1744  2.9038
 6658TIP3    H241534   4.021   0.322   7.917  3.1904 -0.2865 -0.4268
 6659TIP3   OH241535   2.735   1.008   7.981 -0.1156 -0.3502  0.2880
 6659TIP3    H141536   2.817   1.018   7.932  0.4738  1.1233  1.4829
 6659TIP3    H241537   2.666   1.027   7.917  0.6142  1.1337 -0.1009
 6660TIP3   OH241538   3.218   4.026   6.357 -0.3796  0.2314  0.6755
 6660TIP3    H141539   3.226   4.013   6.262 -0.4667  0.9466  0.5601
 6660TIP3    H241540   3.299   4.071   6.381 -0.0606 -0.5369  1.0611
 6661TIP3   OH241541   4.775   4.665   7.594  0.2856  0.1273 -0.1881
 6661TIP3    H141542   4.807   4.750   7.562  0.8378  0.5220  1.3169
 6661TIP3    H241543   4.830   4.601   7.549  0.2401  0.5945 -0.9273
 6662TIP3   OH241544   1.180   5.426   7.404 -0.1149  0.2231  0.3235
 6662TIP3    H141545   1.126   5.348   7.388  0.1625  0.0352  0.2964
 6662TIP3    H241546   1.118   5.491   7.438 -0.1984 -0.2899  1.1753
 6663TIP3   OH241547   5.485   0.909   8.034 -0.4220  0.4435 -0.2017
 6663TIP3    H141548   5.394   0.910   8.004 -0.4236  2.5163 -0.2342
 6663TIP3    H241549   5.479   0.900   8.129 -0.6720  0.6478 -0.1978
 6664TIP3   OH241550   1.269   4.764   7.870  0.1479 -0.0376 -0.0036
 6664TIP3    H141551   1.210   4.789   7.799  2.0677 -0.1318 -1.7249
 6664TIP3    H241552   1.342   4.719   7.827  0.5953 -1.6101  2.2161
 6665TIP3   OH241553   4.603   1.577   8.264 -0.2938  0.5899  0.4315
 6665TIP3    H141554   4.523   1.628   8.279  0.0247  0.9249  1.0488
 6665TIP3    H241555   4.621   1.587   8.171 -1.1710  0.2118  0.2195
 6666TIP3   OH241556   1.529   6.543   0.470 -0.6935  0.1636  0.3140
 6666TIP3    H141557   1.534   6.519   0.563 -0.8643 -1.0985  0.0076
 6666TIP3    H241558   1.472   6.477   0.431 -0.5632  0.6425 -0.7082
 6667TIP3   OH241559   1.506   1.287   6.020  0.1702  0.4099 -0.0064
 6667TIP3    H141560   1.503   1.300   6.115  1.1451 -1.5730  0.3536
 6667TIP3    H241561   1.416   1.263   5.997  0.6089 -2.6808  1.0869
 6668TIP3   OH241562   6.017   4.167   8.001 -0.7244  0.6249  0.1439
 6668TIP3    H141563   5.953   4.118   8.052 -2.1999  0.2962 -1.9194
 6668TIP3    H241564   6.015   4.255   8.037 -0.4408  0.0197  1.7380
 6669TIP3   OH241565   4.628   5.254   1.252  0.4969 -0.1307  0.1500
 6669TIP3    H141566   4.674   5.256   1.336  0.8200  2.5794 -0.0050
 6669TIP3    H241567   4.694   5.281   1.188 -0.3896  0.3556 -0.5866
 6670TIP3   OH241568   1.541   4.397   8.420  0.2179 -0.1881 -0.0081
 6670TIP3    H141569   1.556   4.303   8.430 -1.0076 -0.3783  0.2285
 6670TIP3    H241570   1.594   4.422   8.344 -0.6267 -1.3866 -1.0200
 6671TIP3   OH241571   2.680   1.979   7.539  0.4897 -0.2359  0.0062
 6671TIP3    H141572   2.731   1.899   7.527 -0.0098 -0.5268 -0.2217
 6671TIP3    H241573   2.597   1.950   7.577  1.1701  0.4272  2.1350
 6672TIP3   OH241574   5.224   5.543   0.379  0.3548 -0.1472  0.5931
 6672TIP3    H141575   5.145   5.530   0.431  0.2287  0.5583  0.5812
 6672TIP3    H241576   5.264   5.622   0.414  0.7836 -0.2094  0.2551
 6673TIP3   OH241577   0.651   5.907   5.915 -0.0361  0.0516  0.3851
 6673TIP3    H141578   0.655   5.820   5.954  0.5916 -0.8138 -1.4614
 6673TIP3    H241579   0.743   5.934   5.906 -0.2426  1.3254  1.7547
 6674TIP3   OH241580   4.905   4.664   6.824  0.4216 -0.5024 -0.3468
 6674TIP3    H141581   4.936   4.709   6.903 -2.1279  0.5430  0.1642
 6674TIP3    H241582   4.897   4.573   6.851 -0.0759 -0.2198  0.5169
 6675TIP3   OH241583   3.706   5.085   7.857 -0.6604  0.3179 -0.0543
 6675TIP3    H141584   3.765   5.127   7.919 -2.3445  2.9806 -0.0901
 6675TIP3    H241585   3.666   5.014   7.908  1.1903 -0.3983  0.4859
 6676TIP3   OH241586   6.034   4.186   1.125  0.5354 -0.5188  0.5752
 6676TIP3    H141587   6.054   4.096   1.099  0.9651 -0.0776 -0.7511
 6676TIP3    H241588   6.117   4.219   1.161  0.4664 -0.5713  0.7780
 6677TIP3   OH241589   1.860   4.950   2.048  0.0078 -0.3145  0.0198
 6677TIP3    H141590   1.811   4.868   2.052  0.7989 -0.7977  0.1230
 6677TIP3    H241591   1.950   4.923   2.030 -0.0381  0.6537 -1.8617
 6678TIP3   OH241592   0.030   3.013   1.341 -0.0452  0.2446  0.2208
 6678TIP3    H141593   0.093   2.962   1.391  0.0716  2.6698  2.8378
 6678TIP3    H241594  -0.047   2.957   1.334  1.0131 -1.2888  0.4789
 6679TIP3   OH241595   1.837   1.242   1.026  0.3767  0.2811 -0.3340
 6679TIP3    H141596   1.869   1.332   1.032  1.0714  0.1111 -1.2266
 6679TIP3    H241597   1.746   1.250   0.997  0.2193  0.7077  0.2592
 6680TIP3   OH241598   4.688   4.318   0.146 -0.4761  0.1390  0.6968
 6680TIP3    H141599   4.764   4.260   0.147 -0.6945 -0.1499  1.4368
 6680TIP3    H241600   4.723   4.405   0.127  0.1431  0.1508  1.8316
 6681TIP3   OH241601   5.300   4.878   8.552  0.0422 -0.6435  0.4833
 6681TIP3    H141602   5.233   4.893   8.486 -0.5320 -1.8510  0.7489
 6681TIP3    H241603   5.285   4.945   8.618  0.7702  0.7267 -0.6871
 6682TIP3   OH241604   4.368   1.009   7.284  0.1594 -0.1079  0.7882
 6682TIP3    H141605   4.348   0.981   7.195 -0.7130  1.2478  0.5357
 6682TIP3    H241606   4.310   1.084   7.300  1.6770  0.9205  1.7754
 6683TIP3   OH241607   4.318   3.806   8.700  0.7790 -0.0418  0.1921
 6683TIP3    H141608   4.305   3.851   8.783  0.3821  0.4118 -0.1049
 6683TIP3    H241609   4.280   3.719   8.713  2.2322 -0.5781  1.0118
 6684TIP3   OH241610   5.436   5.327   1.372  0.5898  0.2624 -0.3719
 6684TIP3    H141611   5.529   5.313   1.353  0.4697  0.3727 -1.0553
 6684TIP3    H241612   5.435   5.352   1.464  1.3308  1.0806 -0.5691
 6685TIP3   OH241613   0.895   6.169   5.884  0.0888  0.0233 -0.6804
 6685TIP3    H141614   0.907   6.143   5.975  0.7972 -2.5266 -1.4275
 6685TIP3    H241615   0.983   6.190   5.852 -0.2470  1.6413 -0.6101
 6686TIP3   OH241616   3.340   5.534   0.711  0.1740  0.3332 -0.0283
 6686TIP3    H141617   3.260   5.508   0.755 -0.3257 -0.2572 -1.2300
 6686TIP3    H241618   3.310   5.583   0.634  1.0414  2.2164  0.7789
 6687TIP3   OH241619   5.155   3.550   7.912  0.3923 -0.2853  0.1195
 6687TIP3    H141620   5.210   3.622   7.882  0.4020 -0.7753 -1.0883
 6687TIP3    H241621   5.124   3.509   7.832  0.3189 -1.5830  0.7956
 6688TIP3   OH241622   2.234   4.631   7.223 -0.0863  0.0748 -0.1919
 6688TIP3    H141623   2.270   4.657   7.139 -0.0708  1.5140  0.2326
 6688TIP3    H241624   2.264   4.541   7.236  0.1969 -0.0393 -1.5496
 6689TIP3   OH241625   1.260   3.209   7.337  0.5157  0.5709  0.4156
 6689TIP3    H141626   1.307   3.277   7.289 -1.3074  1.6385  0.0313
 6689TIP3    H241627   1.221   3.155   7.268 -0.8205  1.1796  0.6635
 6690TIP3   OH241628   1.452   4.293   0.277 -0.4005  0.1446 -0.1177
 6690TIP3    H141629   1.515   4.343   0.226 -1.6712 -0.0640 -2.0288
 6690TIP3    H241630   1.449   4.207   0.233 -1.5976 -0.0205  0.2521
 6691TIP3   OH241631   5.503   6.019   7.649 -0.1793  0.0222  0.0862
 6691TIP3    H141632   5.442   5.959   7.606 -0.7974  0.2092  0.6838
 6691TIP3    H241633   5.450   6.096   7.669  0.3804  0.3870  0.1754
 6692TIP3   OH241634   2.611   6.393   7.673  0.0418 -0.1354 -0.1176
 6692TIP3    H141635   2.526   6.417   7.636 -1.4997 -0.7835  2.7484
 6692TIP3    H241636   2.611   6.429   7.761  2.4745 -0.7588  0.2165
 6693TIP3   OH241637   0.142   2.879   0.278 -0.0992 -0.4036  0.3185
 6693TIP3    H141638   0.122   2.868   0.371 -0.4453 -0.2866  0.2593
 6693TIP3    H241639   0.234   2.854   0.270  0.3427  0.9819  0.9325
 6694TIP3   OH241640   4.420   3.863   0.888  0.1303 -0.3053  0.8242
 6694TIP3    H141641   4.486   3.871   0.819 -1.8813  1.2770 -1.0497
 6694TIP3    H241642   4.453   3.918   0.959  1.1144 -0.0263  0.1744
 6695TIP3   OH241643   3.516   0.534   7.104  0.3488  0.2135 -0.7041
 6695TIP3    H141644   3.543   0.503   7.017 -2.4096 -1.7165 -0.9764
 6695TIP3    H241645   3.517   0.456   7.159 -0.0464  1.0071  0.4639
 6696TIP3   OH241646   4.057   1.242   0.272  0.9758  0.0915 -0.5331
 6696TIP3    H141647   4.143   1.275   0.247  0.5703 -0.6271 -3.1749
 6696TIP3    H241648   4.056   1.247   0.368  3.5897  0.9490 -0.4806
 6697TIP3   OH241649   5.173   6.022   6.218 -0.0948 -0.0783  0.4225
 6697TIP3    H141650   5.262   6.039   6.249  0.7439 -0.7747 -1.4688
 6697TIP3    H241651   5.125   6.103   6.237  0.9468  0.3304  1.4166
 6698TIP3   OH241652   2.740   3.866   6.467 -0.4153  1.1025  0.0833
 6698TIP3    H141653   2.750   3.791   6.409 -0.0991  1.3846 -0.2381
 6698TIP3    H241654   2.658   3.908   6.440 -1.8203 -0.3836  1.7526
 6699TIP3   OH241655   3.084   6.265   8.231 -0.0834  0.5017 -0.7567
 6699TIP3    H141656   3.037   6.261   8.148  1.1702 -0.2468 -1.4535
 6699TIP3    H241657   3.158   6.323   8.214  0.9503 -0.7228 -0.5789
 6700TIP3   OH241658   2.877   1.409   7.320 -0.4791 -0.3082  0.1674
 6700TIP3    H141659   2.800   1.448   7.278 -0.9680 -1.9273 -0.5329
 6700TIP3    H241660   2.870   1.316   7.300  2.4344 -0.3380 -1.1952
 6701TIP3   OH241661   0.828   6.692   7.963 -0.1844  0.1445  0.7910
 6701TIP3    H141662   0.784   6.692   7.878  0.8642  0.6001  0.2261
 6701TIP3    H241663   0.906   6.746   7.949  1.0704 -1.3974  1.4725
 6702TIP3   OH241664   2.221   1.467   0.233 -0.5810  0.0948 -0.3565
 6702TIP3    H141665   2.260   1.415   0.303 -2.8531 -0.5065  0.5346
 6702TIP3    H241666   2.182   1.542   0.277 -0.2387  0.8073 -1.2405
 6703TIP3   OH241667   2.443   3.126   8.685 -0.5353  0.0855  0.3452
 6703TIP3    H141668   2.418   3.217   8.671  2.0483  0.8293  0.0813
 6703TIP3    H241669   2.478   3.124   8.774  2.1874  0.0972 -0.6504
 6704TIP3   OH241670   2.341   4.231   8.353  0.0522  0.1738  0.4767
 6704TIP3    H141671   2.425   4.199   8.384 -0.3490 -1.8369 -0.3319
 6704TIP3    H241672   2.303   4.277   8.428  2.4454  2.4444  0.4110
 6705TIP3   OH241673   0.144   3.296   0.601  0.1371 -0.1634 -0.0825
 6705TIP3    H141674   0.168   3.359   0.669  0.3916  0.4719 -0.7512
 6705TIP3    H241675   0.064   3.332   0.562  1.0698  0.5225 -1.4265
 6706TIP3   OH241676   6.660   3.546   7.695  0.4998  0.6462 -0.3326
 6706TIP3    H141677   6.603   3.565   7.620  0.9857  1.3329 -0.5449
 6706TIP3    H241678   6.723   3.482   7.661 -0.8157 -1.0134  0.2295
 6707TIP3   OH241679   2.781   1.376   8.476  0.3772  0.3236 -0.2683
 6707TIP3    H141680   2.715   1.315   8.508  0.1758  0.7033  0.0442
 6707TIP3    H241681   2.859   1.357   8.528  0.0756  0.8827  0.4174
 6708TIP3   OH241682   2.865   4.220   7.849  0.3222 -0.1829  0.2774
 6708TIP3    H141683   2.870   4.234   7.754 -0.9388  0.6010  0.2984
 6708TIP3    H241684   2.808   4.143   7.858 -0.7754  0.6293  0.4215
 6709TIP3   OH241685   5.445   1.760   5.714  0.3393 -0.7938 -0.0614
 6709TIP3    H141686   5.430   1.846   5.753  0.6027 -1.3697  1.3723
 6709TIP3    H241687   5.539   1.760   5.693  0.3426 -0.7346 -0.0468
 6710TIP3   OH241688   1.981   2.794   1.060 -0.1161 -0.1010  0.7067
 6710TIP3    H141689   2.003   2.763   0.972  1.9036  3.0492 -0.0541
 6710TIP3    H241690   1.885   2.792   1.063 -0.2240 -0.5699 -1.4539
 6711TIP3   OH241691   0.070   6.455   0.930  0.1806 -0.0620 -0.8332
 6711TIP3    H141692   0.055   6.535   0.981  3.1207  0.9309 -1.3371
 6711TIP3    H241693   0.044   6.384   0.990  0.0108  1.1765  0.6400
 6712TIP3   OH241694   5.306   4.677   0.502 -0.1643 -0.0658 -0.3006
 6712TIP3    H141695   5.364   4.611   0.538 -0.5087 -0.9675 -1.3364
 6712TIP3    H241696   5.219   4.652   0.532 -0.0075  1.5624  1.6591
 6713TIP3   OH241697   0.299   5.463   8.084  0.0990  0.0960 -0.0155
 6713TIP3    H141698   0.390   5.484   8.106 -0.1994  0.7989  0.6220
 6713TIP3    H241699   0.267   5.414   8.161 -0.7802  2.0402  0.9269
 6714TIP3   OH241700   5.802   2.165   0.982  0.6021 -0.2504 -0.5300
 6714TIP3    H141701   5.740   2.238   0.996  0.6742 -0.5032  1.4274
 6714TIP3    H241702   5.774   2.126   0.899  0.2424  1.6780 -1.3811
 6715TIP3   OH241703   2.958   0.351   0.140  0.4048 -0.4010 -0.5543
 6715TIP3    H141704   3.042   0.373   0.180  2.3458 -5.3973 -1.1268
 6715TIP3    H241705   2.953   0.407   0.063  1.6508  2.1287  1.0675
 6716TIP3   OH241706   4.137   0.463   1.229 -0.5464  0.1970 -0.2226
 6716TIP3    H141707   4.154   0.424   1.143 -0.5730  0.1005 -0.1844
 6716TIP3    H241708   4.223   0.467   1.271 -0.6144 -0.2686 -0.0391
 6717TIP3   OH241709   6.744   4.115   7.777  0.2589 -0.1943 -0.1935
 6717TIP3    H141710   6.724   4.091   7.868  0.0125  0.4758 -0.0612
 6717TIP3    H241711   6.777   4.205   7.783  1.0485 -0.4450 -0.6783
 6718TIP3   OH241712   0.311   4.206   7.725 -0.0249  0.5501 -0.3305
 6718TIP3    H141713   0.406   4.209   7.709 -0.2961 -0.6564 -2.5357
 6718TIP3    H241714   0.285   4.119   7.696 -1.6515  0.3383  1.5447
 6719TIP3   OH241715   2.499   1.174   0.504 -0.6006 -0.0244 -0.5857
 6719TIP3    H141716   2.542   1.200   0.422  0.2502  1.2615  0.2461
 6719TIP3    H241717   2.551   1.215   0.573 -2.9167  1.2621  0.4987
 6720TIP3   OH241718   5.202   0.655   6.400 -0.6648 -0.1668 -0.0796
 6720TIP3    H141719   5.279   0.625   6.352 -2.2966 -1.9162 -1.7669
 6720TIP3    H241720   5.164   0.575   6.437 -2.0151  0.5588  0.1761
 6721TIP3   OH241721   3.395   1.656   0.825  0.3898 -0.2882  0.2907
 6721TIP3    H141722   3.363   1.602   0.752 -0.3519 -0.7392  0.9276
 6721TIP3    H241723   3.354   1.618   0.902  1.3461  0.0410  0.9815
 6722TIP3   OH241724   6.731   2.342   6.749  0.1447  0.5154 -0.0163
 6722TIP3    H141725   6.810   2.301   6.784  0.2270  0.3284 -0.4180
 6722TIP3    H241726   6.762   2.394   6.675 -0.2457 -0.4760 -0.9095
 6723TIP3   OH241727   4.536   1.679   0.620 -0.5611 -0.4836  0.5586
 6723TIP3    H141728   4.581   1.733   0.555 -0.2842  0.3816  1.4626
 6723TIP3    H241729   4.606   1.630   0.664 -0.8640 -2.3712 -0.8894
 6724TIP3   OH241730   4.538   1.846   0.862  0.0952 -0.3458  0.4311
 6724TIP3    H141731   4.518   1.925   0.811 -0.0449 -1.7345 -1.7752
 6724TIP3    H241732   4.546   1.777   0.797  2.5974 -1.7324  2.0651
 6725TIP3   OH241733   1.828   3.488   6.044  0.2098 -0.2071 -0.6791
 6725TIP3    H141734   1.920   3.484   6.067  0.8512 -0.6638 -3.1022
 6725TIP3    H241735   1.795   3.400   6.063  0.7036 -0.5589 -1.4240
 6726TIP3   OH241736   4.090   2.420   7.660  0.4040  0.5770 -0.1588
 6726TIP3    H141737   4.000   2.431   7.692  0.8622 -1.9808  2.4436
 6726TIP3    H241738   4.089   2.336   7.614  1.7149 -0.2476  1.2373
 6727TIP3   OH241739   3.369   5.618   0.960 -0.0060 -0.4499  0.3254
 6727TIP3    H141740   3.384   5.605   0.866 -1.4685 -1.3488  0.1786
 6727TIP3    H241741   3.346   5.531   0.993  0.5183 -0.1513  1.5343
 6728TIP3   OH241742   6.013   6.446   6.399  0.3743 -0.1373  0.1605
 6728TIP3    H141743   5.950   6.393   6.448  0.5312 -0.2648  0.2230
 6728TIP3    H241744   6.098   6.410   6.422  0.5325  0.6181  0.7948
 6729TIP3   OH241745   2.493   4.188   1.307  0.0476 -0.0919 -0.2702
 6729TIP3    H141746   2.546   4.163   1.383  0.3444  0.3990 -0.3116
 6729TIP3    H241747   2.405   4.203   1.343  0.1259 -0.1199 -0.0673
 6730TIP3   OH241748   0.353   2.515   0.240 -0.0013  0.0160  0.5941
 6730TIP3    H141749   0.275   2.472   0.204  1.2235 -1.0592 -0.9480
 6730TIP3    H241750   0.354   2.490   0.332 -0.8972 -0.8515  0.3871
 6731TIP3   OH241751   6.293   3.618   6.710  0.6088 -0.4556 -0.2319
 6731TIP3    H141752   6.240   3.570   6.774  0.8335  0.7220  0.8773
 6731TIP3    H241753   6.353   3.670   6.763 -1.4682  3.2592 -1.1840
 6732TIP3   OH241754   1.278   0.008   7.460  0.6313 -0.0130 -0.0217
 6732TIP3    H141755   1.347  -0.046   7.421 -0.2852 -0.9424 -0.3974
 6732TIP3    H241756   1.266  -0.028   7.548 -2.1644 -2.6176 -1.3107
 6733TIP3   OH241757   1.581   5.196   7.891  0.1702  0.1111  0.4485
 6733TIP3    H141758   1.601   5.114   7.846  1.4467  1.1904 -1.0684
 6733TIP3    H241759   1.489   5.189   7.914  0.2290 -1.7044  0.2948
 6734TIP3   OH241760   3.098   6.193   8.510  0.1016  0.2820  0.0684
 6734TIP3    H141761   3.075   6.182   8.417 -0.3771  0.0441  0.2102
 6734TIP3    H241762   3.109   6.287   8.521  0.5031  0.2810 -0.3099
 6735TIP3   OH241763   1.297   4.136   8.193  0.0630  0.1732 -0.2896
 6735TIP3    H141764   1.317   4.182   8.112 -0.2998 -1.1450 -1.1492
 6735TIP3    H241765   1.299   4.205   8.260  1.1501  1.1552 -1.2685
 6736TIP3   OH241766   3.097   4.734   6.524  0.0724 -0.3281 -0.0786
 6736TIP3    H141767   3.054   4.783   6.594  0.0343 -2.1907  1.2821
 6736TIP3    H241768   3.158   4.676   6.570 -0.9879 -2.6576 -1.4506
 6737TIP3   OH241769   6.601   4.661   8.049 -0.1233  0.2646 -0.4594
 6737TIP3    H141770   6.611   4.752   8.078  0.5849  0.3824 -1.0433
 6737TIP3    H241771   6.507   4.649   8.040 -0.1542  1.7193 -2.7608
 6738TIP3   OH241772   6.480   6.654   8.059 -0.5133 -0.4013 -0.0876
 6738TIP3    H141773   6.402   6.707   8.069 -0.3415 -0.2746  0.5941
 6738TIP3    H241774   6.523   6.689   7.980  0.0684  1.0844  0.8422
 6739TIP3   OH241775   2.714   2.893   7.260 -0.9717 -0.2263 -0.4224
 6739TIP3    H141776   2.786   2.913   7.200  1.3477 -2.9149  1.2292
 6739TIP3    H241777   2.723   2.958   7.330 -0.1429 -0.4885 -0.2680
 6740TIP3   OH241778   2.523   4.092   6.897  0.0877  0.5904 -0.2118
 6740TIP3    H141779   2.588   4.148   6.854 -0.0473  0.5257 -0.5032
 6740TIP3    H241780   2.456   4.078   6.830  1.7106 -2.7056 -1.3871
 6741TIP3   OH241781   5.633   0.950   1.941 -0.0776 -0.3064  0.2427
 6741TIP3    H141782   5.546   0.914   1.962 -0.5761  1.2492  0.9569
 6741TIP3    H241783   5.644   1.023   2.002  0.6522  1.1210 -1.5102
 6742TIP3   OH241784   3.319   3.246   2.266  0.0541 -0.0335  0.5599
 6742TIP3    H141785   3.225   3.254   2.278  0.2309 -0.3663  2.6021
 6742TIP3    H241786   3.337   3.153   2.277  0.7300  0.1791  1.4100
 6743TIP3   OH241787   1.559   3.054   0.358 -0.2175 -0.2421 -0.2275
 6743TIP3    H141788   1.501   2.981   0.381 -0.6697  0.5225  1.1600
 6743TIP3    H241789   1.513   3.132   0.388  0.6591  0.5483 -0.8875
 6744TIP3   OH241790   3.517   0.960   6.516 -0.5163  0.1622  0.4381
 6744TIP3    H141791   3.470   0.901   6.575 -1.4429  0.7688  0.3391
 6744TIP3    H241792   3.447   1.012   6.475  0.2664  1.2564  0.4638
 6745TIP3   OH241793   1.604   1.806   1.679  0.2802  0.5191  0.3390
 6745TIP3    H141794   1.652   1.748   1.738  0.4349  0.2096 -0.0896
 6745TIP3    H241795   1.628   1.894   1.708  1.1829  0.3709  0.0750
 6746TIP3   OH241796   5.419   0.694   7.107 -0.6662 -0.2361  0.3203
 6746TIP3    H141797   5.451   0.785   7.108 -2.7584  0.6437 -2.0439
 6746TIP3    H241798   5.339   0.697   7.159 -1.2243 -0.4986 -0.5111
 6747TIP3   OH241799   3.088   0.524   0.748 -0.2195 -0.2224 -0.7978
 6747TIP3    H141800   3.010   0.474   0.773  1.3533 -1.5127  1.9980
 6747TIP3    H241801   3.146   0.458   0.709  0.1383  0.3737 -1.2830
 6748TIP3   OH241802   5.905   1.827   1.211 -0.5138  0.2882 -0.2137
 6748TIP3    H141803   5.902   1.732   1.205 -0.3395  0.3961 -2.8959
 6748TIP3    H241804   5.982   1.846   1.265 -0.9517 -1.0513  0.9439
 6749TIP3   OH241805   1.800   2.201   0.060  0.4318 -0.2229  0.7663
 6749TIP3    H141806   1.868   2.151   0.015 -0.2267 -0.1886 -0.2953
 6749TIP3    H241807   1.720   2.180   0.013  0.0424  1.3796  0.6564
 6750TIP3   OH241808   1.654   4.567   6.813  0.0219  0.6697  0.0966
 6750TIP3    H141809   1.565   4.542   6.839 -0.4975  1.0095 -1.3001
 6750TIP3    H241810   1.644   4.608   6.727  1.9298 -2.8825 -2.0746
 6751TIP3   OH241811   5.878   1.279   8.506 -0.4998  0.6378 -0.0887
 6751TIP3    H141812   5.908   1.225   8.579  1.4622  0.2314 -1.1211
 6751TIP3    H241813   5.848   1.216   8.440  0.5037  0.8144 -0.7502
 6752TIP3   OH241814   5.576   5.047   6.769 -0.0275  0.2324  0.6892
 6752TIP3    H141815   5.597   5.026   6.860 -2.0285  0.5679  1.2927
 6752TIP3    H241816   5.484   5.073   6.772 -0.1049  0.3543 -1.4280
 6753TIP3   OH241817   1.064   3.506   0.718  0.3143 -0.6999  0.3039
 6753TIP3    H141818   0.984   3.500   0.770  0.4883 -0.3269  0.6144
 6753TIP3    H241819   1.068   3.597   0.688 -1.0420 -1.4194 -2.3909
 6754TIP3   OH241820   6.041   0.992   8.308 -0.2569 -0.2414  0.2771
 6754TIP3    H141821   6.031   0.906   8.349  0.3966 -0.2591  0.3957
 6754TIP3    H241822   5.956   1.034   8.321 -0.1182 -0.3108  1.4946
 6755TIP3   OH241823   4.725   2.046   0.727  0.1997 -0.7985 -0.4610
 6755TIP3    H141824   4.641   2.071   0.690 -0.6447  1.9984  2.8137
 6755TIP3    H241825   4.789   2.066   0.659 -1.4514  0.9696 -1.5847
 6756TIP3   OH241826   3.575   0.729   8.683 -0.1166  0.1118  0.1677
 6756TIP3    H141827   3.624   0.753   8.604 -0.0452  0.9350  0.4564
 6756TIP3    H241828   3.642   0.704   8.746  0.0155  1.8325  0.7678
 6757TIP3   OH241829   2.981   1.565   0.688 -0.4810 -0.9339 -0.1518
 6757TIP3    H141830   2.918   1.637   0.694 -0.1155 -0.6882  1.0411
 6757TIP3    H241831   3.043   1.594   0.621 -0.9821 -0.6571 -0.5026
 6758TIP3   OH241832   2.568   2.080   6.711  0.0181  0.6454  0.3895
 6758TIP3    H141833   2.578   2.143   6.641 -0.2164 -1.5212 -1.7208
 6758TIP3    H241834   2.514   2.010   6.674 -0.5177 -0.3871  2.8881
 6759TIP3   OH241835   4.739   0.874   7.583  0.6906  0.2355  0.3837
 6759TIP3    H141836   4.703   0.813   7.519 -1.8101  1.2945  0.6744
 6759TIP3    H241837   4.829   0.890   7.553 -0.0900  0.0111 -2.3418
 6760TIP3   OH241838   3.325   0.191   7.711 -0.3517  0.0882 -0.2972
 6760TIP3    H141839   3.363   0.266   7.665  0.5248 -0.3814 -0.3674
 6760TIP3    H241840   3.263   0.229   7.773 -0.8108  0.7893 -1.1654
 6761TIP3   OH241841   6.180   5.925   8.105 -0.3341 -0.1482  0.6892
 6761TIP3    H141842   6.247   5.875   8.153  0.3759 -1.5301 -1.5434
 6761TIP3    H241843   6.226   6.004   8.076  0.3715 -0.9994 -0.6665
 6762TIP3   OH241844   6.267   0.432   6.945 -0.1814 -0.2579 -1.0181
 6762TIP3    H141845   6.344   0.438   7.001  0.1978 -1.1821 -1.4198
 6762TIP3    H241846   6.254   0.521   6.912 -0.3548  0.2851  0.4423
 6763TIP3   OH241847   0.078   4.197   7.448 -0.2862 -0.1016 -0.4830
 6763TIP3    H141848   0.163   4.162   7.475 -0.0449  0.5784 -0.3580
 6763TIP3    H241849   0.016   4.128   7.470  0.2508 -0.6769 -0.7380
 6764TIP3   OH241850   6.359   3.327   6.533 -0.3687  0.6399  0.0568
 6764TIP3    H141851   6.412   3.268   6.586 -2.2554  0.9377  2.4060
 6764TIP3    H241852   6.349   3.281   6.449 -0.9649 -1.9460  1.4614
 6765TIP3   OH241853   1.972   4.456   6.978  0.4449  0.4213 -0.0879
 6765TIP3    H141854   1.944   4.422   6.893 -1.1442  1.1937  0.0846
 6765TIP3    H241855   2.061   4.423   6.989 -0.2545 -1.8880 -0.8370
 6766TIP3   OH241856   6.610   0.508   1.450  0.2821 -0.3111  0.1571
 6766TIP3    H141857   6.547   0.444   1.485  0.6036  0.3710  2.0883
 6766TIP3    H241858   6.570   0.538   1.369 -1.9622  0.1357  1.3311
 6767TIP3   OH241859   6.437   3.144   8.767 -0.3694  0.4435  0.4883
 6767TIP3    H141860   6.413   3.072   8.708  1.6875  0.2029 -0.1430
 6767TIP3    H241861   6.396   3.121   8.850 -1.1560 -0.5894 -0.1617
 6768TIP3   OH241862   5.309   3.013   0.341 -0.3947  0.7962 -0.4476
 6768TIP3    H141863   5.213   3.014   0.347 -0.4440 -1.8376  0.5768
 6768TIP3    H241864   5.339   3.021   0.432  0.3122  0.2769 -0.6257
 6769TIP3   OH241865   1.374   6.595   1.758  0.0090  0.1546 -0.2637
 6769TIP3    H141866   1.417   6.666   1.805  0.2462  0.7132 -1.2991
 6769TIP3    H241867   1.362   6.527   1.824  1.2383  0.5140  0.3615
 6770TIP3   OH241868   0.078   0.338   6.850  0.1451 -0.2754  0.2887
 6770TIP3    H141869   0.039   0.422   6.875  0.2351  0.0099 -0.4989
 6770TIP3    H241870   0.044   0.321   6.762  1.3001 -0.3288 -0.1586
 6771TIP3   OH241871   0.496   5.310   7.458  0.0277  0.3977 -0.1203
 6771TIP3    H141872   0.455   5.236   7.502  2.5153 -1.4299 -0.6359
 6771TIP3    H241873   0.449   5.318   7.375  1.2242 -2.3352 -1.1707
 6772TIP3   OH241874   5.105   0.152   6.063  0.5521  0.3305  0.8820
 6772TIP3    H141875   5.087   0.058   6.057  1.7064  0.0927  0.7705
 6772TIP3    H241876   5.024   0.194   6.034  0.4147 -0.6447 -0.2525
 6773TIP3   OH241877   3.528   6.211   7.353 -0.0180  0.1869  0.7968
 6773TIP3    H141878   3.505   6.298   7.386  2.0412  0.6943  1.0154
 6773TIP3    H241879   3.524   6.154   7.429  0.3952  0.4665  1.0320
 6774TIP3   OH241880   1.722   2.207   8.311 -0.0167 -0.1802 -1.1696
 6774TIP3    H141881   1.818   2.214   8.313 -0.0801  1.5485  1.7627
 6774TIP3    H241882   1.694   2.283   8.259  0.1553 -0.8404 -2.2662
 6775TIP3   OH241883   2.302   0.616   7.553 -0.4304  0.5040  0.7314
 6775TIP3    H141884   2.237   0.562   7.598  0.6461 -0.4876  1.1247
 6775TIP3    H241885   2.375   0.623   7.614  0.3821  0.5014 -0.2066
 6776TIP3   OH241886   5.222   6.620   8.074 -0.3090 -0.7019 -0.1873
 6776TIP3    H141887   5.281   6.621   7.999 -0.6991  2.0146 -0.5828
 6776TIP3    H241888   5.134   6.627   8.036 -0.5526 -0.0847  0.4590
 6777TIP3   OH241889   1.419   2.847   8.103 -0.4958 -0.0648  0.2262
 6777TIP3    H141890   1.392   2.891   8.183 -0.7957  1.7259 -0.8224
 6777TIP3    H241891   1.458   2.916   8.049  1.0165 -1.4981 -0.6155
 6778TIP3   OH241892   5.340   2.516   6.306  0.1021 -0.1840 -0.2529
 6778TIP3    H141893   5.416   2.574   6.301  1.0026 -1.1510  1.4206
 6778TIP3    H241894   5.288   2.551   6.378 -1.6362  1.0708 -2.0219
 6779TIP3   OH241895   2.248   4.029   0.102  0.2085  0.6526  0.1401
 6779TIP3    H141896   2.182   4.097   0.101 -1.8448 -1.2263 -0.4111
 6779TIP3    H241897   2.224   3.973   0.176  2.4583  1.0381  1.2357
 6780TIP3   OH241898   3.810   3.448   8.614 -0.0906 -0.1480 -0.0577
 6780TIP3    H141899   3.849   3.402   8.688  0.3699  1.9778  1.1008
 6780TIP3    H241900   3.778   3.379   8.557  1.0601 -1.8875  1.3012
 6781TIP3   OH241901   0.842   4.571   8.659  0.4749  0.4016 -0.2704
 6781TIP3    H141902   0.757   4.557   8.699 -0.8048  0.7994 -2.6636
 6781TIP3    H241903   0.883   4.641   8.710  0.0213 -0.7445  1.7673
 6782TIP3   OH241904   3.491   5.872   8.262  0.1097  0.0820 -0.0472
 6782TIP3    H141905   3.542   5.791   8.269 -1.7218 -1.3295 -1.8867
 6782TIP3    H241906   3.416   5.857   8.318  0.4487  1.1246  0.7038
 6783TIP3   OH241907   2.430   4.247   8.072 -0.0588  0.1013  0.1811
 6783TIP3    H141908   2.427   4.250   8.168  0.9242  0.1280  0.2125
 6783TIP3    H241909   2.419   4.155   8.050  2.3036 -0.2818  0.4324
 6784TIP3   OH241910   2.117   2.229   8.802 -0.1701 -0.3900  0.0119
 6784TIP3    H141911   2.096   2.174   8.878  1.4135 -0.6524  0.2903
 6784TIP3    H241912   2.138   2.314   8.838 -0.9898 -0.0487 -0.2878
 6785TIP3   OH241913   3.261   6.536   6.909 -0.1675 -0.0013 -0.2455
 6785TIP3    H141914   3.251   6.609   6.848  1.2452 -0.6606 -1.3212
 6785TIP3    H241915   3.315   6.571   6.980  2.0760 -0.4061 -1.6421
 6786TIP3   OH241916   6.685   0.235   0.130 -1.0776  0.0795  0.1762
 6786TIP3    H141917   6.606   0.214   0.081 -0.8409 -0.5907  0.0722
 6786TIP3    H241918   6.717   0.150   0.162 -0.5246  0.3657  0.3991
 6787TIP3   OH241919   6.291   2.685   8.518 -0.1122  0.4899  0.1061
 6787TIP3    H141920   6.357   2.632   8.473 -0.7104 -1.9819  1.9205
 6787TIP3    H241921   6.251   2.737   8.449  0.7592 -1.1847 -1.7805
 6788TIP3   OH241922   0.024   5.961   0.959  0.6230 -0.0515 -0.1767
 6788TIP3    H141923   0.011   6.050   0.990  0.4162  0.1630 -0.8710
 6788TIP3    H241924   0.057   5.914   1.036  1.5518  0.8078 -0.0297
 6789TIP3   OH241925   2.019   1.250   6.619 -0.4825  0.1620 -0.0337
 6789TIP3    H141926   2.069   1.177   6.585 -0.7532  0.2068 -0.5316
 6789TIP3    H241927   2.025   1.240   6.714  0.4066  0.1299 -0.0818
 6790TIP3   OH241928   3.520   6.328   0.472 -0.1170  0.7707  0.3378
 6790TIP3    H141929   3.507   6.399   0.535  1.9235  0.7374  0.8710
 6790TIP3    H241930   3.612   6.335   0.446 -0.5245 -0.1559 -1.5214
 6791TIP3   OH241931   3.964   6.139   8.287  0.0789  0.2714 -0.1740
 6791TIP3    H141932   3.935   6.071   8.348  0.7536 -0.1855 -0.3511
 6791TIP3    H241933   3.936   6.221   8.328 -0.5337 -0.0965  0.1610
 6792TIP3   OH241934   3.022   3.153   8.588 -0.6481 -0.2311  0.5105
 6792TIP3    H141935   3.068   3.232   8.615 -1.9256  0.7150 -0.0105
 6792TIP3    H241936   2.956   3.138   8.655 -1.0986 -0.2478  0.0709
 6793TIP3   OH241937   5.962   6.491   0.204 -1.1281  0.2254  0.2621
 6793TIP3    H141938   5.983   6.584   0.206  0.5277 -0.1460  1.6617
 6793TIP3    H241939   5.866   6.489   0.195 -1.1293  2.0247 -0.6073
 6794TIP3   OH241940   0.592   2.146   7.849  0.0902 -0.1533 -0.6237
 6794TIP3    H141941   0.521   2.117   7.906  1.3150 -0.6448  0.6972
 6794TIP3    H241942   0.559   2.227   7.809 -1.8014 -1.1678 -1.2676
 6795TIP3   OH241943   3.574   4.502   6.684 -0.4377  0.0012  0.3580
 6795TIP3    H141944   3.544   4.565   6.618  0.7450  0.1009 -0.1100
 6795TIP3    H241945   3.501   4.441   6.694 -1.7591  1.6095  1.0602
 6796TIP3   OH241946   3.920   4.483   7.533  0.0605 -0.9297  0.1980
 6796TIP3    H141947   4.007   4.448   7.554  0.8224  0.7889  0.1531
 6796TIP3    H241948   3.903   4.453   7.443  1.6023  0.4178 -0.6061
 6797TIP3   OH241949   3.397   3.106   6.346 -0.0987  0.1626  0.6194
 6797TIP3    H141950   3.483   3.109   6.304  0.1558 -0.6686  1.0478
 6797TIP3    H241951   3.337   3.080   6.276  0.0611  0.3744  0.4044
 6798TIP3   OH241952   6.570   1.763   0.045  0.0172  0.2281  0.3794
 6798TIP3    H141953   6.639   1.803   0.098 -1.0631  0.9932  1.2689
 6798TIP3    H241954   6.580   1.802  -0.041  1.9331 -1.1789 -0.1040
 6799TIP3   OH241955   4.302   5.834   1.199  0.1076  0.0629  0.2820
 6799TIP3    H141956   4.228   5.808   1.143  0.4344 -0.1485 -0.0513
 6799TIP3    H241957   4.264   5.839   1.287 -0.5124  0.8088 -0.0094
 6800TIP3   OH241958   5.165   2.953   1.827 -0.1636 -0.2966  0.4096
 6800TIP3    H141959   5.113   2.936   1.749  0.4489 -1.1693  0.1765
 6800TIP3    H241960   5.101   2.973   1.895 -0.8173 -1.4275  0.1558
 6801TIP3   OH241961   6.124   2.423   6.475 -0.1362  0.2189  0.0730
 6801TIP3    H141962   6.113   2.354   6.409  1.5777  0.5760 -0.6515
 6801TIP3    H241963   6.043   2.420   6.526 -0.6482 -1.4575 -0.7387
 6802TIP3   OH241964   3.535   2.849   0.481  0.0778 -0.3235 -0.9299
 6802TIP3    H141965   3.608   2.875   0.425 -1.1151  0.5175 -2.1558
 6802TIP3    H241966   3.482   2.928   0.490  0.2578 -0.4117  1.5103
 6803TIP3   OH241967   6.553   4.617   7.578 -0.0815 -0.1310  0.1300
 6803TIP3    H141968   6.595   4.660   7.653  2.1336  1.3285 -1.8334
 6803TIP3    H241969   6.602   4.535   7.568  0.7589  0.4528 -0.6910
 6804TIP3   OH241970   1.642   1.610   0.793 -0.4704 -0.0090  0.7371
 6804TIP3    H141971   1.571   1.597   0.856 -0.0998 -0.2264  1.1145
 6804TIP3    H241972   1.599   1.612   0.708 -1.0332  0.7939  1.0334
 6805TIP3   OH241973   5.300   4.341   0.617 -0.1545 -0.5016  0.0474
 6805TIP3    H141974   5.332   4.297   0.538 -0.6756 -0.8782  0.0417
 6805TIP3    H241975   5.379   4.373   0.661  0.0822  0.9816 -1.3510
 6806TIP3   OH241976   5.514   5.479   7.615  0.1828 -0.1046 -0.2107
 6806TIP3    H141977   5.524   5.397   7.567 -0.1440  0.0769 -0.5960
 6806TIP3    H241978   5.576   5.472   7.688 -0.3249 -0.9815  0.1565
 6807TIP3   OH241979   5.977   5.215   8.718 -0.4411  0.5593 -0.2148
 6807TIP3    H141980   5.944   5.282   8.777 -0.7940 -0.0773  0.3334
 6807TIP3    H241981   5.906   5.151   8.712 -0.1026  0.2189 -0.6966
 6808TIP3   OH241982   4.293   2.318   8.579  0.0951  0.3114  0.3210
 6808TIP3    H141983   4.331   2.244   8.530 -0.1092  0.3393  0.1189
 6808TIP3    H241984   4.361   2.386   8.574 -0.1152  0.4843 -0.3411
 6809TIP3   OH241985   2.614   6.146   8.225  0.1944  0.0067  0.3337
 6809TIP3    H141986   2.665   6.123   8.302  1.9665  1.8816 -0.1989
 6809TIP3    H241987   2.675   6.196   8.170 -1.2049 -0.6693 -1.9657
 6810TIP3   OH241988   6.398   4.922   8.193  0.2044 -0.3249  0.3847
 6810TIP3    H141989   6.439   4.975   8.261 -0.2748  2.3222 -1.2167
 6810TIP3    H241990   6.348   4.856   8.240 -1.3482  2.2951  2.7278
 6811TIP3   OH241991   1.056   2.781   6.868  0.0524 -0.1244 -0.2739
 6811TIP3    H141992   1.142   2.740   6.861 -0.4300 -1.0629 -0.7884
 6811TIP3    H241993   1.017   2.771   6.781 -1.2742 -1.2959  0.4244
 6812TIP3   OH241994   1.636   4.603   8.035  0.1187  0.0707  0.1430
 6812TIP3    H141995   1.649   4.564   7.948 -1.4845 -1.0833  0.3937
 6812TIP3    H241996   1.659   4.695   8.023  2.4248 -0.5635 -0.8583
 6813TIP3   OH241997   5.691   4.212   7.312 -0.2244  0.0330 -0.2592
 6813TIP3    H141998   5.666   4.246   7.226 -0.4523 -0.4316 -0.3814
 6813TIP3    H241999   5.660   4.278   7.374  0.7720  0.8323 -0.5755
 6814TIP3   OH242000   0.582   2.866   0.552  0.0838  0.2486 -0.2966
 6814TIP3    H142001   0.501   2.913   0.568  0.0495 -0.2649  1.1600
 6814TIP3    H242002   0.649   2.917   0.598  0.4030  0.0422 -0.5281
 6815TIP3   OH242003   0.243   5.919   0.026 -0.1817  0.3750  0.0936
 6815TIP3    H142004   0.161   5.955  -0.007  0.0558 -0.8516 -2.0369
 6815TIP3    H242005   0.311   5.968  -0.020  0.3664  1.6993  2.1874
 6816TIP3   OH242006   5.269   4.826   6.837 -0.0368  0.2984 -0.4595
 6816TIP3    H142007   5.218   4.803   6.915  0.5584 -0.1148 -0.1771
 6816TIP3    H242008   5.316   4.746   6.815  0.2125  0.5668 -0.9259
 6817TIP3   OH242009   1.142   5.774   8.556  0.0337 -0.1840  0.3679
 6817TIP3    H142010   1.082   5.729   8.615  0.3158 -0.2206  0.6281
 6817TIP3    H242011   1.228   5.760   8.594  0.0970  0.9204  0.6805
 6818TIP3   OH242012   2.068   2.197   7.776 -0.4271  0.4253 -0.2913
 6818TIP3    H142013   1.997   2.247   7.816 -0.8847 -0.4414  0.0198
 6818TIP3    H242014   2.140   2.202   7.840 -1.6212 -2.1320  1.4319
 6819TIP3   OH242015   2.539   1.845   8.318  0.4803 -0.0985  0.0874
 6819TIP3    H142016   2.611   1.782   8.325  0.2716 -0.2068  1.6780
 6819TIP3    H242017   2.495   1.841   8.403  1.5740  3.5218  1.0047
 6820TIP3   OH242018   3.515   4.639   6.434 -0.5251 -0.2334 -0.4018
 6820TIP3    H142019   3.574   4.583   6.383 -0.1138 -0.0301 -0.1528
 6820TIP3    H242020   3.554   4.726   6.429 -0.7553 -0.1149 -0.1593
 6821TIP3   OH242021   5.965   1.912   6.243  0.3689 -0.0454 -0.4072
 6821TIP3    H142022   5.968   1.840   6.306  1.5774  1.1690  1.0127
 6821TIP3    H242023   5.967   1.870   6.158  0.6252 -1.6993  0.3756
 6822TIP3   OH242024   4.347   0.808   2.053 -0.6177  0.4642  0.1994
 6822TIP3    H142025   4.423   0.810   1.996 -1.1736 -0.9208 -0.6508
 6822TIP3    H242026   4.373   0.751   2.125 -0.4870  0.8749  0.4817
 6823TIP3   OH242027   1.045   3.927   0.284 -0.1465  0.0473 -0.5257
 6823TIP3    H142028   1.039   3.919   0.189 -0.6255 -0.0460 -0.4909
 6823TIP3    H242029   1.063   4.020   0.299  1.8249 -0.2536 -0.7790
 6824TIP3   OH242030   2.201   1.467   8.661  0.3588 -0.4028  0.2774
 6824TIP3    H142031   2.135   1.405   8.630 -0.1678  1.3571 -2.4938
 6824TIP3    H242032   2.257   1.482   8.585  1.2676  1.4754  1.2459
 6825TIP3   OH242033   5.919   4.793   1.773 -0.3603 -0.0728  0.4021
 6825TIP3    H142034   5.918   4.883   1.742  0.4649  0.5336  2.0327
 6825TIP3    H242035   5.900   4.740   1.695  0.0556  1.4458 -0.7648
 6826TIP3   OH242036   0.875   4.201   7.359 -0.1008  0.1419 -0.0148
 6826TIP3    H142037   0.826   4.254   7.422 -0.3173 -0.5786  0.4324
 6826TIP3    H242038   0.923   4.265   7.306 -0.5619  0.7942  0.3449
 6827TIP3   OH242039   4.259   5.258   7.959 -0.0450 -0.7358  0.3879
 6827TIP3    H142040   4.252   5.243   7.865  0.1664 -0.7796  0.3792
 6827TIP3    H242041   4.274   5.171   7.996  2.2717 -0.4399  0.2418
 6828TIP3   OH242042   6.221   1.413   0.155  0.3195  0.2514  0.7267
 6828TIP3    H142043   6.191   1.379   0.071  0.2904  0.9827  0.4393
 6828TIP3    H242044   6.295   1.356   0.179 -1.2266 -1.5476  1.4363
 6829TIP3   OH242045   1.376   6.322   7.380 -0.3574 -0.4064 -0.4101
 6829TIP3    H142046   1.363   6.269   7.458 -1.7789  0.3608 -0.1045
 6829TIP3    H242047   1.289   6.350   7.354  0.0987 -0.4595 -2.1600
 6830TIP3   OH242048   2.353   3.709   1.836  0.0116  0.2836  0.5922
 6830TIP3    H142049   2.318   3.664   1.912  0.7535  0.2255  0.9086
 6830TIP3    H242050   2.352   3.644   1.766 -0.9792  0.4344  0.4541
 6831TIP3   OH242051   4.698   4.203   8.502 -0.3512 -0.2954 -0.0444
 6831TIP3    H142052   4.657   4.288   8.517 -1.2059 -0.6720 -0.1530
 6831TIP3    H242053   4.659   4.146   8.568 -1.2164 -1.0320 -1.1472
 6832TIP3   OH242054   3.864   1.380   1.333  0.2738 -0.4012 -0.2032
 6832TIP3    H142055   3.859   1.348   1.424 -0.4986 -2.2750 -0.8523
 6832TIP3    H242056   3.853   1.475   1.340  1.2645 -0.3875  1.7467
 6833TIP3   OH242057   3.989   1.744   0.310  0.0540  0.1835  0.6068
 6833TIP3    H142058   3.899   1.719   0.329 -1.3031  2.0171 -2.6096
 6833TIP3    H242059   3.987   1.840   0.305  2.2725  0.2943  0.8003
 6834TIP3   OH242060   0.061   6.602   5.899  0.3326 -0.0976 -0.5851
 6834TIP3    H142061   0.021   6.687   5.882  1.2032  0.5813  0.6546
 6834TIP3    H242062   0.133   6.596   5.835  0.9015  0.5483 -0.0130
 6835TIP3   OH242063   4.510   6.305   8.631  0.1459  0.6017  0.1292
 6835TIP3    H142064   4.537   6.394   8.655  1.0956  0.5689 -0.7646
 6835TIP3    H242065   4.591   6.263   8.602 -0.5165 -0.1586 -0.6527
 6836TIP3   OH242066   6.169   5.516   7.422  0.2983 -0.2296  0.4039
 6836TIP3    H142067   6.134   5.470   7.346 -0.5726 -0.8434  1.1538
 6836TIP3    H242068   6.257   5.479   7.435 -0.2340 -1.4253  0.7532
 6837TIP3   OH242069   6.537   2.730   7.920  0.9150  0.2024 -0.1993
 6837TIP3    H142070   6.550   2.649   7.969  3.7988  0.4445 -0.3959
 6837TIP3    H242071   6.623   2.752   7.886 -0.0766  2.5654 -1.4540
 6838TIP3   OH242072   3.387   2.136   8.418 -0.3663  0.4187  0.1443
 6838TIP3    H142073   3.429   2.072   8.359  1.1051  1.4077  0.0563
 6838TIP3    H242074   3.341   2.196   8.359  1.8614  1.9501 -0.1654
 6839TIP3   OH242075   2.449   6.334   0.975  0.0452  0.5273  0.6777
 6839TIP3    H142076   2.544   6.327   0.980 -0.0837 -0.8955  2.7828
 6839TIP3    H242077   2.419   6.309   1.063 -2.3153 -0.1173 -0.2320
 6840TIP3   OH242078   1.336   1.733   1.218 -1.0697  0.4706 -0.3539
 6840TIP3    H142079   1.287   1.679   1.280  0.1733  0.0619  0.2975
 6840TIP3    H242080   1.414   1.761   1.266 -0.4153  0.7133 -1.5144
 6841TIP3   OH242081   0.492   4.310   6.492  0.1453 -0.4949 -0.1231
 6841TIP3    H142082   0.504   4.365   6.570  0.5508 -1.8774  0.8356
 6841TIP3    H242083   0.495   4.220   6.525 -0.1051 -1.1205 -1.6904
 6842TIP3   OH242084   3.982   1.429   8.476 -0.2846  0.0407  0.0221
 6842TIP3    H142085   4.007   1.393   8.561 -0.9330 -0.8135 -0.1386
 6842TIP3    H242086   3.899   1.473   8.491 -0.6991 -0.6185 -0.2766
 6843TIP3   OH242087   1.383   6.700   0.262 -0.2735  0.2839 -0.0373
 6843TIP3    H142088   1.368   6.792   0.283  0.5521  0.1978  1.0277
 6843TIP3    H242089   1.414   6.661   0.344 -0.2921 -0.8725 -0.5541
 6844TIP3   OH242090   5.737   5.918   7.351  0.3556  0.2112  0.8930
 6844TIP3    H142091   5.690   5.999   7.333 -0.0317 -0.2249 -0.1162
 6844TIP3    H242092   5.669   5.851   7.354  0.7249 -0.1497  1.2238
 6845TIP3   OH242093   2.847   6.299   7.459 -0.6213 -0.1116  0.1629
 6845TIP3    H142094   2.907   6.229   7.484 -1.8691 -1.0862  0.4947
 6845TIP3    H242095   2.848   6.360   7.533 -2.1143 -1.5314  1.4094
 6846TIP3   OH242096   1.179   2.271   8.834  0.0696  0.4253 -0.5580
 6846TIP3    H142097   1.227   2.218   8.770 -0.8147  0.0019 -0.8845
 6846TIP3    H242098   1.244   2.333   8.867  0.4304  0.9608 -2.2028
 6847TIP3   OH242099   5.444   0.153   1.194 -0.7139  0.9657 -0.5046
 6847TIP3    H142100   5.514   0.112   1.245 -2.5789 -1.3911  0.3574
 6847TIP3    H242101   5.390   0.198   1.259 -2.8819 -1.7293 -0.2527
 6848TIP3   OH242102   1.545   5.629   7.862 -0.5006 -0.6569  0.4568
 6848TIP3    H142103   1.502   5.644   7.779  0.9909 -2.5336 -0.7591
 6848TIP3    H242104   1.556   5.716   7.900 -1.9967  0.1601 -0.8658
 6849TIP3   OH242105   2.992   3.945   6.122  0.0083 -0.0703  0.1494
 6849TIP3    H142106   2.987   3.988   6.037  2.2995 -0.1165 -0.0749
 6849TIP3    H242107   2.950   4.006   6.183 -1.2083  0.1799 -0.9011
 6850TIP3   OH242108   5.912   6.716   0.704 -0.1307  0.1974  0.7097
 6850TIP3    H142109   5.923   6.644   0.642 -0.5084 -0.8069  1.7504
 6850TIP3    H242110   5.993   6.766   0.699  0.4949 -0.8084  0.5752
 6851TIP3   OH242111   5.335   2.032   1.610 -0.1169 -0.0438 -0.4110
 6851TIP3    H142112   5.344   1.961   1.674  0.3383  1.2158  0.9642
 6851TIP3    H242113   5.357   2.111   1.658 -0.0561  0.9932 -2.0661
 6852TIP3   OH242114   1.152   0.001   6.955  0.1699  0.4513  0.8952
 6852TIP3    H142115   1.121   0.021   6.866 -2.2760  4.0432  2.3039
 6852TIP3    H242116   1.101  -0.074   6.982  0.6083 -0.3971 -0.5035
 6853TIP3   OH242117   5.157   5.113   1.432 -1.0293  0.1029  0.4479
 6853TIP3    H142118   5.167   5.022   1.463 -0.3988 -0.1265 -0.3965
 6853TIP3    H242119   5.158   5.165   1.512  0.9695 -0.4378  0.8422
 6854TIP3   OH242120   3.492   2.430   0.853  0.3783  0.1345 -0.1365
 6854TIP3    H142121   3.555   2.493   0.888  0.3522 -0.1480  0.4323
 6854TIP3    H242122   3.528   2.405   0.768 -0.2989  1.9213 -1.0098
 6855TIP3   OH242123   0.528   1.944   8.394 -0.2685 -0.0628  0.9831
 6855TIP3    H142124   0.560   1.928   8.305 -0.5311 -1.0049  1.0467
 6855TIP3    H242125   0.441   1.982   8.383 -0.1528  0.1661  0.8427
 6856TIP3   OH242126   3.209   5.153   7.721  0.5752  0.0491  0.4395
 6856TIP3    H142127   3.126   5.184   7.756  0.2904 -0.0855 -0.1136
 6856TIP3    H242128   3.264   5.141   7.799  0.6111  1.6430  0.6892
 6857TIP3   OH242129   0.480   1.159   6.639 -0.2653  0.1537 -0.1628
 6857TIP3    H142130   0.480   1.221   6.712  0.1777  0.8368 -0.7168
 6857TIP3    H242131   0.445   1.210   6.565  0.7764 -0.0238 -0.8016
 6858TIP3   OH242132   3.371   1.293   7.437  0.5736 -0.4254 -0.7658
 6858TIP3    H142133   3.399   1.354   7.368 -1.7132 -0.5041 -1.8407
 6858TIP3    H242134   3.404   1.331   7.518  2.8318 -0.0090 -1.7958
 6859TIP3   OH242135   1.573   0.374   6.389  0.3419  0.2367  0.6654
 6859TIP3    H142136   1.525   0.432   6.331  1.7690  1.5299  0.7295
 6859TIP3    H242137   1.624   0.319   6.330 -1.4405 -1.4508  0.5747
 6860TIP3   OH242138   2.632   5.351   7.009 -0.2421  0.2859 -0.3641
 6860TIP3    H142139   2.696   5.280   7.012 -0.7480 -0.1634  0.0632
 6860TIP3    H242140   2.654   5.400   6.930  0.3024 -0.1695 -0.4998
 6861TIP3   OH242141   3.709   5.140   0.898 -0.0031 -0.0148  0.0014
 6861TIP3    H142142   3.771   5.086   0.947  0.0983  0.7329  0.7129
 6861TIP3    H242143   3.624   5.122   0.939 -0.3459 -1.2774 -1.1704
 6862TIP3   OH242144   5.967   2.196   1.524  0.7131  0.8721 -0.4812
 6862TIP3    H142145   6.020   2.168   1.449 -0.9041  0.5744 -1.5811
 6862TIP3    H242146   6.029   2.204   1.596  2.1914  0.2899 -1.6318
 6863TIP3   OH242147   0.107   4.621   1.733 -0.5323  0.3198  0.2553
 6863TIP3    H142148   0.036   4.574   1.776 -0.6791 -0.4641 -0.8111
 6863TIP3    H242149   0.185   4.600   1.785 -0.9438  0.5913  0.9958
 6864TIP3   OH242150   1.035   2.896   8.036  0.0852  0.1578  0.1913
 6864TIP3    H142151   1.048   2.832   7.966 -1.4666  1.5275 -1.4568
 6864TIP3    H242152   1.033   2.980   7.990  1.1292  1.3265  2.1761
 6865TIP3   OH242153   4.969   2.872   2.047  0.7918 -0.0340  0.5735
 6865TIP3    H142154   5.054   2.869   2.090  0.6934  2.4896  1.1077
 6865TIP3    H242155   4.958   2.963   2.022 -0.9319 -0.6714 -1.2553
 6866TIP3   OH242156   5.050   4.569   7.923 -0.0206 -0.1536 -0.5746
 6866TIP3    H142157   4.962   4.605   7.920  0.1164  0.1309 -1.3531
 6866TIP3    H242158   5.106   4.643   7.944 -0.0816 -0.5729  1.2324
 6867TIP3   OH242159   1.156   3.748   7.375 -0.0209 -0.1829  0.0032
 6867TIP3    H142160   1.169   3.835   7.414 -0.4281 -0.3468  0.5170
 6867TIP3    H242161   1.229   3.739   7.314 -0.0606  0.5854 -0.1760
 6868TIP3   OH242162   1.309   2.952   1.086 -0.0907  0.2835  0.2068
 6868TIP3    H142163   1.260   3.026   1.049 -1.8290 -0.3053  1.2606
 6868TIP3    H242164   1.329   2.979   1.176  0.3111 -0.0677  0.2288
 6869TIP3   OH242165   2.905   1.256   7.040 -0.3694  0.1402 -0.2725
 6869TIP3    H142166   2.882   1.347   7.021  0.2727  1.5366  4.3940
 6869TIP3    H242167   2.829   1.221   7.086 -0.0423 -1.2596 -0.7530
 6870TIP3   OH242168   2.922   4.302   7.588  0.1357 -0.0156 -0.3116
 6870TIP3    H142169   2.866   4.236   7.547 -0.7666 -0.1967  1.1149
 6870TIP3    H242170   2.867   4.380   7.593 -0.3504 -0.4156  1.7945
 6871TIP3   OH242171   5.645   2.759   8.277  0.0706 -0.0377 -0.3996
 6871TIP3    H142172   5.565   2.766   8.226 -1.9817 -1.3264  2.3978
 6871TIP3    H242173   5.689   2.680   8.244  1.3180  1.7013 -3.2345
 6872TIP3   OH242174   2.331   5.454   0.998  0.2929  0.1456 -0.0231
 6872TIP3    H142175   2.387   5.392   1.045  0.4067  0.1995 -0.0864
 6872TIP3    H242176   2.386   5.532   0.987  0.0217  0.3956  0.3959
 6873TIP3   OH242177   6.099   4.111   1.816 -0.0144 -0.2554 -0.0151
 6873TIP3    H142178   6.045   4.190   1.811 -0.5081 -0.4799  1.3151
 6873TIP3    H242179   6.175   4.136   1.868  0.8390 -0.1443 -1.2621
 6874TIP3   OH242180   6.423   6.572   6.587 -0.0769 -0.0076 -0.0634
 6874TIP3    H142181   6.376   6.502   6.541  0.2019 -0.6972  0.6816
 6874TIP3    H242182   6.496   6.594   6.529 -0.1346 -0.3639 -0.2760
 6875TIP3   OH242183   2.329   2.827   6.575 -0.9541  0.0836  0.0958
 6875TIP3    H142184   2.359   2.901   6.521  3.0403 -2.3930 -1.5257
 6875TIP3    H242185   2.316   2.865   6.662  2.9028  2.5297 -0.1457
 6876TIP3   OH242186   0.727   2.397   7.250 -0.0215 -0.1316  0.2696
 6876TIP3    H142187   0.680   2.427   7.328 -0.1567  1.8029 -0.4985
 6876TIP3    H242188   0.777   2.473   7.222  1.3416 -1.3102 -0.5883
 6877TIP3   OH242189   1.384   3.833   0.668  0.2792 -0.0183 -0.4677
 6877TIP3    H142190   1.444   3.860   0.738 -0.7495  0.1385  0.3776
 6877TIP3    H242191   1.385   3.906   0.606 -0.1605  0.6427  0.2840
 6878TIP3   OH242192   0.758   3.068   1.294  0.2585 -0.0434 -0.1938
 6878TIP3    H142193   0.743   2.973   1.290 -1.6597  0.2275 -0.4768
 6878TIP3    H242194   0.761   3.087   1.388 -5.6545  0.3194  0.3098
 6879TIP3   OH242195   1.520   4.134   6.532 -0.0689 -0.4896 -0.1113
 6879TIP3    H142196   1.468   4.083   6.594  0.8743 -0.8427  0.4224
 6879TIP3    H242197   1.573   4.192   6.588  0.6072 -0.6319 -0.5904
 6880TIP3   OH242198   4.257   2.967   8.277  0.3880  0.1319  0.5099
 6880TIP3    H142199   4.181   2.922   8.241  0.8584 -0.2370 -0.0467
 6880TIP3    H242200   4.295   2.905   8.339 -1.4451  1.4187  3.1421
 6881TIP3   OH242201   4.108   5.758   1.017  0.6367  0.0513 -0.1451
 6881TIP3    H142202   4.042   5.789   1.080  0.9741 -0.0321  0.2523
 6881TIP3    H242203   4.057   5.726   0.943  0.1854 -0.9412  0.5792
 6882TIP3   OH242204   4.883   6.713   8.616 -0.0904 -0.3659  0.1879
 6882TIP3    H142205   4.955   6.669   8.662 -0.7636 -1.0507  0.5995
 6882TIP3    H242206   4.840   6.644   8.566  0.0496  0.2003 -0.7496
 6883TIP3   OH242207   0.147   1.285   0.082  0.4907  0.2041  0.2017
 6883TIP3    H142208   0.081   1.345   0.117  1.1709  1.1533 -0.0894
 6883TIP3    H242209   0.098   1.208   0.056 -0.3201  0.3504  1.2206
 6884TIP3   OH242210   2.635   5.738   8.564 -0.6292  0.3697 -0.4345
 6884TIP3    H142211   2.648   5.665   8.504  0.0776 -0.9900  1.2787
 6884TIP3    H242212   2.565   5.790   8.525 -0.4929 -0.6924 -2.1774
 6885TIP3   OH242213   3.965   4.045   6.549 -0.7284 -0.2692 -0.0537
 6885TIP3    H142214   3.975   4.088   6.634 -0.4656 -1.4943  0.5560
 6885TIP3    H242215   4.051   4.008   6.531  0.2652  2.7249 -2.4721
 6886TIP3   OH242216   1.911   1.167   0.650 -0.1158 -0.0418 -0.3160
 6886TIP3    H142217   1.975   1.238   0.657 -1.0115  0.7054  0.6658
 6886TIP3    H242218   1.933   1.122   0.569  1.9464 -0.1100  0.2233
 6887TIP3   OH242219   0.359   0.644   1.393  0.0195  0.3930 -0.1607
 6887TIP3    H142220   0.378   0.728   1.435  1.0883  0.3156 -0.4485
 6887TIP3    H242221   0.264   0.635   1.400  0.0188  0.9965  1.0663
 6888TIP3   OH242222   3.444   6.755   8.226 -0.2294 -0.0712  0.4529
 6888TIP3    H142223   3.443   6.771   8.132  0.5246 -0.8709  0.2998
 6888TIP3    H242224   3.393   6.828   8.263 -0.3110  0.3936 -0.5395
 6889TIP3   OH242225   3.304   5.652   5.882 -0.3140  0.0529  0.6404
 6889TIP3    H142226   3.329   5.600   5.805  0.0043  0.7588  0.2539
 6889TIP3    H242227   3.210   5.637   5.891 -0.4056  0.1519 -0.0433
 6890TIP3   OH242228   5.937   4.242   7.272  0.6068  0.2042  0.5064
 6890TIP3    H142229   5.974   4.189   7.342 -1.2798 -0.0925  1.3268
 6890TIP3    H242230   5.842   4.233   7.281  0.2142  2.7542 -0.0495
 6891TIP3   OH242231   3.487   6.066   0.371  0.4793  0.1803  0.3500
 6891TIP3    H142232   3.509   6.150   0.412  2.5791 -0.0539 -0.1426
 6891TIP3    H242233   3.394   6.055   0.386  0.7622  1.0337  3.3518
 6892TIP3   OH242234   5.165   0.382   7.996  0.2381  0.0921 -0.2227
 6892TIP3    H142235   5.130   0.406   7.910 -1.6508  0.5152  0.6164
 6892TIP3    H242236   5.105   0.314   8.028  0.8972 -0.0390  0.7729
 6893TIP3   OH242237   2.651   5.953   0.617  0.4757 -0.2456 -0.4209
 6893TIP3    H142238   2.660   6.031   0.562  0.1364 -0.2158 -0.4309
 6893TIP3    H242239   2.672   5.880   0.557  1.0830 -0.1480 -0.3376
 6894TIP3   OH242240   3.331   6.338   1.199  0.1183 -0.4653  0.2477
 6894TIP3    H142241   3.332   6.366   1.291  0.4028 -1.1112  0.4549
 6894TIP3    H242242   3.266   6.267   1.197 -0.7226  0.3119 -0.2961
 6895TIP3   OH242243   1.333   4.791   6.573  0.2468  0.2374  0.0933
 6895TIP3    H142244   1.293   4.861   6.522  0.7790 -0.7055 -1.7299
 6895TIP3    H242245   1.263   4.726   6.582  0.6288 -0.3772 -1.0593
 6896TIP3   OH242246   0.929   0.590   0.113 -0.0548  0.1666 -0.5388
 6896TIP3    H142247   0.960   0.666   0.065  1.4675 -1.5306 -2.3736
 6896TIP3    H242248   0.914   0.623   0.202 -1.5260  3.0624 -1.6992
 6897TIP3   OH242249   3.863   3.445   6.112 -0.6067 -0.0964  0.2540
 6897TIP3    H142250   3.880   3.467   6.020  0.3510  1.2653  0.7285
 6897TIP3    H242251   3.946   3.410   6.144 -1.1094 -1.1594  0.4723
 6898TIP3   OH242252   4.144   0.078   2.185 -0.3381  0.6946  0.1221
 6898TIP3    H142253   4.158   0.131   2.264  0.0449  0.1914  0.3956
 6898TIP3    H242254   4.054   0.045   2.195 -0.6235  1.3838 -0.1090
 6899TIP3   OH242255   4.351   1.878   0.294  0.5906  0.3093  0.3013
 6899TIP3    H142256   4.323   1.835   0.375  1.4907 -1.5894 -0.3385
 6899TIP3    H242257   4.406   1.813   0.250  0.3666  1.4032 -1.7039
 6900TIP3   OH242258   4.476   0.457   0.029  0.0440  0.1129  0.1316
 6900TIP3    H142259   4.392   0.486  -0.007  0.1860  0.1229 -0.1973
 6900TIP3    H242260   4.452   0.395   0.098 -0.2732  1.2362  1.0615
 6901TIP3   OH242261   1.890   6.296   8.817 -0.7768 -0.1112 -0.2139
 6901TIP3    H142262   1.827   6.233   8.853 -1.5062  0.6888 -0.0499
 6901TIP3    H242263   1.895   6.274   8.724 -0.1682 -1.1193  0.0402
 6902TIP3   OH242264   6.689   2.512   0.049 -1.3522  0.5388 -0.0195
 6902TIP3    H142265   6.700   2.591   0.102 -0.5427  0.4061  0.0180
 6902TIP3    H242266   6.597   2.487   0.062 -1.1896  0.5502  1.2759
 6903TIP3   OH242267   4.774   4.653   0.335  0.2374  0.1079  0.0924
 6903TIP3    H142268   4.868   4.663   0.350  0.2612 -1.0346  0.8084
 6903TIP3    H242269   4.767   4.602   0.254  0.1854  1.2294 -0.6479
 6904TIP3   OH242270   1.044   3.790   8.415  0.1530  0.0471 -0.5477
 6904TIP3    H142271   1.129   3.794   8.459 -0.1925  0.0298  0.1291
 6904TIP3    H242272   1.022   3.697   8.416 -0.9093  0.2680  1.3173
 6905TIP3   OH242273   1.728   2.166   7.910  0.6429 -0.4059 -0.2707
 6905TIP3    H142274   1.743   2.080   7.950  1.6853  0.7360  2.0456
 6905TIP3    H242275   1.720   2.225   7.985 -1.2352  1.3655 -1.7680
 6906TIP3   OH242276   1.995   1.860   8.798 -0.8309 -0.3530 -0.6600
 6906TIP3    H142277   1.937   1.845   8.873 -0.1303  0.8811  0.1606
 6906TIP3    H242278   2.062   1.793   8.805 -0.8239 -0.3017 -0.2354
 6907TIP3   OH242279   6.086   3.270   7.598  0.2109  0.4682 -0.4126
 6907TIP3    H142280   6.160   3.257   7.658 -0.6133 -1.7646  0.2040
 6907TIP3    H242281   6.114   3.342   7.542  2.3443  0.5071  0.5947
 6908TIP3   OH242282   6.048   2.520   8.257 -0.4021  0.6538 -0.4061
 6908TIP3    H142283   6.084   2.455   8.318 -0.2040  1.7952  0.7263
 6908TIP3    H242284   5.953   2.514   8.269 -0.4001  0.4063 -0.4974
 6909TIP3   OH242285   3.175   5.375   1.614  0.1711  0.3210  0.0360
 6909TIP3    H142286   3.158   5.282   1.600 -0.6433  0.5540 -0.6404
 6909TIP3    H242287   3.089   5.412   1.633  0.2734  1.1380 -0.9710
 6910TIP3   OH242288   5.106   4.897   8.364 -0.1514 -0.3157  0.0875
 6910TIP3    H142289   5.087   4.951   8.287  1.0614 -0.2976 -0.2316
 6910TIP3    H242290   5.097   4.807   8.333  0.7729 -0.3137 -0.2130
 6911TIP3   OH242291   1.211   2.719   8.799 -0.2781 -0.4004 -0.0525
 6911TIP3    H142292   1.211   2.642   8.743 -1.6373 -1.8606  1.8354
 6911TIP3    H242293   1.152   2.780   8.756 -2.2541 -1.9674  0.3130
 6912TIP3   OH242294   5.040   3.756   1.732 -0.0060 -0.0107 -0.0856
 6912TIP3    H142295   5.056   3.710   1.650  0.6677 -0.1081  0.0972
 6912TIP3    H242296   5.055   3.848   1.712  0.4299 -0.0623 -0.0101
 6913TIP3   OH242297   5.573   0.977   1.136 -0.0756 -0.1041 -0.5210
 6913TIP3    H142298   5.622   0.978   1.054 -0.3921  0.3341 -0.7072
 6913TIP3    H242299   5.512   0.904   1.127  0.2315 -0.3691 -0.4705
 6914TIP3   OH242300   2.245   4.269   1.408 -0.3256 -0.5856 -0.2639
 6914TIP3    H142301   2.225   4.353   1.450 -0.4526 -0.2355 -1.0228
 6914TIP3    H242302   2.186   4.207   1.451  1.1136 -0.6975  1.7197
 6915TIP3   OH242303   1.840   3.925   0.199  0.4942 -0.0647  0.3029
 6915TIP3    H142304   1.885   4.006   0.227  0.9382 -0.8884  2.1124
 6915TIP3    H242305   1.893   3.855   0.235  0.9745 -1.2932 -2.5206
 6916TIP3   OH242306   3.824   4.080   1.101  0.1131 -0.2449 -0.4843
 6916TIP3    H142307   3.903   4.087   1.154  1.2710 -0.6793 -2.0896
 6916TIP3    H242308   3.762   4.031   1.155  1.2360 -0.6551  0.4519
 6917TIP3   OH242309   4.727   0.552   6.816 -0.1593  0.0765  0.3137
 6917TIP3    H142310   4.692   0.619   6.875  1.3313  1.6821 -0.5494
 6917TIP3    H242311   4.733   0.596   6.731 -0.6733 -1.6750 -0.6690
 6918TIP3   OH242312   0.614   4.559   8.822  0.5550  0.0823 -0.4306
 6918TIP3    H142313   0.531   4.511   8.824  1.1205 -0.9662 -1.2826
 6918TIP3    H242314   0.588   4.651   8.815 -0.5425 -0.1011  0.8496
 6919TIP3   OH242315   3.964   5.412   6.710 -0.4126  0.2316  0.8236
 6919TIP3    H142316   4.055   5.386   6.693 -1.3247 -2.1757 -1.0427
 6919TIP3    H242317   3.954   5.496   6.664  1.1182  1.1861  2.1123
 6920TIP3   OH242318   3.047   6.515   0.903  0.4449 -0.2880 -0.0433
 6920TIP3    H142319   3.123   6.462   0.878  0.9307 -0.8049  2.3012
 6920TIP3    H242320   3.012   6.472   0.981 -0.2643  1.8133  0.8699
 6921TIP3   OH242321   3.337   3.581   0.923 -0.4361 -0.1179 -0.3287
 6921TIP3    H142322   3.315   3.627   0.842  1.4419  0.0750 -0.7853
 6921TIP3    H242323   3.421   3.539   0.904  0.3237  0.3939  1.7010
 6922TIP3   OH242324   5.018   2.849   1.166  0.2837  0.0859  0.0625
 6922TIP3    H142325   5.035   2.796   1.088  0.3785 -1.0390  0.8215
 6922TIP3    H242326   5.086   2.916   1.165  0.4182 -0.0604 -0.7155
 6923TIP3   OH242327   2.638   1.319   0.684  0.1558  0.6387  0.0407
 6923TIP3    H142328   2.595   1.388   0.735 -0.7182  0.2540 -0.1594
 6923TIP3    H242329   2.704   1.364   0.633 -0.5356  1.3624 -0.2317
 6924TIP3   OH242330   3.577   3.648   0.367 -0.0892 -0.9612 -0.3404
 6924TIP3    H142331   3.669   3.639   0.394 -0.1843 -1.0261 -0.0301
 6924TIP3    H242332   3.531   3.580   0.416 -0.1651 -1.5384 -1.1917
 6925TIP3   OH242333   4.546   4.913   0.088  0.2682 -0.3132  0.4227
 6925TIP3    H142334   4.553   4.854   0.012  1.1731 -2.0933  1.7970
 6925TIP3    H242335   4.636   4.924   0.118 -0.0631  0.5051  1.1539
 6926TIP3   OH242336   6.256   2.081   7.631 -0.0937  0.0026 -0.4355
 6926TIP3    H142337   6.258   2.081   7.536  1.9753 -1.1063 -0.4373
 6926TIP3    H242338   6.202   2.157   7.654 -0.3996  0.4477 -2.4679
 6927TIP3   OH242339   4.478   3.196   8.714  0.4425  0.2919 -0.0166
 6927TIP3    H142340   4.491   3.271   8.772  2.2141  0.0681 -0.0535
 6927TIP3    H242341   4.536   3.213   8.639  1.5370 -1.4505  0.3567
 6928TIP3   OH242342   3.974   2.359   0.920  0.1397  0.0938  0.0055
 6928TIP3    H142343   4.044   2.325   0.864 -0.0083  0.6843 -0.5500
 6928TIP3    H242344   4.015   2.371   1.005  0.0538 -2.0315  0.4139
 6929TIP3   OH242345   1.789   4.468   6.443 -0.0207  0.0048  0.1110
 6929TIP3    H142346   1.741   4.486   6.362 -1.2084 -1.8304  0.3375
 6929TIP3    H242347   1.722   4.473   6.512  1.0671  2.0657  1.1074
 6930TIP3   OH242348   0.323   4.409   7.482 -0.4838 -0.2483  0.4871
 6930TIP3    H142349   0.384   4.335   7.472 -0.5198 -0.1656 -0.4134
 6930TIP3    H242350   0.286   4.397   7.569 -0.2157 -1.0925  0.4988
 6931TIP3   OH242351   0.122   0.725   8.809  0.2527 -0.9520 -0.2498
 6931TIP3    H142352   0.110   0.687   8.897  0.5331  0.8071  0.5871
 6931TIP3    H242353   0.119   0.819   8.824  1.1285 -0.6214 -2.0427
 6932TIP3   OH242354   6.104   1.431   0.408  0.4628 -0.1954 -0.5072
 6932TIP3    H142355   6.156   1.398   0.334  1.5554  1.5020 -0.5520
 6932TIP3    H242356   6.033   1.481   0.368  2.5206  2.9824 -0.5692
 6933TIP3   OH242357   4.671   6.270   6.524  0.4714 -0.3217  0.9688
 6933TIP3    H142358   4.658   6.329   6.599 -1.0233 -0.6927  1.0378
 6933TIP3    H242359   4.663   6.327   6.448 -4.4229 -0.7346  0.8533
 6934TIP3   OH242360   1.557   3.917   0.284  0.1185 -0.3387  0.1126
 6934TIP3    H142361   1.649   3.915   0.255 -0.2685 -1.2402 -1.1383
 6934TIP3    H242362   1.549   3.840   0.340 -0.9650 -3.1817 -3.5561
 6935TIP3   OH242363   5.047   4.877   7.287 -0.2035 -0.2461  0.3863
 6935TIP3    H142364   5.105   4.945   7.253 -0.9892 -0.0740 -0.6619
 6935TIP3    H242365   5.103   4.801   7.299  0.2993  0.0107 -0.2985
 6936TIP3   OH242366   4.980   2.924   0.140  0.0147  0.3637  0.0170
 6936TIP3    H142367   5.048   2.858   0.125 -1.1622 -0.8417 -0.2283
 6936TIP3    H242368   4.999   2.959   0.227 -0.3132 -1.5668  0.9178
 6937TIP3   OH242369   3.521   4.002   1.419 -0.0036 -0.0220 -0.5055
 6937TIP3    H142370   3.608   3.978   1.390 -0.2018  0.0981 -1.2093
 6937TIP3    H242371   3.536   4.073   1.482  0.6403 -2.3661  2.1945
 6938TIP3   OH242372   6.611   4.462   7.089  0.0667  0.2953  0.6116
 6938TIP3    H142373   6.654   4.388   7.132  1.1108 -0.1844 -1.1557
 6938TIP3    H242374   6.638   4.455   6.997 -2.0361  1.2795 -0.1392
 6939TIP3   OH242375   0.250   1.270   8.437 -0.2973 -0.5962 -0.0263
 6939TIP3    H142376   0.309   1.195   8.448 -0.1007 -0.6553 -1.3429
 6939TIP3    H242377   0.165   1.237   8.466  0.1957 -0.6499  1.4515
 6940TIP3   OH242378   4.698   1.484   0.728 -0.4527 -0.1976  0.3628
 6940TIP3    H142379   4.768   1.419   0.713 -1.6998 -1.4818 -0.1035
 6940TIP3    H242380   4.625   1.432   0.762 -0.4931  1.4354  2.9932
 6941TIP3   OH242381   3.495   5.930   7.375  0.2887 -0.1577 -0.3826
 6941TIP3    H142382   3.586   5.923   7.344  0.1676 -1.9431 -0.4700
 6941TIP3    H242383   3.488   5.863   7.443 -0.4782  1.2232  0.9655
 6942TIP3   OH242384   2.801   2.800   6.633  0.5134  0.2467 -0.2732
 6942TIP3    H142385   2.748   2.721   6.640  1.1439 -0.1136  0.5750
 6942TIP3    H242386   2.737   2.870   6.619 -0.2412 -0.1132  1.1637
 6943TIP3   OH242387   3.226   1.197   0.798 -0.1027 -0.1333 -0.0065
 6943TIP3    H142388   3.185   1.184   0.884  1.2787  1.1370  0.8899
 6943TIP3    H242389   3.297   1.133   0.795  0.8063  0.8276  0.4658
 6944TIP3   OH242390   4.573   5.260   7.898  0.2400  0.0938  0.1795
 6944TIP3    H142391   4.566   5.321   7.971  1.8950 -1.2451  1.5570
 6944TIP3    H242392   4.543   5.309   7.822  1.6074  2.6715  1.1899
 6945TIP3   OH242393   0.456   2.290   1.517 -0.0228 -0.3058  0.4672
 6945TIP3    H142394   0.438   2.326   1.430  0.9440 -0.7783  0.0547
 6945TIP3    H242395   0.438   2.362   1.577 -0.2588  0.1704 -0.1640
 6946TIP3   OH242396   4.220   3.433   8.289  0.2584 -0.1885  0.2521
 6946TIP3    H142397   4.262   3.500   8.343  1.1717 -0.4947 -0.0528
 6946TIP3    H242398   4.260   3.443   8.202  1.0588 -1.6501  0.4025
 6947TIP3   OH242399   3.837   3.368   2.062 -0.2751  0.1925  0.2617
 6947TIP3    H142400   3.812   3.280   2.092 -0.7199  0.1892 -0.0937
 6947TIP3    H242401   3.782   3.427   2.114 -0.3714  0.2303  0.1187
 6948TIP3   OH242402   0.990   5.854   6.720 -1.0066 -0.0987 -0.1674
 6948TIP3    H142403   1.001   5.836   6.626  0.4358  0.5199 -0.1390
 6948TIP3    H242404   0.895   5.864   6.731 -1.1063  1.1706 -1.8255
 6949TIP3   OH242405   0.835   5.712   7.109 -0.7504 -0.2918 -0.2883
 6949TIP3    H142406   0.923   5.681   7.131 -0.8494  0.8267  1.9383
 6949TIP3    H242407   0.783   5.695   7.188 -2.3433 -0.1359 -1.2517
 6950TIP3   OH242408   5.294   5.671   1.286 -0.1170 -0.1604 -0.3157
 6950TIP3    H142409   5.332   5.591   1.324 -1.0529 -0.6794 -0.4474
 6950TIP3    H242410   5.222   5.694   1.344  1.7700  2.2153  1.3178
 6951TIP3   OH242411   0.966   0.765   0.339 -0.0165 -0.3251 -0.4101
 6951TIP3    H142412   0.887   0.809   0.310  0.8814  0.6686 -1.4439
 6951TIP3    H242413   1.011   0.829   0.394  0.6508 -0.4219 -0.8305
 6952TIP3   OH242414   5.978   6.696   6.238 -0.3620 -0.0678  0.3469
 6952TIP3    H142415   6.051   6.758   6.245 -0.7885  0.7903 -1.8020
 6952TIP3    H242416   5.989   6.638   6.313  1.5877  1.0093  0.9929
 6953TIP3   OH242417   1.251   1.818   8.086  0.1556  0.5740  0.4565
 6953TIP3    H142418   1.173   1.842   8.035  1.0062 -1.1975 -1.8399
 6953TIP3    H242419   1.318   1.879   8.057  0.2248  0.6271  0.7231
 6954TIP3   OH242420   6.104   1.861   7.942  0.1980 -0.6071 -0.3274
 6954TIP3    H142421   6.136   1.836   7.855 -0.4225  0.5322 -0.9082
 6954TIP3    H242422   6.032   1.801   7.959 -1.1522  0.5571 -1.6152
 6955TIP3   OH242423   0.296   0.070   5.782  0.2622 -0.1360  0.0921
 6955TIP3    H142424   0.383   0.104   5.803  1.0754 -0.6281 -2.1136
 6955TIP3    H242425   0.311  -0.023   5.763 -0.8138 -0.3184  0.0724
 6956TIP3   OH242426   0.939   1.948   7.308  0.3468 -0.3172  0.7043
 6956TIP3    H142427   0.978   1.864   7.330  1.7178  0.2003  0.3925
 6956TIP3    H242428   1.012   2.000   7.275 -0.7927  0.4014 -0.8200
 6957TIP3   OH242429   4.411   1.107   1.258  0.2895  0.4780 -0.3412
 6957TIP3    H142430   4.348   1.103   1.329 -1.1558  0.1831 -1.5921
 6957TIP3    H242431   4.485   1.156   1.294 -0.4888  0.5311  1.2642
 6958TIP3   OH242432   0.442   2.860   8.290  0.5556  0.3651 -0.1395
 6958TIP3    H142433   0.427   2.842   8.383  0.9434  1.1452  0.0815
 6958TIP3    H242434   0.472   2.776   8.254  0.6839  0.1336  0.4953
 6959TIP3   OH242435   4.994   0.538   7.035  0.1029 -0.8070  0.0246
 6959TIP3    H142436   4.941   0.605   6.992 -1.6451 -1.9994  0.2043
 6959TIP3    H242437   4.972   0.547   7.128  1.6361 -0.1592  0.3672
 6960TIP3   OH242438   6.227   6.304   7.241 -0.5764 -0.0841 -0.5110
 6960TIP3    H142439   6.274   6.247   7.301 -2.3940 -2.3257 -1.0575
 6960TIP3    H242440   6.197   6.377   7.295  3.7696  1.8034 -0.2575
 6961TIP3   OH242441   2.098   3.021   8.402  0.0944  0.1734  0.3183
 6961TIP3    H142442   2.158   2.983   8.466  1.2414  0.3366 -0.6206
 6961TIP3    H242443   2.022   3.049   8.454 -0.2323 -2.1645  1.2200
 6962TIP3   OH242444   0.793   1.408   0.817  0.7026 -0.3065 -0.1455
 6962TIP3    H142445   0.719   1.422   0.877  0.3037 -1.5614 -0.3028
 6962TIP3    H242446   0.793   1.485   0.761  0.3998  0.3790  0.7672
 6963TIP3   OH242447   4.972   0.121   6.653  0.2248 -0.4293 -0.3329
 6963TIP3    H142448   4.956   0.190   6.588  1.2520  0.2586  0.1008
 6963TIP3    H242449   4.976   0.168   6.736 -1.1594 -1.3106  0.2645
 6964TIP3   OH242450   1.922   1.573   0.822  0.4829  0.0754 -0.1661
 6964TIP3    H142451   1.828   1.584   0.809  0.8379  2.2789 -1.4177
 6964TIP3    H242452   1.930   1.534   0.909 -1.5448  1.7225  0.8664
 6965TIP3   OH242453   6.409   0.384   0.231  0.1325 -0.3474  0.0714
 6965TIP3    H142454   6.385   0.470   0.266  0.4465  0.1907 -0.9774
 6965TIP3    H242455   6.497   0.369   0.266 -0.3291 -0.7284  1.0976
 6966TIP3   OH242456   0.255   2.567   1.448  0.5627 -0.0294  0.4316
 6966TIP3    H142457   0.277   2.526   1.364 -1.9664 -1.8811  0.5721
 6966TIP3    H242458   0.323   2.537   1.508  0.7755 -1.1032 -0.3137
 6967TIP3   OH242459   6.436   6.397   6.214 -0.3628  0.4852  0.0367
 6967TIP3    H142460   6.433   6.491   6.229  1.9898  0.5800  0.2829
 6967TIP3    H242461   6.410   6.358   6.298  0.9334  0.9673  0.6953
 6968TIP3   OH242462   2.144   4.911   6.999 -0.6170  0.1614  0.1107
 6968TIP3    H142463   2.062   4.864   6.985 -0.6387  0.5814 -1.3481
 6968TIP3    H242464   2.119   4.987   7.052 -1.4264  0.8891 -1.2234
 6969TIP3   OH242465   2.203   6.351   8.719  0.1679 -0.3709 -0.5576
 6969TIP3    H142466   2.137   6.349   8.650  0.2477 -0.5381 -0.6290
 6969TIP3    H242467   2.258   6.275   8.702 -0.2046 -0.7937  0.0762
 6970TIP3   OH242468   5.006   1.671   2.055 -0.6757 -0.4274  0.2806
 6970TIP3    H142469   4.946   1.684   2.129 -2.5070 -0.5368 -1.1004
 6970TIP3    H242470   5.004   1.576   2.040  0.1584 -0.4759  0.4514
 6971TIP3   OH242471   4.801   0.986   8.217 -0.2009 -0.3442 -0.5483
 6971TIP3    H142472   4.788   1.075   8.185  0.3169 -0.7053 -1.8100
 6971TIP3    H242473   4.854   0.943   8.150 -0.9381 -1.7771 -0.2630
 6972TIP3   OH242474   5.893   4.943   7.188 -0.1695  0.0310  0.2157
 6972TIP3    H142475   5.847   5.005   7.132  0.1905  1.3547  1.3357
 6972TIP3    H242476   5.825   4.900   7.239 -0.5564 -1.5649 -1.5165
 6973TIP3   OH242477   3.294   6.330   0.844  0.2228  0.0129 -0.4583
 6973TIP3    H142478   3.294   6.294   0.755 -0.3712 -0.9387 -0.0863
 6973TIP3    H242479   3.309   6.255   0.901  0.7852  0.6422  0.2542
 6974TIP3   OH242480   5.252   5.755   2.211 -0.5621  0.0799  0.3230
 6974TIP3    H142481   5.290   5.798   2.134 -0.5085 -1.9004 -0.8431
 6974TIP3    H242482   5.291   5.800   2.286  0.7284  0.9438 -0.8248
 6975TIP3   OH242483   3.853   3.544   5.835 -0.1258 -0.8947 -0.2125
 6975TIP3    H142484   3.898   3.615   5.882 -0.0006 -1.7297  0.9461
 6975TIP3    H242485   3.849   3.576   5.744  1.6539 -0.2354 -0.1063
 6976TIP3   OH242486   0.406   2.205   1.101 -0.1095  0.3665 -1.0798
 6976TIP3    H142487   0.330   2.223   1.046 -0.2780  0.3282 -0.8611
 6976TIP3    H242488   0.473   2.175   1.040  0.2244  1.8234 -1.4791
 6977TIP3   OH242489   0.236   3.313   8.675 -0.0386 -0.0641  0.1207
 6977TIP3    H142490   0.190   3.377   8.621  0.1429 -0.9544 -1.1367
 6977TIP3    H242491   0.320   3.354   8.696 -0.5333  0.7077  0.6243
 6978TIP3   OH242492   0.087   4.671   1.221  0.3857  0.6191 -0.2437
 6978TIP3    H142493   0.044   4.620   1.290 -0.3181  1.1199 -0.2957
 6978TIP3    H242494   0.149   4.611   1.182 -0.0981 -0.0590  0.0098
 6979TIP3   OH242495   5.972   4.833   0.661 -0.4094 -0.4246  0.2884
 6979TIP3    H142496   5.883   4.832   0.696 -1.0658  0.5360 -1.2624
 6979TIP3    H242497   5.961   4.819   0.567  0.7531  2.9248 -0.4823
 6980TIP3   OH242498   1.187   1.030   7.728 -0.0130  0.4144  0.0743
 6980TIP3    H142499   1.265   1.006   7.778 -0.8389 -1.5725  0.4983
 6980TIP3    H242500   1.219   1.049   7.640  0.7900 -2.1900 -0.2593
 6981TIP3   OH242501   4.278   3.000   0.381  0.2656 -0.2768 -0.2381
 6981TIP3    H142502   4.218   2.929   0.357 -1.7919  0.7609  1.4992
 6981TIP3    H242503   4.251   3.074   0.326 -0.7910  0.4816  1.2302
 6982TIP3   OH242504   1.651   1.409   7.091  0.3258 -0.2049  0.7314
 6982TIP3    H142505   1.586   1.340   7.075 -0.4915  0.5763  0.6452
 6982TIP3    H242506   1.618   1.457   7.166  0.1346  0.9922 -0.0835
 6983TIP3   OH242507   3.958   2.824   0.014 -0.3530  0.1478 -0.5805
 6983TIP3    H142508   4.027   2.813   0.080 -3.4768 -0.1452  3.0212
 6983TIP3    H242509   3.959   2.741  -0.035  0.9121 -0.4476  0.3889
 6984TIP3   OH242510   2.257   3.236   8.195 -0.0627 -0.1356 -0.4520
 6984TIP3    H142511   2.250   3.170   8.264  3.4647 -0.7362 -0.4892
 6984TIP3    H242512   2.228   3.317   8.236 -0.7200 -0.9790  0.8214
 6985TIP3   OH242513   1.629   4.472   2.443  0.0994  0.2849  0.7559
 6985TIP3    H142514   1.549   4.524   2.451 -0.1893  0.0795 -0.5620
 6985TIP3    H242515   1.667   4.500   2.360  0.8872 -0.3264  0.9068
 6986TIP3   OH242516   5.247   4.518   1.407 -0.6814 -0.1110  0.1510
 6986TIP3    H142517   5.285   4.473   1.331 -2.2079 -0.3193 -0.5266
 6986TIP3    H242518   5.307   4.498   1.479 -0.9218 -2.7024 -0.2706
 6987TIP3   OH242519   5.434   1.636   8.152  0.2732  0.4773 -0.0376
 6987TIP3    H142520   5.444   1.552   8.106 -0.4883  0.5511 -0.3506
 6987TIP3    H242521   5.477   1.699   8.095  2.4704  0.0617  1.0569
 6988TIP3   OH242522   5.171   1.402   0.259  0.1265 -0.1591  0.1706
 6988TIP3    H142523   5.141   1.351   0.334 -0.9824  0.8528  0.4481
 6988TIP3    H242524   5.097   1.401   0.198  1.6853 -2.6682 -1.8991
 6989TIP3   OH242525   4.923   1.418   1.948 -0.0758  0.0307 -0.6204
 6989TIP3    H142526   4.839   1.461   1.931 -0.9148 -0.3522  2.0730
 6989TIP3    H242527   4.900   1.338   1.996  1.7951 -0.6583 -0.7740
 6990TIP3   OH242528   3.981   3.310   8.410  0.3728 -0.7688  0.6435
 6990TIP3    H142529   4.060   3.346   8.370 -0.2136 -0.7366 -0.5531
 6990TIP3    H242530   3.943   3.382   8.459  1.3657 -0.9397  1.6825
 6991TIP3   OH242531   2.369   0.875   8.325 -0.0285 -0.3594  0.6417
 6991TIP3    H142532   2.274   0.868   8.321  0.0680 -1.0806 -0.9501
 6991TIP3    H242533   2.400   0.784   8.326  0.6918 -0.1532 -0.7885
 6992TIP3   OH242534   1.690   1.267   0.514 -0.3057 -0.1524 -0.4788
 6992TIP3    H142535   1.735   1.233   0.436  0.6561 -0.2026  0.0862
 6992TIP3    H242536   1.733   1.223   0.587  0.4147  1.6397  0.2332
 6993TIP3   OH242537   5.081   5.524   8.487  0.1643 -0.7895  0.2362
 6993TIP3    H142538   5.122   5.563   8.410 -1.8125  0.3779 -0.3004
 6993TIP3    H242539   5.007   5.581   8.506  0.1597 -1.4673  2.5847
 6994TIP3   OH242540   0.330   4.115   0.740  0.0843 -0.4872 -0.2989
 6994TIP3    H142541   0.348   4.148   0.652 -1.5882  1.0472 -0.1398
 6994TIP3    H242542   0.234   4.118   0.747  0.1274 -1.7212  1.1585
 6995TIP3   OH242543   3.710   6.620   0.274 -0.0322  1.0182 -0.2267
 6995TIP3    H142544   3.722   6.628   0.369 -2.1756 -0.4755  0.2481
 6995TIP3    H242545   3.733   6.529   0.255  1.7404  1.6637 -1.4409
 6996TIP3   OH242546   2.632   3.745   1.778  0.0241 -0.0290 -0.4743
 6996TIP3    H142547   2.544   3.721   1.807 -1.0875  1.2014 -2.6002
 6996TIP3    H242548   2.624   3.756   1.683  2.6043 -0.3605 -0.8051
 6997TIP3   OH242549   2.278   2.031   8.485  0.1757  0.5661  0.4940
 6997TIP3    H142550   2.315   1.945   8.503  0.0029 -0.1850 -2.2963
 6997TIP3    H242551   2.355   2.085   8.463  0.0876  0.4944  0.0072
 6998TIP3   OH242552   1.772   2.704   1.277  0.5950 -0.3412 -0.0428
 6998TIP3    H142553   1.867   2.707   1.282  0.6460 -1.4696 -0.0470
 6998TIP3    H242554   1.742   2.723   1.366  0.8581 -0.8769  0.1640
 6999TIP3   OH242555   2.998   5.494   8.396  0.1764  0.3272  0.2417
 6999TIP3    H142556   2.917   5.444   8.386 -0.1121  0.9791 -0.9462
 6999TIP3    H242557   2.972   5.585   8.377  0.9451  0.7298  1.0711
 7000TIP3   OH242558   4.022   3.658   6.382 -0.3251 -0.2236  0.5035
 7000TIP3    H142559   4.029   3.753   6.394  1.3559 -0.2143 -0.3183
 7000TIP3    H242560   4.061   3.642   6.296 -2.6139 -1.4289 -0.4016
 7001TIP3   OH242561   1.614   3.084   1.350 -0.4068  0.3896 -0.0314
 7001TIP3    H142562   1.596   3.163   1.300 -1.1055  0.7873  0.8160
 7001TIP3    H242563   1.599   3.109   1.441  0.9110 -0.2907  0.4081
 7002TIP3   OH242564   1.448   3.238   1.922  0.7347 -0.0742 -0.2096
 7002TIP3    H142565   1.460   3.160   1.977  4.2681  0.2742 -0.2680
 7002TIP3    H242566   1.468   3.311   1.980 -1.4653  0.7966 -0.4589
 7003TIP3   OH242567   4.304   3.643   0.121  0.0026 -0.4311 -0.7588
 7003TIP3    H142568   4.235   3.615   0.060 -1.4392  2.9355 -0.9339
 7003TIP3    H242569   4.256   3.683   0.194  1.7652 -0.5072  0.4937
 7004TIP3   OH242570   3.769   0.625   8.197  0.1198 -0.1497 -0.5995
 7004TIP3    H142571   3.816   0.696   8.154  0.9892  0.0865  0.6632
 7004TIP3    H242572   3.710   0.669   8.259  0.0215 -0.5029 -0.4395
 7005TIP3   OH242573   5.783   6.690   7.890  0.0437  0.5083  0.0138
 7005TIP3    H142574   5.817   6.780   7.886  1.3988  0.0031 -0.6164
 7005TIP3    H242575   5.693   6.697   7.857  0.3414  1.5427 -0.6392
 7006TIP3   OH242576   3.216   3.304   6.636  0.0414 -0.0345  0.1604
 7006TIP3    H142577   3.157   3.256   6.578  0.7730 -0.8804  0.0964
 7006TIP3    H242578   3.186   3.395   6.631 -1.6676 -0.5234  0.6272
 7007TIP3   OH242579   2.755   0.989   1.620 -0.1895  0.3497 -1.4005
 7007TIP3    H142580   2.789   0.899   1.621  0.2752  0.3630  2.6495
 7007TIP3    H242581   2.825   1.041   1.580  1.2105 -0.6530 -0.3409
 7008TIP3   OH242582   3.396   2.074   1.052 -0.7528 -0.2918  0.5073
 7008TIP3    H142583   3.395   1.979   1.050  1.8747 -0.4010 -1.8631
 7008TIP3    H242584   3.323   2.101   0.997 -0.0453 -1.0349 -0.8248
 7009TIP3   OH242585   0.851   4.307   6.206  0.0688  0.2019 -0.2893
 7009TIP3    H142586   0.835   4.216   6.235  2.0931 -0.0534  0.1340
 7009TIP3    H242587   0.828   4.306   6.113 -0.3836 -0.6260 -0.1851
 7010TIP3   OH242588   6.116   2.579   7.393 -0.9365 -0.6428  0.3614
 7010TIP3    H142589   6.206   2.589   7.424 -0.9517 -1.2282  0.6030
 7010TIP3    H242590   6.064   2.566   7.473 -1.3322  0.3095  0.2772
 7011TIP3   OH242591   6.542   1.932   1.617  0.3264  0.2137 -0.1635
 7011TIP3    H142592   6.480   1.993   1.576 -0.2348 -0.0940  0.2225
 7011TIP3    H242593   6.590   1.986   1.680 -0.0248  0.2966  0.0310
 7012TIP3   OH242594   3.460   2.395   0.263 -0.3635  0.3655 -0.1166
 7012TIP3    H142595   3.490   2.305   0.269  0.4016  0.4808 -1.6766
 7012TIP3    H242596   3.458   2.426   0.353  2.1979 -0.3079  0.2505
 7013TIP3   OH242597   1.218   1.405   0.431 -0.0562 -0.2809 -0.0410
 7013TIP3    H142598   1.186   1.372   0.347 -2.5854  2.0658 -0.1436
 7013TIP3    H242599   1.155   1.373   0.495 -1.2104  2.1564  0.1603
 7014TIP3   OH242600   1.297   0.989   8.643 -0.8245 -0.5748  0.0113
 7014TIP3    H142601   1.347   1.070   8.654 -0.5623 -0.4879 -1.5003
 7014TIP3    H242602   1.212   1.018   8.608 -0.7192 -0.9356 -0.5640
 7015TIP3   OH242603   1.638   0.132   0.078  0.3751  0.0262 -0.1028
 7015TIP3    H142604   1.637   0.083   0.160  1.0865 -3.2255 -1.8894
 7015TIP3    H242605   1.720   0.107   0.036 -0.1811  1.2241 -2.0275
 7016TIP3   OH242606   5.076   5.351   8.723 -0.0292  0.1103  0.1058
 7016TIP3    H142607   5.108   5.413   8.788 -0.0619  0.9860 -0.6889
 7016TIP3    H242608   5.077   5.400   8.640  0.0393 -0.9789 -0.5625
 7017TIP3   OH242609   3.917   0.850   1.068 -0.4552  0.5583 -0.7239
 7017TIP3    H142610   3.928   0.773   1.125 -1.8932  0.4169 -0.5908
 7017TIP3    H242611   4.001   0.860   1.025 -0.0016 -0.6442 -0.1735
 7018TIP3   OH242612   1.107   4.167   6.474  0.0430  0.1917  0.3223
 7018TIP3    H142613   1.095   4.230   6.545 -0.0298 -0.6513  1.0832
 7018TIP3    H242614   1.113   4.082   6.519  0.2534 -0.3256 -0.6658
 7019TIP3   OH242615   4.928   3.954   0.930  0.0658  0.5418  0.1551
 7019TIP3    H142616   4.953   4.014   0.860  0.8094  1.0243  0.8144
 7019TIP3    H242617   5.004   3.897   0.942 -0.1912  0.2284  0.3259
 7020TIP3   OH242618   4.110   3.401   6.795  0.2464 -0.0487 -0.2162
 7020TIP3    H142619   4.074   3.457   6.726 -0.8507  0.4902  0.7453
 7020TIP3    H242620   4.154   3.461   6.855  2.8899 -0.7078 -1.3812
 7021TIP3   OH242621   5.074   3.404   7.683  0.2804 -0.3061  0.5141
 7021TIP3    H142622   5.105   3.453   7.607 -0.5451 -1.3575 -0.5491
 7021TIP3    H242623   5.132   3.328   7.687 -0.3272 -0.7969  0.2626
 7022TIP3   OH242624   2.891   6.462   8.461  0.3130  0.3200 -0.0153
 7022TIP3    H142625   2.887   6.483   8.368 -2.7430 -0.4720 -0.1819
 7022TIP3    H242626   2.856   6.540   8.505  1.6246  0.6451  0.4792
 7023TIP3   OH242627   0.091   5.237   1.044 -0.0490  0.1956  0.1344
 7023TIP3    H142628   0.076   5.147   1.019 -2.6342  0.6642 -0.3008
 7023TIP3    H242629   0.081   5.237   1.140  0.0551  0.0120  0.1454
 7024TIP3   OH242630   5.874   1.137   1.440 -0.3213  0.1360 -0.4596
 7024TIP3    H142631   5.813   1.174   1.504  1.3438  1.0279  0.6997
 7024TIP3    H242632   5.937   1.208   1.424  1.8495 -1.4852  0.3297
 7025TIP3   OH242633   6.078   1.376   5.763 -0.2262 -0.0110  0.3928
 7025TIP3    H142634   6.010   1.409   5.821 -1.0059  1.1112 -1.0647
 7025TIP3    H242635   6.097   1.450   5.704 -0.0852 -1.3143 -1.2955
 7026TIP3   OH242636   2.285   6.780   6.935  0.1113  0.2663  0.2466
 7026TIP3    H142637   2.248   6.818   6.856 -0.8774  0.2360  0.6810
 7026TIP3    H242638   2.358   6.725   6.904 -0.6156 -0.1999 -0.6873
 7027TIP3   OH242639   2.659   0.674   7.413  0.2031  0.1587 -0.2988
 7027TIP3    H142640   2.671   0.761   7.450 -1.8496  0.7506 -0.8897
 7027TIP3    H242641   2.701   0.615   7.476  0.4580  1.4639  0.8045
 7028TIP3   OH242642   5.721   0.867   1.543  0.3647  0.5142 -0.4776
 7028TIP3    H142643   5.763   0.953   1.543  1.2107  0.1238 -1.4606
 7028TIP3    H242644   5.788   0.807   1.511 -0.3580 -0.4411 -0.2652
 7029TIP3   OH242645   2.555   6.597   0.879  0.3050 -0.1749  0.5383
 7029TIP3    H142646   2.518   6.510   0.866  0.3042 -0.1039  0.0243
 7029TIP3    H242647   2.640   6.594   0.836  0.8091 -0.2721  1.5386
 7030TIP3   OH242648   1.444   2.940   8.645 -0.4497  0.3536 -0.0604
 7030TIP3    H142649   1.484   2.868   8.597 -0.5721  0.2799 -0.0523
 7030TIP3    H242650   1.428   2.905   8.732 -2.2610 -0.2459 -0.5769
 7031TIP3   OH242651   2.462   5.973   2.024  0.2984  0.0328  0.1704
 7031TIP3    H142652   2.519   5.897   2.013 -0.3587 -0.5233  0.5041
 7031TIP3    H242653   2.375   5.935   2.036 -0.2991  0.8754 -1.2127
 7032TIP3   OH242654   3.774   2.427   7.227  0.3349  0.1706  0.1813
 7032TIP3    H142655   3.731   2.479   7.159 -0.6588  0.7408  1.2219
 7032TIP3    H242656   3.789   2.488   7.299  0.5025 -0.6479  0.8576
 7033TIP3   OH242657   6.142   1.671   0.833 -0.4520 -0.0986  0.2149
 7033TIP3    H142658   6.073   1.626   0.784  0.2601  0.0031 -0.9086
 7033TIP3    H242659   6.105   1.757   0.851 -0.5253  0.0708 -0.6703
 7034TIP3   OH242660   5.221   3.052   1.197 -0.4285  0.4856 -0.0074
 7034TIP3    H142661   5.147   3.097   1.156  0.3855  1.3055 -0.6169
 7034TIP3    H242662   5.289   3.120   1.204 -0.0707  0.0106  1.4574
 7035TIP3   OH242663   5.191   3.163   7.525 -0.3012  0.1209  0.0473
 7035TIP3    H142664   5.269   3.217   7.529 -1.1744  1.4254 -0.0430
 7035TIP3    H242665   5.223   3.074   7.538  0.9087  0.8417  2.5913
 7036TIP3   OH242666   1.884   4.579   8.701  0.8582  0.6351  0.3159
 7036TIP3    H142667   1.821   4.617   8.762 -0.1488 -0.6785  0.1415
 7036TIP3    H242668   1.858   4.613   8.615 -0.7364 -1.2297  0.0075
 7037TIP3   OH242669   5.617   6.357   8.015  0.1969 -0.4383  0.1241
 7037TIP3    H142670   5.526   6.325   8.007 -0.0756 -0.0997  1.6204
 7037TIP3    H242671   5.667   6.300   7.957 -1.1243  0.0784 -1.5900
 7038TIP3   OH242672   2.656   0.508   8.833  0.0024 -0.0765  0.3116
 7038TIP3    H142673   2.667   0.471   8.921 -0.7966 -2.3238 -0.4522
 7038TIP3    H242674   2.744   0.537   8.809  0.6855 -1.3715  1.0727
 7039TIP3   OH242675   5.983   3.982   0.616  0.1952  0.2605  0.5842
 7039TIP3    H142676   5.944   3.989   0.528  0.9283  1.7439  0.3553
 7039TIP3    H242677   5.937   3.908   0.656 -1.6430  0.8617 -0.2908
 7040TIP3   OH242678   0.338   5.708   7.435  0.2098  0.7364  0.2329
 7040TIP3    H142679   0.322   5.781   7.496  1.8630  0.5578  0.9347
 7040TIP3    H242680   0.342   5.631   7.492  1.7436  0.5606 -0.0839
 7041TIP3   OH242681   0.686   4.301   8.569  0.1871 -0.1468  0.2285
 7041TIP3    H142682   0.613   4.283   8.629  1.2932 -0.8139  1.4169
 7041TIP3    H242683   0.680   4.233   8.502  0.3793 -0.9049  0.9623
 7042TIP3   OH242684   2.860   3.826   8.363 -0.0415  0.3948  0.2378
 7042TIP3    H142685   2.908   3.766   8.306 -0.5013 -0.5908  0.8534
 7042TIP3    H242686   2.902   3.818   8.448 -0.3545  0.6459  0.4187
 7043TIP3   OH242687   4.322   3.616   8.476  0.3664  0.4513  0.2353
 7043TIP3    H142688   4.287   3.702   8.498  2.3666  1.6932 -1.1096
 7043TIP3    H242689   4.414   3.619   8.501  1.2565 -0.1495 -2.5445
 7044TIP3   OH242690   4.319   1.861   0.586 -0.4431 -0.1911  0.2107
 7044TIP3    H142691   4.356   1.941   0.623  0.3945  0.3424 -1.6761
 7044TIP3    H242692   4.376   1.791   0.617  1.7784  0.5151 -1.9086
 7045TIP3   OH242693   5.211   4.141   0.823 -0.9026  0.0253  0.4702
 7045TIP3    H142694   5.278   4.077   0.800 -0.0574  0.2583  2.1346
 7045TIP3    H242695   5.230   4.216   0.767 -1.5887 -0.9413 -1.1232
 7046TIP3   OH242696   4.606   3.082   7.873 -0.4478  0.1196 -0.1331
 7046TIP3    H142697   4.617   3.171   7.908 -0.0527  0.2596 -0.5934
 7046TIP3    H242698   4.560   3.094   7.790  1.5979  0.1382 -1.3290
 7047TIP3   OH242699   3.031   3.448   6.896 -0.2463 -0.2943  0.7270
 7047TIP3    H142700   3.111   3.412   6.934 -1.0508 -1.3478  1.4635
 7047TIP3    H242701   3.056   3.474   6.807  1.0170 -0.1845  1.1022
 7048TIP3   OH242702   3.977   4.974   7.152  0.3818 -0.6295  0.2685
 7048TIP3    H142703   4.063   5.006   7.179  1.0236 -0.5272 -1.6840
 7048TIP3    H242704   3.989   4.951   7.059 -1.8543  0.0250 -0.2392
 7049TIP3   OH242705   0.739   1.162   5.944 -0.7141  0.8750 -0.1226
 7049TIP3    H142706   0.729   1.257   5.930  1.0547  0.8826 -1.5923
 7049TIP3    H242707   0.660   1.124   5.906 -0.9753  1.6793 -0.4126
 7050TIP3   OH242708   0.941   3.352   8.074  0.1099  0.9378  0.1861
 7050TIP3    H142709   0.997   3.423   8.106  2.7196 -1.0123  0.2418
 7050TIP3    H242710   0.953   3.281   8.137 -0.3301 -0.4733 -1.2436
 7051TIP3   OH242711   0.343   5.205   0.340  0.3324  0.5687 -0.3212
 7051TIP3    H142712   0.412   5.247   0.289  1.7260 -0.6630  0.4841
 7051TIP3    H242713   0.345   5.249   0.425 -0.6169  1.2329 -0.6175
 7052TIP3   OH242714   3.159   2.167   0.297  0.0050 -0.0418 -0.0870
 7052TIP3    H142715   3.091   2.141   0.358  0.5320  0.6486  0.8302
 7052TIP3    H242716   3.226   2.208   0.353  1.5102 -1.3430 -0.8441
 7053TIP3   OH242717   0.301   3.692   6.908  0.4876 -0.6354 -0.0371
 7053TIP3    H142718   0.359   3.731   6.974 -0.5662 -1.4910  1.4622
 7053TIP3    H242719   0.261   3.617   6.953 -1.1418 -0.5674 -1.2902
 7054TIP3   OH242720   3.416   3.501   1.720 -0.6790  0.2295 -0.5462
 7054TIP3    H142721   3.411   3.448   1.640  0.7228 -0.7803 -0.0121
 7054TIP3    H242722   3.503   3.542   1.716 -0.7364  0.4449  0.2890
 7055TIP3   OH242723   5.663   4.907   0.047  0.0532 -0.2307  0.1870
 7055TIP3    H142724   5.669   4.812   0.039  1.8003 -0.1463  0.1357
 7055TIP3    H242725   5.574   4.928   0.020 -0.9147 -1.9977  1.7921
 7056TIP3   OH242726   0.528   0.177   5.840  0.5490  0.0517 -0.2541
 7056TIP3    H142727   0.620   0.159   5.822  0.5857 -2.5486  1.9259
 7056TIP3    H242728   0.527   0.210   5.930 -0.2705  5.5923 -1.8825
 7057LIG     O142729   0.174   5.528   5.899  0.2655  0.0442 -0.1784
 7057LIG     O242730   0.379   5.609   5.959  0.2891 -0.2113  0.2970
 7057LIG     O342731   0.425   5.377   5.965  0.1047 -0.1518 -0.0728
 7057LIG     O442732   0.093   5.834   5.941 -0.1460  0.5510  0.2563
 7057LIG     O542733   0.009   5.697   6.170  0.0333  0.8181 -0.5843
 7057LIG     O642734   0.626   5.640   5.788  0.0938 -0.0266  0.8914
 7057LIG     O742735   0.638   5.638   6.079  0.1346 -0.0375 -0.5609
 7057LIG     O842736   0.722   5.395   6.201 -0.1527  0.3623 -0.2093
 7057LIG     O942737   0.362   5.814   5.754 -0.5420  0.1477  0.0964
 7057LIG    O1042738   0.135   5.302   6.031 -0.4779  0.3796  0.3880
 7057LIG    O1142739   0.354   5.212   6.199 -0.2847  0.2736  0.5266
 7057LIG     C142740   0.256   5.644   5.898  0.4607  0.1917 -0.5787
 7057LIG     C242741   0.188   5.744   6.003 -0.0450 -0.2250 -0.7884
 7057LIG     C342742   0.119   5.647   6.095  0.7842  0.7082 -0.9431
 7057LIG     C442743   0.074   5.541   6.002 -0.0643  0.1833  0.4777
 7057LIG     C542744   0.444   5.500   5.891 -0.1137 -0.6492 -0.3004
 7057LIG     C642745   0.594   5.528   5.869 -0.6420  0.2175  0.2255
 7057LIG     C742746   0.674   5.526   5.997  0.0760 -0.4317  0.4935
 7057LIG     C842747   0.652   5.402   6.075  0.0947 -0.1814  0.1081
 7057LIG     C942748   0.503   5.374   6.086  0.3908  0.4641 -0.0210
 7057LIG    C1042749   0.273   5.707   5.756  0.0878  0.7213 -0.0110
 7057LIG    C1142750   0.039   5.402   6.064 -0.0331  0.1476 -0.1658
 7057LIG    C1242751   0.491   5.230   6.160 -0.5676  0.1749 -1.0592
 7057LIG     H142752   0.264   5.802   6.057  0.5413 -0.4102 -1.4051
 7057LIG     H242753   0.198   5.600   6.155  2.7676  0.2735 -3.6848
 7057LIG     H342754  -0.016   5.582   5.955 -1.4647 -0.7625  2.1801
 7057LIG     H442755   0.399   5.483   5.791 -0.4279 -0.4089 -0.2006
 7057LIG     H542756   0.633   5.456   5.793  3.0904  2.4845 -0.2826
 7057LIG     H642757   0.779   5.528   5.961  0.2420 -2.7004  0.6877
 7057LIG     H742758   0.685   5.318   6.010  0.0589  0.1155 -0.3009
 7057LIG     H842759   0.459   5.450   6.154  0.7408  1.4285 -0.8284
 7057LIG     H942760   0.313   5.634   5.682  1.3400  0.7287  0.6348
 7057LIG    H1042761   0.171   5.730   5.717 -0.4021 -0.3595  0.5848
 7057LIG    H1142762   0.022   5.420   6.172  0.2064  0.8992 -0.2445
 7057LIG    H1242763  -0.060   5.373   6.023 -0.6968  3.9788 -1.7164
 7057LIG    H1342764   0.520   5.150   6.090  1.6208  1.5442 -1.8249
 7057LIG    H1442765   0.555   5.222   6.250 -1.1094 -2.2986 -0.8322
 7057LIG    H1542766   0.129   5.890   5.871 -0.3209 -2.4066 -2.3992
 7057LIG    H1642767  -0.033   5.766   6.117  0.4752  0.0447 -1.9864
 7057LIG    H1742768   0.710   5.611   5.753 -0.7308 -2.6192  0.9016
 7057LIG    H1842769   0.692   5.614   6.155  2.0593  1.3138 -1.4160
 7057LIG    H1942770   0.816   5.398   6.182 -0.3241  0.5630 -1.0635
 7057LIG    H2042771   0.452   5.786   5.777  0.5267  2.4121 -1.0720
 7057LIG    H2142772   0.205   5.345   5.981 -0.5537  0.0457 -0.0073
 7057LIG    H2242773   0.293   5.259   6.141 -1.6177 -2.1563 -0.2257
   6.79333   6.79333   8.83643
